17
Properties=species:S:1:pos:R:3:Z:I:1 energy=-79.25137147274432 field_type=dipole dipole="0.000000 0.000000 0.000000" charge=0
C	1.004040	-0.002950	-0.006400	6
C	2.515960	-0.007020	0.000590	6
H	0.622350	1.022400	-0.001640	1
H	0.614110	-0.519740	0.875610	1
H	0.622370	-0.508420	-0.898570	1
H	2.897650	0.502100	0.890620	1
H	2.905890	0.506090	-0.883570	1
H	2.897630	-1.032430	0.000060	1
Es	2.530917	-0.051510	0.011457	99
Es	0.804061	-0.136203	-0.406374	99
Es	2.442606	0.211234	-0.405480	99
Es	0.856544	0.336527	-0.035711	99
Es	2.652115	-0.433897	0.013384	99
Es	0.784575	0.060171	0.282287	99
Es	2.782639	0.297253	0.283794	99
Es	2.067809	-0.070635	0.036183	99
Es	0.918734	-0.257854	0.194280	99
