14
Properties=species:S:1:pos:R:3:Z:I:1 energy=-187.68919801895987 field_type=dipole dipole="0.000000 0.000000 0.000000" charge=0
O	-1.157569	0.000000	0.000000	8
O	1.157569	0.000000	0.000000	8
C	0.000000	0.000000	0.000000	6
Es	1.156873	0.000321	-0.000805	99
Es	-0.942004	-0.000227	0.001219	99
Es	0.000018	-0.000043	-0.000003	99
Es	0.636215	-0.000033	0.000391	99
Es	0.940961	-0.000322	0.000635	99
Es	1.455642	-0.001318	-0.000839	99
Es	-0.942057	-0.004976	-0.000890	99
Es	0.940549	0.001405	0.000713	99
Es	-1.455564	0.000563	-0.001824	99
Es	-0.636297	0.003521	-0.000169	99
Es	-1.154337	0.001110	0.001572	99
