32
Properties=species:S:1:pos:R:3:Z:I:1 energy=-698.1300910505239 field_type=dipole dipole="0.000000 0.000000 0.000000" charge=0
S	0.000200	-0.000200	-0.118100	16
O	1.274400	0.035500	0.897500	8
O	-1.276500	-0.032600	0.894900	8
O	-0.033600	1.257700	-0.839100	8
O	0.035400	-1.260400	-0.835100	8
H	1.211100	0.691200	1.631200	1
H	-1.214800	-0.685900	1.630700	1
Es	-0.037282	-0.144398	-0.374460	99
Es	-0.223123	-0.236794	0.181155	99
Es	0.261461	0.079834	0.050574	99
Es	-0.199221	0.145749	0.358734	99
Es	-0.082207	-0.067033	0.130420	99
Es	0.341035	0.124003	-0.006380	99
Es	0.083273	0.126366	-0.276009	99
Es	-0.489870	-0.052164	0.317791	99
Es	0.203173	0.299819	-0.244641	99
Es	-0.030463	0.016467	-0.002214	99
Es	-0.218328	-0.018954	-0.269276	99
Es	0.238132	0.112749	0.083576	99
Es	-0.299302	-0.302637	0.119432	99
Es	0.036861	-0.049166	0.021123	99
Es	0.564929	0.097029	0.430578	99
Es	-0.204358	-0.094297	0.115488	99
Es	0.273890	0.107878	0.150908	99
Es	-0.182274	-0.036139	0.071999	99
Es	-0.003351	-0.018376	0.015772	99
Es	-0.085182	-0.051011	-0.026564	99
Es	-0.059793	-0.118932	-0.210653	99
Es	-0.130372	-0.075189	-0.197011	99
Es	-0.058381	0.121039	-0.012119	99
Es	-0.009994	0.038964	0.182942	99
Es	0.309754	-0.003888	-0.020920	99
