14
Properties=species:S:1:pos:R:3:Z:I:1 energy=-187.6891980189598 field_type=dipole dipole="0.000000 0.000000 0.000000" charge=0
O	-1.157569	0.000000	0.000000	8
O	1.157569	0.000000	0.000000	8
C	0.000000	0.000000	0.000000	6
Es	-0.854194	0.119949	0.255014	99
Es	1.444612	0.000068	-0.000002	99
Es	-1.337536	-0.000112	-0.000033	99
Es	-0.853900	-0.280881	-0.023714	99
Es	-0.854118	0.161100	-0.231242	99
Es	0.793889	0.005729	0.274960	99
Es	-1.230305	-0.000059	-0.000026	99
Es	1.048835	0.005466	-0.000111	99
Es	0.000005	0.000000	0.000000	99
Es	0.793890	-0.005458	-0.274964	99
Es	1.048821	-0.005802	0.000118	99
