FCHK generated by IOData                                                
NA        NA                                                           NA
Number of atoms                            I                6
Number of electrons                        I               16
Charge                                     I                0
Multiplicity                               I                1
Number of alpha electrons                  I                8
Number of beta electrons                   I                8
Atomic numbers                             I   N=           6
           6           6           1           1           1           1
Nuclear charges                            R   N=           6
  6.00000000E+00  6.00000000E+00  1.00000000E+00  1.00000000E+00  1.00000000E+00
  1.00000000E+00
Current cartesian coordinates              R   N=          18
  1.86924149E+00  1.88972613E-04  0.00000000E+00  4.39346206E+00 -3.21253441E-04
  0.00000000E+00  8.11467296E-01  1.75770986E+00  0.00000000E+00  8.10824789E-01
 -1.75716184E+00  0.00000000E+00  5.45185987E+00  1.75706735E+00  0.00000000E+00
  5.45123626E+00 -1.75782324E+00  0.00000000E+00
Number of basis functions                  I               72
Number of independent functions            I               72
Number of contracted shells                I               40
Number of primitive shells                 I               66
Pure/Cartesian d shells                    I                0
Pure/Cartesian f shells                    I                0
Highest angular momentum                   I                2
Largest degree of contraction              I                6
Shell types                                I   N=          40
           0           0           1           0           1           0
           1          -2           0           1           0           0
           1           0           1           0           1          -2
           0           1           0           0           0           1
           0           0           0           0           1           0
           0           0           0           1           0           0
           0           0           1           0
Number of primitives per shell             I   N=          40
           6           3           3           1           1           1
           1           1           1           1           6           3
           3           1           1           1           1           1
           1           1           3           1           1           1
           1           3           1           1           1           1
           3           1           1           1           1           3
           1           1           1           1
Shell to atom map                          I   N=          40
           1           1           1           1           1           1
           1           1           1           1           2           2
           2           2           2           2           2           2
           2           2           3           3           3           3
           3           4           4           4           4           4
           5           5           5           5           5           6
           6           6           6           6
Primitive exponents                        R   N=          66
  4.56324000E+03  6.82024000E+02  1.54973000E+02  4.44553000E+01  1.30290000E+01
  1.82773000E+00  2.09642000E+01  4.80331000E+00  1.45933000E+00  2.09642000E+01
  4.80331000E+00  1.45933000E+00  4.83456000E-01  4.83456000E-01  1.45585000E-01
  1.45585000E-01  6.26000000E-01  4.38000000E-02  4.38000000E-02  4.56324000E+03
  6.82024000E+02  1.54973000E+02  4.44553000E+01  1.30290000E+01  1.82773000E+00
  2.09642000E+01  4.80331000E+00  1.45933000E+00  2.09642000E+01  4.80331000E+00
  1.45933000E+00  4.83456000E-01  4.83456000E-01  1.45585000E-01  1.45585000E-01
  6.26000000E-01  4.38000000E-02  4.38000000E-02  3.38650000E+01  5.09479000E+00
  1.15879000E+00  3.25840000E-01  1.02741000E-01  7.50000000E-01  3.60000000E-02
  3.38650000E+01  5.09479000E+00  1.15879000E+00  3.25840000E-01  1.02741000E-01
  7.50000000E-01  3.60000000E-02  3.38650000E+01  5.09479000E+00  1.15879000E+00
  3.25840000E-01  1.02741000E-01  7.50000000E-01  3.60000000E-02  3.38650000E+01
  5.09479000E+00  1.15879000E+00  3.25840000E-01  1.02741000E-01  7.50000000E-01
  3.60000000E-02
Contraction coefficients                   R   N=          66
  1.96665000E-03  1.52306000E-02  7.61269000E-02  2.60801000E-01  6.16462000E-01
  2.21006000E-01  1.14660000E-01  9.19999000E-01 -3.03068000E-03  4.02487000E-02
  2.37594000E-01  8.15854000E-01  1.00000000E+00  1.00000000E+00  1.00000000E+00
  1.00000000E+00  1.00000000E+00  1.00000000E+00  1.00000000E+00  1.96665000E-03
  1.52306000E-02  7.61269000E-02  2.60801000E-01  6.16462000E-01  2.21006000E-01
  1.14660000E-01  9.19999000E-01 -3.03068000E-03  4.02487000E-02  2.37594000E-01
  8.15854000E-01  1.00000000E+00  1.00000000E+00  1.00000000E+00  1.00000000E+00
  1.00000000E+00  1.00000000E+00  1.00000000E+00  2.54938000E-02  1.90373000E-01
  8.52161000E-01  1.00000000E+00  1.00000000E+00  1.00000000E+00  1.00000000E+00
  2.54938000E-02  1.90373000E-01  8.52161000E-01  1.00000000E+00  1.00000000E+00
  1.00000000E+00  1.00000000E+00  2.54938000E-02  1.90373000E-01  8.52161000E-01
  1.00000000E+00  1.00000000E+00  1.00000000E+00  1.00000000E+00  2.54938000E-02
  1.90373000E-01  8.52161000E-01  1.00000000E+00  1.00000000E+00  1.00000000E+00
  1.00000000E+00
Coordinates of each shell                  R   N=         120
  1.86924149E+00  1.88972613E-04  0.00000000E+00  1.86924149E+00  1.88972613E-04
  0.00000000E+00  1.86924149E+00  1.88972613E-04  0.00000000E+00  1.86924149E+00
  1.88972613E-04  0.00000000E+00  1.86924149E+00  1.88972613E-04  0.00000000E+00
  1.86924149E+00  1.88972613E-04  0.00000000E+00  1.86924149E+00  1.88972613E-04
  0.00000000E+00  1.86924149E+00  1.88972613E-04  0.00000000E+00  1.86924149E+00
  1.88972613E-04  0.00000000E+00  1.86924149E+00  1.88972613E-04  0.00000000E+00
  4.39346206E+00 -3.21253441E-04  0.00000000E+00  4.39346206E+00 -3.21253441E-04
  0.00000000E+00  4.39346206E+00 -3.21253441E-04  0.00000000E+00  4.39346206E+00
 -3.21253441E-04  0.00000000E+00  4.39346206E+00 -3.21253441E-04  0.00000000E+00
  4.39346206E+00 -3.21253441E-04  0.00000000E+00  4.39346206E+00 -3.21253441E-04
  0.00000000E+00  4.39346206E+00 -3.21253441E-04  0.00000000E+00  4.39346206E+00
 -3.21253441E-04  0.00000000E+00  4.39346206E+00 -3.21253441E-04  0.00000000E+00
  8.11467296E-01  1.75770986E+00  0.00000000E+00  8.11467296E-01  1.75770986E+00
  0.00000000E+00  8.11467296E-01  1.75770986E+00  0.00000000E+00  8.11467296E-01
  1.75770986E+00  0.00000000E+00  8.11467296E-01  1.75770986E+00  0.00000000E+00
  8.10824789E-01 -1.75716184E+00  0.00000000E+00  8.10824789E-01 -1.75716184E+00
  0.00000000E+00  8.10824789E-01 -1.75716184E+00  0.00000000E+00  8.10824789E-01
 -1.75716184E+00  0.00000000E+00  8.10824789E-01 -1.75716184E+00  0.00000000E+00
  5.45185987E+00  1.75706735E+00  0.00000000E+00  5.45185987E+00  1.75706735E+00
  0.00000000E+00  5.45185987E+00  1.75706735E+00  0.00000000E+00  5.45185987E+00
  1.75706735E+00  0.00000000E+00  5.45185987E+00  1.75706735E+00  0.00000000E+00
  5.45123626E+00 -1.75782324E+00  0.00000000E+00  5.45123626E+00 -1.75782324E+00
  0.00000000E+00  5.45123626E+00 -1.75782324E+00  0.00000000E+00  5.45123626E+00
 -1.75782324E+00  0.00000000E+00  5.45123626E+00 -1.75782324E+00  0.00000000E+00
Total Energy                               R       0.00000000E+00
Alpha Orbital Energies                     R   N=          72
 -1.12344024E+01 -1.12327202E+01 -1.03484608E+00 -7.91899210E-01 -6.45389963E-01
 -5.86333383E-01 -5.08994967E-01 -3.76288297E-01  4.93606784E-02  6.20811642E-02
  6.36064444E-02  8.18722716E-02  1.05939639E-01  1.29608084E-01  1.40546464E-01
  1.75808979E-01  1.85012633E-01  2.06053661E-01  2.22490049E-01  2.25666332E-01
  2.31616638E-01  2.62834000E-01  2.89115171E-01  3.14275849E-01  4.62518776E-01
  5.12750386E-01  5.78532065E-01  5.90783309E-01  6.99684242E-01  7.06860215E-01
  7.24607385E-01  8.08492561E-01  8.40964304E-01  9.29889613E-01  9.48928463E-01
  9.59139513E-01  9.80252310E-01  1.09290815E+00  1.22994806E+00  1.34418659E+00
  1.35638417E+00  1.63749757E+00  1.66879796E+00  1.69575394E+00  1.87127141E+00
  1.87317235E+00  1.87425719E+00  1.88099844E+00  2.03914969E+00  2.07848093E+00
  2.26017631E+00  2.39791528E+00  2.40342122E+00  2.43623490E+00  2.45959818E+00
  2.55423438E+00  2.70296965E+00  2.77277340E+00  2.87648208E+00  2.89666415E+00
  3.00574000E+00  3.01989887E+00  3.12244344E+00  3.16748905E+00  3.28748555E+00
  3.52200138E+00  3.85013413E+00  4.05736470E+00  4.22862241E+00  4.53698273E+00
  2.49084910E+01  2.54151177E+01
Alpha MO coefficients                      R   N=        5184
  5.68554081E-01  4.75981222E-01 -1.71115352E-06 -1.35142029E-03  1.64271837E-06
 -2.16765897E-02 -2.87644412E-06 -5.67807111E-04  2.88806004E-06 -1.64458093E-02
 -2.70423069E-06  1.96952838E-04  2.03414986E-06  4.24900703E-04 -3.25136452E-07
  6.17803754E-11  7.49917885E-06 -4.19190309E-07  1.76968259E-03 -3.25763306E-07
  4.52554057E-04 -1.06732696E-06  1.62633403E-03  3.03986032E-03 -1.71115433E-06
  5.14769088E-03 -1.54466335E-06 -8.58551297E-03 -2.87644558E-06  8.78082666E-03
 -2.59480649E-06 -3.02543214E-03 -2.70423117E-06  2.87323860E-03 -1.46615391E-06
  4.33007770E-04  3.25137179E-07 -6.08908084E-11 -1.24793701E-03  1.21574033E-07
 -3.53491477E-04 -3.25762718E-07 -1.39609195E-04  8.57427051E-07 -4.57260336E-03
 -6.80430153E-03  3.02273945E-04 -1.34866181E-07 -5.53007689E-04  9.19153636E-04
 -7.00541448E-04 -4.57453509E-03 -6.80742697E-03  2.99949833E-04 -1.34847879E-07
 -5.53389504E-04 -9.18960645E-04 -7.02158086E-04  5.00094697E-04  1.04242105E-03
  9.37588581E-04 -1.34846137E-07  2.47939735E-04  3.63047776E-05 -1.28360494E-04
  5.01264291E-04  1.04397813E-03  9.38779705E-04 -1.34868137E-07  2.47926380E-04
 -3.63536123E-05 -1.27136125E-04 -3.18415371E-02 -6.57752503E-02  1.15225344E-01
  1.09360778E-01 -2.07748934E-05  2.02205113E-01  1.93693471E-01  1.65353886E-01
 -3.09525088E-05  9.23187767E-02  1.82096994E-01  7.30018956E-02 -1.23175126E-05
 -5.57025908E-03  2.18939792E-02 -4.16015360E-06  1.87432935E-02 -7.57650033E-06
  1.91473971E-03  2.19361903E-02 -5.90396926E-03  7.26366829E-06 -3.18792682E-02
 -6.58056261E-02  1.15225399E-01 -1.09361921E-01  2.37454021E-05  2.02200392E-01
  1.93693570E-01 -1.65355774E-01  3.52692075E-05  9.23147351E-02  1.82097027E-01
 -7.30026177E-02  1.43464579E-05 -5.57010353E-03 -2.18940282E-02  4.10021120E-06
  1.87435990E-02 -7.35459417E-06  1.91674117E-03  2.19361507E-02  5.90341298E-03
 -7.34983291E-06 -5.46911879E-03 -1.59823897E-02 -2.26208890E-02  9.08159441E-03
  5.83317911E-03 -3.31687800E-04  1.03030130E-04 -5.46977372E-03 -1.59855041E-02
 -2.26226484E-02  9.08036194E-03  5.83259731E-03  3.30562054E-04  1.11716595E-04
 -5.46880247E-03 -1.59838928E-02 -2.26223898E-02  9.08024463E-03 -5.83271012E-03
 -3.30836267E-04  1.11936543E-04 -5.47263658E-03 -1.59876454E-02 -2.26219365E-02
  9.08172608E-03 -5.83295142E-03  3.31132614E-04  1.02747828E-04  6.98417528E-03
  1.28607004E-02 -7.87777327E-07 -1.97060909E-02 -3.48352785E-03 -3.87822240E-02
 -1.32425141E-06 -2.40834988E-02 -4.36886916E-03 -3.56507875E-02 -1.24496815E-06
 -2.66095882E-02  2.58232313E-02  1.41951736E-04 -1.49685649E-07  2.84421414E-11
  1.68664216E-03 -1.78168910E-02  8.16175152E-03 -1.49974239E-07  2.45570963E-03
  1.66967976E-02 -3.92729821E-02 -7.89353579E-02 -7.87777700E-07  9.02924772E-02
 -1.37168898E-01  2.33899762E-01 -1.32425209E-06  1.39468477E-01 -2.09598158E-01
  1.77714856E-01 -1.24496837E-06  7.60064067E-02 -1.41353955E-01 -9.13745977E-03
  1.49685982E-07 -2.80322912E-11 -1.23395897E-02 -2.18428791E-02 -2.22103569E-02
 -1.49973970E-07  4.87900320E-04 -1.06319602E-02  9.53451378E-03  2.12338461E-02
  2.29706963E-02 -6.20894146E-08 -1.45888315E-03  1.30906632E-03 -9.95928351E-03
 -7.39896058E-03 -1.28251843E-02 -1.00514243E-02 -6.20809884E-08 -3.61447011E-04
  2.57747862E-03  9.48634013E-03 -1.39289169E-02 -3.29211997E-02 -3.00478010E-02
 -6.20801861E-08  5.29772612E-03 -6.74119656E-03  4.38786878E-03  1.91067706E-01
  2.91830860E-01  6.88834157E-02 -6.20903122E-08 -1.39624104E-02  2.47514080E-02
  1.35896625E-02  6.98721724E-03  1.28639082E-02 -2.35257546E-07 -1.97088216E-02
  3.49412535E-03 -3.87876418E-02 -3.95467254E-07 -2.40854062E-02  4.38075343E-03
 -3.56572942E-02 -3.71790533E-07 -2.66236479E-02 -2.58166723E-02  1.41548258E-04
 -4.47013099E-08  8.49391753E-12  1.70035557E-03  1.78173979E-02  8.15962400E-03
 -4.47874894E-08  2.45143182E-03 -1.66898013E-02 -3.92641846E-02 -7.89194654E-02
 -2.35257656E-07  9.03331654E-02  1.37138636E-01  2.33854705E-01 -3.95467457E-07
  1.39541301E-01  2.09564261E-01  1.77715156E-01 -3.71790596E-07  7.60670707E-02
  1.41351866E-01 -9.13612577E-03  4.47014094E-08 -8.37084313E-12 -1.23267335E-02
  2.18504359E-02 -2.22172874E-02 -4.47874135E-08  4.91956160E-04  1.06208685E-02
 -7.39602298E-03 -1.28184031E-02 -1.00503085E-02 -1.85420458E-08 -3.61735788E-04
 -2.57907838E-03  9.48258886E-03  9.53746117E-03  2.12396075E-02  2.29837379E-02
 -1.85395292E-08 -1.45976790E-03 -1.30799357E-03 -9.95129710E-03  1.91053910E-01
  2.91838961E-01  6.89144283E-02 -1.85392902E-08 -1.39680925E-02 -2.47458713E-02
  1.36031945E-02 -1.39336047E-02 -3.29280478E-02 -3.00500269E-02 -1.85423148E-08
  5.30143932E-03  6.74023820E-03  4.38136171E-03 -3.92666194E-02 -7.89222642E-02
  2.38344591E-06 -9.03398978E-02 -1.37134734E-01  2.33858480E-01  4.00656569E-06
 -1.39550156E-01 -2.09557160E-01  1.77715204E-01  3.76669160E-06 -7.60708210E-02
 -1.41346052E-01 -9.13639059E-03  4.52878797E-07 -8.60524930E-11 -1.23266587E-02
  2.18503941E-02 -2.22186202E-02  4.53751934E-07 -4.92153313E-04 -1.06206266E-02
  6.98347000E-03  1.28608090E-02  2.38344704E-06  1.97132817E-02 -3.49372850E-03
 -3.87878388E-02  4.00656773E-06  2.40921791E-02 -4.38028832E-03 -3.56553317E-02
  3.76669227E-06  2.66269924E-02  2.58159348E-02  1.41650499E-04 -4.52879810E-07
  8.48131552E-11  1.69951045E-03  1.78168147E-02  8.16062083E-03  4.53751117E-07
 -2.45203010E-03  1.66892449E-02 -1.39282228E-02 -3.29197263E-02 -3.00481563E-02
  1.87853542E-07 -5.30107085E-03 -6.74091529E-03  4.38157725E-03  1.91055186E-01
  2.91838016E-01  6.89121589E-02  1.87828049E-07  1.39684330E-02  2.47458838E-02
  1.36026962E-02  9.53926457E-03  2.12423733E-02  2.29844450E-02  1.87825622E-07
  1.45975310E-03  1.30755175E-03 -9.95067005E-03 -7.39368675E-03 -1.28145036E-02
 -1.00483827E-02  1.87856266E-07  3.61903525E-04  2.57942396E-03  9.48257860E-03
 -1.62601964E-03 -3.04015026E-03 -1.59810963E-05  5.14917690E-03  2.47761049E-07
  8.58829702E-03 -2.68641767E-05  8.78317465E-03  1.50027571E-07  3.02640896E-03
 -2.52558117E-05  2.87398287E-03  6.97136033E-07 -4.33100167E-04 -3.03656971E-06
  5.76989528E-10  1.24827959E-03 -6.34100070E-07  3.53627754E-04 -3.04242414E-06
 -1.39689555E-04  1.29066067E-06 -5.68555319E-01 -4.75983741E-01 -1.59811039E-05
 -1.35166906E-03 -2.33071308E-08  2.16842065E-02 -2.68641904E-05 -5.68119958E-04
  4.67292044E-07  1.64505514E-02 -2.52558162E-05  1.97097983E-04  2.47326769E-08
 -4.25161538E-04  3.03657650E-06 -5.68675878E-10 -7.40847226E-06 -6.16915320E-08
 -1.77001711E-03 -3.04241864E-06  4.52633574E-04 -1.54086623E-06 -4.99846494E-04
 -1.04177062E-03 -9.38202725E-04 -1.25956521E-06  2.48128988E-04 -3.64730486E-05
  1.27003196E-04 -5.01640966E-04 -1.04497764E-03 -9.38688343E-04 -1.25939427E-06
  2.47902892E-04  3.62179385E-05  1.28463121E-04  4.57460819E-03  6.80719631E-03
 -3.00699622E-04 -1.25937800E-06 -5.53427567E-04 -9.19148784E-04  7.02495311E-04
  4.57549933E-03  6.80860282E-03 -3.01578656E-04 -1.25958347E-06 -5.53311282E-04
  9.19538974E-04  7.00567351E-04  3.92783779E-02  7.89363330E-02  9.65804120E-07
  9.02936314E-02 -1.37172986E-01 -2.33881694E-01  1.62351394E-06  1.39470526E-01
 -2.09605558E-01 -1.77705780E-01  1.52631375E-06  7.60078837E-02 -1.41360478E-01
  9.13692639E-03  1.83512538E-07 -3.48697979E-11  1.23401113E-02  2.18436241E-02
  2.22071567E-02  1.83866343E-07  4.87144494E-04 -1.06310825E-02 -6.98786975E-03
 -1.28636858E-02  9.65804579E-07 -1.97125845E-02 -3.48205630E-03  3.87818897E-02
  1.62351476E-06 -2.40937769E-02 -4.36671328E-03  3.56482728E-02  1.52631402E-06
 -2.66139990E-02  2.58259588E-02 -1.41761596E-04 -1.83512949E-07  3.43672704E-11
 -1.68559363E-03  1.78176860E-02 -8.15820222E-03  1.83866015E-07  2.45526592E-03
  1.66965430E-02 -1.91067535E-01 -2.91833485E-01 -6.88879266E-02  7.61207647E-08
 -1.39621124E-02  2.47511457E-02 -1.35906739E-02  1.39336535E-02  3.29282408E-02
  3.00496521E-02  7.61104341E-08  5.29828719E-03 -6.74092158E-03 -4.38648744E-03
  7.39788076E-03  1.28239750E-02  1.00515225E-02  7.61094509E-08 -3.61652809E-04
  2.57767051E-03 -9.48623619E-03 -9.53880792E-03 -2.12405500E-02 -2.29732548E-02
  7.61218683E-08 -1.45886092E-03  1.30860542E-03  9.95857501E-03  3.18584519E-02
  6.57998192E-02  1.15195860E-01 -1.09387137E-01  2.47510131E-05 -2.02259219E-01
  1.93643908E-01 -1.65393493E-01  3.70327179E-05 -9.23447336E-02  1.82050399E-01
 -7.30194783E-02  1.65543348E-05  5.57174468E-03  2.18883770E-02 -4.15908909E-06
 -1.87477509E-02  6.85766004E-06 -1.91480843E-03  2.19305772E-02  5.90549561E-03
 -6.87639005E-06  3.18081415E-02  6.57556216E-02  1.15195915E-01  1.09390360E-01
 -2.43079977E-05 -2.02246709E-01  1.93644007E-01  1.65399090E-01 -3.61563434E-05
 -9.23341084E-02  1.82050432E-01  7.30217198E-02 -1.57788024E-05  5.57139374E-03
 -2.18884260E-02  4.09916204E-06 -1.87485465E-02  6.73369869E-06 -1.91778027E-03
  2.19305376E-02 -5.90482873E-03  6.81520472E-06  5.47232152E-03  1.59894817E-02
  2.26278889E-02  9.07927060E-03 -5.83442986E-03  3.31716931E-04 -1.03074741E-04
  5.46693520E-03  1.59829909E-02  2.26266133E-02  9.07803844E-03 -5.83440286E-03
 -3.31095817E-04 -1.11937915E-04  5.47087978E-03  1.59887675E-02  2.26275276E-02
  9.07792117E-03  5.83411042E-03  3.30648667E-04 -1.11526439E-04  5.47619062E-03
  1.59950691E-02  2.26285089E-02  9.07940223E-03  5.83429136E-03 -3.30971650E-04
 -1.02856634E-04  1.10047996E-02  2.02058236E-02  2.43972443E-02 -3.36323016E-06
 -2.04959374E-15 -8.70655436E-02  3.65822988E-02  4.71281188E-06 -2.52203365E-16
  1.20338757E-01  1.08506415E-02 -2.41991653E-05 -9.69988588E-15 -5.46425611E-04
 -3.44732434E-17 -1.41383000E-16 -3.02355041E-03 -2.64220880E-06 -2.11410873E+00
  3.94533920E-01 -1.15134441E-03  6.60899003E-16  1.10047817E-02  2.02057983E-02
 -2.43971901E-02  3.02974565E-06 -2.13415663E-15 -8.70653948E-02 -3.65823140E-02
 -5.73940182E-06  2.40588741E-15  1.20339791E-01 -1.08533260E-02  2.14472123E-05
 -1.83615808E-14 -5.46346336E-04  7.10056777E-16  3.62796583E-17 -3.02347518E-03
 -2.82242531E-06 -2.11409112E+00 -3.94515898E-01  1.17339284E-03  4.41913211E-14
 -7.86109991E-03 -1.26692527E-02 -5.54533487E-02 -2.08753457E-03  1.06096599E-02
  9.59629443E-17  1.31941479E+00 -7.86394952E-03 -1.26317385E-02 -5.57774261E-02
 -2.08999137E-03 -1.06062433E-02 -1.32517908E-16  1.31734285E+00 -7.86353780E-03
 -1.26281044E-02 -5.57824756E-02  2.08975993E-03  1.06059812E-02  1.50334337E-16
  1.31725786E+00 -7.86138233E-03 -1.26705432E-02 -5.54533865E-02  2.08759552E-03
 -1.06096970E-02  3.66676776E-16  1.31945224E+00  1.16732664E-02  2.05035413E-02
  7.99215622E-03 -8.17095472E-06  5.70762333E-16 -7.55337333E-02  3.29222963E-02
 -2.21144832E-05  1.40509205E-15 -4.55118731E-02 -1.32928795E-01  5.21327696E-05
 -3.27669642E-15 -5.24842147E-03 -6.33703650E-17 -1.96755071E-16  3.36079280E-03
 -3.93774962E-06 -5.06550082E+00  1.78035570E-01 -3.19023228E-04  2.92242765E-14
 -1.16733780E-02 -2.05037599E-02  7.99237760E-03 -8.32204657E-06  1.12150011E-15
  7.55347854E-02  3.29227381E-02 -2.05942202E-05 -1.59296890E-15  4.55105894E-02
 -1.32928041E-01  4.73757172E-05  1.26033975E-14  5.24836305E-03 -4.37113659E-16
 -2.26667493E-16 -3.36076094E-03  4.59807308E-06  5.06549503E+00  1.78022782E-01
 -5.61175267E-04 -4.63914172E-14 -2.92373289E-03 -2.26157004E-02  4.46717436E-02
 -4.02217714E-03  7.41072105E-03  1.53449044E-16  2.30773516E+00 -2.91938006E-03
 -2.25966920E-02  4.47045365E-02 -4.02220650E-03 -7.40584656E-03  2.74497139E-17
  2.30587596E+00  2.91968867E-03  2.25916666E-02 -4.46675721E-02 -4.02200518E-03
 -7.40562915E-03 -1.04157210E-16 -2.30562116E+00  2.92369892E-03  2.26190570E-02
 -4.47004809E-02 -4.02235806E-03  7.41105516E-03 -2.12812949E-16 -2.30799413E+00
  4.34943282E-06  7.64116029E-06  8.02657786E-06  2.58051040E-02 -8.49024624E-16
 -2.80093970E-05  2.35490504E-05  6.38658707E-02  7.02895852E-16 -5.30473076E-06
 -3.83884538E-05 -4.83002646E-02 -6.75248412E-15 -2.10744414E-06 -7.76585055E-17
 -1.17841953E-16  3.54533943E-06  6.78688393E-03 -2.38841015E-03 -1.62211265E-05
  1.16510491E+00  1.39049856E-14 -4.54243863E-06 -7.99118646E-06  8.63876984E-06
  2.58053721E-02 -1.15360907E-15  2.93616312E-05  2.43812777E-05  6.38655733E-02
 -1.78785428E-16  6.25539482E-06 -3.58706651E-05 -4.82956271E-02 -6.90665055E-15
  2.16355263E-06  1.74677516E-16 -1.31375806E-16 -3.51185885E-06 -6.78703317E-03
  2.34575927E-03 -4.16778319E-05  1.16521493E+00  8.23999862E-15  4.70459682E-03
  8.26440101E-03  3.10347475E-02  3.87968569E-03 -4.28129281E-03  1.64769407E-17
 -2.62658246E+00 -4.70500441E-03 -8.27326047E-03 -3.10039499E-02 -3.88486777E-03
 -4.28628732E-03  8.78858244E-17  2.62792699E+00  4.70497891E-03  8.27307721E-03
  3.09930380E-02 -3.88492645E-03 -4.28673557E-03  2.59807222E-16 -2.62801271E+00
 -4.70454235E-03 -8.26703876E-03 -3.10137883E-02  3.87969431E-03 -4.28114594E-03
 -2.82378997E-17  2.62669336E+00  1.18459668E-06  2.62493695E-06  6.50394237E-06
  1.93192058E-02  3.83930317E-15 -1.60733817E-05  1.26501652E-05  1.55959553E-02
  9.92334592E-15  6.91098653E-05  3.81484436E-06  8.39528818E-02 -2.83002820E-15
  4.71794281E-07 -1.35370349E-15 -1.22897686E-16  3.70856621E-07  4.04201935E-03
  1.42261774E-03  1.02930904E-03  6.86523522E+00  1.24036139E-13  1.58828751E-06
  3.39350509E-06 -6.49298860E-06 -1.93189411E-02 -4.05605637E-15 -2.00949543E-05
 -1.55433305E-05 -1.55947801E-02 -9.55280831E-15  7.70379260E-05  6.44932344E-06
 -8.39554684E-02  1.61640948E-15  2.91466235E-07 -1.32330740E-15  7.46470643E-17
  8.65443101E-07  4.04199713E-03  7.53731388E-04 -7.65593921E-04 -6.86524932E+00
 -1.23107616E-13  3.09205388E-03  7.55393083E-02 -6.25684343E-01  4.35323551E-03
 -5.22324905E-03  9.79370674E-16 -7.52702482E+00 -3.09371229E-03 -7.55102454E-02
  6.25408311E-01 -4.35359404E-03 -5.22388379E-03  1.09649492E-15  7.52624573E+00
 -3.09363728E-03 -7.55099752E-02  6.25401323E-01  4.35339716E-03  5.22407619E-03
 -1.00817640E-15  7.52618298E+00  3.09181479E-03  7.55414182E-02 -6.25712967E-01
 -4.35321627E-03  5.22312931E-03 -8.39371618E-16 -7.52701243E+00 -4.93215404E-16
 -7.41430930E-16 -6.18950319E-16 -1.79721695E-15  8.51820499E-02  4.36345601E-15
  4.84061525E-15  3.33301531E-15  1.58617456E-01 -3.99487345E-14 -3.60415800E-14
 -5.04835434E-15  1.62237519E-01  2.23887467E-16 -2.17012548E-02  4.39169579E-06
 -5.07041383E-16 -2.21812182E-15  1.67270508E-12  7.35344302E-13 -6.75922141E-13
  1.55950703E+00  1.09776898E-15  1.78025934E-15 -1.05731080E-15  8.91160654E-16
 -8.51821302E-02 -4.33878851E-15  3.29818813E-15 -3.39006098E-16 -1.58617505E-01
  1.17924392E-14 -3.12586368E-14  2.19096683E-15 -1.62237869E-01  3.68857104E-16
 -2.17012144E-02  4.38653734E-06  2.88514082E-16 -8.24896180E-16 -1.66735451E-12
  6.50403409E-13  6.16871979E-13 -1.55950628E+00  1.30579497E-15 -2.00019691E-14
  1.04621868E-13 -3.95718599E-16  1.87855532E-15  1.67207174E-02  8.88826446E-13
  1.94700419E-16  1.70337383E-14 -8.86889495E-14  2.54216588E-15  1.78933440E-15
  1.67192935E-02 -4.32841781E-13 -1.09925814E-15  1.13507496E-14 -7.60854567E-14
  1.14304409E-16 -2.84907336E-16 -1.67191105E-02 -8.15831733E-13 -6.41532039E-16
 -8.36854523E-15  4.81629114E-14  1.28967638E-15 -5.27034815E-16 -1.67208361E-02
  3.76793211E-13  4.23062452E-16  1.18078439E-15  6.67557337E-15  2.00666883E-15
  6.35460657E-02 -2.24840260E-15  6.14788114E-15  3.64410750E-15  4.19324528E-02
 -2.49754593E-14  3.98759317E-14  2.32376508E-14  3.39544197E-01  2.27236727E-15
  1.18795721E-02 -1.89572259E-06  4.98879536E-15 -1.05969614E-15  3.09463977E-13
 -6.61860014E-13  5.93671442E-14 -6.62780416E-01  1.43914135E-15  2.24804175E-15
 -7.41745239E-15  2.44649769E-15  6.35459904E-02 -2.56209847E-15 -8.13318299E-15
  4.31363576E-15  4.19323056E-02 -5.96516104E-14 -4.50734358E-14 -4.43926607E-15
  3.39543968E-01  3.22910615E-15 -1.18796398E-02  1.78710846E-06  4.96472664E-15
  5.19390993E-16  1.61505659E-12  3.71393790E-13 -2.24340920E-13 -6.62782167E-01
 -4.61879832E-15  1.18717356E-14 -1.37066074E-13 -1.85464245E-15 -1.44350457E-15
 -2.68674770E-03 -3.40551069E-13 -5.90575233E-15  1.85189492E-14 -1.17607796E-13
 -8.44963763E-16  1.97735186E-15 -2.68790801E-03 -3.14189989E-13 -4.50347523E-15
  2.17229641E-14 -1.13165666E-13  9.07618441E-16 -2.13827998E-15 -2.68805376E-03
 -1.68943550E-13 -6.55663014E-15  2.45535677E-14 -2.12459444E-13  1.16933305E-15
  9.34998110E-16 -2.68665908E-03 -5.26217955E-13  3.87914675E-03  5.17595706E-03
 -2.38545899E-02  4.22942039E-06  1.16566739E-14  7.54267294E-03 -8.79624516E-03
  1.28372291E-06  7.25184190E-15 -1.53791063E-01 -1.38649545E-01  1.58493001E-05
  6.37384089E-14 -1.96054371E-03  3.43181160E-15  2.98873074E-17 -2.09160382E-02
  8.16523504E-06 -2.69534418E+00  2.10760300E+00 -6.72830221E-05 -1.75824269E-13
  3.87918505E-03  5.17602871E-03  2.38545143E-02 -4.42439433E-06  1.69242657E-14
  7.54255830E-03  8.79530382E-03 -2.52622985E-06  1.60434120E-14 -1.53797662E-01
  1.38656237E-01 -1.41684409E-05  8.31836531E-14 -1.96043751E-03 -2.27509605E-15
  8.04178568E-17 -2.09162634E-02  8.13254517E-06 -2.69512578E+00 -2.10767221E+00
  5.22726544E-05 -1.20957234E-13  1.72288977E-02 -3.66166735E-02  4.16017541E-01
  6.92589897E-03  4.59352306E-03 -1.00610736E-15  9.95651669E-01  1.72337197E-02
 -3.66279661E-02  4.16130567E-01  6.92508578E-03 -4.59616449E-03 -6.85412514E-16
  9.95563560E-01  1.72344189E-02 -3.66257669E-02  4.16128325E-01 -6.92531194E-03
  4.59615513E-03 -2.31442552E-16  9.95568426E-01  1.72287167E-02 -3.66160315E-02
  4.16011534E-01 -6.92600384E-03 -4.59359987E-03  2.23523063E-16  9.95673818E-01
  7.86623478E-03  1.41307774E-02  7.31014533E-04 -1.62887535E-06  8.07525032E-15
 -6.33297156E-02 -8.75373033E-03 -3.45778122E-06  1.59306743E-14  4.71849117E-01
  4.08405005E-01 -8.51688181E-05  1.91565154E-14 -7.99892128E-03 -1.30559179E-15
 -4.21743048E-16  1.93065158E-02 -6.44824708E-06 -3.16118890E+01 -1.22012304E+01
  2.56830526E-03  1.05333079E-13 -7.86613677E-03 -1.41305846E-02  7.30393808E-04
 -1.75589082E-06 -7.89594104E-15  6.33290073E-02 -8.75455543E-03 -4.46271794E-06
 -1.21743677E-14 -4.71850463E-01  4.08401562E-01 -8.13206873E-05 -2.59259049E-14
  7.99898884E-03 -1.39316003E-15 -2.15135570E-16 -1.93063126E-02  6.18323986E-06
  3.16119673E+01 -1.22011766E+01  2.58871700E-03 -1.00446127E-13 -9.16650917E-03
 -9.80289127E-04 -5.77656435E-02 -1.14661441E-02 -3.47802890E-03  1.78542881E-15
 -3.59262963E+00 -9.16634359E-03 -1.00180469E-03 -5.76979881E-02 -1.14649214E-02
  3.48145394E-03  4.84615226E-16 -3.59183557E+00  9.16632119E-03  1.00552720E-03
  5.76813783E-02 -1.14647443E-02  3.48122039E-03 -1.44086163E-15  3.59174257E+00
  9.16634039E-03  9.81063371E-04  5.77651189E-02 -1.14661113E-02 -3.47805196E-03
 -2.63597000E-15  3.59266007E+00  1.25793384E-02  2.08154558E-02 -8.47808533E-03
  4.64685971E-06 -1.12381629E-14 -1.91131244E-02  3.62133275E-02 -9.75559562E-06
 -1.50755096E-14 -3.72876626E-01 -1.12027985E-01  2.05180084E-05 -5.17987654E-14
  3.23896317E-02 -3.13001369E-16 -1.85016526E-16  2.61597269E-03  3.70178240E-06
  4.86807813E+00 -4.91405065E-01 -6.96319346E-04  7.55117094E-14  1.25793048E-02
  2.08153775E-02  8.47819050E-03 -5.05095140E-06  4.92591785E-16 -1.91127711E-02
 -3.62123498E-02  1.16031742E-05 -2.70139734E-15 -3.72873804E-01  1.12024458E-01
 -2.37026478E-05  1.25183262E-14  3.23895053E-02  2.15252966E-15 -3.61288833E-17
  2.61631984E-03  4.90709926E-06  4.86814453E+00  4.91360614E-01  7.10761015E-04
  2.18795841E-14 -2.75604817E-02  8.42847784E-02 -1.01343932E+00  4.35556087E-03
 -8.10039760E-03 -4.41811758E-16 -1.64353518E+00 -2.75662835E-02  8.42790385E-02
 -1.01362795E+00  4.35397282E-03  8.09120227E-03 -2.90153205E-16 -1.64424446E+00
 -2.75662697E-02  8.42770202E-02 -1.01361956E+00 -4.35337752E-03 -8.09039603E-03
  6.09031742E-16 -1.64421112E+00 -2.75605668E-02  8.42853711E-02 -1.01344037E+00
 -4.35604457E-03  8.10100044E-03  3.88732218E-16 -1.64353549E+00 -1.62369801E-06
 -3.05137247E-06  7.31038808E-06  4.63879421E-02 -5.96339081E-15  8.27869326E-06
  1.24867595E-06  6.90631346E-02 -7.04626068E-15  7.36073995E-05  7.80094358E-05
  2.41917345E-01 -2.95031522E-14 -4.21817201E-06  2.02145407E-16 -4.17806235E-16
 -9.41138966E-06 -1.95260267E-02 -3.25611330E-03 -9.90373421E-04 -3.36889723E+00
  4.68990145E-14  2.07727964E-06  3.87445383E-06  6.43872473E-06  4.63879206E-02
  1.41203981E-15 -1.09446376E-05 -8.21460530E-07  6.90633939E-02  1.74570259E-15
 -8.54106310E-05  7.30404583E-05  2.41913805E-01  9.85447885E-15  4.47487171E-06
  1.20037146E-15  1.73841832E-18  9.21541725E-06  1.95256528E-02  3.47950455E-03
 -8.80480496E-04 -3.36886702E+00 -3.90894028E-15  2.44623672E-02 -1.04157045E-01
  8.43010276E-01 -4.20787451E-03 -1.21521564E-03 -1.10844612E-16  4.07620769E+00
 -2.44553110E-02  1.04114113E-01 -8.42703749E-01  4.20441372E-03 -1.22136287E-03
 -8.01838520E-16 -4.07532244E+00  2.44548695E-02 -1.04111546E-01  8.42699167E-01
  4.20427427E-03 -1.22160587E-03  1.71857822E-16  4.07519882E+00 -2.44624802E-02
  1.04157970E-01 -8.43011101E-01 -4.20777494E-03 -1.21509912E-03  4.78464377E-16
 -4.07627851E+00  1.84561408E-02  3.15198263E-02  2.15371576E-02  1.22857137E-05