FCHK generated by IOData                                                
NA        NA                                                           NA
Number of atoms                            I                4
Number of electrons                        I               14
Charge                                     I                0
Multiplicity                               I                1
Number of alpha electrons                  I                7
Number of beta electrons                   I                7
Atomic numbers                             I   N=           4
           6           6           1           1
Nuclear charges                            R   N=           4
  6.00000000E+00  6.00000000E+00  1.00000000E+00  1.00000000E+00
Current cartesian coordinates              R   N=          12
  1.88018301E+00  0.00000000E+00  0.00000000E+00  4.14834569E+00  0.00000000E+00
  0.00000000E+00 -1.33622534E-01  0.00000000E+00  0.00000000E+00  6.16215123E+00
  0.00000000E+00  0.00000000E+00
Number of basis functions                  I               58
Number of independent functions            I               58
Number of contracted shells                I               30
Number of primitive shells                 I               52
Pure/Cartesian d shells                    I                0
Pure/Cartesian f shells                    I                0
Highest angular momentum                   I                2
Largest degree of contraction              I                6
Shell types                                I   N=          30
           0           0           1           0           1           0
           1          -2           0           1           0           0
           1           0           1           0           1          -2
           0           1           0           0           0           1
           0           0           0           0           1           0
Number of primitives per shell             I   N=          30
           6           3           3           1           1           1
           1           1           1           1           6           3
           3           1           1           1           1           1
           1           1           3           1           1           1
           1           3           1           1           1           1
Shell to atom map                          I   N=          30
           1           1           1           1           1           1
           1           1           1           1           2           2
           2           2           2           2           2           2
           2           2           3           3           3           3
           3           4           4           4           4           4
Primitive exponents                        R   N=          52
  4.56324000E+03  6.82024000E+02  1.54973000E+02  4.44553000E+01  1.30290000E+01
  1.82773000E+00  2.09642000E+01  4.80331000E+00  1.45933000E+00  2.09642000E+01
  4.80331000E+00  1.45933000E+00  4.83456000E-01  4.83456000E-01  1.45585000E-01
  1.45585000E-01  6.26000000E-01  4.38000000E-02  4.38000000E-02  4.56324000E+03
  6.82024000E+02  1.54973000E+02  4.44553000E+01  1.30290000E+01  1.82773000E+00
  2.09642000E+01  4.80331000E+00  1.45933000E+00  2.09642000E+01  4.80331000E+00
  1.45933000E+00  4.83456000E-01  4.83456000E-01  1.45585000E-01  1.45585000E-01
  6.26000000E-01  4.38000000E-02  4.38000000E-02  3.38650000E+01  5.09479000E+00
  1.15879000E+00  3.25840000E-01  1.02741000E-01  7.50000000E-01  3.60000000E-02
  3.38650000E+01  5.09479000E+00  1.15879000E+00  3.25840000E-01  1.02741000E-01
  7.50000000E-01  3.60000000E-02
Contraction coefficients                   R   N=          52
  1.96665000E-03  1.52306000E-02  7.61269000E-02  2.60801000E-01  6.16462000E-01
  2.21006000E-01  1.14660000E-01  9.19999000E-01 -3.03068000E-03  4.02487000E-02
  2.37594000E-01  8.15854000E-01  1.00000000E+00  1.00000000E+00  1.00000000E+00
  1.00000000E+00  1.00000000E+00  1.00000000E+00  1.00000000E+00  1.96665000E-03
  1.52306000E-02  7.61269000E-02  2.60801000E-01  6.16462000E-01  2.21006000E-01
  1.14660000E-01  9.19999000E-01 -3.03068000E-03  4.02487000E-02  2.37594000E-01
  8.15854000E-01  1.00000000E+00  1.00000000E+00  1.00000000E+00  1.00000000E+00
  1.00000000E+00  1.00000000E+00  1.00000000E+00  2.54938000E-02  1.90373000E-01
  8.52161000E-01  1.00000000E+00  1.00000000E+00  1.00000000E+00  1.00000000E+00
  2.54938000E-02  1.90373000E-01  8.52161000E-01  1.00000000E+00  1.00000000E+00
  1.00000000E+00  1.00000000E+00
Coordinates of each shell                  R   N=          90
  1.88018301E+00  0.00000000E+00  0.00000000E+00  1.88018301E+00  0.00000000E+00
  0.00000000E+00  1.88018301E+00  0.00000000E+00  0.00000000E+00  1.88018301E+00
  0.00000000E+00  0.00000000E+00  1.88018301E+00  0.00000000E+00  0.00000000E+00
  1.88018301E+00  0.00000000E+00  0.00000000E+00  1.88018301E+00  0.00000000E+00
  0.00000000E+00  1.88018301E+00  0.00000000E+00  0.00000000E+00  1.88018301E+00
  0.00000000E+00  0.00000000E+00  1.88018301E+00  0.00000000E+00  0.00000000E+00
  4.14834569E+00  0.00000000E+00  0.00000000E+00  4.14834569E+00  0.00000000E+00
  0.00000000E+00  4.14834569E+00  0.00000000E+00  0.00000000E+00  4.14834569E+00
  0.00000000E+00  0.00000000E+00  4.14834569E+00  0.00000000E+00  0.00000000E+00
  4.14834569E+00  0.00000000E+00  0.00000000E+00  4.14834569E+00  0.00000000E+00
  0.00000000E+00  4.14834569E+00  0.00000000E+00  0.00000000E+00  4.14834569E+00
  0.00000000E+00  0.00000000E+00  4.14834569E+00  0.00000000E+00  0.00000000E+00
 -1.33622534E-01  0.00000000E+00  0.00000000E+00 -1.33622534E-01  0.00000000E+00
  0.00000000E+00 -1.33622534E-01  0.00000000E+00  0.00000000E+00 -1.33622534E-01
  0.00000000E+00  0.00000000E+00 -1.33622534E-01  0.00000000E+00  0.00000000E+00
  6.16215123E+00  0.00000000E+00  0.00000000E+00  6.16215123E+00  0.00000000E+00
  0.00000000E+00  6.16215123E+00  0.00000000E+00  0.00000000E+00  6.16215123E+00
  0.00000000E+00  0.00000000E+00  6.16215123E+00  0.00000000E+00  0.00000000E+00
Total Energy                               R       0.00000000E+00
Alpha Orbital Energies                     R   N=          58
 -1.12443666E+01 -1.12405001E+01 -1.03375189E+00 -7.66705229E-01 -6.81957646E-01
 -4.12232028E-01 -4.12232028E-01  4.21562873E-02  4.74338576E-02  1.13736000E-01
  1.13736000E-01  1.26854377E-01  1.26854377E-01  1.50334740E-01  1.68167167E-01
  1.88083982E-01  2.17341140E-01  2.48827104E-01  2.48827104E-01  3.55113984E-01
  3.82885056E-01  5.75719161E-01  6.15895351E-01  7.03968450E-01  7.03968450E-01
  8.22975698E-01  8.22975698E-01  8.67398040E-01  8.73681151E-01  1.01784783E+00
  1.21953613E+00  1.29204762E+00  1.29204762E+00  1.31585205E+00  1.41018904E+00
  1.41018904E+00  1.69774132E+00  1.69774132E+00  1.85130367E+00  1.85130367E+00
  2.01662518E+00  2.12895013E+00  2.12895013E+00  2.49343946E+00  2.81519826E+00
  2.81519826E+00  2.86792255E+00  2.92108545E+00  3.12842071E+00  3.12842071E+00
  3.33260378E+00  3.36307199E+00  3.36307199E+00  3.71117665E+00  3.75422802E+00
  4.18102821E+00  2.47337548E+01  2.63371499E+01
Alpha MO coefficients                      R   N=        3364
  4.90350821E-02  9.75443610E-02 -1.24362336E-06  1.59751345E-01  9.05748946E-07
 -2.91771031E-01 -2.03168527E-06  2.11550376E-01  1.47970587E-06 -2.76819978E-01
 -1.64001794E-06  9.94953732E-02  1.19444887E-06  1.26999979E-02 -2.22853830E-07
  1.80523138E-16 -2.19970415E-02  1.62307677E-07  4.40985616E-01 -1.44453256E-07
  1.67549223E-01  1.05207404E-07 -1.24406896E-02 -2.43400503E-02 -1.24362336E-06
 -3.24866971E-02  9.05748945E-07  7.76344990E-02 -2.03168527E-06 -4.19001525E-02
  1.47970587E-06  7.09679010E-02 -1.64001794E-06 -3.36689869E-02  1.19444887E-06
 -5.63361750E-03  2.22853827E-07  2.94412648E-17  9.75771174E-03 -1.62307678E-07
 -4.95684622E-01 -1.44453259E-07  1.14199479E-01  1.05207405E-07 -1.86588562E-01
 -2.89708283E-01 -7.47572510E-03 -1.13922742E-07 -3.46750107E-02  8.29715861E-08
  5.02910437E-02 -6.48047292E-03 -1.76961716E-02 -2.11413646E-03 -1.13922741E-07
  4.53276719E-03  8.29715860E-08 -1.66064687E-02  2.49838041E-03  4.80732407E-03
  6.62823705E-07 -6.40455388E-03 -3.36309251E-07 -1.38256769E-02  1.08284325E-06
 -9.44934185E-03 -5.49422415E-07 -4.55432401E-03  8.74093234E-07 -1.95672808E-03
 -4.43505020E-07  6.70586461E-04  1.18776154E-07 -1.62540707E-16 -1.16148982E-03
 -6.02656773E-08 -9.63849118E-03  7.69903880E-08 -2.23166610E-03 -3.90640520E-08
  5.68673329E-01  4.76260845E-01  6.62823705E-07  2.56883355E-03 -3.36309250E-07
 -2.15714674E-02  1.08284325E-06  2.96868885E-04 -5.49422415E-07 -1.66545908E-02
  8.74093235E-07  6.80367837E-04 -4.43505020E-07  2.95196595E-04 -1.18776154E-07
  4.84880284E-17 -5.11295501E-04  6.02656768E-08  1.02342580E-02  7.69903857E-08
 -4.05979490E-03 -3.90640507E-08  1.30309974E-03  2.34056896E-03  1.12748670E-03
  6.07182976E-08  2.71394979E-04 -3.08077780E-08 -1.08982887E-03 -5.14730924E-03
 -8.07264601E-03  1.85982288E-04  6.07182973E-08  1.07328459E-03 -3.08077776E-08
  6.59390578E-04  3.12731260E-02  6.51244885E-02 -6.40705446E-03 -8.16951519E-02
  1.43230307E-01 -1.92990499E-01 -1.04670904E-02 -9.74966020E-02  2.33992794E-01
 -9.29638826E-02 -8.44924965E-03 -3.45128167E-02  1.88883773E-01  8.97016478E-03
 -1.14812624E-03 -1.19843418E-15 -1.55367811E-02  2.56664704E-02  2.14170813E-02
 -7.44212370E-04 -4.56028973E-03  1.66369378E-02  3.12855820E-02  6.51378627E-02
 -6.40705446E-03  8.16896808E-02  1.43230307E-01 -1.93006321E-01 -1.04670904E-02
  9.74892387E-02  2.33992794E-01 -9.29788603E-02 -8.44924965E-03  3.45099967E-02
  1.88883773E-01  8.97093683E-03  1.14812624E-03 -3.00012313E-16 -1.55381184E-02
 -2.56664704E-02  2.14572625E-02 -7.44212370E-04  4.54819663E-03  1.66369378E-02
  8.70589817E-03  2.62670136E-02  4.69296408E-03 -5.86921433E-04  5.82606230E-03
  1.31206840E-02 -1.42328306E-02  8.69813756E-03  2.62552814E-02  4.69272259E-03
 -5.86921433E-04 -5.82475894E-03  1.31206840E-02 -1.42299531E-02  5.68675614E-01
  4.76265540E-01  5.12271496E-07 -2.57036071E-03 -2.40694745E-07 -2.15853796E-02
  8.36888795E-07 -2.98367083E-04 -3.93218704E-07 -1.66631440E-02  6.75553765E-07
 -6.80375636E-04 -3.17414189E-07  2.95816449E-04  9.17976191E-08  2.66913321E-17
 -5.12369120E-04 -4.31318252E-08  1.02386603E-02  5.95029732E-08  4.06134416E-03
 -2.79579321E-08  2.50624006E-03  4.81605147E-03  5.12271497E-07  6.40713637E-03
 -2.40694744E-07 -1.38364894E-02  8.36888794E-07  9.45220336E-03 -3.93218705E-07
 -4.56001002E-03  6.75553766E-07  1.95728860E-03 -3.17414186E-07  6.71044289E-04
 -9.17976194E-08  1.51001948E-16 -1.16228280E-03  4.31318247E-08 -9.64192857E-03
  5.95029721E-08  2.23247125E-03 -2.79579361E-08 -5.14977667E-03 -8.07587891E-03
  1.86102357E-04  4.69268870E-08 -1.07355201E-03 -2.20489627E-08  6.59318768E-04
  1.30211483E-03  2.33956787E-03  1.12764362E-03  4.69268872E-08 -2.71372817E-04
 -2.20489626E-08 -1.09045644E-03  1.24487105E-02  2.43519207E-02  1.51500038E-06
 -3.24965230E-02 -9.56918335E-07 -7.76602251E-02  2.47502905E-06 -4.19117578E-02
 -1.56330039E-06 -7.09808525E-02  1.99789411E-06 -3.36730300E-02 -1.26192808E-06
  5.63480494E-03  2.71483830E-07 -9.39674018E-17 -9.75976845E-03 -1.71477089E-07
  4.95689227E-01  1.75975097E-07  1.14199575E-01 -1.11150993E-07 -4.90398716E-02
 -9.75434100E-02  1.51500038E-06  1.59761710E-01 -9.56918334E-07  2.91746794E-01
  2.47502905E-06  2.11562790E-01 -1.56330039E-06  2.76808532E-01  1.99789412E-06
  9.94996849E-02 -1.26192808E-06 -1.26988675E-02 -2.71483828E-07  7.38528420E-16
  2.19950837E-02  1.71477089E-07 -4.40984923E-01  1.75975094E-07  1.67550313E-01
 -1.11150992E-07  6.48086831E-03  1.76984153E-02  2.11469827E-03  1.38782369E-07
  4.53337914E-03 -8.76589834E-08  1.66048512E-02  1.86589743E-01  2.89711728E-01
  7.47632124E-03  1.38782366E-07 -3.46757600E-02 -8.76589829E-08 -5.02929523E-02
  3.12731463E-02  6.51243966E-02 -1.20822762E-01 -8.16944024E-02 -7.71876640E-02
 -1.92989974E-01 -1.97385988E-01 -9.74956644E-02 -1.26100108E-01 -9.29638435E-02
 -1.59334010E-01 -3.45124161E-02 -1.01790588E-01  8.97013620E-03 -2.16511010E-02
  2.84838621E-16 -1.55367316E-02 -1.38318135E-02  2.14171903E-02 -1.40341860E-02
 -4.56009360E-03 -8.96574467E-03  3.12854922E-02  6.51376338E-02 -1.20822762E-01
  8.16890133E-02 -7.71876640E-02 -1.93005558E-01 -1.97385988E-01  9.74884110E-02
 -1.26100108E-01 -9.29785966E-02 -1.59334010E-01  3.45096385E-02 -1.01790588E-01
  8.97089654E-03  2.16511010E-02 -8.35474569E-17 -1.55380486E-02  1.38318135E-02
  2.14567682E-02 -1.40341860E-02  4.54818198E-03 -8.96574468E-03  8.70549831E-03
  2.62663189E-02  4.69292393E-03 -1.10680296E-02  5.82596261E-03 -7.07081463E-03
 -1.42326852E-02  8.69785402E-03  2.62547625E-02  4.69268600E-03 -1.10680296E-02
 -5.82467875E-03 -7.07081463E-03 -1.42298508E-02  3.12606490E-02  6.51012041E-02
  1.27272652E-01 -8.16649533E-02 -6.60655866E-02 -1.92926815E-01  2.07923058E-01
 -9.74602818E-02 -1.07930169E-01 -9.29343265E-02  1.67839748E-01 -3.44994347E-02
 -8.71234415E-02  8.96717097E-03  2.28069032E-02  2.65747443E-16 -1.55315957E-02
 -1.18387683E-02  2.14083941E-02  1.47833739E-02 -4.55829564E-03 -7.67385810E-03
  3.12724577E-02  6.51141460E-02  1.27272652E-01  8.16592952E-02 -6.60655866E-02
 -1.92943184E-01  2.07923058E-01  9.74526744E-02 -1.07930169E-01 -9.29498133E-02
  1.67839748E-01  3.44965171E-02 -8.71234415E-02  8.96797118E-03 -2.28069032E-02
 -7.37554656E-16 -1.55329817E-02  1.18387683E-02  2.14499629E-02  1.47833739E-02
  4.54578556E-03 -7.67385810E-03  8.70070208E-03  2.62544924E-02  4.69124165E-03
  1.16588750E-02  5.82361695E-03 -6.05197115E-03 -1.42276056E-02  8.69267808E-03
  2.62423633E-02  4.69099330E-03  1.16588750E-02 -5.82226986E-03 -6.05197115E-03
 -1.42246294E-02  8.44254943E-03  1.47084468E-02  1.76280445E-02 -6.19917631E-16
 -2.77470397E-15 -5.28029251E-02  1.61614032E-02 -2.76478050E-15 -6.73260473E-15
 -5.43472754E-02  3.60359582E-02  7.33481867E-15  1.66386833E-14 -1.57390955E-03
  6.37200925E-16 -5.40079196E-17  2.72609131E-03  3.56124599E-16 -4.31045877E+00
  2.53799502E+00 -6.60836301E-14 -1.65052883E-13  8.44254750E-03  1.47084434E-02
 -1.76280411E-02  2.61433906E-16  1.19523308E-16 -5.28029148E-02 -1.61614061E-02
  3.88099116E-15  9.36472441E-15 -5.43474136E-02 -3.60357564E-02 -1.25049572E-14
 -3.45057585E-14 -1.57390961E-03  1.11989512E-15 -1.68332225E-16  2.72609140E-03
  5.84517148E-16 -4.31046978E+00 -2.53799110E+00  7.69370324E-14  1.94627150E-13
 -7.52249964E-03 -9.80670759E-02  5.46946597E-01 -1.20651617E-02 -2.64041000E-16
 -1.36215160E-15  4.37157034E+00 -7.52249982E-03 -9.80670722E-02  5.46946240E-01
  1.20651613E-02  3.55750839E-16  1.64556999E-15  4.37156832E+00  9.61211136E-03
  1.65522901E-02  1.44968113E-02  1.76852094E-15  3.24915325E-15 -4.73185302E-02
  5.99297512E-03  1.17689780E-15  3.20590283E-16  2.44966786E-01  4.53625911E-01
  6.18944039E-15  2.08676384E-14 -2.23030623E-03  7.38284025E-17 -7.31560090E-17
  3.86300370E-03 -4.24467042E-16  3.19177268E+01  1.18878740E+01  1.14582694E-14
 -4.15019702E-15 -9.61211352E-03 -1.65522938E-02  1.44968161E-02  4.06308907E-16
  2.84268601E-15  4.73185417E-02  5.99297937E-03 -1.13445020E-15 -1.92990340E-15
 -2.44966746E-01  4.53625937E-01  6.28246995E-15  2.53842039E-14  2.23030614E-03
 -1.04537184E-15  2.85453463E-16 -3.86300355E-03 -3.54541954E-16 -3.19177259E+01
  1.18878745E+01 -3.47442401E-14 -7.86601280E-14  5.98467390E-04 -3.68828597E-02
  1.02854613E+00 -6.69735620E-03  4.83404704E-16 -4.80936049E-16  7.06573996E+00
 -5.98465095E-04  3.68828744E-02 -1.02854626E+00 -6.69735784E-03  9.65503980E-16
 -9.86121562E-16 -7.06574089E+00  3.45384948E-15  5.13525772E-15 -4.62005217E-15
 -1.73551427E-06  6.38495246E-02  7.83701011E-15  2.88732105E-14 -3.47151803E-06
  1.27717057E-01 -1.64792241E-13 -1.38857954E-13 -2.07093068E-06  7.61894851E-02
  6.80816325E-15 -2.37459904E-02 -2.84537150E-16 -1.34619136E-14  6.45447329E-07
 -1.98027481E-12 -9.61246352E-13 -5.25482290E-05  1.93324797E+00  4.65841498E-15
  4.83070694E-15  3.61866024E-15  1.73551427E-06 -6.38495246E-02  7.56270989E-15
 -1.57325825E-14  3.47151803E-06 -1.27717057E-01 -5.85796684E-14 -3.91398118E-14
  2.07093065E-06 -7.61894850E-02  9.74055068E-15 -2.37459904E-02 -6.57269250E-17
 -1.76671565E-14  6.45447330E-07  3.32219071E-12 -6.48956864E-13  5.25482291E-05
 -1.93324797E+00 -8.33402630E-15  2.07314852E-14 -3.03451640E-13  1.02931852E-14
 -5.78769667E-07  2.12929209E-02 -6.28782532E-13 -7.13143875E-15  2.71607334E-14
 -1.15591495E-13 -1.23925869E-14  5.78769668E-07 -2.12929209E-02 -1.78499857E-13
  8.15530622E-17 -6.15319563E-18 -2.76852735E-15  6.38495246E-02  1.73551426E-06
  1.17597144E-14 -4.12580450E-15  1.27717057E-01  3.47151802E-06 -4.40992534E-15
  9.70389890E-14  7.61894849E-02  2.07093064E-06  4.69149801E-15 -6.45447331E-07
 -8.18399218E-17 -9.46087704E-15 -2.37459904E-02  6.32227644E-12  2.23672241E-12
  1.93324797E+00  5.25482291E-05  2.79036341E-15  3.80398511E-15  9.00687798E-16
 -6.38495246E-02 -1.73551428E-06  1.80892532E-15 -9.53592086E-15 -1.27717057E-01
 -3.47151803E-06 -1.58673985E-13  1.02254105E-13 -7.61894853E-02 -2.07093070E-06
  1.26470428E-15 -6.45447328E-07  4.18273313E-16 -1.64778559E-15 -2.37459904E-02
 -6.42762390E-12  1.81811049E-12 -1.93324797E+00 -5.25482290E-05 -2.44772240E-15
  3.75660440E-15  1.78898682E-13  6.61595233E-15  2.12929209E-02  5.78769668E-07
  7.44981045E-13 -1.63758648E-15 -9.96167237E-15 -1.14357624E-13  4.30438931E-16
 -2.12929209E-02 -5.78769666E-07 -5.68294284E-13 -2.88288795E-15 -6.14766671E-15
 -4.05877594E-15 -1.54071987E-04  6.09175898E-02  7.73853304E-15  7.77604414E-15
 -9.09164055E-05  3.59468869E-02  5.83546411E-13  3.70857514E-13 -7.78509617E-04
  3.07810202E-01 -1.02839791E-14  1.27665959E-02  3.44639165E-16  1.59206087E-14
 -3.22891107E-05  9.31847787E-12  3.23863677E-12  1.64848094E-03 -6.51782897E-01
  5.61477058E-15  9.82347144E-15 -8.19837042E-15 -1.54071987E-04  6.09175898E-02
 -1.96954566E-14 -4.04287807E-16 -9.09164052E-05  3.59468869E-02 -5.93201469E-13
  3.72068758E-13 -7.78509616E-04  3.07810202E-01  1.05456697E-14 -1.27665959E-02
 -1.95329446E-17 -1.78106974E-14  3.22891107E-05 -8.39988104E-12  3.91425685E-12
  1.64848095E-03 -6.51782897E-01  1.34286095E-15 -2.50989045E-14  4.98064307E-13
 -4.86042611E-15  7.85322333E-06 -3.10503842E-03  1.43635156E-12 -5.84932811E-15
  3.17022429E-14 -6.92089886E-13 -1.51871472E-15  7.85322338E-06 -3.10503842E-03
 -2.13592900E-12 -5.98410926E-16 -9.47518538E-16 -1.47386682E-15  6.09175898E-02
  1.54071987E-04  9.73695039E-16  1.27854379E-14  3.59468870E-02  9.09164053E-05
  9.69528437E-14 -4.82955771E-15  3.07810202E-01  7.78509616E-04 -3.63099969E-15
  3.22891107E-05 -7.40576186E-16  4.95682431E-15  1.27665959E-02 -1.46370662E-12
 -4.73616295E-13 -6.51782896E-01 -1.64848095E-03  1.70529591E-15  2.98663634E-15
 -3.31234892E-15  6.09175897E-02  1.54071987E-04 -5.10782966E-15  6.46064600E-15
  3.59468868E-02  9.09164054E-05 -9.06309438E-14  7.21753642E-15  3.07810202E-01
  7.78509616E-04  4.46574165E-15 -3.22891107E-05  5.70011131E-17 -7.15025997E-15
 -1.27665959E-02  1.96876881E-12 -1.00460040E-13 -6.51782898E-01 -1.64848094E-03
 -2.08355881E-16 -9.42095399E-15 -1.11029701E-14 -1.66827934E-15 -3.10503841E-03
 -7.85322337E-06 -6.52950163E-14 -2.32910306E-15  1.63403646E-14 -1.19681842E-13
 -6.05053665E-16 -3.10503843E-03 -7.85322335E-06 -3.13717290E-13  9.14418029E-03
  1.35239486E-02 -4.63971031E-02 -1.23497404E-14 -2.79935691E-14  2.19480731E-02
 -7.24094480E-03 -1.54798349E-14 -2.76907984E-14 -3.73818711E-01 -1.64833772E-01
 -6.24200507E-14 -1.52101007E-13  2.42089258E-02  8.68071453E-15 -2.87657353E-16
 -4.19310895E-02  3.57947695E-15  2.81725213E-01  1.43480323E+00 -1.15147436E-13
 -2.00920314E-13  9.14418018E-03  1.35239484E-02  4.63971032E-02  1.32088500E-14
  2.83603648E-14  2.19480735E-02  7.24094547E-03  1.60405145E-14  3.21746123E-14
 -3.73818700E-01  1.64833760E-01  6.19036876E-14  1.47111291E-13  2.42089259E-02
  8.49541889E-15  1.92789555E-17 -4.19310896E-02  3.55021853E-15  2.81725854E-01
 -1.43480344E+00  1.14749422E-13  2.01015104E-13 -2.40503663E-02  2.85975269E-03
 -2.67960247E-01  3.41431711E-02 -2.62374574E-15 -4.45299729E-15  8.44090006E-02
 -2.40503663E-02  2.85975308E-03 -2.67960231E-01 -3.41431713E-02  3.06096567E-15
  4.77481029E-15  8.44090715E-02  2.39716265E-02  4.12631088E-02  2.12095613E-02
 -8.08020801E-15 -3.94202419E-16 -1.15353026E-01  8.55542745E-02 -4.50114768E-15
  1.52947150E-14 -8.84341135E-01 -8.11094798E-01 -7.36710091E-14 -4.57758379E-14
 -3.94493053E-03  3.06201783E-15  3.16512263E-16  6.83282010E-03  4.17880076E-15
 -9.15931907E+01 -3.02975050E+01  2.67245019E-13 -5.46465676E-14 -2.39716224E-02
 -4.12631020E-02  2.12095506E-02  1.17085952E-14  1.83239593E-14  1.15353016E-01
  8.55542553E-02  1.58311411E-16  1.72277847E-15  8.84340986E-01 -8.11094873E-01
  9.92569273E-14  1.44710715E-13  3.94493429E-03  3.86819365E-15 -9.66759006E-16
 -6.83282663E-03 -9.27376776E-16  9.15931926E+01 -3.02975037E+01 -3.04219850E-13
 -1.60855730E-13  1.16202784E-03  9.29209874E-02 -1.88696810E+00 -1.84312439E-02
 -1.06249365E-15 -1.29699190E-15 -1.14501510E+01 -1.16203566E-03 -9.29209330E-02
  1.88696785E+00 -1.84312471E-02 -7.00839164E-15 -1.52545792E-15  1.14501495E+01
  1.70241260E-02  2.91716219E-02  3.73031177E-02 -3.41563939E-15 -2.43885011E-14
 -5.99297070E-02  9.29104590E-02 -2.91619877E-15 -2.41429961E-14 -2.56118651E-01
  4.31498154E-02 -2.35356836E-14 -1.28016601E-13  1.49085343E-02  2.74103380E-15
 -6.39812729E-17 -2.58223389E-02  4.28133621E-16  9.52651490E+00 -6.63319268E+00
  2.80885745E-15  1.92289787E-14  1.70241322E-02  2.91716329E-02 -3.73031241E-02
  7.49398449E-16  1.65713786E-14 -5.99297370E-02 -9.29104726E-02  1.24009712E-15
  2.10864844E-14 -2.56118797E-01 -4.31497596E-02  3.88483191E-15  9.28586690E-14
  1.49085357E-02  4.61049600E-15 -4.19967739E-16 -2.58223413E-02  1.31491553E-15
  9.52649857E+00  6.63319833E+00  4.23732626E-14  5.68050852E-14 -3.58159336E-02
  1.87166900E-01 -1.79411978E+00  3.35511646E-03  3.01976618E-16 -4.69301490E-15
 -7.65216302E+00 -3.58159339E-02  1.87166937E-01 -1.79412010E+00 -3.35511425E-03
 -5.13637816E-16  4.99029581E-15 -7.65216544E+00  1.04150159E-03  4.89626986E-03
  1.77670208E-02  2.43831639E-14  2.79067909E-14  1.24743123E-03 -3.53242030E-02
  2.92711087E-14  3.45930057E-14 -8.47611147E-01 -2.24528329E-01  1.36451989E-13
  1.48866343E-13  3.81331045E-02 -1.43522038E-15 -1.58376080E-16 -6.60484745E-02
 -5.15007321E-15  3.69998036E+01  7.40095446E+00 -2.83740294E-13 -2.20981699E-13
 -1.04150097E-03 -4.89626871E-03  1.77670203E-02 -1.64961942E-14 -7.37493999E-15
 -1.24743579E-03 -3.53242079E-02 -1.16978415E-14  8.31980531E-15  8.47611180E-01
 -2.24528302E-01 -1.21521666E-13 -1.07586076E-13 -3.81331040E-02 -8.89008630E-15
  9.40889375E-16  6.60484735E-02 -4.42317654E-15 -3.69998031E+01  7.40095486E+00
  2.16810628E-13  5.54719084E-14 -4.03107298E-02  9.86461979E-02 -1.31373157E+00
  2.35951470E-02  3.28147787E-15  1.52133417E-15 -1.44076050E+00  4.03107279E-02
 -9.86461935E-02  1.31373141E+00  2.35951477E-02  1.15212514E-15 -2.13095523E-15
  1.44076007E+00  6.98597050E-15  1.21225574E-14 -1.12801742E-15  1.62622974E-01
 -2.24618337E-05 -4.39055517E-14 -4.99708846E-15  1.83761292E-01 -2.53815035E-05
  5.36802976E-13  5.04669660E-13  1.03794795E+00 -1.43363595E-04 -2.84420058E-15
  4.97235266E-06 -1.47477234E-15  1.80119582E-15 -3.59996778E-02 -3.57493034E-12
 -1.03979315E-12 -1.67042098E+00  2.30722126E-04 -6.64597037E-15 -1.12845968E-14
  9.61460049E-15 -1.62622974E-01  2.24618337E-05  2.78423189E-14  3.04655138E-15
 -1.83761292E-01  2.53815035E-05 -3.33982632E-13  6.29739301E-13 -1.03794795E+00
  1.43363595E-04  4.54995586E-15  4.97235266E-06  3.31662671E-16 -7.53023098E-15
 -3.59996778E-02  4.48540015E-12 -4.20484862E-13  1.67042098E+00 -2.30722126E-04
  7.64798490E-15  6.57107631E-14  4.58338658E-13 -1.84032592E-15  2.29995938E-02
 -3.17675319E-06 -2.93017437E-13 -1.54412909E-14 -5.71031940E-14 -9.66211362E-13
 -1.62006169E-15 -2.29995938E-02  3.17675319E-06 -3.53475150E-13  8.42518315E-15
  1.42050190E-14 -7.03503423E-16  2.24618337E-05  1.62622974E-01 -4.68106378E-14
 -2.04674362E-15  2.53815035E-05  1.83761292E-01  3.24550121E-13  4.09010281E-13
  1.43363595E-04  1.03794795E+00 -2.40594587E-15 -3.59996778E-02  1.52774276E-16
  1.69742368E-15 -4.97235266E-06 -1.08563126E-12 -7.86229289E-13 -2.30722126E-04
 -1.67042098E+00 -2.63532630E-15 -4.93047304E-15  8.15982435E-15 -2.24618337E-05
 -1.62622974E-01  1.20498434E-14  8.17400601E-16 -2.53815035E-05 -1.83761292E-01
 -3.32802243E-13  4.52741055E-13 -1.43363595E-04 -1.03794795E+00  7.99459685E-15
 -3.59996778E-02  8.04981915E-16 -1.40500216E-14 -4.97235266E-06  3.19645733E-12
  4.06252077E-13  2.30722126E-04  1.67042098E+00  3.96341777E-15  3.32693690E-14
  3.62078405E-13 -3.22923996E-16  3.17675319E-06  2.29995938E-02 -6.35353270E-13
 -1.58122415E-14 -2.67576658E-14 -8.64392396E-13 -7.59244859E-15 -3.17675319E-06
 -2.29995938E-02 -1.03232131E-12  4.69669076E-02  8.42747507E-02  3.20629513E-02
 -2.34382485E-14 -2.86812173E-14 -1.97463568E-01 -6.02903926E-02 -3.02896414E-14
 -6.47253400E-14  1.45347398E-01  2.54034482E+00 -1.55578920E-13 -3.43225302E-14
  5.94253480E-03  7.18832077E-15 -1.16293658E-15 -1.02927722E-02 -4.62648961E-16
  9.94743511E+01  3.19988301E+01  1.95807255E-13  2.36658016E-13 -4.69669101E-02
 -8.42747539E-02  3.20629707E-02  2.61162503E-14  2.58496897E-14  1.97463548E-01
 -6.02903780E-02  5.82390516E-14  9.47040077E-14 -1.45346886E-01  2.54034509E+00
  1.17600912E-13 -9.51673296E-15 -5.94253407E-03 -1.11404988E-15  4.12612331E-15
  1.02927709E-02  9.22576397E-15 -9.94743493E+01  3.19988317E+01 -1.89363808E-13
 -2.04953961E-13  7.78105141E-02  4.02297101E-01  4.76813495E+00  5.61665059E-03
 -7.15228379E-16 -1.17927613E-14  9.94295802E+00 -7.78105241E-02 -4.02297122E-01
 -4.76813598E+00  5.61665250E-03  2.71592624E-14  4.55714297E-15 -9.94295932E+00
  1.64167410E-02  2.27683769E-02  1.11553695E-01  6.46144258E-15  1.99338279E-15
  7.59775366E-02  1.33113145E-01  1.12644456E-14  1.26433984E-14 -2.35435733E+00
  1.07415157E+00  3.66741768E-14  2.16984946E-15 -5.89929403E-03 -5.95365149E-15
  4.07669593E-17  1.02178770E-02 -2.77362571E-15 -7.75550902E+00  6.83724498E+00
 -1.01914924E-13 -3.52470181E-14  1.64167317E-02  2.27683604E-02 -1.11553690E-01
 -8.77787832E-15 -3.03937918E-15  7.59775733E-02 -1.33113153E-01 -1.52424772E-14
 -1.18220852E-14 -2.35435717E+00 -1.07415125E+00 -2.58733393E-14 -5.99299362E-16
 -5.89929448E-03 -4.77276502E-15 -4.06161621E-16  1.02178778E-02 -1.37630746E-16
 -7.75552905E+00 -6.83723859E+00  8.77471803E-14  3.11384339E-14  5.40550007E-02
  6.12092697E-02  4.71298875E+00 -7.96955445E-03  1.61036188E-15 -1.68980276E-15
  5.47211955E+00  5.40549844E-02  6.12091951E-02  4.71298795E+00  7.96955481E-03
 -2.93171159E-15  1.94949793E-15  5.47211756E+00  2.21705563E-02  3.86047095E-02
 -7.16643736E-02  4.26455756E-15  2.14861640E-14  1.40498530E-02 -5.63634526E-02
 -4.77856635E-15  1.09915568E-13 -6.24405813E+00 -4.93782034E+00  5.50885397E-14
 -1.56769884E-13  6.21253276E-03 -6.86369521E-15  9.76740193E-16 -1.07604224E-02
  5.20521606E-15 -5.80573039E+01 -2.09063562E+01 -5.29297020E-14 -2.46434369E-15
 -2.21705564E-02 -3.86047094E-02 -7.16643684E-02 -1.50738285E-14 -3.01987978E-14
 -1.40498612E-02 -5.63634311E-02 -7.22843472E-14 -1.46649463E-13  6.24405811E+00
 -4.93782040E+00  6.13948678E-14  2.34807138E-13 -6.21253267E-03  6.31798817E-15
 -2.64692092E-15  1.07604222E-02 -6.66823887E-15  5.80573038E+01 -2.09063562E+01
  2.74490329E-15 -6.15578052E-14  9.94496516E-02  6.91024089E-01 -5.84026199E+00
  3.32128564E-02 -1.95128103E-15  6.82395718E-15 -7.92403090E+00 -9.94496547E-02
 -6.91024102E-01  5.84026208E+00  3.32128558E-02 -3.14669817E-14 -6.48371437E-15
  7.92403099E+00  2.37451226E-02  5.04745806E-02 -7.48271973E-02  1.02509262E-15
 -1.10870170E-14 -4.87001200E-01 -4.42126328E-01 -1.31205833E-15 -5.38132075E-14
  5.51138579E-02  8.23002635E-01  5.05876062E-15  7.58422918E-14 -2.13864521E-02
  4.11667410E-15 -1.38490678E-15  3.70424217E-02 -1.51829070E-15 -6.18859370E+00
  4.00378459E+00 -8.22292953E-15  4.98316670E-15  2.37451227E-02  5.04745808E-02
  7.48271999E-02 -2.86042466E-15  1.08830305E-15 -4.87001197E-01  4.42126333E-01
 -1.57548585E-14  4.73249068E-15  5.51137584E-02 -8.23002556E-01  1.90205819E-14
 -1.01162535E-14 -2.13864511E-02  7.25402545E-15  7.13862239E-16  3.70424200E-02
  6.40439366E-16 -6.18859610E+00 -4.00378375E+00 -6.62200450E-15 -2.86564683E-14
 -6.93215476E-02 -1.09397800E+00  3.48379803E+00 -8.87957199E-02 -6.85309481E-16
  2.19268381E-15  4.12723816E+00 -6.93215454E-02 -1.09397797E+00  3.48379786E+00
  8.87957176E-02  8.77832389E-16 -1.57753194E-15  4.12723785E+00 -9.17943768E-16
 -1.64568632E-15 -8.34095969E-15  1.32822634E-01 -3.27633685E-06  8.85987970E-15
 -2.41522475E-14  6.49208572E-01 -1.60140324E-05  3.35496527E-13  3.45937745E-13
 -9.43393498E-01  2.32706941E-05  1.58720668E-15 -1.47569597E-06 -3.15935627E-15
 -1.28630995E-14  5.98246869E-02 -4.29096096E-12 -1.38790708E-12  3.64442471E-01
 -8.98970504E-06  2.63906259E-15  3.39652861E-15 -7.26633332E-15  1.32822634E-01
 -3.27633684E-06 -2.10376093E-14 -2.41660702E-14  6.49208572E-01 -1.60140324E-05
 -3.67507191E-13  3.15618702E-13 -9.43393498E-01  2.32706940E-05 -1.08604111E-15
  1.47569598E-06  9.90269112E-17  3.70430022E-15 -5.98246869E-02  4.02242994E-12
 -1.58571446E-12  3.64442471E-01 -8.98970496E-06  1.31949685E-15  1.19131250E-13
 -6.58329561E-14  1.37856328E-14 -4.38153910E-03  1.08079455E-07 -5.19828109E-13
 -2.09027727E-15 -1.32344800E-13  2.07189057E-13  9.30037105E-15 -4.38153911E-03
  1.08079456E-07  7.08101708E-13 -6.09140879E-15 -9.38156462E-15 -1.36930064E-14
  3.27633684E-06  1.32822634E-01  3.54302080E-14 -6.63108538E-14  1.60140324E-05