FCHK generated by IOData                                                
NA        NA                                                           NA
Number of atoms                            I               12
Number of electrons                        I               42
Charge                                     I                0
Multiplicity                               I                1
Number of alpha electrons                  I               21
Number of beta electrons                   I               21
Atomic numbers                             I   N=          12
           6           6           6           6           6           6
           1           1           1           1           1           1
Nuclear charges                            R   N=          12
  6.00000000E+00  6.00000000E+00  6.00000000E+00  6.00000000E+00  6.00000000E+00
  6.00000000E+00  1.00000000E+00  1.00000000E+00  1.00000000E+00  1.00000000E+00
  1.00000000E+00  1.00000000E+00
Current cartesian coordinates              R   N=          36
 -2.29242676E+00 -1.30088746E+00  0.00000000E+00 -2.27296258E+00  1.33490254E+00
  1.88972613E-04 -1.94641791E-02 -2.63579000E+00  0.00000000E+00  1.96531517E-02
  2.63579000E+00 -1.88972613E-04  2.27296258E+00 -1.33471356E+00  0.00000000E+00
  2.29242676E+00  1.30088746E+00  0.00000000E+00 -4.07746206E+00 -2.31378067E+00
  0.00000000E+00 -4.04269110E+00  2.37425190E+00  1.88972613E-04 -3.47709607E-02
 -4.68822154E+00 -1.88972613E-04  3.47709607E-02  4.68803257E+00  0.00000000E+00
  4.04288007E+00 -2.37406293E+00  1.88972613E-04  4.07746206E+00  2.31396964E+00
  0.00000000E+00
Number of basis functions                  I              174
Number of independent functions            I              174
Number of contracted shells                I               90
Number of primitive shells                 I              156
Pure/Cartesian d shells                    I                0
Pure/Cartesian f shells                    I                0
Highest angular momentum                   I                2
Largest degree of contraction              I                6
Shell types                                I   N=          90
           0           0           1           0           1           0
           1          -2           0           1           0           0
           1           0           1           0           1          -2
           0           1           0           0           1           0
           1           0           1          -2           0           1
           0           0           1           0           1           0
           1          -2           0           1           0           0
           1           0           1           0           1          -2
           0           1           0           0           1           0
           1           0           1          -2           0           1
           0           0           0           1           0           0
           0           0           1           0           0           0
           0           1           0           0           0           0
           1           0           0           0           0           1
           0           0           0           0           1           0
Number of primitives per shell             I   N=          90
           6           3           3           1           1           1
           1           1           1           1           6           3
           3           1           1           1           1           1
           1           1           6           3           3           1
           1           1           1           1           1           1
           6           3           3           1           1           1
           1           1           1           1           6           3
           3           1           1           1           1           1
           1           1           6           3           3           1
           1           1           1           1           1           1
           3           1           1           1           1           3
           1           1           1           1           3           1
           1           1           1           3           1           1
           1           1           3           1           1           1
           1           3           1           1           1           1
Shell to atom map                          I   N=          90
           1           1           1           1           1           1
           1           1           1           1           2           2
           2           2           2           2           2           2
           2           2           3           3           3           3
           3           3           3           3           3           3
           4           4           4           4           4           4
           4           4           4           4           5           5
           5           5           5           5           5           5
           5           5           6           6           6           6
           6           6           6           6           6           6
           7           7           7           7           7           8
           8           8           8           8           9           9
           9           9           9          10          10          10
          10          10          11          11          11          11
          11          12          12          12          12          12
Primitive exponents                        R   N=         156
  4.56324000E+03  6.82024000E+02  1.54973000E+02  4.44553000E+01  1.30290000E+01
  1.82773000E+00  2.09642000E+01  4.80331000E+00  1.45933000E+00  2.09642000E+01
  4.80331000E+00  1.45933000E+00  4.83456000E-01  4.83456000E-01  1.45585000E-01
  1.45585000E-01  6.26000000E-01  4.38000000E-02  4.38000000E-02  4.56324000E+03
  6.82024000E+02  1.54973000E+02  4.44553000E+01  1.30290000E+01  1.82773000E+00
  2.09642000E+01  4.80331000E+00  1.45933000E+00  2.09642000E+01  4.80331000E+00
  1.45933000E+00  4.83456000E-01  4.83456000E-01  1.45585000E-01  1.45585000E-01
  6.26000000E-01  4.38000000E-02  4.38000000E-02  4.56324000E+03  6.82024000E+02
  1.54973000E+02  4.44553000E+01  1.30290000E+01  1.82773000E+00  2.09642000E+01
  4.80331000E+00  1.45933000E+00  2.09642000E+01  4.80331000E+00  1.45933000E+00
  4.83456000E-01  4.83456000E-01  1.45585000E-01  1.45585000E-01  6.26000000E-01
  4.38000000E-02  4.38000000E-02  4.56324000E+03  6.82024000E+02  1.54973000E+02
  4.44553000E+01  1.30290000E+01  1.82773000E+00  2.09642000E+01  4.80331000E+00
  1.45933000E+00  2.09642000E+01  4.80331000E+00  1.45933000E+00  4.83456000E-01
  4.83456000E-01  1.45585000E-01  1.45585000E-01  6.26000000E-01  4.38000000E-02
  4.38000000E-02  4.56324000E+03  6.82024000E+02  1.54973000E+02  4.44553000E+01
  1.30290000E+01  1.82773000E+00  2.09642000E+01  4.80331000E+00  1.45933000E+00
  2.09642000E+01  4.80331000E+00  1.45933000E+00  4.83456000E-01  4.83456000E-01
  1.45585000E-01  1.45585000E-01  6.26000000E-01  4.38000000E-02  4.38000000E-02
  4.56324000E+03  6.82024000E+02  1.54973000E+02  4.44553000E+01  1.30290000E+01
  1.82773000E+00  2.09642000E+01  4.80331000E+00  1.45933000E+00  2.09642000E+01
  4.80331000E+00  1.45933000E+00  4.83456000E-01  4.83456000E-01  1.45585000E-01
  1.45585000E-01  6.26000000E-01  4.38000000E-02  4.38000000E-02  3.38650000E+01
  5.09479000E+00  1.15879000E+00  3.25840000E-01  1.02741000E-01  7.50000000E-01
  3.60000000E-02  3.38650000E+01  5.09479000E+00  1.15879000E+00  3.25840000E-01
  1.02741000E-01  7.50000000E-01  3.60000000E-02  3.38650000E+01  5.09479000E+00
  1.15879000E+00  3.25840000E-01  1.02741000E-01  7.50000000E-01  3.60000000E-02
  3.38650000E+01  5.09479000E+00  1.15879000E+00  3.25840000E-01  1.02741000E-01
  7.50000000E-01  3.60000000E-02  3.38650000E+01  5.09479000E+00  1.15879000E+00
  3.25840000E-01  1.02741000E-01  7.50000000E-01  3.60000000E-02  3.38650000E+01
  5.09479000E+00  1.15879000E+00  3.25840000E-01  1.02741000E-01  7.50000000E-01
  3.60000000E-02
Contraction coefficients                   R   N=         156
  1.96665000E-03  1.52306000E-02  7.61269000E-02  2.60801000E-01  6.16462000E-01
  2.21006000E-01  1.14660000E-01  9.19999000E-01 -3.03068000E-03  4.02487000E-02
  2.37594000E-01  8.15854000E-01  1.00000000E+00  1.00000000E+00  1.00000000E+00
  1.00000000E+00  1.00000000E+00  1.00000000E+00  1.00000000E+00  1.96665000E-03
  1.52306000E-02  7.61269000E-02  2.60801000E-01  6.16462000E-01  2.21006000E-01
  1.14660000E-01  9.19999000E-01 -3.03068000E-03  4.02487000E-02  2.37594000E-01
  8.15854000E-01  1.00000000E+00  1.00000000E+00  1.00000000E+00  1.00000000E+00
  1.00000000E+00  1.00000000E+00  1.00000000E+00  1.96665000E-03  1.52306000E-02
  7.61269000E-02  2.60801000E-01  6.16462000E-01  2.21006000E-01  1.14660000E-01
  9.19999000E-01 -3.03068000E-03  4.02487000E-02  2.37594000E-01  8.15854000E-01
  1.00000000E+00  1.00000000E+00  1.00000000E+00  1.00000000E+00  1.00000000E+00
  1.00000000E+00  1.00000000E+00  1.96665000E-03  1.52306000E-02  7.61269000E-02
  2.60801000E-01  6.16462000E-01  2.21006000E-01  1.14660000E-01  9.19999000E-01
 -3.03068000E-03  4.02487000E-02  2.37594000E-01  8.15854000E-01  1.00000000E+00
  1.00000000E+00  1.00000000E+00  1.00000000E+00  1.00000000E+00  1.00000000E+00
  1.00000000E+00  1.96665000E-03  1.52306000E-02  7.61269000E-02  2.60801000E-01
  6.16462000E-01  2.21006000E-01  1.14660000E-01  9.19999000E-01 -3.03068000E-03
  4.02487000E-02  2.37594000E-01  8.15854000E-01  1.00000000E+00  1.00000000E+00
  1.00000000E+00  1.00000000E+00  1.00000000E+00  1.00000000E+00  1.00000000E+00
  1.96665000E-03  1.52306000E-02  7.61269000E-02  2.60801000E-01  6.16462000E-01
  2.21006000E-01  1.14660000E-01  9.19999000E-01 -3.03068000E-03  4.02487000E-02
  2.37594000E-01  8.15854000E-01  1.00000000E+00  1.00000000E+00  1.00000000E+00
  1.00000000E+00  1.00000000E+00  1.00000000E+00  1.00000000E+00  2.54938000E-02
  1.90373000E-01  8.52161000E-01  1.00000000E+00  1.00000000E+00  1.00000000E+00
  1.00000000E+00  2.54938000E-02  1.90373000E-01  8.52161000E-01  1.00000000E+00
  1.00000000E+00  1.00000000E+00  1.00000000E+00  2.54938000E-02  1.90373000E-01
  8.52161000E-01  1.00000000E+00  1.00000000E+00  1.00000000E+00  1.00000000E+00
  2.54938000E-02  1.90373000E-01  8.52161000E-01  1.00000000E+00  1.00000000E+00
  1.00000000E+00  1.00000000E+00  2.54938000E-02  1.90373000E-01  8.52161000E-01
  1.00000000E+00  1.00000000E+00  1.00000000E+00  1.00000000E+00  2.54938000E-02
  1.90373000E-01  8.52161000E-01  1.00000000E+00  1.00000000E+00  1.00000000E+00
  1.00000000E+00
Coordinates of each shell                  R   N=         270
 -2.29242676E+00 -1.30088746E+00  0.00000000E+00 -2.29242676E+00 -1.30088746E+00
  0.00000000E+00 -2.29242676E+00 -1.30088746E+00  0.00000000E+00 -2.29242676E+00
 -1.30088746E+00  0.00000000E+00 -2.29242676E+00 -1.30088746E+00  0.00000000E+00
 -2.29242676E+00 -1.30088746E+00  0.00000000E+00 -2.29242676E+00 -1.30088746E+00
  0.00000000E+00 -2.29242676E+00 -1.30088746E+00  0.00000000E+00 -2.29242676E+00
 -1.30088746E+00  0.00000000E+00 -2.29242676E+00 -1.30088746E+00  0.00000000E+00
 -2.27296258E+00  1.33490254E+00  1.88972613E-04 -2.27296258E+00  1.33490254E+00
  1.88972613E-04 -2.27296258E+00  1.33490254E+00  1.88972613E-04 -2.27296258E+00
  1.33490254E+00  1.88972613E-04 -2.27296258E+00  1.33490254E+00  1.88972613E-04
 -2.27296258E+00  1.33490254E+00  1.88972613E-04 -2.27296258E+00  1.33490254E+00
  1.88972613E-04 -2.27296258E+00  1.33490254E+00  1.88972613E-04 -2.27296258E+00
  1.33490254E+00  1.88972613E-04 -2.27296258E+00  1.33490254E+00  1.88972613E-04
 -1.94641791E-02 -2.63579000E+00  0.00000000E+00 -1.94641791E-02 -2.63579000E+00
  0.00000000E+00 -1.94641791E-02 -2.63579000E+00  0.00000000E+00 -1.94641791E-02
 -2.63579000E+00  0.00000000E+00 -1.94641791E-02 -2.63579000E+00  0.00000000E+00
 -1.94641791E-02 -2.63579000E+00  0.00000000E+00 -1.94641791E-02 -2.63579000E+00
  0.00000000E+00 -1.94641791E-02 -2.63579000E+00  0.00000000E+00 -1.94641791E-02
 -2.63579000E+00  0.00000000E+00 -1.94641791E-02 -2.63579000E+00  0.00000000E+00
  1.96531517E-02  2.63579000E+00 -1.88972613E-04  1.96531517E-02  2.63579000E+00
 -1.88972613E-04  1.96531517E-02  2.63579000E+00 -1.88972613E-04  1.96531517E-02
  2.63579000E+00 -1.88972613E-04  1.96531517E-02  2.63579000E+00 -1.88972613E-04
  1.96531517E-02  2.63579000E+00 -1.88972613E-04  1.96531517E-02  2.63579000E+00
 -1.88972613E-04  1.96531517E-02  2.63579000E+00 -1.88972613E-04  1.96531517E-02
  2.63579000E+00 -1.88972613E-04  1.96531517E-02  2.63579000E+00 -1.88972613E-04
  2.27296258E+00 -1.33471356E+00  0.00000000E+00  2.27296258E+00 -1.33471356E+00
  0.00000000E+00  2.27296258E+00 -1.33471356E+00  0.00000000E+00  2.27296258E+00
 -1.33471356E+00  0.00000000E+00  2.27296258E+00 -1.33471356E+00  0.00000000E+00
  2.27296258E+00 -1.33471356E+00  0.00000000E+00  2.27296258E+00 -1.33471356E+00
  0.00000000E+00  2.27296258E+00 -1.33471356E+00  0.00000000E+00  2.27296258E+00
 -1.33471356E+00  0.00000000E+00  2.27296258E+00 -1.33471356E+00  0.00000000E+00
  2.29242676E+00  1.30088746E+00  0.00000000E+00  2.29242676E+00  1.30088746E+00
  0.00000000E+00  2.29242676E+00  1.30088746E+00  0.00000000E+00  2.29242676E+00
  1.30088746E+00  0.00000000E+00  2.29242676E+00  1.30088746E+00  0.00000000E+00
  2.29242676E+00  1.30088746E+00  0.00000000E+00  2.29242676E+00  1.30088746E+00
  0.00000000E+00  2.29242676E+00  1.30088746E+00  0.00000000E+00  2.29242676E+00
  1.30088746E+00  0.00000000E+00  2.29242676E+00  1.30088746E+00  0.00000000E+00
 -4.07746206E+00 -2.31378067E+00  0.00000000E+00 -4.07746206E+00 -2.31378067E+00
  0.00000000E+00 -4.07746206E+00 -2.31378067E+00  0.00000000E+00 -4.07746206E+00
 -2.31378067E+00  0.00000000E+00 -4.07746206E+00 -2.31378067E+00  0.00000000E+00
 -4.04269110E+00  2.37425190E+00  1.88972613E-04 -4.04269110E+00  2.37425190E+00
  1.88972613E-04 -4.04269110E+00  2.37425190E+00  1.88972613E-04 -4.04269110E+00
  2.37425190E+00  1.88972613E-04 -4.04269110E+00  2.37425190E+00  1.88972613E-04
 -3.47709607E-02 -4.68822154E+00 -1.88972613E-04 -3.47709607E-02 -4.68822154E+00
 -1.88972613E-04 -3.47709607E-02 -4.68822154E+00 -1.88972613E-04 -3.47709607E-02
 -4.68822154E+00 -1.88972613E-04 -3.47709607E-02 -4.68822154E+00 -1.88972613E-04
  3.47709607E-02  4.68803257E+00  0.00000000E+00  3.47709607E-02  4.68803257E+00
  0.00000000E+00  3.47709607E-02  4.68803257E+00  0.00000000E+00  3.47709607E-02
  4.68803257E+00  0.00000000E+00  3.47709607E-02  4.68803257E+00  0.00000000E+00
  4.04288007E+00 -2.37406293E+00  1.88972613E-04  4.04288007E+00 -2.37406293E+00
  1.88972613E-04  4.04288007E+00 -2.37406293E+00  1.88972613E-04  4.04288007E+00
 -2.37406293E+00  1.88972613E-04  4.04288007E+00 -2.37406293E+00  1.88972613E-04
  4.07746206E+00  2.31396964E+00  0.00000000E+00  4.07746206E+00  2.31396964E+00
  0.00000000E+00  4.07746206E+00  2.31396964E+00  0.00000000E+00  4.07746206E+00
  2.31396964E+00  0.00000000E+00  4.07746206E+00  2.31396964E+00  0.00000000E+00
Total Energy                               R       0.00000000E+00
Alpha Orbital Energies                     R   N=         174
 -1.12394313E+01 -1.12388642E+01 -1.12388589E+01 -1.12376351E+01 -1.12376293E+01
 -1.12370295E+01 -1.15208471E+00 -1.01622929E+00 -1.01620295E+00 -8.24945759E-01
 -8.24916814E-01 -7.10135214E-01 -6.43824467E-01 -6.20806461E-01 -5.89149269E-01
 -5.89133275E-01 -5.02003145E-01 -4.95867581E-01 -4.95832709E-01 -3.37122226E-01
 -3.37095892E-01  4.21094092E-02  4.89599733E-02  4.89606725E-02  6.62532110E-02
  6.62537506E-02  8.80792125E-02  1.09107997E-01  1.09126246E-01  1.29347014E-01
  1.52606568E-01  1.52608682E-01  1.57978600E-01  1.62780435E-01  1.81014742E-01
  1.81015963E-01  1.83413143E-01  1.83414762E-01  1.92429228E-01  2.09205362E-01
  2.12258147E-01  2.12259670E-01  2.16182938E-01  2.16193901E-01  2.17060795E-01
  2.28161197E-01  2.28163232E-01  2.50293728E-01  2.50294193E-01  2.89013024E-01
  2.89015226E-01  3.03043202E-01  3.33228437E-01  3.33778586E-01  3.68383031E-01
  4.07851456E-01  4.07864305E-01  4.29381266E-01  4.29393234E-01  4.39217868E-01
  4.97967218E-01  4.97983726E-01  5.08571617E-01  5.08593639E-01  6.04049650E-01
  6.08846179E-01  7.15404705E-01  7.22441718E-01  7.22458184E-01  7.27230696E-01
  7.49843519E-01  7.49867039E-01  7.50742548E-01  7.57696376E-01  7.57708278E-01
  7.96550884E-01  8.19515448E-01  8.19526573E-01  8.85796584E-01  9.39513163E-01
  9.39550206E-01  9.50250890E-01  9.50284800E-01  9.74882187E-01  1.01584542E+00
  1.01585116E+00  1.01790791E+00  1.05936445E+00  1.05936764E+00  1.10424417E+00
  1.12038646E+00  1.12041189E+00  1.12956742E+00  1.16944751E+00  1.21675012E+00
  1.21676721E+00  1.24906165E+00  1.32307641E+00  1.32309126E+00  1.39087867E+00
  1.39089521E+00  1.52210757E+00  1.55547344E+00  1.71125492E+00  1.78460409E+00
  1.78462718E+00  1.79520428E+00  1.82485783E+00  1.84371966E+00  1.84374090E+00
  1.90653797E+00  1.90655724E+00  1.93181250E+00  1.93185092E+00  1.98858331E+00
  2.05286223E+00  2.05288082E+00  2.10228127E+00  2.10231451E+00  2.12663489E+00
  2.23602130E+00  2.23608631E+00  2.23879766E+00  2.24744820E+00  2.24747127E+00
  2.29455619E+00  2.34479270E+00  2.34483623E+00  2.37587737E+00  2.37590059E+00
  2.63541677E+00  2.66160242E+00  2.73957077E+00  2.73959096E+00  2.73979206E+00
  2.81189640E+00  2.81191276E+00  2.95677502E+00  2.95683085E+00  2.98891874E+00
  2.99350948E+00  3.02212837E+00  3.02213375E+00  3.04720207E+00  3.04720963E+00
  3.05763437E+00  3.09077885E+00  3.19105730E+00  3.19106937E+00  3.25899748E+00
  3.29274546E+00  3.29275804E+00  3.32217128E+00  3.32218970E+00  3.48082753E+00
  3.54662997E+00  3.77361302E+00  3.77371189E+00  3.90287430E+00  3.90293322E+00
  3.91710072E+00  4.07028331E+00  4.40253734E+00  4.40255858E+00  4.49306311E+00
  4.57159159E+00  4.57160703E+00  5.27724996E+00  2.47438771E+01  2.51323459E+01
  2.51325214E+01  2.52546649E+01  2.52548625E+01  2.53654684E+01
Alpha MO coefficients                      R   N=       30276
  6.29477833E-04  9.22554989E-04 -8.72758550E-06 -5.26315546E-03  1.94815642E-03
 -2.01128135E-03 -1.50827069E-05 -8.71853357E-03  3.40135772E-03  2.49626995E-03
 -1.19899175E-05 -3.02285948E-03  5.34967820E-04  2.83818124E-04 -1.31280235E-06
 -3.17236926E-07 -3.72663300E-04  1.30995346E-03 -3.24228856E-02 -1.16132875E-06
 -5.32781276E-03 -5.50581107E-03 -3.39033211E-04 -5.87740524E-04 -6.33058326E-06
  8.28985402E-05 -1.00056738E-03  1.58393818E-03 -1.09907263E-05  2.06303204E-04
 -1.34169779E-03 -9.49189382E-05 -7.61012821E-06  4.38288296E-04 -8.29160433E-04
 -3.90528642E-05 -6.43703455E-07  1.00182781E-06 -1.03439175E-04  6.38718797E-04
  1.53599384E-02 -7.83376939E-07 -1.40800902E-04 -2.97442121E-03  5.69107061E-01
  4.77277863E-01 -9.12944924E-06  1.21380270E-05  1.69524265E-03 -2.59194332E-02
 -1.58025329E-05  2.14479162E-05  2.93160768E-03 -2.24610207E-02 -1.28654713E-05
  1.06859179E-05  1.51888179E-03  6.60441585E-04  1.59806422E-07 -1.46166805E-06
  5.45662269E-04 -8.15502530E-06  3.44653637E-02 -3.87427340E-07  1.17465810E-04
  1.56240786E-02 -3.58090006E-04 -7.02818246E-04 -4.22468797E-06  2.42102955E-06
  3.16576374E-04  2.01473560E-03 -7.41671761E-06  3.62189694E-06  5.01821770E-04
  2.40379239E-03 -4.26205195E-06  6.36225184E-07  4.19183964E-05 -2.71075001E-05
  1.92700358E-07  9.15566813E-07 -3.29581409E-04  4.96684995E-06 -2.32579130E-03
  5.96839979E-07  9.78774414E-06  1.38460371E-03  6.29500294E-04  9.22583824E-04
 -7.22720722E-06  5.29243701E-03  1.86998385E-03 -2.01136090E-03 -1.25299076E-05
  8.76967180E-03  3.27191425E-03  2.49697136E-03 -9.55874038E-06  3.03186026E-03
  4.89445057E-04  2.83818490E-04  1.34765942E-06 -1.88690867E-07 -4.11363921E-04
 -1.29860855E-03 -3.24327427E-02 -5.48594660E-07  5.24811404E-03 -5.58402921E-03
 -3.39097738E-04 -5.87734201E-04 -4.84266577E-06 -9.77154516E-05 -9.99156869E-04
  1.58361185E-03 -8.45101809E-06 -2.26319420E-04 -1.33802751E-03 -9.53269471E-05
 -5.26788927E-06 -4.51257692E-04 -8.22924474E-04 -3.90336853E-05  6.57161502E-07
  7.65087215E-07 -1.22248100E-04 -6.35709254E-04  1.53655502E-02 -1.85465366E-08
  9.54182296E-05 -2.97647733E-03  2.84466355E-03  4.50761258E-03  1.80637045E-03
 -6.65662887E-07  1.21849889E-04  2.84214215E-04 -1.50456837E-03 -4.44233647E-04
 -7.81525842E-04 -7.83212342E-04 -4.55987535E-07  5.15982697E-05 -5.11990601E-05
 -3.06156889E-04 -7.51026175E-03 -1.19991511E-02  9.54996574E-04 -8.63255265E-07
 -1.14672337E-05 -1.53670087E-03  5.46467372E-03  7.44265063E-04  1.11705605E-03
  2.61928102E-04 -2.93496862E-07 -5.18718158E-07 -6.98312072E-05 -3.80778960E-04
  2.84546735E-03  4.50914934E-03  1.80674134E-03 -5.89590400E-07 -1.17702521E-04
  2.86057601E-04 -1.50492720E-03 -4.44497264E-04 -7.81911233E-04 -7.83262054E-04
 -3.38147004E-07 -5.23642571E-05 -5.04241908E-05 -3.05771721E-04  3.38970892E-04
  5.87555647E-04 -4.32212115E-06 -9.72710213E-05 -9.99190789E-04 -1.58329487E-03
 -7.61038320E-06 -2.25512037E-04 -1.33827156E-03  9.49310714E-05 -2.89794832E-06
 -4.50749300E-04 -8.23025232E-04  3.89753586E-05  1.34730217E-07 -2.51344059E-06
  1.22273923E-04  6.35448739E-04 -1.53565834E-02  2.42027108E-08  9.70776187E-05
 -2.97613522E-03 -6.29839425E-04 -9.23237703E-04 -1.67717084E-05  5.29224129E-03
  1.87003629E-03  2.01319849E-03 -2.88804398E-05  8.76923046E-03  3.27196513E-03
 -2.49542638E-03 -2.37563804E-05  3.03056148E-03  4.91046238E-04 -2.83929704E-04
 -3.19404848E-06 -8.32563525E-07  4.11736630E-04  1.29829846E-03  3.24160004E-02
 -2.88237321E-06  5.24421381E-03 -5.58334213E-03  3.58084531E-04  7.02753917E-04
  2.35459365E-06  2.22982384E-06  3.17267526E-04 -2.01444427E-03  3.82794644E-06
  3.64484908E-06  5.02958003E-04 -2.40374528E-03  8.05702379E-06 -3.70837006E-08
  4.28730888E-05  2.70725076E-05  1.24099824E-07 -5.59991262E-07  3.29686017E-04
 -4.88374301E-06  2.32444992E-03  2.96886908E-06  1.07466032E-05  1.38505117E-03
 -5.69107608E-01 -4.77279105E-01 -2.12479314E-05  1.35226152E-05  1.69368726E-03
  2.59220246E-02 -3.68930378E-05  2.25166346E-05  2.92830469E-03  2.24614235E-02
 -3.25305909E-05  1.21955888E-05  1.51605464E-03 -6.60460002E-04  8.32034611E-08
  2.72346342E-06 -5.45215845E-04  7.97340181E-06 -3.44567943E-02 -4.24781062E-06
  1.14648551E-04  1.56215858E-02  3.39048405E-04  5.87605885E-04 -3.22151878E-06
  8.25385580E-05 -1.00064728E-03 -1.58318373E-03 -5.72943541E-06  2.05827707E-04
 -1.34141336E-03  9.53428493E-05 -1.21307522E-06  4.39025493E-04 -8.29858269E-04
  3.89908986E-05 -1.43415066E-07 -2.33960684E-06  1.03414851E-04 -6.39131928E-04
 -1.53623719E-02  6.38629028E-07 -1.39942616E-04 -2.97454604E-03 -6.30046386E-04
 -9.23752002E-04 -1.55823433E-05 -5.26569500E-03  1.94890998E-03  2.01499878E-03
 -2.68563680E-05 -8.72272492E-03  3.40258460E-03 -2.49555043E-03 -2.20346924E-05
 -3.02498429E-03  5.35053983E-04 -2.83979093E-04  3.03913631E-06 -9.21922527E-07
  3.72949546E-04 -1.31045024E-03  3.24273549E-02 -2.03927335E-06 -5.32783625E-03
 -5.50504714E-03  4.44130859E-04  7.81381996E-04  7.82975002E-04 -2.57995972E-07
 -5.23563477E-05 -5.04482486E-05  3.05913634E-04 -2.84444484E-03 -4.50729027E-03
 -1.80643087E-03 -1.27949316E-06 -1.17552482E-04  2.86027557E-04  1.50424662E-03
 -7.44785323E-04 -1.11790272E-03 -2.62114702E-04  2.87643498E-07 -5.29238945E-07
 -6.98833647E-05  3.81080311E-04  7.50990152E-03  1.19982779E-02 -9.56314618E-04
 -1.87277800E-06 -1.13019482E-05 -1.53694769E-03 -5.46467930E-03  4.44476395E-04
  7.81942150E-04  7.83238299E-04 -1.68782515E-07  5.16087149E-05 -5.12079303E-05
  3.05785068E-04 -2.84540980E-03 -4.50904514E-03 -1.80737517E-03 -1.18101184E-06
  1.21778075E-04  2.84313762E-04  1.50402687E-03  3.58216694E-04  7.03096675E-04
 -1.91331568E-06  2.75409930E-04  1.56430136E-04 -2.01562857E-03 -3.05077368E-06
  4.36585037E-04  2.47865405E-04 -2.40394362E-03 -7.42419312E-06  3.69165469E-05
  2.12024787E-05  2.71442072E-05  2.07940112E-08  1.14145876E-06 -1.69051816E-04
 -2.83048911E-04  2.33014885E-03 -3.00512570E-06  1.20544273E-03  6.83981539E-04
  3.39102189E-04  5.87910596E-04  8.19666028E-06 -9.14396353E-04 -4.14993831E-04
 -1.58453942E-03  1.42412657E-05 -1.27251384E-03 -4.73332487E-04  9.41253711E-05
  9.33633424E-06 -9.38238240E-04 -2.12358389E-05  3.90678861E-05  2.57348208E-06
  1.51897710E-06  4.89140752E-04 -4.23699469E-04 -1.53639484E-02  1.22407870E-06
 -2.52984787E-03 -1.57098168E-03  3.39196291E-04  5.87997028E-04 -8.75930667E-08
 -8.25412125E-04 -5.72515269E-04 -1.58460945E-03  6.56892014E-08 -1.05909002E-03
 -8.50159584E-04  9.41212063E-05 -4.36162876E-06 -4.99254271E-04 -7.95719423E-04
  3.90485244E-05  1.60289113E-06  7.47938981E-07 -6.05221579E-04  2.29987303E-04
 -1.53665344E-02 -1.61938277E-06 -2.64589229E-03 -1.36710107E-03 -6.29931694E-04
 -9.23179598E-04  1.98850994E-05  4.26599725E-03 -3.64851996E-03  2.01246620E-03
  3.42573929E-05  7.21895049E-03 -5.95896585E-03 -2.49618452E-03  2.94215926E-05
  1.93982234E-03 -2.37965242E-03 -2.83922383E-04  1.77709739E-06 -2.68812780E-06
  9.18746004E-04 -1.00580408E-03  3.24318225E-02  3.47278843E-06 -2.21296868E-03
 -7.33696252E-03 -6.30017165E-04 -9.23490830E-04  1.16532571E-05 -9.45022565E-04
  5.53534791E-03  2.01374134E-03  2.01750362E-05 -1.41459250E-03  9.25668467E-03
 -2.49693685E-03  1.57102695E-05 -1.04960864E-03  2.88764982E-03 -2.84004702E-04
 -3.34150154E-07  3.17744676E-06 -1.32170498E-03  3.32240028E-04  3.24386985E-02
  6.33720306E-07 -7.43479508E-03  1.86370394E-03 -5.69107544E-01 -4.77279230E-01
  2.17380315E-05  1.47386979E-03  8.35022405E-04  2.59220215E-02  3.72658684E-05
  2.54930169E-03  1.44535649E-03  2.24619845E-02  3.26027902E-05  1.32089171E-03
  7.48570833E-04 -6.60389306E-04 -2.76135781E-06 -5.48416341E-07  2.79764274E-04
  4.68517214E-04 -3.44796145E-02  3.93366159E-06  1.35913941E-02  7.71426515E-03
 -7.44612364E-04 -1.11763025E-03 -2.61938065E-04 -2.56578711E-07 -6.07899608E-05
 -3.44910189E-05  3.81151442E-04  4.44237560E-04  7.81501229E-04  7.83196541E-04
  5.78090514E-07 -6.98710456E-05  2.01410308E-05  3.05915855E-04  4.44719984E-04
  7.82238826E-04  7.83369349E-04 -1.03073589E-07 -1.85357262E-05 -7.02946919E-05
  3.05684398E-04 -2.84504849E-03 -4.50791971E-03 -1.80644152E-03  1.61212617E-06
  1.88936547E-04  2.44849501E-04  1.50501522E-03 -2.84593643E-03 -4.50976013E-03
 -1.80715390E-03  9.23794701E-07  3.07155566E-04  3.66881613E-05  1.50518832E-03
  7.51003575E-03  1.19988831E-02 -9.55266124E-04  1.71646603E-06 -1.33651208E-03
 -7.58581101E-04 -5.46545582E-03 -3.39096786E-04 -5.87809853E-04  4.43383350E-06
  9.07926378E-04 -4.28658512E-04  1.58404266E-03  7.74769594E-06  1.26506204E-03
 -4.92388171E-04 -9.41275809E-05  4.64228784E-06  9.38064251E-04 -3.49284575E-05
 -3.90407433E-05  8.19592442E-07  3.82281815E-07 -5.01594229E-04 -4.09039303E-04
  1.53673479E-02 -5.37289736E-08  2.50687046E-03 -1.60714491E-03 -3.58019157E-04
 -7.02872288E-04  5.09884240E-06 -2.73162633E-04  1.60600187E-04  2.01531965E-03
  8.90903807E-06 -4.33092573E-04  2.54535901E-04  2.40393500E-03  5.78834007E-06
 -3.66580300E-05  2.17597112E-05 -2.71272034E-05  1.00879162E-06 -1.77666757E-07
  1.60582304E-04 -2.87963232E-04 -2.33310010E-03 -3.40726107E-07 -1.19517960E-03
  7.02383202E-04  6.29586060E-04  9.22514119E-04  5.80679107E-06 -4.31956326E-03
 -3.58564541E-03 -2.01062049E-03  1.00928296E-05 -7.30630199E-03 -5.85247640E-03
  2.49742370E-03  7.23167463E-06 -1.97516902E-03 -2.35225019E-03  2.83845410E-04
  4.38849763E-07  1.11232719E-06 -9.48207505E-04 -9.78019593E-04 -3.24359769E-02
  2.21160947E-07  2.10217353E-03 -7.37060709E-03 -3.39127659E-04 -5.87864539E-04
  7.37312671E-06  8.16689798E-04 -5.84328022E-04  1.58413362E-03  1.27680397E-05
  1.04610603E-03 -8.65200613E-04 -9.42203597E-05  9.46301696E-06  4.87269835E-04
 -8.02680417E-04 -3.90437676E-05  4.38424614E-07 -1.17284717E-06  6.11783492E-04
  2.11929924E-04  1.53697851E-02  1.13507131E-06  2.62569931E-03 -1.40669376E-03
  5.69107291E-01  4.77278617E-01  7.95092379E-06 -1.46066476E-03  8.56773325E-04
 -2.59208719E-02  1.37864742E-05 -2.52641094E-03  1.48345737E-03 -2.24611930E-02
  1.09408518E-05 -1.30923982E-03  7.68607526E-04  6.60379961E-04 -9.82976320E-07
  9.79913686E-07 -2.66018018E-04  4.76591532E-04  3.44811816E-02  1.22944610E-07
 -1.34766715E-02  7.91314769E-03  6.29920481E-04  9.23247561E-04  8.81122461E-06
  1.02730897E-03  5.52022030E-03 -2.01289670E-03  1.52195620E-05  1.55218283E-03
  9.23387602E-03  2.49693336E-03  1.22181422E-05  1.09272757E-03  2.87123644E-03
  2.83975845E-04 -1.06561759E-06 -7.38419990E-07  1.33080755E-03  2.93014930E-04
 -3.24396022E-02  1.20291044E-06  7.46191887E-03  1.75248627E-03 -4.44271114E-04
 -7.81549749E-04 -7.83128077E-04  3.05983182E-07  7.01755449E-05  1.91013033E-05
 -3.05581052E-04  7.44650419E-04  1.11756824E-03  2.61929754E-04  3.59155768E-07
  6.02492401E-05 -3.53750951E-05 -3.81111099E-04  2.84614539E-03  4.50995980E-03
  1.80650087E-03  4.73769443E-07 -1.85240801E-04  2.47874523E-04 -1.50537105E-03
 -4.44445253E-04 -7.81772888E-04 -7.83206558E-04  5.41274150E-07  1.74843112E-05
 -7.06075508E-05 -3.05674565E-04 -7.50925215E-03 -1.19977153E-02  9.55195268E-04
  7.66848002E-07  1.32498989E-03 -7.78105998E-04  5.46526712E-03  2.84625289E-03
  4.51010338E-03  1.80714309E-03  6.74980549E-07 -3.06626869E-04  4.11627614E-05
 -1.50501114E-03  5.69107491E-01  4.77278799E-01  1.45995287E-05  1.47317278E-03
  8.35416020E-04 -2.59216816E-02  2.50736207E-05  2.54702218E-03  1.44531351E-03
 -2.24612474E-02  2.12779992E-05  1.31894019E-03  7.48651364E-04  6.60478504E-04
  1.20618639E-06  1.73065506E-06 -2.79791087E-04 -4.68059971E-04  3.44681287E-02
  2.49364946E-06  1.35896059E-02  7.71102863E-03  6.30097732E-04  9.23574142E-04
  1.56372351E-05 -9.44572972E-04  5.53399458E-03 -2.01379875E-03  2.69285821E-05