FCHK generated by IOData                                                
NA        NA                                                           NA
Number of atoms                            I                3
Number of electrons                        I               10
Charge                                     I                0
Multiplicity                               I                1
Number of alpha electrons                  I                5
Number of beta electrons                   I                5
Atomic numbers                             I   N=           3
           8           1           1
Nuclear charges                            R   N=           3
  8.00000000E+00  1.00000000E+00  1.00000000E+00
Current cartesian coordinates              R   N=           9
 -2.75244279E+00 -7.06020578E-02  6.26982783E-01 -9.93296743E-01 -1.65655282E-01
  1.01638920E-01 -3.57957592E+00 -1.38131610E+00 -3.32998089E-01
Number of basis functions                  I               36
Number of independent functions            I               36
Number of contracted shells                I               20
Number of primitive shells                 I               33
Pure/Cartesian d shells                    I                0
Pure/Cartesian f shells                    I                0
Highest angular momentum                   I                2
Largest degree of contraction              I                6
Shell types                                I   N=          20
           0           0           1           0           1           0
           1          -2           0           1           0           0
           0           1           0           0           0           0
           1           0
Number of primitives per shell             I   N=          20
           6           3           3           1           1           1
           1           1           1           1           3           1
           1           1           1           3           1           1
           1           1
Shell to atom map                          I   N=          20
           1           1           1           1           1           1
           1           1           1           1           2           2
           2           2           2           3           3           3
           3           3
Primitive exponents                        R   N=          33
  8.58850000E+03  1.29723000E+03  2.99296000E+02  8.73771000E+01  2.56789000E+01
  3.74004000E+00  4.21175000E+01  9.62837000E+00  2.85332000E+00  4.21175000E+01
  9.62837000E+00  2.85332000E+00  9.05661000E-01  9.05661000E-01  2.55611000E-01
  2.55611000E-01  1.29200000E+00  8.45000000E-02  8.45000000E-02  3.38650000E+01
  5.09479000E+00  1.15879000E+00  3.25840000E-01  1.02741000E-01  7.50000000E-01
  3.60000000E-02  3.38650000E+01  5.09479000E+00  1.15879000E+00  3.25840000E-01
  1.02741000E-01  7.50000000E-01  3.60000000E-02
Contraction coefficients                   R   N=          33
  1.89515000E-03  1.43859000E-02  7.07320000E-02  2.40001000E-01  5.94797000E-01
  2.80802000E-01  1.13889000E-01  9.20811000E-01 -3.27447000E-03  3.65114000E-02
  2.37153000E-01  8.19702000E-01  1.00000000E+00  1.00000000E+00  1.00000000E+00
  1.00000000E+00  1.00000000E+00  1.00000000E+00  1.00000000E+00  2.54938000E-02
  1.90373000E-01  8.52161000E-01  1.00000000E+00  1.00000000E+00  1.00000000E+00
  1.00000000E+00  2.54938000E-02  1.90373000E-01  8.52161000E-01  1.00000000E+00
  1.00000000E+00  1.00000000E+00  1.00000000E+00
Coordinates of each shell                  R   N=          60
 -2.75244279E+00 -7.06020578E-02  6.26982783E-01 -2.75244279E+00 -7.06020578E-02
  6.26982783E-01 -2.75244279E+00 -7.06020578E-02  6.26982783E-01 -2.75244279E+00
 -7.06020578E-02  6.26982783E-01 -2.75244279E+00 -7.06020578E-02  6.26982783E-01
 -2.75244279E+00 -7.06020578E-02  6.26982783E-01 -2.75244279E+00 -7.06020578E-02
  6.26982783E-01 -2.75244279E+00 -7.06020578E-02  6.26982783E-01 -2.75244279E+00
 -7.06020578E-02  6.26982783E-01 -2.75244279E+00 -7.06020578E-02  6.26982783E-01
 -9.93296743E-01 -1.65655282E-01  1.01638920E-01 -9.93296743E-01 -1.65655282E-01
  1.01638920E-01 -9.93296743E-01 -1.65655282E-01  1.01638920E-01 -9.93296743E-01
 -1.65655282E-01  1.01638920E-01 -9.93296743E-01 -1.65655282E-01  1.01638920E-01
 -3.57957592E+00 -1.38131610E+00 -3.32998089E-01 -3.57957592E+00 -1.38131610E+00
 -3.32998089E-01 -3.57957592E+00 -1.38131610E+00 -3.32998089E-01 -3.57957592E+00
 -1.38131610E+00 -3.32998089E-01 -3.57957592E+00 -1.38131610E+00 -3.32998089E-01
Total Energy                               R       0.00000000E+00
Alpha Orbital Energies                     R   N=          36
 -2.05687614E+01 -1.34983346E+00 -7.13885374E-01 -5.82523193E-01 -5.09287157E-01
  4.27463271E-02  7.21211237E-02  2.42360385E-01  2.45639924E-01  2.45792010E-01
  2.58289741E-01  3.18791087E-01  3.24733044E-01  6.76172118E-01  7.29832236E-01
  1.20149175E+00  1.24412465E+00  1.24804510E+00  1.46544939E+00  1.50361239E+00
  1.61670864E+00  1.71039569E+00  1.92393898E+00  2.28530461E+00  2.43661114E+00
  2.71414128E+00  2.88294570E+00  3.47528011E+00  3.52458522E+00  3.69694261E+00
  4.07550054E+00  4.32032192E+00  5.48878594E+00  5.86430185E+00  6.16483551E+00
  5.15585507E+01
Alpha MO coefficients                      R   N=        1296
 -3.49572782E-02 -7.04242223E-02 -1.06506022E-01 -9.30226513E-02 -1.45894801E-01
  2.32222784E-01 -1.65045244E-01 -1.42397667E-01 -2.25589765E-01  9.65704288E-02
 -1.10915794E-01 -8.08021598E-02 -1.47462213E-01  1.92293903E-03  6.68678317E-03
  1.68816244E-02 -1.09749669E-02  7.23841865E-03 -1.47393926E-02 -1.77140170E-02
  9.36614767E-04 -1.96639716E-02 -1.49603032E-02 -4.40573179E-02 -1.70149264E-02
 -1.11718306E-02 -5.20764560E-03 -1.40242172E-02 -4.18233416E-03  1.92884251E-01
  2.62983097E-01  2.64214110E-02  2.19008104E-02  2.61282511E-02  3.19304574E-02
  1.34252084E-02  4.00097386E-02  9.04410418E-02  6.29579017E-02  9.07699624E-02
 -2.15162707E-01 -3.35556613E-01  1.01122408E-01  1.38108365E-01 -3.29167545E-01
 -3.33196972E-01  1.05437769E-01  1.20830850E-01 -2.93826360E-01 -8.30060498E-03
 -1.85183605E-03  5.46486406E-03 -5.67774379E-03 -8.23408394E-03 -1.69309905E-03
  1.99157700E-02  2.49267410E-02 -5.98662620E-02  1.38427545E-02  5.49624186E-02
  1.27905037E-02  8.11203494E-03  9.81580909E-04 -2.51122508E-02 -2.83633868E-03
  1.37005514E-02  5.51072620E-02  1.23544384E-02  1.08336955E-02  1.63098848E-02
 -1.81675914E-02 -2.89118838E-03  5.59326441E-01  4.86328272E-01 -5.25825874E-03
  3.37160440E-03 -5.16225717E-03 -4.13399183E-02 -5.43652703E-03  3.54495736E-03
 -5.42622412E-03 -3.99996763E-02 -6.05945924E-03  3.88608225E-03 -6.00640516E-03
  2.83969851E-04 -1.70734330E-04 -3.15563392E-05 -3.35842549E-04 -4.27130382E-04
  1.55905564E-03 -1.43202106E-03  9.14292982E-04 -1.40991449E-03 -3.28719117E-03
 -2.79575798E-04  7.33697900E-04 -7.77982958E-04  9.72108692E-04 -6.22983985E-04
 -6.10771148E-04 -3.40515927E-03 -3.44467929E-04  7.19999149E-04 -9.39515195E-04
  1.03327488E-04 -1.04906706E-03 -6.28289150E-04 -4.03898171E-02 -9.07853258E-02
  2.35903874E-01 -1.58070356E-02 -5.08604379E-02  3.35667074E-01  3.61065079E-01
 -2.21771604E-02 -8.22408021E-02  3.33304343E-01  3.22806104E-01 -1.34662213E-02
 -8.74061356E-02 -1.11686863E-02  5.90666343E-03 -6.14971638E-03 -2.10403862E-03
 -5.72790792E-04  1.69222319E-03  6.57300646E-02 -3.46894416E-03 -1.63859688E-02
 -1.37581557E-02 -5.48478729E-02 -1.27756606E-02  2.50033793E-02  7.29473808E-03
 -4.35978252E-03  2.84462680E-03 -1.37839982E-02 -5.52424176E-02 -1.23753990E-02
  2.26677258E-02 -7.92084077E-03 -1.16868937E-02  2.88524039E-03  3.48765743E-02
  7.01487193E-02  5.73053672E-02 -1.94310370E-01  9.55808878E-03 -2.31083861E-01
  8.94648716E-02 -3.00074154E-01  1.58473324E-02 -9.83630443E-02  6.53627754E-02
 -1.90795360E-01  1.95389469E-02  4.91531376E-03  1.43122935E-02 -1.92303975E-03
 -1.39816791E-02  8.24908951E-03  1.45703713E-02  1.47923781E-02 -1.92496816E-02
  1.11587326E-02 -1.91413524E-01 -2.63583127E-01 -2.78362201E-02 -9.68915244E-03
  4.58987652E-02  2.01745272E-03 -1.33564387E-02  1.48876099E-02  4.42945434E-02
  1.71323190E-02  7.53363302E-03 -1.70498223E-02  3.64893334E-03  4.15671289E-03
  1.68354462E-02  2.98004946E-02 -1.56664059E-02  2.28254680E-02  2.42508444E-02
 -1.11561912E-01 -2.28517205E-02  3.29762595E-02  3.50901967E-02 -4.21679893E-03
 -3.83703684E-02  5.71585804E-02  6.05123049E-02 -5.52175780E-04  1.12075114E-03
 -1.51547978E-03  6.73858831E-04  1.25854711E-03 -9.40027388E-01 -2.89247611E-02
  3.98621740E-02  4.27435250E-02 -1.27256804E-03  6.38824529E-02  4.65893805E-02
  1.58176761E-02 -3.02940496E-04 -4.23239108E-03  8.25131881E-01 -1.65082310E-03
  6.26635486E-02  4.72636246E-02 -8.07932967E-03 -1.14120969E-02 -8.13846951E-03
  8.09212149E-01  7.36402690E-05  1.35405999E-04  3.47329542E-02  1.63571675E-02
  5.86483467E-03 -6.12887312E-04  6.55744538E-02  3.08033610E-02  1.10028255E-02
  1.25246169E-03 -1.10743968E-02 -5.24497400E-03 -1.89631597E-03 -2.34364148E-05
 -1.06007148E-04 -7.12754379E-05  1.08342185E-04 -8.75279353E-05 -1.09980196E-02
  4.18580011E-01  1.97760616E-01  7.12440903E-02  1.16060312E-02 -1.70458873E-02
  5.21747209E-02 -1.37183626E-02  1.93325730E-03  5.15827393E-03 -2.49854570E+00
 -1.19067459E-02  1.62556248E-02 -4.80860803E-02 -5.18059160E-03 -1.09880814E-02
 -8.48707082E-03  2.50786740E+00  9.11093787E-03  1.57082655E-02  3.95180435E-02
 -6.03010584E-02 -6.35982010E-02 -6.38358024E-02  3.45341681E-02 -5.26705609E-02
 -5.55546764E-02  6.20700773E-02  2.40767169E-01 -3.73000244E-01 -3.92474012E-01
 -3.57740817E-03 -3.72621813E-03  1.22395779E-02  3.73890935E-03  1.93943957E-03
 -2.31128011E+00 -8.15861267E-01  1.30660704E+00  1.36792423E+00  1.30517950E-02
 -8.33855093E-02  1.34667632E+00  1.93771434E-02  1.13276303E-02  5.23293947E-03
  1.05203527E-01  1.43246821E-02 -8.91615655E-02  1.42058765E+00 -2.14483132E-02
 -8.44078153E-03 -2.14332906E-03  1.14458762E-01 -4.60715931E-11 -7.65057072E-11
  2.12906328E-02 -7.56803890E-02  8.49862358E-02  1.79111247E-10  1.75627296E-02
 -6.24290605E-02  7.01054912E-02  9.98938396E-10  1.08611054E-01 -3.86072453E-01
  4.33544871E-01 -5.57964437E-03  1.11781224E-03 -2.07350814E-04 -2.25699518E-03
 -2.48466955E-03  5.08097627E-09 -2.35532725E-01  8.37232437E-01 -9.40180601E-01
 -1.09630299E-10  2.51825789E-10 -5.37723753E-09 -2.14293571E-03  7.61735018E-03
 -8.55399832E-03  1.21669299E-09 -9.10828188E-11  2.10966058E-10 -4.59383397E-09
 -2.13331865E-03  7.58316534E-03 -8.51560999E-03  1.04953474E-09  3.14631455E-02
  5.23230492E-02 -3.90568330E-02  4.75149738E-02  5.20966291E-02 -1.26548758E-01
 -5.70149927E-02  6.96687291E-02  7.63234392E-02 -6.42881580E-01 -7.50358534E-02
  9.69507521E-02  1.05132689E-01 -6.21734625E-03  4.28729138E-04  3.88784315E-03
  7.88067505E-03  6.67172292E-03 -3.61778142E+00 -7.63664237E-01  8.66274088E-01
  9.62730655E-01  7.32814394E-02 -1.76118926E-01  3.68696615E+00  2.70295481E-02
  8.66015712E-03  9.40480246E-04 -7.73350598E-01  6.16499278E-02 -1.55411461E-01
  3.18442929E+00 -2.37224283E-02 -1.14294414E-02 -4.23502769E-03 -6.69539735E-01
  2.32636929E-03  3.84644721E-03  5.95814449E-02  3.36774078E-02  1.50635294E-02
 -8.70897830E-03  8.63409146E-02  4.81552509E-02  2.12523287E-02 -4.94792121E-02
  4.06894401E-02  3.23122924E-02  1.85806903E-02  3.62123032E-03  1.24504979E-02
  9.04934838E-03 -1.41989351E-02  9.61201453E-03 -3.35388528E-01  2.21470476E+00
  1.14297272E+00  4.62994438E-01 -6.30978058E-02  1.56538891E-01 -3.31222539E+00
 -1.86942412E-02  1.57619158E-02  1.87192682E-02  4.25835307E-01  7.25476506E-02
 -1.89657064E-01  3.89803612E+00  2.31734633E-03 -2.42541369E-02 -2.21788889E-02
 -5.30594747E-01  5.46403063E-04  8.91435540E-04  1.12670684E-01  5.28740948E-02
  1.88583703E-02 -1.46255368E-03  1.14914199E-01  5.46529274E-02  1.98803816E-02
 -2.18298750E-02  6.47302563E-01  3.03251396E-01  1.07884557E-01 -3.01872321E-03
 -9.65417223E-03 -6.94889829E-03  1.13023967E-02 -7.25116344E-03  7.77709899E-02
 -1.78781221E+00 -8.51063237E-01 -3.09993063E-01 -6.53485941E-03 -3.32498410E-02
 -1.21727576E-02 -8.53184502E-04 -6.34031778E-03 -5.43232528E-03  2.01388004E+00
  6.09233725E-03  3.48771133E-02 -2.44353725E-02 -6.59967585E-03  3.03030119E-03
  4.35182996E-03 -2.03701420E+00  2.70928391E-02  4.28547683E-02  3.05541869E-03
 -7.93659054E-03 -7.83298671E-03 -3.51949101E-02 -1.59121320E-02  2.28504678E-02
  2.43346658E-02 -1.33398888E+00  2.30092968E-03 -2.14474774E-02 -1.96754411E-02
  1.00367332E-02  9.23287342E-04 -1.41137108E-02 -1.13399384E-02 -1.06447413E-02
  8.47937705E+00  9.27586216E-01 -1.39393929E+00 -1.47368293E+00 -1.34632600E-02
  1.84227843E-01 -3.76274362E+00 -3.29942901E-02 -3.88907826E-03  4.80245246E-03
 -4.86257630E-01 -1.36033151E-02  1.87304016E-01 -3.80511762E+00  2.18758127E-02
  2.24154238E-02  1.44806754E-02 -4.58452615E-01  1.70849023E-03  3.00971829E-03
 -1.27481753E-01 -5.53847073E-02 -1.73836268E-02 -8.56030857E-03 -2.12591655E-01
 -9.19410947E-02 -2.86155392E-02 -3.91464046E-02 -9.94911862E-01 -4.37465965E-01
 -1.40320267E-01 -4.22525772E-03 -1.08990032E-02 -7.72287828E-03  1.39334570E-02
 -7.42714615E-03  1.61987610E-01  1.39602282E+00  6.04891026E-01  1.88926817E-01
  9.77195046E-02  1.75700329E+00 -3.20231271E+00 -6.73864790E-03 -1.46345456E-02
 -1.13439313E-02  6.31246137E-01 -8.83377710E-02 -1.57331949E+00  2.87023578E+00
 -1.93324757E-02  3.78960307E-03  8.21779277E-03 -5.82091268E-01  3.49274700E-02
  6.19042289E-02 -3.86105482E-02  7.18865381E-02  7.36877460E-02 -1.67918597E-01
 -7.41117180E-02  1.36955926E-01  1.40525851E-01 -1.23758804E+00 -3.42245737E-01
  6.57299907E-01  6.71065618E-01 -8.92260851E-03  5.22164581E-03  2.24312448E-03
  9.91304930E-03  1.31941023E-02  3.89066387E+00  5.17529314E-01 -9.62587686E-01
 -9.86836706E-01  7.64997606E-02  1.89851940E+00 -3.27895478E+00 -1.92528007E-02
  1.62386106E-02  1.92836953E-02  3.59972206E-01  8.55696234E-02  2.10003306E+00
 -3.62746204E+00 -3.00607584E-03  2.34860339E-02  2.16674314E-02  4.04605857E-01
  1.85145116E-03  7.04536944E-03 -9.14069217E-02  1.47996648E-01  1.54690403E-01
 -2.04166951E-01 -2.88935739E-01  4.61267829E-01  4.83143570E-01  1.57523854E+00
  8.25452135E-01 -1.34070336E+00 -1.40068975E+00 -2.45832584E-03 -3.48066197E-03
  1.12413984E-02  2.24073705E-03  9.81060684E-04 -1.78139255E+00 -4.77591322E-01
  7.76332655E-01  8.10971071E-01 -2.76735576E-02 -9.27020116E-01  9.27893306E-01
  2.12668090E-01 -7.99612566E-02 -1.24482948E-01  7.79195356E-02 -3.02310059E-02
 -9.54206076E-01  9.35530988E-01 -3.92447021E-02 -2.01794902E-01 -1.69867179E-01
  1.14084236E-01 -2.73329329E-13 -4.02607666E-13  4.55623788E-02 -1.61957542E-01
  1.81872241E-01 -2.89345700E-12  1.63360131E-01 -5.80685340E-01  6.52087839E-01
  3.98532460E-11 -2.94360601E-01  1.04634395E+00 -1.17500498E+00 -3.32697211E-03
  3.70512034E-04 -2.06910096E-04 -1.49408723E-03 -1.23880099E-03 -6.23181983E-11
  1.34702296E-01 -4.78817248E-01  5.37693795E-01 -1.27992862E-11 -2.51442704E-10
  1.47729441E-10 -4.85378872E-03  1.72534386E-02 -1.93749639E-02  2.94575689E-10
  9.17314399E-12  1.92948885E-10 -7.10718633E-11 -3.63028678E-03  1.29043379E-02
 -1.44910870E-02 -2.92305394E-10  2.78593338E-04  4.24007684E-04  2.04023302E-01
  9.30790726E-02  3.17754424E-02  1.69375988E-03  6.52493142E-01  2.95802877E-01
  9.99513025E-02 -1.79295247E-02 -2.08941688E+00 -9.53016479E-01 -3.25225023E-01
  2.31874588E-03  7.15928323E-03  5.25304736E-03 -8.52806029E-03  5.32204547E-03
  3.02382894E-02  1.29679574E+00  5.91335408E-01  2.01713745E-01  3.55870116E-02
  6.78113668E-01 -3.49100652E-01 -2.35133887E-01 -2.13011881E-03  5.70085373E-02
 -8.72658011E-01 -3.68521441E-02 -6.37698508E-01  2.99149626E-01 -1.21757926E-01
 -1.62172051E-01 -1.13911864E-01  8.75434915E-01  2.73963687E-02  5.60610303E-02
  8.54913630E-03 -1.42327304E-02 -1.48159885E-02 -3.54199108E-01  6.82425564E-02
 -1.10279143E-01 -1.15299796E-01  8.19855198E-02 -4.76259081E-01  7.46092430E-01
  7.83708347E-01  3.73371423E-02 -5.72378975E-02  6.50869135E-02 -4.44633619E-02
 -7.46382676E-02 -5.38924148E-01  6.66661356E-02 -1.07309946E-01 -1.12260798E-01
 -4.25807098E-02  6.39146976E-01 -1.56041546E-01 -1.71718886E-01 -5.14196142E-01
 -4.14873772E-01  1.24280502E-01 -4.21941732E-02  6.50102927E-01 -1.56762921E-01
  6.03387719E-01 -1.45790443E-01 -2.80986486E-01  1.22475647E-01  4.79511638E-13
  1.00694046E-12  2.43372066E-04 -8.65098414E-04  9.71473045E-04 -8.59905377E-12
  1.35089333E-03 -4.80193022E-03  5.39238738E-03  2.41355103E-11 -1.65507306E-03
  5.88317757E-03 -6.60658758E-03  2.36303990E-02  8.68796694E-02  2.66511997E-02
  5.54605036E-02 -6.46027074E-02 -1.46161576E-11  4.98930852E-04 -1.77351615E-03
  1.99159207E-03  4.32416970E-13 -1.07624462E-11  6.65397712E-12  1.27141787E-01
 -4.51942411E-01  5.07514363E-01  1.44539848E-12  3.16862812E-13 -1.10347429E-11
  6.21332178E-12 -1.25923443E-01  4.47611644E-01 -5.02651074E-01  1.50408427E-13
  1.04091192E-01  2.19978005E-01  1.07428335E-02 -1.68370338E-02 -1.76846871E-02
 -1.80450985E+00  1.06565162E-01 -1.78694844E-01 -1.85824620E-01  4.52648404E+00
  3.93962744E-01 -6.13227897E-01 -6.44775490E-01 -1.39445957E-02  2.23130677E-02
 -2.28905663E-02  1.57339395E-02  2.89707168E-02 -4.09609141E+00 -3.63780984E-01
  5.62884539E-01  5.92383550E-01  2.83517645E-02 -1.51216067E+00  1.61158232E+00
  4.13937734E-01  1.49910680E-01  2.97966172E-02  2.49130638E-01  2.62135788E-02
 -1.53793621E+00  1.62610993E+00 -3.69516857E-01 -2.27767831E-01 -1.10256800E-01
  2.58840311E-01 -1.23731694E-12 -2.64064800E-12  4.52150783E-03 -1.60723016E-02
  1.80485914E-02  2.19881145E-11 -5.80499158E-03  2.06346155E-02 -2.31718986E-02
 -5.46769375E-11  1.33592293E-01 -4.74871593E-01  5.33262974E-01  1.26742174E-01
 -2.67045966E-02  4.34050998E-03  5.06098159E-02  5.75165196E-02  5.64499790E-11
 -2.29722947E-02  8.16580802E-02 -9.16989587E-02  2.24572740E-13  1.92502463E-11
 -2.53880100E-11 -1.40371075E-01  4.98967676E-01 -5.60321970E-01 -2.30722451E-12
  1.12100501E-12  1.67920909E-11 -2.18993533E-11 -1.41827907E-01  5.04146181E-01
 -5.66137236E-01 -3.81416248E-12 -3.80023858E-04 -8.30422406E-04  9.39452260E-03
  4.70769864E-03  1.83871108E-03  6.17154925E-03  5.66478315E-02  2.79718292E-02
  1.07176265E-02  2.46531293E-03 -9.74787099E-01 -4.61132706E-01 -1.66437168E-01
  6.53527603E-03  1.90626700E-02  1.39042716E-02 -2.32179638E-02  1.38303059E-02
  4.12788267E-03  3.54150964E-01  1.65727073E-01  5.88588395E-02 -9.15703267E-02
  7.41226897E-01 -5.51573854E-01  1.58494115E-01  6.21136922E-01  5.13417771E-01
  1.39459890E-02  8.90743183E-02 -7.43644321E-01  5.43649706E-01  7.04151453E-01
 -2.18122617E-01 -3.70641600E-01 -1.28070191E-02  2.09307354E-03  4.20199509E-03
 -1.59680719E-01 -7.01734283E-02 -2.24865685E-02 -1.69385414E-02 -5.45345479E-01
 -2.39810005E-01 -7.69320356E-02 -5.87567757E-02  9.46800581E-02  6.18177022E-02
  3.13296544E-02 -3.80756827E-02 -1.06628665E-01 -6.63622029E-02  1.28914574E-01
 -7.40305177E-02  1.33226525E-03 -3.53808898E-01 -1.67107155E-01 -6.01734990E-02
  5.84156514E-01 -6.27230239E-01  1.22334431E+00 -6.75526817E-01  1.20916964E-01
  2.76908796E-01 -3.57726713E-01 -5.47720178E-01  6.44296865E-01 -1.18179503E+00
 -1.88458666E-01 -4.93562752E-01 -3.92306077E-01  3.43796503E-01  5.02478939E-02
  1.04387551E-01 -5.29597365E-02  9.71257580E-02  9.97580532E-02 -5.85810296E-01
 -1.63095244E-01  3.05259980E-01  3.12692928E-01 -5.21347645E-01 -4.97991538E-02
  3.94360293E-02  4.75934660E-02 -9.61444235E-02 -3.13503680E-02  1.98662682E-01
  1.02212273E-01  9.23754200E-02 -7.63682632E-01 -7.96811198E-02  1.71298904E-01
  1.72503571E-01  5.41115305E-01 -3.28842217E-01  8.75146900E-01 -7.10079921E-01
 -2.00883839E-02  1.59999487E-01 -1.34383466E-01  6.10254717E-01 -4.17990691E-01
  1.01365703E+00  4.16718928E-01  5.43605694E-01  3.79685962E-01 -1.65450793E-01
  3.10231076E-02  7.80208716E-02  1.75244557E-02 -2.76452086E-02 -2.90083078E-02
 -5.42234362E-01 -1.93952010E-01  3.37122116E-01  3.48796409E-01 -2.18161814E+00
 -3.88007599E-01  6.36875860E-01  6.64342167E-01  3.93494703E-02 -1.15033301E-02
 -3.59018894E-02 -4.22534219E-02 -5.21616887E-02  2.15331701E+00  2.91143075E-01
 -4.69999825E-01 -4.91472406E-01 -9.57704421E-01  2.74138338E+00 -1.98754847E+00
 -8.23312545E-01  3.26224224E-02  2.35305428E-01  2.10723781E-01 -9.62038930E-01
  2.82950220E+00 -2.03406358E+00  4.26772492E-01  6.50384966E-01  4.72254482E-01
  2.07817701E-01 -2.33159286E-04 -8.22962695E-04  2.78607024E-02  1.28830295E-02
  4.49273574E-03  1.38235617E-02 -6.78779065E-01 -3.25404127E-01 -1.19726154E-01
  1.12158807E-02 -8.51869067E-01 -4.02993309E-01 -1.45457188E-01  4.21957143E-02
  1.29996117E-01  9.35058993E-02 -1.54459843E-01  9.62304090E-02  5.39649145E-04
  5.45367612E-01  2.55860027E-01  9.12190628E-02 -9.74920542E-01  2.51868656E+00
 -1.64088447E+00 -9.27318386E-01  3.97305512E-02  2.67690627E-01  3.78537802E-01
  9.37037184E-01 -2.49592949E+00  1.61401704E+00 -4.55287109E-01 -7.00135476E-01
 -5.09413954E-01 -3.69998181E-01  2.95689588E-14  5.50143217E-14  2.61575720E-05
 -9.29805728E-05  1.04413693E-04 -3.76720360E-13  3.70323292E-03 -1.31636345E-02
  1.47822674E-02  1.63595268E-12 -5.69444998E-02  2.02416807E-01 -2.27306476E-01
  8.47583569E-01 -2.44751471E-01  1.04131296E-02  3.05299894E-01  4.38896933E-01
 -3.59298059E-12  9.56701740E-03 -3.40072372E-02  3.81888508E-02  1.65004349E-13
 -9.63362289E-13  2.12420989E-12  6.97902971E-02 -2.48078904E-01  2.78583297E-01
  6.81001017E-14  1.33026433E-12 -2.76491517E-12  3.13777603E-12  6.01157064E-02
 -2.13689283E-01  2.39965043E-01 -3.87956236E-13 -1.75018055E-14 -3.48929714E-14
  1.26452023E-04 -4.49490551E-04  5.04761016E-04  1.77038858E-13 -1.82988823E-04
  6.50458134E-04 -7.30440068E-04 -8.97115480E-13  5.59197410E-03 -1.98774165E-02
  2.23215926E-02 -2.77898762E-01 -6.99272536E-01 -2.22710963E-01 -4.90667569E-01
  4.95323723E-01  3.07707170E-12 -1.01909629E-03  3.62251346E-03 -4.06794663E-03
 -1.43380171E-12  2.07258774E-12 -3.18351434E-12  5.48710535E-02 -1.95046466E-01
  2.19029860E-01  6.03508821E-13  2.97914975E-13 -2.20933172E-13 -7.03626843E-13
 -6.72589920E-02  2.39081043E-01 -2.68479036E-01 -5.11810056E-13  4.84646908E-04
  7.40465444E-04 -2.80000879E-03  2.70646644E-03  3.11156729E-03  4.92656092E-02
 -7.37626307E-03  1.29734501E-02  1.34007706E-02 -6.32445897E-01 -2.63047185E-01
  3.95251922E-01  4.17870727E-01 -2.61233673E-01  4.96693204E-01 -6.44658763E-01
  3.15487091E-01  5.77307523E-01  2.54005876E-01  6.25445858E-02 -9.27495847E-02
 -9.82622464E-02 -2.77759358E-02  5.08714045E-01 -2.35490604E-01 -2.11670923E-01
 -3.13630958E-01 -2.26261404E-01  1.66887513E-02 -2.86167024E-02  5.11285335E-01
 -2.35852970E-01  4.33033167E-01 -1.51166524E-02 -1.21944267E-01  1.85273206E-02
  1.89888411E-02  3.71347573E-02 -1.21669425E-01  1.79809052E-01  1.90600724E-01
 -4.14606886E-03 -4.82681153E-02  8.40440428E-02  8.69334250E-02 -2.69927963E+00
 -5.63783036E-01  8.31859535E-01  8.82010480E-01  4.75655696E-01  1.06760829E-01
 -7.55908220E-01 -5.44896252E-01 -4.62067353E-01  1.69851406E+00  2.73993445E-01
 -4.05695035E-01 -4.29912579E-01  2.40233460E-01  1.53808135E+00 -9.24042190E-01
 -8.24175125E-01  2.19925811E-02  2.26055629E-01 -4.59867808E-02  2.44443792E-01
  1.52127598E+00 -9.18651418E-01  4.03740515E-01  5.93337325E-01  4.27223399E-01
 -4.19521862E-02  7.42575919E-04  1.57036702E-03  3.61088341E-01  1.78515639E-01
  6.85091373E-02 -1.04156759E-02 -2.05065923E-02 -7.16914537E-03 -1.24685348E-03
 -5.18547474E-02  1.11914644E+00  5.49579195E-01  2.09034219E-01 -2.01177651E-01
 -6.31149970E-01 -4.62814897E-01  7.46951900E-01 -4.72058429E-01  2.98128243E-02
 -5.12297388E-01 -2.50847282E-01 -9.50399110E-02 -3.43274785E-01 -7.44518547E-01
  2.48765315E-01  6.08631522E-01 -4.36351934E-02 -1.91330731E-01  2.82074622E-01
  3.70134129E-01  7.93287864E-01 -2.72341509E-01  2.93335365E-01  4.84337752E-01
  3.57817635E-01 -2.86665741E-01  1.18078399E-14  3.32249033E-14  2.35887753E-01
 -8.38494426E-01  9.41597765E-01  1.45746179E-13 -2.74002225E-01  9.73977393E-01
 -1.09374005E+00 -4.31142184E-12  1.44571014E-01 -5.13896921E-01  5.77086951E-01
  7.65851388E-03 -9.20099315E-04  4.57391135E-04  3.40564000E-03  2.90676021E-03
  4.33591061E-12 -5.32757141E-02  1.89375619E-01 -2.12661712E-01  1.32154711E-13
  9.51797241E-13 -1.56378113E-12  5.78479496E-03 -2.05628240E-02  2.30912794E-02
  1.01263463E-13  2.86471752E-13  4.05273578E-12 -3.29917355E-12  6.17510369E-03
 -2.19502283E-02  2.46492824E-02 -2.10543297E-13  1.54542974E-02  2.94473676E-02
  5.51527581E-01 -7.88825271E-01 -8.40618175E-01 -9.33267140E-02 -7.70792755E-01
  1.11038714E+00  1.18189958E+00 -1.30555505E+00  1.25145377E-01 -1.68890717E-01
 -1.81748718E-01  1.46217397E-01  4.25957052E-02 -2.49300698E-01 -1.67700939E-01
 -1.36047936E-01  6.51576844E-01 -3.07316466E-02  3.05305617E-02  3.48863666E-02
  2.35932568E-01  5.72678233E-01 -2.50615012E-01 -5.40771777E-01 -1.40276236E-02
  1.22981765E-01 -2.22779949E-02  2.35185050E-01  5.68030850E-01 -2.57869966E-01
  2.93901624E-01  3.68490319E-01  2.54513439E-01 -3.38118941E-02  9.28059147E-04
  1.79201981E-03 -1.12155223E+00 -5.55248285E-01 -2.13479859E-01 -1.29439648E-02
  1.74951094E+00  8.69431814E-01  3.35945493E-01 -4.87142330E-02 -2.91487062E-01
 -1.40085732E-01 -5.17236544E-02 -9.72366187E-02 -3.11063420E-01 -2.30433771E-01
  3.65962864E-01 -2.34783952E-01  2.71114676E-02  2.20333748E-01  1.02547124E-01
  3.61206885E-02 -3.04777262E-01 -3.54292134E-01 -3.43388347E-02  5.84722950E-01
 -6.18293168E-02 -2.01543087E-01 -1.53128317E-01  3.34940860E-01  3.95616537E-01
  1.33314911E-02  2.66242608E-01  4.83130983E-01  3.63530245E-01  1.50283369E-01
  2.24731659E+00 -2.33810714E+00 -4.84951767E-03  8.26218064E-03  8.57238042E-03
  2.83960754E-01  1.89640691E-02 -3.31169147E-02 -3.42415215E-02 -1.74839911E-01
  3.69007825E-03 -7.59165629E-03 -7.68481619E-03 -7.91546288E-03 -7.76378578E-04
  1.28563098E-02  8.48326882E-03  8.64708932E-03  1.99463213E-01  1.22794253E-02
 -1.80726055E-02 -1.91699107E-02 -1.28915620E-03 -3.93112741E-02 -3.72092507E-02
  5.60292314E-02 -2.18932335E-03 -1.59859608E-02 -2.50152752E-02 -2.55716352E-03
 -4.33635165E-02 -3.59175965E-02 -2.89733966E-02 -4.42950508E-02 -3.21864440E-02
 -2.56621841E-02
