FCHK generated by IOData                                                
NA        NA                                                           NA
Number of atoms                            I                3
Number of electrons                        I               22
Charge                                     I                0
Multiplicity                               I                1
Number of alpha electrons                  I               11
Number of beta electrons                   I               11
Atomic numbers                             I   N=           3
           8           8           6
Nuclear charges                            R   N=           3
  8.00000000E+00  8.00000000E+00  6.00000000E+00
Current cartesian coordinates              R   N=           9
 -2.18748838E+00  0.00000000E+00  0.00000000E+00  2.18748838E+00  0.00000000E+00
  0.00000000E+00  0.00000000E+00  0.00000000E+00  0.00000000E+00
Number of basis functions                  I               66
Number of independent functions            I               66
Number of contracted shells                I               30
Number of primitive shells                 I               57
Pure/Cartesian d shells                    I                0
Pure/Cartesian f shells                    I                0
Highest angular momentum                   I                2
Largest degree of contraction              I                6
Shell types                                I   N=          30
           0           0           1           0           1           0
           1          -2           0           1           0           0
           1           0           1           0           1          -2
           0           1           0           0           1           0
           1           0           1          -2           0           1
Number of primitives per shell             I   N=          30
           6           3           3           1           1           1
           1           1           1           1           6           3
           3           1           1           1           1           1
           1           1           6           3           3           1
           1           1           1           1           1           1
Shell to atom map                          I   N=          30
           1           1           1           1           1           1
           1           1           1           1           2           2
           2           2           2           2           2           2
           2           2           3           3           3           3
           3           3           3           3           3           3
Primitive exponents                        R   N=          57
  8.58850000E+03  1.29723000E+03  2.99296000E+02  8.73771000E+01  2.56789000E+01
  3.74004000E+00  4.21175000E+01  9.62837000E+00  2.85332000E+00  4.21175000E+01
  9.62837000E+00  2.85332000E+00  9.05661000E-01  9.05661000E-01  2.55611000E-01
  2.55611000E-01  1.29200000E+00  8.45000000E-02  8.45000000E-02  8.58850000E+03
  1.29723000E+03  2.99296000E+02  8.73771000E+01  2.56789000E+01  3.74004000E+00
  4.21175000E+01  9.62837000E+00  2.85332000E+00  4.21175000E+01  9.62837000E+00
  2.85332000E+00  9.05661000E-01  9.05661000E-01  2.55611000E-01  2.55611000E-01
  1.29200000E+00  8.45000000E-02  8.45000000E-02  4.56324000E+03  6.82024000E+02
  1.54973000E+02  4.44553000E+01  1.30290000E+01  1.82773000E+00  2.09642000E+01
  4.80331000E+00  1.45933000E+00  2.09642000E+01  4.80331000E+00  1.45933000E+00
  4.83456000E-01  4.83456000E-01  1.45585000E-01  1.45585000E-01  6.26000000E-01
  4.38000000E-02  4.38000000E-02
Contraction coefficients                   R   N=          57
  1.89515000E-03  1.43859000E-02  7.07320000E-02  2.40001000E-01  5.94797000E-01
  2.80802000E-01  1.13889000E-01  9.20811000E-01 -3.27447000E-03  3.65114000E-02
  2.37153000E-01  8.19702000E-01  1.00000000E+00  1.00000000E+00  1.00000000E+00
  1.00000000E+00  1.00000000E+00  1.00000000E+00  1.00000000E+00  1.89515000E-03
  1.43859000E-02  7.07320000E-02  2.40001000E-01  5.94797000E-01  2.80802000E-01
  1.13889000E-01  9.20811000E-01 -3.27447000E-03  3.65114000E-02  2.37153000E-01
  8.19702000E-01  1.00000000E+00  1.00000000E+00  1.00000000E+00  1.00000000E+00
  1.00000000E+00  1.00000000E+00  1.00000000E+00  1.96665000E-03  1.52306000E-02
  7.61269000E-02  2.60801000E-01  6.16462000E-01  2.21006000E-01  1.14660000E-01
  9.19999000E-01 -3.03068000E-03  4.02487000E-02  2.37594000E-01  8.15854000E-01
  1.00000000E+00  1.00000000E+00  1.00000000E+00  1.00000000E+00  1.00000000E+00
  1.00000000E+00  1.00000000E+00
Coordinates of each shell                  R   N=          90
 -2.18748838E+00  0.00000000E+00  0.00000000E+00 -2.18748838E+00  0.00000000E+00
  0.00000000E+00 -2.18748838E+00  0.00000000E+00  0.00000000E+00 -2.18748838E+00
  0.00000000E+00  0.00000000E+00 -2.18748838E+00  0.00000000E+00  0.00000000E+00
 -2.18748838E+00  0.00000000E+00  0.00000000E+00 -2.18748838E+00  0.00000000E+00
  0.00000000E+00 -2.18748838E+00  0.00000000E+00  0.00000000E+00 -2.18748838E+00
  0.00000000E+00  0.00000000E+00 -2.18748838E+00  0.00000000E+00  0.00000000E+00
  2.18748838E+00  0.00000000E+00  0.00000000E+00  2.18748838E+00  0.00000000E+00
  0.00000000E+00  2.18748838E+00  0.00000000E+00  0.00000000E+00  2.18748838E+00
  0.00000000E+00  0.00000000E+00  2.18748838E+00  0.00000000E+00  0.00000000E+00
  2.18748838E+00  0.00000000E+00  0.00000000E+00  2.18748838E+00  0.00000000E+00
  0.00000000E+00  2.18748838E+00  0.00000000E+00  0.00000000E+00  2.18748838E+00
  0.00000000E+00  0.00000000E+00  2.18748838E+00  0.00000000E+00  0.00000000E+00
  0.00000000E+00  0.00000000E+00  0.00000000E+00  0.00000000E+00  0.00000000E+00
  0.00000000E+00  0.00000000E+00  0.00000000E+00  0.00000000E+00  0.00000000E+00
  0.00000000E+00  0.00000000E+00  0.00000000E+00  0.00000000E+00  0.00000000E+00
  0.00000000E+00  0.00000000E+00  0.00000000E+00  0.00000000E+00  0.00000000E+00
  0.00000000E+00  0.00000000E+00  0.00000000E+00  0.00000000E+00  0.00000000E+00
  0.00000000E+00  0.00000000E+00  0.00000000E+00  0.00000000E+00  0.00000000E+00
Total Energy                               R       0.00000000E+00
Alpha Orbital Energies                     R   N=          66
 -2.06547934E+01 -2.06547478E+01 -1.14652161E+01 -1.53844209E+00 -1.48558749E+00
 -8.02186495E-01 -7.46374381E-01 -7.18876391E-01 -7.18876391E-01 -5.46468741E-01
 -5.46468741E-01  5.56781814E-02  9.50997215E-02  9.50997215E-02  9.94524500E-02
  2.05067989E-01  2.05067989E-01  2.36421925E-01  2.75257718E-01  2.75257718E-01
  2.83254174E-01  3.15882299E-01  3.43808749E-01  3.43808749E-01  3.76817378E-01
  5.05771000E-01  7.06479287E-01  7.06479287E-01  8.12539473E-01  1.00950515E+00
  1.11388043E+00  1.22231765E+00  1.22231765E+00  1.26063340E+00  1.33626525E+00
  1.33626525E+00  1.41384142E+00  1.41384142E+00  1.47343295E+00  1.60202586E+00
  1.66323044E+00  1.66323044E+00  2.12629081E+00  2.92581832E+00  2.92581832E+00
  3.07834651E+00  3.10200005E+00  3.10200005E+00  3.22304256E+00  3.22304256E+00
  3.48486137E+00  3.48486137E+00  3.58758812E+00  4.08269568E+00  4.08269568E+00
  4.19400771E+00  4.24418244E+00  5.50117314E+00  5.50117314E+00  5.57697210E+00
  5.57697210E+00  6.20751715E+00  6.21099624E+00  2.55207947E+01  5.16045958E+01
  5.17644835E+01
Alpha MO coefficients                      R   N=        4356
 -2.96726892E-02 -6.24111904E-02 -2.08777729E-01  8.63548809E-02 -3.12709085E-02
  2.07579032E-01 -3.26045424E-01  1.28540037E-01 -4.88364906E-02  1.09555110E-01
 -2.77643807E-01  6.29075084E-02 -4.15828425E-02 -8.10877207E-03 -2.31789411E-02
  3.37280216E-16  1.40448052E-02 -3.47318335E-03 -2.08531677E-02 -1.07741440E-02
  3.11533587E-04 -1.60940427E-03  1.97596251E-03  4.08477890E-03  2.53125227E-02
  7.16464592E-03  3.76113902E-03 -1.52990662E-02  3.18607652E-02  1.78221795E-02
  4.72484523E-03 -2.67894935E-02  5.33278566E-02  1.14095620E-02  7.94769077E-03
  1.94579126E-03  6.87507454E-03  7.80406594E-17 -3.37020932E-03  1.03327898E-03
 -2.56486536E-02  3.09868778E-02  1.08526580E-02  4.64021136E-03 -2.72652125E-02
 -5.61803609E-02 -9.00764721E-02 -8.63855985E-02 -1.35065554E-02  1.83874343E-01
 -1.49280880E-01 -1.08656409E-01 -2.23839858E-02  7.70933128E-02 -7.17353957E-02
  1.73989636E-02 -1.07563948E-02 -1.44218927E-02  5.57666746E-02 -2.62198631E-16
  2.49794509E-02  8.34558798E-03  1.15592508E-02 -1.55871088E-02 -1.69482406E-03
 -2.33721574E-03 -1.96953548E-03 -4.04297363E-03 -4.28137356E-03  7.05437197E-03
  2.54511247E-02  1.50656317E-02 -5.38771417E-03  1.75726181E-02  3.20536914E-02
  2.64835395E-02 -9.02306265E-03  1.12623294E-02  5.35725032E-02 -1.92029419E-03
  1.16441034E-03  1.26341839E-17  3.32604711E-03 -6.88939696E-03  2.53986032E-02
 -5.24590712E-03  1.07392610E-02  3.10850775E-02  2.78287299E-02  6.05497174E-02
  3.53458367E-02  8.48824966E-02 -2.09425557E-01 -2.06063933E-01  5.51992760E-02
  1.26337502E-01 -3.27054889E-01 -1.09388213E-01  4.70044035E-02  6.17839062E-02
 -2.78511065E-01  7.99126852E-03 -3.92435760E-03  5.50034825E-16 -1.38412831E-02
  2.32480366E-02  2.04152566E-02  1.82347222E-03  3.43389332E-04 -1.08162411E-02
  2.66702222E-02  5.52161873E-02  1.52518142E-02 -8.51837687E-02 -9.03264885E-02
 -1.81238980E-01  2.52763479E-02 -1.07082574E-01 -1.49695224E-01 -7.58184199E-02
  1.21462897E-02  1.73785803E-02 -7.19345045E-02  1.42413252E-02  9.44028092E-03
  1.89534638E-16 -2.46666988E-02 -5.59540237E-02 -1.14261768E-02  2.63922068E-03
 -1.68875644E-03 -1.56303724E-02 -6.40134399E-02 -1.30739336E-01 -1.92718505E-04
 -1.94659086E-01  1.42175837E-04  4.54512920E-01 -3.00989448E-04 -2.89458975E-01
  2.21897073E-04  5.34170218E-01 -2.56227122E-04 -1.63142085E-01  1.89424476E-04
  8.58938406E-03 -2.14256935E-05 -1.65658900E-15 -1.48772496E-02  1.56115811E-05
  8.31950523E-02 -9.85443699E-06  1.64730727E-02  7.86749657E-06 -3.11428345E-03
 -5.82819836E-03  2.27350737E-05 -1.20204648E-02 -2.09136600E-05  2.08189761E-02
  2.84226844E-05 -1.72967971E-02 -2.74543622E-05 -1.16813124E-02  4.83948281E-05
 -4.83321542E-03 -4.11618112E-05 -9.14056657E-04  6.41982987E-06 -8.50297961E-17
  1.58319257E-03 -4.25275956E-06 -2.96494581E-02  2.85818563E-05  8.87533482E-03
 -2.12271965E-05  2.52780967E-02  4.90137364E-02 -8.34572836E-05  6.93336854E-02
  5.95364609E-05 -1.79258693E-01 -1.38311109E-04  1.16137486E-01  9.86678880E-05
 -1.51844066E-01 -6.64639847E-05  8.87493155E-02  4.74138416E-05  2.40192620E-03
  5.13269113E-05 -1.09467622E-15 -4.16025821E-03 -3.88523607E-05  4.09833609E-03
 -1.44417041E-05 -6.91860932E-03  1.03023717E-05 -1.94696906E-03 -4.06061487E-03
  2.40702485E-02  7.17891532E-03 -8.96746356E-03  1.53056047E-02  3.03113517E-02
  1.78154820E-02 -1.12892762E-02  2.66496345E-02  5.06741680E-02  1.13853732E-02
 -1.88874059E-02 -1.94162248E-03 -6.51969077E-03  4.79811190E-18  3.36298879E-03
  2.43314662E-03  2.54597020E-02  2.94110438E-02  1.07845102E-02 -1.09701013E-02
  2.84524231E-02  6.09944751E-02 -1.98149725E-01  8.66445926E-02  7.39108752E-02
 -2.05408119E-01 -3.09446085E-01  1.28963495E-01  1.15425399E-01 -1.07486528E-01
 -2.63514542E-01  6.31819624E-02  9.82912522E-02  8.10559198E-03  2.19968188E-02
 -4.59627700E-16 -1.40392971E-02 -8.20543900E-03  2.10339947E-02 -1.02323548E-02
  2.58858210E-04  3.81515391E-03  2.66926923E-02  5.56685155E-02 -8.54683318E-02
 -8.62839753E-02  3.18854649E-02 -1.83751034E-01 -1.41643955E-01 -1.08619417E-01
  5.28427695E-02 -7.72786945E-02 -6.80655498E-02  1.70565644E-02  2.53930509E-02
  1.43768401E-02 -5.29388510E-02 -3.67974834E-16 -2.49014175E-02  1.97438779E-02
 -1.15029619E-02 -1.47897021E-02 -1.66667210E-03  5.51755857E-03 -8.34058955E-05
 -1.52686118E-04  1.83619843E-05  3.89562768E-04  5.26241293E-05  4.06807995E-04
  2.35946324E-05  1.25376564E-03  6.66559910E-05  3.56284169E-03  3.74474497E-05
  1.30475186E-03  1.09794940E-04 -1.61930899E-04 -4.37795852E-06  6.89145959E-17
  2.80472544E-04 -1.37649669E-05  4.29966602E-03  2.06110391E-05  1.63958663E-03
  6.28024704E-05  5.58977255E-01  4.85461714E-01 -1.38508686E-04 -3.90328307E-03
 -4.22826437E-04 -3.72888166E-02 -2.16248689E-04 -1.88793040E-03 -6.60271759E-04
 -3.89863913E-02 -1.84346265E-04 -2.55632826E-03 -5.62427262E-04  3.08593258E-04
  1.53036526E-05  8.24688018E-16 -5.34499202E-04  4.68790438E-05 -1.87753813E-03
 -7.37423332E-06  1.07656833E-03 -2.20165313E-05  1.51042142E-03  2.75519041E-03
 -5.89887924E-05 -4.69626959E-03 -1.81759356E-04 -7.12622080E-03 -9.77602543E-05
 -4.11307262E-03 -3.01224015E-04  6.61337532E-04 -4.69776876E-05  6.98457070E-03
 -1.44750111E-04  1.09358346E-03 -3.73708667E-05 -6.33904658E-16 -1.89414212E-03
 -1.13265276E-04 -1.63072501E-03 -1.02076014E-05 -7.02065844E-04 -3.14521961E-05
 -3.04234707E-03 -5.74034228E-03 -1.17376363E-04  1.20805218E-02  5.44254496E-05
  2.06613982E-02 -1.47741735E-04  1.73821799E-02  6.73199176E-05 -1.18695344E-02
 -2.47284349E-04  4.88112410E-03  1.17701299E-04 -9.15859463E-04  3.18795548E-05
  2.13866263E-17  1.58631512E-03 -1.62790442E-05 -2.96880947E-02 -1.43686505E-04
 -8.88573415E-03  7.12126572E-05 -6.36333866E-02 -1.30428574E-01  9.68104253E-04
  1.94609133E-01 -4.80689448E-04  4.54594670E-01  1.51187556E-03  2.89387145E-01
 -7.50830056E-04  5.34204766E-01  1.28743707E-03  1.63104333E-01 -6.38878123E-04
  8.58518425E-03 -1.07480871E-04  5.29636546E-16 -1.48699753E-02  5.35486093E-05
  8.31908672E-02  4.99600879E-05 -1.64752922E-02 -2.42502880E-05  2.52035971E-02
  4.89244048E-02  4.17684467E-04 -6.93096137E-02 -2.09284135E-04 -1.79098467E-01
  6.92215216E-04 -1.16115216E-01 -3.46839958E-04 -1.51748503E-01  3.32636923E-04
 -8.87827990E-02 -1.66670385E-04  2.39371704E-03  2.58591051E-04 -6.55833417E-17
 -4.14603953E-03 -1.27478945E-04  4.10238949E-03  7.22774003E-05  6.92131362E-03
 -3.62151682E-05 -1.57461995E-03 -3.06552464E-03 -5.59864935E-05  7.39828491E-03
  3.06935615E-06  9.47107834E-03 -7.83588687E-05  1.10512847E-02  6.98452627E-06
  1.95793422E-03 -9.77225026E-05  5.89979690E-03 -1.53672105E-06 -4.94697402E-04
  5.24391877E-06  3.49984975E-17  8.56841034E-04  3.10784628E-06 -3.90223265E-03
 -3.80072628E-05 -8.05393177E-04 -8.32129971E-06 -1.81280920E-03 -3.31025022E-03
  2.50182145E-04 -7.52338203E-03  5.83985080E-05  9.69914788E-03  3.89749690E-04
 -1.12473024E-02  9.15785907E-05  2.07829052E-03  3.35158161E-04 -6.00013157E-03
  7.66911473E-05 -5.07265163E-04 -2.65678850E-05 -2.32641066E-16  8.78609035E-04
 -6.96139892E-06 -3.90507462E-03  1.66123340E-05  7.94002429E-04  1.54926046E-06
 -5.69153268E-01 -4.77028644E-01  9.53448315E-05  1.07061765E-04  3.01790648E-05
  2.73543144E-02  1.58011964E-04  1.36719391E-04  5.00148066E-05  1.28939645E-02
  7.59310290E-05 -1.41393168E-05  2.40341024E-05 -1.28260830E-03  7.29377097E-05
  3.69757584E-16  2.22154274E-03  1.31809111E-05  1.75157076E-03  1.64987618E-05
  1.54786154E-06  5.22227786E-06  2.93455141E-02  6.17531879E-02 -1.32811001E-01
 -8.50087362E-02  1.65861510E-01 -2.05495487E-01 -2.07407797E-01 -1.26537535E-01
  2.59022768E-01 -1.08825871E-01 -1.76622746E-01 -6.19011502E-02  2.20573989E-01
  7.99463974E-03 -1.47432006E-02  1.09245447E-15 -1.38471222E-02  1.84130767E-02
  2.04787839E-02 -6.85919768E-03 -3.29717871E-04  8.56314356E-03 -1.94859149E-03
 -4.03271732E-03  1.61394793E-02 -7.06791537E-03 -2.01351195E-02  1.51109316E-02
  2.03261569E-02 -1.75873405E-02 -2.53519305E-02  2.64821933E-02  3.39729013E-02
 -1.12645112E-02 -4.23998575E-02 -1.92080651E-03  4.36913024E-03  3.37570883E-16
  3.32693447E-03 -5.45882419E-03  2.53557986E-02  1.97131358E-02 -1.07252129E-02
 -2.46181156E-02  2.69669680E-02  5.54644627E-02 -5.72825728E-02  8.52058649E-02
  7.15477306E-02 -1.81275963E-01 -9.49325907E-02  1.07136104E-01  1.18573784E-01
 -7.59088683E-02 -4.56188828E-02 -1.72907126E-02  5.69794159E-02  1.42324408E-02
  3.54840617E-02 -8.40517791E-16 -2.46513106E-02 -4.43094638E-02 -1.14149721E-02
 -9.91235195E-03  1.68209819E-03  1.23808386E-02 -5.58854267E-01 -4.85203297E-01
  1.92040092E-04 -3.99521096E-03  4.50021364E-04  3.64097966E-02  2.99214046E-04
 -2.02532679E-03  7.03100654E-04  3.83095901E-02  2.57160714E-04 -2.60862915E-03
  5.97672151E-04 -2.92936156E-04  2.04462648E-05 -3.93890183E-16  5.07380306E-04
  5.03515629E-05  1.86948918E-03  1.25900649E-05  1.06240310E-03  2.20308703E-05
  3.93045822E-05  1.01264211E-04 -4.18554162E-05  3.90317431E-04 -4.62939375E-05
 -3.24825914E-04 -5.83943931E-05  1.23483034E-03 -5.57276881E-05 -3.42618913E-03
 -7.35356073E-05  1.28750070E-03 -1.04049939E-04  1.57562511E-04 -4.15596176E-06
 -1.69478087E-16 -2.72906274E-04 -1.57843035E-05 -4.20391238E-03 -2.91362151E-05
  1.60266783E-03 -6.65103396E-05 -1.66649670E-03 -2.81450596E-03  7.37366282E-05
 -4.51432516E-03  1.98219286E-04  6.75786198E-03  1.22201375E-04 -3.90746952E-03
  3.28502534E-04 -7.68019595E-04  5.87226173E-05  6.86540130E-03  1.57858524E-04
 -1.05718809E-03 -5.57202812E-05 -1.69710520E-17  1.83110349E-03 -1.18235824E-04
  1.59814450E-03  1.27596121E-05 -6.91837739E-04  3.43004727E-05 -2.80546450E-02
 -6.06143685E-02  7.85675217E-02  8.53161430E-02  1.97262677E-01  2.05283548E-01
  1.22697008E-01  1.26984892E-01  3.08061211E-01  1.08397473E-01  1.04485486E-01
  6.21429961E-02  2.62333826E-01 -8.01292136E-03  8.72165379E-03 -6.94163967E-16
  1.38787869E-02  2.18988646E-02 -2.05925585E-02  4.05784157E-03  3.10958742E-04
  1.01849606E-02  1.94573167E-03  4.02965105E-03 -9.54852116E-03  7.08091730E-03
 -2.39514919E-02 -1.51124171E-02 -1.20257184E-02  1.76146556E-02 -3.01584262E-02
 -2.64741862E-02 -2.00985713E-02  1.12772678E-02 -5.04328132E-02  1.92310664E-03
 -2.58456694E-03 -1.35893189E-16 -3.33091842E-03 -6.49178867E-03 -2.53556928E-02
 -1.16618048E-02  1.07281398E-02 -2.92790053E-02 -2.69843004E-02 -5.55520119E-02
  3.38864692E-02 -8.53696505E-02  8.50911213E-02  1.81702219E-01  5.61589704E-02
 -1.07373347E-01  1.41018816E-01  7.61643818E-02  2.69866173E-02  1.72135623E-02
  6.77651457E-02 -1.42542945E-02 -2.09916417E-02  2.99172018E-16  2.46891623E-02
 -5.26992409E-02  1.14253283E-02  5.86381849E-03 -1.67615288E-03  1.47244284E-02
  1.98313569E-03  4.07607962E-03  1.99523330E-02 -7.10269453E-03  1.63332111E-02
 -1.51942723E-02  2.51357786E-02 -1.76678704E-02  2.05680154E-02 -2.66117041E-02
  4.19790719E-02 -1.13159152E-02  3.43861565E-02  1.92928117E-03 -5.39159838E-03
  3.74908111E-18 -3.34161300E-03 -4.42426359E-03 -2.54682631E-02  2.43404809E-02
 -1.07724107E-02  1.99580019E-02 -2.92338068E-02 -6.18396615E-02 -1.63980510E-01
 -8.52657317E-02 -1.34462303E-01  2.06531615E-01 -2.56083547E-01 -1.26919577E-01
 -2.09986855E-01  1.09507283E-01 -2.18076861E-01 -6.20791658E-02 -1.78818117E-01
 -8.02326560E-03  1.82021127E-02 -2.61422018E-16  1.38967037E-02  1.49268365E-02
 -2.05198590E-02 -8.47260459E-03 -3.39979038E-04 -6.94348030E-03 -2.72061827E-02
 -5.57787502E-02 -7.07139533E-02  8.55302427E-02 -5.79982006E-02  1.81899034E-01
 -1.17191991E-01  1.07531014E-01 -9.61185780E-02  7.61354619E-02 -5.63154095E-02
 -1.74026791E-02 -4.61887968E-02 -1.42864196E-02 -4.38178135E-02  2.29216234E-16
  2.47448046E-02 -3.59235991E-02  1.14609350E-02 -1.22365592E-02  1.69216849E-03
 -1.00361864E-02  1.71113638E-02  3.00197938E-02 -1.97000970E-02  1.04053594E-15
  8.05539331E-16 -1.06976421E-01 -2.38712522E-02  2.03528222E-15  5.84394827E-15
 -7.76797406E-02 -8.08101471E-02  2.38034491E-15 -1.07259777E-14  1.54211862E-03
  7.54198543E-16  4.37414368E-16 -2.67102780E-03  3.86733752E-16 -1.43140608E+00
 -3.17797359E-01  8.42909316E-15  6.76671461E-14  1.71113638E-02  3.00197938E-02
  1.97000970E-02 -2.03171027E-15  1.99167750E-15 -1.06976421E-01  2.38712522E-02
 -1.07467938E-16  6.20696830E-15 -7.76797406E-02  8.08101472E-02 -1.15077057E-14
 -8.65055811E-15  1.54211862E-03 -5.29761711E-16  9.84925249E-17 -2.67102780E-03
 -7.29920021E-17 -1.43140608E+00  3.17797359E-01  1.36777111E-14  6.17006546E-14
 -2.60524913E-03 -1.93266464E-03  2.07652279E-12 -1.61033906E-15  3.15521441E-15
 -6.48693361E-02 -1.02978434E-11 -1.60180608E-16  9.65945094E-16  9.46347725E-01
  1.72933479E-10 -1.03868455E-14  1.08235229E-14  1.74775638E-02  1.41570541E-15
  2.19383904E-15 -3.02720285E-02  1.67379016E-15  2.74493778E+00  4.93888847E-11
  7.08556898E-15 -1.83884500E-13 -8.79640023E-16 -1.37545055E-15 -1.89136194E-15
  3.36014624E-02 -1.99172879E-05 -8.22778349E-18 -7.45488514E-15  7.09425843E-02
 -4.20512613E-05  9.91246338E-14  5.01037232E-14 -1.86689772E-02  1.10660479E-05
  9.21493297E-17 -2.12714933E-06  1.40783172E-17 -3.55641898E-17  3.58860747E-03
  6.14251343E-13  1.38602779E-13  5.38417454E-01 -3.19147283E-04  1.34389065E-15
  2.19710229E-15 -1.45142310E-15  3.36014624E-02 -1.99172879E-05 -5.25596031E-15
 -6.78157396E-15  7.09425844E-02 -4.20512613E-05 -9.41576092E-14  5.88107247E-14
 -1.86689772E-02  1.10660479E-05  8.27039812E-18  2.12714933E-06 -5.79447037E-17
 -1.43281994E-16 -3.58860747E-03 -7.16927249E-13  1.64930958E-13  5.38417454E-01
 -3.19147283E-04 -9.41835708E-17  7.73559740E-18  2.66913730E-15  1.54824090E-02
 -9.17720764E-06 -3.55120993E-15  4.19139464E-15  1.67681426E-02 -9.93932705E-06
  5.01487711E-14  3.75195794E-13  3.20118813E-02 -1.89750627E-05 -2.59661068E-17
 -3.85818421E-16 -1.05282321E-17  1.17885083E-16  9.31851080E-13  6.37428782E-14
  3.77654372E-13 -1.73627285E+00  1.02917682E-03 -3.19543769E-15 -5.34279801E-15
 -1.08543061E-16  1.99172879E-05  3.36014624E-02  1.92277828E-14 -2.76940352E-15
  4.20512613E-05  7.09425843E-02  2.70509763E-14  1.92377282E-14 -1.10660479E-05
 -1.86689771E-02 -4.48121036E-16  3.58860747E-03 -7.31788232E-17  4.75447283E-16
  2.12714933E-06  3.52959009E-13 -3.20143938E-15  3.19147283E-04  5.38417454E-01
 -3.34987447E-16 -1.16523883E-15 -3.98042478E-15  1.99172879E-05  3.36014624E-02
  2.23828633E-15 -8.17804667E-15  4.20512613E-05  7.09425844E-02  3.14124043E-16
  1.49535890E-14 -1.10660479E-05 -1.86689771E-02  3.68663525E-17 -3.58860747E-03
 -5.67494640E-17  4.53890852E-16 -2.12714933E-06 -2.14363133E-13 -1.85206808E-14
  3.19147283E-04  5.38417454E-01  1.50291420E-16 -5.38293060E-16  1.21613075E-15
  9.17720764E-06  1.54824090E-02  5.33376088E-15  3.90037108E-15  9.93932705E-06
  1.67681426E-02 -1.58237133E-14  8.18649543E-14  1.89750627E-05  3.20118813E-02
  1.32693725E-15  3.69411547E-13 -2.94029027E-15  3.19811484E-15 -5.16807009E-17
 -2.04101336E-13  3.35767327E-13 -1.02917682E-03 -1.73627285E+00  9.55895741E-03
  1.61727161E-02  1.58667874E-02  3.42326022E-15  5.21196559E-15 -4.01826188E-02
  4.30166648E-02  9.78257419E-15  8.88965777E-15 -4.11045675E-01 -2.48718515E-01
 -7.99832363E-15  5.83845184E-15  1.25368930E-03  4.53289340E-16 -5.51000789E-17
 -2.17145356E-03 -2.58238575E-16 -3.16948225E+00 -3.63023904E-01  9.20206008E-14
  5.31494243E-14 -9.55895741E-03 -1.61727161E-02  1.58667874E-02  6.40701896E-15
  4.17518874E-15  4.01826188E-02  4.30166648E-02  9.47410415E-15  9.50990561E-15
  4.11045675E-01 -2.48718514E-01  1.16853564E-14 -3.44443427E-15 -1.25368929E-03
 -8.83719950E-17  7.81307033E-17  2.17145355E-03 -5.29462605E-16  3.16948225E+00
 -3.63023904E-01  5.31843948E-14  7.79373659E-14 -1.33822965E-12 -3.01201605E-12
 -1.10834782E-02  1.79921077E-16  7.17045610E-16 -1.31669649E-11 -5.79103316E-02
  9.48682532E-16  6.09587367E-16  5.84142777E-10 -1.47513949E+00 -6.47767126E-15
 -2.56968263E-15 -1.04695536E-11 -1.03430636E-15 -2.68545868E-15  1.83614341E-11
 -4.27151110E-16  2.94442638E-10 -2.69094274E+00 -2.26863302E-13 -2.11712744E-13
  1.43021582E-16  1.65914017E-16  8.94480434E-16  1.34648506E-01  5.99793740E-05
 -1.14349369E-15 -3.13060149E-15  2.03154504E-01  9.04954711E-05 -2.21685905E-14
 -9.78292857E-15  3.65900997E-01  1.62991135E-04  4.61717488E-16 -8.50522730E-06
 -8.68960332E-17 -5.24262754E-16 -1.90934995E-02 -8.97673500E-14 -5.69402129E-14
  4.28475486E-01  1.90865033E-04  1.01052623E-16 -1.06103748E-16 -8.01003899E-16
  1.34648506E-01  5.99793740E-05 -3.00595746E-15  2.51841811E-15  2.03154504E-01
  9.04954711E-05  2.31210384E-14 -1.28018720E-14  3.65900997E-01  1.62991135E-04
 -1.94426136E-16  8.50522730E-06 -1.40839040E-16 -7.57955309E-16  1.90934995E-02
  5.39493735E-14 -1.44741907E-14  4.28475486E-01  1.90865033E-04 -4.66805752E-16
 -1.39560312E-15 -1.64346756E-15 -2.43892102E-01 -1.08642094E-04  4.86321004E-15
 -2.14025031E-16 -3.89080913E-01 -1.73316662E-04  3.73517844E-14 -7.11746628E-14
 -1.03982669E+00 -4.63192320E-04 -4.31501294E-16 -7.81865892E-16 -3.40960377E-16
  3.64917097E-15  3.60273016E-13  7.90760312E-15  9.74471296E-15 -1.27069406E-01
 -5.66032530E-05 -5.85265078E-16 -1.40264125E-15  5.95071534E-15 -5.99793740E-05
  1.34648506E-01  1.34757839E-15  2.72132493E-15 -9.04954711E-05  2.03154504E-01
  3.93308753E-14  2.29058912E-14 -1.62991135E-04  3.65900997E-01 -7.18337932E-16
 -1.90934995E-02 -5.57972630E-16  1.51701214E-16  8.50522730E-06  7.32334975E-16
 -3.63732910E-14 -1.90865033E-04  4.28475486E-01 -1.12867998E-15 -2.26759298E-15
 -4.61614296E-15 -5.99793740E-05  1.34648506E-01  8.36357287E-15 -6.02541830E-15
 -9.04954711E-05  2.03154504E-01 -1.17525455E-14  9.54337613E-15 -1.62991135E-04
  3.65900997E-01  1.79149914E-16  1.90934995E-02 -1.84296481E-16  6.49521233E-16
 -8.50522730E-06 -2.94279091E-13  1.20773231E-13 -1.90865033E-04  4.28475486E-01
  1.63175343E-16  1.11216323E-15  9.75306410E-16  1.08642094E-04 -2.43892102E-01
 -1.36501764E-14 -1.75019152E-15  1.73316662E-04 -3.89080913E-01  1.53554148E-13
  1.01514455E-13  4.63192320E-04 -1.03982669E+00 -2.43114135E-15  1.84462792E-13
 -7.36899115E-16  5.64339342E-15 -5.86008521E-16  1.50289497E-13  4.07284174E-14
  5.66032530E-05 -1.27069406E-01  1.01446715E-02  1.63235972E-02 -6.79300201E-02
  5.66803841E-15  1.05760666E-14 -3.40774307E-02 -6.33892256E-02  1.25145389E-15
  1.42202884E-14 -1.30798929E-01 -1.15488585E-01  5.02773366E-14  4.05422395E-14
  2.75818884E-03 -1.41110569E-16  1.90013174E-16 -4.77732321E-03  1.33606395E-15
  1.90719979E+00  1.33692634E+00 -1.01695275E-13 -3.72613871E-14  1.01446715E-02
  1.63235972E-02  6.79300201E-02  1.21629736E-15  7.85403251E-15 -3.40774306E-02
  6.33892256E-02  9.30913340E-15  1.46960152E-14 -1.30798930E-01  1.15488585E-01
 -2.57678447E-14  1.47351224E-14  2.75818884E-03  1.05764272E-15  1.07035029E-16
 -4.77732321E-03  8.01769595E-16  1.90719978E+00 -1.33692633E+00  5.16815326E-14
  2.81713818E-14  3.84816023E-03  1.13424473E-03 -1.64416733E-12 -3.72340577E-15
 -1.38918023E-14  1.28674049E-01  4.08895424E-11 -9.88583202E-15 -3.20437492E-14
 -2.41922832E+00  9.48159176E-10 -3.90936203E-15 -3.86495635E-14  5.29076636E-02
  1.06099595E-15  3.67150700E-16 -9.16387614E-02  3.25297606E-15 -1.81815252E+00
  1.96434911E-10  2.60836977E-14  5.82156137E-15 -8.93338327E-15 -1.44480578E-14
  1.53342139E-14  6.70034059E-02 -3.90456562E-05  3.60126982E-14  3.70746276E-14
  4.77252823E-02 -2.78114961E-05  2.27388020E-13 -1.00113440E-14  4.06627813E-01
 -2.36958847E-04 -4.69852918E-16 -6.92762572E-06  1.43419764E-16  8.04592849E-16
  1.18879938E-02 -7.07878916E-13 -1.59823034E-14 -1.20967481E+00  7.04927552E-04
 -9.93128665E-15 -1.63636071E-14 -1.38062542E-14 -6.70034059E-02  3.90456562E-05
  4.14889928E-14 -3.52798984E-14 -4.77252823E-02  2.78114961E-05  2.73187138E-13
 -5.91932445E-15 -4.06627813E-01  2.36958847E-04 -7.58118534E-16 -6.92762572E-06
  1.88885807E-16  1.75947636E-15  1.18879938E-02 -6.32897146E-13 -1.35798835E-14
  1.20967481E+00 -7.04927552E-04  6.71130266E-15  1.27638557E-14 -3.19123761E-16
  4.55402185E-12 -4.02796705E-15 -1.22423294E-14 -3.76484708E-15  1.80223192E-11
 -6.06851594E-15 -5.93965978E-14 -4.47202976E-14 -1.31219368E-11 -1.77768039E-14
 -6.90823917E-15  2.63011012E-06  2.68330864E-16  1.15301712E-14 -4.51334035E-03
  7.93468350E-13 -1.84630959E-14 -5.69814337E-11 -4.66819080E-14 -2.15684968E-15
 -3.26506468E-15  1.19959754E-15  3.90456562E-05  6.70034059E-02  9.62529587E-15
  4.50376599E-15  2.78114961E-05  4.77252823E-02  3.46845568E-14 -2.91139999E-14
  2.36958847E-04  4.06627813E-01  5.13125703E-16  1.18879938E-02 -2.91677929E-16
 -1.08490719E-15  6.92762572E-06 -1.71475841E-13  6.80380354E-14 -7.04927552E-04
 -1.20967481E+00 -9.88350812E-16 -1.46099561E-15 -3.79053533E-15 -3.90456562E-05
 -6.70034059E-02  4.03414501E-15 -5.42236925E-15 -2.78114961E-05 -4.77252823E-02
  2.23067812E-14 -1.35210853E-14 -2.36958847E-04 -4.06627813E-01 -8.48660293E-16
  1.18879938E-02 -4.72803649E-16  7.43180290E-16  6.92762572E-06 -1.46726791E-13
  1.31276546E-13  7.04927552E-04  1.20967481E+00  8.16082846E-16  1.74425814E-15
  2.44029167E-15 -6.26291763E-16  2.40661366E-12 -6.37201322E-15 -4.78882593E-15
  4.68332952E-15  5.68151664E-12  9.61102339E-14 -5.59580734E-15 -2.05248390E-14
  5.17416075E-12 -3.11751263E-15 -4.51334036E-03 -3.00933668E-16  4.89013476E-15
 -2.63011011E-06  1.65317196E-13 -8.53331021E-14 -5.51123441E-14  1.94649472E-11
  3.23133778E-02  5.38385077E-02 -3.40338269E-02  1.86248621E-14  2.85799048E-15
 -1.20923919E-01 -1.10634539E-01  1.37529839E-14  4.95421520E-15 -9.48580474E-01
  7.07875203E-02  1.17558657E-13  1.92371028E-14  1.77187947E-03  1.06223662E-15
  5.87607223E-16 -3.06898527E-03  4.00248558E-15  2.54875775E+00 -1.87218904E-01
 -3.73986759E-13 -3.82002121E-14  3.23133778E-02  5.38385077E-02  3.40338269E-02
 -1.40316041E-14 -7.75101343E-16 -1.20923919E-01  1.10634539E-01 -6.67909749E-15
  2.71083509E-15 -9.48580474E-01 -7.07875202E-02 -9.76740387E-14 -1.18813188E-14
  1.77187947E-03  5.87550361E-17  1.76440183E-16 -3.06898527E-03  1.84234062E-15
  2.54875775E+00  1.87218903E-01  2.47837388E-13  5.08896979E-14 -2.73831322E-02
 -5.14970238E-02 -8.90848053E-12  5.32853654E-16 -1.14226592E-15  9.74284127E-02
  3.34284586E-12  5.10577394E-16 -8.35122862E-15  1.72958198E-01 -4.13759027E-10
  2.09318680E-14 -8.83676252E-15  1.45631831E-02  1.62400028E-15  1.78440437E-15
 -2.52241731E-02  1.64271176E-15 -2.92381386E+00  3.34231200E-10  6.20472521E-14
 -9.69652080E-15  1.56428410E-03  4.83255340E-03 -1.10163809E-02  1.42945997E-15