FCHK generated by IOData                                                
NA        NA                                                           NA
Number of atoms                            I                7
Number of electrons                        I               50
Charge                                     I                0
Multiplicity                               I                1
Number of alpha electrons                  I               25
Number of beta electrons                   I               25
Atomic numbers                             I   N=           7
          16           8           8           8           8           1
           1
Nuclear charges                            R   N=           7
  1.60000000E+01  8.00000000E+00  8.00000000E+00  8.00000000E+00  8.00000000E+00
  1.00000000E+00  1.00000000E+00
Current cartesian coordinates              R   N=          21
  3.77945225E-04 -3.77945225E-04 -2.23176655E-01  2.40826697E+00  6.70852775E-02
  1.69602920E+00 -2.41223540E+00 -6.16050717E-02  1.69111591E+00 -6.34947978E-02
  2.37670855E+00 -1.58566919E+00  6.68963048E-02 -2.38181081E+00 -1.57811029E+00
  2.28864731E+00  1.30617870E+00  3.08252126E+00 -2.29563930E+00 -1.29616315E+00
  3.08157639E+00
Number of basis functions                  I              132
Number of independent functions            I              132
Number of contracted shells                I               64
Number of primitive shells                 I              115
Pure/Cartesian d shells                    I                0
Pure/Cartesian f shells                    I                0
Highest angular momentum                   I                2
Largest degree of contraction              I                6
Shell types                                I   N=          64
           0           0           0           0           0           0
           1           1           1           1           1          -2
           0           1           0           0           1           0
           1           0           1          -2           0           1
           0           0           1           0           1           0
           1          -2           0           1           0           0
           1           0           1           0           1          -2
           0           1           0           0           1           0
           1           0           1          -2           0           1
           0           0           0           1           0           0
           0           0           1           0
Number of primitives per shell             I   N=          64
           6           3           1           1           1           1
           4           2           1           1           1           1
           1           1           6           3           3           1
           1           1           1           1           1           1
           6           3           3           1           1           1
           1           1           1           1           6           3
           3           1           1           1           1           1
           1           1           6           3           3           1
           1           1           1           1           1           1
           3           1           1           1           1           3
           1           1           1           1
Shell to atom map                          I   N=          64
           1           1           1           1           1           1
           1           1           1           1           1           1
           1           1           2           2           2           2
           2           2           2           2           2           2
           3           3           3           3           3           3
           3           3           3           3           4           4
           4           4           4           4           4           4
           4           4           5           5           5           5
           5           5           5           5           5           5
           6           6           6           6           6           7
           7           7           7           7
Primitive exponents                        R   N=         115
  9.34134000E+04  1.39617000E+04  3.16991000E+03  9.02456000E+02  2.97158000E+02
  1.08702000E+02  1.08702000E+02  4.31553000E+01  1.81079000E+01  5.56009000E+00
  2.13183000E+00  4.20403000E-01  1.36045000E-01  4.95040000E+02  1.17221000E+02
  3.77749000E+01  1.40584000E+01  5.56574000E+00  2.26297000E+00  8.07994000E-01
  2.77460000E-01  7.71410000E-02  6.50000000E-01  4.05000000E-02  4.05000000E-02
  8.58850000E+03  1.29723000E+03  2.99296000E+02  8.73771000E+01  2.56789000E+01
  3.74004000E+00  4.21175000E+01  9.62837000E+00  2.85332000E+00  4.21175000E+01
  9.62837000E+00  2.85332000E+00  9.05661000E-01  9.05661000E-01  2.55611000E-01
  2.55611000E-01  1.29200000E+00  8.45000000E-02  8.45000000E-02  8.58850000E+03
  1.29723000E+03  2.99296000E+02  8.73771000E+01  2.56789000E+01  3.74004000E+00
  4.21175000E+01  9.62837000E+00  2.85332000E+00  4.21175000E+01  9.62837000E+00
  2.85332000E+00  9.05661000E-01  9.05661000E-01  2.55611000E-01  2.55611000E-01
  1.29200000E+00  8.45000000E-02  8.45000000E-02  8.58850000E+03  1.29723000E+03
  2.99296000E+02  8.73771000E+01  2.56789000E+01  3.74004000E+00  4.21175000E+01
  9.62837000E+00  2.85332000E+00  4.21175000E+01  9.62837000E+00  2.85332000E+00
  9.05661000E-01  9.05661000E-01  2.55611000E-01  2.55611000E-01  1.29200000E+00
  8.45000000E-02  8.45000000E-02  8.58850000E+03  1.29723000E+03  2.99296000E+02
  8.73771000E+01  2.56789000E+01  3.74004000E+00  4.21175000E+01  9.62837000E+00
  2.85332000E+00  4.21175000E+01  9.62837000E+00  2.85332000E+00  9.05661000E-01
  9.05661000E-01  2.55611000E-01  2.55611000E-01  1.29200000E+00  8.45000000E-02
  8.45000000E-02  3.38650000E+01  5.09479000E+00  1.15879000E+00  3.25840000E-01
  1.02741000E-01  7.50000000E-01  3.60000000E-02  3.38650000E+01  5.09479000E+00
  1.15879000E+00  3.25840000E-01  1.02741000E-01  7.50000000E-01  3.60000000E-02
Contraction coefficients                   R   N=         115
  7.43000000E-04  5.79300000E-03  2.99540000E-02  1.19028000E-01  3.68432000E-01
  5.77299000E-01  1.43186000E-01  6.24465000E-01  2.83366000E-01  1.00000000E+00
  1.00000000E+00  1.00000000E+00  1.00000000E+00  8.30900000E-03  6.40240000E-02
  2.77614000E-01  7.45076000E-01  6.13712000E-01  4.43818000E-01  1.00000000E+00
  1.00000000E+00  1.00000000E+00  1.00000000E+00  1.00000000E+00  1.00000000E+00
  1.89515000E-03  1.43859000E-02  7.07320000E-02  2.40001000E-01  5.94797000E-01
  2.80802000E-01  1.13889000E-01  9.20811000E-01 -3.27447000E-03  3.65114000E-02
  2.37153000E-01  8.19702000E-01  1.00000000E+00  1.00000000E+00  1.00000000E+00
  1.00000000E+00  1.00000000E+00  1.00000000E+00  1.00000000E+00  1.89515000E-03
  1.43859000E-02  7.07320000E-02  2.40001000E-01  5.94797000E-01  2.80802000E-01
  1.13889000E-01  9.20811000E-01 -3.27447000E-03  3.65114000E-02  2.37153000E-01
  8.19702000E-01  1.00000000E+00  1.00000000E+00  1.00000000E+00  1.00000000E+00
  1.00000000E+00  1.00000000E+00  1.00000000E+00  1.89515000E-03  1.43859000E-02
  7.07320000E-02  2.40001000E-01  5.94797000E-01  2.80802000E-01  1.13889000E-01
  9.20811000E-01 -3.27447000E-03  3.65114000E-02  2.37153000E-01  8.19702000E-01
  1.00000000E+00  1.00000000E+00  1.00000000E+00  1.00000000E+00  1.00000000E+00
  1.00000000E+00  1.00000000E+00  1.89515000E-03  1.43859000E-02  7.07320000E-02
  2.40001000E-01  5.94797000E-01  2.80802000E-01  1.13889000E-01  9.20811000E-01
 -3.27447000E-03  3.65114000E-02  2.37153000E-01  8.19702000E-01  1.00000000E+00
  1.00000000E+00  1.00000000E+00  1.00000000E+00  1.00000000E+00  1.00000000E+00
  1.00000000E+00  2.54938000E-02  1.90373000E-01  8.52161000E-01  1.00000000E+00
  1.00000000E+00  1.00000000E+00  1.00000000E+00  2.54938000E-02  1.90373000E-01
  8.52161000E-01  1.00000000E+00  1.00000000E+00  1.00000000E+00  1.00000000E+00
Coordinates of each shell                  R   N=         192
  3.77945225E-04 -3.77945225E-04 -2.23176655E-01  3.77945225E-04 -3.77945225E-04
 -2.23176655E-01  3.77945225E-04 -3.77945225E-04 -2.23176655E-01  3.77945225E-04
 -3.77945225E-04 -2.23176655E-01  3.77945225E-04 -3.77945225E-04 -2.23176655E-01
  3.77945225E-04 -3.77945225E-04 -2.23176655E-01  3.77945225E-04 -3.77945225E-04
 -2.23176655E-01  3.77945225E-04 -3.77945225E-04 -2.23176655E-01  3.77945225E-04
 -3.77945225E-04 -2.23176655E-01  3.77945225E-04 -3.77945225E-04 -2.23176655E-01
  3.77945225E-04 -3.77945225E-04 -2.23176655E-01  3.77945225E-04 -3.77945225E-04
 -2.23176655E-01  3.77945225E-04 -3.77945225E-04 -2.23176655E-01  3.77945225E-04
 -3.77945225E-04 -2.23176655E-01  2.40826697E+00  6.70852775E-02  1.69602920E+00
  2.40826697E+00  6.70852775E-02  1.69602920E+00  2.40826697E+00  6.70852775E-02
  1.69602920E+00  2.40826697E+00  6.70852775E-02  1.69602920E+00  2.40826697E+00
  6.70852775E-02  1.69602920E+00  2.40826697E+00  6.70852775E-02  1.69602920E+00
  2.40826697E+00  6.70852775E-02  1.69602920E+00  2.40826697E+00  6.70852775E-02
  1.69602920E+00  2.40826697E+00  6.70852775E-02  1.69602920E+00  2.40826697E+00
  6.70852775E-02  1.69602920E+00 -2.41223540E+00 -6.16050717E-02  1.69111591E+00
 -2.41223540E+00 -6.16050717E-02  1.69111591E+00 -2.41223540E+00 -6.16050717E-02
  1.69111591E+00 -2.41223540E+00 -6.16050717E-02  1.69111591E+00 -2.41223540E+00
 -6.16050717E-02  1.69111591E+00 -2.41223540E+00 -6.16050717E-02  1.69111591E+00
 -2.41223540E+00 -6.16050717E-02  1.69111591E+00 -2.41223540E+00 -6.16050717E-02
  1.69111591E+00 -2.41223540E+00 -6.16050717E-02  1.69111591E+00 -2.41223540E+00
 -6.16050717E-02  1.69111591E+00 -6.34947978E-02  2.37670855E+00 -1.58566919E+00
 -6.34947978E-02  2.37670855E+00 -1.58566919E+00 -6.34947978E-02  2.37670855E+00
 -1.58566919E+00 -6.34947978E-02  2.37670855E+00 -1.58566919E+00 -6.34947978E-02
  2.37670855E+00 -1.58566919E+00 -6.34947978E-02  2.37670855E+00 -1.58566919E+00
 -6.34947978E-02  2.37670855E+00 -1.58566919E+00 -6.34947978E-02  2.37670855E+00
 -1.58566919E+00 -6.34947978E-02  2.37670855E+00 -1.58566919E+00 -6.34947978E-02
  2.37670855E+00 -1.58566919E+00  6.68963048E-02 -2.38181081E+00 -1.57811029E+00
  6.68963048E-02 -2.38181081E+00 -1.57811029E+00  6.68963048E-02 -2.38181081E+00
 -1.57811029E+00  6.68963048E-02 -2.38181081E+00 -1.57811029E+00  6.68963048E-02
 -2.38181081E+00 -1.57811029E+00  6.68963048E-02 -2.38181081E+00 -1.57811029E+00
  6.68963048E-02 -2.38181081E+00 -1.57811029E+00  6.68963048E-02 -2.38181081E+00
 -1.57811029E+00  6.68963048E-02 -2.38181081E+00 -1.57811029E+00  6.68963048E-02
 -2.38181081E+00 -1.57811029E+00  2.28864731E+00  1.30617870E+00  3.08252126E+00
  2.28864731E+00  1.30617870E+00  3.08252126E+00  2.28864731E+00  1.30617870E+00
  3.08252126E+00  2.28864731E+00  1.30617870E+00  3.08252126E+00  2.28864731E+00
  1.30617870E+00  3.08252126E+00 -2.29563930E+00 -1.29616315E+00  3.08157639E+00
 -2.29563930E+00 -1.29616315E+00  3.08157639E+00 -2.29563930E+00 -1.29616315E+00
  3.08157639E+00 -2.29563930E+00 -1.29616315E+00  3.08157639E+00 -2.29563930E+00
 -1.29616315E+00  3.08157639E+00
Total Energy                               R       0.00000000E+00
Alpha Orbital Energies                     R   N=         132
 -9.23003558E+01 -2.06717781E+01 -2.06717100E+01 -2.05959542E+01 -2.05959262E+01
 -9.26672259E+00 -6.95262562E+00 -6.95200238E+00 -6.95164515E+00 -1.56498853E+00
 -1.43909616E+00 -1.41875602E+00 -1.39011907E+00 -9.46390440E-01 -8.55495840E-01
 -7.39755870E-01 -7.26049565E-01 -7.18756629E-01 -6.34282666E-01 -6.30065092E-01
 -5.87447927E-01 -5.65335994E-01 -5.51243532E-01 -5.18717079E-01 -5.03499165E-01
  1.69278588E-02  4.94726886E-02  1.00701960E-01  1.00975988E-01  1.23726308E-01
  1.27571484E-01  1.80853278E-01  1.82525278E-01  2.08308757E-01  2.08796998E-01
  2.44897242E-01  2.48089034E-01  2.48591342E-01  2.75585665E-01  2.86439186E-01
  3.11025048E-01  3.13387030E-01  3.24270881E-01  3.31560046E-01  3.40090119E-01
  3.73223017E-01  3.76850240E-01  3.78715999E-01  3.91670283E-01  3.93996875E-01
  4.01869221E-01  4.03550835E-01  4.63582085E-01  4.84186320E-01  5.07636053E-01
  5.45753106E-01  6.11055432E-01  6.79642344E-01  8.48780168E-01  8.74853683E-01
  9.96629037E-01  1.07456125E+00  1.14418146E+00  1.15959846E+00  1.22798611E+00
  1.23194681E+00  1.26481870E+00  1.28107945E+00  1.30811412E+00  1.34530885E+00
  1.34763936E+00  1.37599995E+00  1.38097357E+00  1.40808596E+00  1.41795178E+00
  1.45024360E+00  1.54768888E+00  1.60976814E+00  1.61688518E+00  1.71689391E+00
  1.79654060E+00  1.80648030E+00  1.93516281E+00  1.94793141E+00  2.03622128E+00
  2.04460501E+00  2.12447144E+00  2.25079203E+00  2.25251974E+00  2.74051177E+00
  2.81274414E+00  3.09691330E+00  3.12749890E+00  3.16353135E+00  3.16616904E+00
  3.18056083E+00  3.18348766E+00  3.21530761E+00  3.31696363E+00  3.34813164E+00
  3.38724471E+00  3.39250883E+00  3.40817910E+00  3.46319692E+00  3.46493522E+00
  3.56549622E+00  3.72517836E+00  3.91099503E+00  3.96970231E+00  4.11784200E+00
  4.16535457E+00  5.39746372E+00  5.43346139E+00  5.47853711E+00  5.51934594E+00
  5.52122524E+00  5.54266949E+00  5.54757739E+00  5.62685503E+00  5.69217089E+00
  5.84385920E+00  5.92943001E+00  5.93828015E+00  8.65901575E+00  1.82553494E+01
  1.83187360E+01  1.84455915E+01  5.14665641E+01  5.14861516E+01  5.15256910E+01
  5.15689518E+01  1.92404949E+02
Alpha MO coefficients                      R   N=       17424
 -1.45359790E-05 -4.78801964E-05  6.89280724E-05 -4.82169972E-05  8.33799350E-04
  1.09361581E-02 -3.56967921E-04 -4.51937272E-05 -4.46160086E-04 -7.56185145E-04
 -9.02146473E-05 -9.81339102E-04  9.54145549E-04  1.44500799E-04  1.26304692E-03
 -3.05273644E-04  4.23880231E-04 -2.18154136E-03  1.92670929E-03  5.26311669E-04
  1.92822386E-03  9.87027231E-05 -1.08226503E-04 -1.78454221E-03  1.27224953E-03
 -1.31425539E-04 -1.13983747E-03  5.81093098E-04  4.14779632E-04  1.29402366E-03
  1.92460217E-05  2.63558169E-05 -1.87088251E-05  7.60628643E-05 -1.13452373E-04
  7.13870239E-05 -5.99665077E-06  1.24235713E-04 -1.51458662E-04 -1.85269291E-03
  4.28421433E-04  9.48116262E-04 -2.13536952E-04  1.98177550E-05  1.97821272E-05
 -1.62246218E-07  1.01165093E-05  4.54573140E-05 -1.60331492E-03  1.17036472E-03
  6.89965640E-04  4.70102344E-04 -9.54063548E-07 -6.89213060E-06 -1.07984751E-04
 -3.89407901E-05 -1.52044059E-04  1.07321931E-04 -1.65556459E-04 -4.96855376E-05
 -2.14357946E-04 -9.68885234E-04  3.97626615E-04 -8.07882191E-04 -1.90143020E-04
  1.09951662E-05 -2.37820988E-05  3.33751378E-06  2.05526463E-06 -3.22493056E-05
 -4.41185914E-03 -4.00643083E-04 -1.41837067E-03  9.98990247E-04  1.07440920E-06
 -6.05844492E-08 -1.61329313E-04 -2.85899661E-05 -1.39891069E-04  4.89504183E-05
 -2.31677173E-04 -4.04541094E-05 -2.05589568E-04 -7.45176976E-04 -4.00082951E-04
 -1.09258671E-04  5.56272753E-04 -1.74027028E-05 -3.10235658E-06 -6.20221612E-06
 -6.09979909E-07 -2.95938158E-06 -3.84003711E-03 -1.25324064E-03 -1.51551762E-04
  1.13455785E-03  5.59891724E-01  4.87393821E-01  4.36899141E-03  4.11164052E-04
  6.30385155E-03 -4.47305243E-02  4.24748341E-03  7.05887993E-04  5.54806638E-03
 -4.80099920E-02  3.35363779E-03  7.97231239E-04  4.33575112E-03  9.01472990E-05
  3.62530152E-05 -9.81883564E-05  1.43259100E-04  6.40805388E-05  6.71196709E-03
  1.47941362E-03 -2.88092852E-04  2.38906049E-03  3.65942746E-05  4.03684862E-04
 -8.13182987E-04  1.92288139E-05  3.62892733E-05 -3.51034877E-05 -3.07084148E-04
  2.75200756E-05 -1.89658461E-05  2.22298023E-03  2.02104039E-05  2.50480809E-05
  1.12233693E-05  2.86085917E-04  1.51255471E-03  4.46107177E-03 -9.84959672E-03
 -1.94409852E-02  3.80450774E-02  6.25566729E-02 -2.56323030E-03  6.92775327E-03
 -2.18118034E-03 -5.46069933E-03  1.40700838E-02 -3.99029519E-03  1.25014957E-02
 -2.22169031E-02  1.41117394E-03  1.51496938E-02 -5.05819782E-02  3.05140953E-02
 -3.07761592E-02  1.67215939E-02  7.00185817E-02 -1.30976868E-02 -9.65540668E-03
  1.54174441E-02  2.14701564E-02 -1.35791155E-02  1.84392506E-02  4.17149527E-04
 -7.13223221E-03  4.15739183E-03 -5.10669884E-04 -9.40738740E-04  2.05915579E-03
 -1.26120227E-03 -2.50830833E-03  2.97809539E-03  2.82169852E-03 -2.60017129E-03
 -3.23332788E-03  6.34962084E-03 -1.57998506E-03 -3.30541083E-03 -1.04461026E-02
  1.46478150E-04  4.86012927E-04  1.96439624E-04  2.23548814E-04 -1.06972643E-04
 -2.46076450E-02  3.49718361E-03  9.65496227E-03 -1.33841199E-02  3.83538195E-02
  7.65572929E-02 -1.40944472E-01 -2.58849674E-02  1.41441091E-01 -2.49237424E-01
 -2.21426752E-01 -4.06591814E-02  2.22524039E-01 -1.44726896E-01 -1.46135836E-01
 -5.47386080E-02  1.64114672E-01  2.54302548E-05 -9.04063315E-03  1.50556605E-02
  7.44500345E-03  1.02873960E-02  6.67694006E-02  1.65530071E-02  5.71681350E-03
 -2.36941338E-02  2.06173759E-03  3.66300146E-03 -8.47096530E-03  8.74539433E-03
  5.51732908E-03 -1.02283964E-02 -1.35207846E-02  1.39093082E-02  8.51277917E-03
 -3.24956845E-02 -2.40156012E-02  2.02283810E-02  1.79588444E-02 -3.43926122E-04
 -1.25744017E-04  7.66243364E-04  6.97889993E-04 -6.19784446E-04 -6.70921526E-02
 -3.43780722E-03 -2.83825905E-03  1.15100992E-02  9.19311097E-06  3.48217892E-05
  2.07203752E-03  2.96601768E-03 -3.27521370E-03 -6.15304295E-04  2.90115759E-03
  4.26294241E-03 -4.50467356E-03  6.96060160E-03  9.66030338E-03  8.16850508E-03
 -2.52333443E-03  1.71059306E-04  1.51388330E-04  7.07105425E-04  3.07226732E-04
 -9.01164991E-05  2.62986321E-02  9.42582994E-03 -8.03158894E-04 -3.89190700E-03
  3.04192614E-04  6.23882774E-03  7.04079846E-03 -4.55621342E-04  7.42589617E-04
 -6.01412311E-04  4.02972873E-04 -1.83886030E-01 -2.23675164E-01 -5.60388802E-02
  3.44853150E-02 -3.62870844E-03 -2.70772270E-02 -1.57605778E-02 -2.09020712E-04
 -4.19143180E-04  6.08756705E-04 -5.61639085E-04  4.44341030E-03 -8.43068417E-02
  9.84550104E-03  1.96365840E-02 -2.77786057E-03  1.99975486E-02  3.92273648E-02
 -4.37450529E-03 -2.86172810E-02 -5.56280481E-02  2.15865219E-03 -6.74225723E-02
 -1.47526785E-01  5.46597517E-02 -1.17890018E-01 -1.03643071E-01  1.17800827E-01
  3.25718438E-02  4.73982928E-02  4.29992978E-02  1.25402036E-02  7.23204987E-02
  9.99864618E-03 -4.05454796E-03 -1.49175101E-02 -4.76927690E-04 -6.01267592E-03
 -1.05070935E-02 -9.12955886E-03 -1.09487884E-02 -5.08941729E-03  2.83299918E-02
 -1.46776118E-02 -1.92023427E-02 -7.08885081E-03  1.12883949E-01 -3.19780961E-02
 -5.25243863E-02 -3.41795576E-03 -1.08775132E-03  1.02838246E-04 -1.96348983E-03
  1.68314067E-03 -1.97703144E-03  1.46498192E-01  6.27397916E-03 -1.94690133E-02
  8.11803399E-03  2.28422457E-03  4.13856328E-03  7.87495453E-03  3.84426102E-04
  2.30510358E-03 -1.39538563E-02  1.19764166E-02 -1.34973079E-03  4.40371052E-03
 -2.47672178E-02  3.07058499E-02  2.14588308E-03 -6.15866797E-03  1.43522934E-03
  4.08595846E-04  1.46661518E-04 -1.80338181E-04  2.24767597E-04  6.42843396E-02
  2.60768728E-02  3.37680866E-02 -3.85253727E-02  1.87076845E-03  3.33914395E-03
  8.00282089E-04  1.06714950E-02  8.37578160E-03 -1.11776757E-02  2.80069078E-03
  1.41772464E-02  1.01393896E-02 -2.69742277E-02 -7.17813327E-04  3.46341298E-02
  2.78197321E-02  2.27202055E-04  1.02771982E-03 -5.27980081E-04 -8.43464018E-04
  4.52241537E-04 -1.31159572E-01 -6.08025808E-03  1.82924138E-02  2.22309053E-02
 -3.61811440E-02 -8.12075901E-02 -1.17316169E-01 -1.97506699E-01  2.68974266E-02
  2.95448671E-01 -1.80584327E-01 -3.10445427E-01  4.96593980E-02  2.84252056E-01
 -1.62001075E-01 -3.00416971E-01  5.87941272E-02 -1.13010305E-02 -1.19585387E-02
 -6.41370479E-03 -5.37875533E-03 -2.17240899E-02  2.26066479E-02  1.25853075E-02
  1.32074931E-02 -1.19659039E-02 -9.80190965E-03 -3.52094984E-02 -5.19485946E-02
  2.69843923E-03 -1.05001962E-03  1.99381829E-03 -3.71007841E-03  2.74640616E-03
 -7.79545667E-03 -4.18830588E-02  2.29213707E-03  4.36359472E-04 -6.35425540E-04
 -1.69199476E-03  1.28684664E-03  3.81932078E-03 -8.89548115E-03 -1.47418956E-02
  2.63885598E-02  6.32049144E-02 -9.07485725E-03 -1.24893874E-03 -1.45569015E-03
 -1.75047942E-02 -2.43246254E-03 -2.74801186E-03  2.24400267E-02 -2.20742305E-03
  2.21723719E-03  7.84371999E-02  1.34966217E-02  1.79095346E-02 -2.37457481E-02
  7.46276157E-03 -3.83858583E-02  4.19965464E-02 -1.25785744E-02  6.80753349E-03
 -2.63480746E-02 -8.80882740E-03 -3.38430378E-02 -3.11634907E-03  1.54832507E-02
  1.32057535E-03  3.01835243E-03  5.34153282E-03 -1.56670683E-04  1.60696499E-02
  5.84727105E-04 -1.27619229E-02  1.67174100E-04  2.74820447E-02  5.20665991E-05
 -6.55155393E-02  1.17715008E-02  4.80942709E-02  1.00081036E-03 -1.21534488E-03
 -1.51571767E-03 -5.92190234E-04  4.32007920E-04  5.43408275E-04  7.34136668E-02
  2.00158475E-03 -2.89221398E-02  1.42177687E-02  4.02245956E-02  9.13992352E-02
  1.41598208E-01  1.86992219E-01  5.20267164E-02 -3.42982086E-01  2.21156890E-01
  2.85206988E-01  8.32832236E-02 -3.17382689E-01  2.26445422E-01  2.68215920E-01
  7.64915989E-02 -8.06860554E-03  9.80775445E-03 -5.57695568E-03  1.23554804E-02
 -2.56559781E-03  4.55430323E-02 -1.93979894E-02  3.22394471E-02  2.10115940E-02
 -1.40832301E-04 -2.62458793E-04 -5.16842807E-03 -3.60548239E-03 -2.41067921E-03
  1.40337550E-03 -7.21481537E-03 -5.34978806E-03 -2.84738536E-03 -3.49982503E-04
 -1.71296578E-02 -8.47299713E-03 -6.15103939E-03  4.04321531E-04 -4.97488843E-04
  5.79573010E-04 -5.07591230E-04  4.27574641E-04 -8.02557806E-03 -9.59548375E-03
 -3.39971189E-03  7.90494778E-03 -1.13447309E-03 -2.03856199E-03 -1.68941299E-03
 -5.40604147E-03  3.11385598E-03  6.48688532E-03 -7.45081468E-04 -8.52669506E-03
  5.02235400E-03  2.15655476E-02 -6.67637747E-03 -1.35093102E-02  1.13600592E-02
  4.06496610E-04 -2.86801648E-04 -2.16693135E-04 -6.48388442E-04 -6.73895788E-04
 -7.59715425E-02 -2.22864683E-02  1.82399390E-03 -2.51268887E-02 -2.69110198E-03
 -1.08605440E-03 -2.97818984E-02 -1.29609206E-03 -8.75791027E-04  4.46231730E-04
  1.00351858E-02  1.41212235E-02  2.13920672E-02  3.63156690E-02  1.02626436E-02
  1.91376183E-02  5.74719570E-03  2.11820664E-03 -1.34648890E-02 -4.08081884E-02
  9.36024057E-02  1.84822940E-01 -3.97294791E-01 -1.13789146E-01 -2.10629683E-02
  4.20289807E-03 -4.30356850E-02 -4.49547782E-02  8.62839294E-03 -9.12134380E-02
  9.18945053E-02 -1.54130778E-02  1.81654196E-01  1.13456343E-01 -3.32646545E-02
  2.61809265E-01 -6.13351452E-02 -4.30538062E-03 -7.28742271E-02  2.71475110E-02
  8.93535695E-03 -7.49340769E-02  6.93683095E-02  1.58447536E-02 -1.22334561E-02
 -1.79652617E-03  1.24873222E-03  6.86062596E-04 -5.58323885E-03 -1.00762482E-02
 -1.08925085E-02 -1.29717695E-02 -5.10537190E-03  3.27055478E-02 -1.64990729E-02
 -2.08010421E-02 -6.33003531E-03  4.51281647E-02 -2.10833408E-02 -2.22376274E-02
 -1.85553250E-02 -1.35434581E-03 -9.81059058E-04 -2.32026014E-03  1.20996688E-03
 -1.19945531E-03  5.07435426E-02  1.53673348E-02 -1.13810611E-02  2.66236470E-02
 -3.47138512E-03 -6.46840860E-03 -1.27867404E-02  1.20397562E-02 -8.11094198E-03
  2.14453009E-02 -1.95464562E-02  1.86289385E-02 -1.16783180E-02  2.08653090E-02
 -1.45021083E-02  1.50874944E-02 -2.89068050E-02 -8.37441138E-04  8.99661833E-04
 -8.75443835E-04 -8.97298175E-05  1.28312226E-04  2.39770188E-02 -3.57702458E-03
  1.47449905E-02  1.43666273E-02 -3.13522134E-03 -5.96480120E-03 -3.66671351E-03
  2.24658562E-03 -2.00690485E-02  2.05117175E-02 -3.59875922E-03  2.90998118E-03
 -3.00746453E-02 -1.01782155E-02 -2.89391037E-02  6.60415467E-03 -2.08876209E-02
  1.16253230E-03  2.05804497E-04 -1.75925814E-03  1.21198835E-04  9.90486765E-05
  2.34999868E-02  1.83406333E-02  9.59675454E-04 -1.77894433E-04  2.57877763E-02
  5.04016002E-02 -1.11569286E-01 -2.16801628E-02 -1.54367477E-01 -1.56328558E-01
 -1.80433859E-01 -3.39746756E-02 -2.51562941E-01 -1.56545726E-02 -1.12151334E-01
 -3.60485721E-02 -1.33544868E-01  1.76172470E-03 -1.11019583E-03 -2.52013464E-02
  1.92709606E-02 -1.96789584E-03  1.06385513E-03  2.39475521E-03  1.07174308E-03
 -6.88896919E-03 -8.38953645E-03 -1.26961092E-02 -3.56874173E-02 -3.71634487E-04
 -2.13584054E-03  7.48649373E-04 -3.85710409E-03  3.78046736E-04 -1.01666118E-02
  3.89215495E-03 -9.18784891E-05  2.13076154E-03 -1.37064353E-03  3.15770476E-03
 -2.90203132E-02 -1.13681448E-01  2.70729486E-01  2.97519969E-01  1.70758610E-03
 -1.94367811E-02 -2.36753888E-01 -1.30700449E-02  2.28103244E-01 -4.49668153E-01
 -2.48512470E-02  4.33292037E-01 -2.23315050E-02 -1.23418112E-03  1.90433982E-02
  1.11695516E-02  7.99861971E-04 -1.49703390E-02 -3.87296788E-03 -2.91460336E-04
  5.22307423E-03  2.68700179E-04 -1.55517124E-04  3.50185236E-03  2.95162464E-03
  2.15914969E-04 -5.47824141E-03 -8.43606915E-04 -1.42870237E-04 -2.59076791E-04
 -2.56347677E-04 -4.65363586E-04 -4.98473815E-04 -1.04325679E-03 -1.19028265E-04
  1.57658539E-03 -6.58901472E-04 -1.42049081E-03 -2.72913304E-04  9.98571305E-04
 -5.50494635E-04 -1.09044305E-03  7.73782979E-04 -5.78542214E-05 -1.41479325E-04
 -4.50488438E-06 -2.91869938E-05 -1.06551990E-05  4.49225959E-03 -6.37126140E-04
 -1.63028884E-03 -9.54786513E-04 -2.40656043E-04 -4.42974389E-04 -5.24030621E-04
  1.01636632E-03 -1.41246870E-04  1.57347860E-03 -6.79269758E-04  1.38664870E-03
 -2.51718525E-04  7.26490313E-04 -1.07794771E-03  1.07825222E-03  6.90913692E-04
 -8.22002151E-05  1.44502982E-04  1.02431074E-04 -2.99542591E-06 -2.93039800E-05
  5.26785472E-03  2.56802140E-04  1.51180999E-03 -1.41440057E-03  1.64678262E-03
  3.13533219E-03 -3.80365891E-03 -1.75947360E-04  7.22893203E-03 -9.71634892E-03
 -6.14285416E-03 -2.95026200E-04  1.17265884E-02 -1.37710571E-03 -3.21712597E-03
 -1.03655009E-04  5.67570354E-03  1.18174920E-04 -1.95268817E-05  8.90463552E-04
  7.34469785E-04  3.37631023E-05  1.87920393E-03  8.60062413E-04 -5.37549124E-05
 -2.11963021E-04 -1.12714209E-05 -2.77917561E-06  8.57640974E-04  1.06999221E-04
 -2.66055730E-04  1.17790132E-04  1.24078027E-03  2.09181095E-04 -8.95434194E-04
 -9.59016332E-04 -1.03659919E-04  8.28382252E-05 -2.46881899E-04  1.13801093E-04
  4.73914630E-06 -9.63463105E-05  1.88026515E-04  1.97097277E-05  5.87069333E-03
  2.30111862E-03  8.45094715E-05  1.04912078E-03 -1.14382062E-04 -4.54752051E-04
 -2.44805106E-04 -4.72759718E-05 -2.16850681E-04 -5.52933740E-07  9.05347463E-04
 -1.64738509E-04  3.02920572E-04 -1.95872567E-03 -2.07511664E-04  1.92233799E-04
  2.28584253E-05  5.31858187E-04 -9.34496469E-03 -2.81631958E-02  6.31828617E-02
  1.29613840E-01 -2.59203457E-01 -1.02097977E-01  2.89106162E-02 -3.11835395E-02
 -1.83001255E-03  6.12968804E-02 -6.68201293E-02 -3.70696145E-03 -1.08143445E-01
  1.22140746E-01  5.61527427E-03 -1.71918699E-01  1.67274682E-01  1.73539393E-02
  6.52216842E-02 -1.13179053E-01  3.84532860E-02 -2.61161231E-02  9.53839377E-02
  6.67136082E-03 -6.17288810E-02 -8.69656175E-03 -5.59222446E-02 -1.69142641E-02
 -2.03673189E-03  1.29066093E-02 -3.83483045E-03 -7.09653724E-03 -3.26850794E-03
 -2.21062724E-02 -1.87702020E-03  2.22742434E-02 -5.51582963E-03 -3.40139963E-02
 -2.19047378E-03  3.97681529E-02  1.50205322E-03 -4.75504053E-02 -2.17170936E-03
  7.32564323E-04  1.82514303E-05  6.04172012E-04 -8.85679345E-04 -8.48386587E-04
 -5.36805164E-03 -3.78014708E-02  2.05048568E-02 -2.47688726E-02  3.33382030E-02
  6.61971528E-02  1.02528128E-01 -1.61909011E-01  1.23421616E-02 -2.06172565E-01
  1.72063617E-01 -2.71378084E-01  2.15259412E-02 -2.12235729E-01  1.05857466E-01
 -2.23048801E-01  4.09529013E-02  4.68486208E-03  2.01584439E-02 -2.60342086E-03
 -1.87277305E-02  5.86591817E-03  6.41142648E-02  2.40212075E-02  2.28520904E-02
 -3.21849137E-02 -3.32804407E-03 -6.19658194E-03  1.66083949E-02 -1.30485420E-02
 -1.06046080E-02  2.15220094E-02  2.24710882E-02 -1.89964238E-02 -1.35725789E-02
 -1.21344756E-03  2.88789420E-02 -3.25323443E-02 -5.07722866E-04 -1.37097476E-04
  6.73357535E-04  6.85115612E-04  2.47793011E-04 -3.65917818E-04  1.61202318E-02
 -3.53631013E-03  2.28439062E-02 -1.55799331E-02 -3.83219485E-03 -7.05458122E-03
  1.79248054E-02 -1.38426569E-02  1.04356151E-02  2.32062016E-02  2.43766598E-02
 -2.03493141E-02  1.35940196E-02  1.73900950E-02  3.75963927E-02 -3.35208322E-02
  5.23206462E-03 -2.16613630E-04  8.87296077E-04 -4.70565727E-04  9.57936198E-05
  3.86540805E-04  5.38536021E-02 -4.51602044E-03  2.59286657E-02  1.14133252E-02
  2.08823933E-03 -6.89645833E-03  3.68590133E-02  2.54564880E-04 -5.46225671E-04
  7.96161735E-04  8.05971073E-04  1.97986219E-02  7.26302973E-02 -6.71666578E-02
 -2.89775517E-04 -1.19332887E-02  8.32429552E-03  2.90112592E-02  2.04800441E-04
  4.06428958E-04 -5.79073692E-04  6.22956228E-04 -4.58095706E-03  8.41869935E-02
 -9.80867318E-03  1.96462995E-02 -2.77216133E-03 -1.99292407E-02  3.92487777E-02
 -4.36527148E-03  2.85614243E-02 -5.56936992E-02  2.19997385E-03  6.70525065E-02
 -1.47652522E-01  5.48073433E-02  1.17339287E-01 -1.03886534E-01  1.18464701E-01
 -3.26541187E-02  4.77116782E-02  4.26873377E-02 -1.27761144E-02 -7.22550503E-02
 -9.98353600E-03  4.03135382E-03 -1.49231231E-02 -4.68520039E-04 -2.28397274E-03
 -4.13876380E-03 -7.88314841E-03  4.06492413E-04  2.27834414E-03  1.39605036E-02
 -1.19957807E-02 -1.31523490E-03  4.36385970E-03  2.47495183E-02 -3.06851167E-02
  2.24224472E-03 -6.26297727E-03 -1.43554636E-03  4.14439919E-04  1.37845409E-04
  1.78027578E-04 -2.24921219E-04 -6.42942594E-02 -2.58817644E-02  3.38292854E-02
 -3.86309691E-02  6.01129429E-03  1.05054453E-02  9.12001524E-03 -1.09718694E-02
 -5.05980862E-03 -2.83222398E-02  1.46549373E-02 -1.92389442E-02 -7.03839206E-03
 -1.12875075E-01  3.18533153E-02 -5.26136547E-02 -3.29857355E-03  1.09825365E-03
  8.96946934E-05 -1.95694524E-03 -1.67776914E-03  1.98346246E-03 -1.46491321E-01
 -6.33706351E-03 -1.94703648E-02  8.06987660E-03  3.63998813E-02  8.13779819E-02
  1.16870251E-01 -1.97729491E-01  2.73674179E-02 -2.95342479E-01  1.79861693E-01
 -3.10790326E-01  5.03867114E-02 -2.84104126E-01  1.61285000E-01 -3.00722515E-01