10
Properties=species:S:1:pos:R:3:Z:I:1 energy=-40.20898433575475 field_type=dipole dipole="0.000000 0.000000 0.000000" charge=0
C	0.998260	-0.002460	-0.004360	6
H	2.090210	-0.002430	0.004140	1
H	0.633790	1.026860	0.004140	1
H	0.627040	-0.527730	0.878110	1
H	0.641360	-0.507470	-0.905400	1
Es	0.768247	0.124680	-0.310882	99
Es	1.350202	-0.114326	-0.174297	99
Es	0.909372	-0.129663	0.202544	99
Es	0.875035	-0.226355	0.072984	99
Es	1.088110	0.332878	0.187032	99
