19
Properties=species:S:1:pos:R:3:Z:I:1 energy=-152.9565067403402 field_type=dipole dipole="0.000000 0.000000 0.000000" charge=0
C	0.993820	0.009340	-0.002210	6
C	2.489170	0.038210	-0.011280	6
O	3.139770	1.048030	-0.265970	8
H	0.652380	-1.013260	-0.192710	1
H	0.603070	0.661730	-0.785940	1
H	0.629860	0.331370	0.975850	1
H	2.987920	-0.888910	0.314450	1
Es	2.952654	0.774056	-0.305865	99
Es	0.869438	-0.300124	-0.103629	99
Es	2.324408	0.061673	-0.012302	99
Es	3.047340	1.076862	-0.240346	99
Es	1.790376	0.118361	-0.038514	99
Es	0.859805	0.255762	-0.029795	99
Es	3.107833	1.166108	-0.298887	99
Es	2.810913	-0.586968	0.230602	99
Es	3.132442	0.944959	-0.236737	99
Es	0.877141	0.181899	-0.009916	99
Es	3.104778	0.721503	-0.141100	99
Es	0.797677	-0.274704	0.164561	99
