19
Properties=species:S:1:pos:R:3:Z:I:1 energy=-153.87985372665563 field_type=dipole dipole="0.000000 0.000000 0.000000" charge=0
C	-0.648464	-0.017304	-0.006809	6
C	0.846886	0.011566	-0.015879	6
O	1.497486	1.021386	-0.270569	8
H	-0.989904	-1.039904	-0.197309	1
H	-1.039214	0.635086	-0.790539	1
H	-1.012424	0.304726	0.971251	1
H	1.345636	-0.915554	0.309851	1
Es	0.884812	-0.181708	0.055742	99
Es	1.249359	0.702009	-0.072639	99
Es	1.214914	0.555752	-0.276194	99
Es	1.088300	-0.403953	0.125909	99
Es	-0.888924	-0.528529	0.098639	99
Es	1.795343	1.000270	-0.253345	99
Es	-0.672731	-0.079495	0.001816	99
Es	-0.121318	0.034063	0.074578	99
Es	1.450751	1.017015	-0.276915	99
Es	-0.890376	0.398782	-0.129143	99
Es	1.359757	1.196090	-0.348306	99
Es	-0.521713	0.069764	-0.068087	99
