21
Properties=species:S:1:pos:R:3:Z:I:1 energy=-117.1001850591721 field_type=dipole dipole="0.000000 0.000000 0.000000" charge=0
C	0.975120	-0.010440	0.007820	6
C	2.467370	0.026250	0.010910	6
C	3.175720	1.162210	-0.010090	6
H	0.628360	-1.048000	-0.037040	1
H	0.571030	0.514130	-0.863620	1
H	0.572630	0.438070	0.921390	1
H	2.989930	-0.927010	0.030150	1
H	2.691540	2.133860	-0.027710	1
H	4.261420	1.140940	-0.007570	1
Es	0.792293	-0.597008	-0.016873	99
Es	2.169436	-0.038460	0.019327	99
Es	0.844120	0.159402	0.067948	99
Es	3.087201	1.097697	-0.089731	99
Es	2.635801	-0.266573	0.001911	99
Es	0.915959	-0.009249	-0.027728	99
Es	2.894216	0.696389	-0.086337	99
Es	2.803492	0.613354	0.200883	99
Es	3.874210	1.152767	-0.024722	99
Es	0.631114	0.359261	-0.018325	99
Es	2.864413	1.754194	-0.012107	99
Es	2.237751	-0.241340	0.018524	99
