18
Properties=species:S:1:pos:R:3:Z:I:1 energy=-116.69223825269319 field_type=dipole dipole="0.000000 0.000000 0.000000" charge=0
C	-0.937096	-0.001873	-0.008259	6
C	0.506904	-0.001873	-0.008259	6
C	1.697064	-0.001873	-0.008259	6
H	-1.338716	1.016307	0.027041	1
H	-1.317546	-0.509873	0.884841	1
H	-1.374056	-0.498943	-0.878849	1
H	2.763444	-0.001873	-0.008259	1
Es	-1.030250	-0.126710	-0.142524	99
Es	1.696627	-0.002597	-0.007999	99
Es	2.383496	-0.035545	0.008569	99
Es	0.882862	-0.186553	-0.086712	99
Es	-1.013049	-0.141257	0.212647	99
Es	-0.204923	0.017118	-0.053167	99
Es	1.073685	0.195095	0.229840	99
Es	-1.339789	0.137818	0.024202	99
Es	1.107626	0.152828	-0.217644	99
Es	0.781682	-0.132857	0.041359	99
Es	-1.084545	0.108092	-0.072696	99
