34
Properties=species:S:1:pos:R:3:Z:I:1 energy=-263.8693621573501 field_type=dipole dipole="0.000000 0.000000 0.000000" charge=0
C	-2.313547	-1.452732	-0.024046	6
C	-0.984647	-1.311482	0.019324	6
C	-0.377697	0.033768	-0.016486	6
N	0.904883	0.197848	0.024824	7
N	1.231273	1.550158	-0.021786	7
C	2.511053	1.707948	0.021224	6
H	-2.760547	-2.441652	0.002334	1
H	-2.986417	-0.603142	-0.085896	1
H	-0.310197	-2.157182	0.081144	1
H	-1.074037	0.889608	-0.080026	1
H	2.939273	2.721428	-0.006556	1
H	3.220603	0.865428	0.085944	1
Es	1.740464	1.579626	-0.003104	99
Es	0.904410	0.198358	0.024784	99
Es	-0.842695	0.598165	-0.058582	99
Es	1.148536	0.712263	0.011732	99
Es	-1.598613	-1.333240	-0.002860	99
Es	0.312177	0.139439	0.005045	99
Es	-0.377739	0.033700	-0.016476	99
Es	1.231748	1.549705	-0.021748	99
Es	0.994642	1.795791	-0.041743	99
Es	-0.984545	-1.311397	0.019326	99
Es	-1.651247	-1.380227	-0.002235	99
Es	2.826432	2.377027	0.004031	99
Es	-2.667933	-2.074119	-0.010211	99
Es	2.511094	1.707984	0.021217	99
Es	-2.723429	-0.924715	-0.062363	99
Es	-0.652771	-0.664241	0.003644	99
Es	1.060537	0.110717	0.034644	99
Es	-0.565472	-1.846113	0.058148	99
Es	1.821969	1.606534	-0.001321	99
Es	0.405452	0.157001	0.007508	99
Es	2.971928	1.160199	0.063267	99
Es	-2.313652	-1.452743	-0.024051	99
