39
Properties=species:S:1:pos:R:3:Z:I:1 energy=-338.7310691567187 field_type=dipole dipole="0.000000 0.000000 0.000000" charge=0
N	-0.436966	-1.743425	-1.015956	7
C	-0.899356	-1.024285	0.174134	6
C	-0.275166	0.329715	0.261754	6
N	-0.990046	1.366065	0.726104	7
O	-0.139466	2.456305	0.698154	8
C	1.073895	2.069315	0.237794	6
C	1.049425	0.730345	-0.045876	6
H	-0.956836	-2.616635	-1.087696	1
H	0.538274	-2.006005	-0.890686	1
H	-0.652476	-1.603105	1.071174	1
H	-1.990556	-0.934025	0.126364	1
H	1.820844	2.845845	0.175314	1
H	1.858425	0.129895	-0.430576	1
Es	0.988226	1.918513	0.252100	99
Es	-0.163143	2.698098	0.863258	99
Es	-1.598410	-0.968669	0.146298	99
Es	-0.741873	-1.311790	0.228543	99
Es	0.050982	-1.796571	-1.026833	99
Es	0.984373	1.469258	0.221290	99
Es	-1.037307	1.360676	0.757807	99
Es	1.575730	0.331270	-0.334641	99
Es	-0.391574	-1.753679	-1.005523	99
Es	0.365331	0.490514	0.160021	99
Es	-0.344543	0.498845	0.247273	99
Es	1.085689	1.417076	-0.034693	99
Es	1.047924	0.729784	-0.045538	99
Es	-0.813178	-1.191694	0.281575	99
Es	-0.587345	0.941555	0.716800	99
Es	-0.100940	2.364418	0.654890	99
Es	-0.294462	2.277038	0.708698	99
Es	0.245389	2.218330	0.441920	99
Es	-1.253303	1.378732	0.894888	99
Es	-0.678307	-1.378390	-0.401820	99
Es	1.528546	2.558619	0.171017	99
Es	-0.327586	2.192095	0.734462	99
Es	-0.456966	0.785581	0.222160	99
Es	-0.670539	-2.295132	-1.026071	99
Es	-0.590659	-0.322696	0.203852	99
Es	-0.521562	-1.594092	-0.874958	99
