33
Properties=species:S:1:pos:R:3:Z:I:1 energy=-230.75586901179256 field_type=dipole dipole="0.000000 0.000000 0.000000" charge=0
C	-1.213100	-0.688400	0.000000	6
C	-1.202800	0.706400	0.000100	6
C	-0.010300	-1.394800	0.000000	6
C	0.010400	1.394800	-0.000100	6
C	1.202800	-0.706300	0.000000	6
C	1.213100	0.688400	0.000000	6
H	-2.157700	-1.224400	0.000000	1
H	-2.139300	1.256400	0.000100	1
H	-0.018400	-2.480900	-0.000100	1
H	0.018400	2.480800	0.000000	1
H	2.139400	-1.256300	0.000100	1
H	2.157700	1.224500	0.000000	1
Es	-1.858052	-1.054420	-0.000007	99
Es	-0.931880	-0.170263	0.000204	99
Es	-0.598665	1.054888	0.000092	99
Es	-1.842237	1.081987	0.000105	99
Es	-0.015841	-2.136383	-0.000065	99
Es	-0.010300	-1.394832	-0.000008	99
Es	1.212915	-0.008991	-0.000105	99
Es	0.015894	2.136319	0.000004	99
Es	1.842304	-1.081800	0.000061	99
Es	1.858073	1.054414	0.000042	99
Es	1.202827	-0.706316	0.000001	99
Es	1.213128	0.688416	-0.000000	99
Es	-1.212940	0.009068	-0.000109	99
Es	-1.213125	-0.688411	-0.000029	99
Es	-1.202827	0.706417	0.000100	99
Es	0.598727	-1.054931	0.000078	99
Es	0.010401	1.394832	-0.000111	99
Es	0.318478	0.892155	-0.000058	99
Es	0.614277	1.045934	-0.000166	99
Es	0.613451	-0.721845	-0.000018	99
Es	-0.614247	-1.045899	0.000029	99
