17
Properties=species:S:1:pos:R:3:Z:I:1 energy=-131.95987953691116 field_type=dipole dipole="0.000000 0.000000 0.000000" charge=0
N	1.260800	0.000000	0.000000	7
C	-1.361300	0.000000	0.000000	6
C	0.100600	0.000000	0.000000	6
H	-1.750000	-0.830100	0.597400	1
H	-1.750100	-0.102200	-1.017500	1
H	-1.750000	0.932400	0.420200	1
Es	0.729565	0.250057	0.057524	99
Es	1.569567	-0.025382	0.022394	99
Es	1.305373	0.001753	0.033829	99
Es	-0.701066	-0.092258	-0.073608	99
Es	-1.617377	-0.199081	0.229350	99
Es	-1.548949	0.056051	-0.365163	99
Es	-1.403587	0.297115	0.088227	99
Es	0.761026	-0.018751	0.053112	99
Es	0.695459	-0.189675	-0.161463	99
Es	-1.459339	-0.081038	0.117736	99
Es	0.119797	0.001253	-0.001884	99
