32
Properties=species:S:1:pos:R:3:Z:I:1 energy=-698.1300910505242 field_type=dipole dipole="0.000000 0.000000 0.000000" charge=0
S	0.000200	-0.000200	-0.118100	16
O	1.274400	0.035500	0.897500	8
O	-1.276500	-0.032600	0.894900	8
O	-0.033600	1.257700	-0.839100	8
O	0.035400	-1.260400	-0.835100	8
H	1.211100	0.691200	1.631200	1
H	-1.214800	-0.685900	1.630700	1
Es	0.311125	0.118563	0.204432	99
Es	0.067484	0.223023	-0.516641	99
Es	0.518179	0.161920	0.340287	99
Es	0.356393	0.225054	0.279908	99
Es	0.172172	-0.024756	-0.169283	99
Es	0.010695	0.013871	-0.225282	99
Es	-0.015447	0.181627	-0.025572	99
Es	-0.049519	-0.054566	-0.064192	99
Es	0.313352	0.226657	0.039991	99
Es	-0.430961	0.182650	0.167010	99
Es	-0.209665	0.090353	0.220028	99
Es	-0.322274	-0.075386	0.096813	99
Es	0.200065	-0.023178	0.170646	99
Es	-0.066730	-0.206225	-0.272516	99
Es	-0.328390	-0.287042	0.181152	99
Es	-0.066415	-0.008033	0.012376	99
Es	0.007792	-0.068156	0.342886	99
Es	-0.227890	-0.067643	0.147930	99
Es	0.060818	0.008366	-0.044401	99
Es	0.007747	-0.018211	-0.259882	99
Es	-0.192712	-0.173786	0.156952	99
Es	-0.440043	-0.225221	-0.009452	99
Es	0.184122	0.084175	-0.264835	99
Es	0.229616	-0.203431	-0.047669	99
Es	-0.090509	-0.079706	0.129560	99
