17
Properties=species:S:1:pos:R:3:Z:I:1 energy=-79.25137147263807 field_type=dipole dipole="0.000000 0.000000 0.000000" charge=0
C	1.004040	-0.002950	-0.006400	6
C	2.515960	-0.007020	0.000590	6
H	0.622350	1.022400	-0.001640	1
H	0.614110	-0.519740	0.875610	1
H	0.622370	-0.508420	-0.898570	1
H	2.897650	0.502100	0.890620	1
H	2.905890	0.506090	-0.883570	1
H	2.897630	-1.032430	0.000060	1
Es	2.774872	0.341191	0.609308	99
Es	0.739474	-0.356427	0.596839	99
Es	1.760010	-0.004970	-0.002987	99
Es	2.774894	-0.708309	0.000234	99
Es	0.745060	0.698304	-0.003131	99
Es	0.745106	-0.348642	-0.616534	99
Es	2.515928	-0.007020	0.000590	99
Es	2.780583	0.343908	-0.604098	99
Es	1.004072	-0.002950	-0.006400	99
