14
Properties=species:S:1:pos:R:3:Z:I:1 energy=-78.05543859522851 field_type=dipole dipole="0.000000 0.000000 0.000000" charge=0
C	-0.667878	0.000130	0.000000	6
C	0.667882	-0.000140	-0.000000	6
H	-1.227628	0.930170	0.000000	1
H	-1.227968	-0.929820	0.000000	1
H	1.227962	0.929830	-0.000000	1
H	1.227632	-0.930170	0.000000	1
Es	1.053509	-0.625517	0.000202	99
Es	1.053864	0.625122	-0.000014	99
Es	-1.053943	-0.625257	0.000325	99
Es	-0.667974	0.000130	0.000024	99
Es	-1.053404	0.625471	-0.000237	99
Es	-0.000002	0.000331	0.320270	99
Es	0.667956	-0.000140	-0.000064	99
Es	0.000006	-0.000165	-0.320507	99
14
Properties=species:S:1:pos:R:3:Z:I:1 energy=-78.05543859522851 field_type=dipole dipole="0.000000 0.000000 0.000000" charge=0
C	-0.667878	0.000130	0.000000	6
C	0.667882	-0.000140	-0.000000	6
H	-1.227628	0.930170	0.000000	1
H	-1.227968	-0.929820	0.000000	1
H	1.227962	0.929830	-0.000000	1
H	1.227632	-0.930170	0.000000	1
Es	-0.000004	0.000180	0.322421	99
Es	1.054293	0.624451	-0.000056	99
Es	1.053157	-0.625212	-0.000387	99
Es	-1.053863	-0.624671	-0.000077	99
Es	-0.000006	0.000092	-0.321316	99
Es	-1.053573	0.625146	-0.000547	99
Es	0.667979	-0.000139	-0.000032	99
Es	-0.667970	0.000128	-0.000006	99
14
Properties=species:S:1:pos:R:3:Z:I:1 energy=-78.05543859522851 field_type=dipole dipole="0.000000 0.000000 0.000000" charge=0
C	-0.667878	0.000130	0.000000	6
C	0.667882	-0.000140	-0.000000	6
H	-1.227628	0.930170	0.000000	1
H	-1.227968	-0.929820	0.000000	1
H	1.227962	0.929830	-0.000000	1
H	1.227632	-0.930170	0.000000	1
Es	-1.054047	-0.624074	-0.000322	99
Es	1.054525	0.624269	-0.000375	99
Es	-0.667959	0.000133	-0.000055	99
Es	-0.000012	0.000006	0.323795	99
Es	-0.000001	-0.000423	-0.321498	99
Es	0.667966	-0.000139	-0.000072	99
Es	1.052959	-0.624759	-0.000444	99
Es	-1.053419	0.624963	-0.001029	99
14
Properties=species:S:1:pos:R:3:Z:I:1 energy=-78.05543859522851 field_type=dipole dipole="0.000000 0.000000 0.000000" charge=0
C	-0.667878	0.000130	0.000000	6
C	0.667882	-0.000140	-0.000000	6
H	-1.227628	0.930170	0.000000	1
H	-1.227968	-0.929820	0.000000	1
H	1.227962	0.929830	-0.000000	1
H	1.227632	-0.930170	0.000000	1
Es	-1.054047	-0.623950	0.000145	99
Es	1.054168	0.623519	-0.000075	99
Es	0.667987	-0.000139	-0.000000	99
Es	-0.667992	0.000128	0.000018	99
Es	-1.053468	0.624270	-0.000300	99
Es	1.053360	-0.624519	0.000322	99
Es	0.000008	0.000615	0.324265	99
Es	-0.000005	0.000051	-0.324374	99
14
Properties=species:S:1:pos:R:3:Z:I:1 energy=-78.05543859522851 field_type=dipole dipole="0.000000 0.000000 0.000000" charge=0
C	-0.667878	0.000130	0.000000	6
C	0.667882	-0.000140	-0.000000	6
H	-1.227628	0.930170	0.000000	1
H	-1.227968	-0.929820	0.000000	1
H	1.227962	0.929830	-0.000000	1
H	1.227632	-0.930170	0.000000	1
Es	-1.053589	0.623696	0.000377	99
Es	-0.667979	0.000128	-0.000010	99
Es	0.000003	0.000043	-0.325372	99
Es	0.000015	0.000321	0.324784	99
Es	0.667971	-0.000141	0.000050	99
Es	1.053513	-0.623866	0.000392	99
Es	1.054030	0.623687	-0.000302	99
Es	-1.053953	-0.623891	0.000081	99
14
Properties=species:S:1:pos:R:3:Z:I:1 energy=-78.05543859522851 field_type=dipole dipole="0.000000 0.000000 0.000000" charge=0
C	-0.667878	0.000130	0.000000	6
C	0.667882	-0.000140	-0.000000	6
H	-1.227628	0.930170	0.000000	1
H	-1.227968	-0.929820	0.000000	1
H	1.227962	0.929830	-0.000000	1
H	1.227632	-0.930170	0.000000	1
Es	-1.054213	0.623839	0.000177	99
Es	0.000005	-0.000190	-0.325560	99
Es	1.053027	-0.623732	0.000099	99
Es	0.000005	-0.000276	0.324868	99
Es	-1.053322	-0.623455	0.000182	99
Es	1.054490	0.623829	0.000225	99
Es	-0.667992	0.000123	-0.000001	99
Es	0.668011	-0.000163	0.000009	99
14
Properties=species:S:1:pos:R:3:Z:I:1 energy=-78.05543859522851 field_type=dipole dipole="0.000000 0.000000 0.000000" charge=0
C	-0.667878	0.000130	0.000000	6
C	0.667882	-0.000140	-0.000000	6
H	-1.227628	0.930170	0.000000	1
H	-1.227968	-0.929820	0.000000	1
H	1.227962	0.929830	-0.000000	1
H	1.227632	-0.930170	0.000000	1
Es	-0.667989	0.000109	-0.000006	99
Es	0.667990	-0.000137	-0.000002	99
Es	0.000001	0.000068	0.326004	99
Es	0.000002	0.000232	-0.325730	99
Es	1.052932	-0.623754	-0.000227	99
Es	-1.053572	-0.623436	-0.000026	99
Es	-1.053970	0.623793	-0.000065	99
Es	1.054617	0.623101	0.000053	99
14
Properties=species:S:1:pos:R:3:Z:I:1 energy=-78.05543859522851 field_type=dipole dipole="0.000000 0.000000 0.000000" charge=0
C	-0.667878	0.000130	0.000000	6
C	0.667882	-0.000140	-0.000000	6
H	-1.227628	0.930170	0.000000	1
H	-1.227968	-0.929820	0.000000	1
H	1.227962	0.929830	-0.000000	1
H	1.227632	-0.930170	0.000000	1
Es	0.667983	-0.000141	0.000005	99
Es	0.000008	-0.000273	-0.326642	99
Es	1.053835	0.623033	0.000009	99
Es	-0.667982	0.000142	0.000007	99
Es	1.053713	-0.623277	0.000414	99
Es	0.000003	0.000171	0.326189	99
Es	-1.054062	-0.623342	0.000125	99
Es	-1.053487	0.623663	-0.000108	99
14
Properties=species:S:1:pos:R:3:Z:I:1 energy=-78.05543859522851 field_type=dipole dipole="0.000000 0.000000 0.000000" charge=0
C	-0.667878	0.000130	0.000000	6
C	0.667882	-0.000140	-0.000000	6
H	-1.227628	0.930170	0.000000	1
H	-1.227968	-0.929820	0.000000	1
H	1.227962	0.929830	-0.000000	1
H	1.227632	-0.930170	0.000000	1
Es	1.052744	0.623325	0.000366	99
Es	0.667994	-0.000135	0.000000	99
Es	0.000003	-0.000130	-0.326631	99
Es	-1.054082	-0.622946	-0.000163	99
Es	-0.668018	0.000207	-0.000015	99
Es	1.054794	-0.623140	-0.000208	99
Es	-1.053425	0.623349	-0.000118	99
Es	0.000001	-0.000553	0.326767	99
14
Properties=species:S:1:pos:R:3:Z:I:1 energy=-78.05543859522851 field_type=dipole dipole="0.000000 0.000000 0.000000" charge=0
C	-0.667878	0.000130	0.000000	6
C	0.667882	-0.000140	-0.000000	6
H	-1.227628	0.930170	0.000000	1
H	-1.227968	-0.929820	0.000000	1
H	1.227962	0.929830	-0.000000	1
H	1.227632	-0.930170	0.000000	1
Es	-0.000002	0.000012	-0.327079	99
Es	-0.000000	0.000127	0.326460	99
Es	0.667996	-0.000108	-0.000007	99
Es	1.054644	0.622994	0.000183	99
Es	-0.668027	0.000084	0.000003	99
Es	1.052897	-0.623433	0.000209	99
Es	-1.053210	-0.622835	0.000189	99
Es	-1.054285	0.623135	0.000042	99
14
Properties=species:S:1:pos:R:3:Z:I:1 energy=-78.05543859522851 field_type=dipole dipole="0.000000 0.000000 0.000000" charge=0
C	-0.667878	0.000130	0.000000	6
C	0.667882	-0.000140	-0.000000	6
H	-1.227628	0.930170	0.000000	1
H	-1.227968	-0.929820	0.000000	1
H	1.227962	0.929830	-0.000000	1
H	1.227632	-0.930170	0.000000	1
Es	-1.048863	0.622474	0.000163	99
Es	-0.667983	0.000153	0.000019	99
Es	1.049193	0.622173	-0.000062	99
Es	-0.000006	0.000215	-0.326952	99
Es	0.000002	0.000117	0.326902	99
Es	-1.058673	-0.622346	-0.000045	99
Es	0.668070	-0.000029	-0.000011	99
Es	1.058271	-0.622783	-0.000014	99
14
Properties=species:S:1:pos:R:3:Z:I:1 energy=-78.05543859522851 field_type=dipole dipole="0.000000 0.000000 0.000000" charge=0
C	-0.667878	0.000130	0.000000	6
C	0.667882	-0.000140	-0.000000	6
H	-1.227628	0.930170	0.000000	1
H	-1.227968	-0.929820	0.000000	1
H	1.227962	0.929830	-0.000000	1
H	1.227632	-0.930170	0.000000	1
Es	0.000002	0.000072	0.326694	99
Es	0.667987	-0.000148	-0.000000	99
Es	-1.048935	-0.621711	-0.000117	99
Es	-1.058585	0.622583	0.000045	99
Es	1.060361	0.621267	-0.000172	99
Es	1.047174	-0.622235	0.000083	99
Es	0.000001	0.000020	-0.326534	99
Es	-0.667993	0.000128	0.000001	99
14
Properties=species:S:1:pos:R:3:Z:I:1 energy=-78.05543859522851 field_type=dipole dipole="0.000000 0.000000 0.000000" charge=0
C	-0.667878	0.000130	0.000000	6
C	0.667882	-0.000140	-0.000000	6
H	-1.227628	0.930170	0.000000	1
H	-1.227968	-0.929820	0.000000	1
H	1.227962	0.929830	-0.000000	1
H	1.227632	-0.930170	0.000000	1
Es	1.040683	0.618093	-0.000225	99
Es	-0.000012	0.000493	0.317735	99
Es	-1.066936	-0.618453	0.000140	99
Es	0.667985	-0.000141	0.000008	99
Es	-0.000009	-0.000008	-0.317596	99
Es	-1.040614	0.618568	-0.000129	99
Es	-0.667957	0.000130	0.000001	99
Es	1.066871	-0.618706	0.000064	99
14
Properties=species:S:1:pos:R:3:Z:I:1 energy=-78.05543859522851 field_type=dipole dipole="0.000000 0.000000 0.000000" charge=0
C	-0.667878	0.000130	0.000000	6
C	0.667882	-0.000140	-0.000000	6
H	-1.227628	0.930170	0.000000	1
H	-1.227968	-0.929820	0.000000	1
H	1.227962	0.929830	-0.000000	1
H	1.227632	-0.930170	0.000000	1
Es	-1.038495	0.617555	0.000069	99
Es	1.038812	0.617366	-0.000057	99
Es	0.000006	-0.000200	0.320261	99
Es	1.068728	-0.617241	0.000088	99
Es	0.000004	-0.000385	-0.320451	99
Es	-1.069023	-0.617093	0.000087	99
Es	0.667976	-0.000142	0.000016	99
Es	-0.667996	0.000116	-0.000012	99
14
Properties=species:S:1:pos:R:3:Z:I:1 energy=-78.05543859522851 field_type=dipole dipole="0.000000 0.000000 0.000000" charge=0
C	-0.667878	0.000130	0.000000	6
C	0.667882	-0.000140	-0.000000	6
H	-1.227628	0.930170	0.000000	1
H	-1.227968	-0.929820	0.000000	1
H	1.227962	0.929830	-0.000000	1
H	1.227632	-0.930170	0.000000	1
Es	0.667986	-0.000142	0.000011	99
Es	0.000003	0.000151	-0.308507	99
Es	-1.036411	-0.614842	0.000180	99
Es	-1.071094	0.614832	0.000261	99
Es	0.000003	0.000524	0.307720	99
Es	1.036979	-0.616051	0.000264	99
Es	1.070566	0.615297	0.000071	99
Es	-0.668021	0.000206	-0.000001	99
14
Properties=species:S:1:pos:R:3:Z:I:1 energy=-78.05543859522851 field_type=dipole dipole="0.000000 0.000000 0.000000" charge=0
C	-0.667878	0.000130	0.000000	6
C	0.667882	-0.000140	-0.000000	6
H	-1.227628	0.930170	0.000000	1
H	-1.227968	-0.929820	0.000000	1
H	1.227962	0.929830	-0.000000	1
H	1.227632	-0.930170	0.000000	1
Es	1.072509	-0.613288	0.000022	99
Es	-1.073225	-0.612472	-0.000068	99
Es	0.000002	-0.000137	0.297978	99
Es	0.668013	-0.000195	-0.000013	99
Es	-0.667980	0.000113	-0.000018	99
Es	1.035012	0.613168	-0.000018	99
Es	0.000001	-0.000054	-0.297893	99
Es	-1.034321	0.612840	0.000010	99
14
Properties=species:S:1:pos:R:3:Z:I:1 energy=-78.05543859522851 field_type=dipole dipole="0.000000 0.000000 0.000000" charge=0
C	-0.667878	0.000130	0.000000	6
C	0.667882	-0.000140	-0.000000	6
H	-1.227628	0.930170	0.000000	1
H	-1.227968	-0.929820	0.000000	1
H	1.227962	0.929830	-0.000000	1
H	1.227632	-0.930170	0.000000	1
Es	-0.667971	0.000122	0.000025	99
Es	-0.000005	0.000047	-0.296420	99
Es	1.033421	0.611585	0.000134	99
Es	0.000004	-0.000241	0.296400	99
Es	0.667978	-0.000141	0.000026	99
Es	-1.073554	-0.612393	-0.000165	99
Es	1.074124	-0.611692	-0.000022	99
Es	-1.033986	0.612689	0.000022	99
14
Properties=species:S:1:pos:R:3:Z:I:1 energy=-78.05543859522851 field_type=dipole dipole="0.000000 0.000000 0.000000" charge=0
C	-0.667878	0.000130	0.000000	6
C	0.667882	-0.000140	-0.000000	6
H	-1.227628	0.930170	0.000000	1
H	-1.227968	-0.929820	0.000000	1
H	1.227962	0.929830	-0.000000	1
H	1.227632	-0.930170	0.000000	1
Es	1.074680	0.610849	0.000211	99
Es	0.000002	0.000096	-0.287713	99
Es	-1.031834	-0.609594	0.000158	99
Es	-1.075702	0.609421	-0.000027	99
Es	1.032861	-0.611077	-0.000029	99
Es	-0.000001	0.000284	0.287400	99
Es	0.667996	-0.000128	-0.000001	99
Es	-0.667990	0.000124	-0.000001	99
14
Properties=species:S:1:pos:R:3:Z:I:1 energy=-78.05543859522851 field_type=dipole dipole="0.000000 0.000000 0.000000" charge=0
C	-0.667878	0.000130	0.000000	6
C	0.667882	-0.000140	-0.000000	6
H	-1.227628	0.930170	0.000000	1
H	-1.227968	-0.929820	0.000000	1
H	1.227962	0.929830	-0.000000	1
H	1.227632	-0.930170	0.000000	1
Es	0.667988	-0.000139	0.000001	99
Es	1.075935	-0.609496	-0.000089	99
Es	-1.076088	-0.609122	0.000023	99
Es	-1.031442	0.609378	-0.000037	99
Es	0.000002	0.000055	0.283649	99
Es	0.000002	0.000337	-0.283656	99
Es	-0.667996	0.000152	-0.000001	99
Es	1.031610	0.608812	0.000110	99
14
Properties=species:S:1:pos:R:3:Z:I:1 energy=-78.05543859522851 field_type=dipole dipole="0.000000 0.000000 0.000000" charge=0
C	-0.667878	0.000130	0.000000	6
C	0.667882	-0.000140	-0.000000	6
H	-1.227628	0.930170	0.000000	1
H	-1.227968	-0.929820	0.000000	1
H	1.227962	0.929830	-0.000000	1
H	1.227632	-0.930170	0.000000	1
Es	-0.667981	0.000128	-0.000012	99
Es	-1.030646	-0.607902	-0.000058	99
Es	1.077189	0.607660	-0.000069	99
Es	0.000002	0.000152	0.278958	99
Es	1.030353	-0.608158	-0.000065	99
Es	-1.076893	0.608167	-0.000060	99
Es	0.667986	-0.000136	0.000006	99
Es	0.000001	0.000065	-0.278700	99
