19
Properties=species:S:1:pos:R:3:Z:I:1 energy=-152.9565067370594 field_type=dipole dipole="0.000000 0.000000 0.000000" charge=0
C	-0.648464	-0.017304	-0.006809	6
C	0.846886	0.011566	-0.015879	6
O	1.497486	1.021386	-0.270569	8
H	-0.989904	-1.039904	-0.197309	1
H	-1.039214	0.635086	-0.790539	1
H	-1.012424	0.304726	0.971251	1
H	1.345636	-0.915554	0.309851	1
Es	-0.873056	-0.709605	-0.132089	99
Es	1.251756	0.721102	0.057849	99
Es	1.178982	-0.631716	0.203729	99
Es	1.271994	0.581573	-0.419106	99
Es	1.497300	1.021132	-0.270501	99
Es	1.315659	1.264920	-0.349377	99
Es	0.091811	-0.012871	-0.019335	99
Es	-0.648418	-0.017324	-0.006796	99
Es	0.846868	0.011572	-0.015890	99
Es	-0.904700	0.418579	-0.526248	99
Es	-0.868843	0.195321	0.644521	99
Es	1.808051	0.976974	-0.243874	99
19
Properties=species:S:1:pos:R:3:Z:I:1 energy=-152.9565067370594 field_type=dipole dipole="0.000000 0.000000 0.000000" charge=0
C	-0.648464	-0.017304	-0.006809	6
C	0.846886	0.011566	-0.015879	6
O	1.497486	1.021386	-0.270569	8
H	-0.989904	-1.039904	-0.197309	1
H	-1.039214	0.635086	-0.790539	1
H	-1.012424	0.304726	0.971251	1
H	1.345636	-0.915554	0.309851	1
Es	-0.648418	-0.017323	-0.006795	99
Es	0.091560	-0.011798	-0.018432	99
Es	1.252643	0.721584	0.059713	99
Es	-0.866950	0.196224	0.641604	99
Es	1.316109	1.265929	-0.350632	99
Es	-0.903889	0.419247	-0.524778	99
Es	0.846867	0.011570	-0.015889	99
Es	1.178837	-0.631759	0.203655	99
Es	1.497288	1.021093	-0.270499	99
Es	1.273172	0.580398	-0.419492	99
Es	1.805421	0.977137	-0.244077	99
Es	-0.875239	-0.712644	-0.131496	99
19
Properties=species:S:1:pos:R:3:Z:I:1 energy=-152.9565067370594 field_type=dipole dipole="0.000000 0.000000 0.000000" charge=0
C	-0.648464	-0.017304	-0.006809	6
C	0.846886	0.011566	-0.015879	6
O	1.497486	1.021386	-0.270569	8
H	-0.989904	-1.039904	-0.197309	1
H	-1.039214	0.635086	-0.790539	1
H	-1.012424	0.304726	0.971251	1
H	1.345636	-0.915554	0.309851	1
Es	1.251568	0.722161	0.061011	99
Es	1.272103	0.581719	-0.419595	99
Es	1.322052	1.271496	-0.352733	99
Es	-0.877315	-0.714698	-0.130349	99
Es	0.091625	-0.010922	-0.017773	99
Es	1.178749	-0.631673	0.203652	99
Es	-0.648417	-0.017323	-0.006795	99
Es	1.497221	1.021125	-0.270509	99
Es	-0.865044	0.196689	0.638559	99
Es	1.801566	0.969907	-0.243375	99
Es	-0.903569	0.419605	-0.523326	99
Es	0.846866	0.011571	-0.015886	99
19
Properties=species:S:1:pos:R:3:Z:I:1 energy=-152.9565067370594 field_type=dipole dipole="0.000000 0.000000 0.000000" charge=0
C	-0.648464	-0.017304	-0.006809	6
C	0.846886	0.011566	-0.015879	6
O	1.497486	1.021386	-0.270569	8
H	-0.989904	-1.039904	-0.197309	1
H	-1.039214	0.635086	-0.790539	1
H	-1.012424	0.304726	0.971251	1
H	1.345636	-0.915554	0.309851	1
Es	0.091879	-0.010026	-0.017309	99
Es	1.497304	1.021125	-0.270499	99
Es	1.178628	-0.631597	0.203650	99
Es	-0.879257	-0.716108	-0.128773	99
Es	0.846865	0.011570	-0.015886	99
Es	1.250709	0.723080	0.062111	99
Es	1.272071	0.581704	-0.420115	99
Es	-0.903285	0.419442	-0.522063	99
Es	-0.863465	0.197138	0.635446	99
Es	1.327113	1.275703	-0.354884	99
Es	-0.648418	-0.017324	-0.006796	99
Es	1.797260	0.964952	-0.242001	99
19
Properties=species:S:1:pos:R:3:Z:I:1 energy=-152.9565067370594 field_type=dipole dipole="0.000000 0.000000 0.000000" charge=0
C	-0.648464	-0.017304	-0.006809	6
C	0.846886	0.011566	-0.015879	6
O	1.497486	1.021386	-0.270569	8
H	-0.989904	-1.039904	-0.197309	1
H	-1.039214	0.635086	-0.790539	1
H	-1.012424	0.304726	0.971251	1
H	1.345636	-0.915554	0.309851	1
Es	1.178761	-0.630944	0.203614	99
Es	-0.881419	-0.716425	-0.127183	99
Es	0.846865	0.011569	-0.015889	99
Es	1.497341	1.021040	-0.270478	99
Es	1.267819	0.586346	-0.421832	99
Es	1.367238	1.301259	-0.361259	99
Es	1.243740	0.725805	0.061134	99
Es	-0.648417	-0.017323	-0.006795	99
Es	-0.903740	0.418128	-0.519847	99
Es	-0.862694	0.197286	0.632206	99
Es	1.768579	0.931950	-0.233130	99
Es	0.093332	-0.009033	-0.017658	99
19
Properties=species:S:1:pos:R:3:Z:I:1 energy=-152.9565067370594 field_type=dipole dipole="0.000000 0.000000 0.000000" charge=0
C	-0.648464	-0.017304	-0.006809	6
C	0.846886	0.011566	-0.015879	6
O	1.497486	1.021386	-0.270569	8
H	-0.989904	-1.039904	-0.197309	1
H	-1.039214	0.635086	-0.790539	1
H	-1.012424	0.304726	0.971251	1
H	1.345636	-0.915554	0.309851	1
Es	1.178896	-0.630630	0.203519	99
Es	-0.648417	-0.017323	-0.006795	99
Es	-0.861995	0.196784	0.629143	99
Es	1.411717	1.316065	-0.364940	99
Es	1.734176	0.909484	-0.227264	99
Es	1.497175	1.021120	-0.270513	99
Es	1.264118	0.590074	-0.422007	99
Es	-0.904350	0.417542	-0.518299	99
Es	0.094648	-0.008229	-0.017522	99
Es	1.237782	0.729420	0.059083	99
Es	-0.883213	-0.716219	-0.125639	99
Es	0.846865	0.011571	-0.015885	99
19
Properties=species:S:1:pos:R:3:Z:I:1 energy=-152.9565067370594 field_type=dipole dipole="0.000000 0.000000 0.000000" charge=0
C	-0.648464	-0.017304	-0.006809	6
C	0.846886	0.011566	-0.015879	6
O	1.497486	1.021386	-0.270569	8
H	-0.989904	-1.039904	-0.197309	1
H	-1.039214	0.635086	-0.790539	1
H	-1.012424	0.304726	0.971251	1
H	1.345636	-0.915554	0.309851	1
Es	-0.648417	-0.017323	-0.006795	99
Es	1.292201	0.573392	-0.413525	99
Es	-0.880407	-0.718536	-0.123530	99
Es	-0.856926	0.193487	0.627907	99
Es	-0.904757	0.425431	-0.522599	99
Es	1.178193	-0.633432	0.203713	99
Es	1.802176	1.109426	-0.287309	99
Es	1.272862	0.713491	0.065675	99
Es	0.089649	-0.008773	-0.014121	99
Es	1.278542	1.149970	-0.320198	99
Es	1.497423	1.020955	-0.270450	99
Es	0.846864	0.011570	-0.015887	99
19
Properties=species:S:1:pos:R:3:Z:I:1 energy=-152.9565067370594 field_type=dipole dipole="0.000000 0.000000 0.000000" charge=0
C	-0.648464	-0.017304	-0.006809	6
C	0.846886	0.011566	-0.015879	6
O	1.497486	1.021386	-0.270569	8
H	-0.989904	-1.039904	-0.197309	1
H	-1.039214	0.635086	-0.790539	1
H	-1.012424	0.304726	0.971251	1
H	1.345636	-0.915554	0.309851	1
Es	1.497013	1.021162	-0.270532	99
Es	-0.648419	-0.017323	-0.006797	99
Es	0.095940	-0.006766	-0.017470	99
Es	-0.859940	0.195263	0.624427	99
Es	-0.885505	-0.716019	-0.122936	99
Es	1.456696	1.322383	-0.365540	99
Es	-0.905682	0.417528	-0.516111	99
Es	1.179110	-0.630605	0.203419	99
Es	1.696669	0.896814	-0.224890	99
Es	1.262923	0.595390	-0.421245	99
Es	1.231734	0.730262	0.056446	99
Es	0.846864	0.011570	-0.015888	99
19
Properties=species:S:1:pos:R:3:Z:I:1 energy=-152.9565067370594 field_type=dipole dipole="0.000000 0.000000 0.000000" charge=0
C	-0.648464	-0.017304	-0.006809	6
C	0.846886	0.011566	-0.015879	6
O	1.497486	1.021386	-0.270569	8
H	-0.989904	-1.039904	-0.197309	1
H	-1.039214	0.635086	-0.790539	1
H	-1.012424	0.304726	0.971251	1
H	1.345636	-0.915554	0.309851	1
Es	1.684611	0.894841	-0.224526	99
Es	0.096246	-0.006196	-0.017506	99
Es	-0.886342	-0.715963	-0.121603	99
Es	1.263220	0.596977	-0.420984	99
Es	1.497082	1.021131	-0.270518	99
Es	1.470435	1.322849	-0.365163	99
Es	0.846865	0.011570	-0.015886	99
Es	-0.858911	0.194591	0.622455	99
Es	1.179193	-0.630663	0.203376	99
Es	1.229677	0.730180	0.055421	99
Es	-0.648419	-0.017323	-0.006797	99
Es	-0.906253	0.417662	-0.515387	99
19
Properties=species:S:1:pos:R:3:Z:I:1 energy=-152.9565067370594 field_type=dipole dipole="0.000000 0.000000 0.000000" charge=0
C	-0.648464	-0.017304	-0.006809	6
C	0.846886	0.011566	-0.015879	6
O	1.497486	1.021386	-0.270569	8
H	-0.989904	-1.039904	-0.197309	1
H	-1.039214	0.635086	-0.790539	1
H	-1.012424	0.304726	0.971251	1
H	1.345636	-0.915554	0.309851	1
Es	1.497189	1.021126	-0.270510	99
Es	-0.906788	0.417894	-0.514831	99
Es	0.096438	-0.005797	-0.017553	99
Es	0.846865	0.011570	-0.015886	99
Es	1.264007	0.597869	-0.420410	99
Es	1.480899	1.322669	-0.365260	99
Es	1.179267	-0.630748	0.203253	99
Es	-0.648419	-0.017323	-0.006793	99
Es	-0.857913	0.193962	0.620769	99
Es	1.675490	0.893730	-0.223615	99
Es	1.227414	0.730587	0.054074	99
Es	-0.887044	-0.715881	-0.120355	99
19
Properties=species:S:1:pos:R:3:Z:I:1 energy=-152.9565067370594 field_type=dipole dipole="0.000000 0.000000 0.000000" charge=0
C	-0.648464	-0.017304	-0.006809	6
C	0.846886	0.011566	-0.015879	6
O	1.497486	1.021386	-0.270569	8
H	-0.989904	-1.039904	-0.197309	1
H	-1.039214	0.635086	-0.790539	1
H	-1.012424	0.304726	0.971251	1
H	1.345636	-0.915554	0.309851	1
Es	1.224967	0.729034	0.052551	99
Es	-0.857087	0.193321	0.619436	99
Es	-0.887651	-0.715763	-0.119546	99
Es	1.265866	0.599749	-0.419927	99
Es	1.489304	1.322488	-0.364437	99
Es	1.496934	1.021167	-0.270538	99
Es	0.096670	-0.005339	-0.017722	99
Es	1.179319	-0.630875	0.203253	99
Es	-0.907245	0.418092	-0.514094	99
Es	0.846865	0.011570	-0.015888	99
Es	1.667879	0.893537	-0.223410	99
Es	-0.648418	-0.017323	-0.006794	99
19
Properties=species:S:1:pos:R:3:Z:I:1 energy=-152.9565067370594 field_type=dipole dipole="0.000000 0.000000 0.000000" charge=0
C	-0.648464	-0.017304	-0.006809	6
C	0.846886	0.011566	-0.015879	6
O	1.497486	1.021386	-0.270569	8
H	-0.989904	-1.039904	-0.197309	1
H	-1.039214	0.635086	-0.790539	1
H	-1.012424	0.304726	0.971251	1
H	1.345636	-0.915554	0.309851	1
Es	0.096724	-0.004914	-0.017742	99
Es	1.223138	0.727030	0.051435	99
Es	-0.888140	-0.715771	-0.118993	99
Es	1.497185	1.021122	-0.270509	99
Es	1.267593	0.601748	-0.419207	99
Es	1.493903	1.322422	-0.363816	99
Es	1.179365	-0.630864	0.203139	99
Es	1.663122	0.893666	-0.223615	99
Es	-0.648418	-0.017322	-0.006793	99
Es	-0.856381	0.192712	0.618197	99
Es	0.846865	0.011570	-0.015885	99
Es	-0.907552	0.418260	-0.513328	99
19
Properties=species:S:1:pos:R:3:Z:I:1 energy=-152.9565067370594 field_type=dipole dipole="0.000000 0.000000 0.000000" charge=0
C	-0.648464	-0.017304	-0.006809	6
C	0.846886	0.011566	-0.015879	6
O	1.497486	1.021386	-0.270569	8
H	-0.989904	-1.039904	-0.197309	1
H	-1.039214	0.635086	-0.790539	1
H	-1.012424	0.304726	0.971251	1
H	1.345636	-0.915554	0.309851	1
Es	1.496875	1.021184	-0.270546	99
Es	0.096839	-0.004599	-0.017858	99
Es	1.221780	0.726465	0.050426	99
Es	1.179412	-0.630966	0.203015	99
Es	-0.888612	-0.715707	-0.118178	99
Es	-0.907762	0.418259	-0.512886	99
Es	-0.648418	-0.017323	-0.006794	99
Es	-0.855782	0.192371	0.617112	99
Es	1.498889	1.322025	-0.363561	99
Es	1.268361	0.602872	-0.418437	99
Es	0.846865	0.011570	-0.015890	99
Es	1.658956	0.893507	-0.223520	99
19
Properties=species:S:1:pos:R:3:Z:I:1 energy=-152.9565067370594 field_type=dipole dipole="0.000000 0.000000 0.000000" charge=0
C	-0.648464	-0.017304	-0.006809	6
C	0.846886	0.011566	-0.015879	6
O	1.497486	1.021386	-0.270569	8
H	-0.989904	-1.039904	-0.197309	1
H	-1.039214	0.635086	-0.790539	1
H	-1.012424	0.304726	0.971251	1
H	1.345636	-0.915554	0.309851	1
Es	-0.855275	0.191951	0.616194	99
Es	1.220103	0.725465	0.049183	99
Es	1.654434	0.893864	-0.223281	99
Es	-0.888896	-0.715675	-0.117594	99
Es	1.497053	1.021140	-0.270522	99
Es	1.179422	-0.631085	0.202903	99
Es	0.846866	0.011570	-0.015886	99
Es	1.503356	1.321654	-0.363384	99
Es	1.269918	0.603933	-0.417533	99
Es	-0.908053	0.418367	-0.512472	99
Es	0.096893	-0.004203	-0.017931	99
Es	-0.648418	-0.017323	-0.006795	99
19
Properties=species:S:1:pos:R:3:Z:I:1 energy=-152.9565067370594 field_type=dipole dipole="0.000000 0.000000 0.000000" charge=0
C	-0.648464	-0.017304	-0.006809	6
C	0.846886	0.011566	-0.015879	6
O	1.497486	1.021386	-0.270569	8
H	-0.989904	-1.039904	-0.197309	1
H	-1.039214	0.635086	-0.790539	1
H	-1.012424	0.304726	0.971251	1
H	1.345636	-0.915554	0.309851	1
Es	1.271636	0.605973	-0.416419	99
Es	1.506593	1.321593	-0.362439	99
Es	0.096922	-0.004250	-0.018103	99
Es	1.179519	-0.631042	0.202812	99
Es	-0.854762	0.191566	0.615593	99
Es	1.651107	0.894251	-0.223537	99
Es	0.846865	0.011570	-0.015887	99
Es	1.218490	0.723149	0.047462	99
Es	1.496972	1.021149	-0.270529	99
Es	-0.648419	-0.017322	-0.006791	99
Es	-0.908245	0.418597	-0.511964	99
Es	-0.889274	-0.715576	-0.117316	99
19
Properties=species:S:1:pos:R:3:Z:I:1 energy=-152.9565067370594 field_type=dipole dipole="0.000000 0.000000 0.000000" charge=0
C	-0.648464	-0.017304	-0.006809	6
C	0.846886	0.011566	-0.015879	6
O	1.497486	1.021386	-0.270569	8
H	-0.989904	-1.039904	-0.197309	1
H	-1.039214	0.635086	-0.790539	1
H	-1.012424	0.304726	0.971251	1
H	1.345636	-0.915554	0.309851	1
Es	1.648187	0.894391	-0.223636	99
Es	-0.854502	0.191267	0.615225	99
Es	1.179498	-0.631138	0.202788	99
Es	1.509684	1.321493	-0.361284	99
Es	0.096932	-0.003815	-0.018270	99
Es	0.846865	0.011570	-0.015886	99
Es	1.497015	1.021143	-0.270525	99
Es	-0.889275	-0.715638	-0.117185	99
Es	-0.908497	0.418624	-0.511550	99
Es	-0.648417	-0.017323	-0.006795	99
Es	1.216375	0.720638	0.045161	99
Es	1.273539	0.608447	-0.415162	99
19
Properties=species:S:1:pos:R:3:Z:I:1 energy=-152.9565067370594 field_type=dipole dipole="0.000000 0.000000 0.000000" charge=0
C	-0.648464	-0.017304	-0.006809	6
C	0.846886	0.011566	-0.015879	6
O	1.497486	1.021386	-0.270569	8
H	-0.989904	-1.039904	-0.197309	1
H	-1.039214	0.635086	-0.790539	1
H	-1.012424	0.304726	0.971251	1
H	1.345636	-0.915554	0.309851	1
Es	-0.913691	0.431584	-0.513355	99
Es	1.179041	-0.633473	0.203316	99
Es	1.277827	0.727356	0.058714	99
Es	1.497616	1.020608	-0.270339	99
Es	1.318093	1.056920	-0.299237	99
Es	-0.884753	-0.717537	-0.116485	99
Es	1.309560	0.557418	-0.394366	99
Es	0.846864	0.011571	-0.015880	99
Es	1.740341	1.203753	-0.321841	99
Es	0.093055	-0.006446	-0.013410	99
Es	-0.848134	0.185226	0.612560	99
Es	-0.648417	-0.017323	-0.006795	99
19
Properties=species:S:1:pos:R:3:Z:I:1 energy=-152.9565067370594 field_type=dipole dipole="0.000000 0.000000 0.000000" charge=0
C	-0.648464	-0.017304	-0.006809	6
C	0.846886	0.011566	-0.015879	6
O	1.497486	1.021386	-0.270569	8
H	-0.989904	-1.039904	-0.197309	1
H	-1.039214	0.635086	-0.790539	1
H	-1.012424	0.304726	0.971251	1
H	1.345636	-0.915554	0.309851	1
Es	0.096971	-0.003513	-0.018440	99
Es	1.515907	1.320758	-0.360787	99
Es	-0.889595	-0.715603	-0.116718	99
Es	0.846865	0.011570	-0.015886	99
Es	1.213618	0.718467	0.042036	99
Es	-0.908755	0.418862	-0.511063	99
Es	-0.648419	-0.017323	-0.006794	99
Es	1.642288	0.894938	-0.223397	99
Es	1.496923	1.021161	-0.270535	99
Es	1.179505	-0.631336	0.202613	99
Es	-0.853927	0.190828	0.614406	99
Es	1.276022	0.610848	-0.412552	99
19
Properties=species:S:1:pos:R:3:Z:I:1 energy=-152.9565067370594 field_type=dipole dipole="0.000000 0.000000 0.000000" charge=0
C	-0.648464	-0.017304	-0.006809	6
C	0.846886	0.011566	-0.015879	6
O	1.497486	1.021386	-0.270569	8
H	-0.989904	-1.039904	-0.197309	1
H	-1.039214	0.635086	-0.790539	1
H	-1.012424	0.304726	0.971251	1
H	1.345636	-0.915554	0.309851	1
Es	-0.909116	0.419125	-0.510428	99
Es	1.517834	1.320428	-0.360854	99
Es	-0.648418	-0.017323	-0.006793	99
Es	1.640136	0.895331	-0.223475	99
Es	-0.853374	0.190317	0.613774	99
Es	1.497056	1.021151	-0.270528	99
Es	1.276329	0.610871	-0.412283	99
Es	0.846865	0.011569	-0.015886	99
Es	0.096998	-0.003300	-0.018647	99
Es	1.179527	-0.631356	0.202544	99
Es	1.213375	0.718411	0.041929	99
Es	-0.889810	-0.715566	-0.116471	99
19
Properties=species:S:1:pos:R:3:Z:I:1 energy=-152.9565067370594 field_type=dipole dipole="0.000000 0.000000 0.000000" charge=0
C	-0.648464	-0.017304	-0.006809	6
C	0.846886	0.011566	-0.015879	6
O	1.497486	1.021386	-0.270569	8
H	-0.989904	-1.039904	-0.197309	1
H	-1.039214	0.635086	-0.790539	1
H	-1.012424	0.304726	0.971251	1
H	1.345636	-0.915554	0.309851	1
Es	1.496845	1.021102	-0.270519	99
Es	1.637340	0.895744	-0.223788	99
Es	-0.853026	0.189914	0.613382	99
Es	0.097012	-0.003188	-0.018603	99
Es	-0.648418	-0.017322	-0.006792	99
Es	-0.909447	0.419433	-0.510061	99
Es	0.846865	0.011570	-0.015888	99
Es	1.520923	1.320004	-0.360355	99
Es	1.276763	0.611643	-0.411646	99
Es	1.212783	0.717707	0.041079	99
Es	1.179615	-0.631392	0.202454	99
Es	-0.889852	-0.715557	-0.116381	99
