19
Properties=species:S:1:pos:R:3:Z:I:1 energy=-152.9565067370594 field_type=dipole dipole="0.000000 0.000000 0.000000" charge=0
C	-0.648464	-0.017304	-0.006809	6
C	0.846886	0.011566	-0.015879	6
O	1.497486	1.021386	-0.270569	8
H	-0.989904	-1.039904	-0.197309	1
H	-1.039214	0.635086	-0.790539	1
H	-1.012424	0.304726	0.971251	1
H	1.345636	-0.915554	0.309851	1
Es	1.497264	1.021081	-0.270494	99
Es	0.846868	0.011572	-0.015887	99
Es	-0.904679	0.418556	-0.526168	99
Es	1.273105	0.580641	-0.419271	99
Es	-0.868876	0.195315	0.644536	99
Es	1.807917	0.978970	-0.243535	99
Es	1.314595	1.263792	-0.349702	99
Es	1.178983	-0.631712	0.203739	99
Es	-0.648418	-0.017322	-0.006794	99
Es	0.091860	-0.012875	-0.019405	99
Es	1.251868	0.721235	0.058016	99
Es	-0.873084	-0.709595	-0.132154	99
19
Properties=species:S:1:pos:R:3:Z:I:1 energy=-152.9565067370594 field_type=dipole dipole="0.000000 0.000000 0.000000" charge=0
C	-0.648464	-0.017304	-0.006809	6
C	0.846886	0.011566	-0.015879	6
O	1.497486	1.021386	-0.270569	8
H	-0.989904	-1.039904	-0.197309	1
H	-1.039214	0.635086	-0.790539	1
H	-1.012424	0.304726	0.971251	1
H	1.345636	-0.915554	0.309851	1
Es	-0.904233	0.418945	-0.525455	99
Es	1.497302	1.021085	-0.270494	99
Es	1.252216	0.721114	0.058738	99
Es	1.806932	0.978453	-0.243868	99
Es	0.846867	0.011570	-0.015886	99
Es	1.273462	0.580671	-0.419134	99
Es	1.314733	1.264644	-0.350251	99
Es	-0.867875	0.195840	0.643133	99
Es	1.178962	-0.631707	0.203701	99
Es	0.091600	-0.012330	-0.018890	99
Es	-0.648418	-0.017324	-0.006797	99
Es	-0.874146	-0.711304	-0.131915	99
19
Properties=species:S:1:pos:R:3:Z:I:1 energy=-152.9565067370594 field_type=dipole dipole="0.000000 0.000000 0.000000" charge=0
C	-0.648464	-0.017304	-0.006809	6
C	0.846886	0.011566	-0.015879	6
O	1.497486	1.021386	-0.270569	8
H	-0.989904	-1.039904	-0.197309	1
H	-1.039214	0.635086	-0.790539	1
H	-1.012424	0.304726	0.971251	1
H	1.345636	-0.915554	0.309851	1
Es	1.316600	1.266319	-0.350951	99
Es	1.252150	0.721647	0.059579	99
Es	1.805741	0.976121	-0.244077	99
Es	0.091537	-0.011798	-0.018409	99
Es	-0.903875	0.419195	-0.524803	99
Es	1.272800	0.580951	-0.419106	99
Es	-0.648419	-0.017323	-0.006793	99
Es	0.846867	0.011570	-0.015889	99
Es	-0.866942	0.196296	0.641573	99
Es	1.178852	-0.631715	0.203700	99
Es	-0.875235	-0.712698	-0.131444	99
Es	1.497328	1.021092	-0.270496	99
19
Properties=species:S:1:pos:R:3:Z:I:1 energy=-152.9565067370594 field_type=dipole dipole="0.000000 0.000000 0.000000" charge=0
C	-0.648464	-0.017304	-0.006809	6
C	0.846886	0.011566	-0.015879	6
O	1.497486	1.021386	-0.270569	8
H	-0.989904	-1.039904	-0.197309	1
H	-1.039214	0.635086	-0.790539	1
H	-1.012424	0.304726	0.971251	1
H	1.345636	-0.915554	0.309851	1
Es	0.846866	0.011570	-0.015890	99
Es	-0.865884	0.196481	0.640045	99
Es	-0.903728	0.419508	-0.523991	99
Es	1.497304	1.021148	-0.270509	99
Es	1.272395	0.580747	-0.419606	99
Es	-0.648418	-0.017323	-0.006795	99
Es	1.251629	0.722661	0.060461	99
Es	0.091548	-0.011361	-0.018126	99
Es	1.178813	-0.631714	0.203653	99
Es	-0.876350	-0.713807	-0.130945	99
Es	1.802754	0.972158	-0.243048	99
Es	1.320474	1.269590	-0.352369	99
19
Properties=species:S:1:pos:R:3:Z:I:1 energy=-152.9565067370594 field_type=dipole dipole="0.000000 0.000000 0.000000" charge=0
C	-0.648464	-0.017304	-0.006809	6
C	0.846886	0.011566	-0.015879	6
O	1.497486	1.021386	-0.270569	8
H	-0.989904	-1.039904	-0.197309	1
H	-1.039214	0.635086	-0.790539	1
H	-1.012424	0.304726	0.971251	1
H	1.345636	-0.915554	0.309851	1
Es	1.497326	1.021112	-0.270503	99
Es	0.846866	0.011572	-0.015884	99
Es	1.252034	0.722042	0.061085	99
Es	0.091445	-0.010852	-0.017708	99
Es	-0.877168	-0.714788	-0.130397	99
Es	1.803322	0.973753	-0.244081	99
Es	1.319038	1.268394	-0.352091	99
Es	-0.648418	-0.017323	-0.006796	99
Es	-0.903520	0.419658	-0.523425	99
Es	1.272783	0.581114	-0.419591	99
Es	-0.865049	0.196691	0.638630	99
Es	1.178743	-0.631714	0.203644	99
19
Properties=species:S:1:pos:R:3:Z:I:1 energy=-152.9565067370594 field_type=dipole dipole="0.000000 0.000000 0.000000" charge=0
C	-0.648464	-0.017304	-0.006809	6
C	0.846886	0.011566	-0.015879	6
O	1.497486	1.021386	-0.270569	8
H	-0.989904	-1.039904	-0.197309	1
H	-1.039214	0.635086	-0.790539	1
H	-1.012424	0.304726	0.971251	1
H	1.345636	-0.915554	0.309851	1
Es	1.178700	-0.631640	0.203679	99
Es	-0.864200	0.196901	0.636982	99
Es	0.091700	-0.010466	-0.017461	99
Es	0.846865	0.011569	-0.015890	99
Es	-0.648418	-0.017323	-0.006794	99
Es	1.799748	0.968228	-0.242728	99
Es	1.497218	1.021112	-0.270505	99
Es	1.323862	1.273279	-0.353096	99
Es	1.250942	0.721453	0.061401	99
Es	1.272700	0.582420	-0.420408	99
Es	-0.878303	-0.715489	-0.129607	99
Es	-0.903412	0.419614	-0.522691	99
19
Properties=species:S:1:pos:R:3:Z:I:1 energy=-152.9565067370594 field_type=dipole dipole="0.000000 0.000000 0.000000" charge=0
C	-0.648464	-0.017304	-0.006809	6
C	0.846886	0.011566	-0.015879	6
O	1.497486	1.021386	-0.270569	8
H	-0.989904	-1.039904	-0.197309	1
H	-1.039214	0.635086	-0.790539	1
H	-1.012424	0.304726	0.971251	1
H	1.345636	-0.915554	0.309851	1
Es	0.846866	0.011571	-0.015885	99
Es	-0.863467	0.197098	0.635416	99
Es	1.793958	0.959198	-0.240751	99
Es	-0.903401	0.419390	-0.521972	99
Es	1.249876	0.723623	0.061913	99
Es	1.332595	1.280138	-0.355723	99
Es	1.178659	-0.631508	0.203617	99
Es	-0.648417	-0.017323	-0.006795	99
Es	0.091950	-0.010047	-0.017379	99
Es	1.270800	0.582463	-0.420319	99
Es	1.497296	1.021094	-0.270495	99
Es	-0.879311	-0.716038	-0.128745	99
19
Properties=species:S:1:pos:R:3:Z:I:1 energy=-152.9565067370594 field_type=dipole dipole="0.000000 0.000000 0.000000" charge=0
C	-0.648464	-0.017304	-0.006809	6
C	0.846886	0.011566	-0.015879	6
O	1.497486	1.021386	-0.270569	8
H	-0.989904	-1.039904	-0.197309	1
H	-1.039214	0.635086	-0.790539	1
H	-1.012424	0.304726	0.971251	1
H	1.345636	-0.915554	0.309851	1
Es	0.092359	-0.009700	-0.017302	99
Es	1.178689	-0.631304	0.203638	99
Es	1.342852	1.287471	-0.357535	99
Es	-0.880402	-0.716408	-0.127935	99
Es	-0.903308	0.418992	-0.521159	99
Es	1.497215	1.021104	-0.270506	99
Es	-0.648417	-0.017323	-0.006795	99
Es	1.269843	0.584318	-0.420992	99
Es	1.787052	0.949765	-0.238257	99
Es	-0.862921	0.197298	0.633811	99
Es	0.846865	0.011570	-0.015889	99
Es	1.247577	0.723875	0.061803	99
19
Properties=species:S:1:pos:R:3:Z:I:1 energy=-152.9565067370594 field_type=dipole dipole="0.000000 0.000000 0.000000" charge=0
C	-0.648464	-0.017304	-0.006809	6
C	0.846886	0.011566	-0.015879	6
O	1.497486	1.021386	-0.270569	8
H	-0.989904	-1.039904	-0.197309	1
H	-1.039214	0.635086	-0.790539	1
H	-1.012424	0.304726	0.971251	1
H	1.345636	-0.915554	0.309851	1
Es	-0.648418	-0.017324	-0.006796	99
Es	1.497330	1.021054	-0.270483	99
Es	1.366182	1.300320	-0.361683	99
Es	1.266877	0.585186	-0.421297	99
Es	-0.903684	0.418251	-0.519950	99
Es	-0.881488	-0.716470	-0.127071	99
Es	0.093232	-0.009098	-0.017521	99
Es	0.846866	0.011571	-0.015888	99
Es	-0.862575	0.197295	0.632104	99
Es	1.244522	0.727276	0.061284	99
Es	1.178758	-0.630968	0.203561	99
Es	1.769803	0.932565	-0.233378	99
19
Properties=species:S:1:pos:R:3:Z:I:1 energy=-152.9565067370594 field_type=dipole dipole="0.000000 0.000000 0.000000" charge=0
C	-0.648464	-0.017304	-0.006809	6
C	0.846886	0.011566	-0.015879	6
O	1.497486	1.021386	-0.270569	8
H	-0.989904	-1.039904	-0.197309	1
H	-1.039214	0.635086	-0.790539	1
H	-1.012424	0.304726	0.971251	1
H	1.345636	-0.915554	0.309851	1
Es	1.241652	0.728359	0.060586	99
Es	1.752903	0.919761	-0.230481	99
Es	-0.862379	0.197122	0.630561	99
Es	1.388208	1.309363	-0.363688	99
Es	1.497096	1.021146	-0.270522	99
Es	0.094043	-0.008514	-0.017621	99
Es	1.178833	-0.630756	0.203556	99
Es	-0.882407	-0.716401	-0.126432	99
Es	-0.648418	-0.017323	-0.006796	99
Es	-0.903975	0.417669	-0.518892	99
Es	1.264983	0.587659	-0.421511	99
Es	0.846865	0.011573	-0.015879	99
19
Properties=species:S:1:pos:R:3:Z:I:1 energy=-152.9565067370594 field_type=dipole dipole="0.000000 0.000000 0.000000" charge=0
C	-0.648464	-0.017304	-0.006809	6
C	0.846886	0.011566	-0.015879	6
O	1.497486	1.021386	-0.270569	8
H	-0.989904	-1.039904	-0.197309	1
H	-1.039214	0.635086	-0.790539	1
H	-1.012424	0.304726	0.971251	1
H	1.345636	-0.915554	0.309851	1
Es	0.094747	-0.008163	-0.017596	99
Es	1.178926	-0.630630	0.203486	99
Es	1.416532	1.316796	-0.365505	99
Es	-0.861996	0.196584	0.629172	99
Es	1.497099	1.021141	-0.270520	99
Es	-0.648417	-0.017323	-0.006795	99
Es	-0.904586	0.417620	-0.518195	99
Es	0.846865	0.011570	-0.015888	99
Es	1.262133	0.589921	-0.421370	99
Es	1.730925	0.907219	-0.227382	99
Es	-0.883123	-0.716148	-0.125711	99
Es	1.238297	0.731072	0.059186	99
19
Properties=species:S:1:pos:R:3:Z:I:1 energy=-152.9565067370594 field_type=dipole dipole="0.000000 0.000000 0.000000" charge=0
C	-0.648464	-0.017304	-0.006809	6
C	0.846886	0.011566	-0.015879	6
O	1.497486	1.021386	-0.270569	8
H	-0.989904	-1.039904	-0.197309	1
H	-1.039214	0.635086	-0.790539	1
H	-1.012424	0.304726	0.971251	1
H	1.345636	-0.915554	0.309851	1
Es	1.497117	1.021138	-0.270518	99
Es	-0.904796	0.417491	-0.517672	99
Es	1.428443	1.319247	-0.365253	99
Es	1.235830	0.730547	0.058120	99
Es	-0.648417	-0.017323	-0.006795	99
Es	1.720957	0.903410	-0.226071	99
Es	0.846865	0.011570	-0.015887	99
Es	-0.861566	0.196321	0.627804	99
Es	0.095128	-0.007749	-0.017396	99
Es	1.262646	0.591753	-0.422006	99
Es	-0.883777	-0.716167	-0.124962	99
Es	1.178973	-0.630581	0.203519	99
19
Properties=species:S:1:pos:R:3:Z:I:1 energy=-152.9565067370594 field_type=dipole dipole="0.000000 0.000000 0.000000" charge=0
C	-0.648464	-0.017304	-0.006809	6
C	0.846886	0.011566	-0.015879	6
O	1.497486	1.021386	-0.270569	8
H	-0.989904	-1.039904	-0.197309	1
H	-1.039214	0.635086	-0.790539	1
H	-1.012424	0.304726	0.971251	1
H	1.345636	-0.915554	0.309851	1
Es	-0.857006	0.193528	0.627778	99
Es	0.089607	-0.008731	-0.013975	99
Es	-0.880387	-0.718564	-0.123430	99
Es	1.292464	0.572768	-0.413172	99
Es	1.497387	1.020987	-0.270460	99
Es	-0.904668	0.425386	-0.522723	99
Es	1.272604	0.714219	0.065668	99
Es	1.178191	-0.633438	0.203706	99
Es	-0.648418	-0.017323	-0.006795	99
Es	1.278554	1.149951	-0.320752	99
Es	1.802211	1.109306	-0.287077	99
Es	0.846864	0.011569	-0.015887	99
19
Properties=species:S:1:pos:R:3:Z:I:1 energy=-152.9565067370594 field_type=dipole dipole="0.000000 0.000000 0.000000" charge=0
C	-0.648464	-0.017304	-0.006809	6
C	0.846886	0.011566	-0.015879	6
O	1.497486	1.021386	-0.270569	8
H	-0.989904	-1.039904	-0.197309	1
H	-1.039214	0.635086	-0.790539	1
H	-1.012424	0.304726	0.971251	1
H	1.345636	-0.915554	0.309851	1
Es	0.089774	-0.008531	-0.013695	99
Es	1.293625	0.571953	-0.412256	99
Es	1.497460	1.020911	-0.270436	99
Es	0.846865	0.011569	-0.015889	99
Es	1.178197	-0.633535	0.203676	99
Es	-0.905314	0.426151	-0.522246	99
Es	1.274275	0.714275	0.065508	99
Es	-0.648417	-0.017323	-0.006795	99
Es	1.280356	1.139054	-0.317461	99
Es	-0.880649	-0.718618	-0.122848	99
Es	1.797451	1.120999	-0.291241	99
Es	-0.856218	0.192754	0.626564	99
19
Properties=species:S:1:pos:R:3:Z:I:1 energy=-152.9565067370594 field_type=dipole dipole="0.000000 0.000000 0.000000" charge=0
C	-0.648464	-0.017304	-0.006809	6
C	0.846886	0.011566	-0.015879	6
O	1.497486	1.021386	-0.270569	8
H	-0.989904	-1.039904	-0.197309	1
H	-1.039214	0.635086	-0.790539	1
H	-1.012424	0.304726	0.971251	1
H	1.345636	-0.915554	0.309851	1
Es	-0.855626	0.192027	0.625453	99
Es	-0.880901	-0.718548	-0.122324	99
Es	1.283018	1.125996	-0.314087	99
Es	-0.906156	0.426696	-0.521709	99
Es	0.846865	0.011569	-0.015886	99
Es	1.497503	1.020845	-0.270414	99
Es	0.090134	-0.008338	-0.013543	99
Es	1.790625	1.135041	-0.295863	99
Es	1.296048	0.571159	-0.410966	99
Es	1.275948	0.714087	0.065415	99
Es	1.178363	-0.633554	0.203601	99
Es	-0.648418	-0.017323	-0.006794	99
19
Properties=species:S:1:pos:R:3:Z:I:1 energy=-152.9565067370594 field_type=dipole dipole="0.000000 0.000000 0.000000" charge=0
C	-0.648464	-0.017304	-0.006809	6
C	0.846886	0.011566	-0.015879	6
O	1.497486	1.021386	-0.270569	8
H	-0.989904	-1.039904	-0.197309	1
H	-1.039214	0.635086	-0.790539	1
H	-1.012424	0.304726	0.971251	1
H	1.345636	-0.915554	0.309851	1
Es	0.090368	-0.008083	-0.013384	99
Es	-0.906827	0.427203	-0.521156	99
Es	-0.855037	0.191364	0.624332	99
Es	0.846864	0.011570	-0.015885	99
Es	1.297873	0.569561	-0.409580	99
Es	1.178404	-0.633575	0.203596	99
Es	1.276778	0.715229	0.065146	99
Es	-0.881120	-0.718560	-0.121848	99
Es	1.285134	1.117691	-0.312482	99
Es	1.497497	1.020882	-0.270429	99
Es	1.785889	1.143699	-0.298634	99
Es	-0.648418	-0.017323	-0.006795	99
19
Properties=species:S:1:pos:R:3:Z:I:1 energy=-152.9565067370594 field_type=dipole dipole="0.000000 0.000000 0.000000" charge=0
C	-0.648464	-0.017304	-0.006809	6
C	0.846886	0.011566	-0.015879	6
O	1.497486	1.021386	-0.270569	8
H	-0.989904	-1.039904	-0.197309	1
H	-1.039214	0.635086	-0.790539	1
H	-1.012424	0.304726	0.971251	1
H	1.345636	-0.915554	0.309851	1
Es	-0.648417	-0.017322	-0.006795	99
Es	1.229391	0.730646	0.055314	99
Es	0.846865	0.011570	-0.015888	99
Es	1.263184	0.596820	-0.420927	99
Es	1.470994	1.322726	-0.365394	99
Es	-0.886304	-0.715969	-0.121558	99
Es	-0.858926	0.194611	0.622464	99
Es	-0.906264	0.417679	-0.515482	99
Es	1.497153	1.021131	-0.270512	99
Es	0.096214	-0.006233	-0.017462	99
Es	1.179222	-0.630667	0.203340	99
Es	1.684292	0.894668	-0.224219	99
19
Properties=species:S:1:pos:R:3:Z:I:1 energy=-152.9565067370594 field_type=dipole dipole="0.000000 0.000000 0.000000" charge=0
C	-0.648464	-0.017304	-0.006809	6
C	0.846886	0.011566	-0.015879	6
O	1.497486	1.021386	-0.270569	8
H	-0.989904	-1.039904	-0.197309	1
H	-1.039214	0.635086	-0.790539	1
H	-1.012424	0.304726	0.971251	1
H	1.345636	-0.915554	0.309851	1
Es	-0.881648	-0.718534	-0.120857	99
Es	1.289570	1.105028	-0.308917	99
Es	0.090757	-0.007687	-0.013141	99
Es	1.178507	-0.633625	0.203535	99
Es	-0.907906	0.427977	-0.520181	99
Es	0.846865	0.011571	-0.015882	99
Es	1.497305	1.021054	-0.270481	99
Es	-0.648418	-0.017323	-0.006795	99
Es	1.278702	0.716804	0.064264	99
Es	1.778096	1.156668	-0.303673	99
Es	-0.853924	0.190363	0.622387	99
Es	1.299496	0.567363	-0.407376	99
19
Properties=species:S:1:pos:R:3:Z:I:1 energy=-152.9565067370594 field_type=dipole dipole="0.000000 0.000000 0.000000" charge=0
C	-0.648464	-0.017304	-0.006809	6
C	0.846886	0.011566	-0.015879	6
O	1.497486	1.021386	-0.270569	8
H	-0.989904	-1.039904	-0.197309	1
H	-1.039214	0.635086	-0.790539	1
H	-1.012424	0.304726	0.971251	1
H	1.345636	-0.915554	0.309851	1
Es	-0.906613	0.417852	-0.514800	99
Es	1.179259	-0.630749	0.203300	99
Es	-0.858115	0.194002	0.620927	99
Es	1.480159	1.322945	-0.364415	99
Es	1.496935	1.021113	-0.270519	99
Es	0.846865	0.011569	-0.015889	99
Es	1.265457	0.599467	-0.420384	99
Es	0.096462	-0.005815	-0.017455	99
Es	-0.648419	-0.017323	-0.006793	99
Es	-0.887032	-0.715871	-0.120687	99
Es	1.226407	0.728408	0.053554	99
Es	1.676038	0.894061	-0.223956	99
19
Properties=species:S:1:pos:R:3:Z:I:1 energy=-152.9565067370594 field_type=dipole dipole="0.000000 0.000000 0.000000" charge=0
C	-0.648464	-0.017304	-0.006809	6
C	0.846886	0.011566	-0.015879	6
O	1.497486	1.021386	-0.270569	8
H	-0.989904	-1.039904	-0.197309	1
H	-1.039214	0.635086	-0.790539	1
H	-1.012424	0.304726	0.971251	1
H	1.345636	-0.915554	0.309851	1
Es	-0.648417	-0.017323	-0.006794	99
Es	1.497050	1.021155	-0.270529	99
Es	1.179300	-0.630761	0.203188	99
Es	1.482729	1.322739	-0.364816	99
Es	0.096519	-0.005522	-0.017712	99
Es	1.226389	0.728952	0.053725	99
Es	0.846865	0.011570	-0.015885	99
Es	-0.906812	0.417762	-0.514318	99
Es	-0.857558	0.193782	0.620080	99
Es	-0.887457	-0.715870	-0.119993	99
Es	1.673678	0.893782	-0.223975	99
Es	1.265119	0.599392	-0.420089	99
