27
Properties=species:S:1:pos:R:3:Z:I:1 energy=-172.11277363916975 field_type=dipole dipole="0.000000 0.000000 0.000000" charge=0
C	-1.239611	-0.008605	0.579296	6
N	0.213849	-0.079675	0.698436	7
C	0.850879	-0.748455	-0.430544	6
C	0.920349	0.749585	-0.271084	6
H	-1.624341	0.749155	1.269866	1
H	-1.681221	-0.969605	0.862736	1
H	-1.599181	0.242405	-0.426174	1
H	0.223419	-1.160965	-1.210554	1
H	1.735969	-1.326505	-0.194884	1
H	1.853749	1.181394	0.069916	1
H	0.346139	1.371275	-0.947014	1
Es	1.449631	-1.145093	-0.272756	99
Es	-0.415719	-0.043377	0.608046	99
Es	0.850792	-0.748275	-0.430396	99
Es	-1.500537	0.510814	1.045003	99
Es	0.431507	-0.500618	0.237522	99
Es	-1.475877	0.163683	-0.120741	99
Es	0.416073	-1.027542	-0.958085	99
Es	0.357684	-0.121718	1.026606	99
Es	0.213656	-0.079597	0.697788	99
Es	0.920244	0.749386	-0.270973	99
Es	1.552501	1.047370	-0.040536	99
Es	1.008808	0.013903	-0.536450	99
Es	0.521177	1.171027	-0.727310	99
Es	0.471028	0.408131	0.335358	99
Es	-1.538060	-0.664967	0.768575	99
Es	-1.239477	-0.008611	0.579299	99
27
Properties=species:S:1:pos:R:3:Z:I:1 energy=-172.11277363916975 field_type=dipole dipole="0.000000 0.000000 0.000000" charge=0
C	-1.239611	-0.008605	0.579296	6
N	0.213849	-0.079675	0.698436	7
C	0.850879	-0.748455	-0.430544	6
C	0.920349	0.749585	-0.271084	6
H	-1.624341	0.749155	1.269866	1
H	-1.681221	-0.969605	0.862736	1
H	-1.599181	0.242405	-0.426174	1
H	0.223419	-1.160965	-1.210554	1
H	1.735969	-1.326505	-0.194884	1
H	1.853749	1.181394	0.069916	1
H	0.346139	1.371275	-0.947014	1
Es	0.431579	-0.503668	0.237862	99
Es	0.920246	0.749388	-0.270974	99
Es	-1.500538	0.511881	1.045073	99
Es	-0.415606	-0.043480	0.609543	99
Es	1.448587	-1.145262	-0.272779	99
Es	0.355926	-0.121547	1.023284	99
Es	1.551382	1.047549	-0.040493	99
Es	0.471509	0.411148	0.336765	99
Es	-1.474872	0.163643	-0.119783	99
Es	0.850794	-0.748275	-0.430398	99
Es	-1.538275	-0.666167	0.768074	99
Es	1.010469	0.014053	-0.538772	99
Es	0.416466	-1.027771	-0.957263	99
Es	0.213677	-0.079600	0.697790	99
Es	-1.239480	-0.008611	0.579297	99
Es	0.521567	1.171235	-0.726276	99
27
Properties=species:S:1:pos:R:3:Z:I:1 energy=-172.11277363916975 field_type=dipole dipole="0.000000 0.000000 0.000000" charge=0
C	-1.239611	-0.008605	0.579296	6
N	0.213849	-0.079675	0.698436	7
C	0.850879	-0.748455	-0.430544	6
C	0.920349	0.749585	-0.271084	6
H	-1.624341	0.749155	1.269866	1
H	-1.681221	-0.969605	0.862736	1
H	-1.599181	0.242405	-0.426174	1
H	0.223419	-1.160965	-1.210554	1
H	1.735969	-1.326505	-0.194884	1
H	1.853749	1.181394	0.069916	1
H	0.346139	1.371275	-0.947014	1
Es	-1.500490	0.512744	1.045163	99
Es	0.471828	0.413505	0.337834	99
Es	0.521849	1.171267	-0.725687	99
Es	-1.239479	-0.008614	0.579299	99
Es	0.920246	0.749389	-0.270974	99
Es	1.011692	0.014153	-0.540416	99
Es	0.213672	-0.079599	0.697797	99
Es	0.354481	-0.121317	1.020878	99
Es	0.431466	-0.506150	0.238486	99
Es	-0.415264	-0.043491	0.610465	99
Es	-1.474214	0.163419	-0.119184	99
Es	-1.538232	-0.666912	0.767815	99
Es	0.850788	-0.748277	-0.430390	99
Es	1.550582	1.047602	-0.040639	99
Es	0.416754	-1.027946	-0.956554	99
Es	1.447753	-1.145256	-0.272945	99
27
Properties=species:S:1:pos:R:3:Z:I:1 energy=-172.11277363916975 field_type=dipole dipole="0.000000 0.000000 0.000000" charge=0
C	-1.239611	-0.008605	0.579296	6
N	0.213849	-0.079675	0.698436	7
C	0.850879	-0.748455	-0.430544	6
C	0.920349	0.749585	-0.271084	6
H	-1.624341	0.749155	1.269866	1
H	-1.681221	-0.969605	0.862736	1
H	-1.599181	0.242405	-0.426174	1
H	0.223419	-1.160965	-1.210554	1
H	1.735969	-1.326505	-0.194884	1
H	1.853749	1.181394	0.069916	1
H	0.346139	1.371275	-0.947014	1
Es	0.417092	-1.028102	-0.956102	99
Es	-1.500339	0.513442	1.045154	99
Es	-0.414987	-0.043722	0.611057	99
Es	1.012658	0.014192	-0.541781	99
Es	1.549899	1.047573	-0.040698	99
Es	0.353726	-0.121163	1.019506	99
Es	-1.538247	-0.667577	0.767633	99
Es	0.850791	-0.748274	-0.430394	99
Es	0.920246	0.749387	-0.270976	99
Es	0.431222	-0.507651	0.238831	99
Es	0.213641	-0.079597	0.697783	99
Es	0.522119	1.171349	-0.725180	99
Es	-1.239480	-0.008610	0.579297	99
Es	-1.473638	0.163303	-0.118658	99
Es	1.447118	-1.145118	-0.273017	99
Es	0.471611	0.415083	0.338494	99
27
Properties=species:S:1:pos:R:3:Z:I:1 energy=-172.11277363916975 field_type=dipole dipole="0.000000 0.000000 0.000000" charge=0
C	-1.239611	-0.008605	0.579296	6
N	0.213849	-0.079675	0.698436	7
C	0.850879	-0.748455	-0.430544	6
C	0.920349	0.749585	-0.271084	6
H	-1.624341	0.749155	1.269866	1
H	-1.681221	-0.969605	0.862736	1
H	-1.599181	0.242405	-0.426174	1
H	0.223419	-1.160965	-1.210554	1
H	1.735969	-1.326505	-0.194884	1
H	1.853749	1.181394	0.069916	1
H	0.346139	1.371275	-0.947014	1
Es	1.549408	1.047546	-0.040808	99
Es	-1.538179	-0.668034	0.767552	99
Es	0.430999	-0.509264	0.239171	99
Es	-1.239485	-0.008610	0.579297	99
Es	0.850795	-0.748278	-0.430396	99
Es	-1.500277	0.513922	1.045098	99
Es	1.013444	0.014405	-0.542717	99
Es	0.522376	1.171292	-0.724912	99
Es	0.353334	-0.120692	1.017617	99
Es	1.446561	-1.145088	-0.273079	99
Es	0.471268	0.416311	0.339010	99
Es	-0.414865	-0.043784	0.612323	99
Es	0.920245	0.749388	-0.270972	99
Es	0.213669	-0.079602	0.697826	99
Es	0.417324	-1.028159	-0.955714	99
Es	-1.473188	0.163163	-0.118348	99
27
Properties=species:S:1:pos:R:3:Z:I:1 energy=-172.11277363916975 field_type=dipole dipole="0.000000 0.000000 0.000000" charge=0
C	-1.239611	-0.008605	0.579296	6
N	0.213849	-0.079675	0.698436	7
C	0.850879	-0.748455	-0.430544	6
C	0.920349	0.749585	-0.271084	6
H	-1.624341	0.749155	1.269866	1
H	-1.681221	-0.969605	0.862736	1
H	-1.599181	0.242405	-0.426174	1
H	0.223419	-1.160965	-1.210554	1
H	1.735969	-1.326505	-0.194884	1
H	1.853749	1.181394	0.069916	1
H	0.346139	1.371275	-0.947014	1
Es	0.417524	-1.028215	-0.955307	99
Es	-1.538077	-0.668433	0.767359	99
Es	-1.500188	0.514365	1.045178	99
Es	-0.414633	-0.043594	0.612492	99
Es	1.014242	0.014560	-0.543876	99
Es	1.446124	-1.145030	-0.273169	99
Es	-1.239481	-0.008610	0.579298	99
Es	0.471440	0.416932	0.339299	99
Es	0.522565	1.171317	-0.724534	99
Es	0.850791	-0.748276	-0.430392	99
Es	1.548881	1.047540	-0.040824	99
Es	0.352632	-0.120571	1.016795	99
Es	-1.472817	0.163066	-0.117993	99
Es	0.920241	0.749388	-0.270975	99
Es	0.430511	-0.510324	0.239801	99
Es	0.213676	-0.079599	0.697795	99
27
Properties=species:S:1:pos:R:3:Z:I:1 energy=-172.11277363916975 field_type=dipole dipole="0.000000 0.000000 0.000000" charge=0
C	-1.239611	-0.008605	0.579296	6
N	0.213849	-0.079675	0.698436	7
C	0.850879	-0.748455	-0.430544	6
C	0.920349	0.749585	-0.271084	6
H	-1.624341	0.749155	1.269866	1
H	-1.681221	-0.969605	0.862736	1
H	-1.599181	0.242405	-0.426174	1
H	0.223419	-1.160965	-1.210554	1
H	1.735969	-1.326505	-0.194884	1
H	1.853749	1.181394	0.069916	1
H	0.346139	1.371275	-0.947014	1
Es	0.430393	-0.511173	0.239895	99
Es	0.522749	1.171260	-0.724308	99
Es	-0.414454	-0.043901	0.613181	99
Es	0.850793	-0.748282	-0.430391	99
Es	-1.239482	-0.008610	0.579298	99
Es	0.417759	-1.028259	-0.955018	99
Es	0.352356	-0.120478	1.015742	99
Es	0.213658	-0.079595	0.697763	99
Es	0.920243	0.749386	-0.270972	99
Es	-1.500085	0.514665	1.045204	99
Es	0.470981	0.418064	0.339973	99
Es	1.014859	0.014552	-0.544639	99
Es	-1.472476	0.163037	-0.117803	99
Es	-1.538017	-0.668737	0.767248	99
Es	1.445692	-1.144902	-0.273245	99
Es	1.548462	1.047488	-0.040979	99
27
Properties=species:S:1:pos:R:3:Z:I:1 energy=-172.11277363916975 field_type=dipole dipole="0.000000 0.000000 0.000000" charge=0
C	-1.239611	-0.008605	0.579296	6
N	0.213849	-0.079675	0.698436	7
C	0.850879	-0.748455	-0.430544	6
C	0.920349	0.749585	-0.271084	6
H	-1.624341	0.749155	1.269866	1
H	-1.681221	-0.969605	0.862736	1
H	-1.599181	0.242405	-0.426174	1
H	0.223419	-1.160965	-1.210554	1
H	1.735969	-1.326505	-0.194884	1
H	1.853749	1.181394	0.069916	1
H	0.346139	1.371275	-0.947014	1
Es	0.470935	0.418661	0.340262	99
Es	1.548091	1.047370	-0.041047	99
Es	0.430057	-0.511893	0.240111	99
Es	1.445295	-1.144799	-0.273330	99
Es	-1.499991	0.514987	1.045216	99
Es	0.352256	-0.120426	1.014728	99
Es	0.850790	-0.748275	-0.430390	99
Es	-1.472131	0.162975	-0.117590	99
Es	-1.537903	-0.669067	0.767144	99
Es	0.920240	0.749382	-0.270969	99
Es	1.015411	0.014638	-0.545305	99
Es	0.522910	1.171314	-0.724109	99
Es	0.417906	-1.028307	-0.954755	99
Es	-1.239482	-0.008610	0.579299	99
Es	0.213668	-0.079601	0.697809	99
Es	-0.414621	-0.043835	0.613876	99
27
Properties=species:S:1:pos:R:3:Z:I:1 energy=-172.11277363916975 field_type=dipole dipole="0.000000 0.000000 0.000000" charge=0
C	-1.239611	-0.008605	0.579296	6
N	0.213849	-0.079675	0.698436	7
C	0.850879	-0.748455	-0.430544	6
C	0.920349	0.749585	-0.271084	6
H	-1.624341	0.749155	1.269866	1
H	-1.681221	-0.969605	0.862736	1
H	-1.599181	0.242405	-0.426174	1
H	0.223419	-1.160965	-1.210554	1
H	1.735969	-1.326505	-0.194884	1
H	1.853749	1.181394	0.069916	1
H	0.346139	1.371275	-0.947014	1
Es	0.213650	-0.079593	0.697741	99
Es	1.444999	-1.144732	-0.273396	99
Es	-0.414759	-0.044019	0.614394	99
Es	1.015877	0.014700	-0.545960	99
Es	-1.499852	0.515258	1.045208	99
Es	0.352070	-0.120442	1.013897	99
Es	-1.537867	-0.669297	0.767092	99
Es	0.418060	-1.028320	-0.954496	99
Es	0.429925	-0.512412	0.240313	99
Es	-1.239479	-0.008611	0.579298	99
Es	0.920249	0.749392	-0.270977	99
Es	1.547714	1.047279	-0.041123	99
Es	-1.471833	0.162942	-0.117462	99
Es	0.523089	1.171303	-0.723909	99
Es	0.850788	-0.748277	-0.430393	99
Es	0.470801	0.419344	0.340722	99
27
Properties=species:S:1:pos:R:3:Z:I:1 energy=-172.11277363916975 field_type=dipole dipole="0.000000 0.000000 0.000000" charge=0
C	-1.239611	-0.008605	0.579296	6
N	0.213849	-0.079675	0.698436	7
C	0.850879	-0.748455	-0.430544	6
C	0.920349	0.749585	-0.271084	6
H	-1.624341	0.749155	1.269866	1
H	-1.681221	-0.969605	0.862736	1
H	-1.599181	0.242405	-0.426174	1
H	0.223419	-1.160965	-1.210554	1
H	1.735969	-1.326505	-0.194884	1
H	1.853749	1.181394	0.069916	1
H	0.346139	1.371275	-0.947014	1
Es	0.470593	0.419735	0.340822	99
Es	1.444663	-1.144535	-0.273399	99
Es	-1.239480	-0.008609	0.579298	99
Es	-1.537752	-0.669486	0.766982	99
Es	0.213649	-0.079596	0.697771	99
Es	0.920242	0.749388	-0.270974	99
Es	-0.414621	-0.044020	0.614873	99
Es	0.850797	-0.748273	-0.430392	99
Es	0.418239	-1.028423	-0.954386	99
Es	0.351826	-0.120072	1.013095	99
Es	-1.471581	0.162887	-0.117346	99
Es	1.016296	0.014773	-0.546533	99
Es	1.547453	1.047118	-0.041143	99
Es	0.523246	1.171422	-0.723706	99
Es	0.429722	-0.513235	0.240755	99
Es	-1.499862	0.515442	1.045232	99
27
Properties=species:S:1:pos:R:3:Z:I:1 energy=-172.11277363916975 field_type=dipole dipole="0.000000 0.000000 0.000000" charge=0
C	-1.239611	-0.008605	0.579296	6
N	0.213849	-0.079675	0.698436	7
C	0.850879	-0.748455	-0.430544	6
C	0.920349	0.749585	-0.271084	6
H	-1.624341	0.749155	1.269866	1
H	-1.681221	-0.969605	0.862736	1
H	-1.599181	0.242405	-0.426174	1
H	0.223419	-1.160965	-1.210554	1
H	1.735969	-1.326505	-0.194884	1
H	1.853749	1.181394	0.069916	1
H	0.346139	1.371275	-0.947014	1
Es	-1.537631	-0.669623	0.767045	99
Es	-1.471385	0.162781	-0.117314	99
Es	0.418405	-1.028438	-0.954211	99
Es	0.523402	1.171442	-0.723538	99
Es	-1.499759	0.515661	1.045209	99
Es	0.850791	-0.748276	-0.430394	99
Es	1.547149	1.047043	-0.041148	99
Es	-1.239482	-0.008610	0.579298	99
Es	0.470347	0.420264	0.340985	99
Es	1.444472	-1.144469	-0.273398	99
Es	-0.414729	-0.044172	0.615720	99
Es	0.429324	-0.513585	0.240745	99
Es	1.016623	0.014873	-0.547049	99
Es	0.920245	0.749386	-0.270972	99
Es	0.352005	-0.120163	1.012173	99
Es	0.213654	-0.079598	0.697797	99
27
Properties=species:S:1:pos:R:3:Z:I:1 energy=-172.11277363916975 field_type=dipole dipole="0.000000 0.000000 0.000000" charge=0
C	-1.239611	-0.008605	0.579296	6
N	0.213849	-0.079675	0.698436	7
C	0.850879	-0.748455	-0.430544	6
C	0.920349	0.749585	-0.271084	6
H	-1.624341	0.749155	1.269866	1
H	-1.681221	-0.969605	0.862736	1
H	-1.599181	0.242405	-0.426174	1
H	0.223419	-1.160965	-1.210554	1
H	1.735969	-1.326505	-0.194884	1
H	1.853749	1.181394	0.069916	1
H	0.346139	1.371275	-0.947014	1
Es	0.470395	0.420645	0.341431	99
Es	-1.471245	0.162899	-0.117197	99
Es	1.016934	0.014933	-0.547386	99
Es	0.523462	1.171492	-0.723483	99
Es	0.429058	-0.514067	0.240805	99
Es	-1.537554	-0.669822	0.766913	99
Es	0.920241	0.749386	-0.270970	99
Es	-1.499582	0.515739	1.045347	99
Es	0.213647	-0.079597	0.697789	99
Es	-1.239482	-0.008610	0.579298	99
Es	1.546928	1.046916	-0.041258	99
Es	0.418475	-1.028488	-0.954050	99
Es	0.352054	-0.120227	1.011167	99
Es	-0.414915	-0.044104	0.616468	99
Es	0.850791	-0.748273	-0.430391	99
Es	1.444223	-1.144304	-0.273534	99
27
Properties=species:S:1:pos:R:3:Z:I:1 energy=-172.11277363916975 field_type=dipole dipole="0.000000 0.000000 0.000000" charge=0
C	-1.239611	-0.008605	0.579296	6
N	0.213849	-0.079675	0.698436	7
C	0.850879	-0.748455	-0.430544	6
C	0.920349	0.749585	-0.271084	6
H	-1.624341	0.749155	1.269866	1
H	-1.681221	-0.969605	0.862736	1
H	-1.599181	0.242405	-0.426174	1
H	0.223419	-1.160965	-1.210554	1
H	1.735969	-1.326505	-0.194884	1
H	1.853749	1.181394	0.069916	1
H	0.346139	1.371275	-0.947014	1
Es	0.428871	-0.514202	0.240706	99
Es	1.444005	-1.144241	-0.273491	99
Es	0.523574	1.171604	-0.723330	99
Es	0.352292	-0.120196	1.010361	99
Es	-1.470882	0.162834	-0.117192	99
Es	-1.239488	-0.008610	0.579296	99
Es	0.470080	0.420922	0.341566	99
Es	0.920242	0.749390	-0.270970	99
Es	-1.537519	-0.669956	0.766879	99
Es	1.546661	1.046781	-0.041249	99
Es	0.418604	-1.028523	-0.953959	99
Es	0.850786	-0.748273	-0.430392	99
Es	0.213682	-0.079599	0.697817	99
Es	-1.499582	0.515929	1.045274	99
Es	1.017281	0.014963	-0.547812	99
Es	-0.415176	-0.044308	0.617444	99
27
Properties=species:S:1:pos:R:3:Z:I:1 energy=-172.11277363916975 field_type=dipole dipole="0.000000 0.000000 0.000000" charge=0
C	-1.239611	-0.008605	0.579296	6
N	0.213849	-0.079675	0.698436	7
C	0.850879	-0.748455	-0.430544	6
C	0.920349	0.749585	-0.271084	6
H	-1.624341	0.749155	1.269866	1
H	-1.681221	-0.969605	0.862736	1
H	-1.599181	0.242405	-0.426174	1
H	0.223419	-1.160965	-1.210554	1
H	1.735969	-1.326505	-0.194884	1
H	1.853749	1.181394	0.069916	1
H	0.346139	1.371275	-0.947014	1
Es	0.920240	0.749386	-0.270972	99
Es	-1.499537	0.516074	1.045330	99
Es	-0.415167	-0.044297	0.617481	99
Es	0.470095	0.421304	0.341534	99
Es	-1.239486	-0.008610	0.579297	99
Es	-1.537383	-0.670091	0.766807	99
Es	1.017528	0.014896	-0.548186	99
Es	0.523671	1.171582	-0.723225	99
Es	1.546483	1.046693	-0.041365	99
Es	0.213650	-0.079597	0.697782	99
Es	1.443774	-1.144152	-0.273564	99
Es	0.352071	-0.119906	1.010014	99
Es	0.418678	-1.028537	-0.953788	99
Es	-1.470766	0.162783	-0.117069	99
Es	0.850790	-0.748273	-0.430391	99
Es	0.428790	-0.514740	0.241264	99
27
Properties=species:S:1:pos:R:3:Z:I:1 energy=-172.11277363916975 field_type=dipole dipole="0.000000 0.000000 0.000000" charge=0
C	-1.239611	-0.008605	0.579296	6
N	0.213849	-0.079675	0.698436	7
C	0.850879	-0.748455	-0.430544	6
C	0.920349	0.749585	-0.271084	6
H	-1.624341	0.749155	1.269866	1
H	-1.681221	-0.969605	0.862736	1
H	-1.599181	0.242405	-0.426174	1
H	0.223419	-1.160965	-1.210554	1
H	1.735969	-1.326505	-0.194884	1
H	1.853749	1.181394	0.069916	1
H	0.346139	1.371275	-0.947014	1
Es	0.523790	1.171551	-0.723172	99
Es	0.920239	0.749390	-0.270971	99
Es	1.443620	-1.144028	-0.273585	99
Es	-1.537342	-0.670212	0.766840	99
Es	0.352360	-0.119710	1.009021	99
Es	0.213631	-0.079587	0.697717	99
Es	-1.499468	0.516138	1.045281	99
Es	-1.239481	-0.008611	0.579297	99
Es	-0.415298	-0.044372	0.618676	99
Es	0.469771	0.421653	0.341593	99
Es	1.546308	1.046632	-0.041406	99
Es	0.850786	-0.748275	-0.430393	99
Es	0.428604	-0.515148	0.241280	99
Es	0.418735	-1.028619	-0.953706	99
Es	1.017736	0.014904	-0.548388	99
Es	-1.470559	0.162812	-0.117135	99
27
Properties=species:S:1:pos:R:3:Z:I:1 energy=-172.11277363916975 field_type=dipole dipole="0.000000 0.000000 0.000000" charge=0
C	-1.239611	-0.008605	0.579296	6
N	0.213849	-0.079675	0.698436	7
C	0.850879	-0.748455	-0.430544	6
C	0.920349	0.749585	-0.271084	6
H	-1.624341	0.749155	1.269866	1
H	-1.681221	-0.969605	0.862736	1
H	-1.599181	0.242405	-0.426174	1
H	0.223419	-1.160965	-1.210554	1
H	1.735969	-1.326505	-0.194884	1
H	1.853749	1.181394	0.069916	1
H	0.346139	1.371275	-0.947014	1
Es	0.418841	-1.028582	-0.953674	99
Es	-0.415529	-0.044531	0.619178	99
Es	-1.239481	-0.008611	0.579298	99
Es	-1.470432	0.162775	-0.117156	99
Es	0.428437	-0.515375	0.241317	99
Es	0.352386	-0.119750	1.008334	99
Es	0.469736	0.421837	0.341799	99
Es	0.523816	1.171562	-0.723104	99
Es	0.213647	-0.079590	0.697727	99
Es	-1.499303	0.516276	1.045330	99
Es	0.920244	0.749391	-0.270974	99
Es	1.018091	0.014980	-0.548612	99
Es	1.443391	-1.143979	-0.273594	99
Es	1.546117	1.046616	-0.041400	99
Es	0.850789	-0.748274	-0.430392	99
Es	-1.537319	-0.670228	0.766873	99
27
Properties=species:S:1:pos:R:3:Z:I:1 energy=-172.11277363916975 field_type=dipole dipole="0.000000 0.000000 0.000000" charge=0
C	-1.239611	-0.008605	0.579296	6
N	0.213849	-0.079675	0.698436	7
C	0.850879	-0.748455	-0.430544	6
C	0.920349	0.749585	-0.271084	6
H	-1.624341	0.749155	1.269866	1
H	-1.681221	-0.969605	0.862736	1
H	-1.599181	0.242405	-0.426174	1
H	0.223419	-1.160965	-1.210554	1
H	1.735969	-1.326505	-0.194884	1
H	1.853749	1.181394	0.069916	1
H	0.346139	1.371275	-0.947014	1
Es	1.545970	1.046494	-0.041448	99
Es	0.469647	0.421879	0.341774	99
Es	-1.470226	0.162796	-0.117060	99
Es	-1.537191	-0.670417	0.766762	99
Es	0.213653	-0.079592	0.697739	99
Es	0.352343	-0.119567	1.008058	99
Es	0.418936	-1.028715	-0.953569	99
Es	-0.415769	-0.044504	0.619370	99
Es	-1.239480	-0.008611	0.579297	99
Es	0.850786	-0.748271	-0.430392	99
Es	1.443302	-1.143827	-0.273575	99
Es	0.428400	-0.515618	0.241577	99
Es	-1.499306	0.516357	1.045350	99
Es	0.920246	0.749388	-0.270972	99
Es	0.523923	1.171619	-0.722945	99
Es	1.018197	0.015103	-0.549017	99
27
Properties=species:S:1:pos:R:3:Z:I:1 energy=-172.11277363916975 field_type=dipole dipole="0.000000 0.000000 0.000000" charge=0
C	-1.239611	-0.008605	0.579296	6
N	0.213849	-0.079675	0.698436	7
C	0.850879	-0.748455	-0.430544	6
C	0.920349	0.749585	-0.271084	6
H	-1.624341	0.749155	1.269866	1
H	-1.681221	-0.969605	0.862736	1
H	-1.599181	0.242405	-0.426174	1
H	0.223419	-1.160965	-1.210554	1
H	1.735969	-1.326505	-0.194884	1
H	1.853749	1.181394	0.069916	1
H	0.346139	1.371275	-0.947014	1
Es	0.524012	1.171623	-0.722925	99
Es	-1.239484	-0.008610	0.579297	99
Es	0.418993	-1.028665	-0.953462	99
Es	0.469483	0.422021	0.341917	99
Es	-1.470156	0.162752	-0.117063	99
Es	0.850786	-0.748278	-0.430392	99
Es	1.018495	0.015149	-0.549275	99
Es	0.213682	-0.079605	0.697854	99
Es	0.920243	0.749386	-0.270973	99
Es	0.428351	-0.515928	0.241713	99
Es	-1.537135	-0.670449	0.766829	99
Es	-1.499175	0.516455	1.045367	99
Es	0.352237	-0.119392	1.007433	99
Es	1.443117	-1.143844	-0.273583	99
Es	-0.415830	-0.044546	0.619644	99
Es	1.545812	1.046448	-0.041433	99
27
Properties=species:S:1:pos:R:3:Z:I:1 energy=-172.11277363916975 field_type=dipole dipole="0.000000 0.000000 0.000000" charge=0
C	-1.239611	-0.008605	0.579296	6
N	0.213849	-0.079675	0.698436	7
C	0.850879	-0.748455	-0.430544	6
C	0.920349	0.749585	-0.271084	6
H	-1.624341	0.749155	1.269866	1
H	-1.681221	-0.969605	0.862736	1
H	-1.599181	0.242405	-0.426174	1
H	0.223419	-1.160965	-1.210554	1
H	1.735969	-1.326505	-0.194884	1
H	1.853749	1.181394	0.069916	1
H	0.346139	1.371275	-0.947014	1
Es	-1.239482	-0.008610	0.579298	99
Es	0.428149	-0.515952	0.241641	99
Es	1.443074	-1.143713	-0.273613	99
Es	0.352373	-0.119580	1.006819	99
Es	0.469474	0.422365	0.342184	99
Es	0.850793	-0.748276	-0.430392	99
Es	-1.499215	0.516506	1.045329	99
Es	1.545708	1.046335	-0.041474	99
Es	0.419043	-1.028741	-0.953440	99
Es	-1.469862	0.162787	-0.117066	99
Es	-1.537097	-0.670581	0.766744	99
Es	0.213659	-0.079595	0.697779	99
Es	1.018516	0.015076	-0.549412	99
Es	0.920235	0.749387	-0.270974	99
Es	0.524085	1.171688	-0.722888	99
Es	-0.416022	-0.044579	0.620414	99
27
Properties=species:S:1:pos:R:3:Z:I:1 energy=-172.11277363916975 field_type=dipole dipole="0.000000 0.000000 0.000000" charge=0
C	-1.239611	-0.008605	0.579296	6
N	0.213849	-0.079675	0.698436	7
C	0.850879	-0.748455	-0.430544	6
C	0.920349	0.749585	-0.271084	6
H	-1.624341	0.749155	1.269866	1
H	-1.681221	-0.969605	0.862736	1
H	-1.599181	0.242405	-0.426174	1
H	0.223419	-1.160965	-1.210554	1
H	1.735969	-1.326505	-0.194884	1
H	1.853749	1.181394	0.069916	1
H	0.346139	1.371275	-0.947014	1
Es	-1.239483	-0.008610	0.579298	99
Es	1.018716	0.015090	-0.549634	99
Es	0.469317	0.422445	0.342140	99
Es	1.545579	1.046276	-0.041491	99
Es	0.920241	0.749390	-0.270970	99
Es	0.524082	1.171750	-0.722861	99
Es	0.850790	-0.748275	-0.430393	99
Es	-1.499197	0.516589	1.045353	99
Es	-1.469696	0.162756	-0.117068	99
Es	0.352684	-0.119528	1.006164	99
Es	0.419108	-1.028903	-0.953368	99
Es	-1.537033	-0.670625	0.766708	99
Es	1.442920	-1.143559	-0.273555	99
Es	0.427987	-0.515975	0.241602	99
Es	-0.416230	-0.044716	0.621286	99
Es	0.213646	-0.079592	0.697738	99
27
Properties=species:S:1:pos:R:3:Z:I:1 energy=-172.11277363916975 field_type=dipole dipole="0.000000 0.000000 0.000000" charge=0
C	-1.239611	-0.008605	0.579296	6
N	0.213849	-0.079675	0.698436	7
C	0.850879	-0.748455	-0.430544	6
C	0.920349	0.749585	-0.271084	6
H	-1.624341	0.749155	1.269866	1
H	-1.681221	-0.969605	0.862736	1
H	-1.599181	0.242405	-0.426174	1
H	0.223419	-1.160965	-1.210554	1
H	1.735969	-1.326505	-0.194884	1
H	1.853749	1.181394	0.069916	1
H	0.346139	1.371275	-0.947014	1
Es	0.469317	0.422745	0.342407	99
Es	1.545400	1.046034	-0.041523	99
Es	-1.536980	-0.670688	0.766699	99
Es	0.524213	1.171915	-0.722834	99
Es	0.419161	-1.028935	-0.953383	99
Es	0.850790	-0.748273	-0.430392	99
Es	0.920243	0.749394	-0.270970	99
Es	0.427874	-0.516176	0.241599	99
Es	-1.499136	0.516607	1.045382	99
Es	1.442768	-1.143441	-0.273590	99
Es	-0.416306	-0.044726	0.621793	99
Es	-1.469631	0.162792	-0.117077	99
Es	0.213626	-0.079586	0.697699	99
Es	1.018877	0.015061	-0.549719	99
Es	-1.239482	-0.008610	0.579298	99
Es	0.352698	-0.119597	1.005559	99
27
Properties=species:S:1:pos:R:3:Z:I:1 energy=-172.11277363916975 field_type=dipole dipole="0.000000 0.000000 0.000000" charge=0
C	-1.239611	-0.008605	0.579296	6
N	0.213849	-0.079675	0.698436	7
C	0.850879	-0.748455	-0.430544	6
C	0.920349	0.749585	-0.271084	6
H	-1.624341	0.749155	1.269866	1
H	-1.681221	-0.969605	0.862736	1
H	-1.599181	0.242405	-0.426174	1
H	0.223419	-1.160965	-1.210554	1
H	1.735969	-1.326505	-0.194884	1
H	1.853749	1.181394	0.069916	1
H	0.346139	1.371275	-0.947014	1
Es	-1.536969	-0.670754	0.766663	99
Es	0.419275	-1.028866	-0.953171	99
Es	-1.469424	0.162774	-0.117043	99
Es	1.018921	0.015077	-0.550130	99
Es	1.545394	1.046065	-0.041549	99
Es	-1.239488	-0.008609	0.579296	99
Es	0.469309	0.422804	0.342313	99
Es	-0.416376	-0.044638	0.621441	99
Es	0.427810	-0.516505	0.241873	99
Es	0.352461	-0.119416	1.005761	99
Es	0.920239	0.749389	-0.270975	99
Es	-1.499127	0.516685	1.045351	99
Es	0.524290	1.171826	-0.722650	99
Es	1.442656	-1.143450	-0.273629	99
Es	0.850788	-0.748268	-0.430389	99
Es	0.213672	-0.079598	0.697788	99
27
Properties=species:S:1:pos:R:3:Z:I:1 energy=-172.11277363916975 field_type=dipole dipole="0.000000 0.000000 0.000000" charge=0
C	-1.239611	-0.008605	0.579296	6
N	0.213849	-0.079675	0.698436	7
C	0.850879	-0.748455	-0.430544	6
C	0.920349	0.749585	-0.271084	6
H	-1.624341	0.749155	1.269866	1
H	-1.681221	-0.969605	0.862736	1
H	-1.599181	0.242405	-0.426174	1
H	0.223419	-1.160965	-1.210554	1
H	1.735969	-1.326505	-0.194884	1
H	1.853749	1.181394	0.069916	1
H	0.346139	1.371275	-0.947014	1
Es	0.524274	1.171880	-0.722741	99
Es	1.545240	1.046039	-0.041521	99
Es	0.427678	-0.516453	0.241941	99
Es	-1.239482	-0.008610	0.579298	99
Es	-1.499073	0.516733	1.045350	99
Es	-1.469236	0.162789	-0.117124	99
Es	-1.536936	-0.670800	0.766676	99
Es	0.353034	-0.119239	1.004665	99
Es	0.920241	0.749387	-0.270972	99
Es	0.469006	0.422849	0.342044	99
Es	0.419254	-1.029049	-0.953244	99
Es	0.850789	-0.748272	-0.430391	99
Es	0.213610	-0.079587	0.697695	99
Es	1.442630	-1.143284	-0.273596	99
Es	-0.416667	-0.044913	0.622968	99
Es	1.019068	0.015046	-0.550102	99
27
Properties=species:S:1:pos:R:3:Z:I:1 energy=-172.11277363916975 field_type=dipole dipole="0.000000 0.000000 0.000000" charge=0
C	-1.239611	-0.008605	0.579296	6
N	0.213849	-0.079675	0.698436	7
C	0.850879	-0.748455	-0.430544	6
C	0.920349	0.749585	-0.271084	6
H	-1.624341	0.749155	1.269866	1
H	-1.681221	-0.969605	0.862736	1
H	-1.599181	0.242405	-0.426174	1
H	0.223419	-1.160965	-1.210554	1
H	1.735969	-1.326505	-0.194884	1
H	1.853749	1.181394	0.069916	1
H	0.346139	1.371275	-0.947014	1
Es	-1.499024	0.516859	1.045295	99
Es	0.920246	0.749387	-0.270975	99
Es	1.545106	1.045852	-0.041542	99
Es	-0.416861	-0.044842	0.622956	99
Es	1.442479	-1.143202	-0.273629	99
Es	0.427666	-0.516618	0.241791	99
Es	0.469071	0.422927	0.342510	99
Es	0.850788	-0.748276	-0.430390	99
Es	-1.239486	-0.008609	0.579296	99
Es	1.019251	0.015175	-0.550208	99
Es	0.419319	-1.029025	-0.953282	99
Es	0.352886	-0.119399	1.004382	99
Es	-1.536884	-0.670881	0.766695	99
Es	-1.469127	0.162721	-0.117050	99
Es	0.524349	1.172041	-0.722658	99
Es	0.213652	-0.079594	0.697757	99
27
Properties=species:S:1:pos:R:3:Z:I:1 energy=-172.11277363916975 field_type=dipole dipole="0.000000 0.000000 0.000000" charge=0
C	-1.239611	-0.008605	0.579296	6
N	0.213849	-0.079675	0.698436	7
C	0.850879	-0.748455	-0.430544	6
C	0.920349	0.749585	-0.271084	6
H	-1.624341	0.749155	1.269866	1
H	-1.681221	-0.969605	0.862736	1
H	-1.599181	0.242405	-0.426174	1
H	0.223419	-1.160965	-1.210554	1
H	1.735969	-1.326505	-0.194884	1
H	1.853749	1.181394	0.069916	1
H	0.346139	1.371275	-0.947014	1
Es	-0.416900	-0.044877	0.623442	99
Es	-1.468996	0.162733	-0.117119	99
Es	0.213616	-0.079584	0.697681	99
Es	1.442520	-1.143152	-0.273664	99
Es	0.419331	-1.029074	-0.953175	99
Es	0.469025	0.423051	0.342331	99
Es	0.524384	1.171959	-0.722603	99
Es	1.019200	0.015134	-0.550374	99
Es	0.850792	-0.748274	-0.430397	99
Es	0.920243	0.749385	-0.270972	99
Es	0.352939	-0.119259	1.004084	99
Es	0.427542	-0.516760	0.241976	99
Es	1.545050	1.045880	-0.041575	99
Es	-1.536847	-0.670914	0.766726	99
Es	-1.498982	0.516878	1.045291	99
Es	-1.239486	-0.008610	0.579297	99
27
Properties=species:S:1:pos:R:3:Z:I:1 energy=-172.11277363916975 field_type=dipole dipole="0.000000 0.000000 0.000000" charge=0
C	-1.239611	-0.008605	0.579296	6
N	0.213849	-0.079675	0.698436	7
C	0.850879	-0.748455	-0.430544	6
C	0.920349	0.749585	-0.271084	6
H	-1.624341	0.749155	1.269866	1
H	-1.681221	-0.969605	0.862736	1
H	-1.599181	0.242405	-0.426174	1
H	0.223419	-1.160965	-1.210554	1
H	1.735969	-1.326505	-0.194884	1
H	1.853749	1.181394	0.069916	1
H	0.346139	1.371275	-0.947014	1
Es	0.213649	-0.079591	0.697728	99
Es	0.427487	-0.516868	0.241972	99
Es	-1.468893	0.162763	-0.117152	99
Es	-1.536796	-0.670925	0.766651	99
Es	-0.417055	-0.044910	0.623821	99
Es	0.352955	-0.119265	1.003569	99
Es	0.419354	-1.029108	-0.953150	99
Es	0.469019	0.423137	0.342509	99
Es	1.544985	1.045780	-0.041578	99
Es	-1.498968	0.516885	1.045377	99
Es	1.019386	0.015176	-0.550493	99
Es	1.442346	-1.143105	-0.273649	99
Es	0.920242	0.749378	-0.270972	99
Es	-1.239484	-0.008610	0.579297	99
Es	0.524415	1.172055	-0.722590	99
Es	0.850790	-0.748277	-0.430393	99
27
Properties=species:S:1:pos:R:3:Z:I:1 energy=-172.11277363916975 field_type=dipole dipole="0.000000 0.000000 0.000000" charge=0
C	-1.239611	-0.008605	0.579296	6
N	0.213849	-0.079675	0.698436	7
C	0.850879	-0.748455	-0.430544	6
C	0.920349	0.749585	-0.271084	6
H	-1.624341	0.749155	1.269866	1
H	-1.681221	-0.969605	0.862736	1
H	-1.599181	0.242405	-0.426174	1
H	0.223419	-1.160965	-1.210554	1
H	1.735969	-1.326505	-0.194884	1
H	1.853749	1.181394	0.069916	1
H	0.346139	1.371275	-0.947014	1
Es	0.419406	-1.029002	-0.953035	99
Es	-1.239486	-0.008610	0.579296	99
Es	0.850788	-0.748274	-0.430393	99
Es	0.920241	0.749386	-0.270973	99
Es	-0.416999	-0.044930	0.623712	99
Es	-1.499003	0.516931	1.045356	99
Es	-1.468746	0.162754	-0.117075	99
Es	1.019484	0.015127	-0.550695	99
Es	0.468979	0.423355	0.342707	99
Es	0.213628	-0.079586	0.697696	99
Es	1.544947	1.045785	-0.041595	99
Es	0.352846	-0.119436	1.003647	99
Es	0.524462	1.172006	-0.722544	99
Es	0.427386	-0.516799	0.241904	99
Es	1.442275	-1.143198	-0.273650	99
Es	-1.536776	-0.670991	0.766590	99
27
Properties=species:S:1:pos:R:3:Z:I:1 energy=-172.11277363916975 field_type=dipole dipole="0.000000 0.000000 0.000000" charge=0
C	-1.239611	-0.008605	0.579296	6
N	0.213849	-0.079675	0.698436	7
C	0.850879	-0.748455	-0.430544	6
C	0.920349	0.749585	-0.271084	6
H	-1.624341	0.749155	1.269866	1
H	-1.681221	-0.969605	0.862736	1
H	-1.599181	0.242405	-0.426174	1
H	0.223419	-1.160965	-1.210554	1
H	1.735969	-1.326505	-0.194884	1
H	1.853749	1.181394	0.069916	1
H	0.346139	1.371275	-0.947014	1
Es	0.850790	-0.748280	-0.430389	99
Es	1.544862	1.045658	-0.041611	99
Es	-1.498866	0.516934	1.045407	99
Es	-1.239483	-0.008611	0.579298	99
Es	-0.417391	-0.044986	0.624737	99
Es	0.920245	0.749387	-0.270972	99
Es	0.468891	0.423448	0.342807	99
Es	-1.536683	-0.671033	0.766661	99
Es	0.427270	-0.516898	0.241758	99
Es	0.353194	-0.119407	1.002620	99
Es	1.019479	0.015176	-0.550585	99
Es	-1.468730	0.162789	-0.117189	99
Es	0.419444	-1.029180	-0.953112	99
Es	0.524511	1.172107	-0.722631	99
Es	1.442241	-1.142993	-0.273617	99
Es	0.213657	-0.079595	0.697768	99
27
Properties=species:S:1:pos:R:3:Z:I:1 energy=-172.11277363916975 field_type=dipole dipole="0.000000 0.000000 0.000000" charge=0
C	-1.239611	-0.008605	0.579296	6
N	0.213849	-0.079675	0.698436	7
C	0.850879	-0.748455	-0.430544	6
C	0.920349	0.749585	-0.271084	6
H	-1.624341	0.749155	1.269866	1
H	-1.681221	-0.969605	0.862736	1
H	-1.599181	0.242405	-0.426174	1
H	0.223419	-1.160965	-1.210554	1
H	1.735969	-1.326505	-0.194884	1
H	1.853749	1.181394	0.069916	1
H	0.346139	1.371275	-0.947014	1
Es	-0.417525	-0.045048	0.625213	99
Es	0.353276	-0.119204	1.002289	99
Es	1.544750	1.045540	-0.041579	99
Es	0.524578	1.172219	-0.722601	99
Es	0.850790	-0.748273	-0.430393	99
Es	0.427214	-0.517092	0.241956	99
Es	-1.498877	0.516917	1.045480	99
Es	-1.239488	-0.008609	0.579295	99
Es	-1.536666	-0.671042	0.766568	99
Es	0.419456	-1.029246	-0.953161	99
Es	0.468853	0.423447	0.342554	99
Es	-1.468573	0.162835	-0.117212	99
Es	0.920243	0.749383	-0.270972	99