32
Properties=species:S:1:pos:R:3:Z:I:1 energy=-247.0296545774338 field_type=dipole dipole="0.000000 0.000000 0.000000" charge=0
C	-1.541176	-0.802447	0.055447	6
N	-0.086017	-0.731357	-0.005583	7
C	0.364984	0.661593	0.102117	6
C	1.877973	0.685103	0.081017	6
O	2.535663	1.287533	-0.763653	8
H	-1.858296	-1.846397	-0.028813	1
H	-2.005007	-0.242067	-0.762773	1
H	-1.915956	-0.419877	1.010167	1
H	0.220593	-1.105717	-0.906412	1
H	0.043234	1.109813	1.048057	1
H	-0.010527	1.266113	-0.730433	1
H	2.374533	0.137703	0.900858	1
Es	0.365009	0.661449	0.102137	99
Es	2.535491	1.287356	-0.763420	99
Es	2.358081	1.432766	-0.979403	99
Es	-1.860146	-0.410628	-0.507234	99
Es	2.290240	1.271944	-0.313306	99
Es	0.104000	-0.107380	0.024956	99
Es	-0.086270	-0.730965	-0.006071	99
Es	2.845948	1.260920	-0.717017	99
Es	1.877963	0.685118	0.080990	99
Es	0.155134	0.959206	0.742689	99
Es	0.089093	-0.937572	-0.560512	99
Es	0.107548	1.075626	-0.462780	99
Es	0.063059	-0.920842	0.259484	99
Es	-1.755785	-1.511455	-0.006502	99
Es	-1.541029	-0.802436	0.055440	99
Es	2.297658	0.861417	-0.596932	99
Es	1.121437	0.671062	0.089976	99
Es	-0.718726	-0.741035	0.004671	99
Es	-1.790349	-0.534070	0.704365	99
Es	2.205502	0.307624	0.643117	99
32
Properties=species:S:1:pos:R:3:Z:I:1 energy=-247.0296545774338 field_type=dipole dipole="0.000000 0.000000 0.000000" charge=0
C	-1.541176	-0.802447	0.055447	6
N	-0.086017	-0.731357	-0.005583	7
C	0.364984	0.661593	0.102117	6
C	1.877973	0.685103	0.081017	6
O	2.535663	1.287533	-0.763653	8
H	-1.858296	-1.846397	-0.028813	1
H	-2.005007	-0.242067	-0.762773	1
H	-1.915956	-0.419877	1.010167	1
H	0.220593	-1.105717	-0.906412	1
H	0.043234	1.109813	1.048057	1
H	-0.010527	1.266113	-0.730433	1
H	2.374533	0.137703	0.900858	1
Es	0.102196	-0.106942	0.023797	99
Es	-1.755511	-1.511330	-0.006418	99
Es	1.877963	0.685116	0.080990	99
Es	0.365009	0.661450	0.102136	99
Es	1.121005	0.670747	0.090074	99
Es	0.107932	1.075489	-0.463322	99
Es	2.843828	1.260773	-0.718882	99
Es	2.291873	1.271987	-0.310914	99
Es	-1.790230	-0.534007	0.704764	99
Es	0.066653	-0.918950	0.257473	99
Es	0.155452	0.959699	0.743079	99
Es	2.357683	1.433822	-0.979025	99
Es	2.298387	0.860448	-0.598248	99
Es	0.087420	-0.936892	-0.561645	99
Es	2.535452	1.287354	-0.763414	99
Es	-0.086262	-0.730966	-0.006059	99
Es	-1.860252	-0.410807	-0.507375	99
Es	-0.719061	-0.744102	0.009033	99
Es	2.205350	0.307651	0.643162	99
Es	-1.541031	-0.802437	0.055441	99
32
Properties=species:S:1:pos:R:3:Z:I:1 energy=-247.0296545774338 field_type=dipole dipole="0.000000 0.000000 0.000000" charge=0
C	-1.541176	-0.802447	0.055447	6
N	-0.086017	-0.731357	-0.005583	7
C	0.364984	0.661593	0.102117	6
C	1.877973	0.685103	0.081017	6
O	2.535663	1.287533	-0.763653	8
H	-1.858296	-1.846397	-0.028813	1
H	-2.005007	-0.242067	-0.762773	1
H	-1.915956	-0.419877	1.010167	1
H	0.220593	-1.105717	-0.906412	1
H	0.043234	1.109813	1.048057	1
H	-0.010527	1.266113	-0.730433	1
H	2.374533	0.137703	0.900858	1
Es	2.836198	1.253913	-0.710886	99
Es	0.108349	1.075412	-0.463648	99
Es	2.366711	1.439613	-0.986677	99
Es	2.535472	1.287358	-0.763422	99
Es	1.877963	0.685124	0.080994	99
Es	0.086203	-0.936471	-0.562273	99
Es	0.365010	0.661451	0.102136	99
Es	2.291698	1.273193	-0.310405	99
Es	-1.541030	-0.802437	0.055441	99
Es	-1.860363	-0.410805	-0.507276	99
Es	1.120790	0.670468	0.090307	99
Es	-0.719730	-0.747650	0.014312	99
Es	-1.790236	-0.534249	0.704992	99
Es	2.205255	0.307609	0.643088	99
Es	0.100826	-0.106645	0.022627	99
Es	2.297044	0.860432	-0.599230	99
Es	0.069822	-0.915979	0.254005	99
Es	-1.755339	-1.511195	-0.006559	99
Es	0.155463	0.959927	0.743182	99
Es	-0.086251	-0.730965	-0.006060	99
32
Properties=species:S:1:pos:R:3:Z:I:1 energy=-247.0296545774338 field_type=dipole dipole="0.000000 0.000000 0.000000" charge=0
C	-1.541176	-0.802447	0.055447	6
N	-0.086017	-0.731357	-0.005583	7
C	0.364984	0.661593	0.102117	6
C	1.877973	0.685103	0.081017	6
O	2.535663	1.287533	-0.763653	8
H	-1.858296	-1.846397	-0.028813	1
H	-2.005007	-0.242067	-0.762773	1
H	-1.915956	-0.419877	1.010167	1
H	0.220593	-1.105717	-0.906412	1
H	0.043234	1.109813	1.048057	1
H	-0.010527	1.266113	-0.730433	1
H	2.374533	0.137703	0.900858	1
Es	0.365010	0.661448	0.102135	99
Es	2.535495	1.287352	-0.763398	99
Es	0.108544	1.075185	-0.463848	99
Es	-1.755177	-1.510728	-0.006658	99
Es	0.099665	-0.106534	0.022103	99
Es	2.386986	1.448760	-1.000064	99
Es	-1.790512	-0.534501	0.705203	99
Es	1.120923	0.670314	0.090602	99
Es	-1.860465	-0.411007	-0.507276	99
Es	0.155321	0.960089	0.742828	99
Es	-0.720584	-0.752704	0.021261	99
Es	-0.086260	-0.730937	-0.006085	99
Es	-1.541037	-0.802437	0.055441	99
Es	2.295683	0.860438	-0.600710	99
Es	2.288810	1.274129	-0.311787	99
Es	0.072495	-0.911471	0.248159	99
Es	2.205193	0.307679	0.642960	99
Es	0.085581	-0.935925	-0.562511	99
Es	1.877960	0.685119	0.080994	99
Es	2.820223	1.243836	-0.694702	99
32
Properties=species:S:1:pos:R:3:Z:I:1 energy=-247.0296545774338 field_type=dipole dipole="0.000000 0.000000 0.000000" charge=0
C	-1.541176	-0.802447	0.055447	6
N	-0.086017	-0.731357	-0.005583	7
C	0.364984	0.661593	0.102117	6
C	1.877973	0.685103	0.081017	6
O	2.535663	1.287533	-0.763653	8
H	-1.858296	-1.846397	-0.028813	1
H	-2.005007	-0.242067	-0.762773	1
H	-1.915956	-0.419877	1.010167	1
H	0.220593	-1.105717	-0.906412	1
H	0.043234	1.109813	1.048057	1
H	-0.010527	1.266113	-0.730433	1
H	2.374533	0.137703	0.900858	1
Es	2.535281	1.287391	-0.763461	99
Es	0.365011	0.661452	0.102136	99
Es	1.121495	0.670256	0.090592	99
Es	0.155316	0.959927	0.742293	99
Es	2.286491	1.274610	-0.313183	99
Es	-1.541030	-0.802438	0.055441	99
Es	2.292127	0.862480	-0.602691	99
Es	1.877960	0.685121	0.080995	99
Es	2.795770	1.231026	-0.678606	99
Es	-1.755069	-1.510203	-0.006640	99
Es	2.417620	1.458979	-1.012705	99
Es	-1.790706	-0.534950	0.705234	99
Es	0.074374	-0.907743	0.243703	99
Es	0.085105	-0.935354	-0.562245	99
Es	-0.086252	-0.730967	-0.006059	99
Es	-0.720869	-0.756428	0.026588	99
Es	2.205289	0.307752	0.642803	99
Es	0.098582	-0.106680	0.021142	99
Es	0.108208	1.075045	-0.463547	99
Es	-1.860846	-0.411173	-0.507141	99
32
Properties=species:S:1:pos:R:3:Z:I:1 energy=-247.0296545774338 field_type=dipole dipole="0.000000 0.000000 0.000000" charge=0
C	-1.541176	-0.802447	0.055447	6
N	-0.086017	-0.731357	-0.005583	7
C	0.364984	0.661593	0.102117	6
C	1.877973	0.685103	0.081017	6
O	2.535663	1.287533	-0.763653	8
H	-1.858296	-1.846397	-0.028813	1
H	-2.005007	-0.242067	-0.762773	1
H	-1.915956	-0.419877	1.010167	1
H	0.220593	-1.105717	-0.906412	1
H	0.043234	1.109813	1.048057	1
H	-0.010527	1.266113	-0.730433	1
H	2.374533	0.137703	0.900858	1
Es	0.098203	-0.106891	0.020733	99
Es	-1.790834	-0.535514	0.705252	99
Es	-1.541029	-0.802438	0.055441	99
Es	-0.086239	-0.730942	-0.006077	99
Es	2.205439	0.307777	0.642664	99
Es	2.282724	1.275087	-0.315800	99
Es	1.122203	0.670359	0.090745	99
Es	-1.754945	-1.509496	-0.006524	99
Es	2.535398	1.287365	-0.763419	99
Es	-1.861318	-0.411222	-0.507163	99
Es	-0.720951	-0.758047	0.028885	99
Es	0.107719	1.074945	-0.463274	99
Es	0.365011	0.661452	0.102136	99
Es	0.075314	-0.906306	0.241691	99
Es	0.155177	0.959556	0.741626	99
Es	0.084802	-0.934702	-0.561852	99
Es	1.877960	0.685117	0.080993	99
Es	2.290273	0.864082	-0.603892	99
Es	2.770507	1.223568	-0.666673	99
Es	2.448443	1.464353	-1.020846	99
32
Properties=species:S:1:pos:R:3:Z:I:1 energy=-247.0296545774338 field_type=dipole dipole="0.000000 0.000000 0.000000" charge=0
C	-1.541176	-0.802447	0.055447	6
N	-0.086017	-0.731357	-0.005583	7
C	0.364984	0.661593	0.102117	6
C	1.877973	0.685103	0.081017	6
O	2.535663	1.287533	-0.763653	8
H	-1.858296	-1.846397	-0.028813	1
H	-2.005007	-0.242067	-0.762773	1
H	-1.915956	-0.419877	1.010167	1
H	0.220593	-1.105717	-0.906412	1
H	0.043234	1.109813	1.048057	1
H	-0.010527	1.266113	-0.730433	1
H	2.374533	0.137703	0.900858	1
Es	-0.717777	-0.746412	0.012773	99
Es	0.157230	0.958382	0.742442	99
Es	-1.753472	-1.509037	-0.005495	99
Es	0.109049	1.077763	-0.466881	99
Es	-1.789589	-0.536889	0.705576	99
Es	1.877960	0.685124	0.080998	99
Es	0.365010	0.661451	0.102135	99
Es	2.535779	1.287075	-0.762997	99
Es	0.081235	-0.923307	0.264433	99
Es	-0.086222	-0.730968	-0.006057	99
Es	2.204973	0.306890	0.644055	99
Es	2.826496	1.359339	-0.862495	99
Es	2.312193	1.268421	-0.303355	99
Es	1.119161	0.669436	0.092114	99
Es	-1.541032	-0.802438	0.055441	99
Es	0.093768	-0.108326	0.016633	99
Es	-1.861917	-0.409374	-0.509872	99
Es	2.333481	1.345233	-0.853157	99
Es	2.318438	0.854617	-0.589137	99
Es	0.079093	-0.928875	-0.562508	99
32
Properties=species:S:1:pos:R:3:Z:I:1 energy=-247.0296545774338 field_type=dipole dipole="0.000000 0.000000 0.000000" charge=0
C	-1.541176	-0.802447	0.055447	6
N	-0.086017	-0.731357	-0.005583	7
C	0.364984	0.661593	0.102117	6
C	1.877973	0.685103	0.081017	6
O	2.535663	1.287533	-0.763653	8
H	-1.858296	-1.846397	-0.028813	1
H	-2.005007	-0.242067	-0.762773	1
H	-1.915956	-0.419877	1.010167	1
H	0.220593	-1.105717	-0.906412	1
H	0.043234	1.109813	1.048057	1
H	-0.010527	1.266113	-0.730433	1
H	2.374533	0.137703	0.900858	1
Es	0.078020	-0.927148	-0.562219	99
Es	-0.086228	-0.730981	-0.006038	99
Es	-1.753224	-1.508380	-0.005335	99
Es	2.320222	0.854876	-0.588961	99
Es	-1.789617	-0.537583	0.705499	99
Es	1.877960	0.685118	0.080994	99
Es	0.108353	1.077927	-0.466755	99
Es	0.093314	-0.108844	0.016251	99
Es	-1.862492	-0.409275	-0.510024	99
Es	2.535807	1.287103	-0.763036	99
Es	-1.541033	-0.802437	0.055442	99
Es	2.344668	1.332325	-0.835586	99
Es	0.157196	0.957796	0.741972	99
Es	0.365010	0.661453	0.102136	99
Es	0.083088	-0.924573	0.265020	99
Es	2.311871	1.268010	-0.303026	99
Es	2.813787	1.372396	-0.880508	99
Es	-0.717789	-0.745995	0.012545	99
Es	2.205163	0.306870	0.644000	99
Es	1.119780	0.669445	0.092275	99
32
Properties=species:S:1:pos:R:3:Z:I:1 energy=-247.0296545774338 field_type=dipole dipole="0.000000 0.000000 0.000000" charge=0
C	-1.541176	-0.802447	0.055447	6
N	-0.086017	-0.731357	-0.005583	7
C	0.364984	0.661593	0.102117	6
C	1.877973	0.685103	0.081017	6
O	2.535663	1.287533	-0.763653	8
H	-1.858296	-1.846397	-0.028813	1
H	-2.005007	-0.242067	-0.762773	1
H	-1.915956	-0.419877	1.010167	1
H	0.220593	-1.105717	-0.906412	1
H	0.043234	1.109813	1.048057	1
H	-0.010527	1.266113	-0.730433	1
H	2.374533	0.137703	0.900858	1
Es	-0.721316	-0.759086	0.030043	99
Es	-1.754401	-1.507865	-0.006268	99
Es	0.083313	-0.931821	-0.560764	99
Es	-0.086242	-0.730979	-0.006072	99
Es	0.106535	1.075112	-0.463057	99
Es	-1.791002	-0.537178	0.705198	99
Es	0.365011	0.661452	0.102135	99
Es	2.509022	1.468101	-1.025592	99
Es	1.877960	0.685120	0.080994	99
Es	2.277543	1.275125	-0.318502	99
Es	2.716978	1.216585	-0.656930	99
Es	2.535411	1.287362	-0.763415	99
Es	1.123440	0.670331	0.091069	99
Es	-1.862514	-0.410984	-0.507458	99
Es	-1.541032	-0.802437	0.055442	99
Es	2.288460	0.867224	-0.606139	99
Es	0.079885	-0.906399	0.242613	99
Es	2.205715	0.307807	0.642607	99
Es	0.095574	-0.107919	0.018890	99
Es	0.155517	0.958553	0.739854	99
32
Properties=species:S:1:pos:R:3:Z:I:1 energy=-247.0296545774338 field_type=dipole dipole="0.000000 0.000000 0.000000" charge=0
C	-1.541176	-0.802447	0.055447	6
N	-0.086017	-0.731357	-0.005583	7
C	0.364984	0.661593	0.102117	6
C	1.877973	0.685103	0.081017	6
O	2.535663	1.287533	-0.763653	8
H	-1.858296	-1.846397	-0.028813	1
H	-2.005007	-0.242067	-0.762773	1
H	-1.915956	-0.419877	1.010167	1
H	0.220593	-1.105717	-0.906412	1
H	0.043234	1.109813	1.048057	1
H	-0.010527	1.266113	-0.730433	1
H	2.374533	0.137703	0.900858	1
Es	-0.721285	-0.758861	0.029866	99
Es	0.094910	-0.108028	0.018087	99
Es	2.535203	1.287396	-0.763471	99
Es	2.524211	1.468068	-1.024719	99
Es	0.081469	-0.907276	0.243506	99
Es	2.276174	1.274577	-0.318655	99
Es	0.155750	0.958260	0.739375	99
Es	-0.086236	-0.730989	-0.006026	99
Es	0.365011	0.661453	0.102137	99
Es	2.288505	0.868244	-0.607088	99
Es	2.205784	0.307786	0.642589	99
Es	1.123586	0.670299	0.091272	99
Es	1.877960	0.685119	0.080996	99
Es	-1.754037	-1.507143	-0.006278	99
Es	-1.791235	-0.537797	0.705316	99
Es	-1.541030	-0.802437	0.055442	99
Es	0.106293	1.075315	-0.463100	99
Es	2.703329	1.216090	-0.656636	99
Es	0.082345	-0.930975	-0.560247	99
Es	-1.862849	-0.410998	-0.507717	99
32
Properties=species:S:1:pos:R:3:Z:I:1 energy=-247.0296545774338 field_type=dipole dipole="0.000000 0.000000 0.000000" charge=0
C	-1.541176	-0.802447	0.055447	6
N	-0.086017	-0.731357	-0.005583	7
C	0.364984	0.661593	0.102117	6
C	1.877973	0.685103	0.081017	6
O	2.535663	1.287533	-0.763653	8
H	-1.858296	-1.846397	-0.028813	1
H	-2.005007	-0.242067	-0.762773	1
H	-1.915956	-0.419877	1.010167	1
H	0.220593	-1.105717	-0.906412	1
H	0.043234	1.109813	1.048057	1
H	-0.010527	1.266113	-0.730433	1
H	2.374533	0.137703	0.900858	1
Es	0.094333	-0.108467	0.017875	99
Es	0.082805	-0.907644	0.243651	99
Es	0.081629	-0.929984	-0.560266	99
Es	2.287053	0.867482	-0.605599	99
Es	0.106125	1.075305	-0.463193	99
Es	2.533686	1.467207	-1.024415	99
Es	2.694071	1.216459	-0.657136	99
Es	0.155769	0.958065	0.738917	99
Es	0.365010	0.661451	0.102135	99
Es	1.123845	0.670394	0.091471	99
Es	1.877960	0.685115	0.080992	99
Es	2.277400	1.275884	-0.320019	99
Es	2.205778	0.307681	0.642608	99
Es	-0.721325	-0.758961	0.030284	99
Es	-1.541028	-0.802436	0.055442	99
Es	-0.086238	-0.730962	-0.006049	99
Es	-1.791355	-0.538462	0.705590	99
Es	2.535208	1.287348	-0.763396	99
Es	-1.753715	-1.506498	-0.006463	99
Es	-1.863155	-0.410872	-0.507781	99
32
Properties=species:S:1:pos:R:3:Z:I:1 energy=-247.0296545774338 field_type=dipole dipole="0.000000 0.000000 0.000000" charge=0
C	-1.541176	-0.802447	0.055447	6
N	-0.086017	-0.731357	-0.005583	7
C	0.364984	0.661593	0.102117	6
C	1.877973	0.685103	0.081017	6
O	2.535663	1.287533	-0.763653	8
H	-1.858296	-1.846397	-0.028813	1
H	-2.005007	-0.242067	-0.762773	1
H	-1.915956	-0.419877	1.010167	1
H	0.220593	-1.105717	-0.906412	1
H	0.043234	1.109813	1.048057	1
H	-0.010527	1.266113	-0.730433	1
H	2.374533	0.137703	0.900858	1
Es	2.205871	0.307707	0.642603	99
Es	0.365010	0.661452	0.102136	99
Es	-1.753532	-1.506166	-0.006411	99
Es	1.123926	0.670259	0.091620	99
Es	2.543057	1.467142	-1.023096	99
Es	-1.863383	-0.410884	-0.507871	99
Es	2.535161	1.287421	-0.763510	99
Es	1.877960	0.685117	0.080993	99
Es	2.684948	1.217064	-0.657676	99
Es	-0.086230	-0.730969	-0.006052	99
Es	0.156221	0.957939	0.738302	99
Es	-1.791379	-0.538766	0.705635	99
Es	0.105926	1.075458	-0.463262	99
Es	2.275338	1.274335	-0.319366	99
Es	0.083654	-0.908385	0.244401	99
Es	0.093648	-0.108807	0.018156	99
Es	-0.721520	-0.758583	0.029621	99
Es	2.288867	0.868419	-0.606943	99
Es	-1.541029	-0.802437	0.055443	99
Es	0.081343	-0.929209	-0.560073	99
32
Properties=species:S:1:pos:R:3:Z:I:1 energy=-247.0296545774338 field_type=dipole dipole="0.000000 0.000000 0.000000" charge=0
C	-1.541176	-0.802447	0.055447	6
N	-0.086017	-0.731357	-0.005583	7
C	0.364984	0.661593	0.102117	6
C	1.877973	0.685103	0.081017	6
O	2.535663	1.287533	-0.763653	8
H	-1.858296	-1.846397	-0.028813	1
H	-2.005007	-0.242067	-0.762773	1
H	-1.915956	-0.419877	1.010167	1
H	0.220593	-1.105717	-0.906412	1
H	0.043234	1.109813	1.048057	1
H	-0.010527	1.266113	-0.730433	1
H	2.374533	0.137703	0.900858	1
Es	0.080799	-0.928845	-0.559482	99
Es	2.551209	1.466842	-1.021956	99
Es	2.290425	0.869972	-0.608003	99
Es	1.124020	0.670174	0.091688	99
Es	2.676507	1.217564	-0.658857	99
Es	-1.863599	-0.410744	-0.507957	99
Es	-1.541030	-0.802437	0.055442	99
Es	0.156537	0.957690	0.737872	99
Es	2.205918	0.307739	0.642653	99
Es	0.365011	0.661452	0.102136	99
Es	2.273790	1.272656	-0.318362	99
Es	-1.791468	-0.539283	0.705734	99
Es	0.105696	1.075659	-0.463276	99
Es	2.535410	1.287361	-0.763413	99
Es	0.084599	-0.908715	0.244865	99
Es	1.877960	0.685118	0.080994	99
Es	0.093146	-0.108772	0.017590	99
Es	-0.721556	-0.758606	0.029559	99
Es	-0.086226	-0.730964	-0.006051	99
Es	-1.753289	-1.505756	-0.006525	99
32
Properties=species:S:1:pos:R:3:Z:I:1 energy=-247.0296545774338 field_type=dipole dipole="0.000000 0.000000 0.000000" charge=0
C	-1.541176	-0.802447	0.055447	6
N	-0.086017	-0.731357	-0.005583	7
C	0.364984	0.661593	0.102117	6
C	1.877973	0.685103	0.081017	6
O	2.535663	1.287533	-0.763653	8
H	-1.858296	-1.846397	-0.028813	1
H	-2.005007	-0.242067	-0.762773	1
H	-1.915956	-0.419877	1.010167	1
H	0.220593	-1.105717	-0.906412	1
H	0.043234	1.109813	1.048057	1
H	-0.010527	1.266113	-0.730433	1
H	2.374533	0.137703	0.900858	1
Es	2.275136	1.273752	-0.319146	99
Es	-0.721440	-0.758985	0.030058	99
Es	0.365011	0.661452	0.102135	99
Es	2.205909	0.307673	0.642675	99
Es	-1.752817	-1.504841	-0.006873	99
Es	0.105722	1.075665	-0.463347	99
Es	0.085809	-0.908654	0.245034	99
Es	1.877960	0.685116	0.080992	99
Es	2.671036	1.218144	-0.659794	99
Es	-0.086219	-0.730940	-0.006051	99
Es	-1.791845	-0.540030	0.706214	99
Es	2.556783	1.466130	-1.021326	99
Es	0.092354	-0.108853	0.016763	99
Es	-1.863783	-0.410791	-0.508083	99
Es	2.535108	1.287353	-0.763410	99
Es	-1.541031	-0.802438	0.055441	99
Es	1.124111	0.670166	0.091808	99
Es	0.156712	0.957699	0.737456	99
Es	0.080062	-0.928486	-0.558956	99
Es	2.289277	0.868973	-0.606943	99
32
Properties=species:S:1:pos:R:3:Z:I:1 energy=-247.0296545774338 field_type=dipole dipole="0.000000 0.000000 0.000000" charge=0
C	-1.541176	-0.802447	0.055447	6
N	-0.086017	-0.731357	-0.005583	7
C	0.364984	0.661593	0.102117	6
C	1.877973	0.685103	0.081017	6
O	2.535663	1.287533	-0.763653	8
H	-1.858296	-1.846397	-0.028813	1
H	-2.005007	-0.242067	-0.762773	1
H	-1.915956	-0.419877	1.010167	1
H	0.220593	-1.105717	-0.906412	1
H	0.043234	1.109813	1.048057	1
H	-0.010527	1.266113	-0.730433	1
H	2.374533	0.137703	0.900858	1
Es	0.157123	0.957498	0.736859	99
Es	2.290633	0.870139	-0.607673	99
Es	0.365011	0.661449	0.102134	99
Es	2.535285	1.287389	-0.763458	99
Es	2.563175	1.465786	-1.020151	99
Es	-1.541029	-0.802438	0.055443	99
Es	-1.791987	-0.540596	0.706431	99
Es	2.273849	1.272371	-0.318467	99
Es	0.079894	-0.928010	-0.558842	99
Es	2.664352	1.218774	-0.660817	99
Es	-1.863884	-0.410590	-0.508105	99
Es	1.124191	0.670176	0.091911	99
Es	-0.721574	-0.759089	0.030129	99
Es	2.205938	0.307568	0.642714	99
Es	0.105506	1.075840	-0.463438	99
Es	0.086453	-0.908701	0.245215	99
Es	-1.752561	-1.504460	-0.007163	99
Es	-0.086223	-0.730972	-0.006050	99
Es	0.091745	-0.109146	0.016984	99
Es	1.877960	0.685117	0.080992	99
32
Properties=species:S:1:pos:R:3:Z:I:1 energy=-247.0296545774338 field_type=dipole dipole="0.000000 0.000000 0.000000" charge=0
C	-1.541176	-0.802447	0.055447	6
N	-0.086017	-0.731357	-0.005583	7
C	0.364984	0.661593	0.102117	6
C	1.877973	0.685103	0.081017	6
O	2.535663	1.287533	-0.763653	8
H	-1.858296	-1.846397	-0.028813	1
H	-2.005007	-0.242067	-0.762773	1
H	-1.915956	-0.419877	1.010167	1
H	0.220593	-1.105717	-0.906412	1
H	0.043234	1.109813	1.048057	1
H	-0.010527	1.266113	-0.730433	1
H	2.374533	0.137703	0.900858	1
Es	2.535307	1.287384	-0.763450	99
Es	-0.086217	-0.731007	-0.006025	99
Es	0.087086	-0.908948	0.244926	99
Es	1.877960	0.685118	0.080994	99
Es	-0.721432	-0.759207	0.030630	99
Es	2.205952	0.307667	0.642705	99
Es	2.271638	1.270003	-0.317462	99
Es	0.365011	0.661452	0.102135	99
Es	2.660622	1.219739	-0.661594	99
Es	0.079317	-0.927474	-0.558857	99
Es	-1.863986	-0.410613	-0.508141	99
Es	2.566195	1.465686	-1.019508	99
Es	-1.541030	-0.802438	0.055442	99
Es	0.091121	-0.109314	0.017479	99
Es	2.293545	0.871626	-0.608565	99
Es	-1.752458	-1.504303	-0.007147	99
Es	0.105423	1.075837	-0.463409	99
Es	-1.792040	-0.540774	0.706402	99
Es	0.157611	0.957526	0.736147	99
Es	1.124232	0.670143	0.091945	99
32
Properties=species:S:1:pos:R:3:Z:I:1 energy=-247.0296545774338 field_type=dipole dipole="0.000000 0.000000 0.000000" charge=0
C	-1.541176	-0.802447	0.055447	6
N	-0.086017	-0.731357	-0.005583	7
C	0.364984	0.661593	0.102117	6
C	1.877973	0.685103	0.081017	6
O	2.535663	1.287533	-0.763653	8
H	-1.858296	-1.846397	-0.028813	1
H	-2.005007	-0.242067	-0.762773	1
H	-1.915956	-0.419877	1.010167	1
H	0.220593	-1.105717	-0.906412	1
H	0.043234	1.109813	1.048057	1
H	-0.010527	1.266113	-0.730433	1
H	2.374533	0.137703	0.900858	1
Es	-1.864121	-0.410524	-0.508181	99
Es	2.291610	0.870438	-0.607590	99
Es	0.090533	-0.109605	0.017055	99
Es	2.273890	1.271555	-0.317785	99
Es	1.124295	0.670118	0.092038	99
Es	-0.086223	-0.730957	-0.006047	99
Es	0.365011	0.661453	0.102135	99
Es	-1.541030	-0.802439	0.055441	99
Es	-1.752049	-1.503408	-0.007562	99
Es	0.079130	-0.927227	-0.558527	99
Es	2.654551	1.220252	-0.663222	99
Es	0.105361	1.075898	-0.463462	99
Es	2.571687	1.464960	-1.018596	99
Es	2.206000	0.307496	0.642642	99
Es	1.877960	0.685118	0.080994	99
Es	0.087859	-0.909044	0.245596	99
Es	-0.721541	-0.759135	0.030370	99
Es	-1.792367	-0.541613	0.706862	99
Es	2.535507	1.287325	-0.763359	99
Es	0.157795	0.957442	0.735845	99
32
Properties=species:S:1:pos:R:3:Z:I:1 energy=-247.0296545774338 field_type=dipole dipole="0.000000 0.000000 0.000000" charge=0
C	-1.541176	-0.802447	0.055447	6
N	-0.086017	-0.731357	-0.005583	7
C	0.364984	0.661593	0.102117	6
C	1.877973	0.685103	0.081017	6
O	2.535663	1.287533	-0.763653	8
H	-1.858296	-1.846397	-0.028813	1
H	-2.005007	-0.242067	-0.762773	1
H	-1.915956	-0.419877	1.010167	1
H	0.220593	-1.105717	-0.906412	1
H	0.043234	1.109813	1.048057	1
H	-0.010527	1.266113	-0.730433	1
H	2.374533	0.137703	0.900858	1
Es	0.105320	1.075987	-0.463637	99
Es	1.877960	0.685117	0.080993	99
Es	-1.541031	-0.802436	0.055443	99
Es	-1.751550	-1.502479	-0.007981	99
Es	0.158136	0.957372	0.735379	99
Es	2.291628	0.869709	-0.606841	99
Es	2.274019	1.272376	-0.318322	99
Es	2.535554	1.287316	-0.763332	99
Es	-0.721475	-0.759213	0.030489	99
Es	-1.792814	-0.542430	0.707368	99
Es	0.078646	-0.927359	-0.557900	99
Es	0.365011	0.661453	0.102136	99
Es	1.124244	0.670002	0.092083	99
Es	-0.086239	-0.730962	-0.006047	99
Es	2.650030	1.221153	-0.664018	99
Es	0.090129	-0.109387	0.016528	99
Es	0.088464	-0.909043	0.245908	99
Es	2.205979	0.307503	0.642706	99
Es	-1.864191	-0.410558	-0.508300	99
Es	2.576036	1.463984	-1.018007	99
32
Properties=species:S:1:pos:R:3:Z:I:1 energy=-247.0296545774338 field_type=dipole dipole="0.000000 0.000000 0.000000" charge=0
C	-1.541176	-0.802447	0.055447	6
N	-0.086017	-0.731357	-0.005583	7
C	0.364984	0.661593	0.102117	6
C	1.877973	0.685103	0.081017	6
O	2.535663	1.287533	-0.763653	8
H	-1.858296	-1.846397	-0.028813	1
H	-2.005007	-0.242067	-0.762773	1
H	-1.915956	-0.419877	1.010167	1
H	0.220593	-1.105717	-0.906412	1
H	0.043234	1.109813	1.048057	1
H	-0.010527	1.266113	-0.730433	1
H	2.374533	0.137703	0.900858	1
Es	2.646306	1.222068	-0.665080	99
Es	0.088829	-0.909127	0.245973	99
Es	-1.793296	-0.543717	0.707913	99
Es	1.124332	0.669978	0.092070	99
Es	-1.864367	-0.410436	-0.508281	99
Es	2.534883	1.287401	-0.763487	99
Es	1.877959	0.685118	0.080994	99
Es	0.089803	-0.109304	0.016473	99
Es	2.579592	1.463563	-1.017256	99
Es	2.291238	0.868524	-0.605748	99
Es	0.365011	0.661453	0.102136	99
Es	0.078419	-0.927096	-0.557737	99
Es	2.275238	1.273019	-0.318933	99
Es	0.105189	1.076059	-0.463552	99
Es	-1.750913	-1.501355	-0.008574	99
Es	0.158329	0.957254	0.735169	99
Es	2.205988	0.307450	0.642646	99
Es	-0.086220	-0.730993	-0.006063	99
Es	-1.541031	-0.802437	0.055442	99
Es	-0.721434	-0.759316	0.030543	99
32
Properties=species:S:1:pos:R:3:Z:I:1 energy=-247.0296545774338 field_type=dipole dipole="0.000000 0.000000 0.000000" charge=0
C	-1.541176	-0.802447	0.055447	6
N	-0.086017	-0.731357	-0.005583	7
C	0.364984	0.661593	0.102117	6
C	1.877973	0.685103	0.081017	6
O	2.535663	1.287533	-0.763653	8
H	-1.858296	-1.846397	-0.028813	1
H	-2.005007	-0.242067	-0.762773	1
H	-1.915956	-0.419877	1.010167	1
H	0.220593	-1.105717	-0.906412	1
H	0.043234	1.109813	1.048057	1
H	-0.010527	1.266113	-0.730433	1
H	2.374533	0.137703	0.900858	1
Es	2.206029	0.307517	0.642682	99
Es	2.580858	1.463509	-1.016953	99
Es	0.105268	1.076026	-0.463640	99
Es	2.644202	1.222464	-0.665597	99
Es	1.124276	0.670017	0.092208	99
Es	2.273487	1.271170	-0.317760	99
Es	2.535366	1.287372	-0.763432	99
Es	-1.864369	-0.410512	-0.508326	99
Es	0.088757	-0.109759	0.017773	99
Es	0.078324	-0.926831	-0.558074	99
Es	0.365010	0.661454	0.102136	99
Es	-1.541030	-0.802437	0.055442	99
Es	2.293317	0.869954	-0.606853	99
Es	-0.721418	-0.759460	0.031019	99
Es	0.089118	-0.908947	0.245658	99
Es	-1.751035	-1.501565	-0.008378	99
Es	1.877960	0.685119	0.080995	99
Es	0.159127	0.957378	0.733966	99
Es	-1.793160	-0.543392	0.707817	99
Es	-0.086229	-0.730974	-0.006035	99
