31
Properties=species:S:1:pos:R:3:Z:I:1 energy=-551.348726366172 field_type=dipole dipole="0.000000 0.000000 0.000000" charge=0
S	-0.517510	-1.270120	-0.002790	16
C	-1.302910	0.250960	-0.019090	6
C	-0.406050	1.296210	-0.035950	6
C	0.944970	0.841430	-0.035460	6
C	1.027070	-0.533650	-0.018250	6
H	-2.383010	0.303660	-0.015520	1
H	-0.704820	2.337390	-0.048050	1
H	1.812950	1.489750	-0.047140	1
H	1.919190	-1.144580	-0.013970	1
Es	0.283424	1.110378	-0.036441	99
Es	-0.600154	-1.294487	0.080760	99
Es	0.944969	0.841448	-0.035459	99
Es	1.614592	-0.950099	-0.015279	99
Es	-0.815910	0.763004	0.282998	99
Es	-0.602965	1.997432	-0.044081	99
Es	-1.302891	0.250765	-0.019087	99
Es	0.294639	-0.915825	-0.012374	99
Es	-0.406038	1.296221	-0.035950	99
Es	-0.560608	-1.398445	0.422101	99
Es	-0.565179	-1.206135	-0.084506	99
Es	1.526034	1.280723	-0.043362	99
Es	-0.818402	0.755103	-0.337868	99
Es	-0.474871	-1.369938	-0.051735	99
Es	-0.428774	-1.206953	0.044231	99
Es	1.026937	-0.533794	-0.018246	99
Es	-0.517440	-1.270093	-0.002798	99
Es	-2.022710	0.274452	-0.016564	99
Es	-0.570442	-1.426683	-0.420404	99
Es	-0.950227	-0.496722	-0.012491	99
Es	0.948601	0.169187	0.283687	99
Es	0.946388	0.161135	-0.337107	99
31
Properties=species:S:1:pos:R:3:Z:I:1 energy=-551.348726366172 field_type=dipole dipole="0.000000 0.000000 0.000000" charge=0
S	-0.517510	-1.270120	-0.002790	16
C	-1.302910	0.250960	-0.019090	6
C	-0.406050	1.296210	-0.035950	6
C	0.944970	0.841430	-0.035460	6
C	1.027070	-0.533650	-0.018250	6
H	-2.383010	0.303660	-0.015520	1
H	-0.704820	2.337390	-0.048050	1
H	1.812950	1.489750	-0.047140	1
H	1.919190	-1.144580	-0.013970	1
Es	-1.302892	0.250760	-0.019087	99
Es	-0.814914	0.762981	0.280753	99
Es	0.948492	0.169325	0.281209	99
Es	1.614686	-0.949282	-0.015322	99
Es	1.527236	1.281793	-0.043343	99
Es	-0.625277	-1.328807	-0.010942	99
Es	-0.504241	-1.242530	0.099127	99
Es	-0.406035	1.296225	-0.035951	99
Es	0.945266	0.161778	-0.334868	99
Es	-0.961056	-0.496389	-0.012173	99
Es	-0.513750	-1.166029	-0.069972	99
Es	-2.022345	0.275182	-0.016575	99
Es	0.944969	0.841452	-0.035462	99
Es	-0.425986	-1.341338	-0.029396	99
Es	1.026936	-0.533799	-0.018248	99
Es	-0.678073	-1.746634	-0.000764	99
Es	-0.817968	0.755317	-0.335207	99
Es	-0.451372	-1.074216	0.001358	99
Es	0.303326	-0.922056	-0.011512	99
Es	0.282675	1.108027	-0.036492	99
Es	-0.603234	1.999014	-0.044296	99
Es	-0.517465	-1.270099	-0.002812	99
31
Properties=species:S:1:pos:R:3:Z:I:1 energy=-551.348726366172 field_type=dipole dipole="0.000000 0.000000 0.000000" charge=0
S	-0.517510	-1.270120	-0.002790	16
C	-1.302910	0.250960	-0.019090	6
C	-0.406050	1.296210	-0.035950	6
C	0.944970	0.841430	-0.035460	6
C	1.027070	-0.533650	-0.018250	6
H	-2.383010	0.303660	-0.015520	1
H	-0.704820	2.337390	-0.048050	1
H	1.812950	1.489750	-0.047140	1
H	1.919190	-1.144580	-0.013970	1
Es	-0.678276	-1.747346	0.004022	99
Es	0.282127	1.106386	-0.035887	99
Es	-0.447787	-1.272864	0.074913	99
Es	-0.467885	-1.202574	-0.087436	99
Es	0.945222	0.162389	-0.332383	99
Es	-0.603625	1.999855	-0.044208	99
Es	0.944968	0.841450	-0.035461	99
Es	0.946717	0.170583	0.278669	99
Es	-0.959946	-0.496886	-0.012037	99
Es	-0.451947	-1.075803	-0.005141	99
Es	-0.611588	-1.214065	0.041855	99
Es	1.615121	-0.948768	-0.015155	99
Es	-1.302893	0.250760	-0.019094	99
Es	1.528100	1.282256	-0.043418	99
Es	-0.517471	-1.269944	-0.003116	99
Es	-0.542184	-1.389581	-0.039979	99
Es	-0.814325	0.763180	0.278011	99
Es	-0.816046	0.755191	-0.333248	99
Es	-0.406035	1.296227	-0.035954	99
Es	0.302159	-0.921749	-0.010019	99
Es	-2.022364	0.275773	-0.016666	99
Es	1.026938	-0.533798	-0.018243	99
31
Properties=species:S:1:pos:R:3:Z:I:1 energy=-551.348726366172 field_type=dipole dipole="0.000000 0.000000 0.000000" charge=0
S	-0.517510	-1.270120	-0.002790	16
C	-1.302910	0.250960	-0.019090	6
C	-0.406050	1.296210	-0.035950	6
C	0.944970	0.841430	-0.035460	6
C	1.027070	-0.533650	-0.018250	6
H	-2.383010	0.303660	-0.015520	1
H	-0.704820	2.337390	-0.048050	1
H	1.812950	1.489750	-0.047140	1
H	1.919190	-1.144580	-0.013970	1
Es	1.615174	-0.948489	-0.015303	99
Es	-0.517499	-1.270082	-0.003757	99
Es	-0.813199	0.763220	0.277193	99
Es	-0.517210	-1.269982	-0.012675	99
Es	-0.406035	1.296227	-0.035951	99
Es	-0.603692	2.000327	-0.044102	99
Es	1.528312	1.282641	-0.043323	99
Es	-0.678571	-1.747640	0.005314	99
Es	-1.302893	0.250757	-0.019090	99
Es	0.281786	1.105556	-0.036374	99
Es	-0.522944	-1.137479	0.002862	99
Es	0.946823	0.170655	0.277876	99
Es	0.944967	0.841451	-0.035457	99
Es	0.943819	0.163219	-0.331596	99
Es	-0.407972	-1.322878	0.002119	99
Es	-0.959369	-0.497081	-0.010385	99
Es	-0.621116	-1.348685	-0.002621	99
Es	-0.452302	-1.077020	-0.007469	99
Es	0.301542	-0.921675	-0.010148	99
Es	-0.815316	0.755353	-0.332294	99
Es	-2.022263	0.276077	-0.016546	99
Es	1.026935	-0.533800	-0.018249	99
31
Properties=species:S:1:pos:R:3:Z:I:1 energy=-551.348726366172 field_type=dipole dipole="0.000000 0.000000 0.000000" charge=0
S	-0.517510	-1.270120	-0.002790	16
C	-1.302910	0.250960	-0.019090	6
C	-0.406050	1.296210	-0.035950	6
C	0.944970	0.841430	-0.035460	6
C	1.027070	-0.533650	-0.018250	6
H	-2.383010	0.303660	-0.015520	1
H	-0.704820	2.337390	-0.048050	1
H	1.812950	1.489750	-0.047140	1
H	1.919190	-1.144580	-0.013970	1
Es	-0.517498	-1.270198	-0.011780	99
Es	-0.812806	0.763264	0.275576	99
Es	1.615501	-0.948185	-0.015243	99
Es	-2.022299	0.276512	-0.016535	99
Es	0.944968	0.841452	-0.035460	99
Es	-0.570557	-1.150223	-0.000491	99
Es	-0.958897	-0.497439	-0.010911	99
Es	0.946922	0.171013	0.276120	99
Es	0.942882	0.163946	-0.330022	99
Es	-0.452868	-1.078057	-0.005156	99
Es	1.528711	1.282914	-0.043392	99
Es	-0.517488	-1.269896	-0.003098	99
Es	-0.406035	1.296227	-0.035948	99
Es	-0.814417	0.755314	-0.330741	99
Es	-0.584610	-1.384117	0.001736	99
Es	0.281391	1.104285	-0.036010	99
Es	0.301000	-0.921509	-0.010577	99
Es	-0.678627	-1.747950	0.004273	99
Es	-1.302893	0.250756	-0.019084	99
Es	-0.396544	-1.274407	-0.000880	99
Es	1.026935	-0.533801	-0.018249	99
Es	-0.603793	2.000771	-0.044103	99
31
Properties=species:S:1:pos:R:3:Z:I:1 energy=-551.348726366172 field_type=dipole dipole="0.000000 0.000000 0.000000" charge=0
S	-0.517510	-1.270120	-0.002790	16
C	-1.302910	0.250960	-0.019090	6
C	-0.406050	1.296210	-0.035950	6
C	0.944970	0.841430	-0.035460	6
C	1.027070	-0.533650	-0.018250	6
H	-2.383010	0.303660	-0.015520	1
H	-0.704820	2.337390	-0.048050	1
H	1.812950	1.489750	-0.047140	1
H	1.919190	-1.144580	-0.013970	1
Es	-0.478398	-1.394432	0.005400	99
Es	-0.406036	1.296225	-0.035956	99
Es	0.943593	0.163890	-0.328497	99
Es	-0.678301	-1.748221	0.004080	99
Es	-0.440122	-1.158490	0.003314	99
Es	0.945487	0.171865	0.274791	99
Es	0.944969	0.841453	-0.035460	99
Es	0.300537	-0.921519	-0.010378	99
Es	-2.022393	0.276929	-0.016568	99
Es	1.529085	1.283032	-0.043373	99
Es	-0.811567	0.763023	0.274164	99
Es	-1.302894	0.250757	-0.019088	99
Es	-0.452790	-1.080447	-0.010202	99
Es	-0.517507	-1.270081	-0.003073	99
Es	-0.517647	-1.270497	-0.016927	99
Es	-0.603988	2.001117	-0.044060	99
Es	1.615782	-0.947854	-0.015375	99
Es	-0.814868	0.755515	-0.329181	99
Es	-0.633483	-1.253503	0.001446	99
Es	0.281038	1.103340	-0.036157	99
Es	-0.958454	-0.497626	-0.010627	99
Es	1.026932	-0.533803	-0.018247	99
31
Properties=species:S:1:pos:R:3:Z:I:1 energy=-551.348726366172 field_type=dipole dipole="0.000000 0.000000 0.000000" charge=0
S	-0.517510	-1.270120	-0.002790	16
C	-1.302910	0.250960	-0.019090	6
C	-0.406050	1.296210	-0.035950	6
C	0.944970	0.841430	-0.035460	6
C	1.027070	-0.533650	-0.018250	6
H	-2.383010	0.303660	-0.015520	1
H	-0.704820	2.337390	-0.048050	1
H	1.812950	1.489750	-0.047140	1
H	1.919190	-1.144580	-0.013970	1
Es	-1.302893	0.250755	-0.019090	99
Es	-0.958140	-0.497849	-0.011770	99
Es	-0.678189	-1.748479	0.004549	99
Es	-0.616447	-1.204533	0.012736	99
Es	0.280734	1.102456	-0.036338	99
Es	0.944739	0.171940	0.273686	99
Es	1.026933	-0.533803	-0.018252	99
Es	1.529350	1.283177	-0.043387	99
Es	-0.811003	0.763275	0.272952	99
Es	0.300145	-0.921409	-0.009572	99
Es	-0.517003	-1.270230	0.000962	99
Es	1.616044	-0.947640	-0.015147	99
Es	0.944969	0.841453	-0.035461	99
Es	-0.604100	2.001408	-0.044197	99
Es	-2.022392	0.277297	-0.016689	99
Es	-0.406035	1.296227	-0.035950	99
Es	0.943361	0.164020	-0.327278	99
Es	-0.452845	-1.079086	-0.005767	99
Es	-0.814413	0.755827	-0.327946	99
Es	-0.405173	-1.202649	-0.007910	99
Es	-0.530006	-1.402056	-0.005230	99
Es	-0.518660	-1.269429	-0.014877	99
31
Properties=species:S:1:pos:R:3:Z:I:1 energy=-551.348726366172 field_type=dipole dipole="0.000000 0.000000 0.000000" charge=0
S	-0.517510	-1.270120	-0.002790	16
C	-1.302910	0.250960	-0.019090	6
C	-0.406050	1.296210	-0.035950	6
C	0.944970	0.841430	-0.035460	6
C	1.027070	-0.533650	-0.018250	6
H	-2.383010	0.303660	-0.015520	1
H	-0.704820	2.337390	-0.048050	1
H	1.812950	1.489750	-0.047140	1
H	1.919190	-1.144580	-0.013970	1
Es	-0.427514	-1.339598	0.003908	99
Es	-0.471812	-1.106611	-0.019196	99
Es	-0.474177	-1.109907	0.006015	99
Es	-0.406036	1.296228	-0.035946	99
Es	-0.957839	-0.497954	-0.010441	99
Es	-2.022451	0.277646	-0.016638	99
Es	-0.517543	-1.270122	-0.004423	99
Es	1.026932	-0.533803	-0.018247	99
Es	-0.631814	-1.332157	-0.000860	99
Es	-1.302893	0.250755	-0.019089	99
Es	-0.812751	0.764099	0.271374	99
Es	0.944969	0.841453	-0.035461	99
Es	-0.811335	0.755566	-0.326490	99
Es	0.299801	-0.921329	-0.010441	99
Es	-0.604256	2.001639	-0.044132	99
Es	-0.517376	-1.270280	-0.004968	99
Es	0.946111	0.171370	0.272314	99
Es	-0.678752	-1.748416	0.003511	99
Es	0.280528	1.101413	-0.036027	99
Es	1.529549	1.283340	-0.043326	99
Es	1.616368	-0.947456	-0.015352	99
Es	0.941269	0.164796	-0.326059	99
31
Properties=species:S:1:pos:R:3:Z:I:1 energy=-551.348726366172 field_type=dipole dipole="0.000000 0.000000 0.000000" charge=0
S	-0.517510	-1.270120	-0.002790	16
C	-1.302910	0.250960	-0.019090	6
C	-0.406050	1.296210	-0.035950	6
C	0.944970	0.841430	-0.035460	6
C	1.027070	-0.533650	-0.018250	6
H	-2.383010	0.303660	-0.015520	1
H	-0.704820	2.337390	-0.048050	1
H	1.812950	1.489750	-0.047140	1
H	1.919190	-1.144580	-0.013970	1
Es	0.299619	-0.921319	-0.010292	99
Es	-0.957609	-0.498107	-0.010634	99
Es	1.529691	1.283361	-0.043424	99
Es	0.944969	0.841453	-0.035459	99
Es	-0.453234	-1.079859	-0.006335	99
Es	0.935504	0.167565	-0.323914	99
Es	0.280352	1.101193	-0.035633	99
Es	-0.517549	-1.269953	-0.000940	99
Es	1.026932	-0.533803	-0.018248	99
Es	-0.678913	-1.748480	0.003720	99
Es	1.616351	-0.947290	-0.015419	99
Es	-0.622066	-1.348434	-0.000539	99
Es	-0.406035	1.296227	-0.035950	99
Es	-0.517563	-1.270097	-0.005625	99
Es	-0.817297	0.765005	0.269732	99
Es	-0.416159	-1.325226	-0.003072	99
Es	-0.806899	0.754317	-0.324871	99
Es	-2.022411	0.277796	-0.016687	99
Es	0.951775	0.169117	0.269904	99
Es	-0.604285	2.001752	-0.044209	99
Es	-0.513302	-1.135300	-0.002992	99
Es	-1.302892	0.250754	-0.019087	99
31
Properties=species:S:1:pos:R:3:Z:I:1 energy=-551.348726366172 field_type=dipole dipole="0.000000 0.000000 0.000000" charge=0
S	-0.517510	-1.270120	-0.002790	16
C	-1.302910	0.250960	-0.019090	6
C	-0.406050	1.296210	-0.035950	6
C	0.944970	0.841430	-0.035460	6
C	1.027070	-0.533650	-0.018250	6
H	-2.383010	0.303660	-0.015520	1
H	-0.704820	2.337390	-0.048050	1
H	1.812950	1.489750	-0.047140	1
H	1.919190	-1.144580	-0.013970	1
Es	0.930337	0.170176	-0.320294	99
Es	-0.798063	0.751979	-0.318767	99
Es	-2.022330	0.277722	-0.016898	99
Es	1.529630	1.283493	-0.043464	99
Es	-0.604120	2.001796	-0.044200	99
Es	-0.608557	-1.365073	0.000515	99
Es	-0.678909	-1.748605	0.003244	99
Es	0.944969	0.841452	-0.035450	99
Es	-0.517493	-1.270104	-0.003048	99
Es	0.280342	1.101204	-0.035085	99
Es	0.956799	0.167038	0.266180	99
Es	-0.536050	-1.137414	-0.005007	99
Es	-0.453369	-1.079948	-0.005740	99
Es	1.616236	-0.947220	-0.015382	99
Es	-1.302892	0.250755	-0.019090	99
Es	-0.407212	-1.306406	-0.004768	99
Es	-0.825749	0.766923	0.263339	99
Es	1.026932	-0.533802	-0.018248	99
Es	-0.957556	-0.498134	-0.011098	99
Es	0.299488	-0.921297	-0.009357	99
Es	-0.406033	1.296228	-0.035950	99
Es	-0.517423	-1.270091	-0.001411	99
31
Properties=species:S:1:pos:R:3:Z:I:1 energy=-551.348726366172 field_type=dipole dipole="0.000000 0.000000 0.000000" charge=0
S	-0.517510	-1.270120	-0.002790	16
C	-1.302910	0.250960	-0.019090	6
C	-0.406050	1.296210	-0.035950	6
C	0.944970	0.841430	-0.035460	6
C	1.027070	-0.533650	-0.018250	6
H	-2.383010	0.303660	-0.015520	1
H	-0.704820	2.337390	-0.048050	1
H	1.812950	1.489750	-0.047140	1
H	1.919190	-1.144580	-0.013970	1
Es	-0.453606	-1.080096	-0.005583	99
Es	0.927094	0.172044	-0.316884	99
Es	1.529560	1.283632	-0.043445	99
Es	0.280293	1.101030	-0.034915	99
Es	-0.829616	0.767693	0.258841	99
Es	-1.302892	0.250755	-0.019086	99
Es	0.960097	0.165677	0.262633	99
Es	-0.603882	2.001855	-0.044265	99
Es	-0.794080	0.750942	-0.314391	99
Es	-0.586356	-1.384280	-0.001419	99
Es	0.944969	0.841453	-0.035460	99
Es	-0.562040	-1.144992	-0.000357	99
Es	-2.022197	0.277661	-0.016975	99
Es	-0.406035	1.296227	-0.035951	99
Es	-0.403322	-1.279785	-0.004647	99
Es	-0.678903	-1.748668	0.003107	99
Es	-0.957541	-0.498221	-0.011136	99
Es	1.026932	-0.533802	-0.018246	99
Es	-0.517486	-1.270100	-0.001827	99
Es	-0.517562	-1.269873	-0.005254	99
Es	0.299462	-0.921346	-0.009390	99
Es	1.616089	-0.947134	-0.015324	99
31
Properties=species:S:1:pos:R:3:Z:I:1 energy=-551.348726366172 field_type=dipole dipole="0.000000 0.000000 0.000000" charge=0
S	-0.517510	-1.270120	-0.002790	16
C	-1.302910	0.250960	-0.019090	6
C	-0.406050	1.296210	-0.035950	6
C	0.944970	0.841430	-0.035460	6
C	1.027070	-0.533650	-0.018250	6
H	-2.383010	0.303660	-0.015520	1
H	-0.704820	2.337390	-0.048050	1
H	1.812950	1.489750	-0.047140	1
H	1.919190	-1.144580	-0.013970	1
Es	0.961073	0.156941	-0.311837	99
Es	-0.790697	0.758302	0.257902	99
Es	1.615994	-0.947098	-0.015043	99
Es	1.026931	-0.533803	-0.018248	99
Es	-0.517649	-1.270014	0.000681	99
Es	-0.425060	-1.173506	-0.005236	99
Es	-2.022094	0.277650	-0.016350	99
Es	-0.678396	-1.748858	0.005075	99
Es	-0.627485	-1.234420	-0.003011	99
Es	0.299417	-0.921421	-0.010985	99
Es	-0.832778	0.760769	-0.312451	99
Es	0.944969	0.841452	-0.035461	99
Es	1.529456	1.283767	-0.043362	99
Es	-0.499529	-1.400895	-0.003034	99
Es	-0.957483	-0.498248	-0.011553	99
Es	-0.406035	1.296227	-0.035953	99
Es	-0.517541	-1.270085	-0.003396	99
Es	-1.302892	0.250756	-0.019088	99
Es	0.925707	0.180629	0.258627	99
Es	-0.453383	-1.080290	-0.005679	99
Es	-0.603812	2.001933	-0.044084	99
Es	0.280262	1.100884	-0.037489	99
31
Properties=species:S:1:pos:R:3:Z:I:1 energy=-551.348726366172 field_type=dipole dipole="0.000000 0.000000 0.000000" charge=0
S	-0.517510	-1.270120	-0.002790	16
C	-1.302910	0.250960	-0.019090	6
C	-0.406050	1.296210	-0.035950	6
C	0.944970	0.841430	-0.035460	6
C	1.027070	-0.533650	-0.018250	6
H	-2.383010	0.303660	-0.015520	1
H	-0.704820	2.337390	-0.048050	1
H	1.812950	1.489750	-0.047140	1
H	1.919190	-1.144580	-0.013970	1
Es	-0.439823	-1.365921	-0.007871	99
Es	0.944969	0.841452	-0.035464	99
Es	-0.406035	1.296227	-0.035951	99
Es	-0.517485	-1.270145	-0.000662	99
Es	1.026932	-0.533803	-0.018247	99
Es	0.925212	0.180848	0.258397	99
Es	-2.021890	0.277634	-0.016236	99
Es	0.299272	-0.921424	-0.011605	99
Es	1.529343	1.283958	-0.043409	99
Es	-0.957475	-0.498329	-0.011071	99
Es	-0.835827	0.761696	-0.307446	99
Es	-0.517534	-1.270320	0.002777	99
Es	-0.473097	-1.142775	-0.003117	99
Es	-0.787169	0.757528	0.253034	99
Es	-1.302892	0.250755	-0.019087	99
Es	-0.603639	2.002006	-0.044160	99
Es	-0.453533	-1.080533	-0.005757	99
Es	0.961256	0.156818	-0.311582	99
Es	0.280225	1.100766	-0.037633	99
Es	-0.639093	-1.299856	-0.005551	99
Es	-0.678591	-1.748866	0.005754	99
Es	1.615851	-0.947043	-0.015087	99
31
Properties=species:S:1:pos:R:3:Z:I:1 energy=-551.348726366172 field_type=dipole dipole="0.000000 0.000000 0.000000" charge=0
S	-0.517510	-1.270120	-0.002790	16
C	-1.302910	0.250960	-0.019090	6
C	-0.406050	1.296210	-0.035950	6
C	0.944970	0.841430	-0.035460	6
C	1.027070	-0.533650	-0.018250	6
H	-2.383010	0.303660	-0.015520	1
H	-0.704820	2.337390	-0.048050	1
H	1.812950	1.489750	-0.047140	1
H	1.919190	-1.144580	-0.013970	1
Es	-2.021991	0.277655	-0.016855	99
Es	-0.678302	-1.748975	0.002657	99
Es	1.615887	-0.947053	-0.015648	99
Es	0.280262	1.100855	-0.034470	99
Es	-0.957525	-0.498320	-0.009688	99
Es	0.944969	0.841453	-0.035462	99
Es	-0.603705	2.001957	-0.044171	99
Es	-0.453576	-1.080508	-0.004847	99
Es	0.919801	0.175224	-0.306391	99
Es	-0.517495	-1.270075	-0.002859	99
Es	-0.406035	1.296227	-0.035949	99
Es	1.529404	1.283896	-0.043437	99
Es	0.966937	0.162662	0.251993	99
Es	0.299329	-0.921366	-0.009924	99
Es	-0.832834	0.768516	0.253813	99
Es	-1.302893	0.250757	-0.019088	99
Es	-0.488252	-1.398234	0.002976	99
Es	-0.436820	-1.161492	-0.007657	99
Es	-0.517544	-1.270223	-0.005688	99
Es	-0.627206	-1.248780	-0.001529	99
Es	1.026932	-0.533803	-0.018248	99
Es	-0.790364	0.750298	-0.309503	99
31
Properties=species:S:1:pos:R:3:Z:I:1 energy=-551.348726366172 field_type=dipole dipole="0.000000 0.000000 0.000000" charge=0
S	-0.517510	-1.270120	-0.002790	16
C	-1.302910	0.250960	-0.019090	6
C	-0.406050	1.296210	-0.035950	6
C	0.944970	0.841430	-0.035460	6
C	1.027070	-0.533650	-0.018250	6
H	-2.383010	0.303660	-0.015520	1
H	-0.704820	2.337390	-0.048050	1
H	1.812950	1.489750	-0.047140	1
H	1.919190	-1.144580	-0.013970	1
Es	-0.453647	-1.080536	-0.005971	99
Es	-0.517514	-1.270099	-0.003576	99
Es	1.529380	1.283950	-0.043316	99
Es	-0.599337	-1.375007	0.000326	99
Es	-0.603622	2.002007	-0.044022	99
Es	-0.544909	-1.139059	-0.003747	99
Es	-0.957435	-0.498351	-0.011034	99
Es	-0.838274	0.762295	-0.302927	99
Es	0.963496	0.155992	-0.307820	99
Es	1.026932	-0.533802	-0.018247	99
Es	-0.784714	0.756721	0.248559	99
Es	-0.406035	1.296227	-0.035951	99
Es	0.280208	1.100715	-0.037781	99
Es	-2.021898	0.277623	-0.016255	99
Es	-1.302892	0.250755	-0.019088	99
Es	0.944969	0.841452	-0.035461	99
Es	0.923069	0.181938	0.254724	99
Es	0.299313	-0.921440	-0.011621	99
Es	-0.517511	-1.270118	-0.004104	99
Es	-0.407509	-1.294788	-0.003010	99
Es	-0.678926	-1.748774	0.005526	99
Es	1.615834	-0.947028	-0.015182	99
31
Properties=species:S:1:pos:R:3:Z:I:1 energy=-551.348726366172 field_type=dipole dipole="0.000000 0.000000 0.000000" charge=0
S	-0.517510	-1.270120	-0.002790	16
C	-1.302910	0.250960	-0.019090	6
C	-0.406050	1.296210	-0.035950	6
C	0.944970	0.841430	-0.035460	6
C	1.027070	-0.533650	-0.018250	6
H	-2.383010	0.303660	-0.015520	1
H	-0.704820	2.337390	-0.048050	1
H	1.812950	1.489750	-0.047140	1
H	1.919190	-1.144580	-0.013970	1
Es	-0.517436	-1.270125	-0.001721	99
Es	1.615817	-0.947051	-0.015305	99
Es	-0.453752	-1.080527	-0.004675	99
Es	-2.021850	0.277596	-0.017140	99
Es	1.026932	-0.533803	-0.018238	99
Es	-0.678986	-1.748798	0.002486	99
Es	-0.839847	0.770280	0.240078	99
Es	-0.406035	1.296227	-0.035948	99
Es	-0.783001	0.749218	-0.295846	99
Es	0.922983	0.173477	-0.312331	99
Es	0.944969	0.841453	-0.035460	99
Es	-0.957408	-0.498395	-0.011168	99
Es	-0.603566	2.002027	-0.044288	99
Es	0.299336	-0.921376	-0.009059	99
Es	-1.302892	0.250755	-0.019089	99
Es	-0.414172	-1.307719	0.007885	99
Es	-0.517263	-1.270193	-0.005125	99
Es	0.280244	1.100689	-0.034525	99
Es	-0.527537	-1.135978	-0.008363	99
Es	0.963430	0.163968	0.257989	99
Es	-0.610295	-1.365073	-0.006686	99
Es	1.529305	1.284021	-0.043445	99
31
Properties=species:S:1:pos:R:3:Z:I:1 energy=-551.348726366172 field_type=dipole dipole="0.000000 0.000000 0.000000" charge=0
S	-0.517510	-1.270120	-0.002790	16
C	-1.302910	0.250960	-0.019090	6
C	-0.406050	1.296210	-0.035950	6
C	0.944970	0.841430	-0.035460	6
C	1.027070	-0.533650	-0.018250	6
H	-2.383010	0.303660	-0.015520	1
H	-0.704820	2.337390	-0.048050	1
H	1.812950	1.489750	-0.047140	1
H	1.919190	-1.144580	-0.013970	1
Es	0.299265	-0.921444	-0.010882	99
Es	0.918724	0.183567	0.246934	99
Es	-0.525718	-1.135618	-0.002925	99
Es	0.967597	0.154257	-0.299847	99
Es	-0.837745	0.762212	-0.303989	99
Es	1.529288	1.284041	-0.043277	99
Es	-0.678906	-1.748802	0.005425	99
Es	-0.603540	2.002045	-0.044078	99
Es	-0.785104	0.757014	0.249646	99
Es	-0.517424	-1.270212	-0.009459	99
Es	1.615755	-0.947005	-0.015008	99
Es	-0.414613	-1.309280	0.000719	99
Es	1.026933	-0.533802	-0.018248	99
Es	-1.302892	0.250755	-0.019082	99
Es	-2.021795	0.277636	-0.016367	99
Es	0.280191	1.100706	-0.038092	99
Es	-0.517540	-1.270053	-0.002278	99
Es	-0.453479	-1.080666	-0.005885	99
Es	-0.406035	1.296227	-0.035950	99
Es	0.944969	0.841453	-0.035462	99
Es	-0.957462	-0.498412	-0.011815	99
Es	-0.611490	-1.363945	-0.000055	99
31
Properties=species:S:1:pos:R:3:Z:I:1 energy=-551.348726366172 field_type=dipole dipole="0.000000 0.000000 0.000000" charge=0
S	-0.517510	-1.270120	-0.002790	16
C	-1.302910	0.250960	-0.019090	6
C	-0.406050	1.296210	-0.035950	6
C	0.944970	0.841430	-0.035460	6
C	1.027070	-0.533650	-0.018250	6
H	-2.383010	0.303660	-0.015520	1
H	-0.704820	2.337390	-0.048050	1
H	1.812950	1.489750	-0.047140	1
H	1.919190	-1.144580	-0.013970	1
Es	-0.678977	-1.748805	0.004683	99
Es	1.026932	-0.533802	-0.018249	99
Es	0.919482	0.183568	0.247996	99
Es	-0.783171	0.756317	0.245887	99
Es	0.299300	-0.921519	-0.011351	99
Es	-0.453671	-1.080652	-0.005003	99
Es	1.529318	1.284044	-0.043313	99
Es	-0.413378	-1.297481	-0.002902	99
Es	1.615760	-0.946931	-0.015102	99
Es	-0.517503	-1.270100	-0.002739	99
Es	-0.406035	1.296227	-0.035951	99
Es	-0.517489	-1.270070	-0.002565	99
Es	-0.600006	-1.374643	0.002141	99
Es	-0.957420	-0.498415	-0.011580	99
Es	-2.021774	0.277570	-0.016343	99
Es	-0.839671	0.762617	-0.300193	99
Es	-0.538403	-1.136767	-0.007899	99
Es	0.966923	0.154539	-0.301123	99
Es	0.280204	1.100739	-0.037750	99
Es	-0.603521	2.002031	-0.044077	99
Es	-1.302892	0.250754	-0.019089	99
Es	0.944969	0.841453	-0.035454	99
31
Properties=species:S:1:pos:R:3:Z:I:1 energy=-551.348726366172 field_type=dipole dipole="0.000000 0.000000 0.000000" charge=0
S	-0.517510	-1.270120	-0.002790	16
C	-1.302910	0.250960	-0.019090	6
C	-0.406050	1.296210	-0.035950	6
C	0.944970	0.841430	-0.035460	6
C	1.027070	-0.533650	-0.018250	6
H	-2.383010	0.303660	-0.015520	1
H	-0.704820	2.337390	-0.048050	1
H	1.812950	1.489750	-0.047140	1
H	1.919190	-1.144580	-0.013970	1
Es	-0.428824	-1.168273	-0.005819	99
Es	1.026931	-0.533803	-0.018249	99
Es	0.299186	-0.921422	-0.010129	99
Es	-1.302892	0.250755	-0.019090	99
Es	-0.678309	-1.749044	0.005236	99
Es	-0.517513	-1.270088	-0.002595	99
Es	-0.406035	1.296226	-0.035947	99
Es	-0.603454	2.002075	-0.044150	99
Es	0.280199	1.100597	-0.037938	99
Es	-0.786397	0.757317	0.252202	99
Es	0.915352	0.185150	0.239356	99
Es	-0.517511	-1.270107	-0.002978	99
Es	-2.021701	0.277575	-0.016557	99
Es	-0.453461	-1.080924	-0.004882	99
Es	1.615649	-0.946959	-0.014731	99
Es	-0.623178	-1.238775	-0.002024	99
Es	1.529251	1.284148	-0.043236	99
Es	0.970879	0.153084	-0.292364	99
Es	-0.957438	-0.498472	-0.012838	99
Es	-0.836332	0.761734	-0.306627	99
Es	0.944969	0.841452	-0.035457	99
Es	-0.500397	-1.401574	-0.001161	99
31
Properties=species:S:1:pos:R:3:Z:I:1 energy=-551.348726366172 field_type=dipole dipole="0.000000 0.000000 0.000000" charge=0
S	-0.517510	-1.270120	-0.002790	16
C	-1.302910	0.250960	-0.019090	6
C	-0.406050	1.296210	-0.035950	6
C	0.944970	0.841430	-0.035460	6
C	1.027070	-0.533650	-0.018250	6
H	-2.383010	0.303660	-0.015520	1
H	-0.704820	2.337390	-0.048050	1
H	1.812950	1.489750	-0.047140	1
H	1.919190	-1.144580	-0.013970	1
Es	0.944967	0.841452	-0.035458	99
Es	0.280188	1.100696	-0.034169	99
Es	0.916453	0.176451	-0.301060	99
Es	0.299243	-0.921493	-0.009267	99
Es	1.529209	1.284152	-0.043428	99
Es	-0.513517	-1.403187	0.009127	99
Es	-0.783141	0.749308	-0.296992	99
Es	-0.406035	1.296227	-0.035948	99
Es	-0.957463	-0.498437	-0.010241	99
Es	-0.421150	-1.176460	-0.006248	99
Es	1.026932	-0.533802	-0.018247	99
Es	-0.678404	-1.749075	0.001742	99
Es	-2.021650	0.277585	-0.016984	99
Es	-0.453567	-1.081105	-0.003234	99
Es	-0.517791	-1.270543	-0.010823	99
Es	1.615644	-0.946961	-0.015572	99
Es	-0.839377	0.770170	0.241179	99
Es	-0.517354	-1.270258	-0.005427	99
Es	-1.302892	0.250755	-0.019087	99
Es	-0.603399	2.002081	-0.044229	99
Es	0.969584	0.161294	0.246506	99
Es	-0.617504	-1.228174	-0.002113	99
