51
Properties=species:S:1:pos:R:3:Z:I:1 energy=-290.45390370797065 field_type=dipole dipole="0.000000 0.000000 0.000000" charge=0
C	-1.419487	-1.651173	-1.332540	6
C	-0.131987	-1.450173	-0.545050	6
C	0.312753	0.026217	-0.431580	6
C	-0.764137	0.943137	0.189600	6
C	-1.157567	0.592907	1.618790	6
N	1.584093	0.042027	0.317030	7
C	2.247943	1.339087	0.302220	6
H	-1.600727	-2.720063	-1.486330	1
H	-1.359977	-1.172983	-2.315070	1
H	-2.284857	-1.247383	-0.798960	1
H	0.658343	-2.022833	-1.048660	1
H	-0.248767	-1.898063	0.449410	1
H	0.507563	0.383177	-1.452400	1
H	-1.663647	0.928907	-0.436880	1
H	-0.422057	1.984667	0.166590	1
H	-1.605627	-0.402873	1.678940	1
H	-1.898257	1.310547	1.986130	1
H	-0.297057	0.628387	2.293030	1
H	2.216753	-0.648233	-0.088320	1
H	1.697633	2.083397	0.884680	1
H	2.394333	1.709117	-0.717240	1
H	3.234743	1.242197	0.766610	1
Es	-0.954685	0.755227	0.908043	99
Es	-1.419459	-1.651166	-1.332543	99
Es	1.528895	-0.033323	0.611465	99
Es	-0.132039	-1.450165	-0.545015	99
Es	-1.373663	-1.321725	-2.005072	99
Es	-1.536946	-2.378444	-1.435670	99
Es	-0.763550	0.943328	0.189646	99
Es	1.580200	0.033867	0.339686	99
Es	-1.461725	-0.085923	1.654332	99
Es	-0.573953	0.617560	2.074023	99
Es	0.312868	0.026244	-0.431457	99
Es	-1.667168	1.085433	1.865310	99
Es	1.972632	-0.368088	0.053488	99
Es	0.416801	-1.835603	-0.893752	99
Es	1.038614	0.049000	-0.022170	99
Es	-0.214774	-1.751441	0.134981	99
Es	-1.157435	0.593018	1.618064	99
Es	-0.522547	1.653279	0.173346	99
Es	-1.375423	0.922495	-0.243647	99
Es	-0.225186	0.481336	-0.102758	99
Es	-0.785816	-1.541014	-0.945190	99
Es	2.924305	1.269960	0.614756	99
Es	2.343478	1.598522	-0.405400	99
Es	2.247835	1.338946	0.302241	99
Es	1.864240	0.617859	0.287234	99
Es	0.443590	0.278060	-1.146630	99
Es	1.866373	1.846812	0.693333	99
Es	0.076640	-0.711302	-0.483629	99
Es	-2.010255	-1.371979	-0.964223	99
51
Properties=species:S:1:pos:R:3:Z:I:1 energy=-290.45390370797065 field_type=dipole dipole="0.000000 0.000000 0.000000" charge=0
C	-1.419487	-1.651173	-1.332540	6
C	-0.131987	-1.450173	-0.545050	6
C	0.312753	0.026217	-0.431580	6
C	-0.764137	0.943137	0.189600	6
C	-1.157567	0.592907	1.618790	6
N	1.584093	0.042027	0.317030	7
C	2.247943	1.339087	0.302220	6
H	-1.600727	-2.720063	-1.486330	1
H	-1.359977	-1.172983	-2.315070	1
H	-2.284857	-1.247383	-0.798960	1
H	0.658343	-2.022833	-1.048660	1
H	-0.248767	-1.898063	0.449410	1
H	0.507563	0.383177	-1.452400	1
H	-1.663647	0.928907	-0.436880	1
H	-0.422057	1.984667	0.166590	1
H	-1.605627	-0.402873	1.678940	1
H	-1.898257	1.310547	1.986130	1
H	-0.297057	0.628387	2.293030	1
H	2.216753	-0.648233	-0.088320	1
H	1.697633	2.083397	0.884680	1
H	2.394333	1.709117	-0.717240	1
H	3.234743	1.242197	0.766610	1
Es	-0.223771	0.479757	-0.105477	99
Es	2.345017	1.599407	-0.406575	99
Es	0.075761	-0.711883	-0.483908	99
Es	-0.782064	-1.539464	-0.944162	99
Es	-0.216015	-1.750954	0.134696	99
Es	-0.764601	0.943222	0.189394	99
Es	-0.959002	0.755690	0.913617	99
Es	1.523220	-0.046246	0.638933	99
Es	2.247664	1.338562	0.302222	99
Es	-1.461808	-0.085037	1.654391	99
Es	-1.540130	-2.379204	-1.436343	99
Es	-2.007146	-1.373189	-0.967106	99
Es	-1.371505	0.925137	-0.241240	99
Es	1.043872	0.055596	-0.025101	99
Es	-0.131463	-1.450106	-0.545444	99
Es	1.967338	-0.366768	0.047241	99
Es	-1.419946	-1.650901	-1.332245	99
Es	2.921646	1.270136	0.614781	99
Es	-0.575615	0.617890	2.076440	99
Es	1.582676	0.040351	0.323817	99
Es	0.311978	0.023488	-0.431694	99
Es	0.442219	0.279444	-1.144405	99
Es	-1.155733	0.594189	1.611454	99
Es	0.417394	-1.835408	-0.892326	99
Es	-1.376705	-1.321113	-2.004215	99
Es	1.866511	1.846290	0.694578	99
Es	-0.521938	1.653931	0.172734	99
Es	1.869673	0.616399	0.283466	99
Es	-1.665682	1.081557	1.865268	99
51
Properties=species:S:1:pos:R:3:Z:I:1 energy=-290.45390370797065 field_type=dipole dipole="0.000000 0.000000 0.000000" charge=0
C	-1.419487	-1.651173	-1.332540	6
C	-0.131987	-1.450173	-0.545050	6
C	0.312753	0.026217	-0.431580	6
C	-0.764137	0.943137	0.189600	6
C	-1.157567	0.592907	1.618790	6
N	1.584093	0.042027	0.317030	7
C	2.247943	1.339087	0.302220	6
H	-1.600727	-2.720063	-1.486330	1
H	-1.359977	-1.172983	-2.315070	1
H	-2.284857	-1.247383	-0.798960	1
H	0.658343	-2.022833	-1.048660	1
H	-0.248767	-1.898063	0.449410	1
H	0.507563	0.383177	-1.452400	1
H	-1.663647	0.928907	-0.436880	1
H	-0.422057	1.984667	0.166590	1
H	-1.605627	-0.402873	1.678940	1
H	-1.898257	1.310547	1.986130	1
H	-0.297057	0.628387	2.293030	1
H	2.216753	-0.648233	-0.088320	1
H	1.697633	2.083397	0.884680	1
H	2.394333	1.709117	-0.717240	1
H	3.234743	1.242197	0.766610	1
Es	-0.957395	0.757370	0.906819	99
Es	-1.662532	1.085530	1.866969	99
Es	-0.213828	-1.752641	0.132823	99
Es	-0.788399	-1.540590	-0.946011	99
Es	-1.375544	0.923597	-0.243725	99
Es	-0.522211	1.652439	0.172801	99
Es	-1.374207	-1.324397	-1.992010	99
Es	1.968358	-0.362127	0.046187	99
Es	-0.764141	0.943070	0.189695	99
Es	2.923308	1.269605	0.616267	99
Es	2.343812	1.600644	-0.406501	99
Es	1.862727	0.613934	0.282487	99
Es	0.444491	0.278768	-1.145833	99
Es	-1.157569	0.592939	1.618699	99
Es	0.312811	0.026053	-0.431776	99
Es	-2.008256	-1.372277	-0.965889	99
Es	-0.573998	0.618832	2.070706	99
Es	1.588064	0.037749	0.314120	99
Es	2.247929	1.339091	0.302076	99
Es	-1.538028	-2.381561	-1.437349	99
Es	-0.131976	-1.450120	-0.545093	99
Es	0.418411	-1.833209	-0.892951	99
Es	1.043531	0.055846	-0.021921	99
Es	1.867313	1.844657	0.693493	99
Es	-1.418860	-1.645917	-1.343273	99
Es	-0.223364	0.479931	-0.104144	99
Es	1.520451	-0.045219	0.648890	99
Es	-1.464087	-0.088011	1.657573	99
Es	0.075035	-0.713216	-0.480337	99
51
Properties=species:S:1:pos:R:3:Z:I:1 energy=-290.45390370797065 field_type=dipole dipole="0.000000 0.000000 0.000000" charge=0
C	-1.419487	-1.651173	-1.332540	6
C	-0.131987	-1.450173	-0.545050	6
C	0.312753	0.026217	-0.431580	6
C	-0.764137	0.943137	0.189600	6
C	-1.157567	0.592907	1.618790	6
N	1.584093	0.042027	0.317030	7
C	2.247943	1.339087	0.302220	6
H	-1.600727	-2.720063	-1.486330	1
H	-1.359977	-1.172983	-2.315070	1
H	-2.284857	-1.247383	-0.798960	1
H	0.658343	-2.022833	-1.048660	1
H	-0.248767	-1.898063	0.449410	1
H	0.507563	0.383177	-1.452400	1
H	-1.663647	0.928907	-0.436880	1
H	-0.422057	1.984667	0.166590	1
H	-1.605627	-0.402873	1.678940	1
H	-1.898257	1.310547	1.986130	1
H	-0.297057	0.628387	2.293030	1
H	2.216753	-0.648233	-0.088320	1
H	1.697633	2.083397	0.884680	1
H	2.394333	1.709117	-0.717240	1
H	3.234743	1.242197	0.766610	1
Es	-1.157858	0.593494	1.618635	99
Es	1.584279	0.041540	0.317593	99
Es	-1.377336	-1.322031	-2.002387	99
Es	0.417812	-1.835831	-0.892491	99
Es	-0.782900	-1.538994	-0.943281	99
Es	-1.461632	-0.087340	1.652729	99
Es	1.865887	1.845843	0.692903	99
Es	-0.131930	-1.449771	-0.544858	99
Es	-0.763375	0.942494	0.189220	99
Es	-2.007902	-1.372329	-0.967894	99
Es	0.442227	0.277668	-1.142672	99
Es	0.076340	-0.712571	-0.482916	99
Es	-1.376559	0.924773	-0.242967	99
Es	-1.419459	-1.651130	-1.332658	99
Es	-0.224765	0.480861	-0.104029	99
Es	2.343743	1.599247	-0.405447	99
Es	-0.521760	1.652840	0.174818	99
Es	-0.214263	-1.751178	0.131737	99
Es	-1.667112	1.086535	1.865543	99
Es	1.051877	0.057187	-0.031308	99
Es	-0.948850	0.757087	0.907854	99
Es	2.924228	1.270160	0.615936	99
Es	1.514414	-0.049954	0.648429	99
Es	-1.540679	-2.379681	-1.437224	99
Es	1.966213	-0.366614	0.049508	99
Es	0.313057	0.026586	-0.432504	99
Es	1.870394	0.617544	0.284092	99
Es	-0.579774	0.615979	2.074256	99
Es	2.247531	1.338361	0.302177	99
51
Properties=species:S:1:pos:R:3:Z:I:1 energy=-290.45390370797065 field_type=dipole dipole="0.000000 0.000000 0.000000" charge=0
C	-1.419487	-1.651173	-1.332540	6
C	-0.131987	-1.450173	-0.545050	6
C	0.312753	0.026217	-0.431580	6
C	-0.764137	0.943137	0.189600	6
C	-1.157567	0.592907	1.618790	6
N	1.584093	0.042027	0.317030	7
C	2.247943	1.339087	0.302220	6
H	-1.600727	-2.720063	-1.486330	1
H	-1.359977	-1.172983	-2.315070	1
H	-2.284857	-1.247383	-0.798960	1
H	0.658343	-2.022833	-1.048660	1
H	-0.248767	-1.898063	0.449410	1
H	0.507563	0.383177	-1.452400	1
H	-1.663647	0.928907	-0.436880	1
H	-0.422057	1.984667	0.166590	1
H	-1.605627	-0.402873	1.678940	1
H	-1.898257	1.310547	1.986130	1
H	-0.297057	0.628387	2.293030	1
H	2.216753	-0.648233	-0.088320	1
H	1.697633	2.083397	0.884680	1
H	2.394333	1.709117	-0.717240	1
H	3.234743	1.242197	0.766610	1
Es	-1.374614	0.924532	-0.241150	99
Es	2.344446	1.599672	-0.407073	99
Es	-0.224104	0.477785	-0.104840	99
Es	0.076130	-0.708695	-0.483380	99
Es	-1.418963	-1.651480	-1.332228	99
Es	2.247304	1.339058	0.302615	99
Es	-1.461770	-0.087009	1.657598	99
Es	0.312656	0.025730	-0.431520	99
Es	-1.539916	-2.377952	-1.436630	99
Es	1.047909	0.053087	-0.027964	99
Es	-0.579220	0.619697	2.073262	99
Es	-0.764453	0.942849	0.190946	99
Es	-0.214964	-1.753565	0.134094	99
Es	-0.522594	1.654600	0.174760	99
Es	-0.952552	0.753682	0.902925	99
Es	-1.665922	1.085567	1.861799	99
Es	1.576915	0.034190	0.345327	99
Es	-1.156944	0.594264	1.620888	99
Es	-0.131970	-1.450159	-0.545054	99
Es	1.869534	0.619346	0.282077	99
Es	2.922971	1.270461	0.617408	99
Es	-1.375907	-1.321385	-2.004040	99
Es	0.415950	-1.834941	-0.894687	99
Es	-2.008575	-1.372425	-0.966699	99
Es	0.444859	0.278406	-1.146328	99
Es	1.524403	-0.042711	0.622348	99
Es	-0.781430	-1.541035	-0.942393	99
Es	1.866378	1.844067	0.692039	99
Es	1.966290	-0.364862	0.048695	99
51
Properties=species:S:1:pos:R:3:Z:I:1 energy=-290.45390370797065 field_type=dipole dipole="0.000000 0.000000 0.000000" charge=0
C	-1.419487	-1.651173	-1.332540	6
C	-0.131987	-1.450173	-0.545050	6
C	0.312753	0.026217	-0.431580	6
C	-0.764137	0.943137	0.189600	6
C	-1.157567	0.592907	1.618790	6
N	1.584093	0.042027	0.317030	7
C	2.247943	1.339087	0.302220	6
H	-1.600727	-2.720063	-1.486330	1
H	-1.359977	-1.172983	-2.315070	1
H	-2.284857	-1.247383	-0.798960	1
H	0.658343	-2.022833	-1.048660	1
H	-0.248767	-1.898063	0.449410	1
H	0.507563	0.383177	-1.452400	1
H	-1.663647	0.928907	-0.436880	1
H	-0.422057	1.984667	0.166590	1
H	-1.605627	-0.402873	1.678940	1
H	-1.898257	1.310547	1.986130	1
H	-0.297057	0.628387	2.293030	1
H	2.216753	-0.648233	-0.088320	1
H	1.697633	2.083397	0.884680	1
H	2.394333	1.709117	-0.717240	1
H	3.234743	1.242197	0.766610	1
Es	0.417414	-1.834810	-0.895014	99
Es	-2.006289	-1.373182	-0.967471	99
Es	-0.213726	-1.750997	0.135648	99
Es	-1.662051	1.086837	1.867980	99
Es	0.442235	0.278892	-1.145817	99
Es	-0.955330	0.756580	0.898185	99
Es	0.076823	-0.713717	-0.484149	99
Es	-1.157792	0.592977	1.618840	99
Es	-0.576504	0.617991	2.069780	99
Es	2.341959	1.597264	-0.405007	99
Es	-1.540506	-2.378600	-1.436808	99
Es	2.247923	1.338853	0.301936	99
Es	-0.131977	-1.450064	-0.545062	99
Es	1.524087	-0.049704	0.648366	99
Es	-0.521713	1.654602	0.175033	99
Es	-0.764941	0.942376	0.193802	99
Es	1.041757	0.055443	-0.023425	99
Es	-0.224868	0.476381	-0.104012	99
Es	2.924399	1.270668	0.612614	99
Es	0.312998	0.026287	-0.431722	99
Es	-0.782901	-1.540887	-0.941874	99
Es	1.868750	0.617367	0.284147	99
Es	1.584001	0.042093	0.316470	99
Es	-1.421102	-1.650578	-1.331678	99
Es	1.866211	1.847429	0.694347	99
Es	-1.376055	-1.321005	-2.004020	99
Es	-1.463775	-0.088130	1.658660	99
Es	-1.374918	0.925059	-0.241136	99
Es	1.967737	-0.364652	0.044180	99
51
Properties=species:S:1:pos:R:3:Z:I:1 energy=-290.45390370797065 field_type=dipole dipole="0.000000 0.000000 0.000000" charge=0
C	-1.419487	-1.651173	-1.332540	6
C	-0.131987	-1.450173	-0.545050	6
C	0.312753	0.026217	-0.431580	6
C	-0.764137	0.943137	0.189600	6
C	-1.157567	0.592907	1.618790	6
N	1.584093	0.042027	0.317030	7
C	2.247943	1.339087	0.302220	6
H	-1.600727	-2.720063	-1.486330	1
H	-1.359977	-1.172983	-2.315070	1
H	-2.284857	-1.247383	-0.798960	1
H	0.658343	-2.022833	-1.048660	1
H	-0.248767	-1.898063	0.449410	1
H	0.507563	0.383177	-1.452400	1
H	-1.663647	0.928907	-0.436880	1
H	-0.422057	1.984667	0.166590	1
H	-1.605627	-0.402873	1.678940	1
H	-1.898257	1.310547	1.986130	1
H	-0.297057	0.628387	2.293030	1
H	2.216753	-0.648233	-0.088320	1
H	1.697633	2.083397	0.884680	1
H	2.394333	1.709117	-0.717240	1
H	3.234743	1.242197	0.766610	1
Es	-1.375091	0.925628	-0.241734	99
Es	2.342660	1.600583	-0.404151	99
Es	-1.455617	-0.079557	1.655293	99
Es	1.869560	1.845246	0.695014	99
Es	0.312536	0.025239	-0.431595	99
Es	0.443493	0.279871	-1.144239	99
Es	0.410243	-1.833012	-0.888933	99
Es	-1.419522	-1.651127	-1.332507	99
Es	1.968457	-0.359841	0.041981	99
Es	2.923211	1.269062	0.612232	99
Es	2.247396	1.340028	0.302734	99
Es	-0.781381	-1.539333	-0.942379	99
Es	0.076813	-0.710355	-0.483779	99
Es	-0.222704	0.477176	-0.104540	99
Es	-0.955850	0.756001	0.904463	99
Es	-1.540542	-2.381430	-1.437216	99
Es	-1.669173	1.084425	1.865096	99
Es	-0.126548	-1.453811	-0.548615	99
Es	-1.377663	-1.320919	-2.002224	99
Es	1.582277	0.039838	0.326720	99
Es	1.517788	-0.050425	0.652672	99
Es	-0.575500	0.620219	2.073458	99
Es	-1.160650	0.585617	1.619584	99
Es	1.052710	0.054768	-0.028699	99
Es	-0.521350	1.653661	0.174485	99
Es	1.862328	0.614479	0.275745	99
Es	-0.215058	-1.751793	0.131670	99
Es	-2.006716	-1.372470	-0.967693	99
Es	-0.764260	0.943008	0.189951	99
51
Properties=species:S:1:pos:R:3:Z:I:1 energy=-290.45390370797065 field_type=dipole dipole="0.000000 0.000000 0.000000" charge=0
C	-1.419487	-1.651173	-1.332540	6
C	-0.131987	-1.450173	-0.545050	6
C	0.312753	0.026217	-0.431580	6
C	-0.764137	0.943137	0.189600	6
C	-1.157567	0.592907	1.618790	6
N	1.584093	0.042027	0.317030	7
C	2.247943	1.339087	0.302220	6
H	-1.600727	-2.720063	-1.486330	1
H	-1.359977	-1.172983	-2.315070	1
H	-2.284857	-1.247383	-0.798960	1
H	0.658343	-2.022833	-1.048660	1
H	-0.248767	-1.898063	0.449410	1
H	0.507563	0.383177	-1.452400	1
H	-1.663647	0.928907	-0.436880	1
H	-0.422057	1.984667	0.166590	1
H	-1.605627	-0.402873	1.678940	1
H	-1.898257	1.310547	1.986130	1
H	-0.297057	0.628387	2.293030	1
H	2.216753	-0.648233	-0.088320	1
H	1.697633	2.083397	0.884680	1
H	2.394333	1.709117	-0.717240	1
H	3.234743	1.242197	0.766610	1
Es	0.417655	-1.838398	-0.894219	99
Es	0.312791	0.026260	-0.431408	99
Es	-2.006007	-1.372138	-0.968938	99
Es	1.964761	-0.377771	0.065610	99
Es	-0.764091	0.943149	0.189611	99
Es	-1.462086	-0.087172	1.656829	99
Es	2.245567	1.341509	0.304170	99
Es	1.868700	1.842728	0.695563	99
Es	-1.157515	0.593181	1.618699	99
Es	-0.522073	1.650490	0.175471	99
Es	2.921479	1.269639	0.612256	99
Es	0.442403	0.279233	-1.146228	99
Es	1.515820	-0.032464	0.622854	99
Es	-1.419464	-1.651170	-1.332528	99
Es	-0.780125	-1.539818	-0.939290	99
Es	-1.665172	1.085205	1.866188	99
Es	1.876485	0.614889	0.277217	99
Es	2.343387	1.600504	-0.406733	99
Es	1.050582	0.056531	-0.031700	99
Es	-0.954021	0.755754	0.905410	99
Es	-0.217110	-1.750850	0.132636	99
Es	-1.543072	-2.378662	-1.435989	99
Es	-0.132078	-1.450197	-0.545180	99
Es	1.580675	0.037691	0.334586	99
Es	-0.223176	0.477411	-0.106642	99
Es	-1.376118	0.928611	-0.241133	99
Es	0.076512	-0.710763	-0.482545	99
Es	-0.576576	0.618597	2.072758	99
Es	-1.376285	-1.321206	-2.004533	99
51
Properties=species:S:1:pos:R:3:Z:I:1 energy=-290.45390370797065 field_type=dipole dipole="0.000000 0.000000 0.000000" charge=0
C	-1.419487	-1.651173	-1.332540	6
C	-0.131987	-1.450173	-0.545050	6
C	0.312753	0.026217	-0.431580	6
C	-0.764137	0.943137	0.189600	6
C	-1.157567	0.592907	1.618790	6
N	1.584093	0.042027	0.317030	7
C	2.247943	1.339087	0.302220	6
H	-1.600727	-2.720063	-1.486330	1
H	-1.359977	-1.172983	-2.315070	1
H	-2.284857	-1.247383	-0.798960	1
H	0.658343	-2.022833	-1.048660	1
H	-0.248767	-1.898063	0.449410	1
H	0.507563	0.383177	-1.452400	1
H	-1.663647	0.928907	-0.436880	1
H	-0.422057	1.984667	0.166590	1
H	-1.605627	-0.402873	1.678940	1
H	-1.898257	1.310547	1.986130	1
H	-0.297057	0.628387	2.293030	1
H	2.216753	-0.648233	-0.088320	1
H	1.697633	2.083397	0.884680	1
H	2.394333	1.709117	-0.717240	1
H	3.234743	1.242197	0.766610	1
Es	-0.220704	0.477555	-0.100883	99
Es	-1.535676	-2.378906	-1.434944	99
Es	2.923583	1.270407	0.616306	99
Es	0.076696	-0.710521	-0.483336	99
Es	-1.378718	-1.320041	-2.005486	99
Es	-0.765643	0.943129	0.188408	99
Es	-1.422574	-1.648793	-1.328932	99
Es	0.441403	0.280818	-1.144803	99
Es	1.049116	0.055224	-0.027332	99
Es	-1.157195	0.592985	1.618768	99
Es	1.517687	-0.046744	0.646845	99
Es	-0.955595	0.761578	0.906141	99
Es	2.345581	1.595873	-0.404808	99
Es	-0.131928	-1.450228	-0.545224	99
Es	-0.215244	-1.751142	0.131306	99
Es	-0.525995	1.653765	0.172651	99
Es	1.871111	0.617548	0.282504	99
Es	1.864068	1.848523	0.691195	99
Es	1.582671	0.042455	0.316183	99
Es	-1.461253	-0.088978	1.653763	99
Es	0.418264	-1.836550	-0.893178	99
Es	-1.665826	1.083413	1.867633	99
Es	-1.371572	0.922093	-0.241198	99
Es	2.247845	1.339058	0.302275	99
Es	-2.004260	-1.379748	-0.970163	99
Es	-0.577645	0.618291	2.073058	99
Es	0.312788	0.026238	-0.431364	99
Es	-0.785625	-1.537145	-0.942834	99
Es	1.966488	-0.369385	0.050239	99
51
Properties=species:S:1:pos:R:3:Z:I:1 energy=-290.45390370797065 field_type=dipole dipole="0.000000 0.000000 0.000000" charge=0
C	-1.419487	-1.651173	-1.332540	6
C	-0.131987	-1.450173	-0.545050	6
C	0.312753	0.026217	-0.431580	6
C	-0.764137	0.943137	0.189600	6
C	-1.157567	0.592907	1.618790	6
N	1.584093	0.042027	0.317030	7
C	2.247943	1.339087	0.302220	6
H	-1.600727	-2.720063	-1.486330	1
H	-1.359977	-1.172983	-2.315070	1
H	-2.284857	-1.247383	-0.798960	1
H	0.658343	-2.022833	-1.048660	1
H	-0.248767	-1.898063	0.449410	1
H	0.507563	0.383177	-1.452400	1
H	-1.663647	0.928907	-0.436880	1
H	-0.422057	1.984667	0.166590	1
H	-1.605627	-0.402873	1.678940	1
H	-1.898257	1.310547	1.986130	1
H	-0.297057	0.628387	2.293030	1
H	2.216753	-0.648233	-0.088320	1
H	1.697633	2.083397	0.884680	1
H	2.394333	1.709117	-0.717240	1
H	3.234743	1.242197	0.766610	1
Es	2.248142	1.339572	0.300695	99
Es	0.442755	0.278712	-1.145379	99
Es	-0.522858	1.653824	0.173811	99
Es	-1.539682	-2.380232	-1.435851	99
Es	0.075103	-0.713324	-0.484820	99
Es	-1.663454	1.087671	1.867321	99
Es	2.924179	1.270737	0.614844	99
Es	1.044514	0.055513	-0.025893	99
Es	1.584151	0.042255	0.316308	99
Es	-1.465171	-0.085411	1.652475	99
Es	-0.955417	0.758241	0.907694	99
Es	-1.374339	0.924703	-0.241402	99
Es	0.416709	-1.835547	-0.894049	99
Es	-0.131402	-1.447750	-0.544908	99
Es	-0.223264	0.477912	-0.104355	99
Es	1.865216	1.846116	0.693653	99
Es	-0.764136	0.942925	0.189482	99
Es	-2.007586	-1.372290	-0.966989	99
Es	1.867522	0.615960	0.285319	99
Es	0.312825	0.026220	-0.431340	99
Es	-1.375724	-1.320984	-2.004379	99
Es	-0.782514	-1.540058	-0.942758	99
Es	1.967770	-0.359698	0.041083	99
Es	-1.419184	-1.651069	-1.332294	99
Es	1.522874	-0.055329	0.651524	99
Es	-0.575292	0.613506	2.072485	99
Es	-0.215559	-1.752244	0.134876	99
Es	2.343086	1.598351	-0.403477	99
Es	-1.157419	0.592490	1.619115	99
51
Properties=species:S:1:pos:R:3:Z:I:1 energy=-290.45390370797065 field_type=dipole dipole="0.000000 0.000000 0.000000" charge=0
C	-1.419487	-1.651173	-1.332540	6
C	-0.131987	-1.450173	-0.545050	6
C	0.312753	0.026217	-0.431580	6
C	-0.764137	0.943137	0.189600	6
C	-1.157567	0.592907	1.618790	6
N	1.584093	0.042027	0.317030	7
C	2.247943	1.339087	0.302220	6
H	-1.600727	-2.720063	-1.486330	1
H	-1.359977	-1.172983	-2.315070	1
H	-2.284857	-1.247383	-0.798960	1
H	0.658343	-2.022833	-1.048660	1
H	-0.248767	-1.898063	0.449410	1
H	0.507563	0.383177	-1.452400	1
H	-1.663647	0.928907	-0.436880	1
H	-0.422057	1.984667	0.166590	1
H	-1.605627	-0.402873	1.678940	1
H	-1.898257	1.310547	1.986130	1
H	-0.297057	0.628387	2.293030	1
H	2.216753	-0.648233	-0.088320	1
H	1.697633	2.083397	0.884680	1
H	2.394333	1.709117	-0.717240	1
H	3.234743	1.242197	0.766610	1
Es	0.074667	-0.715038	-0.486231	99
Es	1.584813	0.040848	0.316288	99
Es	-0.215924	-1.753387	0.141256	99
Es	-0.227298	0.481545	-0.107388	99
Es	-1.373808	-1.316275	-2.007870	99
Es	0.414549	-1.831534	-0.896240	99
Es	-0.953374	0.757402	0.904467	99
Es	-0.787497	-1.540142	-0.946554	99
Es	0.386888	0.166610	-0.836102	99
Es	-0.132095	-1.450163	-0.545160	99
Es	2.247910	1.338966	0.302182	99
Es	1.870257	0.603511	0.267766	99
Es	-0.582383	0.618432	2.073953	99
Es	-0.520534	1.646364	0.173556	99
Es	1.956400	-0.348846	0.045798	99
Es	1.868839	1.841016	0.695124	99
Es	1.069508	0.061786	-0.041178	99
Es	-2.003745	-1.375259	-0.964287	99
Es	2.344996	1.602522	-0.412030	99
Es	0.370271	0.138117	-0.742726	99
Es	-1.537419	-2.378035	-1.433281	99
Es	-1.661537	1.078632	1.867776	99
Es	-1.372698	0.931023	-0.244335	99
Es	-1.461552	-0.084956	1.659688	99
Es	-0.764340	0.942904	0.189262	99
Es	-1.418490	-1.651834	-1.330978	99
Es	2.917388	1.269952	0.616887	99
Es	-1.157194	0.593182	1.619235	99
Es	1.505247	-0.056570	0.683916	99
51
Properties=species:S:1:pos:R:3:Z:I:1 energy=-290.45390370797065 field_type=dipole dipole="0.000000 0.000000 0.000000" charge=0
C	-1.419487	-1.651173	-1.332540	6
C	-0.131987	-1.450173	-0.545050	6
C	0.312753	0.026217	-0.431580	6
C	-0.764137	0.943137	0.189600	6
C	-1.157567	0.592907	1.618790	6
N	1.584093	0.042027	0.317030	7
C	2.247943	1.339087	0.302220	6
H	-1.600727	-2.720063	-1.486330	1
H	-1.359977	-1.172983	-2.315070	1
H	-2.284857	-1.247383	-0.798960	1
H	0.658343	-2.022833	-1.048660	1
H	-0.248767	-1.898063	0.449410	1
H	0.507563	0.383177	-1.452400	1
H	-1.663647	0.928907	-0.436880	1
H	-0.422057	1.984667	0.166590	1
H	-1.605627	-0.402873	1.678940	1
H	-1.898257	1.310547	1.986130	1
H	-0.297057	0.628387	2.293030	1
H	2.216753	-0.648233	-0.088320	1
H	1.697633	2.083397	0.884680	1
H	2.394333	1.709117	-0.717240	1
H	3.234743	1.242197	0.766610	1
Es	-1.462502	-0.089284	1.656860	99
Es	1.967549	-0.369084	0.053153	99
Es	-0.223151	0.481345	-0.106871	99
Es	-1.373701	0.926158	-0.240898	99
Es	-1.378675	-1.321750	-2.004724	99
Es	0.412082	-1.831836	-0.893459	99
Es	0.312851	0.026195	-0.431464	99
Es	0.077190	-0.711638	-0.483628	99
Es	-0.781659	-1.538488	-0.946243	99
Es	-0.579829	0.618537	2.072080	99
Es	-0.212348	-1.756463	0.135562	99
Es	-0.951379	0.757373	0.908241	99
Es	1.879167	0.635441	0.281875	99
Es	1.866059	1.846146	0.692949	99
Es	-2.006707	-1.372749	-0.965564	99
Es	-1.158321	0.593647	1.619136	99
Es	2.924443	1.269950	0.615542	99
Es	-1.539402	-2.379684	-1.434961	99
Es	-0.764103	0.943129	0.189688	99
Es	1.545604	0.004167	0.467572	99
Es	1.540800	-0.010855	0.503527	99
Es	2.238288	1.320512	0.301600	99
Es	0.442990	0.279245	-1.145703	99
Es	-1.663220	1.084481	1.866802	99
Es	2.343389	1.598647	-0.405551	99
Es	-0.523755	1.651240	0.172269	99
Es	-1.419316	-1.651317	-1.332408	99
Es	-0.131996	-1.450151	-0.545089	99
Es	1.061499	0.057859	-0.037499	99
51
Properties=species:S:1:pos:R:3:Z:I:1 energy=-290.45390370797065 field_type=dipole dipole="0.000000 0.000000 0.000000" charge=0
C	-1.419487	-1.651173	-1.332540	6
C	-0.131987	-1.450173	-0.545050	6
C	0.312753	0.026217	-0.431580	6
C	-0.764137	0.943137	0.189600	6
C	-1.157567	0.592907	1.618790	6
N	1.584093	0.042027	0.317030	7
C	2.247943	1.339087	0.302220	6
H	-1.600727	-2.720063	-1.486330	1
H	-1.359977	-1.172983	-2.315070	1
H	-2.284857	-1.247383	-0.798960	1
H	0.658343	-2.022833	-1.048660	1
H	-0.248767	-1.898063	0.449410	1
H	0.507563	0.383177	-1.452400	1
H	-1.663647	0.928907	-0.436880	1
H	-0.422057	1.984667	0.166590	1
H	-1.605627	-0.402873	1.678940	1
H	-1.898257	1.310547	1.986130	1
H	-0.297057	0.628387	2.293030	1
H	2.216753	-0.648233	-0.088320	1
H	1.697633	2.083397	0.884680	1
H	2.394333	1.709117	-0.717240	1
H	3.234743	1.242197	0.766610	1
Es	0.417086	-1.835272	-0.893653	99
Es	-0.959012	0.752351	0.897534	99
Es	1.584351	0.042327	0.316293	99
Es	-1.419462	-1.651167	-1.332521	99
Es	-1.378025	-1.318942	-2.000740	99
Es	-0.577222	0.619724	2.070808	99
Es	-0.132050	-1.450160	-0.545097	99
Es	1.965688	-0.377184	0.062928	99
Es	-1.157549	0.592970	1.618716	99
Es	-1.664153	1.085118	1.867395	99
Es	1.866729	0.606740	0.253421	99
Es	-1.372634	0.925131	-0.243060	99
Es	-0.523898	1.655617	0.179907	99
Es	0.076216	-0.711807	-0.481122	99
Es	-1.461275	-0.087601	1.659781	99
Es	2.922280	1.269100	0.614163	99
Es	1.867185	1.846731	0.695043	99
Es	2.247884	1.339006	0.302213	99
Es	0.443285	0.277797	-1.147409	99
Es	0.312819	0.026205	-0.431489	99
Es	2.344533	1.599500	-0.406317	99
Es	1.040416	0.048576	-0.018352	99
Es	-2.005696	-1.372615	-0.966296	99
Es	-1.541843	-2.381400	-1.439591	99
Es	-0.220719	0.479162	-0.105118	99
Es	-0.213799	-1.751499	0.133798	99
Es	1.527911	-0.021415	0.655907	99
Es	-0.764121	0.943144	0.189675	99
Es	-0.783077	-1.539363	-0.944023	99
51
Properties=species:S:1:pos:R:3:Z:I:1 energy=-290.45390370797065 field_type=dipole dipole="0.000000 0.000000 0.000000" charge=0
C	-1.419487	-1.651173	-1.332540	6
C	-0.131987	-1.450173	-0.545050	6
C	0.312753	0.026217	-0.431580	6
C	-0.764137	0.943137	0.189600	6
C	-1.157567	0.592907	1.618790	6
N	1.584093	0.042027	0.317030	7
C	2.247943	1.339087	0.302220	6
H	-1.600727	-2.720063	-1.486330	1
H	-1.359977	-1.172983	-2.315070	1
H	-2.284857	-1.247383	-0.798960	1
H	0.658343	-2.022833	-1.048660	1
H	-0.248767	-1.898063	0.449410	1
H	0.507563	0.383177	-1.452400	1
H	-1.663647	0.928907	-0.436880	1
H	-0.422057	1.984667	0.166590	1
H	-1.605627	-0.402873	1.678940	1
H	-1.898257	1.310547	1.986130	1
H	-0.297057	0.628387	2.293030	1
H	2.216753	-0.648233	-0.088320	1
H	1.697633	2.083397	0.884680	1
H	2.394333	1.709117	-0.717240	1
H	3.234743	1.242197	0.766610	1
Es	-2.006563	-1.376435	-0.965858	99
Es	-1.460472	-0.088974	1.657848	99
Es	-0.224934	0.479442	-0.105681	99
Es	-1.377410	-1.319879	-2.008434	99
Es	2.344211	1.600834	-0.409270	99
Es	2.248125	1.338888	0.302343	99
Es	0.312817	0.026214	-0.431461	99
Es	-1.419753	-1.651072	-1.332332	99
Es	-1.158037	0.592619	1.618658	99
Es	-0.577566	0.620386	2.071186	99
Es	1.865496	0.615912	0.279425	99
Es	1.536311	-0.003699	0.478768	99
Es	1.050489	0.053295	-0.026224	99
Es	-0.959007	0.756878	0.904210	99
Es	1.868342	1.843226	0.692948	99
Es	-0.132051	-1.450161	-0.545105	99
Es	2.921337	1.269870	0.617636	99
Es	1.561943	0.009232	0.481464	99
Es	0.416958	-1.835440	-0.893898	99
Es	-0.521864	1.652670	0.175096	99
Es	-1.663900	1.082958	1.867799	99
Es	0.076085	-0.711463	-0.483896	99
Es	-0.765509	0.943641	0.188488	99
Es	-0.215899	-1.751064	0.136865	99
Es	-1.539293	-2.375068	-1.434374	99
Es	-0.781832	-1.541163	-0.942213	99
Es	1.970724	-0.374798	0.057218	99
Es	-1.370461	0.927347	-0.241013	99
Es	0.443560	0.276579	-1.147402	99
51
Properties=species:S:1:pos:R:3:Z:I:1 energy=-290.45390370797065 field_type=dipole dipole="0.000000 0.000000 0.000000" charge=0
C	-1.419487	-1.651173	-1.332540	6
C	-0.131987	-1.450173	-0.545050	6
C	0.312753	0.026217	-0.431580	6
C	-0.764137	0.943137	0.189600	6
C	-1.157567	0.592907	1.618790	6
N	1.584093	0.042027	0.317030	7
C	2.247943	1.339087	0.302220	6
H	-1.600727	-2.720063	-1.486330	1
H	-1.359977	-1.172983	-2.315070	1
H	-2.284857	-1.247383	-0.798960	1
H	0.658343	-2.022833	-1.048660	1
H	-0.248767	-1.898063	0.449410	1
H	0.507563	0.383177	-1.452400	1
H	-1.663647	0.928907	-0.436880	1
H	-0.422057	1.984667	0.166590	1
H	-1.605627	-0.402873	1.678940	1
H	-1.898257	1.310547	1.986130	1
H	-0.297057	0.628387	2.293030	1
H	2.216753	-0.648233	-0.088320	1
H	1.697633	2.083397	0.884680	1
H	2.394333	1.709117	-0.717240	1
H	3.234743	1.242197	0.766610	1
Es	-1.663938	1.088529	1.867599	99
Es	1.584541	0.037090	0.326011	99
Es	-1.419448	-1.651170	-1.332518	99
Es	-0.784969	-1.540617	-0.942011	99
Es	2.247906	1.338939	0.302221	99
Es	-0.520239	1.651300	0.171888	99
Es	0.444071	0.276702	-1.145665	99
Es	-0.959381	0.761894	0.905324	99
Es	-0.575811	0.615652	2.071062	99
Es	-1.157554	0.592900	1.618666	99
Es	-0.216770	-1.753556	0.133294	99
Es	1.537762	-0.067639	0.633214	99
Es	-1.537806	-2.379755	-1.437963	99
Es	0.076138	-0.708848	-0.482041	99
Es	-1.371797	0.927696	-0.241965	99
Es	-0.764273	0.942970	0.189732	99
Es	2.345504	1.597813	-0.405644	99
Es	0.312789	0.026275	-0.431416	99
Es	1.866163	0.614084	0.293627	99
Es	-2.007053	-1.375512	-0.964065	99
Es	1.865375	1.846334	0.690247	99
Es	-0.132110	-1.450156	-0.545129	99
Es	0.417248	-1.836425	-0.895998	99
Es	1.957608	-0.339715	0.045278	99
Es	-1.464145	-0.087351	1.655105	99
Es	1.039042	0.053353	-0.028481	99
Es	2.923133	1.271807	0.617721	99
Es	-0.225828	0.473834	-0.100918	99
Es	-1.374313	-1.315654	-2.004381	99
51
Properties=species:S:1:pos:R:3:Z:I:1 energy=-290.45390370797065 field_type=dipole dipole="0.000000 0.000000 0.000000" charge=0
C	-1.419487	-1.651173	-1.332540	6
C	-0.131987	-1.450173	-0.545050	6
C	0.312753	0.026217	-0.431580	6
C	-0.764137	0.943137	0.189600	6
C	-1.157567	0.592907	1.618790	6
N	1.584093	0.042027	0.317030	7
C	2.247943	1.339087	0.302220	6
H	-1.600727	-2.720063	-1.486330	1
H	-1.359977	-1.172983	-2.315070	1
H	-2.284857	-1.247383	-0.798960	1
H	0.658343	-2.022833	-1.048660	1
H	-0.248767	-1.898063	0.449410	1
H	0.507563	0.383177	-1.452400	1
H	-1.663647	0.928907	-0.436880	1
H	-0.422057	1.984667	0.166590	1
H	-1.605627	-0.402873	1.678940	1
H	-1.898257	1.310547	1.986130	1
H	-0.297057	0.628387	2.293030	1
H	2.216753	-0.648233	-0.088320	1
H	1.697633	2.083397	0.884680	1
H	2.394333	1.709117	-0.717240	1
H	3.234743	1.242197	0.766610	1
Es	-0.774720	0.942917	0.182097	99
Es	-1.363184	0.923739	-0.233258	99
Es	0.415358	-1.832840	-0.892511	99
Es	-0.126893	-1.452005	-0.547605	99
Es	-1.419458	-1.651148	-1.332554	99
Es	-1.540263	-2.379923	-1.433167	99
Es	-0.784304	-1.531991	-0.940818	99
Es	-0.523039	1.654919	0.172976	99
Es	2.344136	1.599725	-0.405347	99
Es	-1.381646	-1.319925	-2.006659	99
Es	-0.215066	-1.750942	0.132337	99
Es	1.583443	0.040947	0.321336	99
Es	0.312824	0.026181	-0.431483	99
Es	-1.666080	1.088382	1.864230	99
Es	-0.955165	0.755303	0.907671	99
Es	1.041064	0.049309	-0.022775	99
Es	1.528152	-0.023162	0.653795	99
Es	-2.002961	-1.377265	-0.969683	99
Es	-0.222649	0.478594	-0.102989	99
Es	-0.574610	0.617668	2.072779	99
Es	2.247901	1.338974	0.302224	99
Es	1.965879	-0.373978	0.061066	99
Es	-1.463035	-0.087437	1.654570	99
Es	-1.157663	0.592663	1.618785	99
Es	2.922335	1.268737	0.612550	99
Es	1.866099	0.605129	0.254493	99
Es	0.443398	0.278970	-1.146065	99
Es	1.867420	1.847313	0.696360	99
Es	0.074572	-0.718081	-0.479563	99
51
Properties=species:S:1:pos:R:3:Z:I:1 energy=-290.45390370797065 field_type=dipole dipole="0.000000 0.000000 0.000000" charge=0
C	-1.419487	-1.651173	-1.332540	6
C	-0.131987	-1.450173	-0.545050	6
C	0.312753	0.026217	-0.431580	6
C	-0.764137	0.943137	0.189600	6
C	-1.157567	0.592907	1.618790	6
N	1.584093	0.042027	0.317030	7
C	2.247943	1.339087	0.302220	6
H	-1.600727	-2.720063	-1.486330	1
H	-1.359977	-1.172983	-2.315070	1
H	-2.284857	-1.247383	-0.798960	1
H	0.658343	-2.022833	-1.048660	1