51
Properties=species:S:1:pos:R:3:Z:I:1 energy=-290.453903707971 field_type=dipole dipole="0.000000 0.000000 0.000000" charge=0
C	-1.419487	-1.651173	-1.332540	6
C	-0.131987	-1.450173	-0.545050	6
C	0.312753	0.026217	-0.431580	6
C	-0.764137	0.943137	0.189600	6
C	-1.157567	0.592907	1.618790	6
N	1.584093	0.042027	0.317030	7
C	2.247943	1.339087	0.302220	6
H	-1.600727	-2.720063	-1.486330	1
H	-1.359977	-1.172983	-2.315070	1
H	-2.284857	-1.247383	-0.798960	1
H	0.658343	-2.022833	-1.048660	1
H	-0.248767	-1.898063	0.449410	1
H	0.507563	0.383177	-1.452400	1
H	-1.663647	0.928907	-0.436880	1
H	-0.422057	1.984667	0.166590	1
H	-1.605627	-0.402873	1.678940	1
H	-1.898257	1.310547	1.986130	1
H	-0.297057	0.628387	2.293030	1
H	2.216753	-0.648233	-0.088320	1
H	1.697633	2.083397	0.884680	1
H	2.394333	1.709117	-0.717240	1
H	3.234743	1.242197	0.766610	1
Es	-0.214702	-1.751092	0.132736	99
Es	-0.954380	0.757151	0.905568	99
Es	-1.665101	1.084998	1.865399	99
Es	-0.576187	0.618784	2.073935	99
Es	0.076022	-0.711289	-0.483212	99
Es	1.519939	-0.050082	0.652115	99
Es	1.966727	-0.364666	0.046427	99
Es	2.247889	1.338974	0.302222	99
Es	-1.540509	-2.380366	-1.437252	99
Es	1.046663	0.054462	-0.026090	99
Es	-0.522015	1.653498	0.174246	99
Es	-1.157573	0.592916	1.618753	99
Es	0.417193	-1.836627	-0.893170	99
Es	-1.419465	-1.651171	-1.332528	99
Es	0.443040	0.278296	-1.144996	99
Es	1.866331	1.846768	0.693715	99
Es	1.584216	0.042214	0.316417	99
Es	-1.376807	-1.321402	-2.002701	99
Es	-0.223495	0.479272	-0.104943	99
Es	1.868567	0.616545	0.280500	99
Es	-1.375404	0.924638	-0.242510	99
Es	-2.007776	-1.372261	-0.967677	99
Es	-0.132016	-1.450149	-0.545087	99
Es	0.312837	0.026199	-0.431480	99
Es	-0.782643	-1.539526	-0.942277	99
Es	2.344211	1.599045	-0.405294	99
Es	-1.462909	-0.088025	1.655658	99
Es	-0.764118	0.943106	0.189618	99
Es	2.923309	1.270562	0.614701	99
51
Properties=species:S:1:pos:R:3:Z:I:1 energy=-290.453903707971 field_type=dipole dipole="0.000000 0.000000 0.000000" charge=0
C	-1.419487	-1.651173	-1.332540	6
C	-0.131987	-1.450173	-0.545050	6
C	0.312753	0.026217	-0.431580	6
C	-0.764137	0.943137	0.189600	6
C	-1.157567	0.592907	1.618790	6
N	1.584093	0.042027	0.317030	7
C	2.247943	1.339087	0.302220	6
H	-1.600727	-2.720063	-1.486330	1
H	-1.359977	-1.172983	-2.315070	1
H	-2.284857	-1.247383	-0.798960	1
H	0.658343	-2.022833	-1.048660	1
H	-0.248767	-1.898063	0.449410	1
H	0.507563	0.383177	-1.452400	1
H	-1.663647	0.928907	-0.436880	1
H	-0.422057	1.984667	0.166590	1
H	-1.605627	-0.402873	1.678940	1
H	-1.898257	1.310547	1.986130	1
H	-0.297057	0.628387	2.293030	1
H	2.216753	-0.648233	-0.088320	1
H	1.697633	2.083397	0.884680	1
H	2.394333	1.709117	-0.717240	1
H	3.234743	1.242197	0.766610	1
Es	-1.540412	-2.380286	-1.436958	99
Es	-0.132017	-1.450147	-0.545090	99
Es	-0.764117	0.943106	0.189618	99
Es	1.519231	-0.049173	0.651997	99
Es	-2.007695	-1.372315	-0.967493	99
Es	0.075982	-0.711415	-0.483212	99
Es	-0.954381	0.757244	0.905568	99
Es	-1.157573	0.592916	1.618752	99
Es	-0.522054	1.653323	0.174285	99
Es	-1.375386	0.924827	-0.242528	99
Es	-0.576269	0.618722	2.073938	99
Es	-1.419463	-1.651171	-1.332528	99
Es	-0.223489	0.479121	-0.104875	99
Es	2.923296	1.270543	0.614772	99
Es	-0.782836	-1.539498	-0.942405	99
Es	-1.462707	-0.087957	1.655593	99
Es	-1.665303	1.084976	1.865497	99
Es	-0.214628	-1.751187	0.133007	99
Es	1.966801	-0.365650	0.047207	99
Es	0.443075	0.278315	-1.145155	99
Es	1.046848	0.055017	-0.026644	99
Es	1.584208	0.042220	0.316429	99
Es	1.869048	0.616063	0.280403	99
Es	2.344214	1.599032	-0.405406	99
Es	0.417272	-1.836401	-0.893373	99
Es	0.312838	0.026201	-0.431477	99
Es	-1.376774	-1.321342	-2.003075	99
Es	2.247886	1.338969	0.302221	99
Es	1.866249	1.846718	0.693722	99
51
Properties=species:S:1:pos:R:3:Z:I:1 energy=-290.453903707971 field_type=dipole dipole="0.000000 0.000000 0.000000" charge=0
C	-1.419487	-1.651173	-1.332540	6
C	-0.131987	-1.450173	-0.545050	6
C	0.312753	0.026217	-0.431580	6
C	-0.764137	0.943137	0.189600	6
C	-1.157567	0.592907	1.618790	6
N	1.584093	0.042027	0.317030	7
C	2.247943	1.339087	0.302220	6
H	-1.600727	-2.720063	-1.486330	1
H	-1.359977	-1.172983	-2.315070	1
H	-2.284857	-1.247383	-0.798960	1
H	0.658343	-2.022833	-1.048660	1
H	-0.248767	-1.898063	0.449410	1
H	0.507563	0.383177	-1.452400	1
H	-1.663647	0.928907	-0.436880	1
H	-0.422057	1.984667	0.166590	1
H	-1.605627	-0.402873	1.678940	1
H	-1.898257	1.310547	1.986130	1
H	-0.297057	0.628387	2.293030	1
H	2.216753	-0.648233	-0.088320	1
H	1.697633	2.083397	0.884680	1
H	2.394333	1.709117	-0.717240	1
H	3.234743	1.242197	0.766610	1
Es	-1.462500	-0.087889	1.655529	99
Es	-1.375293	0.924933	-0.242485	99
Es	-1.376723	-1.321237	-2.003062	99
Es	-0.954469	0.757157	0.905676	99
Es	2.247888	1.338972	0.302221	99
Es	-0.782662	-1.539378	-0.942513	99
Es	1.967031	-0.365478	0.047160	99
Es	0.076018	-0.711489	-0.483135	99
Es	-1.540441	-2.380297	-1.437019	99
Es	-0.522124	1.653267	0.174288	99
Es	-0.132016	-1.450154	-0.545087	99
Es	0.443048	0.278273	-1.145317	99
Es	1.866218	1.846744	0.693746	99
Es	-1.157570	0.592916	1.618751	99
Es	0.417206	-1.836338	-0.893447	99
Es	-0.214821	-1.751324	0.133280	99
Es	1.584210	0.042211	0.316441	99
Es	-1.419464	-1.651170	-1.332528	99
Es	2.923267	1.270565	0.614733	99
Es	2.344210	1.598992	-0.405436	99
Es	0.312839	0.026201	-0.431478	99
Es	1.047048	0.054879	-0.026880	99
Es	-0.764120	0.943107	0.189617	99
Es	-2.007664	-1.372316	-0.967448	99
Es	1.519091	-0.049132	0.652451	99
Es	-0.223374	0.479088	-0.104925	99
Es	-1.665517	1.085126	1.865689	99
Es	1.868788	0.615963	0.280208	99
Es	-0.576259	0.618581	2.073763	99
51
Properties=species:S:1:pos:R:3:Z:I:1 energy=-290.453903707971 field_type=dipole dipole="0.000000 0.000000 0.000000" charge=0
C	-1.419487	-1.651173	-1.332540	6
C	-0.131987	-1.450173	-0.545050	6
C	0.312753	0.026217	-0.431580	6
C	-0.764137	0.943137	0.189600	6
C	-1.157567	0.592907	1.618790	6
N	1.584093	0.042027	0.317030	7
C	2.247943	1.339087	0.302220	6
H	-1.600727	-2.720063	-1.486330	1
H	-1.359977	-1.172983	-2.315070	1
H	-2.284857	-1.247383	-0.798960	1
H	0.658343	-2.022833	-1.048660	1
H	-0.248767	-1.898063	0.449410	1
H	0.507563	0.383177	-1.452400	1
H	-1.663647	0.928907	-0.436880	1
H	-0.422057	1.984667	0.166590	1
H	-1.605627	-0.402873	1.678940	1
H	-1.898257	1.310547	1.986130	1
H	-0.297057	0.628387	2.293030	1
H	2.216753	-0.648233	-0.088320	1
H	1.697633	2.083397	0.884680	1
H	2.394333	1.709117	-0.717240	1
H	3.234743	1.242197	0.766610	1
Es	-1.375236	0.924916	-0.242420	99
Es	-0.576316	0.618608	2.073727	99
Es	-1.157573	0.592916	1.618751	99
Es	-1.376668	-1.321177	-2.003229	99
Es	-1.462411	-0.087870	1.655604	99
Es	-0.782714	-1.539493	-0.942447	99
Es	1.518471	-0.048453	0.652918	99
Es	-1.419465	-1.651171	-1.332529	99
Es	2.247888	1.338973	0.302221	99
Es	0.417259	-1.836514	-0.893390	99
Es	-2.007639	-1.372362	-0.967389	99
Es	1.584209	0.042210	0.316433	99
Es	0.443151	0.278310	-1.145246	99
Es	-0.132016	-1.450151	-0.545087	99
Es	-0.214922	-1.751148	0.133302	99
Es	-0.223329	0.479105	-0.104975	99
Es	-1.665565	1.085107	1.865731	99
Es	1.866112	1.846691	0.693768	99
Es	-0.764121	0.943109	0.189617	99
Es	0.312837	0.026200	-0.431477	99
Es	1.047459	0.055053	-0.027266	99
Es	1.868828	0.615654	0.279722	99
Es	1.967248	-0.365990	0.047613	99
Es	2.923301	1.270530	0.614782	99
Es	-0.522280	1.653251	0.174250	99
Es	-1.540398	-2.380244	-1.436914	99
Es	2.344176	1.598981	-0.405509	99
Es	-0.954482	0.757178	0.905622	99
Es	0.076041	-0.711448	-0.483390	99
51
Properties=species:S:1:pos:R:3:Z:I:1 energy=-290.453903707971 field_type=dipole dipole="0.000000 0.000000 0.000000" charge=0
C	-1.419487	-1.651173	-1.332540	6
C	-0.131987	-1.450173	-0.545050	6
C	0.312753	0.026217	-0.431580	6
C	-0.764137	0.943137	0.189600	6
C	-1.157567	0.592907	1.618790	6
N	1.584093	0.042027	0.317030	7
C	2.247943	1.339087	0.302220	6
H	-1.600727	-2.720063	-1.486330	1
H	-1.359977	-1.172983	-2.315070	1
H	-2.284857	-1.247383	-0.798960	1
H	0.658343	-2.022833	-1.048660	1
H	-0.248767	-1.898063	0.449410	1
H	0.507563	0.383177	-1.452400	1
H	-1.663647	0.928907	-0.436880	1
H	-0.422057	1.984667	0.166590	1
H	-1.605627	-0.402873	1.678940	1
H	-1.898257	1.310547	1.986130	1
H	-0.297057	0.628387	2.293030	1
H	2.216753	-0.648233	-0.088320	1
H	1.697633	2.083397	0.884680	1
H	2.394333	1.709117	-0.717240	1
H	3.234743	1.242197	0.766610	1
Es	2.923344	1.270656	0.614801	99
Es	0.312838	0.026201	-0.431476	99
Es	-0.214907	-1.751296	0.133333	99
Es	-1.665602	1.085181	1.865725	99
Es	-1.157573	0.592916	1.618751	99
Es	0.443176	0.278256	-1.145331	99
Es	0.075952	-0.711362	-0.483269	99
Es	-0.782859	-1.539518	-0.942625	99
Es	2.247888	1.338972	0.302222	99
Es	-1.462421	-0.087708	1.655621	99
Es	-0.223342	0.479096	-0.105055	99
Es	-0.576344	0.618481	2.073776	99
Es	-1.540238	-2.380328	-1.436893	99
Es	1.047395	0.054857	-0.027245	99
Es	-2.007650	-1.372397	-0.967232	99
Es	-0.522361	1.653312	0.174188	99
Es	-1.375140	0.924912	-0.242303	99
Es	-1.376608	-1.321056	-2.003279	99
Es	1.967366	-0.366240	0.047952	99
Es	1.868813	0.615499	0.279405	99
Es	-0.954433	0.757062	0.905592	99
Es	1.584219	0.042219	0.316384	99
Es	-1.419464	-1.651171	-1.332528	99
Es	1.518495	-0.047933	0.653065	99
Es	1.866075	1.846653	0.693690	99
Es	-0.764119	0.943106	0.189617	99
Es	2.344085	1.598908	-0.405577	99
Es	0.417280	-1.836353	-0.893434	99
Es	-0.132016	-1.450151	-0.545086	99
51
Properties=species:S:1:pos:R:3:Z:I:1 energy=-290.453903707971 field_type=dipole dipole="0.000000 0.000000 0.000000" charge=0
C	-1.419487	-1.651173	-1.332540	6
C	-0.131987	-1.450173	-0.545050	6
C	0.312753	0.026217	-0.431580	6
C	-0.764137	0.943137	0.189600	6
C	-1.157567	0.592907	1.618790	6
N	1.584093	0.042027	0.317030	7
C	2.247943	1.339087	0.302220	6
H	-1.600727	-2.720063	-1.486330	1
H	-1.359977	-1.172983	-2.315070	1
H	-2.284857	-1.247383	-0.798960	1
H	0.658343	-2.022833	-1.048660	1
H	-0.248767	-1.898063	0.449410	1
H	0.507563	0.383177	-1.452400	1
H	-1.663647	0.928907	-0.436880	1
H	-0.422057	1.984667	0.166590	1
H	-1.605627	-0.402873	1.678940	1
H	-1.898257	1.310547	1.986130	1
H	-0.297057	0.628387	2.293030	1
H	2.216753	-0.648233	-0.088320	1
H	1.697633	2.083397	0.884680	1
H	2.394333	1.709117	-0.717240	1
H	3.234743	1.242197	0.766610	1
Es	2.344149	1.598967	-0.405623	99
Es	-1.462367	-0.087716	1.655544	99
Es	-2.007456	-1.372599	-0.967351	99
Es	-0.522299	1.653168	0.174295	99
Es	-0.214850	-1.751349	0.133353	99
Es	1.868882	0.615496	0.279176	99
Es	1.866010	1.846615	0.693783	99
Es	2.247885	1.338969	0.302222	99
Es	1.047678	0.054999	-0.027470	99
Es	0.417227	-1.836381	-0.893609	99
Es	0.312837	0.026201	-0.431479	99
Es	-0.954541	0.757144	0.905607	99
Es	-1.540304	-2.380379	-1.436873	99
Es	1.967435	-0.366543	0.048186	99
Es	-1.157572	0.592916	1.618752	99
Es	-0.576349	0.618400	2.073697	99
Es	-0.764120	0.943108	0.189617	99
Es	1.518102	-0.047666	0.653159	99
Es	-0.132016	-1.450150	-0.545088	99
Es	-1.665663	1.085249	1.865819	99
Es	-0.782896	-1.539439	-0.942268	99
Es	-1.375149	0.925079	-0.242426	99
Es	1.584211	0.042213	0.316427	99
Es	0.075937	-0.711313	-0.483331	99
Es	2.923314	1.270492	0.614856	99
Es	-0.223312	0.479026	-0.104983	99
Es	-1.419465	-1.651171	-1.332529	99
Es	-1.376669	-1.320837	-2.003365	99
Es	0.443210	0.278273	-1.145306	99
51
Properties=species:S:1:pos:R:3:Z:I:1 energy=-290.453903707971 field_type=dipole dipole="0.000000 0.000000 0.000000" charge=0
C	-1.419487	-1.651173	-1.332540	6
C	-0.131987	-1.450173	-0.545050	6
C	0.312753	0.026217	-0.431580	6
C	-0.764137	0.943137	0.189600	6
C	-1.157567	0.592907	1.618790	6
N	1.584093	0.042027	0.317030	7
C	2.247943	1.339087	0.302220	6
H	-1.600727	-2.720063	-1.486330	1
H	-1.359977	-1.172983	-2.315070	1
H	-2.284857	-1.247383	-0.798960	1
H	0.658343	-2.022833	-1.048660	1
H	-0.248767	-1.898063	0.449410	1
H	0.507563	0.383177	-1.452400	1
H	-1.663647	0.928907	-0.436880	1
H	-0.422057	1.984667	0.166590	1
H	-1.605627	-0.402873	1.678940	1
H	-1.898257	1.310547	1.986130	1
H	-0.297057	0.628387	2.293030	1
H	2.216753	-0.648233	-0.088320	1
H	1.697633	2.083397	0.884680	1
H	2.394333	1.709117	-0.717240	1
H	3.234743	1.242197	0.766610	1
Es	-1.157573	0.592916	1.618752	99
Es	1.866043	1.846512	0.693867	99
Es	-1.375166	0.925037	-0.242343	99
Es	-0.223294	0.479054	-0.105013	99
Es	-0.522369	1.653191	0.174247	99
Es	-0.954415	0.757108	0.905698	99
Es	2.344047	1.599065	-0.405666	99
Es	0.075969	-0.711299	-0.483444	99
Es	-1.665762	1.085223	1.865790	99
Es	0.312839	0.026201	-0.431475	99
Es	1.967564	-0.367023	0.048644	99
Es	1.047938	0.054982	-0.027620	99
Es	-1.462276	-0.087743	1.655518	99
Es	-0.132015	-1.450153	-0.545086	99
Es	-2.007362	-1.372525	-0.967229	99
Es	-0.764119	0.943107	0.189617	99
Es	-0.215027	-1.751280	0.133446	99
Es	1.584231	0.042241	0.316316	99
Es	0.443167	0.278318	-1.145330	99
Es	-1.419465	-1.651170	-1.332529	99
Es	1.868872	0.615396	0.278872	99
Es	2.923346	1.270473	0.614826	99
Es	0.417243	-1.836463	-0.893504	99
Es	-1.540364	-2.380330	-1.436720	99
Es	2.247890	1.338976	0.302222	99
Es	-1.376663	-1.320851	-2.003530	99
Es	-0.576376	0.618456	2.073717	99
Es	-0.782801	-1.539532	-0.942463	99
Es	1.517745	-0.047115	0.653212	99
51
Properties=species:S:1:pos:R:3:Z:I:1 energy=-290.453903707971 field_type=dipole dipole="0.000000 0.000000 0.000000" charge=0
C	-1.419487	-1.651173	-1.332540	6
C	-0.131987	-1.450173	-0.545050	6
C	0.312753	0.026217	-0.431580	6
C	-0.764137	0.943137	0.189600	6
C	-1.157567	0.592907	1.618790	6
N	1.584093	0.042027	0.317030	7
C	2.247943	1.339087	0.302220	6
H	-1.600727	-2.720063	-1.486330	1
H	-1.359977	-1.172983	-2.315070	1
H	-2.284857	-1.247383	-0.798960	1
H	0.658343	-2.022833	-1.048660	1
H	-0.248767	-1.898063	0.449410	1
H	0.507563	0.383177	-1.452400	1
H	-1.663647	0.928907	-0.436880	1
H	-0.422057	1.984667	0.166590	1
H	-1.605627	-0.402873	1.678940	1
H	-1.898257	1.310547	1.986130	1
H	-0.297057	0.628387	2.293030	1
H	2.216753	-0.648233	-0.088320	1
H	1.697633	2.083397	0.884680	1
H	2.394333	1.709117	-0.717240	1
H	3.234743	1.242197	0.766610	1
Es	-0.764116	0.943106	0.189619	99
Es	0.312838	0.026200	-0.431474	99
Es	-0.576304	0.618373	2.073629	99
Es	-1.157573	0.592916	1.618752	99
Es	2.343972	1.599086	-0.405715	99
Es	1.047824	0.054965	-0.027617	99
Es	-0.132016	-1.450151	-0.545087	99
Es	1.584207	0.042209	0.316443	99
Es	2.247890	1.338975	0.302221	99
Es	-1.540380	-2.380377	-1.436649	99
Es	-1.665870	1.085302	1.865882	99
Es	-2.007274	-1.372519	-0.967195	99
Es	-0.223237	0.479001	-0.105048	99
Es	-0.522360	1.653124	0.174253	99
Es	1.865989	1.846407	0.693817	99
Es	2.923404	1.270531	0.614894	99
Es	1.967745	-0.367210	0.048802	99
Es	-1.375162	0.925125	-0.242335	99
Es	1.868831	0.615312	0.278711	99
Es	0.443152	0.278314	-1.145355	99
Es	-1.376667	-1.320804	-2.003594	99
Es	1.517808	-0.046749	0.653101	99
Es	0.417183	-1.836328	-0.893564	99
Es	-0.954507	0.757091	0.905738	99
Es	-1.462181	-0.087674	1.655480	99
Es	-0.782853	-1.539571	-0.942497	99
Es	-1.419464	-1.651170	-1.332528	99
Es	-0.214931	-1.751382	0.133537	99
Es	0.075899	-0.711330	-0.483427	99
51
Properties=species:S:1:pos:R:3:Z:I:1 energy=-290.453903707971 field_type=dipole dipole="0.000000 0.000000 0.000000" charge=0
C	-1.419487	-1.651173	-1.332540	6
C	-0.131987	-1.450173	-0.545050	6
C	0.312753	0.026217	-0.431580	6
C	-0.764137	0.943137	0.189600	6
C	-1.157567	0.592907	1.618790	6
N	1.584093	0.042027	0.317030	7
C	2.247943	1.339087	0.302220	6
H	-1.600727	-2.720063	-1.486330	1
H	-1.359977	-1.172983	-2.315070	1
H	-2.284857	-1.247383	-0.798960	1
H	0.658343	-2.022833	-1.048660	1
H	-0.248767	-1.898063	0.449410	1
H	0.507563	0.383177	-1.452400	1
H	-1.663647	0.928907	-0.436880	1
H	-0.422057	1.984667	0.166590	1
H	-1.605627	-0.402873	1.678940	1
H	-1.898257	1.310547	1.986130	1
H	-0.297057	0.628387	2.293030	1
H	2.216753	-0.648233	-0.088320	1
H	1.697633	2.083397	0.884680	1
H	2.394333	1.709117	-0.717240	1
H	3.234743	1.242197	0.766610	1
Es	-1.665893	1.085406	1.865923	99
Es	0.312839	0.026201	-0.431474	99
Es	-0.576327	0.618331	2.073542	99
Es	2.923397	1.270498	0.614955	99
Es	-0.764117	0.943108	0.189618	99
Es	0.443209	0.278256	-1.145397	99
Es	-0.215083	-1.751453	0.133597	99
Es	-1.540372	-2.380434	-1.436652	99
Es	1.866007	1.846428	0.693750	99
Es	-1.376518	-1.320712	-2.003613	99
Es	-2.007270	-1.372522	-0.967260	99
Es	-1.419465	-1.651171	-1.332529	99
Es	-1.157573	0.592916	1.618751	99
Es	-0.954443	0.757044	0.905726	99
Es	-1.462152	-0.087643	1.655537	99
Es	1.518024	-0.046340	0.653032	99
Es	1.868793	0.615310	0.278416	99
Es	-0.132017	-1.450150	-0.545088	99
Es	-0.223320	0.479009	-0.105042	99
Es	0.075934	-0.711232	-0.483424	99
Es	1.047596	0.054793	-0.027396	99
Es	2.344005	1.599034	-0.405767	99
Es	-0.522385	1.653147	0.174204	99
Es	2.247890	1.338977	0.302222	99
Es	-0.782856	-1.539534	-0.942470	99
Es	-1.375184	0.925087	-0.242274	99
Es	1.584207	0.042209	0.316444	99
Es	1.967733	-0.367465	0.049024	99
Es	0.417188	-1.836326	-0.893566	99
51
Properties=species:S:1:pos:R:3:Z:I:1 energy=-290.453903707971 field_type=dipole dipole="0.000000 0.000000 0.000000" charge=0
C	-1.419487	-1.651173	-1.332540	6
C	-0.131987	-1.450173	-0.545050	6
C	0.312753	0.026217	-0.431580	6
C	-0.764137	0.943137	0.189600	6
C	-1.157567	0.592907	1.618790	6
N	1.584093	0.042027	0.317030	7
C	2.247943	1.339087	0.302220	6
H	-1.600727	-2.720063	-1.486330	1
H	-1.359977	-1.172983	-2.315070	1
H	-2.284857	-1.247383	-0.798960	1
H	0.658343	-2.022833	-1.048660	1
H	-0.248767	-1.898063	0.449410	1
H	0.507563	0.383177	-1.452400	1
H	-1.663647	0.928907	-0.436880	1
H	-0.422057	1.984667	0.166590	1
H	-1.605627	-0.402873	1.678940	1
H	-1.898257	1.310547	1.986130	1
H	-0.297057	0.628387	2.293030	1
H	2.216753	-0.648233	-0.088320	1
H	1.697633	2.083397	0.884680	1
H	2.394333	1.709117	-0.717240	1
H	3.234743	1.242197	0.766610	1
Es	-1.157572	0.592916	1.618751	99
Es	-0.522473	1.653206	0.174099	99
Es	-1.540321	-2.380453	-1.436509	99
Es	1.517384	-0.046037	0.653146	99
Es	-1.375120	0.925004	-0.242196	99
Es	0.312839	0.026201	-0.431476	99
Es	0.417022	-1.836347	-0.893651	99
Es	1.584208	0.042198	0.316447	99
Es	-1.665909	1.085402	1.866001	99
Es	-0.782992	-1.539346	-0.942480	99
Es	-1.376690	-1.320668	-2.003752	99
Es	0.076079	-0.711330	-0.483484	99
Es	2.343851	1.599081	-0.405743	99
Es	-0.954592	0.757114	0.905749	99
Es	-1.462080	-0.087692	1.655581	99
Es	1.868895	0.615161	0.278382	99
Es	-0.214943	-1.751459	0.133676	99
Es	2.923518	1.270466	0.614886	99
Es	2.247888	1.338973	0.302222	99
Es	-0.223257	0.478963	-0.105038	99
Es	1.048020	0.055018	-0.027889	99
Es	-2.007138	-1.372629	-0.967172	99
Es	1.865979	1.846359	0.693836	99
Es	-0.576256	0.618387	2.073419	99
Es	-1.419465	-1.651170	-1.332529	99
Es	-0.132016	-1.450150	-0.545087	99
Es	-0.764119	0.943107	0.189618	99
Es	1.967881	-0.367784	0.049403	99
Es	0.443225	0.278280	-1.145414	99
51
Properties=species:S:1:pos:R:3:Z:I:1 energy=-290.453903707971 field_type=dipole dipole="0.000000 0.000000 0.000000" charge=0
C	-1.419487	-1.651173	-1.332540	6
C	-0.131987	-1.450173	-0.545050	6
C	0.312753	0.026217	-0.431580	6
C	-0.764137	0.943137	0.189600	6
C	-1.157567	0.592907	1.618790	6
N	1.584093	0.042027	0.317030	7
C	2.247943	1.339087	0.302220	6
H	-1.600727	-2.720063	-1.486330	1
H	-1.359977	-1.172983	-2.315070	1
H	-2.284857	-1.247383	-0.798960	1
H	0.658343	-2.022833	-1.048660	1
H	-0.248767	-1.898063	0.449410	1
H	0.507563	0.383177	-1.452400	1
H	-1.663647	0.928907	-0.436880	1
H	-0.422057	1.984667	0.166590	1
H	-1.605627	-0.402873	1.678940	1
H	-1.898257	1.310547	1.986130	1
H	-0.297057	0.628387	2.293030	1
H	2.216753	-0.648233	-0.088320	1
H	1.697633	2.083397	0.884680	1
H	2.394333	1.709117	-0.717240	1
H	3.234743	1.242197	0.766610	1
Es	0.443257	0.278280	-1.145426	99
Es	1.517067	-0.045691	0.653668	99
Es	-1.157573	0.592916	1.618752	99
Es	-0.576341	0.618292	2.073514	99
Es	1.868902	0.614864	0.277894	99
Es	-1.540442	-2.380504	-1.436509	99
Es	1.865909	1.846347	0.693748	99
Es	0.417096	-1.836339	-0.893667	99
Es	0.312839	0.026201	-0.431474	99
Es	-0.215001	-1.751478	0.133650	99
Es	1.584211	0.042225	0.316399	99
Es	2.923566	1.270506	0.614954	99
Es	2.343857	1.599053	-0.405713	99
Es	2.247888	1.338973	0.302221	99
Es	1.967906	-0.367941	0.049775	99
Es	-2.007008	-1.372604	-0.967197	99
Es	-1.376673	-1.320580	-2.003757	99
Es	-0.522404	1.653126	0.174270	99
Es	-0.782885	-1.539512	-0.942405	99
Es	-0.764119	0.943107	0.189618	99
Es	-0.223251	0.478999	-0.104998	99
Es	1.048288	0.055067	-0.028265	99
Es	-1.419465	-1.651170	-1.332528	99
Es	-0.954487	0.757029	0.905814	99
Es	-0.132016	-1.450150	-0.545087	99
Es	-1.666088	1.085466	1.865953	99
Es	-1.462000	-0.087657	1.655403	99
Es	-1.375132	0.925147	-0.242324	99
Es	0.075949	-0.711199	-0.483490	99
51
Properties=species:S:1:pos:R:3:Z:I:1 energy=-290.453903707971 field_type=dipole dipole="0.000000 0.000000 0.000000" charge=0
C	-1.419487	-1.651173	-1.332540	6
C	-0.131987	-1.450173	-0.545050	6
C	0.312753	0.026217	-0.431580	6
C	-0.764137	0.943137	0.189600	6
C	-1.157567	0.592907	1.618790	6
N	1.584093	0.042027	0.317030	7
C	2.247943	1.339087	0.302220	6
H	-1.600727	-2.720063	-1.486330	1
H	-1.359977	-1.172983	-2.315070	1
H	-2.284857	-1.247383	-0.798960	1
H	0.658343	-2.022833	-1.048660	1
H	-0.248767	-1.898063	0.449410	1
H	0.507563	0.383177	-1.452400	1
H	-1.663647	0.928907	-0.436880	1
H	-0.422057	1.984667	0.166590	1
H	-1.605627	-0.402873	1.678940	1
H	-1.898257	1.310547	1.986130	1
H	-0.297057	0.628387	2.293030	1
H	2.216753	-0.648233	-0.088320	1
H	1.697633	2.083397	0.884680	1
H	2.394333	1.709117	-0.717240	1
H	3.234743	1.242197	0.766610	1
Es	-0.522422	1.653148	0.174215	99
Es	1.968101	-0.368377	0.050174	99
Es	0.417049	-1.836254	-0.893619	99
Es	-0.576301	0.618287	2.073539	99
Es	-1.376635	-1.320528	-2.003836	99
Es	-0.214979	-1.751538	0.133689	99
Es	2.247889	1.338973	0.302222	99
Es	-2.007013	-1.372649	-0.967150	99
Es	1.048241	0.055039	-0.028285	99
Es	-1.462075	-0.087640	1.655426	99
Es	1.868975	0.614956	0.278073	99
Es	2.923508	1.270469	0.614975	99
Es	1.865897	1.846297	0.693805	99
Es	0.443251	0.278334	-1.145419	99
Es	1.584183	0.042194	0.316509	99
Es	1.516944	-0.045268	0.653048	99
Es	-1.375083	0.925159	-0.242251	99
Es	-1.666009	1.085441	1.865937	99
Es	0.312838	0.026200	-0.431475	99
Es	-1.540376	-2.380494	-1.436465	99
Es	-0.954547	0.757056	0.905812	99
Es	-0.764119	0.943108	0.189617	99
Es	-1.157573	0.592916	1.618752	99
Es	-0.223269	0.478929	-0.105020	99
Es	-0.782969	-1.539561	-0.942494	99
Es	0.075957	-0.711181	-0.483549	99
Es	2.343864	1.599075	-0.405824	99
Es	-0.132016	-1.450150	-0.545087	99
Es	-1.419464	-1.651170	-1.332528	99
51
Properties=species:S:1:pos:R:3:Z:I:1 energy=-290.453903707971 field_type=dipole dipole="0.000000 0.000000 0.000000" charge=0
C	-1.419487	-1.651173	-1.332540	6
C	-0.131987	-1.450173	-0.545050	6
C	0.312753	0.026217	-0.431580	6
C	-0.764137	0.943137	0.189600	6
C	-1.157567	0.592907	1.618790	6
N	1.584093	0.042027	0.317030	7
C	2.247943	1.339087	0.302220	6
H	-1.600727	-2.720063	-1.486330	1
H	-1.359977	-1.172983	-2.315070	1
H	-2.284857	-1.247383	-0.798960	1
H	0.658343	-2.022833	-1.048660	1
H	-0.248767	-1.898063	0.449410	1
H	0.507563	0.383177	-1.452400	1
H	-1.663647	0.928907	-0.436880	1
H	-0.422057	1.984667	0.166590	1
H	-1.605627	-0.402873	1.678940	1
H	-1.898257	1.310547	1.986130	1
H	-0.297057	0.628387	2.293030	1
H	2.216753	-0.648233	-0.088320	1
H	1.697633	2.083397	0.884680	1
H	2.394333	1.709117	-0.717240	1
H	3.234743	1.242197	0.766610	1
Es	1.968075	-0.368519	0.050155	99
Es	0.417009	-1.836240	-0.893678	99
Es	-1.419462	-1.651169	-1.332527	99
Es	0.075885	-0.711195	-0.483574	99
Es	-0.764119	0.943107	0.189620	99
Es	2.247886	1.338971	0.302220	99
Es	-0.132016	-1.450151	-0.545087	99
Es	1.865888	1.846259	0.693808	99
Es	-1.540451	-2.380516	-1.436383	99
Es	-0.954585	0.757114	0.905834	99
Es	1.584208	0.042202	0.316481	99
Es	1.048183	0.055037	-0.028174	99
Es	-0.576239	0.618289	2.073492	99
Es	2.923559	1.270463	0.614976	99
Es	0.312839	0.026201	-0.431475	99
Es	-0.214920	-1.751530	0.133780	99
Es	-2.006851	-1.372665	-0.967106	99
Es	0.443257	0.278338	-1.145478	99
Es	1.869006	0.614961	0.277942	99
Es	1.516954	-0.045130	0.653084	99
Es	-0.522558	1.653140	0.174248	99
Es	-0.223057	0.478966	-0.105006	99
Es	-1.376691	-1.320443	-2.003926	99
Es	-1.666147	1.085427	1.865996	99
Es	2.343806	1.599088	-0.405830	99
Es	-1.157572	0.592916	1.618752	99
Es	-0.782988	-1.539625	-0.942457	99
Es	-1.375109	0.925119	-0.242231	99
Es	-1.461942	-0.087642	1.655337	99
51
Properties=species:S:1:pos:R:3:Z:I:1 energy=-290.453903707971 field_type=dipole dipole="0.000000 0.000000 0.000000" charge=0
C	-1.419487	-1.651173	-1.332540	6
C	-0.131987	-1.450173	-0.545050	6
C	0.312753	0.026217	-0.431580	6
C	-0.764137	0.943137	0.189600	6
C	-1.157567	0.592907	1.618790	6
N	1.584093	0.042027	0.317030	7
C	2.247943	1.339087	0.302220	6
H	-1.600727	-2.720063	-1.486330	1
H	-1.359977	-1.172983	-2.315070	1
H	-2.284857	-1.247383	-0.798960	1
H	0.658343	-2.022833	-1.048660	1
H	-0.248767	-1.898063	0.449410	1
H	0.507563	0.383177	-1.452400	1
H	-1.663647	0.928907	-0.436880	1
H	-0.422057	1.984667	0.166590	1
H	-1.605627	-0.402873	1.678940	1
H	-1.898257	1.310547	1.986130	1
H	-0.297057	0.628387	2.293030	1
H	2.216753	-0.648233	-0.088320	1
H	1.697633	2.083397	0.884680	1
H	2.394333	1.709117	-0.717240	1
H	3.234743	1.242197	0.766610	1
Es	2.923600	1.270523	0.615087	99
Es	2.343754	1.599146	-0.405877	99
Es	-1.376670	-1.320385	-2.003944	99
Es	-0.132016	-1.450150	-0.545087	99
Es	-0.223160	0.478922	-0.105039	99
Es	-0.783015	-1.539582	-0.942491	99
Es	-0.954626	0.757039	0.905886	99
Es	0.312839	0.026204	-0.431473	99
Es	-1.375087	0.925158	-0.242216	99
Es	-1.419464	-1.651170	-1.332528	99
Es	1.516719	-0.044667	0.653366	99
Es	1.048325	0.055086	-0.028490	99
Es	-0.576265	0.618344	2.073324	99
Es	-0.522537	1.653120	0.174222	99
Es	-2.006855	-1.372729	-0.967123	99
Es	0.075952	-0.711263	-0.483665	99
Es	0.417012	-1.836191	-0.893648	99
Es	1.968215	-0.368734	0.050615	99
Es	-1.666176	1.085544	1.866038	99
Es	0.443271	0.278379	-1.145338	99
Es	-1.540396	-2.380540	-1.436385	99
Es	-0.214963	-1.751594	0.133785	99
Es	-1.461869	-0.087723	1.655439	99
Es	-1.157573	0.592916	1.618752	99
Es	1.584217	0.042223	0.316420	99
Es	1.865866	1.846128	0.693733	99
Es	2.247887	1.338973	0.302221	99
Es	1.868979	0.614690	0.277592	99
Es	-0.764119	0.943107	0.189618	99
51
Properties=species:S:1:pos:R:3:Z:I:1 energy=-290.453903707971 field_type=dipole dipole="0.000000 0.000000 0.000000" charge=0
C	-1.419487	-1.651173	-1.332540	6
C	-0.131987	-1.450173	-0.545050	6
C	0.312753	0.026217	-0.431580	6
C	-0.764137	0.943137	0.189600	6
C	-1.157567	0.592907	1.618790	6
N	1.584093	0.042027	0.317030	7
C	2.247943	1.339087	0.302220	6
H	-1.600727	-2.720063	-1.486330	1
H	-1.359977	-1.172983	-2.315070	1
H	-2.284857	-1.247383	-0.798960	1
H	0.658343	-2.022833	-1.048660	1
H	-0.248767	-1.898063	0.449410	1
H	0.507563	0.383177	-1.452400	1
H	-1.663647	0.928907	-0.436880	1
H	-0.422057	1.984667	0.166590	1
H	-1.605627	-0.402873	1.678940	1
H	-1.898257	1.310547	1.986130	1
H	-0.297057	0.628387	2.293030	1
H	2.216753	-0.648233	-0.088320	1
H	1.697633	2.083397	0.884680	1
H	2.394333	1.709117	-0.717240	1
H	3.234743	1.242197	0.766610	1
Es	-1.540428	-2.380606	-1.436313	99
Es	-1.157572	0.592916	1.618752	99
Es	1.584202	0.042213	0.316508	99
Es	-0.522477	1.653062	0.174209	99
Es	-0.132016	-1.450149	-0.545087	99
Es	1.868988	0.614728	0.277281	99
Es	-1.375103	0.925239	-0.242210	99
Es	-1.376661	-1.320256	-2.004029	99
Es	-0.576249	0.618159	2.073459	99
Es	-0.954551	0.757046	0.905909	99
Es	-0.764119	0.943107	0.189617	99
Es	1.968293	-0.369303	0.051038	99
Es	1.048118	0.054962	-0.028175	99
Es	2.343780	1.599157	-0.405913	99
Es	-0.214977	-1.751632	0.133862	99
Es	-1.461925	-0.087533	1.655327	99
Es	1.865902	1.846155	0.693829	99
Es	2.247890	1.338974	0.302222	99
Es	-1.666214	1.085575	1.866015	99
Es	2.923552	1.270422	0.615036	99
Es	-0.783053	-1.539594	-0.942439	99
Es	-0.223120	0.478847	-0.105073	99
Es	0.312838	0.026201	-0.431477	99
Es	-1.419465	-1.651170	-1.332529	99
Es	0.443255	0.278346	-1.145485	99
Es	-2.006713	-1.372773	-0.967110	99
Es	1.516855	-0.043985	0.652876	99
Es	0.416969	-1.836182	-0.893706	99
Es	0.075850	-0.711152	-0.483600	99
51
Properties=species:S:1:pos:R:3:Z:I:1 energy=-290.453903707971 field_type=dipole dipole="0.000000 0.000000 0.000000" charge=0
C	-1.419487	-1.651173	-1.332540	6
C	-0.131987	-1.450173	-0.545050	6
C	0.312753	0.026217	-0.431580	6
C	-0.764137	0.943137	0.189600	6
C	-1.157567	0.592907	1.618790	6
N	1.584093	0.042027	0.317030	7
C	2.247943	1.339087	0.302220	6
H	-1.600727	-2.720063	-1.486330	1
H	-1.359977	-1.172983	-2.315070	1
H	-2.284857	-1.247383	-0.798960	1
H	0.658343	-2.022833	-1.048660	1
H	-0.248767	-1.898063	0.449410	1
H	0.507563	0.383177	-1.452400	1
H	-1.663647	0.928907	-0.436880	1
H	-0.422057	1.984667	0.166590	1
H	-1.605627	-0.402873	1.678940	1
H	-1.898257	1.310547	1.986130	1
H	-0.297057	0.628387	2.293030	1
H	2.216753	-0.648233	-0.088320	1
H	1.697633	2.083397	0.884680	1
H	2.394333	1.709117	-0.717240	1
H	3.234743	1.242197	0.766610	1
Es	1.968241	-0.369172	0.051145	99
Es	-1.666241	1.085579	1.866022	99
Es	-0.576257	0.618193	2.073428	99
Es	-0.954513	0.757100	0.905956	99
Es	-1.419465	-1.651170	-1.332529	99
Es	-1.461889	-0.087585	1.655318	99
Es	-0.223154	0.478894	-0.105069	99
Es	-0.215053	-1.751627	0.133870	99
Es	1.517020	-0.043884	0.653256	99
Es	1.584201	0.042219	0.316410	99
Es	-0.764119	0.943109	0.189617	99
Es	2.923613	1.270478	0.615124	99
Es	2.343787	1.599115	-0.405867	99
Es	0.312839	0.026201	-0.431475	99
Es	0.416993	-1.836203	-0.893658	99
Es	-1.376563	-1.320291	-2.004074	99
Es	2.247889	1.338974	0.302221	99
Es	1.868979	0.614507	0.277018	99
Es	0.075881	-0.711161	-0.483590	99
Es	1.047970	0.054951	-0.028342	99
Es	1.865839	1.846152	0.693702	99
Es	0.443281	0.278295	-1.145470	99
Es	-1.375107	0.925165	-0.242153	99
Es	-0.132016	-1.450151	-0.545087	99
Es	-1.157571	0.592917	1.618751	99
Es	-0.783096	-1.539580	-0.942491	99
Es	-1.540362	-2.380625	-1.436252	99
Es	-2.006769	-1.372734	-0.967125	99
Es	-0.522510	1.653108	0.174134	99
51
Properties=species:S:1:pos:R:3:Z:I:1 energy=-290.453903707971 field_type=dipole dipole="0.000000 0.000000 0.000000" charge=0
C	-1.419487	-1.651173	-1.332540	6
C	-0.131987	-1.450173	-0.545050	6
C	0.312753	0.026217	-0.431580	6
C	-0.764137	0.943137	0.189600	6
C	-1.157567	0.592907	1.618790	6
N	1.584093	0.042027	0.317030	7
C	2.247943	1.339087	0.302220	6
H	-1.600727	-2.720063	-1.486330	1
H	-1.359977	-1.172983	-2.315070	1
H	-2.284857	-1.247383	-0.798960	1
H	0.658343	-2.022833	-1.048660	1
H	-0.248767	-1.898063	0.449410	1