42
Properties=species:S:1:pos:R:3:Z:I:1 energy=-286.9225619934825 field_type=dipole dipole="0.000000 0.000000 0.000000" charge=0
C	-1.927290	0.418078	0.218987	6
C	-0.442970	0.386998	0.199437	6
C	0.396440	1.438878	0.220147	6
C	1.757180	0.962848	0.226567	6
C	1.757390	-0.378442	0.213327	6
C	0.349650	-0.894642	0.204097	6
N	0.118640	-1.706892	-0.974072	7
H	-2.305180	1.444118	0.275867	1
H	-2.308010	-0.128402	1.087348	1
H	-2.336560	-0.038992	-0.686893	1
H	0.121930	2.482678	0.238007	1
H	2.626430	1.602018	0.238007	1
H	2.633620	-1.008522	0.215567	1
H	0.152930	-1.471992	1.113977	1
H	0.264190	-1.121642	-1.795332	1
H	-0.858390	-1.986092	-0.995042	1
Es	1.068761	-0.669099	0.208617	99
Es	0.194746	-1.339688	-1.460656	99
Es	1.097682	1.256703	0.224628	99
Es	-1.927248	0.418065	0.218982	99
Es	-0.012145	0.935040	-0.116408	99
Es	1.770698	0.288105	0.536978	99
Es	1.757364	-0.378529	0.213348	99
Es	-2.178361	1.112552	0.256208	99
Es	0.332596	-1.992455	-0.978323	99
Es	1.757171	0.962963	0.226560	99
Es	2.344495	-0.813878	0.214302	99
Es	0.212914	2.152194	0.230482	99
Es	-2.193927	0.103512	-0.393702	99
Es	0.118322	-1.706458	-0.974044	99
Es	-0.021443	0.933186	0.527443	99
Es	-0.481222	-1.857371	-0.981760	99
Es	0.201499	-1.329277	-0.460980	99
Es	0.212209	-1.273009	0.817187	99
Es	-0.083866	-0.263089	0.203312	99
Es	0.396516	1.438956	0.220143	99
Es	-0.443063	0.386918	0.199448	99
Es	1.769264	0.292765	-0.102053	99
Es	-2.174942	0.044400	0.804220	99
Es	-1.188089	0.397384	0.204394	99
Es	2.343798	1.404190	0.234486	99
Es	0.349632	-0.894692	0.203981	99
42
Properties=species:S:1:pos:R:3:Z:I:1 energy=-286.9225619934825 field_type=dipole dipole="0.000000 0.000000 0.000000" charge=0
C	-1.927290	0.418078	0.218987	6
C	-0.442970	0.386998	0.199437	6
C	0.396440	1.438878	0.220147	6
C	1.757180	0.962848	0.226567	6
C	1.757390	-0.378442	0.213327	6
C	0.349650	-0.894642	0.204097	6
N	0.118640	-1.706892	-0.974072	7
H	-2.305180	1.444118	0.275867	1
H	-2.308010	-0.128402	1.087348	1
H	-2.336560	-0.038992	-0.686893	1
H	0.121930	2.482678	0.238007	1
H	2.626430	1.602018	0.238007	1
H	2.633620	-1.008522	0.215567	1
H	0.152930	-1.471992	1.113977	1
H	0.264190	-1.121642	-1.795332	1
H	-0.858390	-1.986092	-0.995042	1
Es	0.211587	-1.272158	0.815393	99
Es	2.345614	1.407438	0.234088	99
Es	-2.174392	0.042974	0.802265	99
Es	1.068818	-0.671298	0.208702	99
Es	-0.011341	0.934107	-0.114462	99
Es	0.190447	-1.338008	-1.456528	99
Es	2.343368	-0.811488	0.214957	99
Es	-0.443064	0.386914	0.199442	99
Es	-0.084132	-0.264709	0.203299	99
Es	-0.021030	0.932650	0.526254	99
Es	-2.192005	0.103199	-0.391126	99
Es	0.197185	-1.328839	-0.463040	99
Es	0.349632	-0.894692	0.203980	99
Es	0.213657	2.155383	0.229935	99
Es	1.769535	0.288771	0.535289	99
Es	-2.179467	1.116326	0.255920	99
Es	1.769278	0.293900	-0.099751	99
Es	-1.927249	0.418064	0.218981	99
Es	0.118301	-1.706410	-0.974052	99
Es	-1.188120	0.395344	0.203756	99
Es	0.396519	1.438961	0.220143	99
Es	1.757363	-0.378536	0.213336	99
Es	0.341504	-1.982795	-0.978750	99
Es	-0.482579	-1.870402	-0.981417	99
Es	1.096759	1.251721	0.223616	99
Es	1.757172	0.962972	0.226564	99
42
Properties=species:S:1:pos:R:3:Z:I:1 energy=-286.9225619934825 field_type=dipole dipole="0.000000 0.000000 0.000000" charge=0
C	-1.927290	0.418078	0.218987	6
C	-0.442970	0.386998	0.199437	6
C	0.396440	1.438878	0.220147	6
C	1.757180	0.962848	0.226567	6
C	1.757390	-0.378442	0.213327	6
C	0.349650	-0.894642	0.204097	6
N	0.118640	-1.706892	-0.974072	7
H	-2.305180	1.444118	0.275867	1
H	-2.308010	-0.128402	1.087348	1
H	-2.336560	-0.038992	-0.686893	1
H	0.121930	2.482678	0.238007	1
H	2.626430	1.602018	0.238007	1
H	2.633620	-1.008522	0.215567	1
H	0.152930	-1.471992	1.113977	1
H	0.264190	-1.121642	-1.795332	1
H	-0.858390	-1.986092	-0.995042	1
Es	0.346478	-1.972797	-0.979026	99
Es	-0.443067	0.386912	0.199432	99
Es	2.345552	1.409662	0.234038	99
Es	1.757173	0.962971	0.226566	99
Es	-1.188387	0.393806	0.203125	99
Es	-0.011078	0.933622	-0.113145	99
Es	0.396520	1.438962	0.220140	99
Es	0.215049	2.157144	0.229679	99
Es	-2.190075	0.104499	-0.388930	99
Es	2.342702	-0.809612	0.215247	99
Es	-0.084946	-0.265928	0.203369	99
Es	-2.179329	1.118875	0.255708	99
Es	-2.175051	0.041136	0.800555	99
Es	0.211986	-1.270409	0.813641	99
Es	1.095962	1.248222	0.223296	99
Es	1.769355	0.289250	0.534221	99
Es	1.757363	-0.378537	0.213338	99
Es	0.118315	-1.706426	-0.974058	99
Es	0.187174	-1.337413	-1.453070	99
Es	1.768719	0.294594	-0.098700	99
Es	-0.481675	-1.882328	-0.981285	99
Es	-1.927250	0.418064	0.218983	99
Es	-0.020793	0.932227	0.525282	99
Es	0.193588	-1.329230	-0.464535	99
Es	1.069444	-0.673189	0.208945	99
Es	0.349633	-0.894690	0.203980	99
42
Properties=species:S:1:pos:R:3:Z:I:1 energy=-286.9225619934825 field_type=dipole dipole="0.000000 0.000000 0.000000" charge=0
C	-1.927290	0.418078	0.218987	6
C	-0.442970	0.386998	0.199437	6
C	0.396440	1.438878	0.220147	6
C	1.757180	0.962848	0.226567	6
C	1.757390	-0.378442	0.213327	6
C	0.349650	-0.894642	0.204097	6
N	0.118640	-1.706892	-0.974072	7
H	-2.305180	1.444118	0.275867	1
H	-2.308010	-0.128402	1.087348	1
H	-2.336560	-0.038992	-0.686893	1
H	0.121930	2.482678	0.238007	1
H	2.626430	1.602018	0.238007	1
H	2.633620	-1.008522	0.215567	1
H	0.152930	-1.471992	1.113977	1
H	0.264190	-1.121642	-1.795332	1
H	-0.858390	-1.986092	-0.995042	1
Es	0.396520	1.438960	0.220137	99
Es	1.757173	0.962971	0.226566	99
Es	-0.479089	-1.892328	-0.981159	99
Es	-2.178392	0.036258	0.797975	99
Es	-0.011153	0.933203	-0.112292	99
Es	-1.188651	0.393116	0.202752	99
Es	1.070239	-0.674916	0.208996	99
Es	-0.020453	0.932066	0.524577	99
Es	-0.443067	0.386914	0.199436	99
Es	2.342164	-0.808043	0.215591	99
Es	1.769491	0.289691	0.533447	99
Es	0.188555	-1.335360	-0.463738	99
Es	1.757362	-0.378539	0.213334	99
Es	-0.085823	-0.266793	0.203321	99
Es	-2.179086	1.120377	0.255325	99
Es	1.095316	1.246091	0.223251	99
Es	2.345145	1.411023	0.234065	99
Es	0.213999	-1.264853	0.810214	99
Es	-2.185737	0.109071	-0.386040	99
Es	-1.927250	0.418064	0.218981	99
Es	0.184757	-1.335315	-1.450516	99
Es	0.348967	-1.964170	-0.979102	99
Es	1.768180	0.294925	-0.097841	99
Es	0.118301	-1.706400	-0.974050	99
Es	0.349633	-0.894689	0.203984	99
Es	0.216257	2.158062	0.229581	99
42
Properties=species:S:1:pos:R:3:Z:I:1 energy=-286.9225619934825 field_type=dipole dipole="0.000000 0.000000 0.000000" charge=0
C	-1.927290	0.418078	0.218987	6
C	-0.442970	0.386998	0.199437	6
C	0.396440	1.438878	0.220147	6
C	1.757180	0.962848	0.226567	6
C	1.757390	-0.378442	0.213327	6
C	0.349650	-0.894642	0.204097	6
N	0.118640	-1.706892	-0.974072	7
H	-2.305180	1.444118	0.275867	1
H	-2.308010	-0.128402	1.087348	1
H	-2.336560	-0.038992	-0.686893	1
H	0.121930	2.482678	0.238007	1
H	2.626430	1.602018	0.238007	1
H	2.633620	-1.008522	0.215567	1
H	0.152930	-1.471992	1.113977	1
H	0.264190	-1.121642	-1.795332	1
H	-0.858390	-1.986092	-0.995042	1
Es	0.185017	-1.326173	-1.447733	99
Es	1.757363	-0.378539	0.213330	99
Es	-2.178213	1.121190	0.255601	99
Es	0.349633	-0.894689	0.203983	99
Es	-0.011499	0.933161	-0.112440	99
Es	0.182938	-1.353424	-0.456262	99
Es	-1.927247	0.418065	0.218981	99
Es	2.341552	-0.807221	0.215548	99
Es	-2.181851	0.113839	-0.382971	99
Es	-0.086233	-0.267313	0.203228	99
Es	1.769673	0.289860	0.533658	99
Es	1.757173	0.962971	0.226569	99
Es	0.118303	-1.706395	-0.974056	99
Es	0.396520	1.438962	0.220139	99
Es	1.095095	1.245017	0.223463	99
Es	2.344534	1.411960	0.234279	99
Es	1.070504	-0.675692	0.208930	99
Es	-0.443066	0.386913	0.199438	99
Es	0.347481	-1.957407	-0.979782	99
Es	0.217345	2.158461	0.229768	99
Es	1.767713	0.294903	-0.098073	99
Es	-2.181710	0.031177	0.794686	99
Es	-0.020001	0.931991	0.524691	99
Es	-1.189334	0.392794	0.202528	99
Es	-0.476296	-1.899469	-0.981388	99
Es	0.217967	-1.255556	0.800677	99
42
Properties=species:S:1:pos:R:3:Z:I:1 energy=-286.9225619934825 field_type=dipole dipole="0.000000 0.000000 0.000000" charge=0
C	-1.927290	0.418078	0.218987	6
C	-0.442970	0.386998	0.199437	6
C	0.396440	1.438878	0.220147	6
C	1.757180	0.962848	0.226567	6
C	1.757390	-0.378442	0.213327	6
C	0.349650	-0.894642	0.204097	6
N	0.118640	-1.706892	-0.974072	7
H	-2.305180	1.444118	0.275867	1
H	-2.308010	-0.128402	1.087348	1
H	-2.336560	-0.038992	-0.686893	1
H	0.121930	2.482678	0.238007	1
H	2.626430	1.602018	0.238007	1
H	2.633620	-1.008522	0.215567	1
H	0.152930	-1.471992	1.113977	1
H	0.264190	-1.121642	-1.795332	1
H	-0.858390	-1.986092	-0.995042	1
Es	-0.443066	0.386913	0.199439	99
Es	-0.086528	-0.267921	0.203075	99
Es	1.094968	1.244491	0.223475	99
Es	-1.189903	0.392752	0.202508	99
Es	0.220076	-1.250427	0.792613	99
Es	-2.177290	1.121673	0.255705	99
Es	-0.474374	-1.903247	-0.981483	99
Es	2.344000	1.412615	0.234457	99
Es	-2.179126	0.116915	-0.380506	99
Es	-1.927249	0.418064	0.218981	99
Es	0.345981	-1.953805	-0.980665	99
Es	-0.018100	0.931609	0.524677	99
Es	0.118314	-1.706412	-0.974089	99
Es	2.340922	-0.806454	0.215298	99
Es	-0.013263	0.933206	-0.112183	99
Es	0.184938	-1.321253	-1.445091	99
Es	1.769725	0.290017	0.534323	99
Es	-2.184079	0.027814	0.791886	99
Es	0.180302	-1.363303	-0.449818	99
Es	1.757172	0.962972	0.226570	99
Es	1.070827	-0.676236	0.208852	99
Es	0.349635	-0.894689	0.203979	99
Es	0.396520	1.438962	0.220139	99
Es	1.767409	0.295007	-0.098641	99
Es	0.218187	2.158661	0.229955	99
Es	1.757362	-0.378539	0.213337	99
42
Properties=species:S:1:pos:R:3:Z:I:1 energy=-286.9225619934825 field_type=dipole dipole="0.000000 0.000000 0.000000" charge=0
C	-1.927290	0.418078	0.218987	6
C	-0.442970	0.386998	0.199437	6
C	0.396440	1.438878	0.220147	6
C	1.757180	0.962848	0.226567	6
C	1.757390	-0.378442	0.213327	6
C	0.349650	-0.894642	0.204097	6
N	0.118640	-1.706892	-0.974072	7
H	-2.305180	1.444118	0.275867	1
H	-2.308010	-0.128402	1.087348	1
H	-2.336560	-0.038992	-0.686893	1
H	0.121930	2.482678	0.238007	1
H	2.626430	1.602018	0.238007	1
H	2.633620	-1.008522	0.215567	1
H	0.152930	-1.471992	1.113977	1
H	0.264190	-1.121642	-1.795332	1
H	-0.858390	-1.986092	-0.995042	1
Es	1.094962	1.244202	0.223774	99
Es	0.396526	1.438965	0.220142	99
Es	0.349630	-0.894696	0.203975	99
Es	0.185326	-1.316137	-1.441537	99
Es	2.343731	1.412933	0.234537	99
Es	-1.190256	0.392610	0.202434	99
Es	-1.927250	0.418064	0.218981	99
Es	-0.086625	-0.268006	0.203045	99
Es	-0.471817	-1.908030	-0.981566	99
Es	1.769626	0.290064	0.534833	99
Es	1.767407	0.294930	-0.099099	99
Es	-0.012606	0.933156	-0.112785	99
Es	-2.179216	0.116767	-0.380752	99
Es	1.070880	-0.676751	0.208693	99
Es	1.757365	-0.378538	0.213338	99
Es	0.118317	-1.706397	-0.974006	99
Es	-2.183882	0.027852	0.792117	99
Es	2.340454	-0.806020	0.215180	99
Es	-0.443066	0.386913	0.199437	99
Es	0.221525	-1.247225	0.786178	99
Es	-2.176593	1.121978	0.255768	99
Es	-0.018743	0.931712	0.525072	99
Es	0.178044	-1.371477	-0.446855	99
Es	0.218598	2.158771	0.230087	99
Es	0.343850	-1.949226	-0.980765	99
Es	1.757173	0.962971	0.226567	99
42
Properties=species:S:1:pos:R:3:Z:I:1 energy=-286.9225619934825 field_type=dipole dipole="0.000000 0.000000 0.000000" charge=0
C	-1.927290	0.418078	0.218987	6
C	-0.442970	0.386998	0.199437	6
C	0.396440	1.438878	0.220147	6
C	1.757180	0.962848	0.226567	6
C	1.757390	-0.378442	0.213327	6
C	0.349650	-0.894642	0.204097	6
N	0.118640	-1.706892	-0.974072	7
H	-2.305180	1.444118	0.275867	1
H	-2.308010	-0.128402	1.087348	1
H	-2.336560	-0.038992	-0.686893	1
H	0.121930	2.482678	0.238007	1
H	2.626430	1.602018	0.238007	1
H	2.633620	-1.008522	0.215567	1
H	0.152930	-1.471992	1.113977	1
H	0.264190	-1.121642	-1.795332	1
H	-0.858390	-1.986092	-0.995042	1
Es	-0.012514	0.932956	-0.113129	99
Es	-1.190684	0.392678	0.202386	99
Es	-2.176001	1.122216	0.255919	99
Es	0.118330	-1.706457	-0.974047	99
Es	-0.470836	-1.909636	-0.981597	99
Es	1.769676	0.290147	0.535008	99
Es	-2.184874	0.026280	0.790680	99
Es	1.094754	1.243914	0.223848	99
Es	0.396520	1.438962	0.220141	99
Es	-0.018672	0.931689	0.525428	99
Es	1.071020	-0.676862	0.208641	99
Es	-2.177990	0.118149	-0.379567	99
Es	0.219211	2.158878	0.230195	99
Es	0.185207	-1.314720	-1.440286	99
Es	-1.927249	0.418064	0.218981	99
Es	0.222418	-1.245188	0.781634	99
Es	1.767301	0.294964	-0.099505	99
Es	2.340047	-0.805654	0.215247	99
Es	0.177110	-1.374886	-0.443046	99
Es	0.349633	-0.894689	0.203981	99
Es	1.757361	-0.378538	0.213336	99
Es	2.343410	1.413304	0.234725	99
Es	-0.086928	-0.268422	0.202906	99
Es	1.757172	0.962971	0.226570	99
Es	-0.443065	0.386913	0.199438	99
Es	0.343002	-1.947646	-0.981093	99
42
Properties=species:S:1:pos:R:3:Z:I:1 energy=-286.9225619934825 field_type=dipole dipole="0.000000 0.000000 0.000000" charge=0
C	-1.927290	0.418078	0.218987	6
C	-0.442970	0.386998	0.199437	6
C	0.396440	1.438878	0.220147	6
C	1.757180	0.962848	0.226567	6
C	1.757390	-0.378442	0.213327	6
C	0.349650	-0.894642	0.204097	6
N	0.118640	-1.706892	-0.974072	7
H	-2.305180	1.444118	0.275867	1
H	-2.308010	-0.128402	1.087348	1
H	-2.336560	-0.038992	-0.686893	1
H	0.121930	2.482678	0.238007	1
H	2.626430	1.602018	0.238007	1
H	2.633620	-1.008522	0.215567	1
H	0.152930	-1.471992	1.113977	1
H	0.264190	-1.121642	-1.795332	1
H	-0.858390	-1.986092	-0.995042	1
Es	-2.178479	0.117503	-0.380315	99
Es	1.769967	0.290176	0.535035	99
Es	-0.087085	-0.268445	0.202828	99
Es	0.219393	2.158909	0.230303	99
Es	0.176409	-1.379744	-0.442704	99
Es	-0.012537	0.932982	-0.113375	99
Es	1.094824	1.243781	0.224127	99
Es	-2.184372	0.026897	0.791411	99
Es	-0.469312	-1.912321	-0.981698	99
Es	2.339896	-0.805326	0.215037	99
Es	-0.018589	0.931697	0.525558	99
Es	1.071118	-0.677338	0.208642	99
Es	0.185808	-1.311278	-1.437074	99
Es	-1.927244	0.418063	0.218982	99
Es	1.757173	0.962971	0.226569	99
Es	1.766814	0.294874	-0.099500	99
Es	0.341040	-1.944919	-0.981348	99
Es	0.222949	-1.243882	0.778299	99
Es	0.349633	-0.894689	0.203982	99
Es	-2.175515	1.122396	0.255933	99
Es	-1.190843	0.392616	0.202473	99
Es	0.396520	1.438961	0.220142	99
Es	0.118309	-1.706398	-0.974026	99
Es	-0.443066	0.386913	0.199440	99
Es	1.757361	-0.378538	0.213334	99
Es	2.343188	1.413526	0.234739	99
42
Properties=species:S:1:pos:R:3:Z:I:1 energy=-286.9225619934825 field_type=dipole dipole="0.000000 0.000000 0.000000" charge=0
C	-1.927290	0.418078	0.218987	6
C	-0.442970	0.386998	0.199437	6
C	0.396440	1.438878	0.220147	6
C	1.757180	0.962848	0.226567	6
C	1.757390	-0.378442	0.213327	6
C	0.349650	-0.894642	0.204097	6
N	0.118640	-1.706892	-0.974072	7
H	-2.305180	1.444118	0.275867	1
H	-2.308010	-0.128402	1.087348	1
H	-2.336560	-0.038992	-0.686893	1
H	0.121930	2.482678	0.238007	1
H	2.626430	1.602018	0.238007	1
H	2.633620	-1.008522	0.215567	1
H	0.152930	-1.471992	1.113977	1
H	0.264190	-1.121642	-1.795332	1
H	-0.858390	-1.986092	-0.995042	1
Es	-0.468278	-1.913897	-0.981748	99
Es	0.175555	-1.382422	-0.441583	99
Es	-0.443067	0.386913	0.199436	99
Es	0.349633	-0.894689	0.203986	99
Es	-0.087140	-0.268613	0.202882	99
Es	1.071269	-0.677530	0.208602	99
Es	1.757362	-0.378538	0.213334	99
Es	-0.014170	0.933198	-0.112583	99
Es	-2.184045	0.027127	0.791815	99
Es	1.768438	0.290072	0.535912	99
Es	-1.191001	0.392539	0.202417	99
Es	-0.016916	0.931431	0.524781	99
Es	-2.178688	0.117185	-0.380631	99
Es	1.094642	1.243701	0.224111	99
Es	-2.175217	1.122530	0.255918	99
Es	2.339678	-0.805061	0.214838	99
Es	1.757173	0.962972	0.226568	99
Es	0.118294	-1.706398	-0.974064	99
Es	0.396520	1.438963	0.220141	99
Es	-1.927249	0.418064	0.218981	99
Es	0.219709	2.158970	0.230334	99
Es	0.223428	-1.242747	0.775368	99
Es	2.343061	1.413668	0.234749	99
Es	0.340116	-1.943415	-0.981160	99
Es	0.186029	-1.309662	-1.435451	99
Es	1.768221	0.295026	-0.100161	99
