33
Properties=species:S:1:pos:R:3:Z:I:1 energy=-230.7558690016106 field_type=dipole dipole="0.000000 0.000000 0.000000" charge=0
C	-1.213100	-0.688400	0.000000	6
C	-1.202800	0.706400	0.000100	6
C	-0.010300	-1.394800	0.000000	6
C	0.010400	1.394800	-0.000100	6
C	1.202800	-0.706300	0.000000	6
C	1.213100	0.688400	0.000000	6
H	-2.157700	-1.224400	0.000000	1
H	-2.139300	1.256400	0.000100	1
H	-0.018400	-2.480900	-0.000100	1
H	0.018400	2.480800	0.000000	1
H	2.139400	-1.256300	0.000100	1
H	2.157700	1.224500	0.000000	1
Es	-1.855126	-1.055226	0.000046	99
Es	0.544423	0.926766	0.287541	99
Es	-1.076067	0.008073	0.287498	99
Es	1.213124	0.688416	-0.000001	99
Es	-0.620093	-1.055892	0.000044	99
Es	-0.017936	-2.134178	-0.000048	99
Es	1.224683	-0.009135	-0.000004	99
Es	0.010403	1.394828	-0.000102	99
Es	-0.010297	-1.394829	0.000002	99
Es	1.202826	-0.706315	-0.000007	99
Es	-1.839294	1.082733	0.000113	99
Es	0.530795	-0.935181	-0.287574	99
Es	0.530617	-0.935188	0.287545	99
Es	1.841488	-1.079076	0.000044	99
Es	-1.202826	0.706415	0.000100	99
Es	-1.213125	-0.688409	0.000003	99
Es	1.857221	1.051529	-0.000033	99
Es	0.544963	0.927670	-0.287491	99
Es	-0.604322	1.064951	-0.000045	99
Es	-1.074800	0.008140	-0.287530	99
Es	0.013714	2.134250	-0.000058	99
33
Properties=species:S:1:pos:R:3:Z:I:1 energy=-230.7558690016106 field_type=dipole dipole="0.000000 0.000000 0.000000" charge=0
C	-1.213100	-0.688400	0.000000	6
C	-1.202800	0.706400	0.000100	6
C	-0.010300	-1.394800	0.000000	6
C	0.010400	1.394800	-0.000100	6
C	1.202800	-0.706300	0.000000	6
C	1.213100	0.688400	0.000000	6
H	-2.157700	-1.224400	0.000000	1
H	-2.139300	1.256400	0.000100	1
H	-0.018400	-2.480900	-0.000100	1
H	0.018400	2.480800	0.000000	1
H	2.139400	-1.256300	0.000100	1
H	2.157700	1.224500	0.000000	1
Es	-1.202827	0.706416	0.000100	99
Es	-0.010301	-1.394832	-0.000002	99
Es	1.202827	-0.706316	-0.000000	99
Es	1.213129	0.688416	-0.000001	99
Es	-0.800215	-0.506870	-0.000205	99
Es	0.010400	1.394833	-0.000100	99
Es	0.015932	2.136338	-0.000069	99
Es	1.842310	-1.081807	0.000089	99
Es	-0.015786	-2.136382	-0.000080	99
Es	-1.212836	0.009046	0.000150	99
Es	-0.598691	1.054978	-0.000056	99
Es	1.212798	-0.008966	-0.000089	99
Es	0.614280	1.045881	-0.000291	99
Es	-1.858100	-1.054320	0.000011	99
Es	0.839218	-0.439545	-0.000043	99
Es	-0.614303	-1.046001	0.000135	99
Es	0.598727	-1.054930	0.000084	99
Es	1.858116	1.054404	0.000033	99
Es	-0.038943	0.946468	0.000259	99
Es	-1.842238	1.081948	0.000129	99
Es	-1.213127	-0.688416	-0.000013	99
33
Properties=species:S:1:pos:R:3:Z:I:1 energy=-230.7558690016106 field_type=dipole dipole="0.000000 0.000000 0.000000" charge=0
C	-1.213100	-0.688400	0.000000	6
C	-1.202800	0.706400	0.000100	6
C	-0.010300	-1.394800	0.000000	6
C	0.010400	1.394800	-0.000100	6
C	1.202800	-0.706300	0.000000	6
C	1.213100	0.688400	0.000000	6
H	-2.157700	-1.224400	0.000000	1
H	-2.139300	1.256400	0.000100	1
H	-0.018400	-2.480900	-0.000100	1
H	0.018400	2.480800	0.000000	1
H	2.139400	-1.256300	0.000100	1
H	2.157700	1.224500	0.000000	1
Es	-1.858075	-1.054363	-0.000072	99
Es	1.213128	0.688416	-0.000002	99
Es	-1.212888	0.009045	-0.000025	99
Es	1.202827	-0.706316	0.000004	99
Es	-1.213128	-0.688416	0.000006	99
Es	0.813514	-0.485437	0.000223	99
Es	-0.015835	-2.136368	-0.000050	99
Es	0.010400	1.394832	-0.000102	99
Es	-1.842256	1.081933	0.000139	99
Es	0.614338	1.045939	-0.000080	99
Es	-0.598675	1.054949	-0.000080	99
Es	1.842287	-1.081852	0.000052	99
Es	1.212844	-0.008990	-0.000133	99
Es	0.015877	2.136325	-0.000130	99
Es	-0.614248	-1.045918	-0.000103	99
Es	1.858090	1.054421	-0.000006	99
Es	0.013727	0.947142	0.000142	99
Es	-0.827181	-0.461652	0.000267	99
Es	0.598753	-1.054933	-0.000108	99
Es	-1.202827	0.706416	0.000100	99
Es	-0.010300	-1.394832	0.000001	99
33
Properties=species:S:1:pos:R:3:Z:I:1 energy=-230.7558690016106 field_type=dipole dipole="0.000000 0.000000 0.000000" charge=0
C	-1.213100	-0.688400	0.000000	6
C	-1.202800	0.706400	0.000100	6
C	-0.010300	-1.394800	0.000000	6
C	0.010400	1.394800	-0.000100	6
C	1.202800	-0.706300	0.000000	6
C	1.213100	0.688400	0.000000	6
H	-2.157700	-1.224400	0.000000	1
H	-2.139300	1.256400	0.000100	1
H	-0.018400	-2.480900	-0.000100	1
H	0.018400	2.480800	0.000000	1
H	2.139400	-1.256300	0.000100	1
H	2.157700	1.224500	0.000000	1
Es	-1.858075	-1.054395	0.000014	99
Es	0.015900	2.136333	-0.000021	99
Es	-1.842244	1.081934	0.000136	99
Es	-0.010300	-1.394832	0.000001	99
Es	-0.614239	-1.045898	-0.000005	99
Es	-0.874300	-0.364623	0.000039	99
Es	1.858080	1.054423	0.000022	99
Es	-1.212915	0.009029	0.000026	99
Es	1.212917	-0.008998	0.000025	99
Es	0.753018	-0.574790	-0.000010	99
Es	1.213128	0.688416	-0.000000	99
Es	1.202828	-0.706316	-0.000002	99
Es	0.598702	-1.054891	-0.000005	99
Es	-1.202827	0.706416	0.000097	99
Es	-0.015811	-2.136377	-0.000064	99
Es	0.614266	1.045903	-0.000266	99
Es	-1.213127	-0.688416	-0.000000	99
Es	0.121342	0.939466	0.000146	99
Es	-0.598677	1.054961	-0.000066	99
Es	1.842306	-1.081834	0.000079	99
Es	0.010400	1.394831	-0.000103	99
33
Properties=species:S:1:pos:R:3:Z:I:1 energy=-230.7558690016106 field_type=dipole dipole="0.000000 0.000000 0.000000" charge=0
C	-1.213100	-0.688400	0.000000	6
C	-1.202800	0.706400	0.000100	6
C	-0.010300	-1.394800	0.000000	6
C	0.010400	1.394800	-0.000100	6
C	1.202800	-0.706300	0.000000	6
C	1.213100	0.688400	0.000000	6
H	-2.157700	-1.224400	0.000000	1
H	-2.139300	1.256400	0.000100	1
H	-0.018400	-2.480900	-0.000100	1
H	0.018400	2.480800	0.000000	1
H	2.139400	-1.256300	0.000100	1
H	2.157700	1.224500	0.000000	1
Es	0.015872	2.136351	-0.000063	99
Es	1.858087	1.054424	-0.000007	99
Es	1.212892	-0.008993	-0.000062	99
Es	0.946465	0.041400	0.000049	99
Es	-0.015790	-2.136375	-0.000037	99
Es	1.213128	0.688415	0.000000	99
Es	-1.858051	-1.054427	0.000009	99
Es	-0.614231	-1.045897	-0.000362	99
Es	-1.212971	0.009033	0.000085	99
Es	-0.437361	-0.840215	0.000297	99
Es	0.010400	1.394831	-0.000101	99
Es	0.614270	1.045891	-0.000060	99
Es	-0.010300	-1.394832	0.000001	99
Es	-1.842238	1.081949	0.000117	99
Es	0.598702	-1.054875	0.000035	99
Es	-1.213127	-0.688416	0.000003	99
Es	1.202827	-0.706316	0.000000	99
Es	-0.509044	0.798868	0.000055	99
Es	-1.202827	0.706416	0.000101	99
Es	1.842310	-1.081826	0.000055	99
Es	-0.598642	1.054936	-0.000073	99
33
Properties=species:S:1:pos:R:3:Z:I:1 energy=-230.7558690016106 field_type=dipole dipole="0.000000 0.000000 0.000000" charge=0
C	-1.213100	-0.688400	0.000000	6
C	-1.202800	0.706400	0.000100	6
C	-0.010300	-1.394800	0.000000	6
C	0.010400	1.394800	-0.000100	6
C	1.202800	-0.706300	0.000000	6
C	1.213100	0.688400	0.000000	6
H	-2.157700	-1.224400	0.000000	1
H	-2.139300	1.256400	0.000100	1
H	-0.018400	-2.480900	-0.000100	1
H	0.018400	2.480800	0.000000	1
H	2.139400	-1.256300	0.000100	1
H	2.157700	1.224500	0.000000	1
Es	0.598706	-1.054890	0.000051	99
Es	-1.842240	1.081929	0.000129	99
Es	-0.010300	-1.394832	-0.000000	99
Es	1.842294	-1.081848	0.000064	99
Es	-1.212958	0.009030	0.000103	99
Es	-0.614222	-1.045892	-0.000087	99
Es	-0.735129	0.597502	0.000095	99
Es	-1.202827	0.706416	0.000100	99
Es	1.212983	-0.009014	-0.000164	99
Es	-0.149832	-0.935324	-0.000002	99
Es	-0.015817	-2.136371	-0.000032	99
Es	-1.858076	-1.054389	0.000015	99
Es	0.885022	0.337875	0.000058	99
Es	1.858036	1.054488	0.000034	99
Es	0.614264	1.045863	-0.000014	99
Es	1.213127	0.688416	0.000001	99
Es	0.015895	2.136333	-0.000065	99
Es	-1.213128	-0.688416	-0.000001	99
Es	-0.598653	1.054950	-0.000140	99
Es	0.010400	1.394832	-0.000101	99
Es	1.202828	-0.706316	0.000000	99
33
Properties=species:S:1:pos:R:3:Z:I:1 energy=-230.7558690016106 field_type=dipole dipole="0.000000 0.000000 0.000000" charge=0
C	-1.213100	-0.688400	0.000000	6
C	-1.202800	0.706400	0.000100	6
C	-0.010300	-1.394800	0.000000	6
C	0.010400	1.394800	-0.000100	6
C	1.202800	-0.706300	0.000000	6
C	1.213100	0.688400	0.000000	6
H	-2.157700	-1.224400	0.000000	1
H	-2.139300	1.256400	0.000100	1
H	-0.018400	-2.480900	-0.000100	1
H	0.018400	2.480800	0.000000	1
H	2.139400	-1.256300	0.000100	1
H	2.157700	1.224500	0.000000	1
Es	1.842307	-1.081822	0.000070	99
Es	-0.598645	1.054943	-0.000028	99
Es	-1.212949	0.009041	0.000104	99
Es	-0.010300	-1.394832	0.000001	99
Es	-1.213128	-0.688416	0.000000	99
Es	0.598717	-1.054910	-0.000047	99
Es	-0.015830	-2.136379	-0.000039	99
Es	1.858062	1.054458	0.000008	99
Es	1.213128	0.688416	-0.000001	99
Es	-1.202827	0.706416	0.000100	99
Es	-1.842235	1.081948	0.000094	99
Es	1.212925	-0.009004	-0.000064	99
Es	-0.614228	-1.045898	-0.000010	99
Es	-0.940700	0.111924	0.000011	99
Es	0.373472	-0.870544	0.000035	99
Es	0.567288	0.758673	0.000011	99
Es	0.015865	2.136330	-0.000041	99
Es	0.614287	1.045880	-0.000065	99
Es	0.010400	1.394832	-0.000101	99
Es	-1.858066	-1.054398	0.000003	99
Es	1.202827	-0.706316	-0.000000	99
33
Properties=species:S:1:pos:R:3:Z:I:1 energy=-230.7558690016106 field_type=dipole dipole="0.000000 0.000000 0.000000" charge=0
C	-1.213100	-0.688400	0.000000	6
C	-1.202800	0.706400	0.000100	6
C	-0.010300	-1.394800	0.000000	6
C	0.010400	1.394800	-0.000100	6
C	1.202800	-0.706300	0.000000	6
C	1.213100	0.688400	0.000000	6
H	-2.157700	-1.224400	0.000000	1
H	-2.139300	1.256400	0.000100	1
H	-0.018400	-2.480900	-0.000100	1
H	0.018400	2.480800	0.000000	1
H	2.139400	-1.256300	0.000100	1
H	2.157700	1.224500	0.000000	1
Es	1.202827	-0.706316	0.000000	99
Es	1.858069	1.054436	0.000003	99
Es	0.614275	1.045905	0.000005	99
Es	-0.614223	-1.045891	0.000008	99
Es	1.212926	-0.008993	-0.000010	99
Es	-1.213128	-0.688416	0.000000	99
Es	0.803085	0.502463	-0.000088	99
Es	-0.598662	1.054936	-0.000045	99
Es	-0.015832	-2.136376	-0.000044	99
Es	-1.202826	0.706415	0.000120	99
Es	-1.842242	1.081944	0.000097	99
Es	-1.212935	0.009035	0.000080	99
Es	0.010400	1.394832	-0.000100	99
Es	-0.836723	0.444246	0.000027	99
Es	-0.010300	-1.394831	0.000011	99
Es	-1.858068	-1.054395	0.000008	99
Es	0.015876	2.136331	-0.000054	99
Es	0.033696	-0.946655	-0.000059	99
Es	1.842305	-1.081828	0.000069	99
Es	0.598721	-1.054914	0.000015	99
Es	1.213128	0.688416	-0.000004	99
33
Properties=species:S:1:pos:R:3:Z:I:1 energy=-230.7558690016106 field_type=dipole dipole="0.000000 0.000000 0.000000" charge=0
C	-1.213100	-0.688400	0.000000	6
C	-1.202800	0.706400	0.000100	6
C	-0.010300	-1.394800	0.000000	6
C	0.010400	1.394800	-0.000100	6
C	1.202800	-0.706300	0.000000	6
C	1.213100	0.688400	0.000000	6
H	-2.157700	-1.224400	0.000000	1
H	-2.139300	1.256400	0.000100	1
H	-0.018400	-2.480900	-0.000100	1
H	0.018400	2.480800	0.000000	1
H	2.139400	-1.256300	0.000100	1
H	2.157700	1.224500	0.000000	1
Es	1.212930	-0.008985	-0.000081	99
Es	-0.015826	-2.136379	-0.000034	99
Es	0.614267	1.045893	-0.000077	99
Es	0.010400	1.394832	-0.000100	99
Es	0.015889	2.136332	-0.000064	99
Es	-0.614223	-1.045892	0.000007	99
Es	-0.018038	-0.947075	0.000016	99
Es	1.858072	1.054439	0.000012	99
Es	-1.858066	-1.054401	0.000005	99
Es	-0.598665	1.054943	0.000025	99
Es	1.202828	-0.706316	0.000000	99
Es	-1.212944	0.009033	0.000037	99
Es	1.213127	0.688416	0.000009	99
Es	-1.842237	1.081945	0.000093	99
Es	0.598718	-1.054903	-0.000032	99
Es	-0.010300	-1.394832	-0.000007	99
Es	0.829323	0.457897	0.000041	99
Es	-1.202827	0.706416	0.000100	99
Es	1.842296	-1.081837	0.000060	99
Es	-1.213127	-0.688416	-0.000000	99
Es	-0.811224	0.489231	0.000032	99
33
Properties=species:S:1:pos:R:3:Z:I:1 energy=-230.7558690016106 field_type=dipole dipole="0.000000 0.000000 0.000000" charge=0
C	-1.213100	-0.688400	0.000000	6
C	-1.202800	0.706400	0.000100	6
C	-0.010300	-1.394800	0.000000	6
C	0.010400	1.394800	-0.000100	6
C	1.202800	-0.706300	0.000000	6
C	1.213100	0.688400	0.000000	6
H	-2.157700	-1.224400	0.000000	1
H	-2.139300	1.256400	0.000100	1
H	-0.018400	-2.480900	-0.000100	1
H	0.018400	2.480800	0.000000	1
H	2.139400	-1.256300	0.000100	1
H	2.157700	1.224500	0.000000	1
Es	0.010400	1.394831	-0.000088	99
Es	0.824578	-0.466366	0.000030	99
Es	0.598709	-1.054899	0.000018	99
Es	-1.858066	-1.054396	-0.000004	99
Es	-1.213127	-0.688416	0.000006	99
Es	-1.842242	1.081941	0.000116	99
Es	1.212928	-0.008989	-0.000045	99
Es	-0.008341	0.947232	-0.000038	99
Es	-1.202827	0.706416	0.000100	99
Es	-0.598669	1.054943	-0.000035	99
Es	0.614270	1.045894	-0.000020	99
Es	-1.212941	0.009033	0.000064	99
Es	1.842298	-1.081830	0.000040	99
Es	-0.614230	-1.045903	0.000027	99
Es	1.858072	1.054442	-0.000011	99
Es	-0.010300	-1.394832	-0.000000	99
Es	-0.816177	-0.480813	-0.000013	99
Es	0.015891	2.136331	-0.000054	99
Es	1.202827	-0.706316	0.000005	99
Es	1.213128	0.688416	-0.000000	99
Es	-0.015809	-2.136378	-0.000054	99
33
Properties=species:S:1:pos:R:3:Z:I:1 energy=-230.7558690016106 field_type=dipole dipole="0.000000 0.000000 0.000000" charge=0
C	-1.213100	-0.688400	0.000000	6
C	-1.202800	0.706400	0.000100	6
C	-0.010300	-1.394800	0.000000	6
C	0.010400	1.394800	-0.000100	6
C	1.202800	-0.706300	0.000000	6
C	1.213100	0.688400	0.000000	6
H	-2.157700	-1.224400	0.000000	1
H	-2.139300	1.256400	0.000100	1
H	-0.018400	-2.480900	-0.000100	1
H	0.018400	2.480800	0.000000	1
H	2.139400	-1.256300	0.000100	1
H	2.157700	1.224500	0.000000	1
Es	1.842296	-1.081840	0.000070	99
Es	0.690115	0.648968	-0.000034	99
Es	-1.213128	-0.688416	-0.000000	99
Es	-0.598673	1.054931	-0.000014	99
Es	1.213128	0.688416	0.000004	99
Es	-1.842245	1.081944	0.000099	99
Es	1.202827	-0.706316	-0.000001	99
Es	0.598712	-1.054894	-0.000046	99
Es	0.015882	2.136316	-0.000060	99
Es	-0.010300	-1.394832	-0.000001	99
Es	-1.858067	-1.054388	-0.000001	99
Es	-0.907082	0.273169	0.000004	99
Es	1.858057	1.054457	-0.000012	99
Es	0.010400	1.394832	-0.000101	99
Es	-0.614231	-1.045910	0.000003	99
Es	-0.015821	-2.136375	-0.000057	99
Es	1.212964	-0.008992	-0.000003	99
Es	0.614273	1.045899	-0.000044	99
Es	-1.202827	0.706416	0.000100	99
Es	0.217027	-0.922084	0.000032	99
Es	-1.212937	0.009040	0.000106	99
33
Properties=species:S:1:pos:R:3:Z:I:1 energy=-230.7558690016106 field_type=dipole dipole="0.000000 0.000000 0.000000" charge=0
C	-1.213100	-0.688400	0.000000	6
C	-1.202800	0.706400	0.000100	6
C	-0.010300	-1.394800	0.000000	6
C	0.010400	1.394800	-0.000100	6
C	1.202800	-0.706300	0.000000	6
C	1.213100	0.688400	0.000000	6
H	-2.157700	-1.224400	0.000000	1
H	-2.139300	1.256400	0.000100	1
H	-0.018400	-2.480900	-0.000100	1
H	0.018400	2.480800	0.000000	1
H	2.139400	-1.256300	0.000100	1
H	2.157700	1.224500	0.000000	1
Es	-0.598659	1.054935	0.000038	99
Es	0.015883	2.136334	-0.000057	99
Es	-0.015836	-2.136380	-0.000051	99
Es	0.598726	-1.054918	-0.000034	99
Es	1.213128	0.688416	0.000000	99
Es	0.874739	0.363713	-0.000040	99
Es	-1.858062	-1.054406	0.000009	99
Es	-1.202827	0.706416	0.000101	99
Es	-0.122322	-0.939309	-0.000058	99
Es	-1.842236	1.081949	0.000102	99
Es	-0.614206	-1.045874	0.000087	99
Es	-0.010300	-1.394832	-0.000002	99
Es	-0.752357	0.575649	-0.000011	99
Es	1.842303	-1.081828	0.000059	99
Es	0.010400	1.394832	-0.000100	99
Es	1.212931	-0.008990	0.000027	99
Es	1.858064	1.054449	-0.000006	99
Es	0.614265	1.045886	-0.000054	99
Es	1.202828	-0.706316	0.000000	99
Es	-1.213128	-0.688416	0.000000	99
Es	-1.212962	0.009029	0.000031	99
33
Properties=species:S:1:pos:R:3:Z:I:1 energy=-230.7558690016106 field_type=dipole dipole="0.000000 0.000000 0.000000" charge=0
C	-1.213100	-0.688400	0.000000	6
C	-1.202800	0.706400	0.000100	6
C	-0.010300	-1.394800	0.000000	6
C	0.010400	1.394800	-0.000100	6
C	1.202800	-0.706300	0.000000	6
C	1.213100	0.688400	0.000000	6
H	-2.157700	-1.224400	0.000000	1
H	-2.139300	1.256400	0.000100	1
H	-0.018400	-2.480900	-0.000100	1
H	0.018400	2.480800	0.000000	1
H	2.139400	-1.256300	0.000100	1
H	2.157700	1.224500	0.000000	1
Es	0.041690	-0.946337	-0.000003	99
Es	-0.598665	1.054941	-0.000027	99
Es	-0.840441	0.437139	0.000066	99
Es	-1.202827	0.706416	0.000100	99
Es	-1.212937	0.009034	0.000062	99
Es	-1.842242	1.081943	0.000099	99
Es	1.213127	0.688416	-0.000006	99
Es	-0.614225	-1.045900	-0.000017	99
Es	-0.010300	-1.394832	0.000001	99
Es	-1.213128	-0.688416	0.000000	99
Es	0.598721	-1.054902	-0.000015	99
Es	0.798812	0.509252	-0.000035	99
Es	1.212928	-0.008986	-0.000012	99
Es	-1.858067	-1.054397	0.000000	99
Es	-0.015825	-2.136377	-0.000037	99
Es	1.858072	1.054441	-0.000001	99
Es	0.010400	1.394832	-0.000100	99
Es	1.202827	-0.706316	-0.000000	99
Es	0.614269	1.045893	-0.000041	99
Es	1.842299	-1.081833	0.000062	99
Es	0.015883	2.136332	-0.000054	99
33
Properties=species:S:1:pos:R:3:Z:I:1 energy=-230.7558690016106 field_type=dipole dipole="0.000000 0.000000 0.000000" charge=0
C	-1.213100	-0.688400	0.000000	6
C	-1.202800	0.706400	0.000100	6
C	-0.010300	-1.394800	0.000000	6
C	0.010400	1.394800	-0.000100	6
C	1.202800	-0.706300	0.000000	6
C	1.213100	0.688400	0.000000	6
H	-2.157700	-1.224400	0.000000	1
H	-2.139300	1.256400	0.000100	1
H	-0.018400	-2.480900	-0.000100	1
H	0.018400	2.480800	0.000000	1
H	2.139400	-1.256300	0.000100	1
H	2.157700	1.224500	0.000000	1
Es	1.858072	1.054442	-0.000016	99
Es	-0.028851	0.946830	-0.000035	99
Es	-1.842230	1.081955	0.000103	99
Es	-1.858064	-1.054400	0.000010	99
Es	-0.598654	1.054925	-0.000022	99
Es	-1.213128	-0.688416	-0.000002	99
Es	0.010400	1.394832	-0.000100	99
Es	1.842298	-1.081836	0.000045	99
Es	0.834482	-0.448408	0.000085	99
Es	0.015879	2.136331	-0.000060	99
Es	1.212927	-0.008979	-0.000053	99
Es	-1.212968	0.009031	0.000052	99
Es	-0.015823	-2.136377	-0.000056	99
Es	1.213128	0.688416	-0.000000	99
Es	-0.010300	-1.394832	0.000000	99
Es	1.202828	-0.706316	0.000000	99
Es	0.614268	1.045895	-0.000016	99
Es	-0.614219	-1.045891	-0.000053	99
Es	-1.202827	0.706416	0.000101	99
Es	0.598726	-1.054907	-0.000012	99
Es	-0.805571	-0.498369	0.000072	99
33
Properties=species:S:1:pos:R:3:Z:I:1 energy=-230.7558690016106 field_type=dipole dipole="0.000000 0.000000 0.000000" charge=0
C	-1.213100	-0.688400	0.000000	6
C	-1.202800	0.706400	0.000100	6
C	-0.010300	-1.394800	0.000000	6
C	0.010400	1.394800	-0.000100	6
C	1.202800	-0.706300	0.000000	6
C	1.213100	0.688400	0.000000	6
H	-2.157700	-1.224400	0.000000	1
H	-2.139300	1.256400	0.000100	1
H	-0.018400	-2.480900	-0.000100	1
H	0.018400	2.480800	0.000000	1
H	2.139400	-1.256300	0.000100	1
H	2.157700	1.224500	0.000000	1
Es	-0.015822	-2.136377	-0.000036	99
Es	-0.008595	-0.947209	0.000022	99
Es	-1.213128	-0.688416	-0.000000	99
Es	-0.816060	0.481109	0.000058	99
Es	1.212927	-0.008988	-0.000013	99
Es	-1.858068	-1.054396	0.000000	99
Es	0.824716	0.466153	-0.000006	99
Es	1.858069	1.054443	-0.000001	99
Es	0.010400	1.394832	-0.000100	99
Es	0.015882	2.136328	-0.000064	99
Es	-0.614227	-1.045898	-0.000024	99
Es	-1.212934	0.009035	0.000049	99
Es	-0.010300	-1.394832	-0.000004	99
Es	1.202827	-0.706316	0.000000	99
Es	0.598719	-1.054901	-0.000011	99
Es	1.842301	-1.081835	0.000043	99
Es	-1.202827	0.706416	0.000095	99
Es	-0.598668	1.054941	-0.000005	99
Es	1.213128	0.688416	0.000001	99
Es	-1.842244	1.081939	0.000099	99
Es	0.614273	1.045899	-0.000062	99
33
Properties=species:S:1:pos:R:3:Z:I:1 energy=-230.7558690016106 field_type=dipole dipole="0.000000 0.000000 0.000000" charge=0
C	-1.213100	-0.688400	0.000000	6
C	-1.202800	0.706400	0.000100	6
C	-0.010300	-1.394800	0.000000	6
C	0.010400	1.394800	-0.000100	6
C	1.202800	-0.706300	0.000000	6
C	1.213100	0.688400	0.000000	6
H	-2.157700	-1.224400	0.000000	1
H	-2.139300	1.256400	0.000100	1
H	-0.018400	-2.480900	-0.000100	1
H	0.018400	2.480800	0.000000	1
H	2.139400	-1.256300	0.000100	1
H	2.157700	1.224500	0.000000	1
Es	-0.015821	-2.136376	-0.000051	99
Es	-0.010300	-1.394832	-0.000001	99
Es	0.015884	2.136333	-0.000059	99
Es	1.202827	-0.706316	-0.000001	99
Es	0.010400	1.394832	-0.000103	99
Es	1.213128	0.688416	0.000000	99
Es	-1.202827	0.706416	0.000100	99
Es	-1.858060	-1.054396	0.000006	99
Es	1.212931	-0.008988	-0.000004	99
Es	0.706827	-0.630702	0.000003	99
Es	1.842299	-1.081837	0.000045	99
Es	-0.899638	-0.296684	0.000080	99
Es	-0.598664	1.054935	0.000031	99
Es	-0.614223	-1.045904	-0.000044	99
Es	0.192871	0.927440	-0.000069	99
Es	0.614267	1.045900	-0.000049	99
Es	-1.213128	-0.688416	-0.000000	99
Es	-1.212947	0.009037	0.000031	99
Es	0.598717	-1.054897	0.000022	99
Es	-1.842244	1.081941	0.000105	99
Es	1.858070	1.054441	-0.000001	99
33
Properties=species:S:1:pos:R:3:Z:I:1 energy=-230.7558690016106 field_type=dipole dipole="0.000000 0.000000 0.000000" charge=0
C	-1.213100	-0.688400	0.000000	6
C	-1.202800	0.706400	0.000100	6
C	-0.010300	-1.394800	0.000000	6
C	0.010400	1.394800	-0.000100	6
C	1.202800	-0.706300	0.000000	6
C	1.213100	0.688400	0.000000	6
H	-2.157700	-1.224400	0.000000	1
H	-2.139300	1.256400	0.000100	1
H	-0.018400	-2.480900	-0.000100	1
H	0.018400	2.480800	0.000000	1
H	2.139400	-1.256300	0.000100	1
H	2.157700	1.224500	0.000000	1
Es	1.858074	1.054442	-0.000001	99
Es	-0.598664	1.054942	-0.000004	99
Es	0.371324	-0.871472	-0.000003	99
Es	-0.940410	0.114243	0.000029	99
Es	-0.614224	-1.045903	-0.000008	99
Es	1.213128	0.688416	-0.000000	99
Es	-1.213127	-0.688416	-0.000000	99
Es	1.202828	-0.706316	0.000000	99
Es	-0.010300	-1.394832	0.000001	99
Es	-1.212934	0.009033	0.000054	99
Es	0.010400	1.394832	-0.000100	99
Es	0.015884	2.136333	-0.000058	99
Es	0.569146	0.757283	-0.000013	99
Es	1.212922	-0.008985	-0.000003	99
Es	-1.842243	1.081939	0.000105	99
Es	1.842304	-1.081834	0.000049	99
Es	0.598720	-1.054899	0.000013	99
Es	0.614264	1.045889	-0.000071	99
Es	-0.015824	-2.136378	-0.000056	99
Es	-1.202827	0.706416	0.000100	99
Es	-1.858070	-1.054390	0.000009	99
33
Properties=species:S:1:pos:R:3:Z:I:1 energy=-230.7558690016106 field_type=dipole dipole="0.000000 0.000000 0.000000" charge=0
C	-1.213100	-0.688400	0.000000	6
C	-1.202800	0.706400	0.000100	6
C	-0.010300	-1.394800	0.000000	6
C	0.010400	1.394800	-0.000100	6
C	1.202800	-0.706300	0.000000	6
C	1.213100	0.688400	0.000000	6
H	-2.157700	-1.224400	0.000000	1
H	-2.139300	1.256400	0.000100	1
H	-0.018400	-2.480900	-0.000100	1
H	0.018400	2.480800	0.000000	1
H	2.139400	-1.256300	0.000100	1
H	2.157700	1.224500	0.000000	1
Es	0.614266	1.045895	-0.000057	99
Es	-1.842241	1.081942	0.000107	99
Es	0.598717	-1.054901	-0.000026	99
Es	-1.213128	-0.688416	-0.000000	99
Es	-1.212938	0.009037	0.000069	99
Es	-1.202827	0.706416	0.000100	99
Es	1.202827	-0.706316	0.000009	99
Es	-0.006290	0.947252	-0.000038	99
Es	1.212933	-0.008986	-0.000013	99
Es	-1.858068	-1.054394	0.000007	99
Es	0.823563	-0.468151	0.000028	99
Es	-0.598663	1.054944	0.000004	99
Es	0.015887	2.136332	-0.000056	99
Es	-0.010300	-1.394832	0.000000	99
Es	-0.817213	-0.479048	0.000013	99
Es	1.842298	-1.081835	0.000054	99
Es	1.858070	1.054436	-0.000004	99
Es	-0.614228	-1.045901	-0.000004	99
Es	-0.015823	-2.136378	-0.000051	99
Es	0.010400	1.394832	-0.000099	99
Es	1.213128	0.688416	0.000000	99
33
Properties=species:S:1:pos:R:3:Z:I:1 energy=-230.7558690016106 field_type=dipole dipole="0.000000 0.000000 0.000000" charge=0
C	-1.213100	-0.688400	0.000000	6
C	-1.202800	0.706400	0.000100	6
C	-0.010300	-1.394800	0.000000	6
C	0.010400	1.394800	-0.000100	6
C	1.202800	-0.706300	0.000000	6
C	1.213100	0.688400	0.000000	6
H	-2.157700	-1.224400	0.000000	1
H	-2.139300	1.256400	0.000100	1
H	-0.018400	-2.480900	-0.000100	1
H	0.018400	2.480800	0.000000	1
H	2.139400	-1.256300	0.000100	1
H	2.157700	1.224500	0.000000	1
Es	-0.840372	-0.437167	0.000026	99
Es	0.010400	1.394832	-0.000100	99
Es	-1.212931	0.009041	0.000035	99
Es	0.598713	-1.054898	-0.000006	99
Es	1.202827	-0.706316	-0.000000	99
Es	1.842299	-1.081837	0.000048	99
Es	0.614270	1.045893	-0.000087	99
Es	0.041556	0.946355	-0.000023	99
Es	0.015884	2.136331	-0.000048	99
Es	-1.202827	0.706416	0.000100	99
Es	1.213128	0.688416	0.000000	99
Es	-0.614234	-1.045906	0.000026	99
Es	0.798876	-0.509134	0.000004	99
Es	1.212930	-0.008988	0.000013	99
Es	-0.015819	-2.136379	-0.000058	99
Es	-1.858066	-1.054393	0.000002	99
Es	-0.598664	1.054942	0.000009	99
Es	-1.842243	1.081941	0.000107	99
Es	-0.010300	-1.394832	0.000000	99
Es	-1.213128	-0.688416	-0.000001	99
Es	1.858071	1.054442	-0.000004	99
33
Properties=species:S:1:pos:R:3:Z:I:1 energy=-230.7558690016106 field_type=dipole dipole="0.000000 0.000000 0.000000" charge=0
C	-1.213100	-0.688400	0.000000	6
C	-1.202800	0.706400	0.000100	6
C	-0.010300	-1.394800	0.000000	6
C	0.010400	1.394800	-0.000100	6
C	1.202800	-0.706300	0.000000	6
C	1.213100	0.688400	0.000000	6
H	-2.157700	-1.224400	0.000000	1
H	-2.139300	1.256400	0.000100	1
H	-0.018400	-2.480900	-0.000100	1
H	0.018400	2.480800	0.000000	1
H	2.139400	-1.256300	0.000100	1
H	2.157700	1.224500	0.000000	1
Es	1.842298	-1.081832	0.000051	99
Es	-0.598664	1.054947	-0.000024	99
Es	-0.015824	-2.136375	-0.000049	99
Es	0.839010	0.439888	-0.000010	99
Es	0.614264	1.045886	-0.000090	99
Es	0.015886	2.136332	-0.000056	99
Es	-0.614228	-1.045903	-0.000050	99
Es	-0.010300	-1.394832	0.000001	99
Es	-1.858070	-1.054396	0.000010	99
Es	-1.202827	0.706416	0.000101	99
Es	-0.038471	-0.946462	0.000031	99
Es	1.202827	-0.706316	0.000000	99
Es	0.598721	-1.054903	0.000003	99
Es	1.213128	0.688416	-0.000002	99
Es	-1.842239	1.081939	0.000115	99
Es	-0.800479	0.506628	0.000052	99
Es	1.858065	1.054449	0.000006	99
Es	-1.213128	-0.688416	-0.000000	99
Es	-1.212939	0.009032	0.000047	99
Es	0.010400	1.394832	-0.000100	99
Es	1.212940	-0.008987	0.000005	99
33
Properties=species:S:1:pos:R:3:Z:I:1 energy=-230.7558690016106 field_type=dipole dipole="0.000000 0.000000 0.000000" charge=0
C	-1.213100	-0.688400	0.000000	6
C	-1.202800	0.706400	0.000100	6
C	-0.010300	-1.394800	0.000000	6
C	0.010400	1.394800	-0.000100	6
C	1.202800	-0.706300	0.000000	6
C	1.213100	0.688400	0.000000	6
H	-2.157700	-1.224400	0.000000	1
H	-2.139300	1.256400	0.000100	1
H	-0.018400	-2.480900	-0.000100	1
H	0.018400	2.480800	0.000000	1
H	2.139400	-1.256300	0.000100	1
H	2.157700	1.224500	0.000000	1
Es	-0.614226	-1.045897	0.000049	99
Es	1.212924	-0.008990	-0.000041	99
Es	0.010400	1.394832	-0.000100	99
Es	0.614275	1.045902	-0.000059	99
Es	0.015885	2.136330	-0.000057	99
Es	-1.858068	-1.054396	-0.000003	99
Es	-0.010300	-1.394832	-0.000000	99
Es	-0.621694	-0.714686	-0.000035	99
Es	-0.015822	-2.136376	-0.000058	99
Es	-1.212938	0.009034	0.000071	99
Es	-1.202827	0.706416	0.000100	99
Es	-1.213128	-0.688416	-0.000000	99
Es	-0.308125	0.895760	-0.000022	99
Es	1.202827	-0.706316	0.000000	99
Es	-0.598666	1.054942	0.000007	99
Es	-1.842242	1.081942	0.000105	99
Es	0.929880	-0.181021	0.000028	99
Es	1.842300	-1.081837	0.000054	99
Es	0.598717	-1.054900	0.000004	99
Es	1.858072	1.054437	0.000000	99
Es	1.213128	0.688416	0.000000	99
33
Properties=species:S:1:pos:R:3:Z:I:1 energy=-230.7558690016106 field_type=dipole dipole="0.000000 0.000000 0.000000" charge=0
C	-1.213100	-0.688400	0.000000	6
C	-1.202800	0.706400	0.000100	6
C	-0.010300	-1.394800	0.000000	6
C	0.010400	1.394800	-0.000100	6
C	1.202800	-0.706300	0.000000	6
C	1.213100	0.688400	0.000000	6
H	-2.157700	-1.224400	0.000000	1
H	-2.139300	1.256400	0.000100	1
H	-0.018400	-2.480900	-0.000100	1
H	0.018400	2.480800	0.000000	1
H	2.139400	-1.256300	0.000100	1
H	2.157700	1.224500	0.000000	1
Es	-1.213128	-0.688416	0.000001	99
Es	1.202827	-0.706316	-0.000001	99
Es	-0.010300	-1.394832	0.000000	99
Es	1.858070	1.054442	-0.000005	99
Es	-0.614226	-1.045898	0.000010	99
Es	-1.202827	0.706416	0.000100	99
Es	-1.858067	-1.054397	0.000000	99
Es	-1.842242	1.081942	0.000102	99
Es	0.598718	-1.054901	-0.000030	99
Es	-0.015822	-2.136378	-0.000052	99
Es	-1.212937	0.009034	0.000049	99
Es	1.213128	0.688416	-0.000000	99
Es	0.304393	0.897045	-0.000060	99
Es	-0.929086	-0.184897	0.000032	99
Es	0.624753	-0.712094	0.000038	99
Es	1.212930	-0.008988	-0.000007	99
Es	0.010400	1.394832	-0.000101	99
Es	0.614269	1.045894	-0.000028	99
Es	1.842299	-1.081835	0.000046	99
Es	0.015885	2.136332	-0.000057	99
Es	-0.598665	1.054941	0.000005	99
33
Properties=species:S:1:pos:R:3:Z:I:1 energy=-230.7558690016106 field_type=dipole dipole="0.000000 0.000000 0.000000" charge=0
C	-1.213100	-0.688400	0.000000	6
C	-1.202800	0.706400	0.000100	6
C	-0.010300	-1.394800	0.000000	6
C	0.010400	1.394800	-0.000100	6
C	1.202800	-0.706300	0.000000	6
C	1.213100	0.688400	0.000000	6
H	-2.157700	-1.224400	0.000000	1
H	-2.139300	1.256400	0.000100	1
H	-0.018400	-2.480900	-0.000100	1
H	0.018400	2.480800	0.000000	1
H	2.139400	-1.256300	0.000100	1
H	2.157700	1.224500	0.000000	1
Es	-0.838899	-0.439984	0.000046	99
Es	1.858070	1.054441	0.000003	99
Es	0.598716	-1.054899	-0.000002	99
Es	1.213128	0.688416	-0.000000	99
Es	1.212932	-0.008987	-0.000031	99
Es	-1.213128	-0.688416	0.000004	99
Es	0.800574	-0.506456	0.000032	99
Es	-0.598668	1.054944	-0.000022	99
Es	-0.010300	-1.394832	-0.000000	99
Es	-1.842244	1.081940	0.000111	99
Es	-1.212934	0.009032	0.000061	99
Es	-0.614225	-1.045898	-0.000037	99
Es	-0.015818	-2.136378	-0.000049	99
Es	0.010400	1.394832	-0.000096	99
Es	0.038385	0.946493	0.000001	99
Es	0.015884	2.136331	-0.000047	99
Es	-1.202827	0.706416	0.000100	99
Es	0.614269	1.045894	-0.000092	99
Es	1.842298	-1.081836	0.000061	99
Es	-1.858069	-1.054396	0.000006	99
Es	1.202827	-0.706316	-0.000005	99
33
Properties=species:S:1:pos:R:3:Z:I:1 energy=-230.7558690016106 field_type=dipole dipole="0.000000 0.000000 0.000000" charge=0
C	-1.213100	-0.688400	0.000000	6
C	-1.202800	0.706400	0.000100	6
C	-0.010300	-1.394800	0.000000	6
C	0.010400	1.394800	-0.000100	6
C	1.202800	-0.706300	0.000000	6
C	1.213100	0.688400	0.000000	6
H	-2.157700	-1.224400	0.000000	1
H	-2.139300	1.256400	0.000100	1
H	-0.018400	-2.480900	-0.000100	1
H	0.018400	2.480800	0.000000	1
H	2.139400	-1.256300	0.000100	1
H	2.157700	1.224500	0.000000	1
Es	0.015885	2.136329	-0.000058	99
Es	-1.212940	0.009035	0.000071	99
Es	1.842301	-1.081830	0.000057	99
Es	-1.202827	0.706416	0.000100	99
Es	1.858070	1.054444	-0.000008	99
Es	0.810925	0.489731	-0.000038	99
Es	1.213128	0.688416	-0.000001	99
Es	-0.829601	0.457387	0.000019	99
Es	0.598721	-1.054905	-0.000004	99
Es	1.202827	-0.706316	0.000000	99
Es	0.010400	1.394832	-0.000100	99
Es	-1.858067	-1.054398	-0.000001	99
Es	-1.213128	-0.688416	-0.000000	99
Es	0.018737	-0.947064	-0.000011	99
Es	-0.015822	-2.136378	-0.000044	99
Es	-0.010300	-1.394832	-0.000000	99
Es	0.614272	1.045892	-0.000052	99
Es	-0.614226	-1.045900	-0.000001	99
Es	-1.842241	1.081941	0.000101	99
Es	-0.598667	1.054945	0.000007	99
Es	1.212923	-0.008986	0.000006	99
33
Properties=species:S:1:pos:R:3:Z:I:1 energy=-230.7558690016106 field_type=dipole dipole="0.000000 0.000000 0.000000" charge=0
C	-1.213100	-0.688400	0.000000	6
C	-1.202800	0.706400	0.000100	6
C	-0.010300	-1.394800	0.000000	6