33
Properties=species:S:1:pos:R:3:Z:I:1 energy=-230.75586900622895 field_type=dipole dipole="0.000000 0.000000 0.000000" charge=0
C	-1.213100	-0.688400	0.000000	6
C	-1.202800	0.706400	0.000100	6
C	-0.010300	-1.394800	0.000000	6
C	0.010400	1.394800	-0.000100	6
C	1.202800	-0.706300	0.000000	6
C	1.213100	0.688400	0.000000	6
H	-2.157700	-1.224400	0.000000	1
H	-2.139300	1.256400	0.000100	1
H	-0.018400	-2.480900	-0.000100	1
H	0.018400	2.480800	0.000000	1
H	2.139400	-1.256300	0.000100	1
H	2.157700	1.224500	0.000000	1
Es	-1.075579	0.008112	0.287619	99
Es	0.530338	-0.934579	0.288066	99
Es	1.213124	0.688417	0.000001	99
Es	1.857234	1.051476	0.000043	99
Es	0.010406	1.394825	-0.000103	99
Es	-1.839301	1.082673	0.000105	99
Es	-0.010296	-1.394828	-0.000001	99
Es	-0.018093	-2.134170	-0.000063	99
Es	-1.075243	0.008122	-0.287373	99
Es	-1.202826	0.706413	0.000099	99
Es	0.531142	-0.936000	-0.287391	99
Es	0.545222	0.927952	-0.287450	99
Es	0.013791	2.134128	-0.000186	99
Es	-1.855154	-1.055175	0.000026	99
Es	-0.620007	-1.055883	-0.000597	99
Es	0.544211	0.926512	0.287865	99
Es	1.841535	-1.078891	0.000111	99
Es	1.224590	-0.009158	-0.000696	99
Es	1.202826	-0.706316	0.000007	99
Es	-0.604421	1.065126	-0.000039	99
Es	-1.213126	-0.688413	0.000001	99
33
Properties=species:S:1:pos:R:3:Z:I:1 energy=-230.75586900622895 field_type=dipole dipole="0.000000 0.000000 0.000000" charge=0
C	-1.213100	-0.688400	0.000000	6
C	-1.202800	0.706400	0.000100	6
C	-0.010300	-1.394800	0.000000	6
C	0.010400	1.394800	-0.000100	6
C	1.202800	-0.706300	0.000000	6
C	1.213100	0.688400	0.000000	6
H	-2.157700	-1.224400	0.000000	1
H	-2.139300	1.256400	0.000100	1
H	-0.018400	-2.480900	-0.000100	1
H	0.018400	2.480800	0.000000	1
H	2.139400	-1.256300	0.000100	1
H	2.157700	1.224500	0.000000	1
Es	0.595413	-1.048843	0.086846	99
Es	0.611019	1.040294	0.083851	99
Es	-1.858118	-1.054314	-0.000491	99
Es	0.482421	0.821128	-0.091674	99
Es	1.213128	0.688416	0.000002	99
Es	-0.599334	1.055607	0.008352	99
Es	-1.842310	1.081831	-0.000356	99
Es	-0.614890	-1.046539	0.008046	99
Es	1.842249	-1.081894	0.000170	99
Es	-0.963715	0.006414	-0.140599	99
Es	1.202827	-0.706316	0.000003	99
Es	0.015962	2.136348	-0.000278	99
Es	-1.196118	0.008919	0.132124	99
Es	-1.202827	0.706416	0.000102	99
Es	1.858039	1.054469	0.000112	99
Es	-1.213128	-0.688415	-0.000000	99
Es	0.010400	1.394832	-0.000099	99
Es	0.472017	-0.827828	-0.094460	99
Es	1.213462	-0.008983	0.008687	99
Es	-0.010301	-1.394831	0.000001	99
Es	-0.015826	-2.136369	-0.000297	99
33
Properties=species:S:1:pos:R:3:Z:I:1 energy=-230.75586900622895 field_type=dipole dipole="0.000000 0.000000 0.000000" charge=0
C	-1.213100	-0.688400	0.000000	6
C	-1.202800	0.706400	0.000100	6
C	-0.010300	-1.394800	0.000000	6
C	0.010400	1.394800	-0.000100	6
C	1.202800	-0.706300	0.000000	6
C	1.213100	0.688400	0.000000	6
H	-2.157700	-1.224400	0.000000	1
H	-2.139300	1.256400	0.000100	1
H	-0.018400	-2.480900	-0.000100	1
H	0.018400	2.480800	0.000000	1
H	2.139400	-1.256300	0.000100	1
H	2.157700	1.224500	0.000000	1
Es	0.836575	0.444413	0.000173	99
Es	0.598718	-1.054893	0.000120	99
Es	0.010400	1.394831	-0.000099	99
Es	-0.015833	-2.136366	-0.000135	99
Es	-1.858080	-1.054397	-0.000017	99
Es	-1.202827	0.706417	0.000105	99
Es	-1.212970	0.009025	0.000681	99
Es	1.842299	-1.081837	0.000042	99
Es	0.015892	2.136312	-0.000061	99
Es	-0.598666	1.054955	0.000953	99
Es	1.202828	-0.706316	-0.000001	99
Es	-0.010300	-1.394831	-0.000014	99
Es	-0.614212	-1.045888	0.000565	99
Es	1.213124	0.688414	-0.000022	99
Es	-1.842236	1.081937	0.000026	99
Es	-0.033329	-0.946698	-0.000601	99
Es	-1.213127	-0.688416	0.000000	99
Es	0.614288	1.045900	-0.000594	99
Es	-0.803183	0.502341	-0.001375	99
Es	1.858069	1.054440	0.000063	99
Es	1.212941	-0.009000	0.000233	99
33
Properties=species:S:1:pos:R:3:Z:I:1 energy=-230.75586900622895 field_type=dipole dipole="0.000000 0.000000 0.000000" charge=0
C	-1.213100	-0.688400	0.000000	6
C	-1.202800	0.706400	0.000100	6
C	-0.010300	-1.394800	0.000000	6
C	0.010400	1.394800	-0.000100	6
C	1.202800	-0.706300	0.000000	6
C	1.213100	0.688400	0.000000	6
H	-2.157700	-1.224400	0.000000	1
H	-2.139300	1.256400	0.000100	1
H	-0.018400	-2.480900	-0.000100	1
H	0.018400	2.480800	0.000000	1
H	2.139400	-1.256300	0.000100	1
H	2.157700	1.224500	0.000000	1
Es	0.015908	2.136322	-0.000031	99
Es	0.614251	1.045897	-0.001323	99
Es	1.858070	1.054425	-0.000006	99
Es	1.213128	0.688416	0.000000	99
Es	-1.858084	-1.054380	0.000002	99
Es	1.212904	-0.008972	0.000026	99
Es	1.842310	-1.081819	0.000003	99
Es	0.293416	-0.900688	-0.000651	99
Es	1.202827	-0.706316	-0.000002	99
Es	-0.926759	0.196305	-0.000343	99
Es	-0.015859	-2.136380	-0.000088	99
Es	-1.202827	0.706416	0.000100	99
Es	-0.598690	1.054968	-0.000038	99
Es	0.633403	0.704437	0.001203	99
Es	-1.842257	1.081924	0.000155	99
Es	-1.212896	0.009032	0.000556	99
Es	-0.614207	-1.045879	-0.000335	99
Es	0.598759	-1.054950	0.000912	99
Es	-0.010301	-1.394832	-0.000000	99
Es	-1.213127	-0.688416	-0.000000	99
Es	0.010402	1.394831	-0.000099	99
33
Properties=species:S:1:pos:R:3:Z:I:1 energy=-230.75586900622895 field_type=dipole dipole="0.000000 0.000000 0.000000" charge=0
C	-1.213100	-0.688400	0.000000	6
C	-1.202800	0.706400	0.000100	6
C	-0.010300	-1.394800	0.000000	6
C	0.010400	1.394800	-0.000100	6
C	1.202800	-0.706300	0.000000	6
C	1.213100	0.688400	0.000000	6
H	-2.157700	-1.224400	0.000000	1
H	-2.139300	1.256400	0.000100	1
H	-0.018400	-2.480900	-0.000100	1
H	0.018400	2.480800	0.000000	1
H	2.139400	-1.256300	0.000100	1
H	2.157700	1.224500	0.000000	1
Es	1.213129	0.688413	-0.000000	99
Es	-1.212923	0.009030	0.000209	99
Es	-0.010300	-1.394832	-0.000001	99
Es	1.842302	-1.081823	0.000063	99
Es	-0.614222	-1.045886	0.000181	99
Es	1.202828	-0.706316	0.000001	99
Es	0.492997	-0.808873	-0.000251	99
Es	-1.213128	-0.688416	0.000000	99
Es	0.015876	2.136338	-0.000053	99
Es	1.858073	1.054469	-0.000041	99
Es	0.598713	-1.054913	0.000101	99
Es	-1.202827	0.706416	0.000099	99
Es	-0.947075	-0.022422	-0.000100	99
Es	-0.015825	-2.136376	-0.000058	99
Es	-0.598671	1.054959	-0.000024	99
Es	1.212920	-0.008993	0.000073	99
Es	-1.858061	-1.054407	-0.000024	99
Es	0.614278	1.045854	0.000531	99
Es	0.454139	0.831348	-0.000642	99
Es	-1.842249	1.081939	0.000082	99
Es	0.010400	1.394832	-0.000104	99
33
Properties=species:S:1:pos:R:3:Z:I:1 energy=-230.75586900622895 field_type=dipole dipole="0.000000 0.000000 0.000000" charge=0
C	-1.213100	-0.688400	0.000000	6
C	-1.202800	0.706400	0.000100	6
C	-0.010300	-1.394800	0.000000	6
C	0.010400	1.394800	-0.000100	6
C	1.202800	-0.706300	0.000000	6
C	1.213100	0.688400	0.000000	6
H	-2.157700	-1.224400	0.000000	1
H	-2.139300	1.256400	0.000100	1
H	-0.018400	-2.480900	-0.000100	1
H	0.018400	2.480800	0.000000	1
H	2.139400	-1.256300	0.000100	1
H	2.157700	1.224500	0.000000	1
Es	1.842305	-1.081826	0.000024	99
Es	-0.808304	0.494040	0.000132	99
Es	-1.858066	-1.054409	0.000006	99
Es	-0.614234	-1.045879	-0.000033	99
Es	1.858077	1.054429	-0.000018	99
Es	0.598698	-1.054910	0.000021	99
Es	0.010400	1.394832	-0.000100	99
Es	0.832031	0.452966	-0.000038	99
Es	-1.842232	1.081951	0.000177	99
Es	1.212934	-0.008982	0.000268	99
Es	-1.213128	-0.688416	0.000000	99
Es	-0.598663	1.054931	-0.000066	99
Es	-0.015810	-2.136384	-0.000077	99
Es	-1.202824	0.706414	0.000071	99
Es	0.614269	1.045903	-0.000259	99
Es	1.213127	0.688416	-0.000000	99
Es	1.202827	-0.706316	-0.000000	99
Es	-0.023670	-0.946953	-0.000022	99
Es	-0.010300	-1.394829	0.000025	99
Es	-1.212934	0.009031	-0.000014	99
Es	0.015868	2.136332	-0.000052	99
33
Properties=species:S:1:pos:R:3:Z:I:1 energy=-230.75586900622895 field_type=dipole dipole="0.000000 0.000000 0.000000" charge=0
C	-1.213100	-0.688400	0.000000	6
C	-1.202800	0.706400	0.000100	6
C	-0.010300	-1.394800	0.000000	6
C	0.010400	1.394800	-0.000100	6
C	1.202800	-0.706300	0.000000	6
C	1.213100	0.688400	0.000000	6
H	-2.157700	-1.224400	0.000000	1
H	-2.139300	1.256400	0.000100	1
H	-0.018400	-2.480900	-0.000100	1
H	0.018400	2.480800	0.000000	1
H	2.139400	-1.256300	0.000100	1
H	2.157700	1.224500	0.000000	1
Es	1.858087	1.054416	-0.000030	99
Es	-0.015845	-2.136387	-0.000058	99
Es	0.598717	-1.054890	0.000209	99
Es	0.010400	1.394832	-0.000100	99
Es	-1.213128	-0.688416	0.000001	99
Es	-0.916007	0.241576	0.000147	99
Es	0.248856	-0.914008	-0.000199	99
Es	-0.010301	-1.394832	-0.000002	99
Es	1.213127	0.688416	0.000003	99
Es	1.212936	-0.008968	0.000012	99
Es	-1.212903	0.009036	-0.000125	99
Es	-1.202828	0.706416	0.000102	99
Es	1.842298	-1.081837	0.000048	99
Es	1.202828	-0.706316	-0.000002	99
Es	0.015877	2.136335	-0.000064	99
Es	-1.842247	1.081946	0.000106	99
Es	0.667212	0.672486	-0.000271	99
Es	-0.598655	1.054935	0.000060	99
Es	-0.614218	-1.045884	0.000013	99
Es	0.614253	1.045893	0.000163	99
Es	-1.858087	-1.054405	0.000030	99
33
Properties=species:S:1:pos:R:3:Z:I:1 energy=-230.75586900622895 field_type=dipole dipole="0.000000 0.000000 0.000000" charge=0
C	-1.213100	-0.688400	0.000000	6
C	-1.202800	0.706400	0.000100	6
C	-0.010300	-1.394800	0.000000	6
C	0.010400	1.394800	-0.000100	6
C	1.202800	-0.706300	0.000000	6
C	1.213100	0.688400	0.000000	6
H	-2.157700	-1.224400	0.000000	1
H	-2.139300	1.256400	0.000100	1
H	-0.018400	-2.480900	-0.000100	1
H	0.018400	2.480800	0.000000	1
H	2.139400	-1.256300	0.000100	1
H	2.157700	1.224500	0.000000	1
Es	1.842303	-1.081835	0.000015	99
Es	-1.202828	0.706416	0.000101	99
Es	-0.030878	0.946768	-0.000076	99
Es	0.598726	-1.054932	-0.000000	99
Es	0.835439	-0.446628	0.000024	99
Es	1.858079	1.054434	-0.000019	99
Es	-0.804500	-0.500087	-0.000107	99
Es	0.614261	1.045894	-0.000008	99
Es	-0.614236	-1.045850	0.000124	99
Es	-1.842247	1.081932	0.000113	99
Es	0.010400	1.394832	-0.000093	99
Es	-0.010300	-1.394832	-0.000001	99
Es	-1.858042	-1.054436	-0.000004	99
Es	1.212913	-0.008978	0.000054	99
Es	-1.212968	0.009061	0.000107	99
Es	-1.213127	-0.688416	0.000000	99
Es	0.015884	2.136336	-0.000046	99
Es	1.202827	-0.706316	0.000000	99
Es	-0.598648	1.054936	-0.000055	99
Es	1.213128	0.688416	-0.000002	99
Es	-0.015815	-2.136373	-0.000082	99
33
Properties=species:S:1:pos:R:3:Z:I:1 energy=-230.75586900622895 field_type=dipole dipole="0.000000 0.000000 0.000000" charge=0
C	-1.213100	-0.688400	0.000000	6
C	-1.202800	0.706400	0.000100	6
C	-0.010300	-1.394800	0.000000	6
C	0.010400	1.394800	-0.000100	6
C	1.202800	-0.706300	0.000000	6
C	1.213100	0.688400	0.000000	6
H	-2.157700	-1.224400	0.000000	1
H	-2.139300	1.256400	0.000100	1
H	-0.018400	-2.480900	-0.000100	1
H	0.018400	2.480800	0.000000	1
H	2.139400	-1.256300	0.000100	1
H	2.157700	1.224500	0.000000	1
Es	1.213127	0.688415	-0.000017	99
Es	1.858077	1.054447	0.000010	99
Es	0.015882	2.136324	-0.000046	99
Es	1.842302	-1.081834	0.000042	99
Es	-0.822009	0.470884	0.000093	99
Es	0.614282	1.045885	-0.000159	99
Es	-0.010300	-1.394832	-0.000002	99
Es	1.202827	-0.706316	0.000000	99
Es	-0.598674	1.054946	0.000017	99
Es	-1.202826	0.706415	0.000082	99
Es	-1.842242	1.081948	0.000066	99
Es	0.010400	1.394832	-0.000100	99
Es	-1.858064	-1.054395	0.000011	99
Es	-0.015819	-2.136383	-0.000070	99
Es	1.212923	-0.008991	0.000072	99
Es	0.003244	-0.947245	-0.000029	99
Es	0.818826	0.476415	0.000012	99
Es	-1.213128	-0.688416	-0.000000	99
Es	0.598702	-1.054893	-0.000046	99
Es	-1.212938	0.009035	0.000033	99
Es	-0.614222	-1.045899	0.000073	99
33
Properties=species:S:1:pos:R:3:Z:I:1 energy=-230.75586900622895 field_type=dipole dipole="0.000000 0.000000 0.000000" charge=0
C	-1.213100	-0.688400	0.000000	6
C	-1.202800	0.706400	0.000100	6
C	-0.010300	-1.394800	0.000000	6
C	0.010400	1.394800	-0.000100	6
C	1.202800	-0.706300	0.000000	6
C	1.213100	0.688400	0.000000	6
H	-2.157700	-1.224400	0.000000	1
H	-2.139300	1.256400	0.000100	1
H	-0.018400	-2.480900	-0.000100	1
H	0.018400	2.480800	0.000000	1
H	2.139400	-1.256300	0.000100	1
H	2.157700	1.224500	0.000000	1
Es	-1.858072	-1.054398	0.000011	99
Es	0.010400	1.394831	-0.000095	99
Es	-0.598656	1.054941	-0.000345	99
Es	-0.614247	-1.045890	0.000014	99
Es	-0.010300	-1.394832	-0.000001	99
Es	0.825571	-0.464574	0.000082	99
Es	-1.202827	0.706416	0.000100	99
Es	0.015872	2.136330	-0.000042	99
Es	-1.842246	1.081942	0.000121	99
Es	1.858073	1.054435	-0.000005	99
Es	-1.213127	-0.688416	-0.000008	99
Es	0.598743	-1.054946	-0.000008	99
Es	-0.015809	-2.136361	-0.000058	99
Es	0.614272	1.045894	-0.000045	99
Es	-0.815139	-0.482590	-0.000053	99
Es	1.212914	-0.008974	-0.000026	99
Es	1.202827	-0.706316	-0.000008	99
Es	-1.212934	0.009036	0.000156	99
Es	-0.010372	0.947217	0.000239	99
Es	1.842299	-1.081820	0.000013	99
Es	1.213128	0.688415	0.000000	99
33
Properties=species:S:1:pos:R:3:Z:I:1 energy=-230.75586900622895 field_type=dipole dipole="0.000000 0.000000 0.000000" charge=0
C	-1.213100	-0.688400	0.000000	6
C	-1.202800	0.706400	0.000100	6
C	-0.010300	-1.394800	0.000000	6
C	0.010400	1.394800	-0.000100	6
C	1.202800	-0.706300	0.000000	6
C	1.213100	0.688400	0.000000	6
H	-2.157700	-1.224400	0.000000	1
H	-2.139300	1.256400	0.000100	1
H	-0.018400	-2.480900	-0.000100	1
H	0.018400	2.480800	0.000000	1
H	2.139400	-1.256300	0.000100	1
H	2.157700	1.224500	0.000000	1
Es	1.213128	0.688416	0.000001	99
Es	0.598692	-1.054893	-0.000037	99
Es	-0.015805	-2.136371	-0.000072	99
Es	-1.858065	-1.054403	0.000019	99
Es	-0.598655	1.054928	0.000020	99
Es	-1.212961	0.009035	-0.000022	99
Es	1.842283	-1.081834	0.000060	99
Es	-0.614232	-1.045900	0.000045	99
Es	0.495674	-0.807280	0.000007	99
Es	-1.213128	-0.688416	-0.000001	99
Es	1.212989	-0.008992	0.000035	99
Es	-0.946966	-0.025522	0.000041	99
Es	1.202828	-0.706316	-0.000002	99
Es	0.451352	0.832855	0.000147	99
Es	0.614263	1.045895	-0.000267	99
Es	-1.842240	1.081944	0.000124	99
Es	0.015879	2.136329	-0.000066	99
Es	-1.202827	0.706416	0.000100	99
Es	0.010400	1.394832	-0.000099	99
Es	1.858061	1.054450	0.000008	99
Es	-0.010300	-1.394832	-0.000001	99
33
Properties=species:S:1:pos:R:3:Z:I:1 energy=-230.75586900622895 field_type=dipole dipole="0.000000 0.000000 0.000000" charge=0
C	-1.213100	-0.688400	0.000000	6
C	-1.202800	0.706400	0.000100	6
C	-0.010300	-1.394800	0.000000	6
C	0.010400	1.394800	-0.000100	6
C	1.202800	-0.706300	0.000000	6
C	1.213100	0.688400	0.000000	6
H	-2.157700	-1.224400	0.000000	1
H	-2.139300	1.256400	0.000100	1
H	-0.018400	-2.480900	-0.000100	1
H	0.018400	2.480800	0.000000	1
H	2.139400	-1.256300	0.000100	1
H	2.157700	1.224500	0.000000	1
Es	1.842302	-1.081833	0.000055	99
Es	1.212925	-0.008988	-0.000050	99
Es	-0.010300	-1.394832	0.000000	99
Es	-0.598667	1.054947	-0.000046	99
Es	0.813186	-0.485949	0.000018	99
Es	0.010400	1.394830	-0.000083	99
Es	0.015883	2.136328	-0.000058	99
Es	0.598727	-1.054915	0.000057	99
Es	1.213128	0.688416	0.000000	99
Es	0.014314	0.947166	-0.000084	99
Es	-1.213127	-0.688416	0.000006	99
Es	0.614272	1.045895	-0.000004	99
Es	1.202827	-0.706316	-0.000000	99
Es	-0.015835	-2.136375	-0.000065	99
Es	-0.614212	-1.045873	-0.000001	99
Es	-1.212947	0.009032	0.000108	99
Es	1.858072	1.054438	-0.000004	99
Es	-0.827440	-0.461162	-0.000032	99
Es	-1.858065	-1.054405	-0.000002	99
Es	-1.202827	0.706416	0.000100	99
Es	-1.842245	1.081939	0.000129	99
33
Properties=species:S:1:pos:R:3:Z:I:1 energy=-230.75586900622895 field_type=dipole dipole="0.000000 0.000000 0.000000" charge=0
C	-1.213100	-0.688400	0.000000	6
C	-1.202800	0.706400	0.000100	6
C	-0.010300	-1.394800	0.000000	6
C	0.010400	1.394800	-0.000100	6
C	1.202800	-0.706300	0.000000	6
C	1.213100	0.688400	0.000000	6
H	-2.157700	-1.224400	0.000000	1
H	-2.139300	1.256400	0.000100	1
H	-0.018400	-2.480900	-0.000100	1
H	0.018400	2.480800	0.000000	1
H	2.139400	-1.256300	0.000100	1
H	2.157700	1.224500	0.000000	1
Es	0.015883	2.136328	-0.000042	99
Es	1.842306	-1.081831	0.000031	99
Es	-0.015006	0.947154	-0.000065	99
Es	-0.812769	-0.486558	-0.000044	99
Es	-0.614232	-1.045905	0.000099	99
Es	-1.858070	-1.054394	-0.000019	99
Es	1.213128	0.688416	0.000000	99
Es	-1.213128	-0.688416	0.000004	99
Es	-0.598668	1.054946	-0.000033	99
Es	0.614271	1.045894	-0.000024	99
Es	-1.202827	0.706416	0.000101	99
Es	-1.842246	1.081937	0.000115	99
Es	-1.212930	0.009035	0.000067	99
Es	1.212922	-0.008988	-0.000051	99
Es	0.010400	1.394832	-0.000099	99
Es	0.598719	-1.054900	0.000059	99
Es	1.858070	1.054442	0.000003	99
Es	0.827835	-0.460543	0.000015	99
Es	-0.015814	-2.136375	-0.000074	99
Es	-0.010300	-1.394832	0.000001	99
Es	1.202827	-0.706316	-0.000001	99
33
Properties=species:S:1:pos:R:3:Z:I:1 energy=-230.75586900622895 field_type=dipole dipole="0.000000 0.000000 0.000000" charge=0
C	-1.213100	-0.688400	0.000000	6
C	-1.202800	0.706400	0.000100	6
C	-0.010300	-1.394800	0.000000	6
C	0.010400	1.394800	-0.000100	6
C	1.202800	-0.706300	0.000000	6
C	1.213100	0.688400	0.000000	6
H	-2.157700	-1.224400	0.000000	1
H	-2.139300	1.256400	0.000100	1
H	-0.018400	-2.480900	-0.000100	1
H	0.018400	2.480800	0.000000	1
H	2.139400	-1.256300	0.000100	1
H	2.157700	1.224500	0.000000	1
Es	-1.202827	0.706416	0.000092	99
Es	1.858065	1.054451	0.000004	99
Es	0.614263	1.045888	-0.000079	99
Es	-0.598657	1.054925	-0.000004	99
Es	-0.006479	-0.947237	-0.000029	99
Es	-0.010300	-1.394832	-0.000003	99
Es	-1.213128	-0.688416	-0.000001	99
Es	-1.842245	1.081948	0.000096	99
Es	-0.015805	-2.136377	-0.000053	99
Es	0.010400	1.394832	-0.000099	99
Es	-0.817124	0.479304	0.000052	99
Es	1.212969	-0.008985	0.000044	99
Es	0.598698	-1.054870	-0.000071	99
Es	0.015879	2.136329	-0.000058	99
Es	1.842288	-1.081850	0.000065	99
Es	1.202827	-0.706316	-0.000000	99
Es	0.823663	0.467986	-0.000045	99
Es	-1.858067	-1.054394	-0.000000	99
Es	-0.614236	-1.045917	0.000073	99
Es	-1.212942	0.009041	0.000062	99
Es	1.213128	0.688415	-0.000003	99
33
Properties=species:S:1:pos:R:3:Z:I:1 energy=-230.75586900622895 field_type=dipole dipole="0.000000 0.000000 0.000000" charge=0
C	-1.213100	-0.688400	0.000000	6
C	-1.202800	0.706400	0.000100	6
C	-0.010300	-1.394800	0.000000	6
C	0.010400	1.394800	-0.000100	6
C	1.202800	-0.706300	0.000000	6
C	1.213100	0.688400	0.000000	6
H	-2.157700	-1.224400	0.000000	1
H	-2.139300	1.256400	0.000100	1
H	-0.018400	-2.480900	-0.000100	1
H	0.018400	2.480800	0.000000	1
H	2.139400	-1.256300	0.000100	1
H	2.157700	1.224500	0.000000	1
Es	0.762511	0.562152	0.000030	99
Es	-1.212930	0.009032	0.000118	99
Es	0.105659	-0.941343	-0.000055	99
Es	-0.614217	-1.045875	-0.000028	99
Es	1.842302	-1.081833	0.000045	99
Es	-0.868109	0.379245	-0.000066	99
Es	1.213128	0.688416	0.000002	99
Es	-0.010300	-1.394832	-0.000002	99
Es	0.010400	1.394832	-0.000100	99
Es	1.212929	-0.008988	0.000000	99
Es	-1.858067	-1.054409	0.000010	99
Es	1.202828	-0.706316	-0.000000	99
Es	-0.015829	-2.136379	-0.000052	99
Es	-1.213128	-0.688416	-0.000000	99
Es	0.015872	2.136329	-0.000051	99
Es	-0.598668	1.054938	0.000042	99
Es	-1.842247	1.081936	0.000105	99
Es	0.614276	1.045910	-0.000139	99
Es	1.858065	1.054440	0.000008	99
Es	0.598724	-1.054911	0.000073	99
Es	-1.202827	0.706416	0.000102	99
33
Properties=species:S:1:pos:R:3:Z:I:1 energy=-230.75586900622895 field_type=dipole dipole="0.000000 0.000000 0.000000" charge=0
C	-1.213100	-0.688400	0.000000	6
C	-1.202800	0.706400	0.000100	6
C	-0.010300	-1.394800	0.000000	6
C	0.010400	1.394800	-0.000100	6
C	1.202800	-0.706300	0.000000	6
C	1.213100	0.688400	0.000000	6
H	-2.157700	-1.224400	0.000000	1
H	-2.139300	1.256400	0.000100	1
H	-0.018400	-2.480900	-0.000100	1
H	0.018400	2.480800	0.000000	1
H	2.139400	-1.256300	0.000100	1
H	2.157700	1.224500	0.000000	1
Es	-1.213128	-0.688416	0.000003	99
Es	0.598712	-1.054912	0.000012	99
Es	-1.842240	1.081943	0.000114	99
Es	-0.614217	-1.045880	-0.000142	99
Es	1.213128	0.688416	-0.000001	99
Es	0.846867	-0.424552	-0.000035	99
Es	-1.202827	0.706416	0.000100	99
Es	-0.010300	-1.394832	-0.000000	99
Es	-1.858065	-1.054397	0.000016	99
Es	-0.055681	0.945620	0.000004	99
Es	1.212924	-0.008985	0.000057	99
Es	-1.212941	0.009031	0.000041	99
Es	-0.015818	-2.136388	-0.000052	99
Es	0.010400	1.394832	-0.000099	99
Es	-0.598666	1.054946	-0.000039	99
Es	1.842300	-1.081834	0.000056	99
Es	-0.791125	-0.521015	0.000150	99
Es	1.858070	1.054440	-0.000012	99
Es	0.015892	2.136337	-0.000056	99
Es	1.202827	-0.706316	-0.000003	99
Es	0.614260	1.045887	-0.000073	99
33
Properties=species:S:1:pos:R:3:Z:I:1 energy=-230.75586900622895 field_type=dipole dipole="0.000000 0.000000 0.000000" charge=0
C	-1.213100	-0.688400	0.000000	6
C	-1.202800	0.706400	0.000100	6
C	-0.010300	-1.394800	0.000000	6
C	0.010400	1.394800	-0.000100	6
C	1.202800	-0.706300	0.000000	6
C	1.213100	0.688400	0.000000	6
H	-2.157700	-1.224400	0.000000	1
H	-2.139300	1.256400	0.000100	1
H	-0.018400	-2.480900	-0.000100	1
H	0.018400	2.480800	0.000000	1
H	2.139400	-1.256300	0.000100	1
H	2.157700	1.224500	0.000000	1
Es	-1.858069	-1.054392	0.000008	99
Es	-1.202827	0.706416	0.000100	99
Es	1.212934	-0.008993	0.000015	99
Es	0.015887	2.136332	-0.000044	99
Es	0.614273	1.045895	-0.000100	99
Es	-1.213128	-0.688416	-0.000001	99
Es	0.815854	-0.481477	-0.000002	99
Es	1.213128	0.688416	0.000000	99
Es	-0.824891	-0.465695	0.000012	99
Es	-0.614234	-1.045907	0.000023	99
Es	1.842296	-1.081838	0.000057	99
Es	-0.015814	-2.136375	-0.000047	99
Es	-1.212929	0.009032	0.000026	99
Es	1.858067	1.054445	0.000007	99
Es	-1.842243	1.081940	0.000123	99
Es	-0.010300	-1.394832	-0.000000	99
Es	0.009098	0.947225	-0.000036	99
Es	0.010400	1.394832	-0.000100	99
Es	-0.598670	1.054945	0.000025	99
Es	0.598712	-1.054895	-0.000019	99
Es	1.202827	-0.706316	-0.000003	99
33
Properties=species:S:1:pos:R:3:Z:I:1 energy=-230.75586900622895 field_type=dipole dipole="0.000000 0.000000 0.000000" charge=0
C	-1.213100	-0.688400	0.000000	6
C	-1.202800	0.706400	0.000100	6
C	-0.010300	-1.394800	0.000000	6
C	0.010400	1.394800	-0.000100	6
C	1.202800	-0.706300	0.000000	6
C	1.213100	0.688400	0.000000	6
H	-2.157700	-1.224400	0.000000	1
H	-2.139300	1.256400	0.000100	1
H	-0.018400	-2.480900	-0.000100	1
H	0.018400	2.480800	0.000000	1
H	2.139400	-1.256300	0.000100	1
H	2.157700	1.224500	0.000000	1
Es	1.213128	0.688416	0.000001	99
Es	-0.416948	-0.850538	0.000008	99
Es	-1.858068	-1.054388	-0.000011	99
Es	0.598731	-1.054907	0.000001	99
Es	0.945165	0.064202	0.000069	99
Es	0.614276	1.045897	-0.000089	99
Es	-1.202827	0.706416	0.000100	99
Es	-1.842239	1.081942	0.000102	99
Es	1.842304	-1.081832	0.000051	99
Es	0.015880	2.136328	-0.000039	99
Es	1.202827	-0.706316	-0.000000	99
Es	-0.528157	0.786389	-0.000012	99
Es	0.010400	1.394832	-0.000100	99
Es	1.212909	-0.008983	-0.000081	99
Es	-0.010300	-1.394832	0.000000	99
Es	-1.213128	-0.688416	0.000000	99
Es	-0.015831	-2.136379	-0.000049	99
Es	-1.212938	0.009031	0.000045	99
Es	-0.598668	1.054945	0.000028	99
Es	1.858075	1.054438	-0.000000	99
Es	-0.614220	-1.045905	0.000018	99
33
Properties=species:S:1:pos:R:3:Z:I:1 energy=-230.75586900622895 field_type=dipole dipole="0.000000 0.000000 0.000000" charge=0
C	-1.213100	-0.688400	0.000000	6
C	-1.202800	0.706400	0.000100	6
C	-0.010300	-1.394800	0.000000	6
C	0.010400	1.394800	-0.000100	6
C	1.202800	-0.706300	0.000000	6
C	1.213100	0.688400	0.000000	6
H	-2.157700	-1.224400	0.000000	1
H	-2.139300	1.256400	0.000100	1
H	-0.018400	-2.480900	-0.000100	1
H	0.018400	2.480800	0.000000	1
H	2.139400	-1.256300	0.000100	1
H	2.157700	1.224500	0.000000	1
Es	1.842293	-1.081848	0.000055	99
Es	0.822147	0.470663	-0.000117	99
Es	1.212947	-0.008986	0.000003	99
Es	-1.213128	-0.688416	0.000000	99
Es	0.010400	1.394832	-0.000100	99
Es	-0.015822	-2.136376	-0.000047	99
Es	-0.003406	-0.947246	-0.000031	99
Es	-0.598668	1.054946	0.000046	99
Es	-1.212926	0.009033	0.000123	99
Es	0.015884	2.136332	-0.000065	99
Es	-0.010300	-1.394832	-0.000001	99
Es	1.213128	0.688416	-0.000003	99
Es	-1.858071	-1.054397	-0.000001	99
Es	0.614266	1.045892	0.000056	99
Es	-1.842243	1.081941	0.000078	99
Es	-0.614230	-1.045899	0.000005	99
Es	1.858069	1.054439	-0.000020	99
Es	-1.202827	0.706416	0.000100	99
Es	0.598713	-1.054887	0.000014	99
Es	-0.818681	0.476636	-0.000052	99
Es	1.202827	-0.706316	-0.000001	99
33
Properties=species:S:1:pos:R:3:Z:I:1 energy=-230.75586900622895 field_type=dipole dipole="0.000000 0.000000 0.000000" charge=0
C	-1.213100	-0.688400	0.000000	6
C	-1.202800	0.706400	0.000100	6
C	-0.010300	-1.394800	0.000000	6
C	0.010400	1.394800	-0.000100	6
C	1.202800	-0.706300	0.000000	6
C	1.213100	0.688400	0.000000	6
H	-2.157700	-1.224400	0.000000	1
H	-2.139300	1.256400	0.000100	1
H	-0.018400	-2.480900	-0.000100	1
H	0.018400	2.480800	0.000000	1
H	2.139400	-1.256300	0.000100	1
H	2.157700	1.224500	0.000000	1
Es	0.015887	2.136333	-0.000055	99
Es	1.858074	1.054444	-0.000011	99
Es	1.842307	-1.081823	0.000048	99
Es	0.010400	1.394832	-0.000100	99
Es	-0.010300	-1.394832	0.000000	99
Es	1.212917	-0.008994	-0.000015	99
Es	-0.598661	1.054934	-0.000009	99
Es	0.614270	1.045891	-0.000073	99
Es	1.213128	0.688416	0.000001	99
Es	1.202827	-0.706316	0.000000	99
Es	0.598712	-1.054905	0.000045	99
Es	-0.015825	-2.136380	-0.000033	99
Es	-0.421681	0.848260	-0.000009	99
Es	-0.523763	-0.789252	0.000197	99
Es	-1.213128	-0.688416	0.000001	99
Es	-1.212933	0.009042	0.000103	99
Es	-1.858067	-1.054400	0.000020	99
Es	-0.614225	-1.045895	-0.000278	99
Es	-1.842246	1.081944	0.000104	99
Es	-1.202827	0.706416	0.000100	99
Es	0.945504	-0.058955	0.000008	99
