14
Properties=species:S:1:pos:R:3:Z:I:1 energy=-187.6891980177982 field_type=dipole dipole="0.000000 0.000000 0.000000" charge=0
O	-1.157569	0.000000	0.000000	8
O	1.157569	0.000000	0.000000	8
C	0.000000	0.000000	0.000000	6
Es	-0.845386	-0.263077	0.052456	99
Es	1.157098	0.000009	0.000007	99
Es	-0.848111	0.086425	-0.255971	99
Es	0.846118	0.029664	-0.267007	99
Es	-1.157136	-0.000004	0.000001	99
Es	1.433911	-0.000276	-0.000437	99
Es	0.846217	0.216623	0.160069	99
Es	0.846831	-0.246013	0.107369	99
Es	-0.845925	0.177900	0.201126	99
Es	0.000002	-0.000001	0.000000	99
Es	-1.433618	-0.001250	0.002388	99
14
Properties=species:S:1:pos:R:3:Z:I:1 energy=-187.6891980177982 field_type=dipole dipole="0.000000 0.000000 0.000000" charge=0
O	-1.157569	0.000000	0.000000	8
O	1.157569	0.000000	0.000000	8
C	0.000000	0.000000	0.000000	6
Es	-1.157113	0.000017	0.000007	99
Es	1.157109	0.000017	-0.000031	99
Es	-0.841511	-0.065665	-0.240838	99
Es	0.846030	0.096394	-0.228448	99
Es	-0.835863	-0.174229	0.181302	99
Es	0.839296	-0.249098	0.026781	99
Es	1.451373	-0.000315	0.001956	99
Es	0.000001	-0.000000	0.000002	99
Es	-0.844317	0.241658	0.058708	99
Es	0.836442	0.153004	0.199746	99
Es	-1.451447	-0.001783	0.000814	99
14
Properties=species:S:1:pos:R:3:Z:I:1 energy=-187.6891980177982 field_type=dipole dipole="0.000000 0.000000 0.000000" charge=0
O	-1.157569	0.000000	0.000000	8
O	1.157569	0.000000	0.000000	8
C	0.000000	0.000000	0.000000	6
Es	-1.157112	-0.000023	0.000001	99
Es	-0.719762	-0.215632	0.047368	99
Es	1.452000	-0.014068	-0.034279	99
Es	1.157103	0.000007	-0.000035	99
Es	0.910862	-0.022733	0.185410	99
Es	-1.452042	-0.029546	0.015161	99
Es	0.693551	-0.116131	-0.153872	99
Es	0.916726	0.153025	0.002431	99
Es	-0.897294	0.107015	-0.178773	99
Es	0.000000	-0.000006	-0.000006	99
Es	-0.904031	0.138093	0.116595	99
14
Properties=species:S:1:pos:R:3:Z:I:1 energy=-187.6891980177982 field_type=dipole dipole="0.000000 0.000000 0.000000" charge=0
O	-1.157569	0.000000	0.000000	8
O	1.157569	0.000000	0.000000	8
C	0.000000	0.000000	0.000000	6
Es	1.452608	-0.006842	0.035090	99
Es	-0.668516	-0.149165	0.029771	99
Es	-0.930264	0.038282	-0.094420	99
Es	-0.921316	0.144338	0.067851	99
Es	1.157119	-0.000000	0.000017	99
Es	0.925628	0.121746	-0.020726	99
Es	0.919039	-0.039490	-0.162122	99
Es	0.675852	-0.075254	0.147998	99
Es	-1.157097	-0.000023	-0.000051	99
Es	-1.453052	-0.033585	-0.003413	99
Es	-0.000000	-0.000007	0.000007	99
14
Properties=species:S:1:pos:R:3:Z:I:1 energy=-187.6891980177982 field_type=dipole dipole="0.000000 0.000000 0.000000" charge=0
O	-1.157569	0.000000	0.000000	8
O	1.157569	0.000000	0.000000	8
C	0.000000	0.000000	0.000000	6
Es	1.453540	0.026293	-0.017260	99
Es	-0.658648	0.110006	0.067689	99
Es	0.934106	-0.058742	-0.055183	99
Es	-1.453716	0.020429	0.022222	99
Es	-0.926056	-0.062405	-0.126325	99
Es	-0.000001	0.000008	0.000001	99
Es	0.658548	0.124553	-0.033140	99
Es	-0.934717	-0.068095	0.036655	99
Es	0.926950	-0.092089	0.105365	99
Es	1.157106	0.000021	-0.000036	99
Es	-1.157112	0.000022	0.000013	99
14
Properties=species:S:1:pos:R:3:Z:I:1 energy=-187.6891980177982 field_type=dipole dipole="0.000000 0.000000 0.000000" charge=0
O	-1.157569	0.000000	0.000000	8
O	1.157569	0.000000	0.000000	8
C	0.000000	0.000000	0.000000	6
Es	-1.454358	-0.008260	-0.024454	99
Es	0.936474	0.025328	0.060189	99
Es	0.930924	0.109400	-0.049161	99
Es	1.157114	-0.000022	0.000001	99
Es	-0.649805	-0.062562	-0.080761	99
Es	-0.931434	0.018045	0.114434	99
Es	0.000000	-0.000005	-0.000002	99
Es	1.454112	-0.027423	0.004108	99
Es	-1.157115	-0.000014	0.000000	99
Es	0.651629	-0.107411	-0.014946	99
Es	-0.937541	0.052924	-0.009408	99
14
Properties=species:S:1:pos:R:3:Z:I:1 energy=-187.6891980177982 field_type=dipole dipole="0.000000 0.000000 0.000000" charge=0
O	-1.157569	0.000000	0.000000	8
O	1.157569	0.000000	0.000000	8
C	0.000000	0.000000	0.000000	6
Es	1.454473	0.024745	-0.003425	99
Es	1.157113	0.000026	-0.000000	99
Es	-0.936377	0.012318	-0.084569	99
Es	0.935899	-0.037863	-0.061972	99
Es	0.646799	0.089000	0.016984	99
Es	0.935972	-0.075782	0.048264	99
Es	0.000000	0.000006	0.000003	99
Es	-0.645072	0.044456	0.070342	99
Es	-0.936976	-0.060955	-0.007934	99
Es	-1.454718	0.004042	0.022288	99
Es	-1.157114	0.000006	0.000020	99
14
Properties=species:S:1:pos:R:3:Z:I:1 energy=-187.6891980177982 field_type=dipole dipole="0.000000 0.000000 0.000000" charge=0
O	-1.157569	0.000000	0.000000	8
O	1.157569	0.000000	0.000000	8
C	0.000000	0.000000	0.000000	6
Es	-0.000000	0.000003	0.000003	99
Es	-0.937074	-0.078390	-0.000154	99
Es	-1.157120	0.000013	-0.000007	99
Es	0.936201	-0.044670	-0.068724	99
Es	0.940141	0.038000	-0.024227	99
Es	-1.454738	0.019989	-0.010687	99
Es	-0.640556	0.058550	-0.003349	99
Es	-0.940770	-0.000004	0.013974	99
Es	1.157113	-0.000003	0.000025	99
Es	1.454493	-0.004088	0.024750	99
Es	0.642310	0.010599	0.068398	99
14
Properties=species:S:1:pos:R:3:Z:I:1 energy=-187.6891980177982 field_type=dipole dipole="0.000000 0.000000 0.000000" charge=0
O	-1.157569	0.000000	0.000000	8
O	1.157569	0.000000	0.000000	8
C	0.000000	0.000000	0.000000	6
Es	0.940559	0.000895	0.000963	99
Es	-1.157113	0.000028	0.000007	99
Es	0.938793	-0.031390	0.029170	99
Es	1.455767	0.001639	-0.005218	99
Es	-0.937920	-0.021157	0.058037	99
Es	-0.642165	0.062203	-0.028714	99
Es	-0.938051	-0.059250	-0.022317	99
Es	-1.455012	0.018264	-0.007010	99
Es	0.000000	0.000005	-0.000002	99
Es	0.638026	0.028758	-0.024908	99
Es	1.157115	0.000003	-0.000009	99
14
Properties=species:S:1:pos:R:3:Z:I:1 energy=-187.6891980177982 field_type=dipole dipole="0.000000 0.000000 0.000000" charge=0
O	-1.157569	0.000000	0.000000	8
O	1.157569	0.000000	0.000000	8
C	0.000000	0.000000	0.000000	6
Es	1.455551	-0.003006	0.011089	99
Es	-1.157112	-0.000031	0.000001	99
Es	-0.939301	-0.014276	-0.037802	99
Es	0.939265	-0.018275	-0.038747	99
Es	0.939159	0.038284	-0.017816	99
Es	-0.000001	-0.000000	0.000004	99
Es	-0.939434	0.035029	-0.013053	99
Es	-0.638782	-0.017427	0.041779	99
Es	0.639172	-0.016992	0.045475	99
Es	-1.455633	-0.003298	0.009058	99
Es	1.157115	-0.000006	0.000014	99
