14
Properties=species:S:1:pos:R:3:Z:I:1 energy=-187.68919801779833 field_type=dipole dipole="0.000000 0.000000 0.000000" charge=0
O	-1.157569	0.000000	0.000000	8
O	1.157569	0.000000	0.000000	8
C	0.000000	0.000000	0.000000	6
Es	-0.929613	-0.059043	0.087288	99
Es	-0.000000	-0.000002	-0.000006	99
Es	0.919046	-0.157759	0.052514	99
Es	-1.453038	-0.021068	-0.026459	99
Es	-0.922332	0.134251	0.080481	99
Es	1.452623	0.025408	-0.024898	99
Es	-1.157112	-0.000016	-0.000026	99
Es	-0.668150	-0.054426	-0.141266	99
Es	1.157113	-0.000009	-0.000027	99
Es	0.924829	0.048695	0.117270	99
Es	0.676634	0.083968	-0.144872	99
