14
Properties=species:S:1:pos:R:3:Z:I:1 energy=-187.6891980177982 field_type=dipole dipole="0.000000 0.000000 0.000000" charge=0
O	-1.157569	0.000000	0.000000	8
O	1.157569	0.000000	0.000000	8
C	0.000000	0.000000	0.000000	6
Es	-0.845089	0.260015	0.065576	99
Es	1.433662	0.000314	0.000518	99
Es	-0.846783	-0.074238	-0.258797	99
Es	0.846759	0.050291	-0.264459	99
Es	0.845670	0.203385	0.176103	99
Es	0.846979	-0.253994	0.087812	99
Es	-0.000006	0.000007	0.000003	99
Es	-1.157098	-0.000003	-0.000008	99
Es	-1.433818	0.001878	0.000219	99
Es	-0.847381	-0.187656	0.193028	99
Es	1.157104	0.000002	0.000006	99
14
Properties=species:S:1:pos:R:3:Z:I:1 energy=-187.6891980177982 field_type=dipole dipole="0.000000 0.000000 0.000000" charge=0
O	-1.157569	0.000000	0.000000	8
O	1.157569	0.000000	0.000000	8
C	0.000000	0.000000	0.000000	6
Es	-0.781686	0.115667	0.226024	99
Es	-0.000001	0.000000	-0.000003	99
Es	1.452730	0.034624	0.001398	99
Es	0.911736	-0.158408	0.086240	99
Es	-1.453179	0.004117	0.012499	99
Es	-1.157101	0.000020	-0.000000	99
Es	-0.885931	-0.204824	-0.008825	99
Es	0.929719	-0.046672	-0.102076	99
Es	0.678946	0.170650	0.014323	99
Es	-0.852345	0.084809	-0.229584	99
Es	1.157112	0.000018	0.000004	99
14
Properties=species:S:1:pos:R:3:Z:I:1 energy=-187.6891980177982 field_type=dipole dipole="0.000000 0.000000 0.000000" charge=0
O	-1.157569	0.000000	0.000000	8
O	1.157569	0.000000	0.000000	8
C	0.000000	0.000000	0.000000	6
Es	-1.453514	0.027173	-0.015881	99
Es	-1.157113	0.000025	-0.000009	99
Es	-0.000000	0.000009	0.000001	99
Es	-0.925359	-0.100059	0.104935	99
Es	1.453548	0.021056	0.022915	99
Es	0.933513	-0.076583	0.037937	99
Es	-0.933644	-0.058038	-0.059846	99
Es	-0.660619	0.130935	-0.029459	99
Es	0.924359	-0.059879	-0.134391	99
Es	1.157111	-0.000007	0.000031	99
Es	0.661718	0.115368	0.073765	99
14
Properties=species:S:1:pos:R:3:Z:I:1 energy=-187.6891980177982 field_type=dipole dipole="0.000000 0.000000 0.000000" charge=0
O	-1.157569	0.000000	0.000000	8
O	1.157569	0.000000	0.000000	8
C	0.000000	0.000000	0.000000	6
Es	0.936241	0.028951	0.059468	99
Es	0.936773	0.076020	-0.038545	99
Es	-0.934867	-0.038342	0.091620	99
Es	1.157111	-0.000033	0.000001	99
Es	-1.454085	-0.002662	-0.027980	99
Es	0.645537	-0.081546	-0.024954	99
Es	-0.649703	-0.037561	-0.094525	99
Es	-1.157104	-0.000024	-0.000039	99
Es	1.454594	-0.023538	0.004207	99
Es	-0.934497	0.078739	0.030747	99
Es	-0.000000	-0.000005	0.000000	99
14
Properties=species:S:1:pos:R:3:Z:I:1 energy=-187.6891980177982 field_type=dipole dipole="0.000000 0.000000 0.000000" charge=0
O	-1.157569	0.000000	0.000000	8
O	1.157569	0.000000	0.000000	8
C	0.000000	0.000000	0.000000	6
Es	0.938113	-0.015072	0.053167	99
Es	-1.157116	-0.000003	0.000008	99
Es	-0.639618	0.015156	-0.049802	99
Es	-0.937670	-0.033857	0.049180	99
Es	-0.940457	0.021319	0.014563	99
Es	0.642241	0.062370	-0.029312	99
Es	1.454857	0.021020	-0.003670	99
Es	1.157116	0.000019	-0.000003	99
Es	-0.000000	0.000003	-0.000000	99
Es	0.937933	-0.068207	-0.020124	99
Es	-1.455399	-0.002748	-0.014007	99
14
Properties=species:S:1:pos:R:3:Z:I:1 energy=-187.6891980177982 field_type=dipole dipole="0.000000 0.000000 0.000000" charge=0
O	-1.157569	0.000000	0.000000	8
O	1.157569	0.000000	0.000000	8
C	0.000000	0.000000	0.000000	6
Es	-0.638479	0.018347	0.038315	99
Es	-0.939721	-0.033787	-0.008793	99
Es	0.940078	0.016656	-0.019800	99
Es	0.000000	-0.000000	0.000001	99
Es	-1.157093	0.000006	0.000079	99
Es	1.157111	0.000033	0.000005	99
Es	0.939410	-0.028817	-0.024106	99
Es	0.637974	0.010745	0.035907	99
Es	-0.939373	0.010234	-0.038698	99
Es	-1.455598	0.005225	0.009098	99
Es	1.455691	0.001357	0.007992	99
14
Properties=species:S:1:pos:R:3:Z:I:1 energy=-187.6891980177982 field_type=dipole dipole="0.000000 0.000000 0.000000" charge=0
O	-1.157569	0.000000	0.000000	8
O	1.157569	0.000000	0.000000	8
C	0.000000	0.000000	0.000000	6
Es	1.157112	-0.000028	-0.000007	99
Es	-0.940530	-0.003559	0.000509	99
Es	0.940508	-0.006057	-0.005073	99
Es	0.000001	0.000003	-0.000001	99
Es	-0.636245	0.003754	-0.001203	99
Es	1.455806	0.003141	-0.001074	99
Es	0.940473	-0.007320	0.008744	99
Es	-1.455828	-0.000347	-0.000340	99
Es	-1.157090	-0.000037	-0.000077	99
Es	-0.940570	0.000160	0.001118	99
Es	0.636365	0.010291	-0.002596	99
14
Properties=species:S:1:pos:R:3:Z:I:1 energy=-187.6891980177982 field_type=dipole dipole="0.000000 0.000000 0.000000" charge=0
O	-1.157569	0.000000	0.000000	8
O	1.157569	0.000000	0.000000	8
C	0.000000	0.000000	0.000000	6
Es	0.636288	0.003826	0.005896	99
Es	-1.455826	0.001114	-0.000047	99
Es	1.455824	0.000511	0.001496	99
Es	0.940496	-0.002739	-0.007928	99
Es	-0.940512	-0.006664	-0.000347	99
Es	1.157112	-0.000023	-0.000014	99
Es	-0.940537	0.000139	-0.002670	99
Es	-0.636274	0.005460	0.003065	99
Es	-1.157114	-0.000021	-0.000007	99
Es	0.000000	0.000001	0.000000	99
Es	0.940544	-0.001605	0.000555	99
14
Properties=species:S:1:pos:R:3:Z:I:1 energy=-187.6891980177982 field_type=dipole dipole="0.000000 0.000000 0.000000" charge=0
O	-1.157569	0.000000	0.000000	8
O	1.157569	0.000000	0.000000	8
C	0.000000	0.000000	0.000000	6
Es	-1.157109	-0.000020	0.000031	99
Es	1.157108	0.000037	-0.000025	99
Es	1.455827	-0.000469	0.000934	99
Es	0.940548	-0.000267	-0.000922	99
Es	-0.940550	-0.000855	0.002311	99
Es	0.940549	0.002507	-0.000725	99
Es	-0.636231	0.001207	-0.001509	99
Es	0.636231	-0.001833	0.000729	99
Es	-1.455826	0.001059	-0.000322	99
Es	-0.000000	0.000003	0.000003	99
Es	-0.940548	-0.001369	-0.000506	99
14
Properties=species:S:1:pos:R:3:Z:I:1 energy=-187.6891980177982 field_type=dipole dipole="0.000000 0.000000 0.000000" charge=0
O	-1.157569	0.000000	0.000000	8
O	1.157569	0.000000	0.000000	8
C	0.000000	0.000000	0.000000	6
Es	0.636228	-0.001037	-0.000152	99
Es	1.157116	0.000000	-0.000000	99
Es	-1.157108	-0.000020	0.000039	99
Es	1.455828	-0.000418	-0.000224	99
Es	0.940546	0.000887	-0.000541	99
Es	-0.940552	-0.000024	-0.000333	99
Es	-0.940549	0.000328	-0.000024	99
Es	-0.636226	-0.000276	0.000261	99
Es	0.940546	0.000560	0.000918	99
Es	-1.455829	-0.000000	0.000057	99
Es	-0.000000	-0.000001	0.000000	99
14
Properties=species:S:1:pos:R:3:Z:I:1 energy=-187.6891980177982 field_type=dipole dipole="0.000000 0.000000 0.000000" charge=0
O	-1.157569	0.000000	0.000000	8
O	1.157569	0.000000	0.000000	8
C	0.000000	0.000000	0.000000	6
Es	0.940541	0.001836	-0.001393	99
Es	1.455829	0.000112	0.000355	99
Es	0.636232	-0.001601	0.001523	99
Es	-0.636230	-0.001377	0.000989	99
Es	-1.455829	0.000163	0.000047	99
Es	0.000000	0.000001	0.000001	99
Es	0.940547	-0.000360	-0.000474	99
Es	-0.940546	0.000442	0.000263	99
Es	1.157115	0.000009	-0.000009	99
Es	-1.157112	-0.000014	0.000027	99
Es	-0.940547	0.000790	-0.001329	99
14
Properties=species:S:1:pos:R:3:Z:I:1 energy=-187.6891980177982 field_type=dipole dipole="0.000000 0.000000 0.000000" charge=0
O	-1.157569	0.000000	0.000000	8
O	1.157569	0.000000	0.000000	8
C	0.000000	0.000000	0.000000	6
Es	1.455829	-0.000002	-0.000171	99
Es	-0.940548	-0.000202	0.000368	99
Es	-0.940547	-0.000275	-0.000151	99
Es	-1.455828	0.000089	-0.000183	99
Es	-0.000000	-0.000001	-0.000000	99
Es	1.157108	-0.000004	-0.000045	99
Es	0.636226	0.000390	-0.000101	99
Es	0.940546	-0.000372	0.000008	99
Es	0.940555	0.000006	0.000307	99
Es	-0.636226	0.000384	-0.000043	99
Es	-1.157115	-0.000013	0.000012	99
14
Properties=species:S:1:pos:R:3:Z:I:1 energy=-187.6891980177982 field_type=dipole dipole="0.000000 0.000000 0.000000" charge=0
O	-1.157569	0.000000	0.000000	8
O	1.157569	0.000000	0.000000	8
C	0.000000	0.000000	0.000000	6
Es	0.636226	-0.000691	0.000131	99
Es	1.455829	-0.000227	0.000013	99
Es	-0.940547	-0.000324	0.000408	99
Es	1.157116	0.000008	-0.000003	99
Es	-0.940554	-0.000341	-0.000272	99
Es	-0.636226	0.000518	0.000003	99
Es	0.000000	0.000003	-0.000002	99
Es	-1.455829	0.000144	-0.000157	99
Es	0.940547	0.000227	0.000316	99
Es	-1.157108	0.000035	0.000030	99
Es	0.940546	0.000648	-0.000467	99
14
Properties=species:S:1:pos:R:3:Z:I:1 energy=-187.6891980177982 field_type=dipole dipole="0.000000 0.000000 0.000000" charge=0
O	-1.157569	0.000000	0.000000	8
O	1.157569	0.000000	0.000000	8
C	0.000000	0.000000	0.000000	6
Es	1.455825	0.000189	0.000039	99
Es	1.157120	-0.000006	-0.000004	99
Es	0.636226	0.000441	-0.000420	99
Es	-0.940549	-0.000156	0.000080	99
Es	0.940546	-0.000486	0.000513	99
Es	-1.455829	-0.000091	-0.000065	99
Es	-0.636227	-0.000075	-0.000581	99
Es	-0.940547	0.000303	0.000590	99
Es	-1.157113	0.000013	-0.000023	99
Es	0.000000	0.000002	-0.000002	99
Es	0.940547	-0.000134	-0.000127	99
14
Properties=species:S:1:pos:R:3:Z:I:1 energy=-187.6891980177982 field_type=dipole dipole="0.000000 0.000000 0.000000" charge=0
O	-1.157569	0.000000	0.000000	8
O	1.157569	0.000000	0.000000	8
C	0.000000	0.000000	0.000000	6
Es	1.455829	-0.000102	0.000273	99
Es	-1.455829	-0.000109	0.000038	99
Es	-0.940550	0.000238	-0.000020	99
Es	0.940547	0.000009	-0.000148	99
Es	-0.636226	-0.000163	-0.000596	99
Es	-0.000000	-0.000000	0.000000	99
Es	1.157114	-0.000018	0.000012	99
Es	-1.157113	-0.000025	0.000012	99
Es	0.636226	-0.000089	-0.000151	99
Es	-0.940547	0.000046	0.000565	99
Es	0.940548	0.000213	0.000013	99
14
Properties=species:S:1:pos:R:3:Z:I:1 energy=-187.6891980177982 field_type=dipole dipole="0.000000 0.000000 0.000000" charge=0
O	-1.157569	0.000000	0.000000	8
O	1.157569	0.000000	0.000000	8
C	0.000000	0.000000	0.000000	6
Es	0.000000	0.000002	-0.000000	99
Es	1.455829	-0.000105	-0.000164	99
Es	-0.940547	-0.000397	0.000009	99
Es	-0.940548	0.000006	0.000257	99
Es	-0.636226	0.000219	-0.000049	99
Es	1.157112	-0.000024	0.000019	99
Es	-1.157114	0.000007	0.000019	99
Es	-1.455829	0.000164	-0.000229	99
Es	0.940548	-0.000020	0.000160	99
Es	0.636226	-0.000246	-0.000070	99
Es	0.940548	0.000393	0.000048	99
14
Properties=species:S:1:pos:R:3:Z:I:1 energy=-187.6891980177982 field_type=dipole dipole="0.000000 0.000000 0.000000" charge=0
O	-1.157569	0.000000	0.000000	8
O	1.157569	0.000000	0.000000	8
C	0.000000	0.000000	0.000000	6
Es	-0.940547	0.000446	-0.000186	99
Es	-1.157115	-0.000007	0.000008	99
Es	-0.636226	-0.000390	0.000285	99
Es	1.157115	0.000005	-0.000017	99
Es	-1.455829	-0.000025	-0.000013	99
Es	-0.940547	-0.000039	-0.000093	99
Es	0.940548	-0.000012	0.000177	99
Es	0.636226	-0.000370	-0.000014	99
Es	1.455829	-0.000049	-0.000177	99
Es	0.940546	0.000439	0.000030	99
Es	0.000000	0.000002	-0.000000	99
14
Properties=species:S:1:pos:R:3:Z:I:1 energy=-187.6891980177982 field_type=dipole dipole="0.000000 0.000000 0.000000" charge=0
O	-1.157569	0.000000	0.000000	8
O	1.157569	0.000000	0.000000	8
C	0.000000	0.000000	0.000000	6
Es	0.940546	-0.000122	-0.000752	99
Es	1.157108	0.000041	-0.000008	99
Es	-0.940547	0.000464	0.000255	99
Es	-1.157116	0.000002	-0.000009	99
Es	0.000000	-0.000002	-0.000001	99
Es	0.940554	-0.000339	0.000055	99
Es	-0.636226	-0.000389	0.000304	99
Es	0.636227	0.000393	0.000662	99
Es	1.455829	0.000030	0.000059	99
Es	-0.940547	0.000299	-0.000544	99
Es	-1.455829	-0.000377	-0.000022	99
14
Properties=species:S:1:pos:R:3:Z:I:1 energy=-187.6891980177982 field_type=dipole dipole="0.000000 0.000000 0.000000" charge=0
O	-1.157569	0.000000	0.000000	8
O	1.157569	0.000000	0.000000	8
C	0.000000	0.000000	0.000000	6
Es	0.636226	0.000070	0.000101	99
Es	-1.157112	0.000030	0.000000	99
Es	-0.940550	-0.000239	-0.000078	99
Es	0.940547	-0.000072	-0.000144	99
Es	1.455829	-0.000060	0.000078	99
Es	1.157114	0.000004	-0.000018	99
Es	0.000000	-0.000000	-0.000000	99
Es	-0.636226	0.000184	0.000029	99
Es	0.940547	0.000069	-0.000035	99
Es	-0.940547	-0.000042	0.000129	99
Es	-1.455829	0.000057	-0.000063	99
14
Properties=species:S:1:pos:R:3:Z:I:1 energy=-187.6891980177982 field_type=dipole dipole="0.000000 0.000000 0.000000" charge=0
O	-1.157569	0.000000	0.000000	8
O	1.157569	0.000000	0.000000	8
C	0.000000	0.000000	0.000000	6
Es	-0.940547	-0.000377	0.000236	99
Es	0.940547	-0.000145	-0.000088	99
Es	0.000000	0.000001	0.000001	99
Es	-0.636226	0.000301	-0.000215	99
Es	0.940547	0.000290	-0.000481	99
Es	-0.940547	0.000026	0.000042	99
Es	-1.157115	-0.000001	0.000012	99
Es	1.455829	-0.000107	0.000214	99
Es	-1.455829	0.000057	-0.000077	99
Es	0.636226	-0.000046	0.000345	99
Es	1.157115	-0.000000	0.000012	99
14
Properties=species:S:1:pos:R:3:Z:I:1 energy=-187.6891980177982 field_type=dipole dipole="0.000000 0.000000 0.000000" charge=0
O	-1.157569	0.000000	0.000000	8
O	1.157569	0.000000	0.000000	8
C	0.000000	0.000000	0.000000	6
Es	1.455829	0.000017	0.000038	99
Es	-1.157115	0.000007	-0.000016	99
Es	0.940547	0.000001	-0.000033	99
Es	-0.940548	0.000011	-0.000031	99
Es	0.940547	0.000231	0.000009	99
Es	0.000000	0.000000	-0.000000	99
Es	0.636226	-0.000251	-0.000013	99
Es	-0.940547	-0.000052	-0.000018	99
Es	-1.455829	0.000073	0.000056	99
Es	1.157116	-0.000005	-0.000005	99
Es	-0.636226	-0.000033	0.000012	99
14
Properties=species:S:1:pos:R:3:Z:I:1 energy=-187.6891980177982 field_type=dipole dipole="0.000000 0.000000 0.000000" charge=0
O	-1.157569	0.000000	0.000000	8
O	1.157569	0.000000	0.000000	8
C	0.000000	0.000000	0.000000	6
Es	1.157114	-0.000010	-0.000018	99
Es	0.940548	0.000017	-0.000140	99
Es	1.455829	0.000095	0.000064	99
Es	-0.636226	0.000106	-0.000149	99
Es	-1.157116	0.000003	0.000003	99
Es	0.940547	-0.000161	-0.000019	99
Es	-0.000000	-0.000001	0.000001	99
Es	-0.940547	0.000018	0.000023	99
Es	0.636226	0.000057	0.000118	99
Es	-1.455829	0.000103	-0.000061	99
Es	-0.940547	-0.000229	0.000177	99
14
Properties=species:S:1:pos:R:3:Z:I:1 energy=-187.6891980177982 field_type=dipole dipole="0.000000 0.000000 0.000000" charge=0
O	-1.157569	0.000000	0.000000	8
O	1.157569	0.000000	0.000000	8
C	0.000000	0.000000	0.000000	6
Es	0.940547	0.000115	-0.000147	99
Es	0.636226	0.000029	0.000020	99
Es	-1.455829	-0.000014	0.000028	99
Es	-0.940547	-0.000192	0.000066	99
Es	-1.157116	-0.000005	0.000009	99
Es	0.000000	-0.000001	0.000000	99
Es	1.157116	-0.000004	0.000004	99
Es	-0.940547	-0.000014	-0.000041	99
Es	1.455829	-0.000096	0.000150	99
Es	0.940547	-0.000050	-0.000039	99
Es	-0.636226	0.000231	-0.000049	99
14
Properties=species:S:1:pos:R:3:Z:I:1 energy=-187.6891980177982 field_type=dipole dipole="0.000000 0.000000 0.000000" charge=0
O	-1.157569	0.000000	0.000000	8
O	1.157569	0.000000	0.000000	8
C	0.000000	0.000000	0.000000	6
Es	-0.000000	-0.000002	-0.000001	99
Es	-0.940547	-0.000003	-0.000188	99
Es	-0.940547	-0.000111	0.000002	99
Es	0.636226	-0.000037	0.000166	99
Es	1.157115	-0.000004	-0.000020	99
Es	-1.455828	0.000074	0.000031	99
Es	-1.157117	0.000005	0.000001	99
Es	1.455829	0.000052	0.000091	99
Es	-0.636226	0.000032	0.000155	99
Es	0.940547	0.000112	-0.000149	99
Es	0.940547	-0.000118	-0.000088	99
14
Properties=species:S:1:pos:R:3:Z:I:1 energy=-187.6891980177982 field_type=dipole dipole="0.000000 0.000000 0.000000" charge=0
O	-1.157569	0.000000	0.000000	8
O	1.157569	0.000000	0.000000	8
C	0.000000	0.000000	0.000000	6
Es	-0.000000	0.000001	0.000001	99
Es	-0.940547	0.000032	-0.000017	99
Es	0.636226	-0.000063	-0.000021	99
Es	-0.636226	-0.000012	-0.000061	99
Es	1.157116	-0.000001	-0.000004	99
Es	-0.940547	-0.000007	-0.000013	99
Es	0.940547	0.000003	0.000089	99
Es	-1.157115	0.000008	-0.000015	99
Es	0.940547	0.000034	-0.000001	99
Es	1.455829	0.000017	-0.000043	99
Es	-1.455829	-0.000013	0.000085	99
