32
Properties=species:S:1:pos:R:3:Z:I:1 energy=-698.1300910274538 field_type=dipole dipole="0.000000 0.000000 0.000000" charge=0
S	0.000200	-0.000200	-0.118100	16
O	1.274400	0.035500	0.897500	8
O	-1.276500	-0.032600	0.894900	8
O	-0.033600	1.257700	-0.839100	8
O	0.035400	-1.260400	-0.835100	8
H	1.211100	0.691200	1.631200	1
H	-1.214800	-0.685900	1.630700	1
Es	-1.485326	-0.105935	0.699894	99
Es	0.035389	-1.260169	-0.834959	99
Es	0.014742	-1.425528	-0.587355	99
Es	-1.259624	0.243212	1.015077	99
Es	0.229267	1.111015	-0.924922	99
Es	0.064468	-0.792256	-0.528489	99
Es	-1.207042	-0.383303	1.252342	99
Es	0.000002	-0.000319	-0.118594	99
Es	1.482075	0.109175	0.703587	99
Es	-0.061633	-0.086553	-0.067548	99
Es	0.806032	0.054521	0.584351	99
Es	1.259150	-0.240228	1.017671	99
Es	-0.048958	0.099995	-0.089174	99
Es	1.203878	0.387332	1.254320	99
Es	-0.063413	0.790800	-0.529515	99
Es	0.279692	-1.173356	-0.976372	99
Es	0.115844	-0.002036	-0.078317	99
Es	-0.018937	1.424294	-0.593694	99
Es	-0.004217	-0.012090	-0.236035	99
Es	-1.276176	-0.032858	0.894929	99
Es	-0.224645	-1.111736	-0.925299	99
Es	1.274062	0.035759	0.897511	99
Es	-0.807393	-0.053305	0.583501	99
Es	-0.033593	1.257464	-0.838952	99
Es	-0.274635	1.167024	-0.983713	99
32
Properties=species:S:1:pos:R:3:Z:I:1 energy=-698.1300910274538 field_type=dipole dipole="0.000000 0.000000 0.000000" charge=0
S	0.000200	-0.000200	-0.118100	16
O	1.274400	0.035500	0.897500	8
O	-1.276500	-0.032600	0.894900	8
O	-0.033600	1.257700	-0.839100	8
O	0.035400	-1.260400	-0.835100	8
H	1.211100	0.691200	1.631200	1
H	-1.214800	-0.685900	1.630700	1
Es	0.811321	0.058585	0.583786	99
Es	1.274039	0.035716	0.897561	99
Es	0.020431	-1.450539	-0.595779	99
Es	1.266338	-0.253446	1.016765	99
Es	-0.019092	1.453892	-0.605836	99
Es	0.209503	1.101147	-0.905237	99
Es	1.205073	0.391989	1.252598	99
Es	0.065000	-0.782124	-0.529384	99
Es	-0.251531	1.153775	-0.992846	99
Es	-0.207227	-1.108962	-0.904301	99
Es	1.468270	0.113736	0.706780	99
Es	-0.066433	0.784414	-0.527927	99
Es	-0.033585	1.257489	-0.838961	99
Es	-1.264187	0.255959	1.015112	99
Es	0.000507	-0.000321	-0.118223	99
Es	-0.813733	-0.058199	0.581253	99
Es	-1.209505	-0.389763	1.249994	99
Es	0.086787	0.051228	-0.059896	99
Es	-1.276185	-0.032817	0.894972	99
Es	-0.043446	0.076053	-0.200480	99
Es	0.255940	-1.161416	-0.988033	99
Es	-1.471801	-0.107391	0.704446	99
Es	0.035388	-1.260145	-0.834945	99
Es	-0.083247	-0.025453	-0.041703	99
Es	0.040381	-0.102489	-0.169470	99
32
Properties=species:S:1:pos:R:3:Z:I:1 energy=-698.1300910274538 field_type=dipole dipole="0.000000 0.000000 0.000000" charge=0
S	0.000200	-0.000200	-0.118100	16
O	1.274400	0.035500	0.897500	8
O	-1.276500	-0.032600	0.894900	8
O	-0.033600	1.257700	-0.839100	8
O	0.035400	-1.260400	-0.835100	8
H	1.211100	0.691200	1.631200	1
H	-1.214800	-0.685900	1.630700	1
Es	-0.813654	-0.057268	0.582252	99
Es	0.244318	-1.157053	-0.998836	99
Es	-0.022768	1.458537	-0.608700	99
Es	0.024108	-1.458229	-0.601220	99
Es	0.035371	-1.260270	-0.835027	99
Es	-0.204515	-1.104770	-0.889510	99
Es	-0.067697	0.781779	-0.528470	99
Es	-1.467174	-0.111157	0.704758	99
Es	0.070162	-0.782876	-0.527867	99
Es	-1.269571	0.258711	1.013428	99
Es	0.812645	0.059371	0.583105	99
Es	0.204835	1.101522	-0.892109	99
Es	-0.007794	0.029771	-0.232071	99
Es	-0.241850	1.151476	-1.002611	99
Es	-1.208772	-0.389650	1.250417	99
Es	1.266667	-0.255178	1.016818	99
Es	-0.010633	0.098829	-0.044423	99
Es	0.100399	-0.043980	-0.103357	99
Es	0.000245	-0.000154	-0.118141	99
Es	1.205126	0.393058	1.252067	99
Es	-0.033597	1.257423	-0.838925	99
Es	1.466449	0.113620	0.707964	99
Es	1.274107	0.035693	0.897560	99
Es	-0.081210	-0.085445	-0.091795	99
Es	-1.276191	-0.032839	0.894941	99
32
Properties=species:S:1:pos:R:3:Z:I:1 energy=-698.1300910274538 field_type=dipole dipole="0.000000 0.000000 0.000000" charge=0
S	0.000200	-0.000200	-0.118100	16
O	1.274400	0.035500	0.897500	8
O	-1.276500	-0.032600	0.894900	8
O	-0.033600	1.257700	-0.839100	8
O	0.035400	-1.260400	-0.835100	8
H	1.211100	0.691200	1.631200	1
H	-1.214800	-0.685900	1.630700	1
Es	0.059082	-0.089576	-0.171106	99
Es	-1.276196	-0.032802	0.894934	99
Es	0.035389	-1.260169	-0.834957	99
Es	0.078073	-0.783653	-0.526971	99
Es	1.265594	-0.255956	1.017552	99
Es	0.003409	0.105309	-0.185021	99
Es	1.465587	0.112040	0.708817	99
Es	0.813483	0.060374	0.582494	99
Es	-0.244097	1.151868	-0.997286	99
Es	-0.018100	1.460417	-0.609674	99
Es	-1.468315	-0.110948	0.705111	99
Es	-0.033586	1.257478	-0.838968	99
Es	0.203141	1.098590	-0.896737	99
Es	0.000215	-0.000189	-0.118106	99
Es	0.228176	-1.153557	-1.013818	99
Es	-0.202910	-1.101875	-0.870154	99
Es	0.041107	0.015364	-0.006639	99
Es	-1.268131	0.258975	1.013793	99
Es	1.206212	0.394416	1.251154	99
Es	-0.068344	0.782385	-0.528146	99
Es	-1.208187	-0.389403	1.250303	99
Es	0.030687	-1.463960	-0.606546	99
Es	-0.102828	-0.031897	-0.108932	99
Es	-0.814543	-0.058047	0.581640	99
Es	1.274089	0.035736	0.897507	99
32
Properties=species:S:1:pos:R:3:Z:I:1 energy=-698.1300910274538 field_type=dipole dipole="0.000000 0.000000 0.000000" charge=0
S	0.000200	-0.000200	-0.118100	16
O	1.274400	0.035500	0.897500	8
O	-1.276500	-0.032600	0.894900	8
O	-0.033600	1.257700	-0.839100	8
O	0.035400	-1.260400	-0.835100	8
H	1.211100	0.691200	1.631200	1
H	-1.214800	-0.685900	1.630700	1
Es	0.030376	-0.065716	-0.214967	99
Es	-0.033593	1.257455	-0.838949	99
Es	-0.243450	1.152417	-0.999029	99
Es	-1.276290	-0.032756	0.894934	99
Es	0.000223	-0.000199	-0.118087	99
Es	0.035363	-1.260057	-0.834908	99
Es	0.075583	-0.785026	-0.524674	99
Es	0.814263	0.061373	0.581192	99
Es	1.274048	0.035712	0.897570	99
Es	0.236248	-1.153644	-1.004682	99
Es	-1.267577	0.259245	1.013612	99
Es	-0.018666	1.459787	-0.609005	99
Es	1.465813	0.111732	0.710041	99
Es	0.032409	0.121568	-0.127235	99
Es	-1.467812	-0.110142	0.705922	99
Es	0.036218	-0.053298	-0.014506	99
Es	-1.208641	-0.389855	1.250357	99
Es	0.020775	-1.466645	-0.608894	99
Es	1.206003	0.394026	1.251659	99
Es	0.202187	1.099878	-0.895012	99
Es	1.264830	-0.256259	1.017055	99
Es	-0.198518	-1.097820	-0.879339	99
Es	-0.098260	-0.003381	-0.115027	99
Es	-0.815031	-0.058707	0.580984	99
Es	-0.067496	0.781231	-0.528769	99
32
Properties=species:S:1:pos:R:3:Z:I:1 energy=-698.1300910274538 field_type=dipole dipole="0.000000 0.000000 0.000000" charge=0
S	0.000200	-0.000200	-0.118100	16
O	1.274400	0.035500	0.897500	8
O	-1.276500	-0.032600	0.894900	8
O	-0.033600	1.257700	-0.839100	8
O	0.035400	-1.260400	-0.835100	8
H	1.211100	0.691200	1.631200	1
H	-1.214800	-0.685900	1.630700	1
Es	-1.276175	-0.032812	0.894955	99
Es	-0.198534	-1.102604	-0.881045	99
Es	-1.208336	-0.389822	1.250818	99
Es	0.813444	0.060308	0.582774	99
Es	-0.235258	1.149400	-1.007186	99
Es	1.464853	0.111530	0.708703	99
Es	-0.016856	0.035248	-0.232134	99
Es	0.022994	-1.462987	-0.604326	99
Es	0.035324	-1.260143	-0.834969	99
Es	-1.466544	-0.110889	0.706513	99
Es	-0.816008	-0.059422	0.580885	99
Es	-1.268266	0.260769	1.012637	99
Es	-0.020404	1.464554	-0.613878	99
Es	0.238163	-1.155651	-1.004390	99
Es	-0.005436	0.094162	-0.038386	99
Es	0.097567	-0.038094	-0.113266	99
Es	1.206875	0.395136	1.250773	99
Es	0.000297	-0.000233	-0.118140	99
Es	0.071535	-0.781836	-0.527734	99
Es	0.199744	1.096852	-0.883981	99
Es	1.274080	0.035736	0.897540	99
Es	-0.074551	-0.092078	-0.087871	99
Es	-0.033592	1.257454	-0.838946	99
Es	-0.071611	0.782487	-0.526830	99
Es	1.265702	-0.256147	1.017732	99
32
Properties=species:S:1:pos:R:3:Z:I:1 energy=-698.1300910274538 field_type=dipole dipole="0.000000 0.000000 0.000000" charge=0
S	0.000200	-0.000200	-0.118100	16
O	1.274400	0.035500	0.897500	8
O	-1.276500	-0.032600	0.894900	8
O	-0.033600	1.257700	-0.839100	8
O	0.035400	-1.260400	-0.835100	8
H	1.211100	0.691200	1.631200	1
H	-1.214800	-0.685900	1.630700	1
Es	-0.033585	1.257405	-0.838921	99
Es	-0.197298	-1.100517	-0.871414	99
Es	-1.209722	-0.391011	1.249570	99
Es	0.087272	-0.040720	-0.170511	99
Es	0.035393	-1.260154	-0.834950	99
Es	-0.815754	-0.059730	0.580756	99
Es	1.265914	-0.257024	1.016400	99
Es	-0.236591	1.148678	-1.007687	99
Es	-1.467133	-0.108740	0.706396	99
Es	-1.266571	0.260074	1.014122	99
Es	-0.001444	0.126475	-0.127990	99
Es	0.814286	0.061146	0.582153	99
Es	0.000673	-0.000173	-0.118066	99
Es	-0.070796	0.783749	-0.526084	99
Es	0.200068	1.096492	-0.884121	99
Es	1.206350	0.394503	1.251853	99
Es	-0.020084	1.464453	-0.613954	99
Es	0.007368	-0.037312	-0.005773	99
Es	1.464295	0.112267	0.709566	99
Es	0.023799	-1.464013	-0.605742	99
Es	1.274097	0.035697	0.897548	99
Es	0.231350	-1.156226	-1.012866	99
Es	0.076144	-0.782298	-0.527515	99
Es	-1.276149	-0.032812	0.894966	99
Es	-0.092875	-0.049291	-0.167487	99
32
Properties=species:S:1:pos:R:3:Z:I:1 energy=-698.1300910274538 field_type=dipole dipole="0.000000 0.000000 0.000000" charge=0
S	0.000200	-0.000200	-0.118100	16
O	1.274400	0.035500	0.897500	8
O	-1.276500	-0.032600	0.894900	8
O	-0.033600	1.257700	-0.839100	8
O	0.035400	-1.260400	-0.835100	8
H	1.211100	0.691200	1.631200	1
H	-1.214800	-0.685900	1.630700	1
Es	0.016032	-1.463883	-0.606798	99
Es	0.815226	0.062151	0.581011	99
Es	0.089818	-0.053150	-0.147260	99
Es	-1.466261	-0.109942	0.707276	99
Es	0.197839	1.095765	-0.877645	99
Es	1.464082	0.112050	0.710836	99
Es	0.000152	-0.000178	-0.118074	99
Es	-0.815654	-0.059388	0.580064	99
Es	-0.231104	1.146598	-1.012040	99
Es	1.274126	0.035686	0.897555	99
Es	-0.072377	0.783552	-0.526199	99
Es	-0.013063	-0.015991	0.001363	99
Es	0.070970	-0.782626	-0.525374	99
Es	-1.208974	-0.390489	1.249747	99
Es	0.011365	0.120804	-0.151775	99
Es	-0.033592	1.257432	-0.838920	99
Es	0.242053	-1.156863	-1.001006	99
Es	-0.087260	-0.052494	-0.174066	99
Es	1.206125	0.394359	1.252102	99
Es	-1.276237	-0.032799	0.894939	99
Es	-1.268190	0.260433	1.013798	99
Es	-0.021823	1.467408	-0.615994	99
Es	-0.195027	-1.099700	-0.884396	99
Es	1.265382	-0.257685	1.016031	99
Es	0.035397	-1.260130	-0.834932	99
32
Properties=species:S:1:pos:R:3:Z:I:1 energy=-698.1300910274538 field_type=dipole dipole="0.000000 0.000000 0.000000" charge=0
S	0.000200	-0.000200	-0.118100	16
O	1.274400	0.035500	0.897500	8
O	-1.276500	-0.032600	0.894900	8
O	-0.033600	1.257700	-0.839100	8
O	0.035400	-1.260400	-0.835100	8
H	1.211100	0.691200	1.631200	1
H	-1.214800	-0.685900	1.630700	1
Es	0.012676	-0.115675	-0.070763	99
Es	0.017590	-1.463918	-0.605169	99
Es	-0.033592	1.257441	-0.838932	99
Es	-1.276183	-0.032794	0.894952	99
Es	0.070153	-0.781930	-0.527077	99
Es	0.069562	0.016193	-0.211219	99
Es	1.274079	0.035753	0.897537	99
Es	-0.094689	0.007066	-0.154796	99
Es	-0.072109	0.779514	-0.530334	99
Es	-1.266202	0.259746	1.014057	99
Es	0.000162	-0.000258	-0.118124	99
Es	-0.816019	-0.059777	0.580018	99
Es	-0.233917	1.154372	-1.012204	99
Es	0.195831	1.097292	-0.879406	99
Es	0.241832	-1.156405	-1.000355	99
Es	-0.017217	1.462118	-0.609976	99
Es	1.465328	0.110895	0.709903	99
Es	0.035412	-1.260094	-0.834894	99
Es	0.814829	0.061298	0.581521	99
Es	-1.209830	-0.391283	1.249731	99
Es	1.206330	0.395057	1.251576	99
Es	0.013279	0.091679	-0.034881	99
Es	1.264367	-0.256413	1.016994	99
Es	-0.195590	-1.100844	-0.884998	99
Es	-1.467073	-0.108113	0.707083	99
32
Properties=species:S:1:pos:R:3:Z:I:1 energy=-698.1300910274538 field_type=dipole dipole="0.000000 0.000000 0.000000" charge=0
S	0.000200	-0.000200	-0.118100	16
O	1.274400	0.035500	0.897500	8
O	-1.276500	-0.032600	0.894900	8
O	-0.033600	1.257700	-0.839100	8
O	0.035400	-1.260400	-0.835100	8
H	1.211100	0.691200	1.631200	1
H	-1.214800	-0.685900	1.630700	1
Es	0.000259	-0.000623	-0.118630	99
Es	0.035384	-1.260182	-0.834974	99
Es	0.230668	-1.154294	-1.011850	99
Es	-0.233611	1.150397	-1.010283	99
Es	1.265212	-0.257469	1.016105	99
Es	0.195798	1.095140	-0.880041	99
Es	-0.037326	0.080717	-0.041236	99
Es	-1.267857	0.260516	1.013990	99
Es	0.073807	-0.781320	-0.527230	99
Es	0.036892	0.053520	-0.219490	99
Es	-0.088260	-0.076059	-0.140595	99
Es	-1.466036	-0.109507	0.706248	99
Es	-0.193892	-1.101013	-0.871027	99
Es	1.464166	0.111717	0.710670	99
Es	-1.209589	-0.391254	1.249447	99
Es	1.274086	0.035724	0.897554	99
Es	-0.017196	1.465782	-0.614176	99
Es	-0.072423	0.782035	-0.527397	99
Es	0.089471	-0.058532	-0.069837	99
Es	-0.033589	1.257399	-0.838928	99
Es	0.023395	-1.466414	-0.607386	99
Es	0.814916	0.062221	0.581115	99
Es	-0.815657	-0.059154	0.581178	99
Es	-1.276185	-0.032808	0.894943	99
Es	1.206573	0.394382	1.252074	99
32
Properties=species:S:1:pos:R:3:Z:I:1 energy=-698.1300910274538 field_type=dipole dipole="0.000000 0.000000 0.000000" charge=0
S	0.000200	-0.000200	-0.118100	16
O	1.274400	0.035500	0.897500	8
O	-1.276500	-0.032600	0.894900	8
O	-0.033600	1.257700	-0.839100	8
O	0.035400	-1.260400	-0.835100	8
H	1.211100	0.691200	1.631200	1
H	-1.214800	-0.685900	1.630700	1
Es	0.035380	-1.260080	-0.834892	99
Es	0.000469	-0.000244	-0.118035	99
Es	-0.004904	-0.117913	-0.160670	99
Es	-0.014674	1.465249	-0.614404	99
Es	-0.033596	1.257433	-0.838928	99
Es	-1.276183	-0.032771	0.894971	99
Es	-1.466118	-0.109875	0.707272	99
Es	0.815492	0.062465	0.580628	99
Es	1.206535	0.394776	1.252107	99
Es	-0.075846	0.013729	-0.037691	99
Es	-0.192809	-1.099009	-0.876042	99
Es	1.274075	0.035742	0.897544	99
Es	0.235263	-1.154132	-1.007157	99
Es	-0.016899	0.085832	-0.204700	99
Es	0.196122	1.094418	-0.884580	99
Es	-1.208912	-0.390398	1.250927	99
Es	0.072745	-0.782655	-0.525220	99
Es	-0.816322	-0.059712	0.580189	99
Es	1.465676	0.110220	0.710768	99
Es	0.098183	0.017611	-0.068688	99
Es	-0.070969	0.783062	-0.526294	99
Es	0.018771	-1.467320	-0.609193	99
Es	1.263136	-0.256611	1.016511	99
Es	-0.237859	1.150555	-1.006672	99
Es	-1.267748	0.260546	1.012493	99
32
Properties=species:S:1:pos:R:3:Z:I:1 energy=-698.1300910274538 field_type=dipole dipole="0.000000 0.000000 0.000000" charge=0
S	0.000200	-0.000200	-0.118100	16
O	1.274400	0.035500	0.897500	8
O	-1.276500	-0.032600	0.894900	8
O	-0.033600	1.257700	-0.839100	8
O	0.035400	-1.260400	-0.835100	8
H	1.211100	0.691200	1.631200	1
H	-1.214800	-0.685900	1.630700	1
Es	0.000992	-0.000339	-0.117935	99
Es	-0.239961	1.150163	-1.003212	99
Es	0.035445	-1.260068	-0.834884	99
Es	-1.267591	0.259942	1.013638	99
Es	0.022122	-1.466165	-0.608189	99
Es	-0.200788	-1.101416	-0.893601	99
Es	1.206349	0.394290	1.251268	99
Es	-1.467116	-0.109753	0.706811	99
Es	-0.007708	-0.113287	-0.182565	99
Es	-1.208975	-0.390173	1.250109	99
Es	-0.033577	1.257384	-0.838866	99
Es	0.069175	-0.784393	-0.524447	99
Es	-0.020255	1.462215	-0.611326	99
Es	0.200373	1.099474	-0.889540	99
Es	1.463515	0.113298	0.709267	99
Es	-1.276171	-0.032818	0.894951	99
Es	-0.815518	-0.059372	0.580263	99
Es	-0.067714	0.781543	-0.527838	99
Es	-0.023680	0.001373	0.006048	99
Es	1.274089	0.035706	0.897566	99
Es	0.031696	0.111433	-0.177093	99
Es	-0.000284	-0.000183	-0.118254	99
Es	0.243548	-1.151179	-0.991316	99
Es	0.813328	0.060358	0.582581	99
Es	1.267713	-0.257112	1.016810	99
32
Properties=species:S:1:pos:R:3:Z:I:1 energy=-698.1300910274538 field_type=dipole dipole="0.000000 0.000000 0.000000" charge=0
S	0.000200	-0.000200	-0.118100	16
O	1.274400	0.035500	0.897500	8
O	-1.276500	-0.032600	0.894900	8
O	-0.033600	1.257700	-0.839100	8
O	0.035400	-1.260400	-0.835100	8
H	1.211100	0.691200	1.631200	1
H	-1.214800	-0.685900	1.630700	1
Es	-1.267119	0.260000	1.013624	99
Es	-0.026380	-0.115326	-0.166358	99
Es	-0.815913	-0.059529	0.580125	99
Es	0.815086	0.062094	0.581078	99
Es	-1.276208	-0.032792	0.894938	99
Es	-1.209689	-0.391143	1.249990	99
Es	0.237593	-1.155072	-1.003891	99
Es	-0.018517	1.464267	-0.612105	99
Es	0.197382	1.096467	-0.881361	99
Es	0.073785	-0.783422	-0.525725	99
Es	-0.196888	-1.098982	-0.880445	99
Es	-0.045169	0.017078	-0.009222	99
Es	1.465300	0.110490	0.710343	99
Es	-0.033594	1.257442	-0.838936	99
Es	-1.466392	-0.108748	0.707135	99
Es	1.206763	0.395099	1.251244	99
Es	1.274091	0.035712	0.897556	99
Es	1.263722	-0.256806	1.017287	99
Es	-0.019347	0.097636	-0.193285	99
Es	0.035392	-1.260147	-0.834943	99
Es	-0.234231	1.151322	-1.009636	99
Es	0.019475	-1.465600	-0.607461	99
Es	0.000214	-0.000177	-0.118119	99
Es	0.091705	-0.000202	-0.102813	99
Es	-0.072056	0.781258	-0.528774	99
32
Properties=species:S:1:pos:R:3:Z:I:1 energy=-698.1300910274538 field_type=dipole dipole="0.000000 0.000000 0.000000" charge=0
S	0.000200	-0.000200	-0.118100	16
O	1.274400	0.035500	0.897500	8
O	-1.276500	-0.032600	0.894900	8
O	-0.033600	1.257700	-0.839100	8
O	0.035400	-1.260400	-0.835100	8
H	1.211100	0.691200	1.631200	1
H	-1.214800	-0.685900	1.630700	1
Es	-1.466349	-0.109439	0.707220	99
Es	0.815020	0.061903	0.581455	99
Es	1.264263	-0.257039	1.017125	99
Es	-0.239786	1.150418	-1.001831	99
Es	0.016943	-1.467007	-0.609065	99
Es	-1.267622	0.260267	1.013278	99
Es	-0.014675	1.465253	-0.613746	99
Es	-0.815998	-0.059521	0.580105	99
Es	-0.068868	0.781726	-0.527137	99
Es	0.056447	0.064837	-0.030056	99
Es	0.072764	-0.783597	-0.524730	99
Es	-0.088149	0.003798	-0.095352	99
Es	-1.209181	-0.390696	1.250281	99
Es	0.027435	-0.123040	-0.117889	99
Es	0.035393	-1.260131	-0.834930	99
Es	0.195931	1.095828	-0.889146	99
Es	1.206229	0.394744	1.251358	99
Es	1.465310	0.111315	0.710068	99
Es	0.000618	-0.000238	-0.118210	99
Es	-0.192844	-1.097957	-0.877190	99
Es	1.274084	0.035677	0.897553	99
Es	0.004634	0.053646	-0.228281	99
Es	-1.276156	-0.032830	0.894948	99
Es	0.237156	-1.154505	-1.006586	99
Es	-0.033590	1.257506	-0.838996	99
32
Properties=species:S:1:pos:R:3:Z:I:1 energy=-698.1300910274538 field_type=dipole dipole="0.000000 0.000000 0.000000" charge=0
S	0.000200	-0.000200	-0.118100	16
O	1.274400	0.035500	0.897500	8
O	-1.276500	-0.032600	0.894900	8
O	-0.033600	1.257700	-0.839100	8
O	0.035400	-1.260400	-0.835100	8
H	1.211100	0.691200	1.631200	1
H	-1.214800	-0.685900	1.630700	1
Es	0.069554	-0.782021	-0.526890	99
Es	-0.195903	-1.101198	-0.886020	99
Es	-0.018097	0.001761	-0.115114	99
Es	-0.033590	1.257456	-0.838951	99
Es	-1.208869	-0.390188	1.250517	99
Es	0.018076	-0.089841	-0.029326	99
Es	0.200873	1.100134	-0.895509	99
Es	1.266210	-0.256533	1.016823	99
Es	-0.018027	1.460302	-0.608284	99
Es	0.017978	-1.463947	-0.605266	99
Es	-1.465695	-0.110590	0.707059	99
Es	-1.276162	-0.032790	0.895000	99
Es	0.242408	-1.155875	-0.999328	99
Es	-0.242609	1.153232	-0.997725	99
Es	0.813650	0.060271	0.583249	99
Es	1.465230	0.113055	0.708219	99
Es	1.274082	0.035724	0.897562	99
Es	1.205790	0.394067	1.251658	99
Es	-0.014402	0.001037	-0.115276	99
Es	0.029588	0.126646	-0.094298	99
Es	0.035392	-1.260173	-0.834964	99
Es	-1.269314	0.260238	1.012842	99
Es	-0.067677	0.779647	-0.530317	99
Es	-0.014173	-0.040618	-0.235800	99
Es	-0.815303	-0.058877	0.580382	99
32
Properties=species:S:1:pos:R:3:Z:I:1 energy=-698.1300910274538 field_type=dipole dipole="0.000000 0.000000 0.000000" charge=0
S	0.000200	-0.000200	-0.118100	16
O	1.274400	0.035500	0.897500	8
O	-1.276500	-0.032600	0.894900	8
O	-0.033600	1.257700	-0.839100	8
O	0.035400	-1.260400	-0.835100	8
H	1.211100	0.691200	1.631200	1
H	-1.214800	-0.685900	1.630700	1
Es	-0.021713	1.464712	-0.612398	99
Es	0.069491	-0.784109	-0.524021	99
Es	0.035393	-1.260141	-0.834933	99
Es	1.464778	0.111407	0.709454	99
Es	1.206686	0.395165	1.250708	99
Es	0.239102	-1.151043	-1.002323	99
Es	0.196384	1.097994	-0.876137	99
Es	-0.008172	0.120539	-0.084104	99
Es	-0.033584	1.257440	-0.838944	99
Es	0.001397	0.000173	-0.118006	99
Es	-0.193653	-1.099345	-0.881097	99
Es	-1.269074	0.260761	1.012980	99
Es	-0.230739	1.149873	-1.014366	99
Es	1.265245	-0.256739	1.017710	99
Es	0.092840	-0.023693	-0.109787	99
Es	-1.276165	-0.032821	0.894960	99
Es	-0.059428	-0.078475	-0.043148	99
Es	-0.025640	-0.019537	-0.234758	99
Es	-1.208865	-0.390369	1.250318	99
Es	-0.815577	-0.058999	0.581054	99
Es	1.274056	0.035706	0.897568	99
Es	0.019099	-1.468563	-0.610118	99
Es	-0.071402	0.780749	-0.528941	99
Es	0.814191	0.061032	0.582077	99
Es	-1.465642	-0.110796	0.706499	99
32
Properties=species:S:1:pos:R:3:Z:I:1 energy=-698.1300910274538 field_type=dipole dipole="0.000000 0.000000 0.000000" charge=0
S	0.000200	-0.000200	-0.118100	16
O	1.274400	0.035500	0.897500	8
O	-1.276500	-0.032600	0.894900	8
O	-0.033600	1.257700	-0.839100	8
O	0.035400	-1.260400	-0.835100	8
H	1.211100	0.691200	1.631200	1
H	-1.214800	-0.685900	1.630700	1
Es	-0.033595	1.257435	-0.838930	99
Es	0.235266	-1.153932	-1.008856	99
Es	0.071112	-0.782125	-0.526122	99
Es	0.019496	-1.466853	-0.607934	99
Es	1.206152	0.394531	1.251478	99
Es	1.265117	-0.257153	1.016907	99
Es	-1.209270	-0.390702	1.249876	99
Es	-0.092674	0.009539	-0.064941	99
Es	-0.073546	0.780270	-0.529803	99
Es	-0.191896	-1.100164	-0.874633	99
Es	0.035393	-1.260139	-0.834934	99
Es	-0.225471	1.149431	-1.018888	99
Es	1.274072	0.035727	0.897542	99
Es	1.465029	0.112090	0.709255	99
Es	0.001141	-0.000271	-0.118811	99
Es	-0.026209	-0.051528	-0.222421	99
Es	-0.025021	1.465192	-0.612515	99
Es	0.067683	-0.072755	-0.053025	99
Es	0.196698	1.098442	-0.870650	99
Es	-0.815726	-0.059404	0.580809	99
Es	-1.276168	-0.032848	0.894935	99
Es	-1.267507	0.260317	1.013715	99
Es	0.814576	0.061384	0.582319	99
Es	-1.466667	-0.109567	0.706474	99
Es	0.051022	0.114004	-0.130599	99
32
Properties=species:S:1:pos:R:3:Z:I:1 energy=-698.1300910274538 field_type=dipole dipole="0.000000 0.000000 0.000000" charge=0
S	0.000200	-0.000200	-0.118100	16
O	1.274400	0.035500	0.897500	8
O	-1.276500	-0.032600	0.894900	8
O	-0.033600	1.257700	-0.839100	8
O	0.035400	-1.260400	-0.835100	8
H	1.211100	0.691200	1.631200	1
H	-1.214800	-0.685900	1.630700	1
Es	0.240120	-1.154811	-1.002599	99
Es	0.035391	-1.260170	-0.834957	99
Es	-0.040664	-0.106624	-0.059608	99
Es	0.016433	-1.466164	-0.608462	99
Es	-0.033592	1.257452	-0.838944	99
Es	1.465080	0.111539	0.710443	99
Es	-1.267641	0.260758	1.013427	99
Es	-1.276183	-0.032828	0.894947	99
Es	1.205959	0.394552	1.251769	99
Es	-0.000206	0.000154	-0.118023	99
Es	-0.192825	-1.099368	-0.881585	99
Es	-0.017423	0.105728	-0.056208	99
Es	-1.466000	-0.109420	0.707498	99
Es	0.815457	0.062177	0.581159	99
Es	-0.236310	1.153102	-1.009334	99
Es	-1.209322	-0.390788	1.249995	99
Es	0.070328	-0.782687	-0.524890	99
Es	-0.015471	1.463340	-0.610949	99
Es	-0.816155	-0.059928	0.579976	99
Es	1.274078	0.035740	0.897553	99
Es	1.264341	-0.257414	1.016626	99
Es	0.194398	1.096898	-0.882072	99
Es	0.095896	-0.008635	-0.126470	99
Es	-0.070099	0.779944	-0.529548	99
Es	-0.036584	0.008375	-0.229499	99
32
Properties=species:S:1:pos:R:3:Z:I:1 energy=-698.1300910274538 field_type=dipole dipole="0.000000 0.000000 0.000000" charge=0
S	0.000200	-0.000200	-0.118100	16
O	1.274400	0.035500	0.897500	8
O	-1.276500	-0.032600	0.894900	8
O	-0.033600	1.257700	-0.839100	8
O	0.035400	-1.260400	-0.835100	8
H	1.211100	0.691200	1.631200	1
H	-1.214800	-0.685900	1.630700	1
Es	1.274095	0.035692	0.897554	99
Es	0.235025	-1.154513	-1.008579	99
Es	0.019413	-1.466619	-0.607775	99
Es	-0.068533	0.780451	-0.528038	99
Es	1.265372	-0.256992	1.017083	99
Es	-1.269112	0.260486	1.012985	99
Es	0.193316	1.098350	-0.876586	99
Es	-0.232557	1.149277	-1.013914	99
Es	-1.276187	-0.032912	0.894899	99
Es	-1.209090	-0.390672	1.250308	99
Es	-0.192987	-1.099518	-0.875012	99
Es	0.814386	0.061107	0.582355	99
Es	-0.090623	0.020036	-0.166369	99
Es	0.075300	-0.016445	-0.203184	99
Es	-0.815434	-0.058794	0.581042	99
Es	0.000681	-0.000059	-0.118278	99
Es	1.206355	0.394826	1.251279	99
Es	0.035395	-1.260096	-0.834944	99
Es	0.030586	0.100577	-0.048359	99
Es	-0.014940	-0.105123	-0.053643	99
Es	-1.465471	-0.110324	0.706592	99
Es	-0.033593	1.257457	-0.838950	99
Es	-0.019666	1.465227	-0.613328	99
Es	1.464710	0.111960	0.709277	99
Es	0.072566	-0.782460	-0.526172	99
32
Properties=species:S:1:pos:R:3:Z:I:1 energy=-698.1300910274538 field_type=dipole dipole="0.000000 0.000000 0.000000" charge=0
S	0.000200	-0.000200	-0.118100	16
O	1.274400	0.035500	0.897500	8
O	-1.276500	-0.032600	0.894900	8
O	-0.033600	1.257700	-0.839100	8
O	0.035400	-1.260400	-0.835100	8
H	1.211100	0.691200	1.631200	1
H	-1.214800	-0.685900	1.630700	1
Es	1.206038	0.394718	1.251616	99
Es	0.027460	0.072377	-0.021778	99
Es	-1.465873	-0.109545	0.707907	99
Es	0.196678	1.096138	-0.870372	99
Es	1.274081	0.035719	0.897549	99
Es	0.814544	0.060977	0.582437	99
Es	-1.267760	0.260769	1.012991	99
Es	1.264999	-0.256708	1.016867	99
Es	-1.209273	-0.390492	1.250403	99
Es	0.035392	-1.260143	-0.834941	99
Es	-0.225391	1.150583	-1.019129	99
Es	-0.192198	-1.098277	-0.892890	99
Es	0.012523	-1.468061	-0.610175	99
Es	-0.022576	1.465414	-0.613247	99
Es	-0.033613	1.257397	-0.838910	99
Es	0.246265	-1.153325	-0.990763	99
Es	0.024463	-0.122617	-0.100079	99
Es	0.000056	-0.000137	-0.118258	99
Es	-1.276181	-0.032820	0.894952	99
Es	-0.076130	0.781212	-0.529198	99
Es	-0.816209	-0.060147	0.579587	99
Es	0.042410	0.043860	-0.223755	99
Es	0.067387	-0.783396	-0.523712	99
Es	-0.093348	0.005539	-0.125920	99
Es	1.465262	0.111884	0.709062	99
32
Properties=species:S:1:pos:R:3:Z:I:1 energy=-698.1300910274538 field_type=dipole dipole="0.000000 0.000000 0.000000" charge=0
S	0.000200	-0.000200	-0.118100	16
O	1.274400	0.035500	0.897500	8
O	-1.276500	-0.032600	0.894900	8
O	-0.033600	1.257700	-0.839100	8
O	0.035400	-1.260400	-0.835100	8
H	1.211100	0.691200	1.631200	1
H	-1.214800	-0.685900	1.630700	1
Es	0.035392	-1.260160	-0.834952	99
Es	0.000141	-0.000126	-0.118104	99
Es	0.016794	-1.466936	-0.608767	99
Es	1.274087	0.035713	0.897550	99
Es	0.056131	-0.048655	-0.209649	99
Es	-0.033587	1.257433	-0.838922	99
Es	1.464669	0.110770	0.709726	99
Es	-0.078098	0.781349	-0.530147	99
Es	-1.268221	0.260869	1.013490	99
Es	1.264712	-0.256753	1.017819	99
Es	-0.099881	-0.012737	-0.138398	99
Es	-0.194049	-1.098511	-0.882377	99
Es	1.206891	0.395668	1.250594	99
Es	0.814571	0.061183	0.581832	99
Es	-1.465504	-0.109671	0.707009	99
Es	-1.276182	-0.032822	0.894952	99
Es	-0.023222	1.465252	-0.612424	99
Es	-1.209670	-0.390932	1.249785	99
Es	0.071849	-0.783135	-0.525047	99
Es	-0.815726	-0.059667	0.580587	99
Es	-0.223069	1.151197	-1.021742	99
Es	0.022341	0.123953	-0.108283	99
Es	0.022244	-0.063450	-0.015381	99
Es	0.239412	-1.154466	-1.001366	99
Es	0.196981	1.095556	-0.867539	99
32
Properties=species:S:1:pos:R:3:Z:I:1 energy=-698.1300910274538 field_type=dipole dipole="0.000000 0.000000 0.000000" charge=0
S	0.000200	-0.000200	-0.118100	16
O	1.274400	0.035500	0.897500	8
O	-1.276500	-0.032600	0.894900	8
O	-0.033600	1.257700	-0.839100	8
O	0.035400	-1.260400	-0.835100	8
H	1.211100	0.691200	1.631200	1
H	-1.214800	-0.685900	1.630700	1
Es	-1.276199	-0.032906	0.894906	99
Es	0.026731	0.119222	-0.152373	99
Es	-1.466075	-0.109043	0.706876	99
Es	-0.018398	1.465188	-0.613423	99
Es	0.072693	-0.784018	-0.524087	99
Es	1.274085	0.035714	0.897548	99
Es	-0.815860	-0.059627	0.580599	99
Es	-1.209710	-0.391062	1.250016	99
Es	1.465164	0.111236	0.710123	99
Es	0.027856	-0.085996	-0.200397	99
Es	-0.098174	-0.005663	-0.106655	99
Es	0.017253	-1.468521	-0.610492	99
Es	1.264348	-0.256960	1.016903	99
Es	0.044170	-0.028472	-0.011637	99
Es	-0.033591	1.257412	-0.838924	99
Es	0.814970	0.061858	0.581407	99
Es	-0.071141	0.781421	-0.527860	99
Es	0.195595	1.096460	-0.879255	99
Es	0.000411	-0.000108	-0.118734	99
Es	0.236458	-1.153012	-1.006024	99
Es	0.035394	-1.260126	-0.834919	99
Es	-0.233420	1.150273	-1.011358	99
Es	-0.192443	-1.097509	-0.877000	99
Es	-1.267460	0.260410	1.013432	99
Es	1.206350	0.394746	1.251570	99
32
Properties=species:S:1:pos:R:3:Z:I:1 energy=-698.1300910274538 field_type=dipole dipole="0.000000 0.000000 0.000000" charge=0
S	0.000200	-0.000200	-0.118100	16
O	1.274400	0.035500	0.897500	8
O	-1.276500	-0.032600	0.894900	8
O	-0.033600	1.257700	-0.839100	8
O	0.035400	-1.260400	-0.835100	8
H	1.211100	0.691200	1.631200	1
H	-1.214800	-0.685900	1.630700	1
Es	-1.268332	0.260590	1.013596	99
Es	-0.815736	-0.059573	0.579844	99
Es	-0.033595	1.257455	-0.838947	99
Es	-0.066652	0.780750	-0.528405	99
Es	0.200264	1.099458	-0.897223	99
Es	1.265705	-0.257846	1.016263	99
Es	0.023906	-0.005069	-0.121601	99
Es	1.464348	0.112742	0.709683	99
Es	0.020283	-1.465198	-0.606569	99
Es	0.067729	-0.782677	-0.525839	99
Es	0.243087	-1.153006	-0.996540	99
Es	0.021496	0.080783	-0.018603	99
Es	-1.465718	-0.109665	0.707606	99
Es	-1.209372	-0.390709	1.249805	99
Es	-0.018419	1.462921	-0.611205	99
Es	0.035392	-1.260145	-0.834938	99
Es	1.274075	0.035690	0.897561	99
Es	-1.276188	-0.032813	0.894954	99
Es	1.205935	0.394200	1.251862	99
Es	-0.029488	-0.124815	-0.098291	99
Es	-0.014808	0.048274	-0.233262	99
Es	-0.196945	-1.102207	-0.888537	99
Es	-0.242763	1.150165	-0.995057	99
Es	0.814893	0.061783	0.582143	99
Es	-0.000092	-0.000166	-0.118055	99
32
Properties=species:S:1:pos:R:3:Z:I:1 energy=-698.1300910274538 field_type=dipole dipole="0.000000 0.000000 0.000000" charge=0
S	0.000200	-0.000200	-0.118100	16
O	1.274400	0.035500	0.897500	8
O	-1.276500	-0.032600	0.894900	8
O	-0.033600	1.257700	-0.839100	8
O	0.035400	-1.260400	-0.835100	8
H	1.211100	0.691200	1.631200	1
H	-1.214800	-0.685900	1.630700	1
Es	-0.095182	-0.012652	-0.128858	99
Es	0.047452	-0.036351	-0.223346	99
Es	1.264317	-0.256923	1.017127	99
Es	1.464908	0.110862	0.710069	99
Es	0.814997	0.061724	0.581507	99
Es	1.274070	0.035717	0.897565	99
Es	-1.466205	-0.109135	0.707119	99
Es	-1.276194	-0.032831	0.894928	99
Es	-0.033592	1.257441	-0.838938	99
Es	0.000442	-0.000135	-0.118390	99
Es	0.193929	1.095140	-0.879053	99
Es	-0.016018	1.465986	-0.614079	99
Es	0.072833	-0.783327	-0.524902	99
Es	0.031799	-0.074462	-0.024942	99
Es	1.206623	0.395230	1.251280	99
Es	-0.816030	-0.059655	0.580284	99
Es	-1.267406	0.260402	1.013528	99
Es	0.014593	-1.467288	-0.609169	99
Es	-0.071929	0.781271	-0.527805	99
Es	0.239046	-1.155343	-1.002683	99
Es	0.016465	0.122584	-0.094249	99
Es	0.035390	-1.260095	-0.834914	99
Es	-0.192525	-1.097122	-0.880861	99
Es	-0.233303	1.150909	-1.010952	99
Es	-1.209473	-0.391026	1.249978	99
32
Properties=species:S:1:pos:R:3:Z:I:1 energy=-698.1300910274538 field_type=dipole dipole="0.000000 0.000000 0.000000" charge=0
S	0.000200	-0.000200	-0.118100	16
O	1.274400	0.035500	0.897500	8
O	-1.276500	-0.032600	0.894900	8
O	-0.033600	1.257700	-0.839100	8
O	0.035400	-1.260400	-0.835100	8
H	1.211100	0.691200	1.631200	1
H	-1.214800	-0.685900	1.630700	1
Es	-0.070227	0.779408	-0.530218	99
Es	-0.193328	-1.100715	-0.872832	99
Es	0.814923	0.061606	0.581936	99
Es	-1.268264	0.261395	1.013216	99
Es	0.035393	-1.260142	-0.834938	99
Es	0.194085	1.097620	-0.879225	99
Es	1.265953	-0.257847	1.016390	99
Es	-0.089776	-0.070348	-0.155353	99
Es	0.022476	-1.467307	-0.608532	99