32
Properties=species:S:1:pos:R:3:Z:I:1 energy=-698.1300910274539 field_type=dipole dipole="0.000000 0.000000 0.000000" charge=0
S	0.000200	-0.000200	-0.118100	16
O	1.274400	0.035500	0.897500	8
O	-1.276500	-0.032600	0.894900	8
O	-0.033600	1.257700	-0.839100	8
O	0.035400	-1.260400	-0.835100	8
H	1.211100	0.691200	1.631200	1
H	-1.214800	-0.685900	1.630700	1
Es	0.207103	-1.154745	-1.038474	99
Es	-0.239234	1.154142	-1.010948	99
Es	1.274082	0.035714	0.897550	99
Es	1.266258	-0.256084	1.015999	99
Es	-0.033593	1.257448	-0.838941	99
Es	-0.069245	0.781364	-0.529673	99
Es	-0.008468	-0.003795	-0.141499	99
Es	0.034446	-1.465137	-0.607862	99
Es	0.033178	-0.121964	-0.081822	99
Es	-0.192041	-1.101082	-0.842533	99
Es	-0.011880	1.462406	-0.609554	99
Es	-1.208031	-0.390295	1.250187	99
Es	-1.265630	0.260170	1.013809	99
Es	0.035394	-1.260139	-0.834936	99
Es	0.084447	-0.782100	-0.528721	99
Es	-0.816783	-0.059763	0.580716	99
Es	0.089224	0.090679	-0.136451	99
Es	0.814319	0.060660	0.580816	99
Es	-1.276193	-0.032810	0.894951	99
Es	-1.468645	-0.109502	0.706157	99
Es	0.193036	1.095357	-0.881751	99
Es	-0.096819	0.040517	-0.067992	99
Es	1.463776	0.111366	0.710916	99
Es	1.206448	0.394961	1.252328	99
Es	-0.016142	-0.006449	-0.162025	99
