32
Properties=species:S:1:pos:R:3:Z:I:1 energy=-698.1300910273354 field_type=dipole dipole="0.000000 0.000000 0.000000" charge=0
S	0.000200	-0.000200	-0.118100	16
O	1.274400	0.035500	0.897500	8
O	-1.276500	-0.032600	0.894900	8
O	-0.033600	1.257700	-0.839100	8
O	0.035400	-1.260400	-0.835100	8
H	1.211100	0.691200	1.631200	1
H	-1.214800	-0.685900	1.630700	1
Es	1.483572	0.109661	0.703985	99
Es	-0.065147	0.789762	-0.533354	99
Es	0.277766	-1.173056	-0.979319	99
Es	-0.226692	-1.112200	-0.922286	99
Es	0.035393	-1.260112	-0.834908	99
Es	0.806700	0.055787	0.583843	99
Es	-0.018155	1.421694	-0.589667	99
Es	0.017299	-1.425181	-0.587883	99
Es	-0.033604	1.257444	-0.838989	99
Es	-0.274689	1.170618	-0.984532	99
Es	-0.011162	0.081322	-0.204911	99
Es	-1.483229	-0.108134	0.700048	99
Es	-0.806963	-0.052805	0.583742	99
Es	0.230329	1.111078	-0.924269	99
Es	0.065879	-0.792520	-0.528037	99
Es	-1.262243	0.244101	1.013592	99
Es	1.274084	0.035676	0.897495	99
Es	1.257826	-0.240559	1.017203	99
Es	-0.014280	-0.108775	-0.162763	99
Es	1.203013	0.385986	1.254913	99
Es	-1.276225	-0.032763	0.894926	99
Es	0.107650	0.007968	-0.069296	99
Es	-0.081393	0.018689	-0.034640	99
Es	0.000180	-0.000200	-0.118089	99
Es	-1.206902	-0.382562	1.253439	99
32
Properties=species:S:1:pos:R:3:Z:I:1 energy=-698.1300910273354 field_type=dipole dipole="0.000000 0.000000 0.000000" charge=0
S	0.000200	-0.000200	-0.118100	16
O	1.274400	0.035500	0.897500	8
O	-1.276500	-0.032600	0.894900	8
O	-0.033600	1.257700	-0.839100	8
O	0.035400	-1.260400	-0.835100	8
H	1.211100	0.691200	1.631200	1
H	-1.214800	-0.685900	1.630700	1
Es	-0.033590	1.257457	-0.838949	99
Es	-1.208268	-0.387289	1.251216	99
Es	0.035389	-1.260203	-0.834976	99
Es	1.472739	0.111841	0.705188	99
Es	0.213430	1.106875	-0.914637	99
Es	0.069041	-0.786153	-0.528639	99
Es	-0.062070	0.783476	-0.530631	99
Es	0.809622	0.057550	0.584252	99
Es	-0.260181	1.158184	-0.987436	99
Es	-0.033529	-0.116288	-0.146293	99
Es	-0.073622	0.049950	-0.037497	99
Es	0.000215	-0.000157	-0.118005	99
Es	0.002722	0.065647	-0.213061	99
Es	-0.215763	-1.108607	-0.901410	99
Es	0.105250	-0.000133	-0.074894	99
Es	-0.810965	-0.055566	0.582647	99
Es	-0.018779	1.444691	-0.599166	99
Es	1.205246	0.391153	1.252253	99
Es	0.254867	-1.160795	-0.992637	99
Es	-1.472329	-0.110550	0.702941	99
Es	1.274097	0.035741	0.897548	99
Es	-1.267691	0.254076	1.013995	99
Es	1.263374	-0.249730	1.018243	99
Es	-1.276213	-0.032838	0.894954	99
Es	0.026014	-1.447411	-0.594760	99
32
Properties=species:S:1:pos:R:3:Z:I:1 energy=-698.1300910273354 field_type=dipole dipole="0.000000 0.000000 0.000000" charge=0
S	0.000200	-0.000200	-0.118100	16
O	1.274400	0.035500	0.897500	8
O	-1.276500	-0.032600	0.894900	8
O	-0.033600	1.257700	-0.839100	8
O	0.035400	-1.260400	-0.835100	8
H	1.211100	0.691200	1.631200	1
H	-1.214800	-0.685900	1.630700	1
Es	-0.033589	1.257468	-0.838964	99
Es	0.000089	-0.000252	-0.118136	99
Es	0.208822	1.104000	-0.905469	99
Es	-1.267495	0.256268	1.013853	99
Es	0.097582	-0.018193	-0.165700	99
Es	-1.470587	-0.110276	0.704093	99
Es	0.255772	-1.156388	-0.986732	99
Es	-0.020480	1.452742	-0.604125	99
Es	-1.276136	-0.032831	0.894995	99
Es	0.811913	0.059372	0.583197	99
Es	-0.013962	0.122066	-0.100811	99
Es	0.035454	-1.260063	-0.834844	99
Es	1.204972	0.392127	1.252020	99
Es	1.274070	0.035760	0.897534	99
Es	-1.208810	-0.388112	1.250879	99
Es	-0.812371	-0.057256	0.581973	99
Es	0.063874	-0.784979	-0.525382	99
Es	0.021048	-1.454798	-0.600807	99
Es	1.469529	0.112747	0.707115	99
Es	-0.206651	-1.106943	-0.904712	99
Es	-0.079800	-0.040936	-0.191537	99
Es	-0.002900	-0.063698	-0.013625	99
Es	-0.063908	0.782641	-0.529355	99
Es	-0.251966	1.153887	-0.992852	99
Es	1.264537	-0.253434	1.017635	99
32
Properties=species:S:1:pos:R:3:Z:I:1 energy=-698.1300910273354 field_type=dipole dipole="0.000000 0.000000 0.000000" charge=0
S	0.000200	-0.000200	-0.118100	16
O	1.274400	0.035500	0.897500	8
O	-1.276500	-0.032600	0.894900	8
O	-0.033600	1.257700	-0.839100	8
O	0.035400	-1.260400	-0.835100	8
H	1.211100	0.691200	1.631200	1
H	-1.214800	-0.685900	1.630700	1
Es	1.205729	0.393656	1.251426	99
Es	1.467572	0.111781	0.708368	99
Es	-1.208982	-0.389431	1.250842	99
Es	0.812506	0.059455	0.582304	99
Es	1.274084	0.035719	0.897574	99
Es	-0.814469	-0.058750	0.579879	99
Es	0.035385	-1.260127	-0.834918	99
Es	-0.006712	-0.100026	-0.189934	99
Es	0.046259	0.096740	-0.176170	99
Es	-1.266030	0.257322	1.013740	99
Es	-1.276166	-0.032797	0.894970	99
Es	-0.013831	1.458311	-0.609714	99
Es	-0.253692	1.151546	-0.987029	99
Es	0.015953	-1.462286	-0.607739	99
Es	0.000155	0.000444	-0.117979	99
Es	0.063091	-0.786962	-0.521399	99
Es	0.203194	1.099016	-0.909181	99
Es	-0.100733	0.024683	-0.084840	99
Es	-0.033610	1.257568	-0.838982	99
Es	-1.469715	-0.108531	0.706392	99
Es	1.265079	-0.254052	1.017868	99
Es	0.255675	-1.152111	-0.982376	99
Es	0.062013	-0.022836	-0.020860	99
Es	-0.063182	0.784275	-0.525934	99
Es	-0.200566	-1.101685	-0.906063	99
32
Properties=species:S:1:pos:R:3:Z:I:1 energy=-698.1300910273354 field_type=dipole dipole="0.000000 0.000000 0.000000" charge=0
S	0.000200	-0.000200	-0.118100	16
O	1.274400	0.035500	0.897500	8
O	-1.276500	-0.032600	0.894900	8
O	-0.033600	1.257700	-0.839100	8
O	0.035400	-1.260400	-0.835100	8
H	1.211100	0.691200	1.631200	1
H	-1.214800	-0.685900	1.630700	1
Es	0.069990	-0.783700	-0.527525	99
Es	0.000895	-0.001208	-0.113518	99
Es	-0.203678	-1.105389	-0.880182	99
Es	0.087942	-0.088359	-0.153091	99
Es	0.203984	1.095981	-0.875577	99
Es	-1.266353	0.257599	1.012306	99
Es	-1.470152	-0.109998	0.705737	99
Es	0.027355	-1.458355	-0.601520	99
Es	0.035399	-1.260168	-0.834957	99
Es	-0.815149	-0.058418	0.580601	99
Es	0.028705	0.128082	-0.097598	99
Es	-0.020911	1.457405	-0.610047	99
Es	0.240362	-1.155527	-1.008360	99
Es	-1.276156	-0.032831	0.894956	99
Es	0.000646	-0.000784	-0.115236	99
Es	1.466251	0.113417	0.709781	99
Es	1.205181	0.392459	1.252285	99
Es	-1.207489	-0.388572	1.252267	99
Es	-0.233498	1.155446	-1.019246	99
Es	-0.117208	-0.038721	-0.110327	99
Es	1.266192	-0.255899	1.016536	99
Es	0.813230	0.060881	0.581416	99
Es	-0.077004	0.784437	-0.527115	99
Es	1.274065	0.035710	0.897571	99
Es	-0.033593	1.257432	-0.838913	99
32
Properties=species:S:1:pos:R:3:Z:I:1 energy=-698.1300910273354 field_type=dipole dipole="0.000000 0.000000 0.000000" charge=0
S	0.000200	-0.000200	-0.118100	16
O	1.274400	0.035500	0.897500	8
O	-1.276500	-0.032600	0.894900	8
O	-0.033600	1.257700	-0.839100	8
O	0.035400	-1.260400	-0.835100	8
H	1.211100	0.691200	1.631200	1
H	-1.214800	-0.685900	1.630700	1
Es	0.813890	0.061087	0.582197	99
Es	-0.070636	0.783252	-0.527253	99
Es	-0.008480	1.461787	-0.611197	99
Es	-1.276184	-0.032813	0.894951	99
Es	-0.814837	-0.058829	0.580405	99
Es	0.071400	-0.781834	-0.528278	99
Es	1.205838	0.393620	1.251830	99
Es	-1.208186	-0.389044	1.250719	99
Es	1.466797	0.112031	0.708839	99
Es	-0.246201	1.155115	-0.996787	99
Es	0.035391	-1.260132	-0.834932	99
Es	-0.002007	-0.071502	-0.017051	99
Es	1.274078	0.035710	0.897545	99
Es	1.264364	-0.255870	1.017104	99
Es	-0.059306	0.103126	-0.101267	99
Es	0.197832	1.093135	-0.896542	99
Es	-1.466862	-0.111418	0.706784	99
Es	-1.269288	0.259897	1.012957	99
Es	0.102866	0.025738	-0.137641	99
Es	0.243385	-1.159040	-0.999869	99
Es	0.000223	-0.000200	-0.118082	99
Es	-0.040763	-0.058189	-0.215773	99
Es	-0.033589	1.257473	-0.838992	99
Es	0.020653	-1.459062	-0.601664	99
Es	-0.201372	-1.103117	-0.887760	99
32
Properties=species:S:1:pos:R:3:Z:I:1 energy=-698.1300910273354 field_type=dipole dipole="0.000000 0.000000 0.000000" charge=0
S	0.000200	-0.000200	-0.118100	16
O	1.274400	0.035500	0.897500	8
O	-1.276500	-0.032600	0.894900	8
O	-0.033600	1.257700	-0.839100	8
O	0.035400	-1.260400	-0.835100	8
H	1.211100	0.691200	1.631200	1
H	-1.214800	-0.685900	1.630700	1
Es	0.000199	-0.000200	-0.118090	99
Es	-1.209517	-0.390486	1.249867	99
Es	0.235190	-1.154686	-1.009611	99
Es	1.274084	0.035715	0.897546	99
Es	1.206200	0.394797	1.250419	99
Es	1.261493	-0.254912	1.019056	99
Es	-1.276169	-0.032815	0.894955	99
Es	0.072996	-0.783017	-0.527225	99
Es	-0.020618	1.462156	-0.611305	99
Es	0.814384	0.061298	0.581913	99
Es	-0.033462	1.257497	-0.838989	99
Es	0.089944	0.018980	-0.180208	99
Es	-0.199650	-1.102369	-0.875943	99
Es	0.025504	-1.463023	-0.604750	99
Es	1.468799	0.109671	0.708588	99
Es	-0.077434	0.086519	-0.140752	99
Es	-0.814507	-0.058420	0.581330	99
Es	0.034523	0.006434	-0.004776	99
Es	0.035392	-1.260120	-0.834926	99
Es	-0.068655	0.782481	-0.527571	99
Es	0.200541	1.098672	-0.886591	99
Es	-0.046182	-0.112717	-0.145985	99
Es	-1.468318	-0.108911	0.705347	99
Es	-0.238885	1.149946	-1.006349	99
Es	-1.266847	0.258432	1.014291	99
32
Properties=species:S:1:pos:R:3:Z:I:1 energy=-698.1300910273354 field_type=dipole dipole="0.000000 0.000000 0.000000" charge=0
S	0.000200	-0.000200	-0.118100	16
O	1.274400	0.035500	0.897500	8
O	-1.276500	-0.032600	0.894900	8
O	-0.033600	1.257700	-0.839100	8
O	0.035400	-1.260400	-0.835100	8
H	1.211100	0.691200	1.631200	1
H	-1.214800	-0.685900	1.630700	1
Es	1.206191	0.394232	1.251653	99
Es	0.022879	-1.464911	-0.607059	99
Es	0.076988	-0.021514	-0.039906	99
Es	1.465496	0.111890	0.709365	99
Es	-0.815144	-0.058755	0.580696	99
Es	0.035368	-1.260197	-0.835015	99
Es	0.011762	0.117594	-0.155429	99
Es	1.274048	0.035757	0.897524	99
Es	-0.097414	-0.012196	-0.067148	99
Es	-1.276180	-0.032809	0.894949	99
Es	-0.015615	1.462510	-0.612889	99
Es	-1.467423	-0.109923	0.706308	99
Es	-0.198979	-1.101018	-0.881330	99
Es	0.238802	-1.152826	-1.003870	99
Es	0.199735	1.095770	-0.889915	99
Es	-1.267795	0.259364	1.013535	99
Es	-0.241196	1.151766	-1.003020	99
Es	-0.033621	1.257395	-0.838897	99
Es	0.813741	0.060714	0.581986	99
Es	0.009181	-0.084220	-0.209649	99
Es	1.265466	-0.256020	1.017011	99
Es	-0.070322	0.783302	-0.526096	99
Es	0.000464	-0.000677	-0.117649	99
Es	-1.208788	-0.390092	1.250343	99
Es	0.071362	-0.784218	-0.525254	99
32
Properties=species:S:1:pos:R:3:Z:I:1 energy=-698.1300910273354 field_type=dipole dipole="0.000000 0.000000 0.000000" charge=0
S	0.000200	-0.000200	-0.118100	16
O	1.274400	0.035500	0.897500	8
O	-1.276500	-0.032600	0.894900	8
O	-0.033600	1.257700	-0.839100	8
O	0.035400	-1.260400	-0.835100	8
H	1.211100	0.691200	1.631200	1
H	-1.214800	-0.685900	1.630700	1
Es	-0.033613	1.257514	-0.838992	99
Es	-1.276173	-0.032868	0.894940	99
Es	-0.197430	-1.099547	-0.887363	99
Es	0.000195	-0.000189	-0.118150	99
Es	0.055313	-0.046730	-0.024657	99
Es	0.813600	0.060288	0.582791	99
Es	-0.101733	-0.028100	-0.107992	99
Es	0.007413	0.126463	-0.120488	99
Es	1.465614	0.112521	0.708508	99
Es	1.205908	0.394213	1.251293	99
Es	-0.228915	1.155696	-1.018383	99
Es	0.071549	-0.783203	-0.526369	99
Es	0.035404	-1.260113	-0.834915	99
Es	-1.268180	0.259155	1.014719	99
Es	0.039798	-0.052458	-0.218508	99
Es	-0.814453	-0.058303	0.580955	99
Es	-0.076501	0.779970	-0.531908	99
Es	1.274084	0.035744	0.897553	99
Es	0.244259	-1.158181	-0.999232	99
Es	-0.022126	1.459877	-0.607740	99
Es	-1.209758	-0.391029	1.249075	99
Es	1.265784	-0.256210	1.017337	99
Es	-1.466794	-0.109165	0.706107	99
Es	0.015650	-1.462154	-0.604603	99
Es	0.200113	1.097727	-0.873734	99
32
Properties=species:S:1:pos:R:3:Z:I:1 energy=-698.1300910273354 field_type=dipole dipole="0.000000 0.000000 0.000000" charge=0
S	0.000200	-0.000200	-0.118100	16
O	1.274400	0.035500	0.897500	8
O	-1.276500	-0.032600	0.894900	8
O	-0.033600	1.257700	-0.839100	8
O	0.035400	-1.260400	-0.835100	8
H	1.211100	0.691200	1.631200	1
H	-1.214800	-0.685900	1.630700	1
Es	0.064520	-0.008341	-0.214061	99
Es	1.263919	-0.256824	1.016617	99
Es	0.052672	0.077078	-0.039409	99
Es	-0.815558	-0.059145	0.580328	99
Es	0.814888	0.062431	0.580907	99
Es	-0.025914	-0.112804	-0.068270	99
Es	1.274063	0.035707	0.897546	99
Es	0.019356	-1.466588	-0.609212	99
Es	0.199999	1.098661	-0.886704	99
Es	-1.269957	0.260962	1.012311	99
Es	0.000817	-0.000874	-0.118864	99
Es	-1.465120	-0.111452	0.707379	99
Es	-1.276209	-0.032816	0.894949	99
Es	1.206493	0.394170	1.251960	99
Es	0.240221	-1.152856	-1.000390	99
Es	-1.208474	-0.389747	1.250863	99
Es	-0.019732	1.461946	-0.611216	99
Es	-0.068936	0.781867	-0.527787	99
Es	0.071374	-0.784400	-0.523924	99
Es	-0.033647	1.257460	-0.838992	99
Es	0.035391	-1.260135	-0.834935	99
Es	-0.238801	1.150802	-1.006126	99
Es	-0.091048	0.043950	-0.149220	99
Es	-0.196881	-1.099219	-0.884023	99
Es	1.465571	0.111087	0.710518	99
32
Properties=species:S:1:pos:R:3:Z:I:1 energy=-698.1300910273354 field_type=dipole dipole="0.000000 0.000000 0.000000" charge=0
S	0.000200	-0.000200	-0.118100	16
O	1.274400	0.035500	0.897500	8
O	-1.276500	-0.032600	0.894900	8
O	-0.033600	1.257700	-0.839100	8
O	0.035400	-1.260400	-0.835100	8
H	1.211100	0.691200	1.631200	1
H	-1.214800	-0.685900	1.630700	1
Es	-1.276196	-0.032840	0.894942	99
Es	-0.005400	-0.000031	-0.118758	99
Es	0.812726	0.060386	0.582968	99
Es	-0.004355	0.056093	-0.002996	99
Es	1.467220	0.110709	0.707931	99
Es	1.274101	0.035800	0.897474	99
Es	1.264019	-0.254661	1.018181	99
Es	-1.468815	-0.108637	0.704563	99
Es	0.022912	-1.463264	-0.605554	99
Es	-0.033591	1.257439	-0.838929	99
Es	-0.020778	1.460689	-0.609043	99
Es	-0.202746	-1.102239	-0.891731	99
Es	-1.209629	-0.390885	1.249139	99
Es	0.024307	0.072805	-0.219772	99
Es	-1.266700	0.257801	1.015221	99
Es	-0.067399	0.780521	-0.529542	99
Es	-0.241195	1.151381	-1.000516	99
Es	1.206930	0.394365	1.250941	99
Es	-0.814036	-0.057654	0.581913	99
Es	0.010022	-0.129799	-0.126945	99
Es	-0.023571	-0.000057	-0.121335	99
Es	0.035381	-1.260124	-0.834926	99
Es	0.071613	-0.783228	-0.526166	99
Es	0.201943	1.100722	-0.892777	99
Es	0.242245	-1.154372	-0.994035	99
32
Properties=species:S:1:pos:R:3:Z:I:1 energy=-698.1300910273354 field_type=dipole dipole="0.000000 0.000000 0.000000" charge=0
S	0.000200	-0.000200	-0.118100	16
O	1.274400	0.035500	0.897500	8
O	-1.276500	-0.032600	0.894900	8
O	-0.033600	1.257700	-0.839100	8
O	0.035400	-1.260400	-0.835100	8
H	1.211100	0.691200	1.631200	1
H	-1.214800	-0.685900	1.630700	1
Es	-0.072712	0.782388	-0.527782	99
Es	-0.238523	1.153231	-1.005411	99
Es	-1.209980	-0.391000	1.249696	99
Es	-0.033589	1.257449	-0.838946	99
Es	0.083445	0.030980	-0.041301	99
Es	-0.815445	-0.059590	0.580113	99
Es	0.074525	-0.781939	-0.528051	99
Es	-1.266956	0.259709	1.014026	99
Es	0.035391	-1.260147	-0.834943	99
Es	0.015319	-0.118787	-0.158533	99
Es	0.000188	-0.000202	-0.118080	99
Es	0.024213	-1.464194	-0.605116	99
Es	1.464843	0.110958	0.710173	99
Es	-1.276209	-0.032799	0.894946	99
Es	1.265639	-0.255724	1.018046	99
Es	0.198937	1.094917	-0.886819	99
Es	-0.196319	-1.101326	-0.871069	99
Es	0.231610	-1.155612	-1.013276	99
Es	-0.015122	1.462753	-0.611891	99
Es	-0.091188	0.005382	-0.064447	99
Es	-1.466744	-0.108522	0.707031	99
Es	1.206699	0.395297	1.250590	99
Es	0.813697	0.060360	0.581167	99
Es	1.274057	0.035697	0.897561	99
Es	-0.006767	0.081640	-0.207439	99
32
Properties=species:S:1:pos:R:3:Z:I:1 energy=-698.1300910273354 field_type=dipole dipole="0.000000 0.000000 0.000000" charge=0
S	0.000200	-0.000200	-0.118100	16
O	1.274400	0.035500	0.897500	8
O	-1.276500	-0.032600	0.894900	8
O	-0.033600	1.257700	-0.839100	8
O	0.035400	-1.260400	-0.835100	8
H	1.211100	0.691200	1.631200	1
H	-1.214800	-0.685900	1.630700	1
Es	-0.033592	1.257437	-0.838934	99
Es	0.070062	-0.782582	-0.526183	99
Es	-1.210050	-0.391628	1.249152	99
Es	1.206539	0.394740	1.250950	99
Es	-0.073859	0.780819	-0.529520	99
Es	-1.276172	-0.032826	0.894956	99
Es	0.814093	0.061192	0.581546	99
Es	1.464408	0.111827	0.710052	99
Es	-0.230910	1.152725	-1.015424	99
Es	1.274095	0.035723	0.897562	99
Es	1.265821	-0.256907	1.017398	99
Es	-0.815613	-0.059201	0.581154	99
Es	-1.265522	0.259185	1.014870	99
Es	0.000374	-0.000203	-0.118041	99
Es	-0.033773	0.113923	-0.082811	99
Es	0.238680	-1.153848	-1.004335	99
Es	-0.079781	-0.082631	-0.084894	99
Es	-1.467987	-0.107757	0.705670	99
Es	0.091533	-0.024547	-0.067320	99
Es	0.022685	-0.007542	-0.236729	99
Es	0.197485	1.096951	-0.875886	99
Es	0.035389	-1.260149	-0.834948	99
Es	-0.195645	-1.101378	-0.880368	99
Es	0.020899	-1.465247	-0.606644	99
Es	-0.020154	1.462844	-0.611028	99
32
Properties=species:S:1:pos:R:3:Z:I:1 energy=-698.1300910273354 field_type=dipole dipole="0.000000 0.000000 0.000000" charge=0
S	0.000200	-0.000200	-0.118100	16
O	1.274400	0.035500	0.897500	8
O	-1.276500	-0.032600	0.894900	8
O	-0.033600	1.257700	-0.839100	8
O	0.035400	-1.260400	-0.835100	8
H	1.211100	0.691200	1.631200	1
H	-1.214800	-0.685900	1.630700	1
Es	-0.033591	1.257451	-0.838945	99
Es	-0.231947	1.153537	-1.012794	99
Es	0.000704	-0.000052	-0.118181	99
Es	-0.075536	0.781304	-0.530531	99
Es	-1.276179	-0.032807	0.894949	99
Es	0.813783	0.060463	0.583030	99
Es	-1.209526	-0.390777	1.250003	99
Es	1.464311	0.112728	0.708672	99
Es	-0.021053	1.461824	-0.609505	99
Es	1.274078	0.035734	0.897554	99
Es	-0.096203	0.009592	-0.125397	99
Es	-0.198472	-1.099435	-0.881103	99
Es	-0.815852	-0.059746	0.579634	99
Es	-1.267041	0.259891	1.013703	99
Es	0.038720	0.008192	-0.230491	99
Es	0.074050	-0.783649	-0.525996	99
Es	1.206251	0.394649	1.251197	99
Es	0.237240	-1.154298	-1.003159	99
Es	0.021302	-1.465641	-0.607189	99
Es	0.019506	-0.114275	-0.068306	99
Es	0.201092	1.096648	-0.879029	99
Es	0.038237	0.095539	-0.047418	99
Es	0.035351	-1.260193	-0.835011	99
Es	-1.466755	-0.108758	0.707509	99
Es	1.266538	-0.257001	1.017047	99
32
Properties=species:S:1:pos:R:3:Z:I:1 energy=-698.1300910273354 field_type=dipole dipole="0.000000 0.000000 0.000000" charge=0
S	0.000200	-0.000200	-0.118100	16
O	1.274400	0.035500	0.897500	8
O	-1.276500	-0.032600	0.894900	8
O	-0.033600	1.257700	-0.839100	8
O	0.035400	-1.260400	-0.835100	8
H	1.211100	0.691200	1.631200	1
H	-1.214800	-0.685900	1.630700	1
Es	-1.268479	0.260999	1.012999	99
Es	-1.208507	-0.389126	1.250475	99
Es	0.035384	-1.260108	-0.834910	99
Es	-1.276168	-0.032814	0.894951	99
Es	0.228032	-1.155887	-1.021738	99
Es	-0.228184	1.150936	-1.016491	99
Es	0.200785	1.097705	-0.874444	99
Es	-0.024910	1.463350	-0.610002	99
Es	-0.192577	-1.101305	-0.862957	99
Es	-0.815323	-0.059697	0.581388	99
Es	-0.093015	-0.027409	-0.185627	99
Es	0.024024	-1.463593	-0.606644	99
Es	0.065694	-0.102374	-0.081634	99
Es	0.074600	-0.782320	-0.526250	99
Es	-0.075131	0.781365	-0.531019	99
Es	0.814541	0.060789	0.581841	99
Es	-0.022069	0.014554	-0.080715	99
Es	1.465440	0.112130	0.709568	99
Es	-1.466833	-0.111532	0.706024	99
Es	1.274071	0.035719	0.897548	99
Es	1.265315	-0.256091	1.015642	99
Es	1.205560	0.394020	1.252941	99
Es	-0.016067	0.012655	-0.081881	99
Es	0.066434	0.101565	-0.159965	99
Es	-0.033611	1.257390	-0.838855	99
32
Properties=species:S:1:pos:R:3:Z:I:1 energy=-698.1300910273354 field_type=dipole dipole="0.000000 0.000000 0.000000" charge=0
S	0.000200	-0.000200	-0.118100	16
O	1.274400	0.035500	0.897500	8
O	-1.276500	-0.032600	0.894900	8
O	-0.033600	1.257700	-0.839100	8
O	0.035400	-1.260400	-0.835100	8
H	1.211100	0.691200	1.631200	1
H	-1.214800	-0.685900	1.630700	1
Es	-0.012630	0.009101	0.002971	99
Es	-1.276199	-0.032807	0.894956	99
Es	1.206180	0.393724	1.251727	99
Es	0.812998	0.060329	0.583248	99
Es	-0.017392	1.465973	-0.614653	99
Es	-1.209455	-0.390907	1.249973	99
Es	-0.238237	1.148704	-1.002622	99
Es	-1.466000	-0.110047	0.705745	99
Es	0.022032	-1.462693	-0.604177	99
Es	0.196593	1.096888	-0.887941	99
Es	-0.068375	0.781725	-0.526654	99
Es	-0.814671	-0.057956	0.581549	99
Es	0.035393	-1.260125	-0.834917	99
Es	0.231394	-1.158841	-1.013609	99
Es	-0.033593	1.257455	-0.838950	99
Es	1.268009	-0.257139	1.016351	99
Es	0.077407	-0.781582	-0.528715	99
Es	-0.050761	0.093911	-0.176779	99
Es	-0.196881	-1.099980	-0.871034	99
Es	-1.269010	0.259505	1.013576	99
Es	0.096363	0.008974	-0.134004	99
Es	1.274082	0.035721	0.897544	99
Es	1.463684	0.113974	0.708655	99
Es	0.000476	-0.000181	-0.118080	99
Es	-0.032401	-0.112808	-0.163915	99
32
Properties=species:S:1:pos:R:3:Z:I:1 energy=-698.1300910273354 field_type=dipole dipole="0.000000 0.000000 0.000000" charge=0
S	0.000200	-0.000200	-0.118100	16
O	1.274400	0.035500	0.897500	8
O	-1.276500	-0.032600	0.894900	8
O	-0.033600	1.257700	-0.839100	8
O	0.035400	-1.260400	-0.835100	8
H	1.211100	0.691200	1.631200	1
H	-1.214800	-0.685900	1.630700	1
Es	0.035388	-1.260158	-0.834952	99
Es	-0.000465	-0.000711	-0.117661	99
Es	0.201092	1.097695	-0.869094	99
Es	0.079299	-0.050907	-0.048121	99
Es	0.813766	0.060568	0.583354	99
Es	-0.197117	-1.100642	-0.873507	99
Es	-1.276179	-0.032811	0.894958	99
Es	-1.209390	-0.390805	1.249578	99
Es	-0.078870	0.780288	-0.531777	99
Es	0.033023	0.116982	-0.146001	99
Es	0.023044	-1.464016	-0.604221	99
Es	1.266709	-0.257187	1.016493	99
Es	1.206137	0.394195	1.251688	99
Es	-0.033631	1.257363	-0.838929	99
Es	-0.089608	0.003778	-0.061659	99
Es	-0.222746	1.152729	-1.020862	99
Es	0.075818	-0.781452	-0.529154	99
Es	1.464271	0.113297	0.708393	99
Es	-0.021271	-0.070156	-0.216351	99
Es	-1.465809	-0.110308	0.705993	99
Es	-0.814905	-0.058469	0.581423	99
Es	-0.026873	1.462711	-0.610106	99
Es	0.232310	-1.156949	-1.010633	99
Es	1.274092	0.035682	0.897559	99
Es	-1.269079	0.260201	1.013835	99
32
Properties=species:S:1:pos:R:3:Z:I:1 energy=-698.1300910273354 field_type=dipole dipole="0.000000 0.000000 0.000000" charge=0
S	0.000200	-0.000200	-0.118100	16
O	1.274400	0.035500	0.897500	8
O	-1.276500	-0.032600	0.894900	8
O	-0.033600	1.257700	-0.839100	8
O	0.035400	-1.260400	-0.835100	8
H	1.211100	0.691200	1.631200	1
H	-1.214800	-0.685900	1.630700	1
Es	1.274088	0.035750	0.897520	99
Es	1.464022	0.112672	0.709343	99
Es	-1.266146	0.260030	1.014485	99
Es	0.234446	-1.151492	-1.005855	99
Es	0.091426	-0.002237	-0.082720	99
Es	0.073372	-0.784106	-0.524840	99
Es	-0.051194	-0.110402	-0.087747	99
Es	0.000617	-0.000229	-0.117987	99
Es	0.813893	0.060982	0.582484	99
Es	-0.033591	1.257502	-0.838987	99
Es	0.035397	-1.260127	-0.834931	99
Es	-0.053079	0.096777	-0.064138	99
Es	0.013289	0.015105	-0.237215	99
Es	0.196031	1.095109	-0.878448	99
Es	-0.074277	0.781016	-0.529114	99
Es	-0.232724	1.153349	-1.012422	99
Es	1.266545	-0.257092	1.016249	99
Es	-1.209311	-0.391114	1.249354	99
Es	0.025113	-1.466876	-0.609025	99
Es	-0.016486	1.463778	-0.611844	99
Es	-1.276198	-0.032819	0.894952	99
Es	-0.198952	-1.100619	-0.877808	99
Es	-1.467422	-0.108429	0.707205	99
Es	1.206402	0.394264	1.251923	99
Es	-0.816256	-0.059875	0.579808	99
32
Properties=species:S:1:pos:R:3:Z:I:1 energy=-698.1300910273354 field_type=dipole dipole="0.000000 0.000000 0.000000" charge=0
S	0.000200	-0.000200	-0.118100	16
O	1.274400	0.035500	0.897500	8
O	-1.276500	-0.032600	0.894900	8
O	-0.033600	1.257700	-0.839100	8
O	0.035400	-1.260400	-0.835100	8
H	1.211100	0.691200	1.631200	1
H	-1.214800	-0.685900	1.630700	1
Es	-1.266655	0.260362	1.012974	99
Es	-1.208643	-0.390305	1.250724	99
Es	-0.196333	-1.099151	-0.864624	99
Es	0.814587	0.062204	0.580906	99
Es	1.266532	-0.257906	1.015974	99
Es	0.000187	-0.000284	-0.118099	99
Es	-0.816462	-0.059842	0.580529	99
Es	-0.008908	1.467400	-0.618131	99
Es	0.078937	-0.783180	-0.527453	99
Es	0.075490	0.093025	-0.144658	99
Es	0.192460	1.093388	-0.894756	99
Es	-1.276202	-0.032818	0.894944	99
Es	-0.083634	0.012977	-0.175846	99
Es	-1.467320	-0.109594	0.706665	99
Es	0.025795	-1.466174	-0.607241	99
Es	-0.064455	0.784754	-0.522745	99
Es	0.035392	-1.260155	-0.834948	99
Es	-0.038288	0.005042	-0.003944	99
Es	1.274059	0.035678	0.897570	99
Es	1.462318	0.111664	0.711377	99
Es	-0.033599	1.257466	-0.838958	99
Es	0.047160	-0.111768	-0.147287	99
Es	-0.246474	1.147723	-0.996254	99
Es	0.225661	-1.154533	-1.018241	99
Es	1.207401	0.394947	1.251767	99
32
Properties=species:S:1:pos:R:3:Z:I:1 energy=-698.1300910273354 field_type=dipole dipole="0.000000 0.000000 0.000000" charge=0
S	0.000200	-0.000200	-0.118100	16
O	1.274400	0.035500	0.897500	8
O	-1.276500	-0.032600	0.894900	8
O	-0.033600	1.257700	-0.839100	8
O	0.035400	-1.260400	-0.835100	8
H	1.211100	0.691200	1.631200	1
H	-1.214800	-0.685900	1.630700	1
Es	-1.208700	-0.390196	1.250030	99
Es	0.194793	1.094515	-0.876921	99
Es	-0.816304	-0.060121	0.580517	99
Es	1.207032	0.395298	1.251278	99
Es	0.075640	-0.780752	-0.529290	99
Es	-1.276212	-0.032794	0.894950	99
Es	0.035393	-1.260143	-0.834937	99
Es	0.000183	-0.000201	-0.118091	99
Es	0.231400	-1.158139	-1.013405	99
Es	0.084441	0.022662	-0.048694	99
Es	0.022074	-1.463392	-0.603983	99
Es	-0.073389	0.782046	-0.528303	99
Es	-0.232633	1.151664	-1.013774	99
Es	-0.059670	-0.100910	-0.077034	99
Es	1.265513	-0.257296	1.016825	99
Es	-0.016214	1.465086	-0.612869	99
Es	0.814511	0.061396	0.582239	99
Es	-1.466170	-0.110532	0.707027	99
Es	1.463783	0.111525	0.709639	99
Es	-0.071263	0.096955	-0.122939	99
Es	1.274102	0.035677	0.897556	99
Es	-0.033592	1.257446	-0.838940	99
Es	-1.267925	0.261415	1.013291	99
Es	0.047348	-0.019509	-0.223054	99
Es	-0.195136	-1.100780	-0.870872	99
32
Properties=species:S:1:pos:R:3:Z:I:1 energy=-698.1300910273342 field_type=dipole dipole="0.000000 0.000000 0.000000" charge=0
S	0.000200	-0.000200	-0.118100	16
O	1.274400	0.035500	0.897500	8
O	-1.276500	-0.032600	0.894900	8
O	-0.033600	1.257700	-0.839100	8
O	0.035400	-1.260400	-0.835100	8
H	1.211100	0.691200	1.631200	1
H	-1.214800	-0.685900	1.630700	1
Es	1.313682	0.075416	0.852591	99
Es	0.036102	-1.247216	-0.828466	99
Es	-0.085422	0.067080	-0.107370	99
Es	-0.804670	-0.044670	0.570200	99
Es	0.287000	-1.154320	-0.965437	99
Es	-1.216653	-0.379184	1.269218	99
Es	0.071779	0.010678	-0.074447	99
Es	-0.316848	1.086090	-0.907162	99
Es	0.011124	-0.043024	-0.235735	99
Es	0.798584	0.039352	0.589968	99
Es	-1.255432	-0.017461	0.903962	99
Es	0.030133	-1.417250	-0.587850	99
Es	0.155198	1.393254	-0.911213	99
Es	1.390212	0.127481	0.764896	99
Es	-0.034709	1.245458	-0.843056	99
Es	1.336636	-0.255915	0.989410	99
Es	1.185936	0.360257	1.260302	99
Es	-0.091338	1.221115	-0.535335	99
Es	0.035168	-0.801330	-0.526387	99
Es	-0.218664	-1.139436	-0.943872	99
Es	0.028258	0.038151	-0.118396	99
Es	-0.024939	-0.077332	-0.053348	99
Es	0.126397	0.804615	-0.673856	99
Es	-1.522787	0.124425	0.799844	99
Es	-1.235741	-0.015314	0.901785	99
32
Properties=species:S:1:pos:R:3:Z:I:1 energy=-698.1300910273342 field_type=dipole dipole="0.000000 0.000000 0.000000" charge=0
S	0.000200	-0.000200	-0.118100	16
O	1.274400	0.035500	0.897500	8
O	-1.276500	-0.032600	0.894900	8
O	-0.033600	1.257700	-0.839100	8
O	0.035400	-1.260400	-0.835100	8
H	1.211100	0.691200	1.631200	1
H	-1.214800	-0.685900	1.630700	1
Es	-0.116845	1.191262	-1.114485	99
Es	1.273014	0.038915	0.897831	99
Es	0.122030	-1.173200	-0.641016	99
Es	-0.004061	0.759229	-0.536314	99
Es	0.031700	-0.743155	-0.647185	99
Es	-0.047171	1.226719	-0.821226	99
Es	0.035651	-1.259079	-0.833919	99
Es	-1.285080	0.256034	1.008250	99
Es	-0.082876	-0.063487	-0.045147	99
Es	-1.204948	-0.385053	1.253727	99
Es	1.340998	-0.267050	0.987978	99
Es	-0.049253	0.067890	-0.168060	99
Es	-0.808586	-0.049445	0.581232	99
Es	-0.024706	1.144517	-0.780514	99
Es	0.798472	0.049112	0.596788	99
Es	1.217836	0.395028	1.244108	99
Es	-0.004152	-0.009370	-0.132293	99
Es	1.394633	0.130369	0.729899	99
Es	0.031494	1.428910	-0.617863	99
Es	-1.460736	-0.120617	0.706932	99
Es	0.071434	-0.055433	-0.178608	99
Es	0.065783	0.059198	-0.065652	99
Es	-1.276222	-0.032806	0.895040	99
Es	-0.240603	-1.337629	-0.686250	99
Es	0.221202	-1.249939	-1.043007	99
32
Properties=species:S:1:pos:R:3:Z:I:1 energy=-698.1300910273342 field_type=dipole dipole="0.000000 0.000000 0.000000" charge=0
S	0.000200	-0.000200	-0.118100	16
O	1.274400	0.035500	0.897500	8
O	-1.276500	-0.032600	0.894900	8
O	-0.033600	1.257700	-0.839100	8
O	0.035400	-1.260400	-0.835100	8
H	1.211100	0.691200	1.631200	1
H	-1.214800	-0.685900	1.630700	1
Es	-0.029602	1.227376	-0.737835	99
Es	-1.317340	-0.025359	0.870312	99
Es	1.514804	-0.089465	0.794969	99
Es	0.149355	1.144916	-0.919815	99
Es	-0.049966	0.124814	-0.109526	99
Es	-0.068776	1.465856	-0.835264	99
Es	-1.137422	0.199035	1.012669	99
Es	0.002755	0.001182	-0.122587	99
Es	-0.872996	-0.103849	0.552794	99
Es	1.154686	0.159562	0.707290	99
Es	-1.228021	-0.403670	1.239115	99
Es	-1.479512	0.001793	0.770562	99
Es	0.078305	-0.835462	-0.477118	99
Es	0.112784	-1.129505	-0.780377	99
Es	-0.253415	1.085915	-0.866523	99
Es	-0.012007	-1.496968	-0.680448	99
Es	0.072990	-0.004536	-0.082269	99
Es	1.276346	0.030858	0.898200	99
Es	-0.044968	-1.037078	-1.069404	99
Es	1.219123	0.364513	1.280373	99
Es	0.035895	-1.264066	-0.844640	99
Es	-0.030440	-0.123544	-0.164582	99
Es	0.040562	0.826449	-0.510958	99
Es	0.859828	-0.119285	0.776273	99
Es	0.006040	0.001437	-0.110969	99
32
Properties=species:S:1:pos:R:3:Z:I:1 energy=-698.1300910273342 field_type=dipole dipole="0.000000 0.000000 0.000000" charge=0
S	0.000200	-0.000200	-0.118100	16
O	1.274400	0.035500	0.897500	8
O	-1.276500	-0.032600	0.894900	8
O	-0.033600	1.257700	-0.839100	8
O	0.035400	-1.260400	-0.835100	8
H	1.211100	0.691200	1.631200	1
H	-1.214800	-0.685900	1.630700	1
Es	-1.273781	0.259713	1.030927	99
Es	0.014525	-0.756198	-0.568235	99
Es	0.813126	0.053976	0.597533	99
Es	-1.273181	-0.033378	0.891552	99
Es	-1.441339	-0.092701	0.704053	99
Es	-0.813417	-0.049814	0.599830	99
Es	-0.023711	0.085857	-0.026704	99
Es	0.011370	-0.130378	-0.097754	99
Es	0.119106	-1.138054	-1.064939	99
Es	-0.001619	0.018207	-0.200815	99
Es	-1.233290	-0.416144	1.219450	99
Es	-0.033579	1.257492	-0.839534	99
Es	1.273829	0.035878	0.897467	99
Es	0.001243	-0.000117	-0.117935	99
Es	0.013763	0.025462	-0.146429	99
Es	1.273151	-0.261188	1.027753	99
Es	0.207743	-1.343923	-0.620133	99
Es	-0.115649	0.804001	-0.519056	99
Es	0.204296	1.068167	-0.840825	99
Es	0.010554	-1.228705	-0.816881	99
Es	-0.183045	-1.295947	-0.782499	99
Es	-0.005602	1.455157	-0.620650	99
Es	-0.209800	1.165488	-1.050538	99
Es	1.462625	0.125008	0.695171	99
Es	1.201688	0.393063	1.239436	99
32
Properties=species:S:1:pos:R:3:Z:I:1 energy=-698.1300910273353 field_type=dipole dipole="0.000000 0.000000 0.000000" charge=0
S	0.000200	-0.000200	-0.118100	16
O	1.274400	0.035500	0.897500	8
O	-1.276500	-0.032600	0.894900	8
O	-0.033600	1.257700	-0.839100	8
O	0.035400	-1.260400	-0.835100	8
H	1.211100	0.691200	1.631200	1
H	-1.214800	-0.685900	1.630700	1
Es	-0.011298	0.117180	-0.125680	99
Es	1.256647	-0.238785	1.017485	99
Es	-0.099461	-0.046111	-0.073772	99
Es	1.484642	0.108100	0.702786	99
Es	1.274160	0.035679	0.897526	99
Es	-1.207497	-0.383093	1.252802	99
Es	0.228951	1.112834	-0.924052	99
Es	-1.485749	-0.104909	0.700720	99
Es	-0.273856	1.166393	-0.984431	99