32
Properties=species:S:1:pos:R:3:Z:I:1 energy=-698.1300910273342 field_type=dipole dipole="0.000000 0.000000 0.000000" charge=0
S	0.000200	-0.000200	-0.118100	16
O	1.274400	0.035500	0.897500	8
O	-1.276500	-0.032600	0.894900	8
O	-0.033600	1.257700	-0.839100	8
O	0.035400	-1.260400	-0.835100	8
H	1.211100	0.691200	1.631200	1
H	-1.214800	-0.685900	1.630700	1
Es	0.208179	-1.163539	-1.054628	99
Es	-0.162217	-1.166467	-0.842158	99
Es	0.049674	0.112131	-0.150753	99
Es	-1.268001	-0.021653	0.901541	99
Es	0.007507	1.425416	-0.593916	99
Es	0.053736	-0.765869	-0.539598	99
Es	-0.002547	-1.232012	-0.828049	99
Es	0.036252	-0.108007	-0.186295	99
Es	0.209109	1.104311	-0.945873	99
Es	1.268885	0.035979	0.895369	99
Es	0.800278	0.018028	0.621054	99
Es	-0.806072	-0.049616	0.565849	99
Es	-0.031908	-0.017691	0.004394	99
Es	0.072472	-1.429568	-0.585205	99
Es	1.362748	0.183590	0.727308	99
Es	-0.033597	1.257406	-0.838900	99
Es	-1.205309	0.056542	0.949904	99
Es	-1.541138	0.065947	0.764922	99
Es	1.191097	0.350346	1.282399	99
Es	-0.052468	0.789666	-0.530059	99
Es	1.402049	-0.241345	0.931261	99
Es	-0.024234	0.000500	-0.125234	99
Es	-0.291920	1.173653	-0.961888	99
Es	-0.031279	0.006540	-0.132706	99
Es	-1.212291	-0.383368	1.261505	99
32
Properties=species:S:1:pos:R:3:Z:I:1 energy=-698.1300910273342 field_type=dipole dipole="0.000000 0.000000 0.000000" charge=0
S	0.000200	-0.000200	-0.118100	16
O	1.274400	0.035500	0.897500	8
O	-1.276500	-0.032600	0.894900	8
O	-0.033600	1.257700	-0.839100	8
O	0.035400	-1.260400	-0.835100	8
H	1.211100	0.691200	1.631200	1
H	-1.214800	-0.685900	1.630700	1
Es	0.162077	-0.762560	-0.721979	99
Es	-0.817638	-0.067225	0.585881	99
Es	-1.201023	-0.372110	1.252836	99
Es	-0.034442	1.144301	-0.798783	99
Es	1.521544	-0.052609	0.770908	99
Es	-1.457849	-0.133486	0.711005	99
Es	-1.275382	0.272753	1.005359	99
Es	0.089431	-0.042380	-0.105127	99
Es	-0.187814	1.313959	-0.761497	99
Es	0.007159	-0.006054	-0.062886	99
Es	0.087898	-1.391796	-0.979667	99
Es	1.252179	-0.019576	0.935209	99
Es	-0.070836	0.754974	-0.546241	99
Es	0.094394	-1.253178	-0.819196	99
Es	0.012351	-0.016530	-0.201608	99
Es	0.822151	0.055092	0.554781	99
Es	-0.163277	-1.129077	-0.839044	99
Es	-0.012056	-1.226208	-0.492732	99
Es	1.207834	-0.041714	0.946093	99
Es	-0.058200	0.111846	-0.106469	99
Es	0.083126	1.173951	-0.766127	99
Es	1.220766	0.405496	1.250521	99
Es	0.049092	1.363119	-0.997938	99
Es	-1.282489	-0.032516	0.890468	99
Es	-0.049988	-0.047554	-0.113521	99
32
Properties=species:S:1:pos:R:3:Z:I:1 energy=-698.1300910273342 field_type=dipole dipole="0.000000 0.000000 0.000000" charge=0
S	0.000200	-0.000200	-0.118100	16
O	1.274400	0.035500	0.897500	8
O	-1.276500	-0.032600	0.894900	8
O	-0.033600	1.257700	-0.839100	8
O	0.035400	-1.260400	-0.835100	8
H	1.211100	0.691200	1.631200	1
H	-1.214800	-0.685900	1.630700	1
Es	-0.213321	-1.138307	-0.906946	99
Es	0.249199	-1.188280	-0.977627	99
Es	-0.110121	0.007050	-0.162164	99
Es	1.258267	-0.278513	0.998745	99
Es	0.048655	0.090336	-0.038127	99
Es	0.024904	-0.084282	-0.105178	99
Es	-0.796403	-0.034469	0.589401	99
Es	0.039990	0.788109	-0.544942	99
Es	-1.447304	-0.103702	0.705524	99
Es	-1.223756	-0.403515	1.231744	99
Es	0.030909	-1.420679	-0.568426	99
Es	-0.012797	-0.015340	-0.091737	99
Es	0.847673	0.096298	0.556486	99
Es	-0.288701	1.133906	-0.790477	99
Es	0.050112	0.000558	-0.192673	99
Es	0.033043	-1.255995	-0.839190	99
Es	0.065036	1.120282	-1.066086	99
Es	0.055311	1.454519	-0.632508	99
Es	-0.031412	1.253349	-0.836428	99
Es	1.273351	0.035653	0.897460	99
Es	-1.291169	0.242300	1.024235	99
Es	1.441305	0.107064	0.745810	99
Es	1.204050	0.386439	1.258498	99
Es	-1.276472	-0.032923	0.894550	99
Es	0.068660	-0.758939	-0.559699	99
32
Properties=species:S:1:pos:R:3:Z:I:1 energy=-698.1300910273342 field_type=dipole dipole="0.000000 0.000000 0.000000" charge=0
S	0.000200	-0.000200	-0.118100	16
O	1.274400	0.035500	0.897500	8
O	-1.276500	-0.032600	0.894900	8
O	-0.033600	1.257700	-0.839100	8
O	0.035400	-1.260400	-0.835100	8
H	1.211100	0.691200	1.631200	1
H	-1.214800	-0.685900	1.630700	1
Es	1.280047	-0.264806	1.012753	99
Es	0.042216	-0.010646	-0.008866	99
Es	-0.067369	0.111935	-0.148434	99
Es	0.091806	-1.273199	-1.088971	99
Es	-1.223021	-0.401711	1.248203	99
Es	-0.251971	0.967184	-0.581937	99
Es	-0.807936	-0.046340	0.575856	99
Es	0.024677	-1.266135	-0.826456	99
Es	0.100139	-0.740768	-0.637938	99
Es	1.211005	0.406017	1.244109	99
Es	-0.047485	-0.084889	-0.130392	99
Es	-1.460352	-0.091100	0.711496	99
Es	-0.149374	-1.126320	-0.757003	99
Es	0.818138	0.056119	0.597202	99
Es	0.101394	-1.356704	-0.541402	99
Es	0.019597	-0.017113	-0.155797	99
Es	1.441217	0.116900	0.704192	99
Es	0.205060	0.918763	-0.693396	99
Es	-0.104947	1.100865	-1.046114	99
Es	-1.278450	0.046616	0.927214	99
Es	0.025136	1.506890	-0.709628	99
Es	0.052736	-0.000035	-0.144499	99
Es	-0.033846	1.256743	-0.839245	99
Es	-1.263673	0.160358	0.980608	99
Es	1.274262	0.032297	0.898693	99
32
Properties=species:S:1:pos:R:3:Z:I:1 energy=-698.1300910273342 field_type=dipole dipole="0.000000 0.000000 0.000000" charge=0
S	0.000200	-0.000200	-0.118100	16
O	1.274400	0.035500	0.897500	8
O	-1.276500	-0.032600	0.894900	8
O	-0.033600	1.257700	-0.839100	8
O	0.035400	-1.260400	-0.835100	8
H	1.211100	0.691200	1.631200	1
H	-1.214800	-0.685900	1.630700	1
Es	0.119488	1.109623	-0.857078	99
Es	1.482969	0.085932	0.710984	99
Es	-0.219855	-1.207171	-0.817635	99
Es	-0.007777	0.037892	-0.026403	99
Es	1.275092	0.035956	0.897932	99
Es	-0.004995	1.223113	-0.866501	99
Es	-0.084143	-0.063919	-0.112718	99
Es	0.832817	0.087080	0.580332	99
Es	0.093945	-0.064079	-0.129034	99
Es	-0.071932	0.775669	-0.538822	99
Es	0.018289	0.069068	-0.129735	99
Es	-0.245638	1.174979	-0.990899	99
Es	0.143538	-1.374091	-0.566685	99
Es	-1.443916	-0.092581	0.729605	99
Es	-1.275358	-0.036273	0.893441	99
Es	-0.818540	-0.058259	0.568424	99
Es	-1.274361	0.257063	1.012501	99
Es	0.058870	-1.236414	-0.851071	99
Es	0.042301	1.467397	-0.617155	99
Es	1.217884	-0.252634	1.007582	99
Es	0.029631	-0.746177	-0.583904	99
Es	0.157955	-1.198538	-1.031803	99
Es	1.215779	0.390488	1.259885	99
Es	-0.019916	0.018991	-0.192415	99
Es	-1.223121	-0.402196	1.241417	99
32
Properties=species:S:1:pos:R:3:Z:I:1 energy=-698.1300910273342 field_type=dipole dipole="0.000000 0.000000 0.000000" charge=0
S	0.000200	-0.000200	-0.118100	16
O	1.274400	0.035500	0.897500	8
O	-1.276500	-0.032600	0.894900	8
O	-0.033600	1.257700	-0.839100	8
O	0.035400	-1.260400	-0.835100	8
H	1.211100	0.691200	1.631200	1
H	-1.214800	-0.685900	1.630700	1
Es	-1.301436	-0.045138	0.868367	99
Es	0.111341	-1.236133	-0.672708	99
Es	0.038515	-1.225300	-1.036808	99
Es	-1.338270	0.276544	0.968644	99
Es	1.187430	-0.219867	1.046161	99
Es	0.027518	-0.741108	-0.582814	99
Es	-0.074838	1.242998	-0.779083	99
Es	0.126581	-0.042505	-0.130743	99
Es	1.439462	0.022760	0.788219	99
Es	-0.178380	-1.353984	-0.712418	99
Es	-0.048413	0.010097	-0.012330	99
Es	0.849920	0.083535	0.542160	99
Es	1.229509	0.416161	1.220208	99
Es	-0.191788	1.283407	-0.758169	99
Es	0.216503	1.353200	-0.743991	99
Es	0.000455	0.001984	-0.119767	99
Es	-0.019568	0.771021	-0.528973	99
Es	-0.818825	-0.065305	0.572539	99
Es	-1.202926	-0.375406	1.264107	99
Es	1.317922	0.043468	0.859731	99
Es	-0.091817	1.100053	-1.059935	99
Es	-1.372874	-0.122531	0.771360	99
Es	-0.085603	-0.022302	-0.204320	99
Es	0.007272	0.051961	-0.122213	99
Es	0.171317	-1.206693	-0.846979	99
32
Properties=species:S:1:pos:R:3:Z:I:1 energy=-698.1300910273342 field_type=dipole dipole="0.000000 0.000000 0.000000" charge=0
S	0.000200	-0.000200	-0.118100	16
O	1.274400	0.035500	0.897500	8
O	-1.276500	-0.032600	0.894900	8
O	-0.033600	1.257700	-0.839100	8
O	0.035400	-1.260400	-0.835100	8
H	1.211100	0.691200	1.631200	1
H	-1.214800	-0.685900	1.630700	1
Es	0.047068	-0.752356	-0.584301	99
Es	0.010331	-0.128553	-0.133321	99
Es	-0.251301	-1.216401	-0.830835	99
Es	0.034579	-1.257634	-0.833686	99
Es	-0.000535	1.419127	-0.568200	99
Es	0.165569	-1.385400	-0.581249	99
Es	-1.217586	-0.409115	1.229999	99
Es	-0.833556	-0.063871	0.575830	99
Es	1.195465	0.378991	1.259509	99
Es	-0.080429	0.035916	-0.122831	99
Es	0.171881	-1.150860	-1.022514	99
Es	1.317252	-0.257891	0.995517	99
Es	0.089365	0.056686	-0.114774	99
Es	-0.055900	0.743398	-0.579435	99
Es	1.281041	0.043176	0.886073	99
Es	-0.006586	0.003541	-0.051278	99
Es	-0.011529	0.031805	-0.167269	99
Es	1.423293	0.132902	0.742300	99
Es	-0.035816	1.251409	-0.838067	99
Es	-0.188587	1.153152	-0.817857	99
Es	-1.479237	-0.050161	0.736528	99
Es	0.121257	1.182811	-1.067542	99
Es	-1.215534	0.237060	1.035270	99
Es	-1.288890	-0.046753	0.868184	99
Es	0.807391	0.049941	0.574194	99
32
Properties=species:S:1:pos:R:3:Z:I:1 energy=-698.1300910273342 field_type=dipole dipole="0.000000 0.000000 0.000000" charge=0
S	0.000200	-0.000200	-0.118100	16
O	1.274400	0.035500	0.897500	8
O	-1.276500	-0.032600	0.894900	8
O	-0.033600	1.257700	-0.839100	8
O	0.035400	-1.260400	-0.835100	8
H	1.211100	0.691200	1.631200	1
H	-1.214800	-0.685900	1.630700	1
Es	-0.029388	0.028014	-0.108787	99
Es	-0.036031	-0.047840	-0.114606	99
Es	1.486694	0.069084	0.718647	99
Es	-0.057692	1.520404	-0.719570	99
Es	-0.038196	0.800333	-0.491941	99
Es	0.087821	0.019594	-0.017041	99
Es	0.064008	-0.789958	-0.513673	99
Es	-1.218941	-0.403754	1.220275	99
Es	-1.203877	0.228069	1.046127	99
Es	1.232155	-0.227217	1.037683	99
Es	1.271018	0.033534	0.899554	99
Es	1.219561	0.408814	1.230708	99
Es	-0.112998	-1.068215	-1.007774	99
Es	0.081006	1.054339	-1.026304	99
Es	-1.503571	-0.052443	0.713390	99
Es	0.285820	-1.214489	-0.862955	99
Es	0.815851	0.062642	0.569875	99
Es	0.033808	-1.256836	-0.832961	99
Es	-0.827256	-0.069164	0.575373	99
Es	-0.035551	1.188183	-0.802666	99
Es	-1.281713	-0.034970	0.889010	99
Es	0.011630	0.029722	-0.207035	99
Es	-0.102093	-1.433876	-0.633943	99
Es	-0.111066	1.186351	-0.828652	99
Es	-0.031992	-0.029400	-0.142490	99
32
Properties=species:S:1:pos:R:3:Z:I:1 energy=-698.1300910273342 field_type=dipole dipole="0.000000 0.000000 0.000000" charge=0
S	0.000200	-0.000200	-0.118100	16
O	1.274400	0.035500	0.897500	8
O	-1.276500	-0.032600	0.894900	8
O	-0.033600	1.257700	-0.839100	8
O	0.035400	-1.260400	-0.835100	8
H	1.211100	0.691200	1.631200	1
H	-1.214800	-0.685900	1.630700	1
Es	0.016988	-1.344299	-0.823542	99
Es	0.029450	1.288436	-0.819906	99
Es	-1.375036	-0.182724	0.669195	99
Es	-0.076240	-0.967693	-0.959874	99
Es	1.199711	0.390339	1.250406	99
Es	-1.194838	-0.368708	1.255373	99
Es	1.057180	0.075878	0.702690	99
Es	0.001122	0.000039	-0.117794	99
Es	0.222658	-0.893900	-0.518697	99
Es	-0.010986	-0.032516	-0.157110	99
Es	-0.811266	0.018106	0.663027	99
Es	-1.379135	0.229321	0.965463	99
Es	0.128389	-1.407102	-0.889293	99
Es	0.031178	0.029428	-0.207513	99
Es	-1.274212	-0.028262	0.892347	99
Es	-0.123421	-1.149612	-0.660754	99
Es	-0.259762	1.175570	-1.005985	99
Es	-0.087213	1.348512	-0.577650	99
Es	-0.030775	0.761937	-0.573130	99
Es	1.042078	0.032848	0.770160	99
Es	1.475682	0.103514	0.717916	99
Es	-0.025388	0.066382	-0.097037	99
Es	1.250499	-0.255916	1.016412	99
Es	0.187625	1.174875	-0.894469	99
Es	0.004718	-0.063535	-0.009993	99
32
Properties=species:S:1:pos:R:3:Z:I:1 energy=-698.1300910273342 field_type=dipole dipole="0.000000 0.000000 0.000000" charge=0
S	0.000200	-0.000200	-0.118100	16
O	1.274400	0.035500	0.897500	8
O	-1.276500	-0.032600	0.894900	8
O	-0.033600	1.257700	-0.839100	8
O	0.035400	-1.260400	-0.835100	8
H	1.211100	0.691200	1.631200	1
H	-1.214800	-0.685900	1.630700	1
Es	0.026826	-0.005116	-0.071780	99
Es	0.039556	0.028477	-0.050308	99
Es	0.043254	0.048418	-0.211782	99
Es	-0.095045	-0.088622	-0.141463	99
Es	-0.214347	1.142371	-1.040777	99
Es	0.826611	0.077976	0.566519	99
Es	-1.255534	0.267246	1.018157	99
Es	-1.461954	-0.100565	0.702732	99
Es	0.080234	-0.763386	-0.556441	99
Es	0.234504	-1.197558	-1.018291	99
Es	-0.033538	1.257402	-0.838713	99
Es	-1.218335	-0.398394	1.237257	99
Es	-0.013901	0.015906	-0.114690	99
Es	-0.155809	-1.100985	-0.863594	99
Es	0.216435	1.181808	-0.853118	99
Es	-1.274246	-0.036282	0.898542	99
Es	1.237612	-0.256306	1.028730	99
Es	-0.109213	1.406786	-0.592001	99
Es	1.275953	0.037168	0.894040	99
Es	1.219934	0.403197	1.239582	99
Es	1.464777	0.084247	0.728133	99
Es	-0.033609	-1.425705	-0.606845	99
Es	-0.824465	-0.063812	0.588619	99
Es	0.044332	-1.275618	-0.806845	99
Es	-0.021023	0.762268	-0.545418	99
32
Properties=species:S:1:pos:R:3:Z:I:1 energy=-698.1300910273342 field_type=dipole dipole="0.000000 0.000000 0.000000" charge=0
S	0.000200	-0.000200	-0.118100	16
O	1.274400	0.035500	0.897500	8
O	-1.276500	-0.032600	0.894900	8
O	-0.033600	1.257700	-0.839100	8
O	0.035400	-1.260400	-0.835100	8
H	1.211100	0.691200	1.631200	1
H	-1.214800	-0.685900	1.630700	1
Es	-0.008189	0.088825	-0.143829	99
Es	0.816733	0.070058	0.587826	99
Es	0.033809	-0.011623	-0.117916	99
Es	-1.465901	-0.115047	0.694456	99
Es	-1.268065	0.260258	1.005213	99
Es	0.018728	1.071143	-1.043298	99
Es	-0.035590	1.255775	-0.840532	99
Es	-0.200014	-0.998557	-0.736072	99
Es	-0.069112	-0.019301	-0.081877	99
Es	-0.813603	-0.059172	0.593522	99
Es	-0.182832	0.814854	-0.566360	99
Es	1.214094	0.394792	1.249228	99
Es	-1.211075	-0.384945	1.256955	99
Es	0.234560	-0.848111	-0.742140	99
Es	0.062049	-1.289943	-0.488128	99
Es	0.052202	0.010492	-0.021778	99
Es	0.037709	-1.367802	-1.042448	99
Es	1.293014	-0.278572	1.001962	99
Es	0.159617	1.099308	-0.690883	99
Es	-0.007819	-0.069405	-0.224463	99
Es	1.417633	0.122010	0.728766	99
Es	-1.276427	-0.032982	0.894337	99
Es	-0.121449	1.509996	-0.729097	99
Es	1.282997	0.037761	0.889943	99
Es	0.035938	-1.258893	-0.843139	99
32
Properties=species:S:1:pos:R:3:Z:I:1 energy=-698.1300910273342 field_type=dipole dipole="0.000000 0.000000 0.000000" charge=0
S	0.000200	-0.000200	-0.118100	16
O	1.274400	0.035500	0.897500	8
O	-1.276500	-0.032600	0.894900	8
O	-0.033600	1.257700	-0.839100	8
O	0.035400	-1.260400	-0.835100	8
H	1.211100	0.691200	1.631200	1
H	-1.214800	-0.685900	1.630700	1
Es	-1.208987	-0.389559	1.257335	99
Es	-0.102128	1.392038	-0.580320	99
Es	-0.000576	-0.018853	-0.115213	99
Es	0.006289	-0.015399	-0.132203	99
Es	1.489777	0.087207	0.723827	99
Es	-0.148672	-1.101419	-0.749974	99
Es	0.124122	0.038826	-0.114649	99
Es	0.031961	-1.258705	-0.603839	99
Es	0.168833	-0.761344	-0.647410	99
Es	-0.065085	0.033145	-0.201552	99
Es	-0.183268	1.181942	-1.075611	99
Es	-0.020845	1.245445	-0.832856	99
Es	1.217248	-0.252160	1.024216	99
Es	0.114522	-1.429023	-0.890954	99
Es	-0.811336	-0.046505	0.581771	99
Es	-1.426692	-0.121306	0.724597	99
Es	0.190195	1.177521	-0.819776	99
Es	1.200118	0.392060	1.245998	99
Es	-0.045241	0.753432	-0.561342	99
Es	0.836797	0.081178	0.571419	99
Es	1.280026	0.038230	0.891276	99
Es	-1.290742	-0.033012	0.882930	99
Es	-0.062997	-0.038610	-0.026452	99
Es	-1.297164	0.258353	0.999080	99
Es	0.002851	-1.212563	-0.960053	99
32
Properties=species:S:1:pos:R:3:Z:I:1 energy=-698.1300910273342 field_type=dipole dipole="0.000000 0.000000 0.000000" charge=0
S	0.000200	-0.000200	-0.118100	16
O	1.274400	0.035500	0.897500	8
O	-1.276500	-0.032600	0.894900	8
O	-0.033600	1.257700	-0.839100	8
O	0.035400	-1.260400	-0.835100	8
H	1.211100	0.691200	1.631200	1
H	-1.214800	-0.685900	1.630700	1
Es	0.037602	0.094847	-0.116158	99
Es	0.007950	-0.004354	-0.126607	99
Es	-0.017604	0.008088	-0.138452	99
Es	-0.100624	0.748563	-0.590912	99
Es	0.091833	-0.782598	-0.520078	99
Es	-0.809726	-0.047958	0.592135	99
Es	-0.118562	1.235555	-1.087774	99
Es	-0.098245	-1.071576	-0.937038	99
Es	1.202423	0.390921	1.253507	99
Es	-0.148089	-1.332884	-0.684284	99
Es	-1.297088	0.263163	1.000455	99
Es	1.451082	0.124525	0.713688	99
Es	-1.279241	-0.032375	0.893021	99
Es	1.283379	-0.264642	1.009960	99
Es	-0.074298	1.355832	-0.581558	99
Es	-1.441831	-0.126990	0.704127	99
Es	0.110383	-1.354738	-0.782787	99
Es	-1.207269	-0.387772	1.255555	99
Es	0.214151	-1.220732	-0.927063	99
Es	0.814237	0.060138	0.582029	99
Es	-0.018611	-0.021782	-0.123287	99
Es	-0.050004	1.283184	-0.835885	99
Es	1.273787	0.035589	0.897699	99
Es	0.181706	1.127442	-0.773413	99
Es	-0.008335	-0.078527	-0.086637	99
32
Properties=species:S:1:pos:R:3:Z:I:1 energy=-698.1300910273342 field_type=dipole dipole="0.000000 0.000000 0.000000" charge=0
S	0.000200	-0.000200	-0.118100	16
O	1.274400	0.035500	0.897500	8
O	-1.276500	-0.032600	0.894900	8
O	-0.033600	1.257700	-0.839100	8
O	0.035400	-1.260400	-0.835100	8
H	1.211100	0.691200	1.631200	1
H	-1.214800	-0.685900	1.630700	1
Es	1.235239	-0.211115	1.019561	99
Es	0.130926	1.163109	-1.050065	99
Es	0.081451	0.040218	-0.202911	99
Es	-0.089902	0.748679	-0.576927	99
Es	-0.044168	0.009145	-0.109370	99
Es	-0.968524	0.181316	0.883338	99
Es	-0.069609	-0.046994	-0.165443	99
Es	-0.226718	1.428523	-0.711234	99
Es	-1.422263	0.018895	0.824248	99
Es	0.273882	-1.155120	-0.911687	99
Es	-1.102885	-0.195017	0.578860	99
Es	-0.007501	0.054688	-0.095717	99
Es	1.223137	0.398943	1.248237	99
Es	-0.034765	-1.480635	-0.664020	99
Es	0.805541	0.059112	0.575190	99
Es	0.041008	-0.056015	-0.017800	99
Es	0.055817	1.164649	-0.711091	99
Es	0.033425	-1.248402	-0.828459	99
Es	1.486272	0.059605	0.722735	99
Es	-1.334064	0.019814	0.911497	99
Es	-0.031632	1.243766	-0.819134	99
Es	0.042552	-0.810433	-0.488027	99
Es	1.275326	0.040058	0.891082	99
Es	-0.145604	-1.068481	-0.959970	99
Es	-1.207933	-0.357388	1.247351	99
32
Properties=species:S:1:pos:R:3:Z:I:1 energy=-698.1300910273342 field_type=dipole dipole="0.000000 0.000000 0.000000" charge=0
S	0.000200	-0.000200	-0.118100	16
O	1.274400	0.035500	0.897500	8
O	-1.276500	-0.032600	0.894900	8
O	-0.033600	1.257700	-0.839100	8
O	0.035400	-1.260400	-0.835100	8
H	1.211100	0.691200	1.631200	1
H	-1.214800	-0.685900	1.630700	1
Es	-0.143639	1.170614	-0.736365	99
Es	-0.006128	-0.006236	-0.131933	99
Es	-0.236152	-1.278730	-0.862109	99
Es	-0.871924	-0.095020	0.533001	99
Es	-0.056261	-0.022799	-0.088393	99
Es	0.084395	-0.104101	-0.116761	99
Es	1.263626	-0.234142	1.002977	99
Es	1.259825	0.032756	0.893517	99
Es	-0.033482	1.247359	-0.832803	99
Es	0.238685	-1.230319	-0.980884	99
Es	-1.435992	0.207407	0.883018	99
Es	-1.297728	-0.040686	0.872264	99
Es	0.023468	-1.248141	-0.822918	99
Es	-0.078944	1.189654	-1.100178	99
Es	-0.029345	0.116673	-0.171176	99
Es	-1.131215	0.012055	1.000899	99
Es	0.149512	1.397991	-0.603605	99
Es	1.209271	0.391132	1.265649	99
Es	0.008311	0.015892	-0.081701	99
Es	-0.054227	0.743990	-0.597391	99
Es	1.460509	0.094055	0.730897	99
Es	-1.297899	-0.415660	1.156305	99
Es	0.118456	-1.263051	-0.511382	99
Es	0.831050	0.063098	0.564517	99
Es	0.024835	-0.742869	-0.675200	99
32
Properties=species:S:1:pos:R:3:Z:I:1 energy=-698.1300910273342 field_type=dipole dipole="0.000000 0.000000 0.000000" charge=0
S	0.000200	-0.000200	-0.118100	16
O	1.274400	0.035500	0.897500	8
O	-1.276500	-0.032600	0.894900	8
O	-0.033600	1.257700	-0.839100	8
O	0.035400	-1.260400	-0.835100	8
H	1.211100	0.691200	1.631200	1
H	-1.214800	-0.685900	1.630700	1
Es	1.162018	-0.042504	0.960023	99
Es	0.854910	0.091423	0.538737	99
Es	0.032860	0.085750	-0.026069	99
Es	1.472593	-0.167963	0.855490	99
Es	0.035190	-1.244570	-0.826784	99
Es	-0.111250	-1.100682	-0.851072	99
Es	0.066170	-0.778479	-0.530126	99
Es	0.003619	0.777087	-0.524170	99
Es	0.027151	0.032209	-0.180784	99
Es	0.150411	1.392401	-0.763879	99
Es	-0.046838	-1.481265	-0.625284	99
Es	-0.026877	0.013277	-0.132360	99
Es	-0.095107	1.074574	-1.030728	99
Es	-1.209443	-0.389235	1.257951	99
Es	-1.305384	0.227243	0.989076	99
Es	-0.803110	-0.036078	0.585574	99
Es	0.226185	-1.157836	-1.018758	99
Es	-0.240009	1.245241	-0.706623	99
Es	-1.445314	-0.120256	0.708577	99
Es	1.293036	0.054563	0.868827	99
Es	1.241938	0.410903	1.234065	99
Es	0.015062	-0.005592	-0.126466	99
Es	-1.271363	-0.014066	0.904388	99
Es	0.020272	1.260977	-0.845053	99
Es	-0.047715	-0.126201	-0.124305	99
32
Properties=species:S:1:pos:R:3:Z:I:1 energy=-698.1300910273342 field_type=dipole dipole="0.000000 0.000000 0.000000" charge=0
S	0.000200	-0.000200	-0.118100	16
O	1.274400	0.035500	0.897500	8
O	-1.276500	-0.032600	0.894900	8
O	-0.033600	1.257700	-0.839100	8
O	0.035400	-1.260400	-0.835100	8
H	1.211100	0.691200	1.631200	1
H	-1.214800	-0.685900	1.630700	1
Es	0.072753	-0.795535	-0.514417	99
Es	1.178723	-0.227729	1.034302	99
Es	0.126216	1.466627	-0.736635	99
Es	-0.037909	1.182699	-0.946710	99
Es	0.244496	-1.169629	-1.001918	99
Es	0.015677	-0.129815	-0.160259	99
Es	-1.221903	-0.387546	1.258952	99
Es	1.223375	0.409099	1.234127	99
Es	1.274206	0.035631	0.897496	99
Es	-0.001034	0.052546	-0.103733	99
Es	-0.212099	1.128115	-0.618656	99
Es	-0.012105	-0.002193	-0.114413	99
Es	0.044812	-1.250889	-0.834985	99
Es	0.850298	0.091769	0.552456	99
Es	-0.013267	0.017176	-0.154429	99
Es	-1.136184	0.219386	0.991555	99
Es	1.498150	0.037934	0.738914	99
Es	-0.155139	1.173964	-0.931039	99
Es	0.011821	0.060942	-0.057156	99
Es	-0.039876	-1.471652	-0.625971	99
Es	0.118175	0.799335	-0.637651	99
Es	-1.279385	-0.032704	0.892097	99
Es	-1.502102	-0.008585	0.759374	99
Es	-0.153145	-1.075058	-0.874991	99
Es	-0.895547	-0.122969	0.543937	99
32
Properties=species:S:1:pos:R:3:Z:I:1 energy=-698.1300910273342 field_type=dipole dipole="0.000000 0.000000 0.000000" charge=0
S	0.000200	-0.000200	-0.118100	16
O	1.274400	0.035500	0.897500	8
O	-1.276500	-0.032600	0.894900	8
O	-0.033600	1.257700	-0.839100	8
O	0.035400	-1.260400	-0.835100	8
H	1.211100	0.691200	1.631200	1
H	-1.214800	-0.685900	1.630700	1
Es	0.026721	0.074755	-0.112816	99
Es	-0.045192	0.758319	-0.543020	99
Es	0.112751	-1.504751	-0.719308	99
Es	0.108044	-0.842457	-0.486248	99
Es	0.047649	-0.021240	-0.078450	99
Es	1.228526	0.400401	1.245514	99
Es	-1.466349	0.015434	0.769263	99
Es	-1.278090	0.103060	0.956973	99
Es	-0.804531	0.000592	0.590586	99
Es	-0.180638	1.159032	-0.862301	99
Es	1.392522	0.089716	0.772378	99
Es	-0.126737	-1.126913	-0.741917	99
Es	0.016576	-0.068442	-0.235228	99
Es	-1.192233	-0.066207	1.097183	99
Es	-0.078857	-0.020395	-0.050301	99
Es	-0.000774	1.404339	-0.604497	99
Es	-0.011141	0.034399	-0.112957	99
Es	-0.103958	1.267730	-0.830192	99
Es	1.293453	0.049389	0.869912	99
Es	1.293032	-0.267627	1.004605	99
Es	0.169708	1.161152	-1.030899	99
Es	-1.293920	-0.385186	1.031638	99
Es	0.817203	0.074900	0.565244	99
Es	0.038121	-1.259343	-0.835416	99
Es	0.037120	-1.029736	-1.069500	99
32
Properties=species:S:1:pos:R:3:Z:I:1 energy=-698.1300910273342 field_type=dipole dipole="0.000000 0.000000 0.000000" charge=0
S	0.000200	-0.000200	-0.118100	16
O	1.274400	0.035500	0.897500	8
O	-1.276500	-0.032600	0.894900	8
O	-0.033600	1.257700	-0.839100	8
O	0.035400	-1.260400	-0.835100	8
H	1.211100	0.691200	1.631200	1
H	-1.214800	-0.685900	1.630700	1
Es	-0.199064	1.171191	-0.814496	99
Es	0.075684	1.103915	-1.039020	99
Es	-0.022238	0.022064	-0.108352	99
Es	0.030262	-1.256668	-0.841332	99
Es	-1.204272	-0.380913	1.237319	99
Es	0.051477	0.077841	-0.168870	99
Es	0.054684	1.446024	-0.630474	99
Es	0.818597	0.072347	0.585753	99
Es	0.041643	-0.739546	-0.685560	99
Es	0.065307	-0.098334	-0.135266	99
Es	-0.081667	-0.018302	-0.169425	99
Es	-1.277702	-0.035789	0.891569	99
Es	1.201301	0.387636	1.233361	99
Es	0.018042	-1.259147	-1.068391	99
Es	-0.177214	-1.282169	-0.579141	99
Es	-0.052157	1.244913	-0.835670	99
Es	-1.267586	0.241811	1.002723	99
Es	-0.811032	-0.049811	0.577752	99
Es	-0.011933	0.015955	-0.007805	99
Es	-0.043497	0.764345	-0.526244	99
Es	1.251076	-0.265709	1.028849	99
Es	-1.451125	-0.094007	0.718286	99
Es	0.253737	-1.221585	-0.676274	99
Es	1.463183	0.119388	0.703326	99
Es	1.273501	0.035467	0.897630	99
32
Properties=species:S:1:pos:R:3:Z:I:1 energy=-698.1300910273342 field_type=dipole dipole="0.000000 0.000000 0.000000" charge=0
S	0.000200	-0.000200	-0.118100	16
O	1.274400	0.035500	0.897500	8
O	-1.276500	-0.032600	0.894900	8
O	-0.033600	1.257700	-0.839100	8
O	0.035400	-1.260400	-0.835100	8
H	1.211100	0.691200	1.631200	1
H	-1.214800	-0.685900	1.630700	1
Es	1.219546	0.396551	1.222844	99
Es	0.817415	0.059193	0.567376	99
Es	-1.284567	-0.033358	0.887494	99
Es	1.325489	0.028708	0.861601	99
Es	0.048512	-0.739544	-0.598749	99
Es	-0.005046	0.008315	-0.120753	99
Es	-1.470861	-0.089181	0.713888	99
Es	-0.054550	-0.063797	-0.209628	99
Es	1.409539	0.079229	0.762583	99
Es	-0.821500	-0.067034	0.578368	99
Es	-1.216999	-0.397929	1.237751	99
Es	-0.033924	1.257147	-0.839149	99
Es	-0.247476	1.069388	-0.610475	99
Es	0.026200	0.035961	-0.147402	99
Es	-0.060433	0.063021	-0.025815	99
Es	-0.074208	0.971644	-1.040776	99
Es	0.169875	-1.147346	-0.785133	99
Es	-0.073176	-1.255077	-1.072887	99
Es	0.032936	-1.259142	-0.833708	99
Es	-1.240750	0.254814	1.028306	99
Es	0.001587	-1.347450	-0.541690	99
Es	0.136237	0.945881	-0.594360	99
Es	0.059527	1.506630	-0.785719	99
Es	0.094861	-0.044591	-0.086193	99
Es	1.240776	-0.231115	1.022472	99
