26
Properties=species:S:1:pos:R:3:Z:I:1 energy=-191.97913078045264 field_type=dipole dipole="0.000000 0.000000 0.000000" charge=0
C	-1.161662	0.280251	0.325012	6
C	0.314898	0.142251	0.430662	6
C	1.117378	-0.486139	-0.675728	6
O	1.057118	0.938381	-0.498488	8
H	-1.516362	1.066781	0.998552	1
H	-1.648122	-0.657769	0.610312	1
H	-1.480122	0.534441	-0.691608	1
H	0.673058	0.069631	1.447752	1
H	0.597768	-0.907769	-1.526658	1
H	2.046048	-0.980059	-0.419808	1
Es	1.321238	-0.289391	-0.535826	99
Es	1.018426	-0.279565	-0.611444	99
Es	0.656871	0.175530	-0.197664	99
Es	0.967348	0.914210	-0.403558	99
Es	-1.035840	0.231630	0.327906	99
Es	-0.609663	0.320273	0.293197	99
Es	1.200263	-0.415126	-0.306209	99
Es	-1.371803	-0.206400	0.477802	99
Es	0.874257	0.628526	-0.162821	99
Es	1.066864	0.477033	-0.399734	99
Es	-1.360098	0.760889	0.631041	99
Es	0.725815	0.100203	-0.350009	99
Es	-0.436148	0.257946	0.344046	99
Es	0.965472	-0.224044	-0.779608	99
Es	-0.424305	0.253784	0.290214	99
Es	0.904440	0.621712	-0.240708	99
