33
Properties=species:S:1:pos:R:3:Z:I:1 energy=-231.03446168060765 field_type=dipole dipole="0.000000 0.000000 0.000000" charge=0
C	-1.223819	-1.880607	-0.044909	6
O	-0.002109	-1.157047	-0.015469	8
C	-0.216469	0.219893	0.276381	6
C	1.119511	0.891143	0.278381	6
C	1.444711	1.949303	-0.475689	6
H	-0.999709	-2.926697	-0.271629	1
H	-1.883679	-1.488467	-0.825119	1
H	-1.721479	-1.833177	0.928551	1
H	-0.674179	0.320053	1.267131	1
H	-0.885139	0.659833	-0.473069	1
H	1.865691	0.465663	0.944161	1
H	0.736251	2.401533	-1.162779	1
H	2.440421	2.378573	-0.425939	1
Es	-0.950672	-1.462435	-0.061449	99
Es	-0.208964	-0.188630	0.310226	99
Es	-1.158949	-1.823905	0.159472	99
Es	-1.112780	-2.501860	-0.059301	99
Es	-1.332672	-1.799243	-0.015061	99
Es	1.274682	1.509429	0.175563	99
Es	-0.139173	0.395812	0.193265	99
Es	0.219508	-1.206226	0.144649	99
Es	-1.420882	-1.714651	-0.216795	99
Es	1.325532	0.894457	0.381966	99
Es	1.217724	0.915538	0.270112	99
Es	-0.098983	-0.849633	0.086044	99
Es	-0.216653	0.203663	0.289374	99
Es	1.067210	2.188513	-0.820232	99
Es	1.418728	1.191710	-0.176810	99
Es	-0.000974	-1.147309	0.000667	99
Es	1.389526	1.874433	-0.504685	99
Es	-0.244605	-0.422016	0.257393	99
Es	2.004585	2.195391	-0.357366	99
Es	-0.087078	0.607097	-0.054665	99
