29
Properties=species:S:1:pos:R:3:Z:I:1 energy=-192.81319929536596 field_type=dipole dipole="0.000000 0.000000 0.000000" charge=0
C	-1.440354	-0.200146	-0.004593	6
C	0.060525	-0.211656	-0.000503	6
C	0.745795	-1.364916	0.007357	6
C	0.776056	1.022484	-0.002003	6
C	1.375565	2.061674	-0.001953	6
H	-1.834454	0.821664	0.022177	1
H	-1.833385	-0.728286	0.870697	1
H	-1.826774	-0.680636	-0.909703	1
H	0.235836	-2.322796	0.009297	1
H	1.831655	-1.382296	0.011147	1
H	1.909535	2.984914	-0.001923	1
Es	-0.909262	-0.333651	0.034253	99
Es	0.335302	-0.630348	-0.115340	99
Es	0.698923	-1.278214	-0.016852	99
Es	0.845177	1.759344	-0.022095	99
Es	0.434843	0.433813	0.019826	99
Es	1.092066	1.509501	0.131702	99
Es	0.160512	-0.382395	0.047679	99
Es	-1.566905	0.459146	0.001488	99
Es	0.779883	1.035817	-0.004254	99
Es	-1.693146	-0.542455	-0.044036	99
Es	0.425971	-0.766467	0.085322	99
Es	0.401004	-2.023364	0.005710	99
Es	1.658392	2.595465	-0.011510	99
Es	-1.523870	-0.357800	-0.035776	99
Es	1.443358	-1.377420	0.024069	99
Es	1.342632	1.405055	-0.105313	99
Es	1.365794	2.070094	-0.018052	99
Es	-1.448967	-0.264787	0.018789	99
