31
Properties=species:S:1:pos:R:3:Z:I:1 energy=-209.99567799656796 field_type=dipole dipole="0.000000 0.000000 0.000000" charge=0
C	-0.781357	-1.806843	-0.507954	6
C	-0.722337	-0.753833	0.318676	6
C	0.410463	0.156018	0.464576	6
C	0.595613	1.264767	-0.538624	6
N	0.101103	1.541378	0.804196	7
H	-1.668676	-2.429913	-0.549114	1
H	0.048363	-2.061603	-1.158674	1
H	-1.588937	-0.550163	0.946626	1
H	1.292953	-0.264403	0.935996	1
H	-0.124237	1.373637	-1.340434	1
H	1.601253	1.593807	-0.766424	1
H	0.835793	1.937148	1.391156	1
Es	-0.658055	-1.418482	0.218633	99
Es	0.094038	1.398322	0.797596	99
Es	-0.288703	-1.928130	-0.945283	99
Es	0.146358	0.001877	0.461147	99
Es	0.398737	0.390161	0.252066	99
Es	-0.388023	-0.396020	0.528496	99
Es	0.406953	0.739304	-0.449236	99
Es	1.071420	1.442890	-0.555172	99
Es	0.280692	1.267661	0.341067	99
Es	0.468869	1.579858	0.297889	99
Es	-0.735134	-0.809518	-0.113183	99
Es	-1.363941	-2.235886	-0.522344	99
Es	0.258124	0.744299	0.626328	99
Es	-0.532327	-0.636253	0.355507	99
Es	0.440227	1.276984	0.030537	99
Es	-0.748210	-1.813461	-0.534898	99
Es	0.372009	1.798732	1.102557	99
Es	0.463984	1.105187	-0.575680	99
Es	-0.804965	-0.702609	0.465616	99
