38
Properties=species:S:1:pos:R:3:Z:I:1 energy=-196.40193774007383 field_type=dipole dipole="0.000000 0.000000 0.000000" charge=0
C	-1.729139	-1.113072	-0.273524	6
C	-0.211139	-1.018732	-0.213534	6
C	0.318261	0.424278	-0.270774	6
C	-0.130629	1.257778	0.930316	6
C	1.846721	0.413988	-0.350404	6
H	-2.037509	-2.162112	-0.334314	1
H	-2.121289	-0.593812	-1.153903	1
H	-2.194659	-0.684672	0.619046	1
H	0.198701	-1.584893	-1.059134	1
H	0.142681	-1.514722	0.698466	1
H	-0.062059	0.903297	-1.181834	1
H	0.171491	0.790097	1.873576	1
H	-1.217479	1.383398	0.944166	1
H	0.310581	2.260007	0.894146	1
H	2.288391	-0.050542	0.538046	1
H	2.239801	1.433278	-0.430784	1
H	2.187281	-0.143562	-1.229563	1
Es	-1.419667	-1.195369	-0.261933	99
Es	0.154449	0.910668	0.846036	99
Es	-0.785776	1.323366	0.962435	99
Es	-0.882544	-1.161795	-0.258682	99
Es	-0.154520	-0.480331	-0.318529	99
Es	1.959835	0.530078	-0.253639	99
Es	2.030071	0.092842	-0.853619	99
Es	0.003675	0.931436	0.712027	99
Es	0.133196	1.790222	0.877824	99
Es	-1.060586	-1.030401	-0.311826	99
Es	-0.027886	0.964557	0.509042	99
Es	0.044733	-0.287620	-0.262637	99
Es	1.936365	0.245383	-0.190412	99
Es	-1.904517	-0.841558	-0.053758	99
Es	0.754238	0.441033	-0.145692	99
Es	2.171516	0.803764	-0.185076	99
Es	0.280203	0.516334	0.045441	99
Es	-1.031472	-1.105465	-0.357137	99
Es	-1.973090	-1.474725	-0.260008	99
Es	0.128694	0.007493	-0.238426	99
Es	-0.118538	-1.068308	-0.437549	99
