40
Properties=species:S:1:pos:R:3:Z:I:1 energy=-266.26382611244725 field_type=dipole dipole="0.000000 0.000000 0.000000" charge=0
C	0.792495	1.199234	-0.317192	6
C	-0.680385	1.206534	0.148258	6
N	-1.416225	0.001684	-0.262432	7
C	-0.681075	-1.207856	0.132868	6
C	0.791115	-1.195646	-0.332412	6
N	1.526845	-0.001446	0.122938	7
H	0.839145	1.271944	-1.411152	1
H	1.300455	2.085345	0.078868	1
H	-1.183595	2.085764	-0.268082	1
H	-0.717905	1.300644	1.240758	1
H	-2.338325	-0.000066	0.169798	1
H	-0.719125	-1.315666	1.224128	1
H	-1.185315	-2.081125	-0.294572	1
H	1.298595	-2.086976	0.052688	1
H	0.838115	-1.254676	-1.427022	1
H	1.535185	-0.007696	1.142558	1
Es	1.320606	-0.734899	0.057932	99
Es	1.206009	-0.132318	0.178755	99
Es	1.086365	0.685887	-0.147589	99
Es	-1.445371	-0.304309	-0.030178	99
Es	-1.582468	0.111059	-0.318613	99
Es	-0.419751	-1.224666	0.150625	99
Es	-0.882952	0.608531	-0.056244	99
Es	1.097483	1.800874	-0.072391	99
Es	-1.410826	-0.061122	-0.130540	99
Es	-0.819977	1.522315	0.021846	99
Es	-0.736072	-1.540300	0.120076	99
Es	0.730410	-1.126013	-0.226291	99
Es	-0.669121	1.141463	0.175537	99
Es	-0.408877	1.055233	0.390802	99
Es	0.969792	-1.069679	-0.380878	99
Es	-1.333252	0.013052	-0.222122	99
Es	1.465899	0.306885	-0.172759	99
Es	0.627821	-1.224154	-0.276231	99
Es	-0.758290	-1.490309	0.109460	99
Es	1.135094	0.696020	-0.476744	99
Es	0.923473	0.942450	-0.220556	99
Es	0.073527	-1.311628	-0.010646	99
Es	-0.637092	1.457170	-0.016658	99
Es	1.474563	-0.114329	0.051313	99
