35
Properties=species:S:1:pos:R:3:Z:I:1 energy=-247.83234818478323 field_type=dipole dipole="0.000000 0.000000 0.000000" charge=0
C	-2.697310	-0.013152	-0.536477	6
C	-1.497831	0.000768	-0.538277	6
C	-0.049941	0.017878	-0.545807	6
C	0.634299	1.028908	0.400353	6
N	1.651659	-0.005142	0.719383	7
C	0.658509	-1.038702	0.330173	6
H	-3.763641	-0.025542	-0.533087	1
H	0.364059	0.057248	-1.563427	1
H	0.045019	1.334558	1.273883	1
H	1.035339	1.927348	-0.078757	1
H	2.462500	0.025378	0.099963	1
H	1.080090	-1.892962	-0.208427	1
H	0.077250	-1.416592	1.180503	1
Es	-3.238524	-0.055865	-0.663612	99
Es	-2.595988	-0.004010	-0.599959	99
Es	-0.800574	0.043544	-0.382556	99
Es	1.685448	-0.067025	0.859665	99
Es	0.881109	-1.487457	0.004952	99
Es	0.517070	-0.345659	-0.000474	99
Es	0.546280	0.533757	0.164583	99
Es	0.191347	-0.649536	0.075815	99
Es	0.075554	0.578827	-0.151386	99
Es	0.675485	0.668199	0.487013	99
Es	-1.717953	0.027879	-0.435660	99
Es	0.557939	-0.431105	0.125295	99
Es	1.311091	-0.468448	0.490677	99
Es	0.613316	0.891375	0.268852	99
Es	-1.715437	-0.030476	-0.444071	99
Es	0.395356	-0.899668	0.342095	99
Es	0.862852	1.508609	0.285573	99
Es	-2.158203	0.223789	-0.620435	99
Es	0.018472	0.161291	-0.400459	99
Es	1.958063	0.037471	0.409436	99
Es	-2.202472	-0.255690	-0.629422	99
Es	1.692135	-0.010877	0.883481	99
