35
Properties=species:S:1:pos:R:3:Z:I:1 energy=-247.8370995951338 field_type=dipole dipole="0.000000 0.000000 0.000000" charge=0
C	0.918026	-2.591733	0.253345	6
C	0.104806	-1.722743	0.254435	6
C	-0.881864	-0.668403	0.255755	6
C	-0.087734	0.597797	0.365905	6
C	0.412706	1.308357	-0.867145	6
N	-0.691924	1.856397	-0.086815	7
H	1.644586	-3.371463	0.251085	1
H	-1.557504	-0.758963	1.112525	1
H	-1.488904	-0.692403	-0.655845	1
H	0.490606	0.662117	1.281205	1
H	0.153866	0.909917	-1.841264	1
H	1.358506	1.833207	-0.814144	1
H	-0.375174	2.637917	0.490955	1
Es	0.814393	-2.463350	-0.024470	99
Es	-0.113485	1.200886	-0.268145	99
Es	-0.499112	1.894772	-0.064445	99
Es	-0.157306	1.597693	-0.302926	99
Es	0.071438	0.646497	-0.195331	99
Es	0.893242	1.594796	-0.840921	99
Es	-0.449010	0.060477	0.300433	99
Es	0.703431	-2.364065	0.270195	99
Es	0.024674	-1.630652	0.244435	99
Es	-0.322734	0.249306	0.192347	99
Es	-1.324349	-0.742542	0.810108	99
Es	0.136987	0.949203	-0.212091	99
Es	-0.525342	-0.053129	0.115133	99
Es	0.313619	-2.450784	0.353955	99
Es	0.665984	-1.962357	0.363640	99
Es	-0.674026	1.960601	-0.076903	99
Es	-0.561142	-0.954503	0.294413	99
Es	-0.220169	1.356335	-0.119133	99
Es	-0.694776	1.863234	-0.111567	99
Es	0.147621	1.017851	-0.910293	99
Es	1.209454	-2.877126	0.264942	99
Es	-0.476535	-1.055429	0.251038	99
