41
Properties=species:S:1:pos:R:3:Z:I:1 energy=-250.26004755730781 field_type=dipole dipole="0.000000 0.000000 0.000000" charge=0
C	-1.784543	-1.888910	-1.033446	6
C	-0.803993	-1.593760	0.090514	6
C	-0.453733	-0.135200	0.142654	6
C	0.794257	0.339460	-0.003066	6
C	1.158978	1.787800	0.045314	6
N	2.116198	2.008800	1.116884	7
H	-2.029553	-2.955740	-1.050916	1
H	-1.361773	-1.622470	-2.007866	1
H	-2.717543	-1.330900	-0.902256	1
H	0.093597	-2.209470	-0.042956	1
H	-1.250383	-1.882870	1.048854	1
H	-1.275543	0.555600	0.321524	1
H	1.617127	-0.351070	-0.178266	1
H	0.278717	2.420840	0.199494	1
H	1.610037	2.075080	-0.910466	1
H	1.668488	1.782010	2.003603	1
H	2.339667	3.000800	1.160404	1
Es	0.251590	0.098161	0.418368	99
Es	-0.902919	-1.250505	0.159072	99
Es	-1.165350	-1.859875	-0.486355	99
Es	0.008816	0.095258	-0.223907	99
Es	-0.758404	-1.725793	0.241395	99
Es	-1.600471	-1.742796	-1.051640	99
Es	1.169620	0.149249	-0.029036	99
Es	0.913368	1.736115	-0.014219	99
Es	1.905123	1.768566	0.887368	99
Es	0.983336	1.909846	0.049846	99
Es	2.104985	2.087477	1.189282	99
Es	1.073556	1.771570	0.024083	99
Es	-1.868572	-1.619834	-1.197918	99
Es	1.894842	1.946963	1.132998	99
Es	-0.693153	-1.693457	0.021710	99
Es	2.242352	1.987354	1.106499	99
Es	-0.594644	-1.265855	0.096088	99
Es	-2.072256	-1.698109	-0.929776	99
Es	1.261855	1.413483	-0.248815	99
Es	1.998306	2.429817	1.102760	99
Es	-1.960860	-2.585487	-1.051780	99
Es	-0.843728	0.023861	0.141751	99
Es	0.815355	0.359956	-0.028057	99
Es	-0.410924	-0.102921	0.123129	99
