41
Properties=species:S:1:pos:R:3:Z:I:1 energy=-250.2297163944218 field_type=dipole dipole="0.000000 0.000000 0.000000" charge=0
C	-2.337223	-0.804657	-0.574419	6
C	-0.826343	-0.764177	-0.747729	6
C	-0.222303	0.479863	-0.091189	6
N	1.228067	0.501123	-0.307319	7
C	1.939307	1.341103	0.649961	6
C	1.990267	-0.162267	0.746081	6
H	-2.747303	-1.705497	-1.040379	1
H	-2.808163	0.065433	-1.042759	1
H	-2.610263	-0.815307	0.485001	1
H	-0.588013	-0.779197	-1.817940	1
H	-0.394413	-1.670857	-0.306329	1
H	-0.499803	0.506553	0.971131	1
H	-0.653623	1.377033	-0.552549	1
H	1.368187	1.889673	1.389101	1
H	2.812997	1.855953	0.267311	1
H	2.895697	-0.662367	0.424531	1
H	1.452936	-0.652407	1.547501	1
Es	1.548799	0.836401	0.207521	99
Es	-2.602181	-1.054341	-0.914178	99
Es	-2.227706	-0.633248	-0.509370	99
Es	-2.180240	-0.734786	-0.572810	99
Es	-0.970807	-0.481624	-0.586596	99
Es	-0.273711	0.693058	-0.101165	99
Es	1.785615	1.217773	0.641507	99
Es	-1.862078	-0.854151	-0.629913	99
Es	0.274849	0.496642	-0.037744	99
Es	1.002015	0.322376	-0.079053	99
Es	-0.502148	0.003084	-0.317459	99
Es	1.426000	0.401766	0.287652	99
Es	-0.046223	0.718162	-0.144532	99
Es	2.334155	1.322506	0.560162	99
Es	2.035708	0.336445	0.677004	99
Es	1.517454	0.028019	0.432604	99
Es	1.997166	0.431988	0.547880	99
Es	1.958611	-0.105870	0.579170	99
Es	1.914981	-0.160214	0.335890	99
Es	1.994078	1.539656	0.743084	99
Es	-0.771447	-0.615596	-0.634442	99
Es	-0.480726	-0.053251	-0.506921	99
Es	-2.218600	-0.648552	-0.603462	99
Es	-0.572134	-1.278813	-0.469730	99
