34
Properties=species:S:1:pos:R:3:Z:I:1 energy=-263.8693621586424 field_type=dipole dipole="0.000000 0.000000 0.000000" charge=0
C	-2.313547	-1.452732	-0.024046	6
C	-0.984647	-1.311482	0.019324	6
C	-0.377697	0.033768	-0.016486	6
N	0.904883	0.197848	0.024824	7
N	1.231273	1.550158	-0.021786	7
C	2.511053	1.707948	0.021224	6
H	-2.760547	-2.441652	0.002334	1
H	-2.986417	-0.603142	-0.085896	1
H	-0.310197	-2.157182	0.081144	1
H	-1.074037	0.889608	-0.080026	1
H	2.939273	2.721428	-0.006556	1
H	3.220603	0.865428	0.085944	1
Es	1.143379	-0.054108	0.045144	99
Es	-2.720755	-0.929655	-0.061895	99
Es	0.987007	1.031786	-0.008356	99
Es	-0.377740	0.033693	-0.016485	99
Es	0.405457	0.156995	0.007432	99
Es	-1.598607	-1.333244	-0.002998	99
Es	1.821979	1.606461	-0.000704	99
Es	-0.842727	0.598202	-0.058642	99
Es	-0.567977	-1.842084	0.057993	99
Es	-1.651265	-1.380127	-0.002265	99
Es	0.904426	0.198261	0.024789	99
Es	2.973476	1.158360	0.063267	99
Es	1.231748	1.549684	-0.021747	99
Es	2.824912	2.378755	0.003913	99
Es	-2.670627	-2.069093	-0.010539	99
Es	-0.984545	-1.311406	0.019324	99
Es	1.740484	1.579605	-0.003581	99
Es	-2.313652	-1.452745	-0.024049	99
Es	0.312236	0.139221	0.004951	99
Es	1.073194	1.641627	-0.031972	99
Es	2.511094	1.707984	0.021224	99
Es	-0.650202	-0.668456	0.003845	99
