39
Properties=species:S:1:pos:R:3:Z:I:1 energy=-233.09144520034334 field_type=dipole dipole="0.000000 0.000000 0.000000" charge=0
C	-1.559233	0.002685	0.837600	6
C	-0.028243	-0.005215	0.795310	6
C	0.503267	-1.224155	0.023080	6
C	0.799097	-0.663805	-1.329810	6
C	0.806127	0.672585	-1.322650	6
C	0.515547	1.218255	0.039310	6
H	-1.924393	0.883405	1.376250	1
H	-1.934333	-0.886045	1.355920	1
H	-1.994243	0.016775	-0.167340	1
H	0.338027	-0.013735	1.828920	1
H	-0.226003	-2.038365	-0.026970	1
H	1.425797	-1.606895	0.472950	1
H	1.014007	-1.275465	-2.195670	1
H	1.027717	1.293395	-2.179510	1
H	1.442267	1.586015	0.493520	1
H	-0.205403	2.040565	-0.000910	1
Es	-0.409255	0.104609	0.562884	99
Es	0.639313	0.797352	-0.446828	99
Es	0.496203	0.215821	-0.357880	99
Es	1.029475	0.697607	-1.643831	99
Es	-0.859820	0.118388	0.839274	99
Es	0.275655	-0.437089	0.006073	99
Es	0.739325	-0.293207	-1.038406	99
Es	0.475012	0.951494	0.132471	99
Es	0.441067	0.457211	-0.211446	99
Es	0.671965	-0.986915	-0.559140	99
Es	0.602131	0.490182	-0.507293	99
Es	-0.725928	-0.054229	0.659125	99
Es	-1.371441	0.429815	1.183729	99
Es	0.749387	-0.999601	-0.259110	99
Es	0.128272	-1.598112	0.165886	99
Es	0.986589	-0.623391	-1.573507	99
Es	-1.711680	-0.574165	1.216141	99
Es	0.617944	-0.813047	-0.680396	99
Es	0.298707	1.731020	0.108191	99
Es	-0.614820	0.158818	0.701212	99
Es	0.473681	-0.824679	-0.382836	99
Es	-1.194272	0.164889	1.076790	99
Es	0.844928	0.888360	-1.409719	99
