39
Properties=species:S:1:pos:R:3:Z:I:1 energy=-233.0545727111277 field_type=dipole dipole="0.000000 0.000000 0.000000" charge=0
C	-2.527990	-1.322309	-0.070224	6
C	-1.571180	-0.503419	-0.526014	6
C	-0.605170	0.236151	0.355346	6
C	0.832280	-0.112329	0.093176	6
C	1.702560	0.782991	-0.752524	6
C	1.928130	0.701861	0.731786	6
H	-3.198080	-1.831239	-0.756214	1
H	-2.664970	-1.505329	0.991446	1
H	-1.471980	-0.348939	-1.598124	1
H	-0.820670	0.028811	1.410776	1
H	-0.769020	1.311581	0.212306	1
H	0.991260	-1.184529	0.039096	1
H	1.281670	1.699801	-1.149614	1
H	2.431970	0.314101	-1.402854	1
H	2.807680	0.174631	1.084576	1
H	1.653510	1.558171	1.337066	1
Es	-2.298043	-0.855042	-0.406906	99
Es	-0.137957	0.079331	0.290968	99
Es	-0.610696	0.057860	0.804502	99
Es	1.015341	0.218268	-0.082144	99
Es	-1.496135	-0.428992	-1.196726	99
Es	-2.463385	-1.193672	-0.050576	99
Es	-2.715298	-1.511975	-0.241829	99
Es	-2.584432	-1.317905	0.414160	99
Es	-1.976506	-0.914227	-0.304894	99
Es	-1.052673	-0.103869	0.018712	99
Es	1.826502	0.775864	0.488092	99
Es	1.975650	0.754714	-0.637887	99
Es	1.496953	0.439643	0.219688	99
Es	1.778224	0.635617	-0.527323	99
Es	-0.066367	0.029994	0.183121	99
Es	-1.654944	-0.705242	-0.428523	99
Es	1.960654	0.781860	0.206916	99
Es	-0.157558	0.106895	0.245683	99
Es	1.798689	0.683295	0.767794	99
Es	2.124297	0.646986	0.674307	99
Es	-0.108407	0.086580	0.268378	99
Es	1.598542	0.867271	-0.834117	99
Es	1.110202	0.305812	-0.296859	99
