37
Properties=species:S:1:pos:R:3:Z:I:1 energy=-265.0263462242818 field_type=dipole dipole="0.000000 0.000000 0.000000" charge=0
N	-2.793689	-0.376509	-0.223938	7
N	-1.493409	-0.726099	-0.357828	7
C	-0.717889	-0.116119	0.476612	6
C	0.726041	-0.422339	0.419602	6
C	1.550171	0.045381	-0.755138	6
C	1.736521	0.686131	0.588412	6
H	-3.368059	-1.015339	-0.780448	1
H	-2.962049	0.544801	-0.636238	1
H	-1.068999	0.608271	1.233202	1
H	0.984321	-1.389699	0.839042	1
H	1.054391	0.614791	-1.533548	1
H	2.325221	-0.618719	-1.120238	1
H	2.645631	0.462791	1.135332	1
H	1.381801	1.702661	0.715172	1
Es	1.312540	0.229162	0.277032	99
Es	-1.717193	-0.539432	-0.282296	99
Es	1.922116	0.705028	0.728216	99
Es	1.168910	-0.103672	-0.132627	99
Es	-0.565364	-0.142634	0.473948	99
Es	0.952961	-0.291076	0.037296	99
Es	-0.220322	-0.090486	0.427670	99
Es	1.959271	0.661425	0.739863	99
Es	1.158206	0.329978	0.766799	99
Es	1.159019	-0.164795	-0.228381	99
Es	-1.055164	-0.130337	0.273708	99
Es	-1.153930	-0.399369	-0.117647	99
Es	-2.286933	-0.401584	-0.427755	99
Es	-2.585948	-0.357151	-0.340193	99
Es	-1.144502	-0.136681	0.582658	99
Es	1.825382	-0.127950	-0.676260	99
Es	1.922940	0.250255	-0.283938	99
Es	1.148542	-0.135982	-0.696678	99
Es	-2.581254	-0.427436	-0.158725	99
Es	-2.991312	-0.626728	-0.234041	99
Es	-2.517965	-0.453296	-0.274363	99
Es	1.391535	0.164436	0.074137	99
Es	-1.752833	-0.773736	-0.434023	99
