37
Properties=species:S:1:pos:R:3:Z:I:1 energy=-268.8960110983073 field_type=dipole dipole="0.000000 0.000000 0.000000" charge=0
C	1.013805	1.181994	-0.618117	6
C	-0.149135	0.861114	0.283733	6
C	-1.177185	-0.132516	-0.147527	6
C	-0.509885	-1.485146	0.103803	6
O	0.909645	-1.253156	0.045793	8
C	1.145015	0.122344	0.430253	6
H	0.979565	0.868484	-1.654837	1
H	1.537215	2.116964	-0.457127	1
H	-0.454285	1.545104	1.059933	1
H	-2.117025	-0.042636	0.405803	1
H	-1.398175	-0.006536	-1.213747	1
H	-0.747595	-1.861466	1.104403	1
H	-0.797415	-2.234726	-0.638437	1
H	1.765455	0.320174	1.296073	1
Es	0.619344	1.370508	-0.255655	99
Es	-1.401648	-0.141546	-0.329695	99
Es	-0.389732	-1.286050	0.104902	99
Es	-0.059245	1.091759	0.150739	99
Es	1.095405	0.507434	-0.077805	99
Es	0.956567	-1.101245	0.202923	99
Es	0.775558	0.760380	-0.249088	99
Es	0.572519	1.142278	-0.278574	99
Es	0.480102	0.075372	0.427751	99
Es	-0.726662	-1.958023	0.058639	99
Es	-0.775654	-1.242292	0.120678	99
Es	0.688276	-0.860423	0.032332	99
Es	-1.390448	-0.280481	0.086403	99
Es	0.918249	-1.218277	0.021887	99
Es	-0.519888	0.552848	-0.003519	99
Es	1.285307	0.595173	-0.211470	99
Es	1.057669	1.502230	-0.430862	99
Es	-1.086826	-0.024652	0.019898	99
Es	0.635307	-1.464072	0.228259	99
Es	0.523437	0.412876	0.184668	99
Es	0.530229	-0.176038	0.174993	99
Es	-0.767146	-1.028896	-0.036027	99
Es	1.114099	-0.379078	0.300469	99
