35
Properties=species:S:1:pos:R:3:Z:I:1 energy=-304.7519356424962 field_type=dipole dipole="0.000000 0.000000 0.000000" charge=0
C	-1.373682	-0.000998	0.966272	6
C	0.117058	-0.007938	0.668172	6
O	0.449808	-1.203828	-0.079618	8
C	1.039528	-0.652618	-1.190789	6
C	1.048218	0.663822	-1.176978	6
O	0.465888	1.198932	-0.054228	8
H	-1.652572	0.887362	1.541192	1
H	-1.665662	-0.899358	1.518692	1
H	-1.953142	0.014932	0.036412	1
H	0.689648	-0.021588	1.604012	1
H	1.408398	-1.339438	-1.930658	1
H	1.426508	1.360722	-1.902478	1
Es	0.639837	0.985599	-0.389575	99
Es	-0.097890	-0.128220	0.620341	99
Es	1.369520	1.066325	-1.619189	99
Es	1.012147	-0.753054	-1.090154	99
Es	0.321998	1.129182	-0.079194	99
Es	-0.750699	0.025311	0.905301	99
Es	0.699237	-0.941070	-0.548730	99
Es	0.484535	1.179701	-0.075167	99
Es	0.526342	-0.815118	-0.068704	99
Es	1.055140	-0.005433	-1.120983	99
Es	0.985031	0.550434	-1.105006	99
Es	0.257189	0.765650	0.126042	99
Es	-1.343674	0.269992	1.098557	99
Es	-1.013860	0.013749	0.636466	99
Es	-1.341983	0.239931	1.116649	99
Es	1.071386	0.124614	-1.083183	99
Es	0.432090	1.219796	0.252360	99
Es	0.331451	-0.911129	0.017184	99
Es	1.286415	-1.069608	-1.574435	99
Es	0.237985	-0.862247	0.038961	99
Es	0.163146	-0.276224	0.324306	99
Es	0.557936	-1.254854	-0.011889	99
Es	-1.600271	-0.565164	1.359861	99
