43
Properties=species:S:1:pos:R:3:Z:I:1 energy=-271.29006081898325 field_type=dipole dipole="0.000000 0.000000 0.000000" charge=0
C	-2.286562	-1.282481	-0.114359	6
C	-0.767452	-1.214251	-0.107909	6
C	-0.272962	0.234769	-0.102809	6
C	1.256758	0.322599	-0.119509	6
C	1.732578	1.768199	-0.169679	6
O	1.795918	-0.295231	1.045841	8
H	-2.619152	-2.325311	-0.118729	1
H	-2.698202	-0.790971	-1.001809	1
H	-2.704792	-0.796461	0.773091	1
H	-0.380613	-1.735061	-0.991249	1
H	-0.391943	-1.745831	0.773511	1
H	-0.660462	0.733569	0.794851	1
H	-0.680052	0.763029	-0.973799	1
H	1.651498	-0.215421	-0.988239	1
H	1.386758	2.327079	0.706941	1
H	1.373898	2.273899	-1.071249	1
H	2.827038	1.809949	-0.157219	1
H	1.437748	0.167919	1.822321	1
Es	1.768138	0.027165	0.826273	99
Es	1.436669	2.133898	-0.633377	99
Es	-0.101426	-0.095274	0.227254	99
Es	1.826492	-0.131751	0.945041	99
Es	-2.299721	-1.340979	-0.038922	99
Es	-0.133982	0.044134	-0.052637	99
Es	-0.566065	-1.580636	0.353914	99
Es	-0.657682	-0.846889	-0.289538	99
Es	-1.815489	-1.203944	-0.002121	99
Es	1.761283	-0.139139	0.914759	99
Es	1.338299	0.154170	0.077032	99
Es	-0.727719	-1.103819	-0.143856	99
Es	-2.480030	-0.954592	-0.543425	99
Es	1.634591	1.902009	-0.012512	99
Es	1.672101	1.892768	0.050908	99
Es	1.175854	0.146044	0.006658	99
Es	1.378117	0.089882	0.237586	99
Es	0.069367	0.104933	-0.070989	99
Es	1.664982	-0.425797	1.053108	99
Es	1.493564	0.642953	0.130524	99
Es	-2.374817	-1.710378	-0.101760	99
Es	-0.183750	0.097521	-0.121294	99
Es	-2.175773	-1.240914	-0.020682	99
Es	-0.549875	0.160419	-0.497714	99
Es	2.398975	1.790157	-0.151406	99
