31
Properties=species:S:1:pos:R:3:Z:I:1 energy=-266.5282102605148 field_type=dipole dipole="0.000000 0.000000 0.000000" charge=0
C	-0.987833	-1.326803	-0.118433	6
C	0.336597	-1.173323	-0.241673	6
C	1.053127	0.122127	-0.097983	6
O	2.272487	0.151077	-0.230953	8
C	0.356717	1.358717	0.195387	6
C	-0.211183	2.389467	0.438507	6
H	-1.436973	-2.308463	-0.237943	1
H	-1.658273	-0.501953	0.100547	1
H	0.978637	-2.020253	-0.461273	1
H	-0.703303	3.309407	0.653817	1
Es	0.338031	-1.139153	-0.224300	99
Es	1.051898	0.123858	-0.097486	99
Es	-0.216270	-1.189515	-0.180720	99
Es	1.771641	0.220637	-0.142586	99
Es	1.884123	0.147827	-0.197095	99
Es	0.642235	-0.554777	-0.170161	99
Es	2.434818	0.380526	-0.181189	99
Es	0.356980	1.359196	0.196073	99
Es	-0.330619	-1.237659	-0.189690	99
Es	0.681146	0.767150	0.058720	99
Es	-0.247640	1.706875	0.342509	99
Es	0.112046	1.795533	0.316269	99
Es	2.279212	0.103551	-0.267317	99
Es	-0.988313	-1.327885	-0.118472	99
Es	0.373115	2.061382	0.275228	99
Es	0.777684	-1.733254	-0.386756	99
Es	-1.282048	-1.968008	-0.198784	99
Es	-0.555797	2.966344	0.578112	99
Es	-1.448480	-0.778214	0.028108	99
Es	2.309198	-0.112711	-0.289526	99
Es	-0.209828	2.386614	0.437924	99
