39
Properties=species:S:1:pos:R:3:Z:I:1 energy=-286.07605335829555 field_type=dipole dipole="0.000000 0.000000 0.000000" charge=0
C	-1.666705	0.041625	-0.024597	6
C	-0.175184	-0.053385	0.162073	6
N	0.291036	-0.058855	1.570223	7
C	0.625096	-0.836235	-0.850097	6
C	0.701005	0.661115	-0.851787	6
O	1.907776	1.229195	-0.312427	8
H	-1.947064	0.066575	-1.083037	1
H	-2.052875	0.951175	0.446893	1
H	-2.162575	-0.821165	0.432343	1
H	1.216176	-0.485135	1.629153	1
H	-0.310674	-0.660845	2.133873	1
H	0.102206	-1.310225	-1.672727	1
H	1.504845	-1.381975	-0.530917	1
H	0.222235	1.189395	-1.669347	1
H	1.744705	1.468745	0.620383	1
Es	1.359423	0.691082	-0.434339	99
Es	0.776783	0.157363	0.621986	99
Es	0.160886	-0.109141	1.553555	99
Es	-0.618449	-0.029953	0.272456	99
Es	-0.087183	-0.048569	1.088739	99
Es	1.899019	1.114924	-0.343065	99
Es	-1.659374	-0.035178	-0.269347	99
Es	0.156817	0.215069	0.025088	99
Es	-0.690179	-0.019374	0.413532	99
Es	-0.721401	-0.018482	-0.134466	99
Es	1.270745	0.460501	-0.481451	99
Es	-1.803152	-0.454163	0.146999	99
Es	0.044105	0.011116	1.732253	99
Es	0.020276	-0.107062	0.506730	99
Es	0.738629	0.221852	-0.374779	99
Es	-0.455133	-0.541176	-0.801933	99
Es	1.999937	1.206703	-0.214580	99
Es	0.298294	0.073476	-0.744398	99
Es	1.312598	0.453057	-0.412208	99
Es	1.223746	0.550734	-0.234867	99
Es	0.826978	0.088162	-0.731928	99
Es	0.496841	-0.061906	-0.663368	99
Es	-1.122652	-0.159285	-0.323362	99
Es	1.019445	0.177445	-0.550796	99
