39
Properties=species:S:1:pos:R:3:Z:I:1 energy=-286.0578555592229 field_type=dipole dipole="0.000000 0.000000 0.000000" charge=0
C	-0.640772	-1.865687	-1.158042	6
O	-0.411952	-1.321837	0.133218	8
C	0.373028	-0.108257	0.169728	6
C	-0.317392	1.205373	-0.259932	6
N	0.353438	1.900723	0.863548	7
C	0.492628	0.589453	1.542628	6
H	-1.226682	-2.782247	-1.051332	1
H	0.311448	-2.107327	-1.639032	1
H	-1.201482	-1.156417	-1.773422	1
H	1.352738	-0.256957	-0.305142	1
H	-1.410602	1.195303	-0.177562	1
H	-0.044592	1.577533	-1.251792	1
H	1.249728	2.314503	0.605098	1
H	1.444618	0.446663	2.062198	1
H	-0.324152	0.369183	2.239838	1
Es	0.918033	0.516753	1.815670	99
Es	0.371137	0.113961	0.539912	99
Es	-0.344628	-1.774752	-0.872110	99
Es	-0.407264	-1.244605	0.072461	99
Es	0.075854	1.645571	0.349219	99
Es	0.279039	2.145655	0.996106	99
Es	-0.338979	1.286615	-0.667346	99
Es	0.396730	1.299588	1.204748	99
Es	0.244283	0.591592	1.745494	99
Es	0.187497	-0.326044	0.160623	99
Es	0.035933	-0.369611	0.060438	99
Es	-0.302051	0.842639	-0.107028	99
Es	-0.862248	-2.438117	-1.123038	99
Es	-0.733875	-1.586379	-1.452433	99
Es	0.707632	1.861925	0.809780	99
Es	-0.773671	-1.683598	-1.335670	99
Es	-0.307646	-1.232443	0.037971	99
Es	-0.364158	-1.636313	-0.199553	99
Es	0.122278	-0.075380	0.301244	99
Es	0.505612	0.588182	1.392820	99
Es	0.331487	1.826355	0.900859	99
Es	0.071025	0.619638	-0.047708	99
Es	-0.246840	1.202155	-0.407478	99
Es	-0.311745	-1.504854	-0.190881	99
