39
Properties=species:S:1:pos:R:3:Z:I:1 energy=-286.077418052885 field_type=dipole dipole="0.000000 0.000000 0.000000" charge=0
N	-1.876531	0.174716	-0.428333	7
C	-0.426331	0.180616	-0.573893	6
C	0.185039	1.201896	0.405637	6
C	1.243799	0.126986	0.743837	6
C	0.200939	-0.937244	0.315057	6
O	0.704969	-2.099134	-0.373963	8
H	-2.314271	-0.670024	-0.796323	1
H	-2.340331	0.956506	-0.887403	1
H	-0.052661	0.225406	-1.601483	1
H	-0.438951	1.474456	1.266337	1
H	0.576499	2.116886	-0.047963	1
H	2.136019	0.163976	0.108797	1
H	1.553679	0.091066	1.791277	1
H	-0.428591	-1.252734	1.158547	1
H	1.276729	-1.753374	-1.080133	1
Es	0.511894	0.239554	0.186331	99
Es	0.211981	-0.463811	0.340622	99
Es	-0.724915	0.309627	-0.329743	99
Es	-2.151696	0.503071	-0.760786	99
Es	-1.612517	0.095208	-0.558087	99
Es	0.282275	1.541803	0.436880	99
Es	0.635259	-2.082433	-0.468618	99
Es	1.224370	-0.003666	0.829699	99
Es	-1.539323	0.235183	-0.338533	99
Es	-0.247645	-0.522370	0.001903	99
Es	0.263641	-0.953476	0.147554	99
Es	-1.397344	-0.068912	-0.706408	99
Es	1.714779	0.064094	0.588745	99
Es	-1.931783	0.061283	-0.464299	99
Es	0.736071	-2.043239	-0.401828	99
Es	-0.270682	-0.123327	-0.348244	99
Es	0.602976	-1.346481	-0.119258	99
Es	1.108663	0.426881	0.856302	99
Es	0.745511	-0.822876	0.224397	99
Es	0.000353	1.341168	0.614350	99
Es	0.677522	-2.358425	-0.287048	99
Es	0.298626	0.942524	0.464916	99
Es	0.012070	0.994023	0.055622	99
Es	0.665529	-1.552004	-0.185646	99
