36
Properties=species:S:1:pos:R:3:Z:I:1 energy=-284.9494448095179 field_type=dipole dipole="0.000000 0.000000 0.000000" charge=0
N	-1.665741	-1.027855	0.446333	7
C	-0.385981	-1.207844	0.022473	6
O	-0.014321	-2.211545	-0.566607	8
C	0.550179	-0.112255	0.360503	6
C	1.266429	0.621825	-0.748867	6
C	0.222589	1.332096	0.060683	6
H	-1.958411	-0.208504	0.956273	1
H	-2.335431	-1.759274	0.252283	1
H	1.142629	-0.316035	1.247313	1
H	1.028909	0.354136	-1.773117	1
H	2.306619	0.881855	-0.590617	1
H	0.554559	2.083436	0.768033	1
H	-0.712031	1.569965	-0.434687	1
Es	1.151309	0.536500	-0.694494	99
Es	0.816945	0.178047	0.048709	99
Es	-0.047326	-2.122136	-0.493002	99
Es	0.026110	-2.026056	-0.382979	99
Es	-0.223188	-1.916230	-0.287720	99
Es	0.120601	1.318119	0.055255	99
Es	1.866719	0.891631	-0.610293	99
Es	0.925877	0.868088	-0.441404	99
Es	-1.700186	-0.805236	0.417028	99
Es	0.168456	1.251153	0.087766	99
Es	0.540117	-0.150921	0.186124	99
Es	0.306898	0.518681	0.316326	99
Es	-0.995677	-1.117018	0.091091	99
Es	-0.115676	-1.624238	-0.417814	99
Es	-0.761440	-1.321756	-0.032743	99
Es	-1.708310	-0.778946	0.735886	99
Es	-1.762396	-1.258173	0.365874	99
Es	0.136720	-2.423465	-0.687198	99
Es	0.738702	0.236178	0.006858	99
Es	0.041513	-0.759875	0.202425	99
Es	0.111349	1.795803	0.290851	99
Es	-1.465339	-1.216497	0.550979	99
Es	1.090638	0.339771	-0.913727	99
