33
Properties=species:S:1:pos:R:3:Z:I:1 energy=-283.7448625598307 field_type=dipole dipole="0.000000 0.000000 0.000000" charge=0
O	-1.939671	-0.230148	0.365575	8
C	-0.514941	-0.232358	0.544865	6
C	0.250199	-0.982358	-0.505215	6
C	0.278999	0.524762	-0.489705	6
C	1.475179	1.201072	-0.079755	6
N	2.440759	1.744982	0.261975	7
H	-2.390841	0.233102	1.093895	1
H	-0.133521	-0.287738	1.560806	1
H	-0.313361	-1.470488	-1.292305	1
H	1.132979	-1.528778	-0.192735	1
H	-0.285781	1.027952	-1.267405	1
Es	1.831450	1.484211	0.341261	99
Es	0.654289	0.564027	-0.313159	99
Es	0.619638	-0.394549	-0.503851	99
Es	-0.241494	-0.071075	0.152904	99
Es	2.535586	1.945714	0.124736	99
Es	2.104944	1.488609	0.155436	99
Es	2.361148	1.699985	0.226102	99
Es	-1.410193	-0.152082	0.364709	99
Es	1.838642	1.351843	-0.039560	99
Es	-1.641186	-0.216569	0.431825	99
Es	-0.097192	-1.068583	-0.691590	99
Es	-1.975608	-0.106160	0.582640	99
Es	0.076006	-0.662673	-0.287076	99
Es	-1.900058	-0.088779	0.400756	99
Es	-0.003162	0.192332	-0.130854	99
Es	0.273432	0.407951	-0.428499	99
Es	1.833332	1.360394	-0.002867	99
Es	-0.254006	-0.502995	0.012982	99
Es	-2.096754	-0.508174	0.434446	99
Es	0.475295	-0.849067	-0.358538	99
Es	0.113029	0.416099	-0.064724	99
Es	-0.524967	-0.395767	0.302478	99
