44
Properties=species:S:1:pos:R:3:Z:I:1 energy=-304.0889470442223 field_type=dipole dipole="0.000000 0.000000 0.000000" charge=0
C	-1.525855	-0.616874	0.669223	6
C	-0.029655	-0.588624	0.370873	6
C	0.411645	-1.294064	-0.889277	6
C	-0.361475	-1.737344	-1.889767	6
C	0.415585	0.852846	0.239803	6
N	1.333885	1.338906	1.015223	7
N	1.605265	2.639106	0.757353	7
H	-1.734825	-0.112584	1.619813	1
H	-1.893705	-1.645684	0.748443	1
H	-2.108235	-0.099404	-0.101767	1
H	0.497705	-1.047264	1.216353	1
H	1.488605	-1.450624	-0.971477	1
H	-1.439835	-1.619884	-1.894537	1
H	0.083125	-2.233384	-2.748437	1
H	-0.076675	1.460956	-0.543917	1
H	2.457315	2.909016	1.256513	1
H	0.877135	3.244906	1.145583	1
Es	1.575166	2.742154	1.039510	99
Es	1.564836	2.035057	0.746733	99
Es	1.009692	1.174076	0.690118	99
Es	-1.521338	-0.669558	0.455293	99
Es	0.132030	-1.057196	-0.744050	99
Es	0.321143	0.319088	0.300294	99
Es	0.046249	-1.698938	-1.453228	99
Es	0.056344	-1.208998	-0.788553	99
Es	-0.784222	-1.656696	-1.699723	99
Es	0.128524	-0.329332	0.264592	99
Es	1.818922	2.723112	0.972142	99
Es	1.574105	2.467911	0.764871	99
Es	0.839933	1.113493	0.614867	99
Es	-0.036677	-2.091611	-2.401275	99
Es	0.500785	1.013286	0.527616	99
Es	-0.957606	-0.746924	0.338152	99
Es	1.461191	2.573126	0.807608	99
Es	-0.071679	-0.531982	0.291058	99
Es	1.300242	1.392840	0.910138	99
Es	-1.015150	-0.615326	0.519803	99
Es	-1.585752	-0.240714	1.193843	99
Es	0.609393	-1.200051	-1.052837	99
Es	0.194764	0.252554	0.172450	99
Es	-0.369988	-1.124886	-0.514750	99
Es	-1.649003	-0.864589	0.344130	99
Es	1.295380	1.387727	0.858229	99
Es	-0.209275	-1.730983	-1.616334	99
