45
Properties=species:S:1:pos:R:3:Z:I:1 energy=-288.11421108781104 field_type=dipole dipole="0.000000 0.000000 0.000000" charge=0
C	-2.567417	-0.744314	-0.821756	6
C	-1.085477	-0.822004	-0.640556	6
C	-0.432537	-0.280104	0.403854	6
C	1.048422	-0.294444	0.699794	6
N	1.825862	-1.073144	-0.256066	7
C	1.678373	1.072296	0.787504	6
C	1.123133	2.268886	0.542594	6
H	-2.799987	-0.305904	-1.797736	1
H	-3.049377	-0.131804	-0.052146	1
H	-3.001807	-1.748414	-0.783366	1
H	-0.546737	-1.349274	-1.421416	1
H	-1.023397	0.229696	1.165164	1
H	1.170093	-0.767654	1.682424	1
H	1.699743	-0.659354	-1.177376	1
H	1.436523	-2.011754	-0.299756	1
H	2.724263	1.061066	1.094814	1
H	0.092013	2.378846	0.224854	1
H	1.708313	3.177376	0.649174	1
Es	0.415477	-0.234844	0.503693	99
Es	2.176957	-1.085405	-0.197659	99
Es	-2.470066	-1.144353	-0.997756	99
Es	-0.837628	0.024216	0.657261	99
Es	1.545291	-0.863723	-0.202559	99
Es	1.249480	-0.285346	0.795145	99
Es	1.184858	-0.359324	0.513719	99
Es	1.531053	1.022497	0.687834	99
Es	-1.005975	-1.012385	-0.687343	99
Es	-2.387550	-0.786548	-0.812840	99
Es	1.315232	1.947257	0.805786	99
Es	-1.065354	-0.734225	-0.490766	99
Es	-0.756828	-0.482723	-0.221158	99
Es	1.309222	2.456023	0.586808	99
Es	1.418090	-1.321217	-0.205119	99
Es	-2.826138	-0.329806	-0.745929	99
Es	-0.463549	-0.393906	0.230561	99
Es	-0.890723	-0.686700	-0.197910	99
Es	-2.403856	-0.925871	-0.809229	99
Es	1.642788	0.722608	0.791031	99
Es	1.852801	0.722966	0.928699	99
Es	1.621607	-0.830585	-0.052145	99
Es	1.519410	1.384891	0.690808	99
Es	-2.264536	-0.605610	-0.778137	99
Es	1.631348	-1.017624	-0.262886	99
Es	0.703754	2.533075	0.510026	99
Es	1.299893	2.096894	0.662975	99
