41
Properties=species:S:1:pos:R:3:Z:I:1 energy=-302.953768930365 field_type=dipole dipole="0.000000 0.000000 0.000000" charge=0
C	-1.210344	-2.960712	-0.550577	6
C	-0.387034	-2.011363	-0.091477	6
C	-0.619654	-0.601673	-0.299227	6
C	0.219086	0.348417	0.138513	6
N	0.062686	1.704887	-0.004007	7
C	0.886636	2.725827	0.375563	6
N	2.064886	2.684777	0.886483	7
H	-0.996434	-4.009442	-0.367777	1
H	-2.107494	-2.728483	-1.115367	1
H	0.498846	-2.306922	0.467673	1
H	-1.521244	-0.320563	-0.837427	1
H	1.122526	0.067757	0.673713	1
H	-0.806734	1.980547	-0.450737	1
H	0.427947	3.712917	0.191343	1
H	2.366326	1.714027	0.983313	1
Es	-1.076212	-3.673647	-0.433562	99
Es	0.793945	0.180432	0.473684	99
Es	-1.210420	-2.960857	-0.550585	99
Es	-0.198687	-0.105441	-0.085466	99
Es	0.592156	3.342089	0.241813	99
Es	-0.449104	1.776883	-0.240966	99
Es	1.671759	2.679780	0.701401	99
Es	0.219235	0.348702	0.138605	99
Es	0.183087	1.203795	0.038943	99
Es	2.289096	2.972016	0.998230	99
Es	-0.619696	-0.601709	-0.299235	99
Es	0.886455	2.725685	0.375456	99
Es	2.066321	2.684673	0.887231	99
Es	-1.219144	-0.404419	-0.648269	99
Es	-0.797636	-2.482311	-0.325680	99
Es	1.538672	2.718519	0.687564	99
Es	-0.386683	-2.009749	-0.091307	99
Es	-0.242598	-0.236445	-0.098065	99
Es	-0.809607	-2.476037	-0.325347	99
Es	0.435905	2.126362	0.169385	99
Es	-1.821305	-2.800786	-0.925648	99
Es	0.076159	1.706898	0.010397	99
Es	0.100234	1.703602	0.024742	99
Es	-0.501038	-1.300556	-0.196283	99
Es	2.145214	2.086674	0.899488	99
Es	0.206539	-2.200718	0.274905	99
