48
Properties=species:S:1:pos:R:3:Z:I:1 energy=-289.27998837056515 field_type=dipole dipole="0.000000 0.000000 0.000000" charge=0
C	-0.758883	-1.851691	-1.711481	6
C	-0.665973	-1.248271	-0.316041	6
N	0.226557	-0.086011	-0.316101	7
C	-0.467263	1.125319	-0.831692	6
C	0.202467	1.916078	0.306839	6
C	0.253667	0.551009	1.033539	6
C	1.529647	0.238839	1.790558	6
H	-1.381393	-2.752151	-1.690161	1
H	0.230287	-2.136721	-2.085792	1
H	-1.207213	-1.151031	-2.423622	1
H	-0.254343	-2.010641	0.356449	1
H	-1.673503	-1.012031	0.049389	1
H	-1.563083	1.116039	-0.771251	1
H	-0.172283	1.425169	-1.841491	1
H	1.179297	2.337298	0.040949	1
H	-0.408623	2.690199	0.777389	1
H	-0.639993	0.373479	1.649539	1
H	2.422987	0.411079	1.180308	1
H	1.540347	-0.805301	2.120358	1
H	1.607287	0.869349	2.682318	1
Es	-0.075221	-0.649544	-0.354819	99
Es	-0.860398	-1.391055	-1.058501	99
Es	0.041880	-0.236822	-0.287396	99
Es	0.209880	1.670688	0.426820	99
Es	0.400771	0.620387	1.064483	99
Es	0.468652	0.938051	0.621597	99
Es	0.284250	1.086282	0.295047	99
Es	-0.253148	-0.943057	-0.294109	99
Es	-0.191858	0.843033	-0.315688	99
Es	0.993113	0.365376	1.436303	99
Es	-0.530443	-1.688642	-0.965466	99
Es	-0.879906	0.955154	-0.792912	99
Es	0.043977	1.361406	0.112848	99
Es	-1.159650	-2.418737	-1.695835	99
Es	1.530744	0.557177	2.061931	99
Es	-0.625293	-1.674132	-1.166038	99
Es	0.129322	2.241137	0.435089	99
Es	1.533487	-0.061901	1.970127	99
Es	-0.712559	-1.552232	-1.156181	99
Es	-0.957142	-1.586197	-1.919252	99
Es	0.598161	0.589241	1.175169	99
Es	-0.494888	-1.561151	-0.797615	99
Es	-0.275673	1.518693	-0.483782	99
Es	-0.178888	1.083757	-0.429926	99
Es	1.526212	0.138898	2.014274	99
Es	-0.301623	1.256072	-1.302448	99
Es	-0.146860	-0.355001	-0.282293	99
Es	0.901359	0.427816	1.360307	99
