39
Properties=species:S:1:pos:R:3:Z:I:1 energy=-285.7870335836186 field_type=dipole dipole="0.000000 0.000000 0.000000" charge=0
C	-0.582947	-2.441691	0.196282	6
C	-1.022048	-1.184381	0.048092	6
N	-0.247828	-0.023391	-0.013558	7
C	-0.750418	1.256799	-0.167988	6
C	0.288412	2.160309	-0.188158	6
C	1.480652	1.423259	-0.041698	6
C	1.128062	0.095509	0.062762	6
H	-1.287858	-3.267071	0.230272	1
H	0.468982	-2.690631	0.287132	1
H	-2.091738	-1.012181	-0.036548	1
H	-1.817028	1.416569	-0.251238	1
H	0.192402	3.232889	-0.296818	1
H	2.490162	1.812549	-0.014578	1
H	1.751193	-0.778541	0.186042	1
Es	-1.023841	-1.183928	0.048454	99
Es	-0.566707	-0.533715	0.018666	99
Es	0.880334	1.852134	-0.123710	99
Es	-1.735609	-1.053854	-0.011128	99
Es	-1.468751	1.355585	-0.223625	99
Es	-1.059944	-3.002574	0.217955	99
Es	2.135572	1.680048	-0.022937	99
Es	-0.768009	-1.858679	0.139757	99
Es	-0.209666	0.028167	-0.017984	99
Es	-0.265255	1.734374	-0.188802	99
Es	1.128032	0.095188	0.062742	99
Es	-0.596871	-2.378131	0.196492	99
Es	0.335712	-0.013764	0.018139	99
Es	-0.236081	-0.005240	-0.005906	99
Es	0.228674	2.891554	-0.260271	99
Es	-0.751957	1.256971	-0.168154	99
Es	-0.055638	1.743627	-0.164912	99
Es	1.506937	1.433264	-0.039415	99
Es	1.173058	0.807480	0.004504	99
Es	-0.502173	0.505030	-0.086726	99
Es	1.543446	-0.498720	0.146111	99
Es	1.342244	0.738719	0.005873	99
Es	0.316451	2.145577	-0.183193	99
Es	0.124520	-2.600009	0.252924	99
Es	-0.792712	-1.870061	0.116038	99
