48
Properties=species:S:1:pos:R:3:Z:I:1 energy=-289.2975337297573 field_type=dipole dipole="0.000000 0.000000 0.000000" charge=0
C	-2.825525	-0.074224	0.647761	6
C	-1.325905	0.136367	0.795561	6
N	-0.626215	-0.545503	-0.290928	7
C	0.831205	-0.474913	-0.168339	6
C	1.445555	-1.400303	-1.221828	6
C	1.345585	0.927157	-0.370288	6
C	2.055235	1.608297	0.539791	6
H	-3.358915	0.441846	1.452561	1
H	-3.082825	-1.137414	0.700232	1
H	-3.190835	0.321717	-0.305779	1
H	-1.007615	-0.261754	1.765801	1
H	-1.121145	1.212567	0.784052	1
H	-0.918895	-0.168743	-1.190258	1
H	1.130105	-0.857574	0.816082	1
H	1.175745	-1.096413	-2.240579	1
H	1.108335	-2.433513	-1.079558	1
H	2.539575	-1.398504	-1.152878	1
H	1.123905	1.404137	-1.322489	1
H	2.303565	1.179337	1.505912	1
H	2.399065	2.617436	0.335172	1
Es	-1.435786	0.270335	0.993237	99
Es	-0.204750	-0.296408	0.001909	99
Es	1.853120	1.519284	0.413502	99
Es	2.091604	1.588862	0.709714	99
Es	1.719814	1.387810	0.545699	99
Es	1.968232	1.168040	-0.043356	99
Es	1.344552	0.890788	-0.392292	99
Es	-0.935672	-0.120484	0.353795	99
Es	-0.384557	-0.555119	-0.227745	99
Es	0.902388	-0.040099	-0.132863	99
Es	-0.085793	-0.492060	-0.301424	99
Es	-0.906257	-0.233833	0.278894	99
Es	2.252849	2.049121	0.617623	99
Es	-1.377364	0.329440	0.886556	99
Es	0.217079	-0.626455	-0.349685	99
Es	-2.741320	0.065526	0.528203	99
Es	0.971557	-0.541990	-0.597282	99
Es	1.061665	-0.637842	-0.894753	99
Es	1.199727	0.675943	-0.434259	99
Es	-0.864538	-0.534454	-0.285155	99
Es	-2.640680	0.034946	0.535588	99
Es	-3.093731	0.158583	0.855077	99
Es	1.833535	-1.430189	-1.150805	99
Es	-2.977928	-0.607624	0.651965	99
Es	-2.145129	0.082665	0.717963	99
Es	1.342737	-1.551390	-1.377152	99
Es	1.410118	-1.316543	-1.171680	99
Es	1.549321	-1.147974	-1.038663	99
