46
Properties=species:S:1:pos:R:3:Z:I:1 energy=-272.1444780325312 field_type=dipole dipole="0.000000 0.000000 0.000000" charge=0
C	-1.883952	-0.093581	-1.321992	6
C	-0.360322	-0.106341	-1.292982	6
C	0.206048	-1.364151	-0.618842	6
C	0.529738	-0.966801	0.822548	6
C	0.670068	0.520329	0.729668	6
C	1.254138	1.309209	1.845348	6
C	0.184408	0.989609	-0.427352	6
H	-2.262662	-0.917681	-1.935712	1
H	-2.258092	0.843419	-1.748492	1
H	-2.311622	-0.199491	-0.318482	1
H	0.028188	-0.021001	-2.313882	1
H	1.134278	-1.660401	-1.126542	1
H	-0.470792	-2.223921	-0.665262	1
H	1.449718	-1.451471	1.162648	1
H	-0.287022	-1.230941	1.502318	1
H	1.277088	2.379109	1.613098	1
H	2.280638	0.985779	2.044128	1
H	0.664068	1.174139	2.757118	1
H	0.156088	2.034189	-0.707332	1
Es	0.762439	0.963907	1.235415	99
Es	0.704685	0.439610	0.954689	99
Es	-1.523928	-0.035221	-1.380784	99
Es	0.394715	-1.341079	-0.498655	99
Es	-1.349926	0.052556	-1.583384	99
Es	-0.281750	-1.157324	-0.963068	99
Es	1.281361	1.073243	1.860656	99
Es	0.786837	0.782379	0.414312	99
Es	0.344935	-0.045443	0.106412	99
Es	-0.517264	0.147379	-1.052319	99
Es	0.524667	-0.446152	0.623623	99
Es	-1.324851	0.255338	-1.308254	99
Es	-1.156578	-0.256801	-1.222645	99
Es	-0.964301	-0.056477	-0.972819	99
Es	0.170516	1.035066	-0.130192	99
Es	1.461637	1.023900	1.903933	99
Es	0.388709	-1.149080	0.086805	99
Es	-1.105283	0.003835	-1.372962	99
Es	1.096799	-1.312077	1.085765	99
Es	1.281701	1.920559	1.686788	99
Es	-1.683314	-0.533901	-1.670242	99
Es	1.332291	1.268799	1.869097	99
Es	0.384491	-0.821239	0.518792	99
Es	-0.008255	-1.246962	-0.690239	99
Es	0.138042	0.880685	-0.104466	99
Es	0.191593	-1.225022	0.203662	99
Es	0.158494	0.509549	-0.281563	99
