38
Properties=species:S:1:pos:R:3:Z:I:1 energy=-301.7352532460077 field_type=dipole dipole="0.000000 0.000000 0.000000" charge=0
C	-1.691110	0.645748	0.062134	6
C	-0.358220	0.533308	0.016734	6
N	0.401100	-0.611332	-0.019306	7
C	0.019310	-1.914732	-0.013366	6
N	0.802160	-2.935241	-0.053856	7
C	0.434690	1.718838	0.000764	6
C	1.106590	2.714889	-0.012856	6
H	-2.174970	1.617788	0.086954	1
H	-2.343410	-0.219172	0.075424	1
H	1.398540	-0.438882	-0.056726	1
H	-1.069490	-2.077902	0.031194	1
H	1.778100	-2.635261	-0.093106	1
H	1.696710	3.601948	-0.023986	1
Es	0.751038	-3.235308	-0.074015	99
Es	-2.136898	0.055718	0.073160	99
Es	-0.375479	0.531980	0.016446	99
Es	0.056753	1.147023	0.010475	99
Es	0.416964	-2.493750	-0.057595	99
Es	0.640920	-2.694418	-0.025941	99
Es	0.018361	-1.914648	-0.013251	99
Es	1.504119	3.281668	-0.022876	99
Es	0.708110	-0.563078	-0.043436	99
Es	0.719302	-2.819017	-0.055188	99
Es	0.468098	2.420591	0.013570	99
Es	1.077096	2.004573	-0.033547	99
Es	0.211965	-1.158643	-0.004487	99
Es	0.048917	-0.115734	0.004294	99
Es	-1.068265	0.629762	0.052530	99
Es	-0.991287	0.571322	0.018803	99
Es	0.344613	-0.635662	-0.024694	99
Es	1.106570	2.714916	-0.012956	99
Es	0.434772	1.718980	0.000891	99
Es	-0.717466	-2.011557	0.014985	99
Es	-1.998956	1.285140	0.085551	99
Es	-1.691254	0.646100	0.062070	99
Es	1.361054	-2.716480	-0.043004	99
Es	0.691454	-0.568410	-0.028928	99
Es	0.758040	2.196707	0.000609	99
