41
Properties=species:S:1:pos:R:3:Z:I:1 energy=-302.87068265133064 field_type=dipole dipole="0.000000 0.000000 0.000000" charge=0
C	-1.013566	0.111405	1.403333	6
C	0.333754	0.194595	0.683543	6
N	0.210004	-0.286325	-0.702887	7
N	-0.100646	-1.600215	-0.863787	7
C	-0.295616	-1.928455	-2.097558	6
C	0.815773	1.555765	0.683543	6
C	1.213054	2.677665	0.683543	6
H	-0.930596	0.489025	2.429313	1
H	-1.372496	-0.921875	1.462203	1
H	-1.780956	0.708265	0.895813	1
H	1.055224	-0.440205	1.212873	1
H	1.081874	-0.056355	-1.186607	1
H	-0.555646	-2.969035	-2.347347	1
H	-0.223987	-1.218135	-2.939757	1
H	1.563833	3.683885	0.683783	1
Es	-0.108171	-1.653079	-0.830063	99
Es	0.254970	-0.333216	-0.805484	99
Es	0.646388	1.042018	0.703163	99
Es	-0.395428	-2.433985	-2.384564	99
Es	0.154750	0.148900	0.564301	99
Es	-0.417662	-1.761365	-1.102109	99
Es	1.287735	3.006575	0.645218	99
Es	-0.835592	0.078263	1.203447	99
Es	-1.181711	-0.176052	1.370784	99
Es	1.283965	2.436682	0.843846	99
Es	-0.206556	0.096641	0.928451	99
Es	-1.001903	0.334259	2.073580	99
Es	0.780577	2.204155	0.840352	99
Es	-0.241936	-1.709245	-1.798354	99
Es	-0.157128	-1.723576	-1.503309	99
Es	0.102113	-0.203256	-0.529694	99
Es	0.377846	-0.591002	-0.892582	99
Es	1.256092	2.145312	0.504957	99
Es	0.755404	1.455853	0.675297	99
Es	0.008087	-1.726652	-1.418369	99
Es	0.279026	-0.240886	-0.426248	99
Es	-0.886856	-0.082359	1.341561	99
Es	0.263080	-0.291074	-0.318185	99
Es	1.158253	2.506886	0.587999	99
Es	0.009461	0.145404	0.849090	99
Es	-0.294970	-1.827484	-2.322432	99
