45
Properties=species:S:1:pos:R:3:Z:I:1 energy=-288.0865462018385 field_type=dipole dipole="0.000000 0.000000 0.000000" charge=0
C	-1.822631	-0.186993	-1.042278	6
N	-0.368461	-0.224163	-0.974138	7
C	0.150009	-1.297443	-0.118658	6
C	1.011959	-0.485583	0.835292	6
C	1.676439	0.583587	-0.084528	6
C	0.169439	0.974277	-0.286438	6
C	0.066449	0.673617	1.250942	6
H	-2.197341	-1.090123	-1.536668	1
H	-2.151141	0.666027	-1.646388	1
H	-2.305991	-0.113213	-0.062368	1
H	0.750139	-2.001373	-0.704298	1
H	-0.625891	-1.854733	0.419432	1
H	1.610219	-0.980843	1.597452	1
H	2.220399	0.216677	-0.961198	1
H	2.299929	1.329887	0.422412	1
H	-0.075711	1.961287	-0.676838	1
H	0.502989	1.432797	1.911802	1
H	-0.910801	0.396317	1.656462	1
Es	0.421155	0.228734	0.166155	99
Es	0.816304	0.370803	0.384116	99
Es	1.703313	0.831972	0.446081	99
Es	-0.386504	-0.592849	-0.405869	99
Es	0.036194	-0.289342	0.075718	99
Es	0.938565	0.040717	0.547999	99
Es	0.671013	0.655990	0.457895	99
Es	0.340263	0.054359	0.154421	99
Es	0.171938	0.024308	-0.101241	99
Es	-0.069349	-0.010632	-0.042451	99
Es	0.740982	-0.387924	0.382397	99
Es	0.528998	0.898317	0.295856	99
Es	0.147057	-0.010981	0.204584	99
Es	1.069430	0.132779	0.489863	99
Es	-0.945054	-0.314083	-0.923090	99
Es	-1.711947	-0.219354	-0.795055	99
Es	0.601506	-0.147471	0.319373	99
Es	0.842846	0.129370	0.333675	99
Es	0.710551	0.110032	0.336674	99
Es	-1.218655	-0.195846	-0.835489	99
Es	0.385293	0.117918	0.201019	99
Es	-2.082579	0.346962	-1.253291	99
Es	-1.578509	-0.532141	-1.122670	99
Es	-0.984412	-0.440190	-0.846234	99
Es	-0.136107	-0.064576	-0.262985	99
Es	0.625683	0.650989	0.429281	99
Es	0.411595	-1.421881	-0.283683	99
