40
Properties=species:S:1:pos:R:3:Z:I:1 energy=-269.7716484617907 field_type=dipole dipole="0.000000 0.000000 0.000000" charge=0
C	-1.939848	-1.834798	-0.460189	6
C	-0.668648	-1.632148	-0.093849	6
C	-0.028168	-0.343328	0.010431	6
C	1.275762	-0.195028	0.320371	6
C	1.649072	1.256592	0.364971	6
C	0.348612	1.919262	0.038121	6
C	-0.593548	0.986322	-0.158399	6
H	-2.341108	-2.841878	-0.513069	1
H	-2.609908	-1.022048	-0.717429	1
H	-0.056668	-2.499848	0.145491	1
H	1.975592	-0.994578	0.513621	1
H	2.413302	1.491622	-0.381329	1
H	2.001612	1.543572	1.359871	1
H	0.200222	2.986312	-0.024519	1
H	-1.626278	1.179972	-0.404089	1
Es	1.320684	1.389015	0.264876	99
Es	-0.154553	1.460735	-0.073789	99
Es	-0.368101	0.303797	-0.054520	99
Es	-0.178950	1.369514	-0.055496	99
Es	1.676444	1.014413	0.271469	99
Es	1.282254	-0.202267	0.322704	99
Es	0.655438	-0.312712	0.148061	99
Es	-2.418320	-1.301368	-0.633175	99
Es	0.582938	-0.268995	0.158166	99
Es	-0.028609	-0.342902	0.009318	99
Es	0.570637	1.687535	0.096820	99
Es	1.748212	-0.734245	0.454667	99
Es	2.060464	1.438604	0.586691	99
Es	-0.667946	-1.630584	-0.093734	99
Es	0.249510	2.647640	-0.002043	99
Es	1.863286	1.332530	0.407901	99
Es	-1.944730	-1.847735	-0.461137	99
Es	-0.368649	-0.979941	-0.046239	99
Es	-2.193475	-2.476830	-0.490435	99
Es	-1.309124	-1.710691	-0.233893	99
Es	-1.296466	-1.724595	-0.306437	99
Es	-1.299221	1.119038	-0.322491	99
Es	1.033695	1.303530	0.205548	99
Es	-0.235544	-2.215777	0.064236	99
Es	-0.532247	1.041169	-0.178094	99
