41
Properties=species:S:1:pos:R:3:Z:I:1 energy=-302.950761068114 field_type=dipole dipole="0.000000 0.000000 0.000000" charge=0
C	-0.200113	-2.200888	-0.405694	6
N	-0.760553	-1.016328	0.235386	7
C	0.196917	0.100102	0.272026	6
C	0.319277	0.995032	-0.928604	6
C	-0.326973	1.517482	0.328736	6
C	0.372427	2.481232	1.127356	6
N	0.945247	3.256662	1.774286	7
H	-0.950403	-2.997208	-0.423644	1
H	0.675637	-2.569968	0.137866	1
H	0.086307	-1.991208	-1.441254	1
H	-1.056043	-1.266158	1.180846	1
H	1.115627	-0.107368	0.820156	1
H	-0.322913	0.805022	-1.781314	1
H	1.309506	1.346822	-1.195934	1
H	-1.403943	1.646772	0.299786	1
Es	0.045901	0.796557	-1.087846	99
Es	-0.618921	-1.285127	0.171161	99
Es	-0.148061	2.044117	0.611023	99
Es	-0.309934	1.495357	0.224731	99
Es	0.200471	0.271048	0.104838	99
Es	0.362829	1.176073	-0.562791	99
Es	0.586655	2.721817	1.361046	99
Es	0.052956	-0.151007	0.015664	99
Es	-0.143430	0.868246	0.254128	99
Es	-0.762711	-1.215971	0.149036	99
Es	-0.166105	-2.406709	-0.745759	99
Es	0.153718	0.119270	0.380265	99
Es	0.871512	3.177430	1.707247	99
Es	-0.344514	1.506310	0.437301	99
Es	0.279409	0.775830	-0.770036	99
Es	1.018990	3.151977	1.369291	99
Es	-0.214750	-2.265597	-0.385971	99
Es	-0.589872	-1.342374	0.013615	99
Es	-0.716187	-1.130378	0.603638	99
Es	0.613224	3.168327	1.868572	99
Es	-0.173711	-1.908083	-0.212925	99
Es	0.091679	0.234626	-0.141390	99
Es	0.440155	1.385918	-0.652906	99
Es	0.523127	2.592461	1.324708	99
Es	0.786481	2.994697	1.629009	99
Es	-0.269399	-2.412236	-0.437734	99
