47
Properties=species:S:1:pos:R:3:Z:I:1 energy=-305.27101125342006 field_type=dipole dipole="0.000000 0.000000 0.000000" charge=0
C	-0.952944	-2.108212	-1.252686	6
N	-0.756724	-1.499092	0.058704	7
C	0.201016	-0.395922	-0.051056	6
C	-0.525244	0.896188	-0.495576	6
C	0.121956	1.625418	0.699514	6
N	1.397066	2.216008	0.281484	7
C	0.375267	0.247348	1.346104	6
H	-1.685364	-2.917092	-1.170426	1
H	-0.021464	-2.535222	-1.638446	1
H	-1.342224	-1.386882	-1.978256	1
H	-0.461134	-2.225452	0.711694	1
H	1.143486	-0.614642	-0.565236	1
H	-1.620454	0.867038	-0.421776	1
H	-0.267974	1.259948	-1.496106	1
H	-0.528644	2.307298	1.252084	1
H	2.019596	1.599038	-0.237496	1
H	1.947067	2.584348	1.056874	1
H	1.351956	0.092918	1.816644	1
H	-0.395244	-0.013032	2.083964	1
Es	-0.774900	-2.046312	-0.922740	99
Es	0.160927	-0.050450	0.243649	99
Es	-0.716651	-1.676960	-0.275498	99
Es	0.453686	0.172806	1.584755	99
Es	0.227862	0.142261	1.094763	99
Es	0.960500	1.842688	0.548896	99
Es	1.000072	2.038662	0.531862	99
Es	0.504509	0.562190	1.137139	99
Es	0.223800	1.305646	0.564683	99
Es	0.764910	2.045377	0.396425	99
Es	-0.676121	-1.680467	-0.213397	99
Es	-1.206116	-2.423600	-1.189886	99
Es	0.368833	0.674676	0.818946	99
Es	-0.165405	0.114745	-0.221523	99
Es	0.664301	1.868179	0.304547	99
Es	-0.826037	-1.951077	-0.827114	99
Es	-0.195866	0.717963	-0.530557	99
Es	0.282636	0.846164	0.277041	99
Es	0.595613	1.902392	0.258940	99
Es	-0.192049	-0.457150	-0.064620	99
Es	-0.559991	-1.803320	0.291226	99
Es	-0.403429	0.136144	-0.251935	99
Es	-1.018097	-1.818576	-0.710889	99
Es	-0.384767	0.050340	-0.346205	99
Es	-0.143813	0.188670	-0.139732	99
Es	0.664791	1.674347	0.389263	99
Es	1.417615	2.336304	0.488394	99
Es	-1.165076	-1.750998	-1.655684	99
