40
Properties=species:S:1:pos:R:3:Z:I:1 energy=-269.7394535694882 field_type=dipole dipole="0.000000 0.000000 0.000000" charge=0
C	-2.654627	-0.000265	0.860210	6
C	-1.464467	-0.000265	0.860210	6
C	-0.020468	-0.000265	0.860210	6
C	0.537193	-1.219855	0.098810	6
C	0.859323	-0.668085	-1.254880	6
C	0.860173	0.668975	-1.254830	6
C	0.537343	1.219045	0.101020	6
H	-3.720307	-0.000265	0.856070	1
H	0.338003	-0.000955	1.896310	1
H	-0.177697	-2.046415	0.034760	1
H	1.457093	-1.587995	0.565570	1
H	1.082552	-1.285025	-2.114790	1
H	1.083903	1.287215	-2.113280	1
H	1.458573	1.586975	0.567630	1
H	-0.176587	2.047185	0.036980	1
Es	0.608906	0.825381	-0.388936	99
Es	0.856140	0.647961	-0.531652	99
Es	-1.375527	-0.044806	0.846710	99
Es	-0.196991	0.323500	0.604067	99
Es	0.665266	-0.536504	-0.480964	99
Es	-1.745426	-0.005825	1.004637	99
Es	-1.492226	0.159527	0.834526	99
Es	1.169921	-0.219600	-1.075118	99
Es	0.962426	0.503798	-0.547890	99
Es	0.679132	-0.538509	-0.574014	99
Es	0.720469	0.836422	-0.802824	99
Es	0.183888	-1.628583	-0.118541	99
Es	-1.297397	0.060592	0.871888	99
Es	-2.428210	-0.090247	1.121868	99
Es	0.428564	0.626811	-0.205831	99
Es	0.871136	-0.534610	-0.583836	99
Es	0.159928	0.398702	0.481645	99
Es	0.475518	-0.437498	-0.077909	99
Es	0.770579	0.147757	-0.781027	99
Es	0.590127	1.222168	-0.645740	99
Es	-1.433330	-0.163775	0.803813	99
Es	0.787365	-0.576348	-0.676188	99
Es	0.689244	-1.113106	-0.435420	99
Es	-1.677422	0.071618	1.000197	99
Es	-2.416006	0.063492	1.036634	99
