43
Properties=species:S:1:pos:R:3:Z:I:1 energy=-270.9520172478667 field_type=dipole dipole="0.000000 0.000000 0.000000" charge=0
C	-1.997691	-1.547190	0.350141	6
C	-0.577311	-1.409790	-0.088589	6
C	0.159089	-0.287910	-0.006529	6
C	1.574399	-0.153060	-0.513649	6
C	1.817709	1.325310	-0.512949	6
C	0.789149	1.995130	0.019771	6
C	-0.306281	1.071390	0.458991	6
H	-2.133101	-2.500540	0.871991	1
H	-2.661661	-1.536370	-0.519659	1
H	-2.305341	-0.750370	1.035521	1
H	-0.123711	-2.303850	-0.510819	1
H	1.679049	-0.559750	-1.523639	1
H	2.281459	-0.647950	0.161111	1
H	2.721829	1.779890	-0.893119	1
H	0.740939	3.069070	0.131561	1
H	-0.405031	1.101420	1.549501	1
H	-1.253491	1.354570	-0.009639	1
Es	-0.314080	0.861322	0.411490	99
Es	1.505679	1.069936	-0.315737	99
Es	-0.215892	1.071187	0.492088	99
Es	1.649323	-0.407828	-0.483404	99
Es	-2.289000	-1.057940	0.577692	99
Es	1.672167	0.864546	-0.560432	99
Es	-0.205926	-0.865342	-0.029851	99
Es	-2.152992	-2.068593	0.511858	99
Es	-0.278685	-2.031114	-0.382264	99
Es	1.259793	1.660609	-0.200932	99
Es	1.636449	-0.204243	-0.603975	99
Es	0.166393	-0.288692	-0.008617	99
Es	-2.185235	-1.560973	0.293536	99
Es	1.731155	-0.351337	-0.631957	99
Es	-0.226215	-0.839084	-0.070255	99
Es	-2.080256	-1.586727	0.260790	99
Es	0.788899	2.106141	0.041305	99
Es	0.594733	1.159749	0.099383	99
Es	-1.045345	-1.453666	0.051153	99
Es	0.677841	2.429782	0.050728	99
Es	1.133094	-0.223913	-0.326680	99
Es	2.426459	1.612082	-0.783473	99
Es	-0.482308	1.122845	0.378194	99
Es	-0.657195	1.182516	0.713931	99
Es	-0.814493	-1.418577	-0.012369	99
Es	1.360905	1.695046	-0.205640	99
