44
Properties=species:S:1:pos:R:3:Z:I:1 energy=-304.1219250186634 field_type=dipole dipole="0.000000 0.000000 0.000000" charge=0
C	-2.427419	-0.281313	-0.664499	6
N	-1.005979	-0.506733	-0.756579	7
C	-0.072889	0.466547	-0.561009	6
N	-0.216419	1.735357	-0.671159	7
C	1.273341	-0.031603	-0.195179	6
C	2.009301	0.558867	0.985141	6
C	1.471031	-0.836973	1.069860	6
H	-2.964019	-1.206513	-0.895469	1
H	-2.755859	0.481877	-1.377499	1
H	-2.702559	0.031087	0.347081	1
H	-0.717999	-1.439533	-0.478929	1
H	-1.172239	1.945887	-0.956849	1
H	1.885671	-0.295203	-1.052399	1
H	1.513221	1.339367	1.551430	1
H	3.079961	0.695667	0.889731	1
H	2.180311	-1.655853	1.042641	1
H	0.622541	-1.000933	1.723691	1
Es	-2.468322	-0.248912	-0.824269	99
Es	-0.310047	1.363671	-0.673519	99
Es	1.448728	-0.505747	0.686293	99
Es	0.074780	0.455403	-0.422369	99
Es	1.807623	-1.066810	0.844299	99
Es	-2.475969	-0.538852	-0.785569	99
Es	1.351188	-0.369640	0.545516	99
Es	-0.187732	1.199072	-0.648191	99
Es	-0.570136	1.422032	-0.849558	99
Es	-1.107318	-0.800219	-0.693635	99
Es	-1.303774	-0.422620	-0.536917	99
Es	2.572968	0.605852	0.863248	99
Es	0.198807	0.792563	-0.304997	99
Es	-0.105659	1.988431	-0.688120	99
Es	-0.227379	1.232475	-0.655520	99
Es	-1.814726	-0.347568	-0.536106	99
Es	-0.507694	0.156092	-0.507617	99
Es	1.675806	-0.315893	0.967432	99
Es	1.670387	0.262115	0.494376	99
Es	-1.552562	-0.409295	-0.498683	99
Es	1.364115	-0.406934	0.401962	99
Es	1.787426	0.606720	0.712882	99
Es	1.670040	0.405809	0.629650	99
Es	-2.583187	-0.131346	-0.934698	99
Es	1.242711	-0.880758	0.981575	99
Es	-1.212173	-0.430735	-0.815100	99
Es	1.677031	0.099831	0.492314	99
