44
Properties=species:S:1:pos:R:3:Z:I:1 energy=-304.1250516542169 field_type=dipole dipole="0.000000 0.000000 0.000000" charge=0
N	-1.926395	0.415539	-0.604227	7
C	-0.472945	0.396899	-0.568937	6
C	0.140435	1.493119	0.314663	6
N	1.513664	1.030869	0.596753	7
C	1.359125	-0.421031	0.811453	6
C	0.128865	-0.830741	0.050733	6
C	-0.352475	-2.082931	0.018993	6
H	-2.249455	-0.275441	-1.278767	1
H	-2.245235	1.319549	-0.946237	1
H	-0.082695	0.501819	-1.590017	1
H	-0.404585	1.609979	1.260243	1
H	0.149105	2.465289	-0.188547	1
H	2.076215	1.158239	-0.244307	1
H	2.250605	-0.948481	0.459403	1
H	1.229325	-0.613471	1.881593	1
H	-1.266405	-2.327611	-0.510637	1
H	0.152855	-2.891591	0.537843	1
Es	0.035185	1.200535	0.405426	99
Es	-1.786291	0.408821	-0.589265	99
Es	-0.865181	-2.216506	-0.271911	99
Es	-0.107304	-1.423622	0.044204	99
Es	-0.096519	-0.520765	-0.263899	99
Es	-0.290402	0.376814	-0.376306	99
Es	-0.004916	-2.634581	0.291454	99
Es	1.226186	1.109296	0.442758	99
Es	1.458836	-0.515589	0.908070	99
Es	1.048068	1.207887	0.545622	99
Es	-0.097133	-1.406675	-0.062753	99
Es	1.464643	0.351270	0.587314	99
Es	-0.379225	-2.077621	-0.001057	99
Es	1.461362	-0.603438	0.898144	99
Es	-0.274388	0.560352	-0.240499	99
Es	-0.194399	0.029319	-0.645934	99
Es	-1.847687	0.440448	-0.607870	99
Es	-1.665874	0.393674	-0.639672	99
Es	1.517787	-0.573594	0.937537	99
Es	-0.056176	0.634620	0.066152	99
Es	0.863286	-0.601983	0.496273	99
Es	-0.111037	1.237098	0.156973	99
Es	-1.961861	0.934689	-0.738243	99
Es	0.145082	2.154869	-0.033999	99
Es	1.510523	0.979010	0.559501	99
Es	1.766056	1.291018	0.720455	99
Es	-1.988367	-0.022072	-0.805435	99
