47
Properties=species:S:1:pos:R:3:Z:I:1 energy=-305.284737292046 field_type=dipole dipole="0.000000 0.000000 0.000000" charge=0
N	-3.091966	0.451841	-0.117941	7
C	-1.745376	0.178061	-0.604661	6
C	-0.832996	-0.250859	0.544049	6
C	0.556114	-0.573499	0.009229	6
C	1.455314	0.609551	-0.423411	6
C	2.576643	-0.169739	0.282979	6
N	1.532173	-0.818599	1.106269	7
H	-3.662606	0.814421	-0.880301	1
H	-3.058696	1.185421	0.589279	1
H	-1.346496	1.074211	-1.092541	1
H	-1.792676	-0.610999	-1.363191	1
H	-1.252406	-1.138459	1.035299	1
H	-0.785236	0.544161	1.299839	1
H	0.540664	-1.390259	-0.726421	1
H	1.215374	1.569811	0.048549	1
H	1.576243	0.755481	-1.499501	1
H	3.120564	-0.864119	-0.368121	1
H	3.294724	0.434521	0.843179	1
H	1.700644	-1.800949	1.317419	1
Es	1.128941	-0.712346	0.583037	99
Es	1.159861	-0.684210	0.510707	99
Es	-3.268001	0.781339	-0.450500	99
Es	0.925823	0.237455	-0.071948	99
Es	2.617894	-0.250119	0.267968	99
Es	-2.176098	0.227097	-0.342004	99
Es	1.390457	-0.166187	0.089243	99
Es	-2.891492	0.585974	0.009834	99
Es	1.756664	-0.864454	0.914506	99
Es	1.411497	0.477169	-0.583293	99
Es	1.635761	-0.477876	0.838084	99
Es	2.860435	-0.144302	0.266327	99
Es	-0.206386	-0.273508	0.466418	99
Es	0.382249	-0.409456	0.285227	99
Es	-1.882085	0.399883	-0.719443	99
Es	-0.986305	-0.353217	0.652796	99
Es	2.079692	0.081592	0.006369	99
Es	-0.392344	-0.471326	0.432412	99
Es	-1.579491	0.016205	-0.486089	99
Es	-3.068413	0.453858	-0.128983	99
Es	-1.713921	-0.003801	-0.198923	99
Es	2.846069	-0.155168	0.283896	99
Es	1.422397	-1.203008	1.195524	99
Es	1.074980	0.342917	-0.107520	99
Es	1.493614	0.603290	-0.814148	99
Es	-0.861472	-0.325400	0.591332	99
Es	-1.657953	0.399961	-0.733630	99
Es	-3.242451	0.220010	-0.097430	99
