44
Properties=species:S:1:pos:R:3:Z:I:1 energy=-304.0825224427119 field_type=dipole dipole="0.000000 0.000000 0.000000" charge=0
N	-1.062006	-2.074230	-0.996577	7
C	-1.639667	-1.369501	0.154043	6
C	-1.151447	0.089280	0.255203	6
N	0.312704	0.172889	0.162253	7
C	0.758314	1.559459	0.259753	6
C	2.222814	1.611429	0.164653	6
C	3.421063	1.656909	0.091473	6
H	-1.424476	-3.027061	-1.010267	1
H	-0.059797	-2.170161	-0.824317	1
H	-1.370697	-1.911620	1.068183	1
H	-2.731776	-1.380240	0.073713	1
H	-1.497277	0.507470	1.207693	1
H	-1.607677	0.671769	-0.555227	1
H	0.581404	-0.183221	-0.756177	1
H	0.444873	1.992440	1.216583	1
H	0.319374	2.162839	-0.543347	1
H	4.484273	1.691550	0.032363	1
Es	2.807231	1.972193	0.172069	99
Es	0.621050	1.732982	0.368450	99
Es	0.032940	0.251586	0.062389	99
Es	0.516753	-0.084298	-0.329142	99
Es	2.859395	1.577061	-0.039329	99
Es	3.394137	1.646941	0.078910	99
Es	0.644453	1.814404	0.185787	99
Es	-1.232263	-2.513934	-1.084191	99
Es	0.221654	0.162231	0.189568	99
Es	-1.296219	0.226914	0.415855	99
Es	-1.450480	-1.426274	0.258866	99
Es	-1.538324	-1.441995	0.169400	99
Es	-1.361746	-0.388250	0.120700	99
Es	1.566681	1.635625	0.248291	99
Es	2.124865	1.611416	0.194439	99
Es	0.513400	0.836400	0.321401	99
Es	-1.476093	0.055337	0.363522	99
Es	-1.027311	-2.138345	-0.943563	99
Es	-0.656701	-1.888699	-0.958957	99
Es	2.784106	1.427107	0.242643	99
Es	-1.301791	-1.830675	-0.496120	99
Es	-2.293419	-1.365390	0.081112	99
Es	0.699729	1.581791	0.282113	99
Es	0.027776	0.073517	0.288168	99
Es	4.002602	1.627563	-0.001507	99
Es	-1.155003	0.027285	0.269043	99
Es	-1.151119	-1.978283	-0.692845	99
