44
Properties=species:S:1:pos:R:3:Z:I:1 energy=-307.9073629641579 field_type=dipole dipole="0.000000 0.000000 0.000000" charge=0
C	-2.466951	0.544595	0.283994	6
C	-1.593611	0.960485	-0.863546	6
C	-0.978271	0.652245	0.472804	6
O	-0.286911	-0.607465	0.569044	8
C	1.130839	-0.388795	0.683504	6
C	1.987379	-1.533975	0.217004	6
C	1.902129	-0.279325	-0.601366	6
H	-3.090071	1.296865	0.750694	1
H	-2.903311	-0.446755	0.260084	1
H	-1.623961	1.996105	-1.178886	1
H	-1.443011	0.250675	-1.668236	1
H	-0.631701	1.483435	1.079854	1
H	1.491349	0.163455	1.546094	1
H	1.488148	-2.420265	-0.156886	1
H	2.904409	-1.731245	0.757534	1
H	2.763238	0.378175	-0.618406	1
H	1.350308	-0.318205	-1.533286	1
Es	1.499595	-0.571323	0.021052	99
Es	-0.372405	-0.647132	0.746894	99
Es	1.670555	-0.960108	0.159718	99
Es	-1.571782	0.767389	-0.106463	99
Es	2.523749	-1.610142	0.567742	99
Es	-1.497779	0.522790	0.472435	99
Es	0.075940	-0.466957	0.525919	99
Es	-0.398975	-0.370118	0.436140	99
Es	1.559799	-0.714258	-0.079598	99
Es	0.150594	-0.453661	0.608130	99
Es	1.954233	-0.452803	-0.511145	99
Es	-1.978848	0.787420	-0.238422	99
Es	-1.333905	0.827626	-0.338894	99
Es	1.475613	-0.762039	0.048946	99
Es	-2.790043	0.980400	0.578682	99
Es	-1.483851	1.325537	-1.182462	99
Es	-2.173381	0.548658	0.087408	99
Es	-1.947928	0.553535	0.100923	99
Es	1.013353	-0.609541	0.602039	99
Es	-0.350718	-0.368087	0.547190	99
Es	1.613632	-0.653168	0.041328	99
Es	-1.943601	0.676239	-0.014948	99
Es	-1.195450	0.450510	0.461614	99
Es	2.214190	-0.157171	-0.520659	99
Es	-1.370946	0.880006	-0.738760	99
Es	1.507110	-0.936503	0.346510	99
Es	2.030257	-0.960770	-0.141039	99
