39
Properties=species:S:1:pos:R:3:Z:I:1 energy=-342.599772586669 field_type=dipole dipole="0.000000 0.000000 0.000000" charge=0
C	1.598115	-0.167806	0.254197	6
O	0.822875	-1.382286	0.430377	8
C	-0.248865	-0.850196	-0.380483	6
C	-1.447995	-0.375376	0.322997	6
C	-1.369635	0.952264	0.441447	6
O	-0.246145	1.589504	-0.072363	8
C	0.513455	0.466994	-0.620213	6
H	2.546214	-0.368656	-0.253363	1
H	1.788625	0.327214	1.211167	1
H	-0.443575	-1.459766	-1.267653	1
H	-2.247135	-1.003126	0.683177	1
H	-2.076485	1.620634	0.908307	1
H	0.810555	0.650604	-1.657593	1
Es	2.185111	-0.293643	-0.090783	99
Es	-0.856857	-0.509066	0.131500	99
Es	-1.811510	1.272106	0.614570	99
Es	0.249087	-1.153242	0.120239	99
Es	0.873466	-1.501089	0.258024	99
Es	-1.287811	-0.095605	0.359688	99
Es	-1.201631	0.610344	0.285806	99
Es	1.243177	0.047247	0.019260	99
Es	-0.231261	1.502372	-0.207388	99
Es	1.187027	0.100394	-0.106160	99
Es	-0.267492	0.798648	-0.181041	99
Es	-0.199074	1.299483	-0.161615	99
Es	1.115646	0.125040	-0.142124	99
Es	0.105773	-1.014523	-0.156158	99
Es	-1.505674	0.201759	0.270094	99
Es	-1.991548	-0.555647	0.456330	99
Es	-0.228091	1.529294	0.019696	99
Es	-0.451772	-0.534891	-0.277069	99
Es	0.710674	-1.325572	0.315946	99
Es	-0.205351	1.637560	-0.132981	99
Es	1.265734	-0.089076	0.115949	99
Es	-0.403194	1.135073	-0.045323	99
Es	0.956995	-1.017414	0.280078	99
Es	0.879885	-0.897562	0.275244	99
Es	-0.357708	-0.086758	-0.291595	99
Es	-0.097694	-0.451063	-0.329005	99
