45
Properties=species:S:1:pos:R:3:Z:I:1 energy=-344.96460965022413 field_type=dipole dipole="0.000000 0.000000 0.000000" charge=0
C	-1.985872	-0.453698	0.698431	6
C	-0.497812	-0.535778	0.726941	6
C	0.252468	-1.233098	-0.380029	6
C	0.359878	0.263562	-0.222959	6
O	-0.319482	1.060672	-1.213449	8
C	1.640368	0.882632	0.265351	6
O	2.420558	1.276552	-0.858739	8
H	-2.321962	0.452822	1.210631	1
H	-2.417002	-1.316108	1.216411	1
H	-2.386472	-0.441178	-0.319789	1
H	-0.134232	-0.668928	1.740661	1
H	-0.305252	-1.632938	-1.218049	1
H	1.110738	-1.838368	-0.108099	1
H	-0.858132	0.515022	-1.812129	1
H	2.231958	0.190432	0.871911	1
H	1.426898	1.773302	0.864531	1
H	1.783348	1.705092	-1.461629	1
Es	-0.155928	-0.522463	0.146309	99
Es	-0.458073	-0.308792	0.082448	99
Es	-0.248722	0.889974	-0.753278	99
Es	-0.398198	-0.856498	0.389111	99
Es	-0.172572	0.796500	-0.959350	99
Es	0.563337	-0.165020	-0.191900	99
Es	-2.122338	-0.406145	0.576342	99
Es	-0.447807	-0.136322	-0.210349	99
Es	0.578263	0.418712	-0.156424	99
Es	2.394135	1.195310	-0.909494	99
Es	0.683988	0.257006	0.001234	99
Es	-1.539736	-0.596084	0.632791	99
Es	-1.479188	-0.839277	0.717649	99
Es	1.664541	0.912411	-0.158128	99
Es	1.914611	0.635708	0.125209	99
Es	0.062902	-0.683565	0.201167	99
Es	0.630516	-0.456263	-0.029862	99
Es	-0.170755	0.925541	-1.009170	99
Es	1.946313	0.934256	-0.122193	99
Es	2.609902	1.466527	-0.767820	99
Es	-0.281320	-0.810291	0.517636	99
Es	1.989585	1.051039	-0.598752	99
Es	0.416083	1.005605	-0.887881	99
Es	2.223243	1.332162	-1.039171	99
Es	-2.163814	-0.538249	0.490075	99
Es	-0.017183	0.343893	-0.516159	99
Es	-1.316783	-0.537184	0.333070	99
Es	0.299083	0.349646	-0.496542	99
