47
Properties=species:S:1:pos:R:3:Z:I:1 energy=-309.1329942156031 field_type=dipole dipole="0.000000 0.000000 0.000000" charge=0
C	-1.889546	0.088365	-0.014137	6
C	-0.370306	0.102395	-0.165207	6
C	0.035723	0.166265	-1.638797	6
C	0.338753	1.170925	0.719183	6
C	1.397274	0.108645	1.073553	6
C	0.358243	-0.975555	0.707803	6
O	0.849904	-2.150895	0.039033	8
H	-2.191396	0.066115	1.038543	1
H	-2.321006	-0.791965	-0.502087	1
H	-2.335356	0.980475	-0.466967	1
H	1.123183	0.201535	-1.764217	1
H	-0.378736	1.060005	-2.117847	1
H	-0.334356	-0.709605	-2.182767	1
H	-0.243947	1.501445	1.587823	1
H	0.718964	2.057045	0.202603	1
H	2.281054	0.125015	0.426333	1
H	1.727114	0.112095	2.116053	1
H	-0.229066	-1.280135	1.584673	1
H	1.463504	-1.832165	-0.643577	1
Es	0.313507	0.475491	0.523307	99
Es	-0.502293	-0.115483	-0.616066	99
Es	1.191364	-0.348289	0.830455	99
Es	-0.778438	0.237482	-0.156981	99
Es	-0.792360	0.184127	-0.311068	99
Es	1.132119	-1.894097	0.104528	99
Es	0.327476	-0.573728	0.019149	99
Es	-0.189294	0.148051	0.053625	99
Es	-0.832943	0.276963	-0.112232	99
Es	-0.998651	0.267926	-0.595381	99
Es	0.997758	0.046814	0.832880	99
Es	0.760429	0.448466	1.025588	99
Es	-0.015031	0.193441	0.249501	99
Es	-1.114629	0.009549	-0.930398	99
Es	0.963549	-2.005430	-0.105361	99
Es	-0.921871	0.070146	-0.544668	99
Es	-0.697410	0.220980	-0.398499	99
Es	0.246034	-1.048873	-0.301227	99
Es	1.027627	-0.200568	1.058965	99
Es	-0.137177	0.122206	0.098754	99
Es	0.893502	-0.283282	0.410014	99
Es	-0.069599	0.622331	0.311810	99
Es	0.192110	0.145847	0.362220	99
Es	0.623433	-1.489932	0.019588	99
Es	0.556586	-0.361561	0.169729	99
Es	0.599248	-0.861732	0.256847	99
Es	-0.633292	0.286978	-0.253947	99
Es	0.482913	-0.645644	-0.118276	99
