41
Properties=species:S:1:pos:R:3:Z:I:1 energy=-306.82127625049895 field_type=dipole dipole="0.000000 0.000000 0.000000" charge=0
C	-2.092426	-0.045789	0.112666	6
C	-0.606256	-0.071019	0.033176	6
C	0.171484	-1.159679	-0.024314	6
C	1.629823	-0.847289	-0.099094	6
C	1.575214	0.662971	-0.080894	6
O	2.574904	1.374731	-0.133044	8
C	0.169194	1.210371	0.009366	6
H	-2.513786	-1.056309	0.108406	1
H	-2.510276	0.496731	-0.741144	1
H	-2.416246	0.450851	1.032636	1
H	-0.199576	-2.177009	-0.018744	1
H	2.165814	-1.221289	0.775486	1
H	2.069224	-1.203119	-1.033064	1
H	-0.060836	1.807891	-0.875544	1
H	0.043744	1.777961	0.934106	1
Es	-0.089856	-1.844027	-0.022891	99
Es	1.625286	-0.828679	-0.086694	99
Es	1.716374	-0.371581	-0.213642	99
Es	1.584407	0.674593	-0.074145	99
Es	-2.335111	-0.464112	0.251343	99
Es	0.987000	-1.029159	-0.011049	99
Es	0.456463	1.187835	0.012158	99
Es	0.166162	1.215643	0.051575	99
Es	-0.288268	-0.530971	-0.062914	99
Es	1.700224	1.296375	-0.139560	99
Es	-0.121880	0.853469	-0.049947	99
Es	0.028727	-0.959353	-0.022333	99
Es	-2.368517	0.359255	0.109501	99
Es	2.489160	1.146867	-0.245998	99
Es	2.655636	1.539969	-0.183870	99
Es	1.699395	-0.647303	-0.028773	99
Es	-2.216648	0.117879	-0.004244	99
Es	-0.127737	-0.719148	-0.017520	99
Es	-0.001140	1.670638	0.048454	99
Es	-2.162184	-0.157879	0.156970	99
Es	-0.483191	-0.239856	0.101231	99
Es	2.399143	1.061214	0.028344	99
Es	2.054086	-1.144455	-0.170196	99
Es	-1.388870	-0.084156	0.057348	99
Es	0.862604	0.933003	-0.057440	99
Es	2.620706	1.347239	-0.031914	99
