43
Properties=species:S:1:pos:R:3:Z:I:1 energy=-270.90940144749425 field_type=dipole dipole="0.000000 0.000000 0.000000" charge=0
C	-2.136741	-1.245207	0.512037	6
C	-0.652651	-1.060497	0.533636	6
C	0.048229	0.074893	0.332946	6
C	-0.567370	1.430203	0.099206	6
C	1.564540	0.061673	0.376586	6
C	2.126789	0.277523	-0.965043	6
C	2.591919	0.452943	-2.059034	6
H	-2.388981	-2.084027	-0.145024	1
H	-2.682311	-0.373617	0.145756	1
H	-2.496171	-1.482307	1.517926	1
H	-0.101531	-1.983117	0.716326	1
H	-1.642691	1.454783	0.288946	1
H	-0.401251	1.753823	-0.933113	1
H	-0.116550	2.170173	0.769557	1
H	1.936549	-0.890997	0.773066	1
H	1.917939	0.836673	1.066987	1
H	3.000279	0.607083	-3.030763	1
Es	-1.840970	-0.648935	0.455316	99
Es	0.083074	0.196903	0.293344	99
Es	-0.503665	-0.722980	0.476117	99
Es	-1.412567	-1.216136	0.499852	99
Es	0.306553	0.373170	0.260657	99
Es	2.376853	0.373946	-1.585230	99
Es	-2.002003	-1.488615	0.662074	99
Es	-2.202440	-1.306705	0.878788	99
Es	1.847884	0.384868	-0.386186	99
Es	2.066283	0.151110	-0.717532	99
Es	-0.329423	1.422235	-0.312037	99
Es	1.763394	-0.422363	0.522495	99
Es	2.404071	0.336346	-1.441227	99
Es	-0.777862	1.372067	0.150435	99
Es	1.731685	0.142841	-0.044102	99
Es	-0.468550	-1.205377	0.587354	99
Es	-1.878382	-0.962387	0.453482	99
Es	2.523746	0.546012	-1.725440	99
Es	-0.218428	-0.074715	0.273816	99
Es	-0.438702	-0.101190	0.353165	99
Es	1.591078	0.251682	0.131453	99
Es	-0.554426	0.934605	0.283560	99
Es	-1.474459	-1.098766	0.444459	99
Es	2.869493	0.547414	-2.142618	99
Es	-0.285257	1.771665	0.188810	99
Es	2.324340	0.421115	-1.541904	99
