42
Properties=species:S:1:pos:R:3:Z:I:1 energy=-343.8028826145461 field_type=dipole dipole="0.000000 0.000000 0.000000" charge=0
C	-2.139905	0.031783	0.331360	6
C	-0.797565	0.015433	0.276660	6
C	0.015584	-1.242387	0.252710	6
O	0.902615	-1.207707	-0.859430	8
C	1.710535	-0.038897	-0.827070	6
O	0.928915	1.144573	-0.915970	8
C	0.043475	1.252393	0.192690	6
H	-2.696245	0.964183	0.323090	1
H	-2.716866	-0.887247	0.367580	1
H	-0.614176	-2.131887	0.149060	1
H	0.592304	-1.351207	1.178780	1
H	2.343125	-0.024467	0.069680	1
H	2.371805	-0.067247	-1.698150	1
H	0.622915	1.392813	1.112890	1
H	-0.566515	2.149863	0.046120	1
Es	0.022837	-1.314926	0.284894	99
Es	-2.084765	-0.230900	0.343275	99
Es	1.115311	0.983932	-0.828350	99
Es	-0.260822	0.841495	0.275593	99
Es	-0.292873	-0.967144	0.235976	99
Es	-1.429570	0.012760	0.194944	99
Es	0.864437	1.164679	-0.699594	99
Es	1.274836	0.623649	-0.875999	99
Es	-2.515351	0.630998	0.335508	99
Es	1.049559	-1.241292	-0.767167	99
Es	-0.227440	1.613837	0.150158	99
Es	-1.760374	-0.132906	0.542723	99
Es	0.807531	0.572247	-0.605962	99
Es	1.634683	0.282374	-0.709132	99
Es	0.064872	-1.260316	0.300289	99
Es	0.857757	1.399930	-0.748392	99
Es	0.940307	-1.108958	-0.826670	99
Es	-0.091793	1.119020	0.233026	99
Es	0.241213	1.361157	0.230004	99
Es	1.016548	-0.620085	-0.724837	99
Es	0.466026	-1.370070	-0.589079	99
Es	-0.782754	0.062556	0.283263	99
Es	2.230590	-0.047262	-1.149021	99
Es	1.681986	0.074719	-0.761812	99
Es	0.858422	-1.185469	-0.660331	99
Es	0.023002	-1.360170	0.328900	99
Es	-2.194137	-0.084652	0.335959	99
