45
Properties=species:S:1:pos:R:3:Z:I:1 energy=-344.9726839159494 field_type=dipole dipole="0.000000 0.000000 0.000000" charge=0
C	-1.669975	0.791944	-0.698882	6
C	-0.172255	0.588234	-0.808222	6
O	0.551765	1.634574	-0.108272	8
C	1.443955	0.657384	0.481588	6
C	0.543485	-0.513006	0.029418	6
C	-0.232995	-1.148996	1.172678	6
O	1.191135	-1.564896	-0.732792	8
H	-2.205415	-0.067326	-1.113842	1
H	-1.977685	1.680154	-1.260442	1
H	-1.992015	0.928394	0.338478	1
H	0.126675	0.578104	-1.865792	1
H	2.434675	0.698794	0.017208	1
H	1.545825	0.802474	1.561158	1
H	-0.694875	-0.398306	1.822728	1
H	0.428515	-1.759596	1.796708	1
H	-1.026915	-1.799056	0.790098	1
H	1.706105	-1.108876	-1.421812	1
Es	0.481931	-0.406843	0.014087	99
Es	0.910389	0.369932	0.020966	99
Es	-1.710999	0.905706	-0.641836	99
Es	0.381890	1.212828	-0.349078	99
Es	1.091330	-1.254991	-0.140918	99
Es	0.919318	0.172278	0.014159	99
Es	0.199096	-0.646930	0.165369	99
Es	-1.550340	0.804773	-0.420079	99
Es	0.381737	-1.515564	0.378547	99
Es	0.699957	-0.213199	-0.086358	99
Es	-0.145396	-1.007152	0.379330	99
Es	0.527183	-0.930344	0.166888	99
Es	0.203831	0.686559	-0.338565	99
Es	0.820141	-0.746800	0.033862	99
Es	0.553472	1.126775	-0.165783	99
Es	-1.114055	0.568058	-0.540435	99
Es	0.795198	-0.519674	-0.004804	99
Es	-0.859134	1.219955	-0.396044	99
Es	0.613013	-0.884199	0.023532	99
Es	0.677325	-0.585551	0.082235	99
Es	0.297860	-0.624989	0.136886	99
Es	-1.004496	0.107048	-0.219467	99
Es	0.621881	0.806861	-0.163878	99
Es	1.065916	0.307508	0.001884	99
Es	0.313301	-0.760578	0.275080	99
Es	0.957212	1.121922	-0.016907	99
Es	-0.644692	1.255721	-0.458250	99
Es	0.409322	0.641888	-0.237408	99
