45
Properties=species:S:1:pos:R:3:Z:I:1 energy=-344.9727768562772 field_type=dipole dipole="0.000000 0.000000 0.000000" charge=0
C	-2.326612	0.384197	-0.249252	6
C	-0.833942	0.224017	-0.439402	6
O	-0.095032	1.273337	0.245968	8
C	0.841638	0.290017	0.770428	6
C	2.173408	0.394127	0.048768	6
C	-0.124842	-0.859053	0.398998	6
O	0.401448	-2.015223	-0.292662	8
H	-2.863142	-0.446893	-0.717672	1
H	-2.677492	1.312397	-0.711842	1
H	-2.599992	0.411337	0.811298	1
H	-0.565632	0.211417	-1.503482	1
H	0.962318	0.408267	1.852848	1
H	2.050048	0.379697	-1.039112	1
H	2.831728	-0.436803	0.326918	1
H	2.681558	1.328077	0.314448	1
H	-0.712832	-1.190873	1.263348	1
H	0.857378	-1.668043	-1.079602	1
Es	-0.326721	1.072098	0.190785	99
Es	0.475056	-2.046401	-0.142148	99
Es	2.512107	-0.110207	0.106836	99
Es	-0.830107	-0.085044	-0.207823	99
Es	-1.934840	0.061357	-0.216761	99
Es	-0.269438	-0.041954	-0.039038	99
Es	1.678008	0.590659	0.410547	99
Es	-0.018860	0.949626	0.251995	99
Es	0.469719	0.098093	0.280483	99
Es	-0.122600	-0.343022	0.006351	99
Es	-2.554347	0.654721	-0.195743	99
Es	1.641989	0.389203	0.319307	99
Es	-0.224645	0.705572	0.165635	99
Es	2.224228	0.435330	0.050481	99
Es	0.380917	-1.449137	-0.026782	99
Es	0.429570	-0.865048	0.014980	99
Es	0.233177	-1.279422	0.194390	99
Es	2.142595	0.638940	0.355966	99
Es	-0.896910	-0.058600	-0.195684	99
Es	-0.403525	-0.407628	0.132045	99
Es	-2.459317	0.644000	-0.279436	99
Es	0.273053	-1.992856	-0.376197	99
Es	0.415526	-1.984974	-0.187398	99
Es	-1.350340	0.148779	-0.231130	99
Es	-2.390058	0.193856	-0.282850	99
Es	0.206464	0.680956	0.298963	99
Es	-0.161334	1.509580	0.404621	99
Es	1.225698	0.388557	0.412745	99
