49
Properties=species:S:1:pos:R:3:Z:I:1 energy=-273.3101074664716 field_type=dipole dipole="0.000000 0.000000 0.000000" charge=0
C	-2.766281	-1.785955	-1.016484	6
C	-1.328241	-1.513566	-0.717124	6
C	-0.904031	-0.786926	0.328586	6
C	0.544209	-0.516086	0.629226	6
C	0.886169	0.985985	0.652836	6
C	2.331799	1.183695	1.115466	6
C	0.685469	1.645854	-0.714124	6
H	-3.017631	-1.405135	-2.011034	1
H	-3.436801	-1.314496	-0.291264	1
H	-2.951881	-2.864065	-1.003434	1
H	-0.604641	-1.941296	-1.407944	1
H	-1.629241	-0.364235	1.021316	1
H	1.191909	-1.031096	-0.091934	1
H	0.765069	-0.952865	1.611466	1
H	0.229859	1.489774	1.374976	1
H	3.037659	0.703065	0.429836	1
H	2.482789	0.756935	2.112406	1
H	2.581469	2.248544	1.167616	1
H	1.296629	1.160414	-1.482124	1
H	0.966699	2.703735	-0.677554	1
H	-0.360981	1.597725	-1.030714	1
Es	0.479434	1.645317	-0.757332	99
Es	-2.880795	-1.703273	-1.331646	99
Es	0.737340	1.138071	0.383437	99
Es	1.027534	1.663749	-0.893481	99
Es	-2.813655	-1.762506	-0.833036	99
Es	0.484523	1.445761	-0.693088	99
Es	0.665109	-0.375286	1.179835	99
Es	0.792079	1.203057	-0.014351	99
Es	-1.268012	-1.433843	-0.721096	99
Es	-0.899704	-0.853937	0.286841	99
Es	2.389509	1.180856	1.056212	99
Es	0.602544	-0.471659	0.700642	99
Es	0.319022	-0.680787	0.370585	99
Es	-1.262272	-0.819921	-0.150727	99
Es	2.437367	0.979141	1.684402	99
Es	-2.938405	-2.149266	-1.140790	99
Es	1.638230	1.132266	0.891134	99
Es	0.779873	1.566164	-0.064400	99
Es	0.248476	-0.538190	0.404788	99
Es	-2.558241	-1.609368	-0.932911	99
Es	-1.949583	-1.712859	-0.804284	99
Es	2.266354	1.343669	0.792553	99
Es	-1.194217	-1.345633	-0.025646	99
Es	2.443064	1.263288	1.082054	99
Es	0.723031	0.071057	0.342252	99
Es	0.959126	1.216666	0.455262	99
Es	-1.497355	-1.559807	-0.790218	99
Es	-1.096591	-0.802392	0.217318	99
