47
Properties=species:S:1:pos:R:3:Z:I:1 energy=-309.1568536395276 field_type=dipole dipole="0.000000 0.000000 0.000000" charge=0
C	-0.676108	-1.871852	-1.360034	6
C	-0.309708	-1.452162	0.055806	6
C	0.415391	-0.109862	0.101806	6
C	-0.400888	1.082658	-0.354584	6
C	0.361072	2.235438	0.265456	6
O	0.940912	1.744128	1.481206	8
C	0.796712	0.316918	1.510656	6
H	-1.144638	-2.860732	-1.349694	1
H	0.212961	-1.924432	-1.995564	1
H	-1.383668	-1.170922	-1.812434	1
H	0.332322	-2.223242	0.498426	1
H	-1.221918	-1.413222	0.663956	1
H	1.327002	-0.163882	-0.508504	1
H	-1.414738	1.038428	0.062766	1
H	-0.482558	1.173458	-1.441624	1
H	1.177962	2.565298	-0.384924	1
H	-0.280689	3.093828	0.482416	1
H	1.734682	-0.136762	1.843926	1
H	0.015902	0.076918	2.240946	1
Es	0.096814	2.000422	-0.186718	99
Es	-1.039131	-1.483800	-1.735795	99
Es	0.449020	0.254033	0.681476	99
Es	0.083704	0.594380	-0.244608	99
Es	-0.085614	-0.305501	-0.187346	99
Es	0.018981	0.230701	-0.137215	99
Es	-0.709300	-1.898991	-1.368225	99
Es	1.108033	0.207552	1.606466	99
Es	-0.378954	-1.599265	-0.695485	99
Es	1.015856	2.005242	1.619037	99
Es	0.770963	1.918642	0.983444	99
Es	0.227955	2.057863	0.047026	99
Es	0.680298	0.691606	1.132161	99
Es	0.589769	2.087273	0.558388	99
Es	-0.192024	-1.243699	0.113656	99
Es	0.822814	0.167767	1.840471	99
Es	-0.490813	-1.712596	-1.141367	99
Es	0.930152	1.695574	1.462912	99
Es	0.460758	0.161139	1.237928	99
Es	-0.236212	-1.070159	-0.280495	99
Es	-0.347496	1.200092	-0.296099	99
Es	-0.356754	1.070804	-0.688903	99
Es	0.456157	0.528487	0.840663	99
Es	-0.029913	-0.860789	0.092563	99
Es	-0.947319	-2.453668	-1.345388	99
Es	0.824521	1.797500	1.278441	99
Es	0.042409	-1.961521	0.370633	99
Es	0.082143	2.656515	0.323632	99
