44
Properties=species:S:1:pos:R:3:Z:I:1 energy=-307.964218834077 field_type=dipole dipole="0.000000 0.000000 0.000000" charge=0
C	-3.281895	0.709475	0.278875	6
C	-1.925045	0.219885	0.668605	6
C	-0.836585	0.350085	-0.103965	6
C	0.466585	-0.131755	0.291315	6
C	1.564365	0.045015	-0.458905	6
C	2.924875	-0.436655	-0.077545	6
O	3.440435	-1.218265	-1.143445	8
H	-3.629325	1.457425	0.997845	1
H	-3.991925	-0.123025	0.278205	1
H	-3.289105	1.163705	-0.716805	1
H	-1.854355	-0.260935	1.641285	1
H	-0.918185	0.838655	-1.072695	1
H	0.538925	-0.652695	1.244065	1
H	1.502396	0.578045	-1.405095	1
H	2.915895	-1.047855	0.830625	1
H	3.594685	0.413115	0.082595	1
H	2.778255	-1.904215	-1.334965	1
Es	-1.031344	0.190923	0.033962	99
Es	-3.082066	0.573755	0.362780	99
Es	0.895469	-0.061440	0.060654	99
Es	3.631123	-1.073385	-1.330477	99
Es	-3.367323	0.804303	-0.196715	99
Es	1.275265	-0.009226	-0.318386	99
Es	3.238472	-1.087351	-1.016384	99
Es	1.226407	0.017045	-0.172567	99
Es	-0.747364	0.269713	-0.034955	99
Es	-3.597772	0.940500	0.691753	99
Es	-3.077143	0.550133	0.353690	99
Es	-1.094230	0.398565	-0.559600	99
Es	1.580302	0.305557	-1.010812	99
Es	3.196706	-0.931911	-0.850841	99
Es	-1.986731	0.246667	0.718724	99
Es	-3.186369	0.664195	0.221438	99
Es	-0.010684	0.013555	0.378073	99
Es	-1.564612	0.279627	0.656223	99
Es	0.140705	-0.133347	0.400990	99
Es	2.283166	-0.399735	-0.001556	99
Es	-1.628990	0.197619	1.025944	99
Es	3.181763	-0.670124	-0.446645	99
Es	3.493020	-1.108894	-0.755447	99
Es	2.770772	-0.624917	0.268553	99
Es	0.616706	-0.169093	0.105566	99
Es	3.313100	-0.945054	-0.824250	99
Es	3.079030	-0.610957	-0.369659	99
