44
Properties=species:S:1:pos:R:3:Z:I:1 energy=-307.94862954217547 field_type=dipole dipole="0.000000 0.000000 0.000000" charge=0
C	-3.230485	-0.818485	-0.322484	6
C	-1.786485	-0.818485	-0.322484	6
C	-0.596326	-0.818485	-0.322484	6
C	0.847674	-0.818485	-0.322484	6
C	1.446084	0.595575	-0.346114	6
C	1.187524	1.376805	0.937567	6
O	2.860575	0.506315	-0.542304	8
H	-3.624365	0.202415	-0.308874	1
H	-3.624536	-1.340585	0.554837	1
H	-3.624585	-1.317085	-1.213344	1
H	1.218374	-1.372175	-1.194394	1
H	1.232324	-1.364765	0.547766	1
H	1.042735	1.158065	-1.195884	1
H	1.595535	0.849355	1.807416	1
H	0.119195	1.547505	1.102257	1
H	1.689845	2.349494	0.897466	1
H	3.246915	0.083025	0.243536	1
Es	1.272590	0.148073	-0.138559	99
Es	-1.209837	-0.641043	-0.063826	99
Es	-3.363575	-0.906468	-0.189047	99
Es	1.268881	1.249909	0.529013	99
Es	1.286146	1.089295	0.534546	99
Es	2.829773	0.402346	-0.462285	99
Es	0.323502	-0.734267	-0.454246	99
Es	2.894741	0.427312	-0.661232	99
Es	2.976633	0.758905	-0.591074	99
Es	0.637688	-0.990004	-0.567941	99
Es	0.416425	-0.940134	-0.342024	99
Es	1.315306	0.125818	-0.191766	99
Es	1.203969	1.362616	0.925438	99
Es	-1.037202	-0.873253	-0.529034	99
Es	-2.460681	-0.813054	-0.340102	99
Es	-3.135299	-0.705357	-0.322645	99
Es	-3.487674	-1.179319	-0.615497	99
Es	2.929593	0.408137	-0.263839	99
Es	-0.530342	-0.894462	-0.317876	99
Es	-1.920653	-0.821387	-0.330198	99
Es	1.353297	0.334387	-0.246603	99
Es	2.322478	0.547054	-0.281845	99
Es	1.655845	1.568922	0.944434	99
Es	1.024750	-0.509295	-0.235902	99
Es	-0.770899	-0.794023	-0.401328	99
Es	-3.491580	-0.491788	-0.078083	99
Es	0.510273	1.434796	0.905447	99
