47
Properties=species:S:1:pos:R:3:Z:I:1 energy=-309.1437077523465 field_type=dipole dipole="0.000000 0.000000 0.000000" charge=0
C	-0.987090	-2.054740	0.977594	6
C	-0.553040	-1.499951	-0.372866	6
C	-0.197850	-0.025560	-0.327666	6
C	-1.340480	0.900169	-0.003456	6
C	1.061030	0.373989	-0.604726	6
C	1.616130	1.761459	-0.635916	6
O	2.674601	1.832749	0.307814	8
H	-1.151320	-3.134670	0.904414	1
H	-1.924550	-1.601231	1.314684	1
H	-0.224430	-1.878421	1.743554	1
H	-1.354400	-1.653991	-1.106106	1
H	0.300540	-2.091841	-0.727556	1
H	-2.191870	0.690210	-0.659256	1
H	-1.095309	1.955909	-0.131376	1
H	-1.660590	0.762479	1.034334	1
H	1.803151	-0.385331	-0.848706	1
H	0.892000	2.540770	-0.393666	1
H	2.025920	1.976779	-1.627336	1
H	2.307550	1.531219	1.156234	1
Es	-0.615129	0.338383	-0.173915	99
Es	1.873261	1.535523	-0.210069	99
Es	2.292806	1.815991	-0.136934	99
Es	-1.015112	0.506330	-0.063619	99
Es	-1.112299	-2.292959	0.592170	99
Es	-0.495673	-0.376030	-0.175160	99
Es	0.447545	0.180997	-0.341018	99
Es	1.589294	1.728544	-0.378220	99
Es	-1.123900	0.417372	-0.259956	99
Es	1.780194	0.914453	-0.168023	99
Es	-0.223322	-1.175554	-0.139313	99
Es	2.272998	1.461436	-0.053209	99
Es	1.860034	1.341844	-0.266154	99
Es	2.180223	1.835212	-0.213119	99
Es	-1.044068	1.114060	-0.137742	99
Es	-1.051479	-1.712487	0.443326	99
Es	-0.857123	-1.745943	0.400492	99
Es	-0.986529	-1.943980	0.443213	99
Es	2.070353	1.770131	-0.290090	99
Es	-0.719667	-2.114934	0.543862	99
Es	-0.696649	-1.334336	0.156801	99
Es	2.351603	1.816735	-0.206654	99
Es	2.023788	1.696543	-0.217226	99
Es	-1.078802	-0.140757	-0.065498	99
Es	-0.642704	-1.796505	0.409355	99
Es	0.318919	0.300548	-0.391250	99
Es	0.326369	-0.003672	-0.415181	99
Es	-1.132192	1.000506	-0.052314	99
