47
Properties=species:S:1:pos:R:3:Z:I:1 energy=-309.14580695257706 field_type=dipole dipole="0.000000 0.000000 0.000000" charge=0
C	-2.853203	-1.027316	0.819484	6
C	-1.341343	-1.007136	0.651944	6
C	-0.816693	0.420274	0.495374	6
C	0.677567	0.439154	0.333334	6
C	1.306747	0.938124	-0.742596	6
C	2.789107	0.978344	-0.911216	6
O	3.126437	0.239624	-2.073606	8
H	-3.207793	-2.055996	0.935854	1
H	-3.349713	-0.593416	-0.053856	1
H	-3.156863	-0.460706	1.705094	1
H	-1.069433	-1.607076	-0.225416	1
H	-0.878463	-1.485206	1.524314	1
H	-1.076323	1.010124	1.381834	1
H	-1.304973	0.900294	-0.361246	1
H	1.259047	0.031024	1.159494	1
H	0.727957	1.357334	-1.562376	1
H	3.322297	0.549284	-0.057076	1
H	3.127227	2.010574	-1.045706	1
H	2.718417	-0.637306	-1.973636	1
Es	2.759397	0.676966	-1.083368	99
Es	-1.038741	-0.363500	0.574572	99
Es	0.820852	0.444888	0.023111	99
Es	3.122181	0.248720	-2.062463	99
Es	1.064895	0.671607	-0.264424	99
Es	-0.805362	0.340652	0.457948	99
Es	0.701520	0.440391	0.209857	99
Es	2.947182	0.531578	-1.537818	99
Es	1.291598	0.937770	-0.747828	99
Es	3.015847	0.497274	-1.646972	99
Es	-0.515203	0.259640	0.482416	99
Es	2.224816	0.878446	-0.904243	99
Es	2.625233	0.843393	-0.977539	99
Es	-3.105784	-1.565128	0.870057	99
Es	-2.733360	-0.996499	0.627297	99
Es	3.059487	1.273895	-1.256411	99
Es	-2.976537	-0.673859	1.216165	99
Es	3.304862	0.453206	-2.039468	99
Es	-1.709740	-1.005497	0.644174	99
Es	-0.866653	0.079239	0.332024	99
Es	2.918657	0.144364	-1.760247	99
Es	0.963843	0.445485	0.331835	99
Es	-0.949460	-0.643834	0.626296	99
Es	-1.293404	-1.039293	0.410271	99
Es	-0.908062	0.566129	0.893198	99
Es	-1.842132	-0.802249	0.697980	99
Es	-2.838791	-0.934982	0.729407	99
Es	1.257991	1.043752	-0.656258	99
