39
Properties=species:S:1:pos:R:3:Z:I:1 energy=-342.64440098177874 field_type=dipole dipole="0.000000 0.000000 0.000000" charge=0
C	-2.583814	-0.449329	0.202848	6
C	-1.139814	-0.449329	0.202848	6
C	0.050346	-0.449329	0.202848	6
C	1.494346	-0.449329	0.202848	6
C	2.130246	0.885411	-0.128782	6
O	1.437186	1.670411	-0.986522	8
O	3.237936	1.212041	0.277858	8
H	-2.977704	0.571601	0.213528	1
H	-2.977934	-0.969009	1.081568	1
H	-2.977844	-0.950389	-0.686662	1
H	1.876846	-1.178179	-0.519852	1
H	1.854636	-0.743529	1.195358	1
H	0.575566	1.298961	-1.257892	1
Es	-0.497905	-0.452227	0.199241	99
Es	-0.458072	-0.472757	0.317370	99
Es	1.902335	1.157028	-0.487339	99
Es	1.239475	1.531858	-0.991959	99
Es	-2.911327	-0.127451	-0.098173	99
Es	3.203500	1.074441	0.267729	99
Es	1.243628	1.758281	-0.921860	99
Es	1.652200	-0.606546	0.587872	99
Es	1.985027	1.151656	-0.415067	99
Es	1.905618	0.124729	0.036031	99
Es	1.400026	1.654494	-0.987277	99
Es	3.037222	1.126459	0.219755	99
Es	-2.676216	-0.518600	0.319036	99
Es	-1.130497	-0.446094	0.200329	99
Es	0.098559	-0.525401	0.216863	99
Es	3.430234	1.289643	0.181649	99
Es	1.472599	1.584308	-1.075952	99
Es	1.561869	-0.776274	0.060240	99
Es	-2.787037	-0.641079	0.179992	99
Es	2.653528	1.020279	0.220318	99
Es	-2.634402	-0.511048	0.302570	99
Es	0.726701	-0.371457	0.238191	99
Es	-0.556064	-0.382374	0.054758	99
Es	1.519013	-0.377360	0.186502	99
Es	3.214084	1.305871	0.244926	99
Es	-1.846537	-0.472641	0.238282	99
