45
Properties=species:S:1:pos:R:3:Z:I:1 energy=-345.03616706122887 field_type=dipole dipole="0.000000 0.000000 0.000000" charge=0
C	-2.360472	-1.133879	0.079476	6
C	-0.843842	-1.116989	-0.025694	6
C	-0.293382	0.306281	0.048646	6
C	1.231008	0.318751	-0.051124	6
C	1.789958	1.721941	0.008946	6
O	3.137548	1.741900	-0.122494	8
O	1.135677	2.740211	0.161166	8
H	-2.733282	-2.161209	0.019516	1
H	-2.816692	-0.558939	-0.732724	1
H	-2.692302	-0.707189	1.031416	1
H	-0.543932	-1.583329	-0.971483	1
H	-0.420592	-1.723309	0.783686	1
H	-0.605402	0.775171	0.990126	1
H	-0.721062	0.910831	-0.760863	1
H	1.541458	-0.132479	-1.000174	1
H	1.661678	-0.255249	0.776917	1
H	3.533638	0.857491	-0.235344	1
Es	1.196958	0.914761	-0.011410	99
Es	-0.571208	-0.751010	-0.008771	99
Es	1.869682	2.202890	0.124423	99
Es	3.142049	1.866763	-0.294977	99
Es	0.898057	0.321139	-0.076003	99
Es	1.317791	0.278118	-0.036393	99
Es	3.063517	1.731203	-0.025233	99
Es	-0.313473	0.502914	0.079018	99
Es	-0.571450	0.741843	0.213394	99
Es	-0.558651	-1.541550	-0.070850	99
Es	1.247473	2.650815	0.122726	99
Es	-2.552228	-0.888842	0.132309	99
Es	1.506460	-0.126702	-0.145521	99
Es	3.271908	1.737034	-0.089779	99
Es	1.164606	0.234107	-0.042590	99
Es	-2.303860	-1.126717	0.069081	99
Es	-1.719088	-1.209664	0.046811	99
Es	1.556700	2.183637	0.133795	99
Es	-2.543886	-0.759350	0.127985	99
Es	-2.629039	-1.663421	0.044060	99
Es	0.863823	2.748244	0.071751	99
Es	3.226816	1.345523	-0.133724	99
Es	-0.784790	-1.165495	-0.150320	99
Es	1.168432	2.739707	0.151960	99
Es	-0.571544	-0.491606	0.051812	99
Es	-0.462533	-0.133697	0.001629	99
Es	2.257283	1.928438	0.009208	99
Es	1.517810	2.147648	0.040850	99
