44
Properties=species:S:1:pos:R:3:Z:I:1 energy=-307.9837056524324 field_type=dipole dipole="0.000000 0.000000 0.000000" charge=0
C	-1.441056	-1.397673	0.680628	6
C	-0.095306	-0.770983	0.324048	6
C	0.576624	-1.531143	-0.813772	6
C	-0.270256	0.691387	-0.072512	6
O	-1.288586	1.111467	-0.618092	8
C	0.882934	1.599797	0.206138	6
C	0.828044	2.899097	-0.110652	6
H	-1.934636	-0.830143	1.477238	1
H	-1.309386	-2.427193	1.029628	1
H	-2.117896	-1.416123	-0.180662	1
H	0.539924	-0.814913	1.217068	1
H	-0.021106	-1.483823	-1.730842	1
H	0.716254	-2.584643	-0.550812	1
H	1.560334	-1.107323	-1.041782	1
H	1.761464	1.170277	0.671538	1
H	-0.052036	3.333067	-0.578762	1
H	1.664684	3.558867	0.091598	1
Es	1.273749	1.465396	0.267645	99
Es	-0.170037	0.148237	0.094344	99
Es	-1.184017	-1.036948	0.652617	99
Es	-1.228686	1.194257	-0.369355	99
Es	0.015799	-1.236837	-0.195852	99
Es	-0.065464	0.590955	-0.020382	99
Es	1.203578	-1.224952	-0.810371	99
Es	-1.169931	1.047168	-0.526789	99
Es	-0.190318	1.060773	-0.219787	99
Es	0.374200	1.116740	0.136782	99
Es	-1.266550	0.768145	-0.392965	99
Es	1.312557	3.221586	0.031355	99
Es	0.583097	2.359835	0.100924	99
Es	-0.168374	-1.249945	-0.077959	99
Es	0.377154	-1.241144	-0.398880	99
Es	-1.396193	-1.845778	0.701951	99
Es	-0.080592	-1.247881	-0.069466	99
Es	0.602869	2.746386	-0.189797	99
Es	0.872440	2.180979	0.005270	99
Es	0.591131	-2.030574	-0.626633	99
Es	-0.283591	-0.613212	0.207225	99
Es	0.652104	2.881950	-0.264371	99
Es	-0.035316	-1.013800	-0.173631	99
Es	0.080109	1.395708	-0.212631	99
Es	-1.554540	-1.354178	0.613676	99
Es	-1.036814	1.028760	-0.454480	99
Es	-1.696530	-1.431191	0.440261	99
