44
Properties=species:S:1:pos:R:3:Z:I:1 energy=-307.93316327615685 field_type=dipole dipole="0.000000 0.000000 0.000000" charge=0
C	-0.955992	-0.308386	1.583064	6
C	0.413018	-0.216956	0.907034	6
C	0.409487	-0.812476	-0.509886	6
C	-0.554782	-0.147506	-1.489096	6
O	-0.445933	-0.777056	-2.761496	8
C	0.895037	1.144214	0.907034	6
C	1.292318	2.266114	0.907034	6
H	-0.888442	-0.001586	2.632704	1
H	-1.334422	-1.335066	1.558994	1
H	-1.695132	0.342464	1.104694	1
H	1.106807	-0.824686	1.503244	1
H	0.166588	-1.882306	-0.454006	1
H	1.424048	-0.771636	-0.930426	1
H	-0.341712	0.917814	-1.616786	1
H	-1.591812	-0.255346	-1.160256	1
H	0.453038	-0.608596	-3.092536	1
H	1.647887	3.270994	0.910684	1
Es	-0.089079	-0.527965	-1.253139	99
Es	0.901109	1.139217	0.861178	99
Es	1.300277	2.343353	0.838519	99
Es	-0.563986	-0.262306	1.406954	99
Es	-0.276187	-0.613494	-2.458919	99
Es	1.060753	1.641425	0.898262	99
Es	-0.503245	-0.978030	-2.631256	99
Es	-0.323796	-0.760716	-2.656016	99
Es	0.266621	-0.073149	1.048299	99
Es	0.071365	-0.516164	-0.232594	99
Es	0.760822	0.729206	0.904041	99
Es	-0.104746	-0.446970	-1.040961	99
Es	0.063118	0.169501	1.097775	99
Es	-0.666083	-0.450395	1.347394	99
Es	0.511134	0.269219	0.861405	99
Es	-1.039115	-0.679524	1.595539	99
Es	-0.196980	-0.317008	1.120601	99
Es	-0.256761	-0.391912	0.667812	99
Es	-0.224662	-0.545937	-1.874478	99
Es	-0.194299	-0.488024	-1.427163	99
Es	1.438213	2.315100	1.035482	99
Es	-0.159185	0.292573	1.341976	99
Es	1.256192	1.927049	0.895685	99
Es	-0.191265	-0.574230	-2.860394	99
Es	-0.063363	-0.157101	-1.283251	99
Es	-0.357784	-0.553428	-1.013749	99
Es	-0.335755	-0.426461	-1.198668	99
