44
Properties=species:S:1:pos:R:3:Z:I:1 energy=-307.9360050871883 field_type=dipole dipole="0.000000 0.000000 0.000000" charge=0
C	-0.359054	-1.833551	-1.229914	6
C	-0.711604	-0.992391	-0.009214	6
C	-0.156183	0.443409	-0.076354	6
C	-0.693014	1.262039	1.111766	6
O	-0.416553	2.653979	0.953916	8
C	1.287816	0.443409	-0.076354	6
C	2.477977	0.443409	-0.076354	6
H	-0.844404	-2.812931	-1.162964	1
H	0.719887	-2.004271	-1.304484	1
H	-0.697074	-1.350651	-2.152034	1
H	-0.346744	-1.501201	0.891796	1
H	-1.804614	-0.952481	0.069556	1
H	-0.506984	0.918149	-1.001994	1
H	-0.263274	0.932559	2.064796	1
H	-1.781673	1.164359	1.183626	1
H	0.551436	2.747829	0.895696	1
H	3.544056	0.438339	-0.081484	1
Es	-0.495542	1.826679	1.186700	99
Es	2.751234	0.561085	-0.111588	99
Es	-0.529973	1.178624	0.711074	99
Es	-0.265219	0.518831	-0.156379	99
Es	-0.215133	-0.025413	0.041746	99
Es	1.846217	0.425875	-0.048784	99
Es	2.282639	0.221548	-0.229763	99
Es	-1.440962	-0.972276	0.056933	99
Es	2.095044	0.414930	-0.149280	99
Es	-0.545268	1.034569	0.728066	99
Es	-0.011367	0.309626	-0.112204	99
Es	-0.628704	-1.238076	-0.611369	99
Es	1.172676	0.452594	-0.074811	99
Es	-0.418446	2.445193	0.795662	99
Es	-0.492422	-1.154123	0.036141	99
Es	-0.540980	1.884819	1.252398	99
Es	1.789546	0.608800	0.004125	99
Es	-0.443761	-1.849188	-1.264600	99
Es	-0.561428	-2.268332	-1.091799	99
Es	-0.290803	2.468824	0.994621	99
Es	-0.575920	2.312289	1.109405	99
Es	-0.648964	-1.160045	-0.476184	99
Es	0.810715	0.451952	0.025209	99
Es	0.261647	-1.896513	-1.298741	99
Es	-0.529118	-1.615538	-0.980704	99
Es	-1.142824	1.168203	1.006459	99
Es	-0.136614	2.775735	1.113213	99
