44
Properties=species:S:1:pos:R:3:Z:I:1 energy=-307.95021423562133 field_type=dipole dipole="0.000000 0.000000 0.000000" charge=0
C	-2.175545	-1.867429	1.391994	6
C	-0.758805	-1.452449	1.178203	6
C	-0.392015	-0.371299	0.480953	6
O	0.926565	-0.024119	0.333543	8
C	1.306616	0.988471	-0.540817	6
C	0.567495	1.147990	-1.837496	6
C	2.395736	1.709961	-0.246017	6
H	-2.406865	-1.867879	2.461593	1
H	-2.329595	-2.879709	1.006104	1
H	-2.882144	-1.199689	0.889174	1
H	0.010905	-2.076809	1.624864	1
H	-1.102175	0.303691	0.027623	1
H	0.412585	0.174871	-2.314617	1
H	1.125035	1.771621	-2.545127	1
H	-0.404505	1.624551	-1.678246	1
H	2.937535	1.537250	0.678653	1
H	2.769175	2.480980	-0.910386	1
Es	-0.828672	-0.270830	0.341082	99
Es	-0.541303	-0.603738	0.621154	99
Es	-1.037522	-1.633490	1.376373	99
Es	0.935902	1.575813	-2.269839	99
Es	0.908674	0.020709	0.393996	99
Es	0.546219	-0.266208	0.300068	99
Es	1.416465	1.121059	-0.549020	99
Es	0.375491	1.037897	-1.837681	99
Es	0.967646	1.072731	-1.103533	99
Es	2.300285	1.596889	-0.365918	99
Es	-2.287842	-2.184527	1.260980	99
Es	-2.646971	-1.684389	1.020004	99
Es	-1.981372	-1.844868	1.615295	99
Es	-0.452719	-0.344681	0.461766	99
Es	0.065705	0.977625	-1.916483	99
Es	1.018524	0.421410	0.013970	99
Es	0.824805	0.000850	0.340172	99
Es	-0.528782	-1.630269	1.317813	99
Es	-1.223076	-1.800040	1.547512	99
Es	2.742687	2.097464	-0.401317	99
Es	2.256958	1.510264	-0.278120	99
Es	1.582756	1.364593	-0.422762	99
Es	0.548564	1.141697	-1.826386	99
Es	-2.176634	-1.902470	1.456595	99
Es	2.475871	1.506994	-0.079038	99
Es	1.090586	-0.114321	0.432665	99
Es	-0.616690	-0.898795	0.895400	99
