49
Properties=species:S:1:pos:R:3:Z:I:1 energy=-273.30492491242967 field_type=dipole dipole="0.000000 0.000000 0.000000" charge=0
C	-2.274348	-0.950476	-0.362985	6
C	-0.819548	-0.591466	-0.047715	6
C	0.096062	-1.744206	-0.461475	6
C	-0.449368	0.733874	-0.743635	6
C	0.968042	1.251604	-0.467315	6
C	1.217472	1.543454	0.984485	6
C	2.163432	0.943924	1.718325	6
H	-2.951717	-0.155516	-0.033075	1
H	-2.568258	-1.872136	0.150715	1
H	-2.423687	-1.099506	-1.437975	1
H	-0.740968	-0.463216	1.038425	1
H	0.093202	-1.883546	-1.547915	1
H	-0.229858	-2.682956	-0.000015	1
H	1.128032	-1.570066	-0.142785	1
H	-1.169808	1.506464	-0.442895	1
H	-0.563838	0.616284	-1.829255	1
H	1.110343	2.184734	-1.026185	1
H	1.709953	0.548164	-0.861765	1
H	0.587382	2.298534	1.450255	1
H	2.818053	0.187004	1.297715	1
H	2.299423	1.199044	2.765065	1
Es	-0.277838	-0.410373	-0.448468	99
Es	-2.354841	-1.170217	-0.869042	99
Es	-0.778892	1.027182	-0.590255	99
Es	2.150279	1.037956	1.826123	99
Es	0.006979	-2.014147	-0.272594	99
Es	-1.225445	-0.574743	-0.481602	99
Es	-0.601015	0.615928	-0.687428	99
Es	1.078833	1.749731	0.303011	99
Es	-0.674547	-1.250856	-0.472595	99
Es	-0.762404	-0.547401	-0.350389	99
Es	0.843631	0.897675	0.079466	99
Es	0.995804	1.092850	0.292597	99
Es	-0.265891	-0.545567	-0.087127	99
Es	0.639344	1.157295	-0.097301	99
Es	-0.250634	-0.973557	-0.221322	99
Es	-0.229211	-1.090857	-0.247280	99
Es	1.027922	1.334551	0.557506	99
Es	0.857526	0.948835	0.235897	99
Es	-0.692351	-1.445859	-0.505220	99
Es	-2.071982	-0.800825	-0.364138	99
Es	-1.987201	-1.212642	-0.446003	99
Es	1.664642	1.175687	0.861829	99
Es	2.375792	0.624380	1.502927	99
Es	0.027227	-0.003231	-0.011188	99
Es	2.283506	1.120796	1.721291	99
Es	1.575962	1.239511	0.758723	99
Es	-1.963308	-0.490246	-0.504714	99
Es	0.885902	1.465730	0.087229	99
