42
Properties=species:S:1:pos:R:3:Z:I:1 energy=-343.8415323270618 field_type=dipole dipole="0.000000 0.000000 0.000000" charge=0
C	-1.813004	-0.675696	0.176943	6
C	-0.359124	-0.954546	0.416823	6
C	0.124886	-2.172856	0.686823	6
O	0.508826	0.156724	0.483723	8
C	0.598966	0.931244	-0.645167	6
C	1.535576	2.072764	-0.380187	6
O	0.029106	0.752584	-1.712837	8
H	-2.131384	0.201974	0.748783	1
H	-2.439484	-1.517136	0.492153	1
H	-2.011884	-0.494106	-0.882767	1
H	-0.515314	-3.048726	0.692103	1
H	1.178036	-2.319966	0.902383	1
H	2.516586	1.688464	-0.089307	1
H	1.125076	2.714594	0.403203	1
H	1.653136	2.664684	-1.292667	1
Es	0.664142	0.264357	0.177122	99
Es	0.204725	-0.084090	0.242948	99
Es	-0.104265	0.946343	-1.590766	99
Es	0.497573	0.220526	0.215128	99
Es	-1.077279	-1.570540	0.539124	99
Es	-0.938180	-0.139788	-0.286661	99
Es	-0.341829	-1.977117	0.725819	99
Es	0.208903	0.799557	-1.342882	99
Es	0.269044	1.086400	-1.372158	99
Es	1.259981	1.774047	-0.574970	99
Es	-1.793893	-1.206277	0.355886	99
Es	-0.148396	-1.509660	0.791512	99
Es	1.810569	1.938688	-0.409700	99
Es	0.328584	-2.150628	0.723470	99
Es	-1.934625	-0.566415	-0.503698	99
Es	1.683318	2.180095	-0.584848	99
Es	-0.667370	-0.045858	-0.429239	99
Es	-1.712796	-0.612511	0.085414	99
Es	0.333399	0.674677	-0.487598	99
Es	0.460588	0.495209	-0.020142	99
Es	-0.299447	-1.240067	0.365041	99
Es	1.474183	1.967705	-0.326752	99
Es	0.369006	-2.207879	0.799267	99
Es	0.427539	1.170522	-1.177127	99
Es	0.650995	0.083192	0.659165	99
Es	1.104644	1.855052	-0.763852	99
Es	-0.677155	-1.004647	0.344131	99
