45
Properties=species:S:1:pos:R:3:Z:I:1 energy=-345.015103976278 field_type=dipole dipole="0.000000 0.000000 0.000000" charge=0
C	-2.429958	-0.765438	0.145517	6
C	-0.924528	-0.893248	0.294987	6
C	-0.222548	0.452392	0.281877	6
O	-0.826678	1.524462	0.193147	8
C	1.305002	0.434052	0.391977	6
C	1.935232	0.198732	-0.968743	6
O	1.774212	1.678912	0.899217	8
H	-2.901708	-1.751538	0.184257	1
H	-2.690208	-0.298398	-0.809773	1
H	-2.855088	-0.151188	0.945827	1
H	-0.527928	-1.503268	-0.522303	1
H	-0.692658	-1.386368	1.244987	1
H	1.603332	-0.343518	1.101707	1
H	1.653552	0.991412	-1.671603	1
H	1.628692	-0.760108	-1.398133	1
H	3.027862	0.216022	-0.893753	1
H	1.143412	2.357092	0.580807	1
Es	1.649828	0.170925	-0.426266	99
Es	1.565071	0.784506	0.260364	99
Es	-2.393754	-0.772528	0.098069	99
Es	-0.707766	1.005884	0.358621	99
Es	-0.832093	-1.016724	-0.063303	99
Es	2.066420	1.797683	0.853487	99
Es	2.037479	0.226410	-0.512608	99
Es	1.118882	0.433877	-0.198432	99
Es	1.646550	1.783756	0.799268	99
Es	-1.888968	-0.648861	0.372737	99
Es	1.739551	1.346706	0.598654	99
Es	-0.733948	1.147013	0.340720	99
Es	1.446972	0.566381	0.008576	99
Es	0.050067	1.725366	0.493729	99
Es	-2.755163	-1.316545	0.005984	99
Es	-1.111966	1.153091	0.265367	99
Es	-0.808152	-0.854604	0.091365	99
Es	0.205089	1.133584	0.288194	99
Es	-2.285535	-0.364778	0.541177	99
Es	2.249685	0.211676	-0.638069	99
Es	-0.306129	0.667451	0.207854	99
Es	-0.986256	-0.558228	0.445510	99
Es	-2.303453	-0.656437	-0.045935	99
Es	1.691226	-0.219432	-0.897042	99
Es	1.264906	0.640587	0.031579	99
Es	1.300060	0.565937	0.099670	99
Es	-0.781965	-0.341297	0.325405	99
Es	0.346061	1.509178	0.582180	99
