45
Properties=species:S:1:pos:R:3:Z:I:1 energy=-344.9479849866962 field_type=dipole dipole="0.000000 0.000000 0.000000" charge=0
C	-2.718394	0.629869	0.433549	6
C	-1.274664	0.322269	0.774029	6
O	-0.666835	-0.306451	-0.353351	8
C	0.700645	-0.686251	-0.103191	6
C	1.559596	-0.809831	-1.330851	6
C	1.750735	0.352439	-0.403331	6
O	2.923096	0.331649	0.426189	8
H	-3.221174	1.118999	1.273399	1
H	-3.259835	-0.288621	0.184219	1
H	-2.777725	1.283199	-0.443161	1
H	-1.227684	-0.348271	1.638469	1
H	-0.738884	1.248479	1.008809	1
H	0.889465	-1.393011	0.698069	1
H	1.097395	-0.616111	-2.292231	1
H	2.308206	-1.591521	-1.352571	1
H	1.407066	1.323019	-0.746611	1
H	3.248995	-0.569851	0.588569	1
Es	-2.605456	0.580493	0.501889	99
Es	-0.847557	-0.369065	-0.532270	99
Es	2.888832	0.184849	0.388521	99
Es	1.459373	-0.491046	-1.021698	99
Es	0.529873	-0.494285	-0.191809	99
Es	-3.092059	0.935927	0.946997	99
Es	2.693086	0.338014	0.203842	99
Es	-0.586139	-0.338751	-0.297344	99
Es	-1.506980	0.432544	0.697232	99
Es	1.672163	-0.054333	-0.622826	99
Es	3.094293	0.209751	0.250573	99
Es	-1.060672	0.438351	1.012367	99
Es	-0.703510	-0.254351	-0.219013	99
Es	0.046313	-0.515720	-0.237259	99
Es	0.979885	-0.873124	-1.006510	99
Es	-2.528867	0.619129	0.264852	99
Es	-0.623883	-0.005646	-0.063095	99
Es	2.872052	0.175779	0.488913	99
Es	-1.813457	0.510153	0.556806	99
Es	1.264210	-0.208396	-0.140955	99
Es	1.422457	-0.220473	-0.445606	99
Es	-1.247613	0.343457	0.985038	99
Es	1.837263	-0.986407	-1.283270	99
Es	-2.975939	0.252260	0.145868	99
Es	2.514040	0.403077	0.264437	99
Es	1.695875	-0.253658	-0.683813	99
Es	1.365374	-0.060344	-0.525156	99
Es	1.224700	-0.577806	-0.809025	99
