41
Properties=species:S:1:pos:R:3:Z:I:1 energy=-306.74112178796753 field_type=dipole dipole="0.000000 0.000000 0.000000" charge=0
C	-1.586778	-2.204815	0.617505	6
C	-1.981298	-0.939375	0.797585	6
O	-1.300588	0.218865	0.553325	8
C	0.020182	0.099985	0.016505	6
C	0.583102	1.503055	-0.193015	6
C	1.926432	1.461895	-0.787795	6
C	3.022352	1.428385	-1.278045	6
H	-2.258638	-3.021085	0.864265	1
H	-0.611388	-2.472915	0.230795	1
H	-2.964838	-0.698925	1.188625	1
H	-0.014548	-0.432535	-0.942515	1
H	0.658572	-0.455025	0.715755	1
H	0.609172	2.033955	0.766055	1
H	-0.095548	2.078495	-0.833995	1
H	3.993812	1.400035	-1.715055	1
Es	1.188206	1.507281	-0.403464	99
Es	-1.010206	-2.311101	0.373226	99
Es	-1.842292	-2.478406	0.744333	99
Es	2.903015	1.431004	-1.228736	99
Es	-1.617732	-0.343647	0.602031	99
Es	-2.180921	-1.061747	0.802956	99
Es	-1.405764	0.287162	0.445920	99
Es	0.245601	-0.354855	-0.103856	99
Es	0.266509	1.650163	-0.187271	99
Es	-1.337619	0.343040	0.669298	99
Es	0.531908	1.682806	-0.206473	99
Es	-1.705819	-2.467159	0.638199	99
Es	0.054546	0.157958	0.009825	99
Es	-2.315767	-0.805453	0.944881	99
Es	-1.776715	-1.656059	0.690712	99
Es	2.476493	1.604440	-1.085279	99
Es	0.375100	0.949551	-0.117805	99
Es	-0.803675	0.165557	0.327078	99
Es	2.615962	1.457246	-1.038952	99
Es	0.180571	-0.162830	-0.029121	99
Es	2.464027	1.244972	-1.018614	99
Es	1.838240	1.470980	-0.756754	99
Es	-1.289563	0.135058	0.686308	99
Es	-1.790367	-1.336882	0.792122	99
Es	3.642276	1.406374	-1.585833	99
Es	0.671090	1.658963	-0.083408	99
