41
Properties=species:S:1:pos:R:3:Z:I:1 energy=-306.80460511622675 field_type=dipole dipole="0.000000 0.000000 0.000000" charge=0
C	-2.434869	-1.619947	0.052513	6
C	-0.943339	-1.410427	0.044943	6
O	-0.163299	-2.357237	0.114593	8
C	-0.463149	-0.001067	-0.007717	6
C	0.849801	0.266743	-0.011237	6
C	1.374351	1.611563	-0.055847	6
C	2.685071	1.878363	-0.058947	6
H	-2.947559	-0.797447	-0.452447	1
H	-2.784899	-1.693487	1.084553	1
H	-2.671039	-2.541897	-0.485927	1
H	-1.213899	0.778673	-0.038187	1
H	1.569371	-0.550597	0.022103	1
H	0.668161	2.439383	-0.087057	1
H	3.434721	1.093263	-0.028417	1
H	3.040581	2.904123	-0.092917	1
Es	-0.365244	-2.112805	0.096337	99
Es	-2.649228	-2.107130	0.090161	99
Es	2.068802	1.744708	-0.155398	99
Es	-1.697171	-1.482951	0.041825	99
Es	0.853007	0.263727	-0.011154	99
Es	1.214418	1.179777	-0.036966	99
Es	1.280388	1.363084	-0.044386	99
Es	1.319633	-0.249448	0.007375	99
Es	2.938933	2.573683	-0.085679	99
Es	-0.027251	0.009247	0.071196	99
Es	-0.926682	-1.427814	0.048730	99
Es	-2.509607	-1.527545	0.057228	99
Es	-0.869164	0.412024	-0.040331	99
Es	2.154891	1.738028	-0.048645	99
Es	0.105989	-2.177182	0.030046	99
Es	-0.155289	-2.321573	0.141798	99
Es	3.181071	1.350277	-0.041769	99
Es	-0.554624	-2.384221	0.152356	99
Es	0.890054	2.164504	-0.069718	99
Es	-0.631452	-0.614872	-0.077548	99
Es	-0.519626	0.108460	0.018410	99
Es	-0.268518	-2.275797	0.103988	99
Es	2.464081	1.826286	0.017627	99
Es	-2.535002	-1.777397	0.105969	99
Es	-2.759426	-1.177774	-0.046333	99
Es	0.194316	0.132354	0.001184	99
