36
Properties=species:S:1:pos:R:3:Z:I:1 energy=-341.42847146758146 field_type=dipole dipole="0.000000 0.000000 0.000000" charge=0
C	-1.708575	-1.229157	-0.003944	6
C	-0.209535	-1.305507	0.004126	6
O	0.412675	-2.359057	0.008896	8
C	0.513746	-0.056007	0.002436	6
C	1.126745	0.977103	0.001736	6
C	1.864125	2.212993	0.001376	6
O	1.278645	3.285842	0.000856	8
H	-2.053804	-0.192097	0.011496	1
H	-2.098165	-1.741127	0.880116	1
H	-2.087355	-1.712157	-0.908764	1
H	2.961495	2.119173	0.001666	1
Es	1.396971	3.048532	-0.007369	99
Es	-1.130028	-1.257840	-0.030805	99
Es	0.823850	0.468095	-0.021420	99
Es	-1.833241	-1.421735	-0.008289	99
Es	2.587451	2.140576	-0.000175	99
Es	0.066893	-0.821388	0.001305	99
Es	1.850096	2.238698	0.005000	99
Es	0.332069	-2.157635	-0.018494	99
Es	-1.928870	-0.518399	0.015107	99
Es	-2.002342	-1.673034	-0.011955	99
Es	1.462095	1.562280	-0.004525	99
Es	0.346755	-2.234992	-0.020833	99
Es	0.904993	0.811297	-0.015891	99
Es	1.139239	2.914865	0.001386	99
Es	1.364325	3.117532	-0.026285	99
Es	-0.105793	-1.128065	0.004552	99
Es	1.015288	0.587897	-0.007298	99
Es	0.852467	0.498572	0.053734	99
Es	1.406367	3.591439	-0.001454	99
Es	0.296678	-2.670477	0.002133	99
Es	1.432713	3.104779	0.036558	99
Es	0.518729	-0.046987	0.007620	99
Es	0.591374	-2.222155	0.089476	99
Es	0.155072	-1.915749	-0.011894	99
Es	-1.568334	-1.254941	0.019793	99
