48
Properties=species:S:1:pos:R:3:Z:I:1 energy=-346.1711444490721 field_type=dipole dipole="0.000000 0.000000 0.000000" charge=0
C	-1.809993	-1.023312	-0.000164	6
C	-0.299493	-0.877602	0.149986	6
O	0.326007	-1.823972	-0.725064	8
C	0.231347	0.539538	-0.165604	6
C	-0.424233	1.610708	0.707316	6
C	1.759927	0.607798	0.003316	6
O	2.422297	-0.216912	-0.946784	8
H	-2.351743	-0.440502	0.749676	1
H	-2.103803	-2.073332	0.107766	1
H	-2.137133	-0.705942	-0.996284	1
H	-0.017403	-1.159172	1.170956	1
H	-0.041363	-1.683652	-1.618124	1
H	0.010957	0.755978	-1.219764	1
H	-0.284903	1.393948	1.771716	1
H	-1.497793	1.684958	0.509536	1
H	0.007697	2.596648	0.503846	1
H	2.064457	0.293878	1.007606	1
H	2.119517	1.630368	-0.151694	1
H	2.025657	-1.109432	-0.858244	1
Es	-0.236455	1.263834	0.374230	99
Es	-0.131614	-1.065492	-0.214321	99
Es	-0.200520	2.095555	0.620804	99
Es	2.593290	-0.166596	-0.839503	99
Es	0.195611	-2.102298	-0.820708	99
Es	2.426810	-0.169121	-0.950247	99
Es	0.164267	0.408647	-0.281163	99
Es	-1.340970	-0.989666	-0.115456	99
Es	-0.000569	-0.214470	0.121344	99
Es	2.024318	1.222974	0.039810	99
Es	-0.449591	1.598745	1.045156	99
Es	-0.968834	1.628453	0.900575	99
Es	-0.350891	-0.855535	0.084050	99
Es	0.798243	-1.468004	-0.826214	99
Es	-1.495385	-1.004048	0.081440	99
Es	0.216035	-1.722236	-0.849203	99
Es	0.107901	0.396112	-0.246622	99
Es	0.315339	-1.818907	-0.726373	99
Es	2.104078	-0.192258	-0.503029	99
Es	-0.138284	-0.894752	-0.061608	99
Es	1.716373	0.587898	0.076593	99
Es	1.984147	0.174838	-0.134452	99
Es	-2.084236	-0.674287	0.255238	99
Es	-1.758365	-0.943663	-0.017291	99
Es	2.066538	-0.397744	-1.059082	99
Es	1.842653	-0.005558	-0.492618	99
Es	-1.963937	-1.536466	0.014768	99
Es	-0.173849	1.315269	0.460759	99
Es	1.324620	0.465033	-0.132026	99
