41
Properties=species:S:1:pos:R:3:Z:I:1 energy=-306.72588435944067 field_type=dipole dipole="0.000000 0.000000 0.000000" charge=0
C	-0.399441	-2.014871	-0.984529	6
O	-0.532811	-1.174211	0.154271	8
C	-0.021161	0.145259	-0.064149	6
C	-0.527041	0.983459	1.075981	6
C	-1.265521	2.096019	0.951431	6
C	1.422839	0.145259	-0.064149	6
C	2.612999	0.145259	-0.064149	6
H	-0.909981	-2.958511	-0.773519	1
H	0.653539	-2.235361	-1.183759	1
H	-0.863271	-1.559421	-1.864719	1
H	-0.413801	0.532419	-1.012659	1
H	-0.279091	0.628209	2.074311	1
H	-1.553411	2.486749	-0.019189	1
H	-1.602281	2.635619	1.831171	1
H	3.678439	0.144129	-0.056349	1
Es	2.528136	0.168199	-0.087834	99
Es	-0.883362	1.381090	1.086821	99
Es	3.261714	0.162764	-0.099049	99
Es	-1.555428	2.342003	1.143953	99
Es	-0.561055	-1.522045	-0.291428	99
Es	1.846081	0.087968	0.134531	99
Es	1.002712	-0.084103	-0.043284	99
Es	-0.032604	-0.074732	-0.204413	99
Es	-0.478170	-1.024052	-0.043145	99
Es	0.219918	-2.070805	-1.145044	99
Es	-0.510781	-0.722338	0.161199	99
Es	2.133883	0.273089	-0.215188	99
Es	-0.341101	-1.125207	-0.098503	99
Es	1.370482	0.286182	0.089362	99
Es	1.335974	-0.049210	-0.113395	99
Es	-0.821285	-2.431800	-0.977331	99
Es	-0.144210	-0.634609	0.130956	99
Es	-0.182060	0.247999	0.230038	99
Es	-0.450879	-1.843456	-1.001351	99
Es	-0.784183	1.790325	0.889870	99
Es	-0.302282	0.587613	0.859732	99
Es	-1.333054	2.219381	1.015160	99
Es	-1.185697	1.934276	0.876178	99
Es	-0.480245	-1.927115	-1.038267	99
Es	-0.710917	1.242345	1.022707	99
Es	-0.283734	0.399980	0.510594	99
