45
Properties=species:S:1:pos:R:3:Z:I:1 energy=-344.9647783818839 field_type=dipole dipole="0.000000 0.000000 0.000000" charge=0
C	-1.827724	-1.033989	-1.520124	6
O	-2.001524	0.058461	-0.628044	8
C	-1.588474	-0.269429	0.692916	6
O	-0.182804	-0.453449	0.806006	8
C	0.523705	0.767351	0.606486	6
C	1.967906	0.492271	0.881716	6
C	2.965326	0.706921	0.014536	6
H	-2.206294	-0.737659	-2.501664	1
H	-2.394554	-1.905769	-1.179934	1
H	-0.767834	-1.288069	-1.620894	1
H	-2.084954	-1.188959	1.021436	1
H	-1.915174	0.529571	1.367716	1
H	0.165926	1.527711	1.310076	1
H	0.372275	1.126241	-0.417144	1
H	2.199146	0.086591	1.863366	1
H	2.782676	1.103411	-0.979824	1
H	3.992386	0.478791	0.283376	1
Es	0.065462	0.330787	0.886956	99
Es	-0.288675	-0.104918	0.712198	99
Es	-1.653191	-0.916823	-1.347191	99
Es	-2.043800	-0.826426	-2.171280	99
Es	2.937880	0.899758	-0.459676	99
Es	2.327618	0.489731	0.768155	99
Es	2.217055	0.417562	0.884849	99
Es	-1.855552	-0.355209	-0.991118	99
Es	-0.686547	-0.121314	0.594607	99
Es	-1.778392	-0.324062	0.002287	99
Es	0.678945	0.593422	0.554933	99
Es	-1.738347	-0.240124	-0.172613	99
Es	0.430058	0.520258	0.638899	99
Es	-2.114897	-1.071420	-1.159997	99
Es	-1.839628	-0.544966	-0.810038	99
Es	0.099756	0.039403	0.827018	99
Es	0.164105	0.413807	0.856215	99
Es	-1.721699	-0.454155	-0.929810	99
Es	0.825823	0.598919	0.510689	99
Es	-0.727346	-0.261960	0.434609	99
Es	-1.712272	-0.340109	0.196233	99
Es	2.891213	0.648696	0.005311	99
Es	3.374516	0.617130	0.289985	99
Es	-1.778094	-0.405884	0.328921	99
Es	1.932539	0.491864	0.823617	99
Es	-1.679792	-0.519752	-0.599645	99
Es	-1.442305	-0.017587	1.102586	99
Es	2.587096	0.730562	0.532280	99
