42
Properties=species:S:1:pos:R:3:Z:I:1 energy=-343.7893495528418 field_type=dipole dipole="0.000000 0.000000 0.000000" charge=0
O	-2.028665	0.238814	-0.167193	8
C	-0.595055	0.079914	-0.356893	6
C	0.267226	1.032134	0.532137	6
C	1.172926	-0.162836	0.869367	6
C	0.022305	-1.097456	0.463627	6
C	-0.228905	0.087564	-1.901323	6
O	0.886635	-0.028316	-2.408823	8
H	-2.167544	0.222764	0.795997	1
H	-0.266665	1.442984	1.396857	1
H	0.766325	1.854034	0.010517	1
H	2.053725	-0.243296	0.222357	1
H	1.493816	-0.233256	1.911837	1
H	0.325866	-1.976336	-0.112673	1
H	-0.597085	-1.430566	1.304447	1
H	-1.104915	0.213854	-2.560243	1
Es	0.257701	0.043927	-1.660546	99
Es	0.806489	-0.192868	0.420513	99
Es	-2.190195	0.287890	-0.371538	99
Es	-1.593916	0.192277	0.074462	99
Es	-0.118445	0.086858	-0.370479	99
Es	-1.436489	0.158926	0.140283	99
Es	0.620128	0.021354	0.488844	99
Es	-0.351689	0.187879	0.174603	99
Es	0.578252	-0.136614	-1.772569	99
Es	0.142835	0.191685	0.230475	99
Es	-0.374584	-0.051554	-0.768009	99
Es	0.606232	-0.066481	-2.050897	99
Es	0.609281	0.037615	0.896745	99
Es	-0.904374	0.245107	0.018079	99
Es	0.647363	-0.016184	0.670388	99
Es	-0.277401	0.056833	-1.720172	99
Es	-0.062762	0.070631	-1.437026	99
Es	1.183498	-0.228007	0.662621	99
Es	0.445637	0.234561	-2.053515	99
Es	-0.766446	0.119420	-1.660066	99
Es	-0.699162	-0.155279	0.587136	99
Es	1.162870	-0.154528	0.829459	99
Es	-1.090118	0.229314	-0.175150	99
Es	1.008084	-0.084340	-2.567870	99
Es	-0.406094	-0.170515	0.579673	99
Es	-0.564838	-0.137197	-0.098225	99
Es	0.464136	-0.187275	0.614141	99
