36
Properties=species:S:1:pos:R:3:Z:I:1 energy=-341.3937205946019 field_type=dipole dipole="0.000000 0.000000 0.000000" charge=0
O	-1.962265	0.750271	0.836976	8
C	-0.780555	0.659711	0.576826	6
C	0.315455	1.648741	0.200676	6
O	1.229196	0.531981	0.084606	8
C	0.260405	-0.459389	0.516686	6
C	0.047935	-1.450209	-0.509834	6
C	-0.125515	-2.286319	-1.354974	6
H	0.604155	2.336291	0.997386	1
H	0.166405	2.164691	-0.748674	1
H	0.522185	-0.861819	1.500006	1
H	-0.277405	-3.033949	-2.099684	1
Es	0.958574	0.924844	0.190313	99
Es	0.772382	0.159758	0.159782	99
Es	0.263948	-0.591459	0.492714	99
Es	0.639201	1.359962	0.079604	99
Es	-1.934595	0.764436	0.826212	99
Es	1.304366	0.565912	0.002889	99
Es	-1.882905	0.469351	0.787589	99
Es	0.413509	0.573979	0.245368	99
Es	0.072702	-2.076796	-0.954167	99
Es	-0.011219	-2.048185	-1.039275	99
Es	-0.386040	1.067880	0.357730	99
Es	0.082888	-1.315473	-0.260287	99
Es	-1.340233	0.813255	0.680296	99
Es	1.151180	0.670840	0.079542	99
Es	-0.225206	-2.778516	-1.695862	99
Es	0.549096	2.084451	0.590526	99
Es	-0.689736	0.760633	0.517566	99
Es	0.228648	1.407964	0.254111	99
Es	-0.141460	-1.888046	-0.876391	99
Es	-2.029142	1.005275	0.893348	99
Es	0.013553	-1.217416	-0.290580	99
Es	0.073023	0.304284	0.348471	99
Es	0.239875	-0.307692	0.466891	99
Es	-1.558401	0.751304	0.825678	99
Es	0.031314	-1.693836	-0.863441	99
