38
Properties=species:S:1:pos:R:3:Z:I:1 energy=-305.61478997634646 field_type=dipole dipole="0.000000 0.000000 0.000000" charge=0
O	-1.098992	-2.478135	-0.400258	8
C	-0.920522	-1.597035	0.438402	6
C	0.253688	-0.626935	0.444752	6
C	-0.179402	0.724725	0.953102	6
C	0.017608	1.653185	0.001972	6
C	0.571238	1.025085	-1.170398	6
C	0.721228	-0.287805	-0.943928	6
H	-1.579892	-1.543735	1.322812	1
H	1.058238	-1.034875	1.063642	1
H	-0.571512	0.919165	1.940352	1
H	-0.191252	2.709765	0.082872	1
H	0.815998	1.547665	-2.083308	1
H	1.103578	-1.011075	-1.650018	1
Es	-0.029128	2.306813	0.123070	99
Es	0.451257	-0.480426	-0.225085	99
Es	0.737689	-0.351469	-1.053397	99
Es	-1.125966	-2.495056	-0.208248	99
Es	-0.935148	-2.508659	-0.604736	99
Es	-0.276203	0.686543	1.257583	99
Es	0.683170	0.689465	-1.023439	99
Es	0.183269	-0.800863	0.518429	99
Es	-0.093874	1.237417	0.406874	99
Es	-0.899201	-1.777875	0.063152	99
Es	0.871894	-0.646609	-1.325283	99
Es	-0.788764	-1.442084	0.765993	99
Es	-0.135547	0.207242	0.961634	99
Es	-0.954481	-1.856774	0.175785	99
Es	-1.185580	-2.615604	-0.311126	99
Es	-0.160714	0.959158	0.700701	99
Es	0.405591	1.325542	-0.531251	99
Es	0.671355	0.558432	-1.181101	99
Es	-1.009063	-2.114166	0.107594	99
Es	0.546357	0.561928	-1.099541	99
Es	-0.131691	1.326921	0.316716	99
Es	0.090914	1.169703	0.550256	99
Es	0.170048	-0.726350	0.463257	99
Es	0.709194	1.349243	-1.715524	99
Es	-0.581226	-1.254969	0.588991	99
