42
Properties=species:S:1:pos:R:3:Z:I:1 energy=-343.8101813059484 field_type=dipole dipole="0.000000 0.000000 0.000000" charge=0
O	-0.567542	-1.821939	-1.491068	8
C	-0.396742	-1.420389	-0.140148	6
C	0.450438	-0.162149	-0.122338	6
C	-0.202112	1.114971	-0.729208	6
C	0.312938	1.864301	0.515472	6
O	0.462958	3.033001	0.799082	8
C	0.575228	0.540961	1.260002	6
H	-1.081292	-2.648489	-1.484688	1
H	0.100128	-2.228749	0.405072	1
H	-1.383982	-1.250099	0.301092	1
H	1.440738	-0.355839	-0.560698	1
H	-1.293962	1.106811	-0.795918	1
H	0.230008	1.453011	-1.673448	1
H	1.559028	0.471311	1.728802	1
H	-0.205832	0.303281	1.987992	1
Es	0.433110	2.917392	0.782074	99
Es	-0.504757	-1.794417	-1.303493	99
Es	0.260641	2.702264	0.642643	99
Es	-0.268947	-1.577416	0.092320	99
Es	-0.558781	-1.632716	-0.632717	99
Es	-0.139796	1.035933	-0.362484	99
Es	-0.131327	0.888074	-0.647683	99
Es	0.164625	1.544111	-0.007449	99
Es	-0.507612	-1.781214	-0.466556	99
Es	0.359411	-0.239913	-0.093849	99
Es	0.459327	3.278170	0.642364	99
Es	0.559466	0.593084	1.209333	99
Es	0.389052	-0.219230	-0.263724	99
Es	0.354495	1.368793	0.630185	99
Es	0.480297	0.466514	1.475149	99
Es	0.485263	-0.069071	0.553345	99
Es	-0.564800	-1.833734	-1.449693	99
Es	0.202288	-0.436430	-0.151679	99
Es	-0.148630	1.013695	-0.739330	99
Es	0.442324	2.974688	1.020896	99
Es	0.439475	2.300833	0.573417	99
Es	-0.737055	-2.281677	-1.515328	99
Es	0.561687	1.483913	0.976530	99
Es	0.805555	0.619350	1.442825	99
Es	-0.672594	-1.558786	-1.553855	99
Es	-0.364972	-1.458553	-0.118170	99
Es	-0.209360	1.231284	-1.242889	99
