47
Properties=species:S:1:pos:R:3:Z:I:1 energy=-309.1436555943617 field_type=dipole dipole="0.000000 0.000000 0.000000" charge=0
O	-3.028435	-2.113556	-0.481853	8
C	-1.640345	-1.966106	-0.215253	6
C	-1.270805	-0.495196	-0.338343	6
C	0.214025	-0.262426	-0.068463	6
C	0.575985	1.218464	-0.198363	6
C	2.038336	1.446794	0.056117	6
C	2.516695	2.224314	1.035467	6
H	-3.236845	-3.059506	-0.394823	1
H	-1.081485	-2.571926	-0.936093	1
H	-1.438395	-2.337396	0.794857	1
H	-1.880135	0.091564	0.359867	1
H	-1.534984	-0.137216	-1.340893	1
H	0.811535	-0.854456	-0.774283	1
H	0.464215	-0.618626	0.939577	1
H	-0.034595	1.809204	0.495197	1
H	0.340946	1.570434	-1.209703	1
H	2.738915	0.952514	-0.613903	1
H	1.859035	2.745303	1.724477	1
H	3.586325	2.357823	1.166417	1
Es	2.470353	1.392863	0.056589	99
Es	0.179507	0.297897	-0.041564	99
Es	0.430031	1.326351	-0.298082	99
Es	0.194966	-0.600197	-0.450815	99
Es	-2.781136	-2.073429	-0.291637	99
Es	2.210924	2.038089	0.357586	99
Es	0.911589	1.351502	-0.269213	99
Es	-1.438742	-2.148139	-0.362208	99
Es	0.188019	-0.329703	-0.146880	99
Es	-1.473778	-0.528022	-0.440557	99
Es	-3.086016	-2.033813	-0.510949	99
Es	-1.377224	-0.744180	-0.416092	99
Es	-1.395136	-0.252970	-0.047729	99
Es	1.937238	1.533756	0.390683	99
Es	2.093568	1.565542	0.398647	99
Es	-2.162510	-2.044839	-0.296916	99
Es	-3.043856	-2.313096	-0.420531	99
Es	-1.506256	-1.326360	-0.237484	99
Es	2.166794	2.239888	0.943631	99
Es	0.065807	-0.150290	-0.206850	99
Es	-3.030530	-2.355201	-0.699787	99
Es	-2.282220	-1.933577	-0.247211	99
Es	-1.376015	-1.759846	-0.323444	99
Es	0.446610	1.338301	-0.020292	99
Es	3.000733	2.293795	1.081957	99
Es	0.290578	-0.333235	0.304999	99
Es	1.038263	1.440679	0.084335	99
Es	2.725316	2.265505	1.082856	99
