42
Properties=species:S:1:pos:R:3:Z:I:1 energy=-339.94576001719895 field_type=dipole dipole="0.000000 0.000000 0.000000" charge=0
C	1.297906	0.026729	0.060851	6
C	0.393956	-1.101931	0.536371	6
N	-0.768394	-1.233251	-0.340889	7
N	-1.852704	-0.451561	-0.096939	7
C	-1.707844	0.812659	0.154601	6
O	-0.592574	1.585769	0.157481	8
C	0.536166	1.158459	-0.610899	6
H	2.043146	-0.358921	-0.645709	1
H	1.847806	0.414989	0.926651	1
H	0.965666	-2.036681	0.532551	1
H	0.074596	-0.939731	1.573221	1
H	-1.071604	-2.211142	-0.348999	1
H	-2.575064	1.423809	0.448481	1
H	1.198226	2.023549	-0.724159	1
H	0.210716	0.887259	-1.622619	1
Es	-1.426783	-0.374592	-0.118152	99
Es	-0.279832	1.222186	-0.239830	99
Es	-0.524172	1.741141	0.045739	99
Es	-1.915390	0.220166	-0.091419	99
Es	0.054314	-1.159223	0.308735	99
Es	-0.441821	1.430955	-0.171410	99
Es	0.771386	-1.753761	0.518764	99
Es	-0.109438	-1.122015	0.138667	99
Es	-0.038444	-0.715069	0.397083	99
Es	-2.252314	1.206499	0.273086	99
Es	1.156180	0.119811	0.053732	99
Es	-1.497204	0.598692	-0.009200	99
Es	-0.327744	1.393079	-0.089985	99
Es	-1.937893	-0.443277	-0.060269	99
Es	-0.970546	-1.440814	-0.168311	99
Es	-1.276367	-0.607733	-0.145060	99
Es	-1.324840	0.383021	-0.093522	99
Es	0.927272	1.557339	-0.505637	99
Es	-0.740414	-1.408842	-0.175556	99
Es	1.274109	0.081974	0.030276	99
Es	-0.397170	1.541943	0.059273	99
Es	0.783478	0.219903	0.060401	99
Es	0.941121	0.333163	-0.079772	99
Es	-0.317952	-1.128096	0.038827	99
Es	-1.505454	-0.002724	0.077340	99
Es	0.702227	1.045194	-0.329100	99
Es	1.804286	-0.158606	-0.163987	99
