43
Properties=species:S:1:pos:R:3:Z:I:1 energy=-270.9185478666586 field_type=dipole dipole="0.000000 0.000000 0.000000" charge=0
C	-3.038112	-1.039376	0.010482	6
C	-1.517762	-1.035126	0.010292	6
C	-0.960562	0.388254	-0.007328	6
C	0.483438	0.388254	-0.007328	6
C	1.673598	0.388254	-0.007328	6
C	3.079597	0.388254	-0.007328	6
C	3.781477	1.526264	-0.007298	6
H	-3.414302	-2.067186	0.023172	1
H	-3.432392	-0.544566	-0.883208	1
H	-3.432222	-0.522706	0.891792	1
H	-1.156732	-1.591236	-0.863408	1
H	-1.156572	-1.569506	0.897392	1
H	-1.332212	0.938044	0.865482	1
H	-1.332232	0.916274	-0.893468	1
H	3.593838	-0.568116	-0.007348	1
H	3.295017	2.497004	-0.007278	1
H	4.866138	1.507214	-0.007298	1
Es	3.214374	0.615420	-0.050672	99
Es	1.066170	0.109216	-0.004510	99
Es	3.189315	0.696462	-0.095163	99
Es	-1.342398	-1.262092	0.124743	99
Es	-1.458136	-1.043896	-0.096409	99
Es	4.519507	1.524911	-0.002036	99
Es	-1.278318	-1.421102	-0.014586	99
Es	-3.221080	-0.938339	0.007765	99
Es	1.557745	0.451517	0.013519	99
Es	-2.485778	-1.033597	0.003169	99
Es	-3.037232	-1.260808	-0.139198	99
Es	-1.066873	0.533785	-0.077303	99
Es	3.685186	1.696052	-0.021578	99
Es	3.241370	-0.204350	0.042745	99
Es	0.385577	0.395245	-0.011345	99
Es	-1.146341	0.333784	0.145074	99
Es	3.406290	0.962001	0.048785	99
Es	-3.237296	-0.962045	0.009656	99
Es	1.135647	0.540225	-0.151017	99
Es	2.595124	0.346890	0.000617	99
Es	-3.188775	-0.996149	0.184658	99
Es	3.545424	1.980073	0.010739	99
Es	-1.377389	0.129750	-0.057524	99
Es	-0.257434	0.386313	0.048588	99
Es	-0.804055	0.461195	-0.081143	99
Es	1.168817	0.479353	0.122605	99
