38
Properties=species:S:1:pos:R:3:Z:I:1 energy=-358.5536087066075 field_type=dipole dipole="0.000000 0.000000 0.000000" charge=0
C	1.453384	-0.132245	0.229547	6
O	0.621244	-1.305955	0.424577	8
C	-0.455756	-0.681815	-0.315063	6
C	-1.605146	-0.094445	0.510617	6
N	-1.532276	1.183615	0.707247	7
O	-0.335376	1.685715	0.084527	8
C	0.354804	0.578955	-0.557723	6
H	2.354014	-0.373165	-0.343573	1
H	1.731954	0.326685	1.182677	1
H	-0.752656	-1.252615	-1.196593	1
H	-2.424076	-0.730245	0.876377	1
H	0.589884	0.795515	-1.602613	1
Es	0.153590	0.982982	-0.087232	99
Es	0.586995	-1.202100	0.271386	99
Es	0.365574	-0.353987	0.023903	99
Es	-1.203694	0.414458	0.358641	99
Es	0.728433	-1.500402	0.343118	99
Es	-0.857739	-0.476861	-0.024993	99
Es	-1.194900	0.952867	0.516949	99
Es	-1.442952	0.038542	0.453378	99
Es	-0.365851	-0.699225	-0.188994	99
Es	-0.388258	1.208406	0.059540	99
Es	1.148486	-0.234515	0.114967	99
Es	-1.179638	0.005046	0.203532	99
Es	-1.854373	-0.539874	0.451327	99
Es	0.662504	0.441326	-0.334599	99
Es	-1.664338	1.422357	0.807737	99
Es	-1.691236	0.575065	0.382090	99
Es	0.468454	-1.038898	0.190943	99
Es	-1.000438	1.372272	0.377058	99
Es	0.215494	0.926254	-0.264981	99
Es	0.503567	-0.551908	0.075152	99
Es	0.732609	-0.018959	-0.058104	99
Es	2.050501	-0.286250	-0.163941	99
Es	-0.358734	1.922523	-0.089811	99
Es	0.529077	-0.982118	0.215314	99
Es	1.104898	0.203018	0.024236	99
Es	-0.341303	1.665514	0.125561	99
