42
Properties=species:S:1:pos:R:3:Z:I:1 energy=-339.9333396366264 field_type=dipole dipole="0.000000 0.000000 0.000000" charge=0
C	-1.884325	0.825649	-0.267690	6
C	-0.768345	-0.157441	-0.173730	6
C	0.011455	-0.540151	-1.401110	6
N	0.601775	0.317139	-0.370860	7
N	1.440265	-0.457641	0.424730	7
C	1.865815	0.032359	1.633160	6
O	2.757315	-0.484811	2.294440	8
H	-1.999435	1.358089	0.682570	1
H	-2.824805	0.306799	-0.481350	1
H	-1.720975	1.568899	-1.056380	1
H	-0.958855	-0.917001	0.576290	1
H	-0.216155	-0.047091	-2.338270	1
H	0.343455	-1.566521	-1.498990	1
H	2.034355	-1.169281	0.012260	1
H	1.318455	0.930999	1.964930	1
Es	-0.285853	-0.043413	-0.128332	99
Es	1.506657	-0.284672	0.936993	99
Es	1.500081	-0.352576	0.536605	99
Es	-0.133869	-0.291922	-1.690231	99
Es	2.614028	-0.314159	2.081891	99
Es	-1.976229	0.917956	-0.362640	99
Es	-0.697897	-0.190137	-0.508548	99
Es	0.213262	-0.638255	-1.164390	99
Es	0.110737	-0.095911	-0.434626	99
Es	-1.308953	0.293518	-0.122563	99
Es	0.463829	-0.468562	-0.948568	99
Es	2.913120	-0.431256	2.522290	99
Es	-0.410372	-0.248106	-0.800403	99
Es	1.457736	-0.383126	0.479534	99
Es	-0.142298	-0.458884	-1.251497	99
Es	1.200032	-0.270034	0.024447	99
Es	-2.247745	0.800153	-0.638680	99
Es	-1.864185	1.012083	0.139071	99
Es	2.470119	-0.258614	2.237010	99
Es	1.740119	0.003370	1.473501	99
Es	-1.941020	0.951755	-0.198806	99
Es	1.610683	0.448399	1.791441	99
Es	0.798560	-0.023771	-0.052624	99
Es	0.170711	-0.013522	-0.205596	99
Es	2.718302	-0.598182	2.175810	99
Es	1.204073	-0.282004	0.008354	99
Es	2.537055	-0.471208	2.101584	99
