46
Properties=species:S:1:pos:R:3:Z:I:1 energy=-325.11612394923935 field_type=dipole dipole="0.000000 0.000000 0.000000" charge=0
C	-1.676239	-0.418260	0.791557	6
C	-0.187629	-0.465209	0.839777	6
C	0.647231	-1.184720	-0.189763	6
O	-0.020749	-1.777830	-1.314233	8
C	0.709131	0.335410	-0.093213	6
C	0.126922	1.168630	-1.209763	6
N	1.915881	0.940720	0.514437	7
H	-2.044069	0.342731	1.486997	1
H	-2.087718	-1.383290	1.103677	1
H	-2.081928	-0.185879	-0.195023	1
H	0.134971	-0.585739	1.870737	1
H	1.512611	-1.731239	0.176137	1
H	-0.898889	-1.404130	-1.485023	1
H	-0.737988	0.711990	-1.697193	1
H	0.882921	1.337310	-1.985093	1
H	-0.188838	2.144930	-0.825513	1
H	2.316521	0.338500	1.231947	1
H	1.677851	1.816071	0.979547	1
Es	1.371319	0.949012	0.211372	99
Es	0.494517	-0.182025	-0.388752	99
Es	-0.153540	-0.665705	-0.121937	99
Es	-0.301152	-0.458123	0.199276	99
Es	-0.756165	-1.032823	-0.017328	99
Es	1.232455	0.829359	-0.006191	99
Es	1.064843	0.611274	-0.096720	99
Es	-0.029770	-0.647491	-0.331761	99
Es	-0.124862	-0.604804	-0.359081	99
Es	0.276306	-0.062735	0.022174	99
Es	0.501616	0.077641	-0.187116	99
Es	1.466539	1.439075	0.612298	99
Es	0.002991	-1.143992	-0.795114	99
Es	-1.012917	-0.358487	0.694482	99
Es	0.938798	0.428404	-0.245139	99
Es	-0.192396	-0.679288	-0.287295	99
Es	0.142042	-0.434540	-0.615257	99
Es	0.966296	0.640047	-0.098936	99
Es	0.957769	0.746482	0.104394	99
Es	0.117033	-0.382146	-0.371423	99
Es	-1.154111	-0.385535	0.736894	99
Es	0.173477	-1.218134	-0.883775	99
Es	-0.662933	-0.526424	0.031533	99
Es	-0.451820	-0.632269	-0.022919	99
Es	-0.897888	-0.651797	0.240340	99
Es	-0.460070	-0.645319	0.047453	99
Es	0.341083	-0.491326	-0.796038	99
Es	1.041210	0.548345	-0.195042	99
