42
Properties=species:S:1:pos:R:3:Z:I:1 energy=-339.9306462312177 field_type=dipole dipole="0.000000 0.000000 0.000000" charge=0
C	-2.288335	-0.128800	0.124957	6
C	-0.781785	-0.051510	0.013507	6
N	-0.264045	1.133520	0.040327	7
C	1.199595	1.182890	-0.117613	6
C	1.868615	-0.156620	0.157387	6
O	1.193595	-1.156090	-0.613503	8
N	-0.101165	-1.252330	-0.085903	7
H	-2.631065	-1.166520	0.149687	1
H	-2.738544	0.375360	-0.735153	1
H	-2.611105	0.374470	1.041027	1
H	1.411085	1.499050	-1.145693	1
H	1.608425	1.944580	0.554217	1
H	2.917085	-0.131240	-0.155173	1
H	1.839625	-0.421000	1.221817	1
H	-0.621985	-2.045760	-0.449893	1
Es	-0.305025	1.235144	-0.013772	99
Es	-2.427773	0.070314	0.133468	99
Es	1.400441	1.010784	-0.365054	99
Es	1.487610	1.696820	0.346144	99
Es	-0.428350	0.272679	0.043301	99
Es	-0.502967	1.040831	0.138218	99
Es	1.284087	-0.983990	-0.377379	99
Es	-0.390872	-1.557906	-0.380150	99
Es	1.575216	-0.444349	0.204850	99
Es	0.189007	1.045265	0.006538	99
Es	1.329050	1.000659	-0.183323	99
Es	0.956490	-0.755909	-0.369599	99
Es	-2.529412	-0.843179	0.107570	99
Es	-0.068211	0.685891	0.061771	99
Es	-2.027845	-0.106129	0.129811	99
Es	-2.598266	0.287662	0.171250	99
Es	1.033326	-1.076795	-0.430802	99
Es	2.573213	-0.146321	-0.006857	99
Es	-1.805057	-0.089347	0.048211	99
Es	1.398467	0.924478	-0.261743	99
Es	0.925276	-1.416178	-0.405659	99
Es	0.041125	-1.387785	0.000751	99
Es	1.838646	-0.167248	0.209776	99
Es	-0.473601	-0.504799	-0.020322	99
Es	-0.501115	0.393016	-0.080055	99
Es	-0.106806	-1.226922	-0.085661	99
Es	1.241278	-1.076408	-0.470545	99
