38
Properties=species:S:1:pos:R:3:Z:I:1 energy=-358.6647816331287 field_type=dipole dipole="0.000000 0.000000 0.000000" charge=0
C	-1.745087	-0.432389	-0.002670	6
C	-0.287037	-0.248049	-0.000010	6
C	0.563733	0.828591	-0.000290	6
O	0.176303	2.105441	-0.003450	8
N	1.864163	0.430361	0.002990	7
C	1.765323	-0.881419	0.005100	6
O	0.493553	-1.374499	0.003440	8
H	-2.266337	0.529611	0.006170	1
H	-2.061797	-0.998079	0.878910	1
H	-2.060377	-0.981199	-0.895340	1
H	0.994053	2.632611	-0.002820	1
H	2.563503	-1.610979	0.007970	1
Es	1.770998	0.049036	-0.041968	99
Es	-1.988813	-0.899196	-0.013994	99
Es	2.112241	0.190323	-0.054627	99
Es	0.394541	-1.657861	-0.019824	99
Es	-1.887505	-0.698744	0.001151	99
Es	-2.050984	0.188747	-0.004265	99
Es	0.251184	-0.974925	0.086567	99
Es	1.732290	0.020634	0.102969	99
Es	0.324919	1.532524	0.034892	99
Es	0.091727	2.144197	0.029020	99
Es	-0.999492	-0.342780	-0.004839	99
Es	0.095189	0.317659	0.014320	99
Es	-1.746338	-0.434140	-0.005013	99
Es	0.063525	0.073147	-0.016979	99
Es	0.581537	-1.197865	-0.022622	99
Es	-0.213092	-0.183473	0.006038	99
Es	0.443102	2.450455	-0.006670	99
Es	0.194246	2.071527	-0.068213	99
Es	2.247001	-1.344556	0.013950	99
Es	0.190352	2.087352	-0.008389	99
Es	1.769235	0.583527	-0.001829	99
Es	0.543161	0.893307	0.005121	99
Es	0.955186	-1.172907	-0.001520	99
Es	1.768310	-0.803383	0.016388	99
Es	1.520456	0.583815	0.003953	99
Es	0.508911	-1.397835	-0.029506	99
