46
Properties=species:S:1:pos:R:3:Z:I:1 energy=-325.1165030988107 field_type=dipole dipole="0.000000 0.000000 0.000000" charge=0
C	-0.715888	-1.760073	-1.206511	6
C	-0.416688	-1.236623	0.190299	6
C	0.371142	0.071417	0.142239	6
O	1.658052	-0.162223	-0.490331	8
C	-0.409088	1.323437	-0.345421	6
N	0.166472	2.095827	0.777689	7
C	0.429702	0.829947	1.498129	6
H	-1.293358	-2.687983	-1.146811	1
H	0.205312	-1.970693	-1.758901	1
H	-1.296208	-1.034843	-1.785431	1
H	0.150202	-1.992393	0.747169	1
H	-1.365048	-1.095853	0.723249	1
H	2.102092	0.701777	-0.474791	1
H	-1.501788	1.239487	-0.299831	1
H	-0.132358	1.697257	-1.336231	1
H	1.010312	2.612867	0.532589	1
H	1.393362	0.800217	2.016189	1
H	-0.356228	0.568447	2.216709	1
Es	-1.022381	-1.974734	-1.133709	99
Es	0.372931	0.799482	0.444630	99
Es	0.132586	-0.900932	-0.224200	99
Es	0.976394	-0.207071	-0.144028	99
Es	0.329172	0.352210	-0.005752	99
Es	0.372467	1.698102	0.829868	99
Es	0.078935	0.936634	0.341747	99
Es	0.415478	1.126674	0.622426	99
Es	0.768424	-0.048325	-0.186105	99
Es	0.214543	0.681258	0.347146	99
Es	0.226508	-0.958814	-0.301182	99
Es	0.235337	1.164067	0.621025	99
Es	-0.732761	-1.636057	-1.207353	99
Es	-0.015188	-0.782034	-0.141605	99
Es	1.332502	0.385709	-0.045877	99
Es	0.450794	1.404988	0.892371	99
Es	0.068508	2.088713	0.878078	99
Es	-0.053807	1.294996	0.732865	99
Es	0.341870	0.717159	0.231698	99
Es	-0.018172	0.864912	0.265563	99
Es	-0.404775	-1.747747	-1.114118	99
Es	-0.609081	-1.558081	-0.788050	99
Es	0.186107	1.606657	0.799091	99
Es	0.458744	0.511726	0.141897	99
Es	-0.019207	-0.441698	-0.109692	99
Es	-0.171482	-1.171395	-0.309090	99
Es	0.084973	-0.930467	-0.224312	99
Es	0.432888	0.472899	0.096688	99
