37
Properties=species:S:1:pos:R:3:Z:I:1 energy=-321.59454315408226 field_type=dipole dipole="0.000000 0.000000 0.000000" charge=0
C	-2.470727	-0.189929	0.182574	6
C	-1.026727	-0.189929	0.182574	6
C	0.163433	-0.189929	0.182574	6
C	1.607433	-0.189929	0.182574	6
O	2.075533	-0.910409	-0.963046	8
C	2.089453	1.171241	0.182574	6
N	2.473663	2.256231	0.182574	7
H	-2.864707	0.830961	0.194224	1
H	-2.864797	-0.710449	1.060824	1
H	-2.864747	-0.690229	-0.707376	1
H	1.984743	-0.720559	1.062664	1
H	1.697453	-0.467069	-1.742736	1
Es	0.863224	-0.268949	0.197438	99
Es	1.855375	0.526963	0.119400	99
Es	1.834559	-0.601555	-0.562598	99
Es	2.055850	1.063850	0.129866	99
Es	-2.613331	-0.338535	0.252870	99
Es	2.549152	2.478328	0.245548	99
Es	2.135942	1.287156	0.257130	99
Es	1.905667	0.235595	0.283536	99
Es	-1.769920	-0.142708	0.207262	99
Es	-0.322801	-0.165999	0.089996	99
Es	2.478636	1.678156	0.209626	99
Es	-2.454482	0.211780	0.166064	99
Es	1.822433	-0.540073	-0.524213	99
Es	2.005177	-0.550265	-0.517473	99
Es	-2.817379	-0.556612	0.169196	99
Es	-1.346282	-0.218109	0.217185	99
Es	2.155024	1.793541	0.230536	99
Es	2.514901	2.338517	0.176388	99
Es	2.108430	-0.980015	-0.970208	99
Es	1.947579	-1.059603	-0.891258	99
Es	0.006135	-0.197487	0.192322	99
Es	-0.476780	0.134268	0.268234	99
Es	-0.460123	-0.423850	0.122120	99
Es	2.074745	-0.698283	-0.816772	99
Es	-2.093106	-0.169540	0.208356	99
