45
Properties=species:S:1:pos:R:3:Z:I:1 energy=-288.11463554645337 field_type=dipole dipole="0.000000 0.000000 0.000000" charge=0
C	2.034908	0.186307	-0.654106	6
N	1.951318	-0.033483	0.782954	7
C	0.695698	0.052717	0.035194	6
C	-0.187962	1.256107	0.249404	6
C	-1.592992	0.740547	-0.070836	6
C	-1.537232	-0.732063	0.321314	6
C	-0.154312	-1.175873	-0.156956	6
H	2.368528	1.170117	-0.961266	1
H	2.408728	-0.637183	-1.249756	1
H	2.176168	-1.001223	1.019444	1
H	-0.138842	1.586907	1.293314	1
H	0.076448	2.099207	-0.396866	1
H	-2.369922	1.291547	0.466624	1
H	-1.789492	0.831147	-1.145946	1
H	-2.342082	-1.320223	-0.128196	1
H	-1.606162	-0.829423	1.411664	1
H	-0.191842	-1.438873	-1.220446	1
H	0.199038	-2.046263	0.404464	1
Es	2.006489	0.251490	0.073912	99
Es	2.217394	0.528312	-0.386810	99
Es	2.100922	-0.096637	0.122980	99
Es	-1.358108	0.815076	0.084328	99
Es	0.183735	1.079187	0.101105	99
Es	-1.156321	-0.738960	0.355751	99
Es	0.308551	-0.290586	-0.099852	99
Es	-0.523513	1.354537	0.070041	99
Es	1.704106	0.237599	0.058139	99
Es	-0.136196	-0.373730	-0.039302	99
Es	0.197637	-1.295612	0.147487	99
Es	-1.441159	0.697949	0.004378	99
Es	-1.552509	0.228108	-0.053627	99
Es	-2.030648	-1.081808	0.048649	99
Es	-0.347787	-1.210673	0.090517	99
Es	-1.349528	0.046738	0.172111	99
Es	1.733421	-0.111907	0.120241	99
Es	0.063894	-0.174824	-0.047576	99
Es	-0.863773	1.109256	0.217869	99
Es	0.483460	-0.606140	-0.160568	99
Es	-1.749640	0.293307	0.341335	99
Es	0.038147	0.903979	0.145731	99
Es	0.500540	0.653572	0.191271	99
Es	1.858147	-0.458652	0.184811	99
Es	-0.856491	-0.925919	0.040722	99
Es	2.069400	0.113248	-0.026261	99
Es	1.990372	-0.111960	0.018940	99
