45
Properties=species:S:1:pos:R:3:Z:I:1 energy=-341.10004918939035 field_type=dipole dipole="0.000000 0.000000 0.000000" charge=0
C	-1.002392	0.550296	1.717254	6
C	0.121648	-0.018444	0.856904	6
C	0.313748	-1.506034	1.134674	6
N	-0.258022	0.161186	-0.550907	7
C	0.734298	0.357276	-1.349256	6
N	0.606918	0.540666	-2.702306	7
O	-0.681602	0.946646	-3.074206	8
H	-1.136522	1.619116	1.518504	1
H	-0.780592	0.427856	2.782363	1
H	-1.956362	0.054116	1.506693	1
H	1.045958	0.521616	1.099983	1
H	-0.592762	-2.075054	0.900504	1
H	0.563618	-1.677744	2.186674	1
H	1.125608	-1.914394	0.523353	1
H	1.789098	0.380436	-1.022946	1
H	1.348838	1.051006	-3.175797	1
H	-1.241482	0.581456	-2.351487	1
Es	0.570550	0.342435	-1.339806	99
Es	-1.069608	0.430713	1.679752	99
Es	-1.064869	0.747689	1.682405	99
Es	0.210808	-0.787141	1.009362	99
Es	0.797470	0.807079	-2.897476	99
Es	0.496447	-1.470009	1.156305	99
Es	-0.819234	0.205631	1.941687	99
Es	-0.731513	1.018363	-3.073825	99
Es	0.270092	-0.692191	1.043382	99
Es	0.085642	0.057286	0.383983	99
Es	0.047673	0.209635	-0.873811	99
Es	-0.680325	1.174940	-3.048873	99
Es	-0.063768	0.583062	-2.725779	99
Es	-0.709174	0.343906	1.264303	99
Es	0.002537	-0.012423	0.550647	99
Es	0.425819	-1.158535	1.459080	99
Es	-1.114015	0.493405	1.633434	99
Es	0.916719	0.350034	-1.565414	99
Es	0.216279	0.561529	-2.751286	99
Es	0.797070	-1.681024	1.030175	99
Es	0.620955	0.478899	-2.302035	99
Es	0.067607	0.124411	-0.749372	99
Es	0.528503	0.500962	-2.079100	99
Es	-0.105788	-0.841935	1.230726	99
Es	-0.494948	0.315540	-0.770616	99
Es	-0.542477	0.836985	-3.061076	99
Es	0.127902	0.261669	-0.848220	99
Es	0.022411	0.644143	-2.710372	99
