45
Properties=species:S:1:pos:R:3:Z:I:1 energy=-341.2036980298435 field_type=dipole dipole="0.000000 0.000000 0.000000" charge=0
C	-0.553877	-1.655852	1.205143	6
C	-0.520497	-1.202992	-0.247097	6
N	-0.051957	0.173118	-0.398827	7
C	-1.026977	1.223058	-0.131037	6
C	1.308763	0.376148	-0.473297	6
N	1.716863	1.661718	-0.602567	7
O	2.152053	-0.513602	-0.430487	8
H	-0.880018	-2.698592	1.268793	1
H	-1.248007	-1.048312	1.794163	1
H	0.434833	-1.577412	1.668293	1
H	-1.517327	-1.282442	-0.695007	1
H	0.138443	-1.871052	-0.813837	1
H	-1.920447	1.041038	-0.735527	1
H	-0.650597	2.221117	-0.361237	1
H	-1.292057	1.195428	0.929923	1
H	1.191483	2.230768	-1.248217	1
H	2.719323	1.727867	-0.729177	1
Es	-0.495748	1.530361	-0.312135	99
Es	1.634956	1.242682	-0.592339	99
Es	1.192104	0.556002	-0.438063	99
Es	0.110707	0.217566	-0.346673	99
Es	2.083029	-0.800194	-0.349895	99
Es	2.037299	1.570153	-0.748264	99
Es	2.140923	-0.337447	-0.328388	99
Es	1.978631	-0.157027	-0.681776	99
Es	2.073852	-0.361094	-0.399689	99
Es	-0.642377	0.593766	-0.305028	99
Es	1.461419	1.926667	-0.768331	99
Es	-1.040687	1.280202	0.113103	99
Es	0.995945	0.447186	-0.514630	99
Es	0.013069	0.283856	-0.417828	99
Es	-0.818878	-1.328145	0.696630	99
Es	-0.473070	-1.488754	0.553546	99
Es	-0.335311	-1.395949	0.544924	99
Es	-1.408287	1.158460	-0.163020	99
Es	1.662608	1.552135	-0.684532	99
Es	-0.454198	-1.591822	0.556543	99
Es	0.988259	0.778751	-0.468661	99
Es	-0.676502	-2.265384	1.251238	99
Es	-1.061295	1.077173	-0.148298	99
Es	1.883906	0.144736	-0.414160	99
Es	-0.364255	-1.553232	0.805091	99
Es	-0.402364	-0.732844	-0.299595	99
Es	-0.508730	-0.761258	-0.256608	99
Es	-0.716287	-1.298718	0.570120	99
