39
Properties=species:S:1:pos:R:3:Z:I:1 energy=-338.7655582941981 field_type=dipole dipole="0.000000 0.000000 0.000000" charge=0
C	-0.623904	-2.092331	0.579731	6
C	-1.005584	-0.811191	0.490311	6
N	-0.197774	0.244628	0.096021	7
C	-0.690294	1.558428	0.095681	6
O	-0.088564	2.606478	-0.116089	8
N	1.127456	-0.066732	-0.140289	7
C	1.838716	0.717588	-0.876579	6
H	-1.322804	-2.858032	0.897111	1
H	0.387566	-2.407542	0.344651	1
H	-2.032404	-0.556651	0.739371	1
H	-1.766794	1.586879	0.336641	1
H	2.902496	0.475419	-1.029259	1
H	1.471886	1.603059	-1.417299	1
Es	-0.794391	-1.434662	0.524274	99
Es	1.093423	-0.213066	-0.072864	99
Es	-0.227718	2.339905	-0.080012	99
Es	-0.265228	2.830877	-0.107168	99
Es	-1.686498	-0.615103	0.654805	99
Es	-0.534466	-0.195611	0.307793	99
Es	-0.392914	0.807070	0.040078	99
Es	-0.152640	0.252901	0.110713	99
Es	-1.100199	-2.606609	0.811151	99
Es	0.159812	2.540953	-0.202787	99
Es	-0.230858	0.292838	0.116789	99
Es	1.366816	0.392265	-0.301136	99
Es	-1.417441	1.555353	0.271336	99
Es	0.032349	-2.303364	0.416857	99
Es	0.457422	0.089690	-0.081123	99
Es	1.328584	0.173340	-0.459841	99
Es	1.838588	0.717264	-0.876433	99
Es	-0.821081	-1.500417	0.538491	99
Es	-0.689822	1.554501	0.095314	99
Es	-0.337378	2.163465	0.032927	99
Es	-0.624069	-2.090621	0.580797	99
Es	-0.052462	2.598411	-0.149091	99
Es	1.603195	1.318372	-1.206331	99
Es	1.281641	-0.191335	-0.232703	99
Es	-1.005315	-0.811288	0.490512	99
Es	2.541904	0.552140	-0.967814	99
