42
Properties=species:S:1:pos:R:3:Z:I:1 energy=-339.90055098998045 field_type=dipole dipole="0.000000 0.000000 0.000000" charge=0
C	-1.343921	-0.128187	-0.406601	6
C	0.146629	-0.279457	-0.254711	6
N	0.799659	-1.402657	-0.195321	7
N	0.048639	-2.526987	-0.238361	7
C	0.954599	0.960193	-0.195671	6
C	0.577429	2.120933	0.692409	6
O	1.592578	1.192153	1.076159	8
H	-1.612251	0.907963	-0.628561	1
H	-1.834731	-0.430117	0.522909	1
H	-1.705171	-0.755387	-1.226471	1
H	0.666379	-3.330257	-0.384771	1
H	-0.375801	-2.701837	0.676589	1
H	1.543348	1.167183	-1.081061	1
H	-0.352241	2.093183	1.245719	1
H	0.894859	3.113282	0.397749	1
Es	0.890403	1.493811	0.563418	99
Es	-1.405160	-0.054723	-0.266539	99
Es	1.154644	1.098069	0.569570	99
Es	1.867021	1.189929	0.899016	99
Es	-1.424616	0.251900	-0.296515	99
Es	0.387596	-1.079709	-0.174202	99
Es	0.742369	2.646361	0.593162	99
Es	0.837199	0.682362	-0.212260	99
Es	-0.813658	-0.237032	-0.301575	99
Es	1.138945	1.275287	0.743844	99
Es	0.862933	1.548272	0.609391	99
Es	1.031091	1.486486	0.542900	99
Es	0.405950	-2.787571	-0.339367	99
Es	-0.113287	-2.574468	-0.326537	99
Es	0.512491	-1.009206	-0.166136	99
Es	0.264639	-2.048627	-0.167426	99
Es	0.498790	2.053390	0.682009	99
Es	-0.083412	-0.208455	-0.239258	99
Es	0.837553	-1.402903	-0.188056	99
Es	-1.208900	-0.170701	-0.265742	99
Es	0.188946	-2.319530	-0.242674	99
Es	0.667484	-1.719729	-0.048264	99
Es	1.016721	1.181752	0.239905	99
Es	-1.518447	-0.458174	-0.878116	99
Es	0.961168	0.966067	0.168135	99
Es	0.276513	-2.274586	-0.153738	99
Es	1.258370	1.466362	0.763033	99
