45
Properties=species:S:1:pos:R:3:Z:I:1 energy=-341.09960518883986 field_type=dipole dipole="0.000000 0.000000 0.000000" charge=0
C	-3.463526	-1.205259	-0.076090	6
C	-1.969256	-1.221779	-0.021620	6
N	-1.293166	-0.122589	-0.063600	7
O	0.074344	-0.432489	0.015670	8
C	0.814314	0.791001	0.060780	6
C	2.303464	0.452761	0.145360	6
N	3.154854	1.642171	0.185080	7
H	-3.794216	-1.812019	-0.923040	1
H	-3.840796	-0.185209	-0.184740	1
H	-3.855266	-1.645669	0.844000	1
H	-1.481346	-2.208939	0.063890	1
H	0.502695	1.370641	0.938280	1
H	0.604954	1.372371	-0.845590	1
H	2.587034	-0.171779	-0.709660	1
H	2.487604	-0.152839	1.039790	1
H	3.035834	2.176561	-0.675430	1
H	4.132464	1.353061	0.206920	1
Es	3.254119	1.641954	0.014262	99
Es	-3.544950	-1.343076	0.031541	99
Es	3.159546	1.637233	0.157565	99
Es	2.251427	0.415580	0.209511	99
Es	-2.131695	-1.381844	-0.039142	99
Es	1.374003	0.698434	0.146707	99
Es	3.229124	1.596838	0.153082	99
Es	0.114949	-0.486465	-0.050961	99
Es	-1.490403	-0.506027	0.064314	99
Es	-3.598041	-1.366744	-0.052005	99
Es	2.667676	0.499988	0.086713	99
Es	-1.531090	-0.303684	-0.288122	99
Es	-1.836042	-1.677909	0.019899	99
Es	0.302637	0.019208	-0.037414	99
Es	2.586425	0.758890	0.128875	99
Es	3.432618	1.857525	0.130768	99
Es	-3.664480	-1.474251	-0.178361	99
Es	0.197237	-0.565122	0.211991	99
Es	0.016203	-0.396599	0.025674	99
Es	-1.124872	-0.154387	0.071633	99
Es	0.874082	0.836029	0.085616	99
Es	-2.369053	-1.271975	-0.061482	99
Es	2.389117	0.155936	0.194850	99
Es	-1.003074	-0.193581	-0.037624	99
Es	0.813880	0.984799	0.068375	99
Es	-1.213793	-0.285490	-0.177158	99
Es	-3.699629	-0.609590	-0.051170	99
Es	0.641489	1.164170	-0.035142	99
