49
Properties=species:S:1:pos:R:3:Z:I:1 energy=-326.3176136475543 field_type=dipole dipole="0.000000 0.000000 0.000000" charge=0
C	-2.542522	0.563538	-1.944252	6
C	-1.689902	-0.584582	-1.442402	6
O	-0.568712	-0.046162	-0.744452	8
C	0.257558	-1.085382	-0.204652	6
C	1.450798	-0.457852	0.528138	6
N	0.996618	0.302968	1.701168	7
C	2.102748	1.009618	2.328598	6
H	-3.408242	0.192118	-2.499662	1
H	-1.959572	1.221978	-2.596272	1
H	-2.895902	1.174468	-1.107332	1
H	-1.340512	-1.186692	-2.288762	1
H	-2.278622	-1.217872	-0.769632	1
H	0.626538	-1.712212	-1.024102	1
H	-0.328732	-1.707282	0.481128	1
H	1.978688	0.210188	-0.163562	1
H	2.136468	-1.251492	0.844668	1
H	0.295238	0.974268	1.377018	1
H	2.572018	1.719878	1.640458	1
H	2.861708	0.308898	2.691688	1
H	1.734338	1.571608	3.192218	1
Es	0.433795	-1.046834	-0.352545	99
Es	1.879290	-0.941539	0.799589	99
Es	-2.097208	-0.134027	-1.573521	99
Es	-1.580266	-0.766948	-1.711937	99
Es	-3.002462	0.366273	-2.319002	99
Es	-2.440053	0.670272	-1.902681	99
Es	0.989578	0.422540	1.530104	99
Es	0.491442	-1.121447	-0.249786	99
Es	-0.526542	-0.069474	-0.771720	99
Es	1.133207	-0.053559	1.003381	99
Es	1.163455	-0.060827	0.888179	99
Es	-2.158791	-0.141787	-1.593210	99
Es	0.241235	-1.121549	-0.146268	99
Es	1.799437	1.092321	1.941755	99
Es	2.067992	1.115314	2.422292	99
Es	-2.398202	0.299949	-1.692886	99
Es	-1.619290	-0.846553	-1.644348	99
Es	-1.047667	-0.266366	-1.038952	99
Es	1.302366	-0.172982	0.857760	99
Es	-0.561819	-0.044388	-0.765429	99
Es	0.820567	-0.036980	0.439166	99
Es	-2.453197	0.854779	-1.682288	99
Es	0.561379	-0.429226	0.282642	99
Es	2.011876	1.278671	2.563857	99
Es	1.195848	0.419545	1.776499	99
Es	-0.515540	-0.216788	-0.528989	99
Es	2.556006	0.600034	2.517792	99
Es	1.742058	0.760319	2.093508	99
Es	-0.040282	-0.987754	-0.378516	99
