46
Properties=species:S:1:pos:R:3:Z:I:1 energy=-325.14184857289615 field_type=dipole dipole="0.000000 0.000000 0.000000" charge=0
C	-0.369050	-1.682993	-1.245743	6
C	-0.934490	-0.711633	-0.216953	6
O	-0.802180	-1.286973	1.091326	8
C	-0.296600	0.712547	-0.258033	6
N	-0.950500	1.561757	0.751277	7
C	1.208301	0.701397	-0.072943	6
C	1.917730	1.283287	0.905817	6
H	-0.446610	-1.276413	-2.258133	1
H	-0.921610	-2.628373	-1.209443	1
H	0.675120	-1.933293	-1.038153	1
H	-2.011400	-0.615153	-0.401833	1
H	0.142300	-1.238573	1.327827	1
H	-0.493300	1.153467	-1.242823	1
H	-1.003550	1.012237	1.613147	1
H	-1.925200	1.692587	0.481747	1
H	1.768470	0.180197	-0.847453	1
H	1.441570	1.852357	1.699047	1
H	3.000990	1.223567	0.921327	1
Es	-0.928653	-1.317354	-0.138730	99
Es	1.080946	1.281898	0.748205	99
Es	-0.685101	-1.583086	-0.831408	99
Es	0.533524	1.127504	0.434534	99
Es	-1.147651	-0.855793	0.234467	99
Es	-0.750190	-0.547375	0.485117	99
Es	0.943858	1.344824	0.781048	99
Es	-0.070472	0.460567	0.124748	99
Es	-0.458986	-1.142484	-0.487678	99
Es	-0.287034	-1.330438	-0.567329	99
Es	-0.372470	-0.113165	0.172827	99
Es	-0.425018	-1.337376	-0.729858	99
Es	-0.945652	1.225983	1.018608	99
Es	1.317888	0.677042	-0.097862	99
Es	-0.575115	-0.322642	0.509675	99
Es	0.062231	0.230103	0.017919	99
Es	-0.730966	-0.834983	0.256774	99
Es	1.299928	1.116875	0.514256	99
Es	-0.748821	1.280467	0.670799	99
Es	-0.753403	1.210768	0.576681	99
Es	0.711391	0.834192	0.342675	99
Es	-0.691457	0.187601	0.500644	99
Es	-0.482620	-1.507959	-0.922841	99
Es	-0.562319	0.826678	0.472376	99
Es	-0.570489	-0.453350	0.080322	99
Es	1.458041	0.960085	0.273775	99
Es	2.326360	1.279270	0.619850	99
Es	-0.425757	-1.709033	-1.063466	99
