46
Properties=species:S:1:pos:R:3:Z:I:1 energy=-325.1220050948879 field_type=dipole dipole="0.000000 0.000000 0.000000" charge=0
C	-0.251299	-2.539641	-0.477911	6
N	-0.592679	-1.279772	0.169949	7
C	0.539891	-0.339952	0.182019	6
C	0.736121	0.589149	-0.985321	6
C	0.312261	1.146308	0.343379	6
C	-1.059149	1.713618	0.516799	6
O	1.330701	1.846268	1.077079	8
H	-1.124059	-3.199421	-0.478441	1
H	0.561321	-3.050662	0.048189	1
H	0.044821	-2.379542	-1.519421	1
H	-0.891569	-1.468412	1.127669	1
H	1.439921	-0.724862	0.659289	1
H	0.010041	0.558378	-1.788971	1
H	1.751861	0.765288	-1.316231	1
H	-1.798749	1.226948	-0.128611	1
H	-1.060369	2.781708	0.272959	1
H	-1.386839	1.601788	1.555709	1
H	1.437771	2.752809	0.741869	1
Es	-0.281377	-2.025344	-0.246180	99
Es	0.789134	0.247980	-0.245298	99
Es	0.055962	-0.542376	0.097548	99
Es	-0.354059	-1.969655	-0.189266	99
Es	-0.477819	-1.343510	0.054730	99
Es	-0.478802	1.106914	0.470177	99
Es	-0.615847	1.744672	0.588525	99
Es	-0.720845	-2.921524	-0.582049	99
Es	-0.019138	1.582254	0.519790	99
Es	-0.364754	-0.914462	-0.067991	99
Es	0.578446	0.327331	-0.374541	99
Es	1.036292	1.712990	0.782967	99
Es	-0.561366	-1.472983	0.050361	99
Es	0.173509	1.449386	0.425070	99
Es	1.147472	1.738421	0.921530	99
Es	0.308969	-0.127623	-0.418719	99
Es	0.214366	-0.398155	-0.075545	99
Es	0.634910	0.969515	0.168057	99
Es	-1.119578	1.511746	0.560502	99
Es	-0.253232	-2.429571	-0.479034	99
Es	0.589642	1.481644	0.576882	99
Es	0.970926	0.478292	-0.263331	99
Es	1.430816	2.126163	0.749741	99
Es	0.645435	0.083244	-0.458323	99
Es	0.126474	-2.618917	-0.477823	99
Es	-1.081078	1.989427	0.685318	99
Es	0.522241	0.838067	0.065397	99
Es	0.709273	1.423416	0.462026	99
