45
Properties=species:S:1:pos:R:3:Z:I:1 energy=-341.14459501083337 field_type=dipole dipole="0.000000 0.000000 0.000000" charge=0
C	-1.954316	0.127392	0.371719	6
N	-0.510986	0.330062	0.377269	7
C	0.302604	-0.890818	0.438509	6
C	0.942384	-1.206688	-0.918691	6
O	1.964584	-0.271218	-1.249691	8
C	0.017984	1.590452	0.444549	6
N	1.252344	1.940022	0.497679	7
H	-2.504126	1.070812	0.288679	1
H	-2.270886	-0.363008	1.298249	1
H	-2.246316	-0.501798	-0.475351	1
H	-0.322456	-1.741138	0.736729	1
H	1.074114	-0.780538	1.209069	1
H	0.200244	-1.210338	-1.723511	1
H	1.409424	-2.195768	-0.881121	1
H	1.526304	0.595832	-1.365911	1
H	-0.745276	2.388072	0.426169	1
H	1.864374	1.118672	0.525649	1
Es	-0.245090	1.197173	0.415567	99
Es	-2.133883	-0.003958	0.829968	99
Es	0.950467	1.720983	0.466817	99
Es	1.274481	1.418878	0.333058	99
Es	0.356459	-0.969224	0.182203	99
Es	-0.304383	0.796516	0.513506	99
Es	-0.607453	-0.028387	0.351239	99
Es	-1.936200	-0.180639	0.143622	99
Es	-1.093448	0.257480	0.490600	99
Es	1.372585	-0.552040	-0.633196	99
Es	-2.243689	0.600866	0.335145	99
Es	1.940878	-0.253484	-1.250811	99
Es	0.945840	-1.060300	-0.725807	99
Es	1.286624	2.241145	0.460936	99
Es	-0.618286	-0.745570	0.504684	99
Es	-0.324744	0.869237	0.290125	99
Es	0.401501	-1.057351	-0.394963	99
Es	-0.325731	1.991595	0.502234	99
Es	1.192343	1.939682	0.511916	99
Es	1.203246	-1.528028	-0.916598	99
Es	2.107462	-0.347479	-1.169143	99
Es	1.907094	0.017246	-1.347338	99
Es	0.899738	1.729690	0.518477	99
Es	0.904624	-1.289958	-0.897073	99
Es	-1.397378	-0.092266	0.257663	99
Es	1.742615	-0.405616	-1.042539	99
Es	0.790033	-0.877947	0.011107	99
Es	-0.222215	-0.175162	0.322176	99
