42
Properties=species:S:1:pos:R:3:Z:I:1 energy=-339.96630017871985 field_type=dipole dipole="0.000000 0.000000 0.000000" charge=0
C	-0.833258	-0.941892	2.271301	6
N	-1.363828	0.012818	1.300441	7
N	-0.820938	-0.236662	0.019981	7
C	0.226452	0.542228	-0.442209	6
O	0.771492	1.423218	0.215341	8
C	0.626202	0.201198	-1.831979	6
C	1.635472	0.852318	-2.427289	6
H	-1.269218	-0.742812	3.254681	1
H	0.255312	-0.860862	2.358871	1
H	-1.091888	-1.968492	1.992331	1
H	-1.046958	0.952148	1.580341	1
H	-1.296658	-0.901102	-0.582799	1
H	0.090162	-0.580982	-2.351669	1
H	2.183062	1.639498	-1.916209	1
H	1.934592	0.609378	-3.441139	1
Es	1.676289	0.994417	-2.273571	99
Es	-0.978777	-0.288230	1.639983	99
Es	-0.867450	-0.349823	0.295495	99
Es	-0.541884	-0.154813	0.006716	99
Es	-1.048727	-0.526359	-0.262619	99
Es	1.233237	0.752236	-2.299283	99
Es	0.629073	0.700263	-0.719831	99
Es	-1.122230	-0.533060	1.814154	99
Es	0.547969	0.642386	-0.658254	99
Es	0.479200	1.061179	-0.396356	99
Es	1.656010	1.185853	-2.165811	99
Es	-1.023137	-0.410640	1.774638	99
Es	0.637369	1.007683	0.231768	99
Es	-0.055230	0.453906	-0.173179	99
Es	0.588837	0.474044	-1.213918	99
Es	-0.527201	0.058374	0.126526	99
Es	0.838588	1.461416	0.107279	99
Es	0.257214	-0.319516	-2.163598	99
Es	-1.176105	-0.746653	1.884865	99
Es	-0.961822	-0.191833	1.734517	99
Es	-1.132734	-0.780524	2.905430	99
Es	1.773218	0.717063	-3.107665	99
Es	-0.274488	0.250143	-0.386934	99
Es	0.790732	1.599238	0.392123	99
Es	-1.024534	-1.003835	1.977419	99
Es	0.970609	0.337647	-1.866035	99
Es	-1.012504	-0.185548	1.609434	99
