46
Properties=species:S:1:pos:R:3:Z:I:1 energy=-325.1114453157055 field_type=dipole dipole="0.000000 0.000000 0.000000" charge=0
C	-1.207580	-2.674438	-0.986077	6
O	-1.355980	-1.371318	-0.441217	8
C	-0.096050	-0.715958	-0.197527	6
C	0.239930	0.421772	-1.122007	6
C	-0.215340	0.706832	0.286173	6
C	0.733320	1.216392	1.318263	6
N	0.650480	2.667652	1.336283	7
H	-2.202020	-3.080348	-1.189367	1
H	-0.701940	-3.326548	-0.267597	1
H	-0.642880	-2.635538	-1.922257	1
H	0.723570	-1.306288	0.201873	1
H	-0.450790	0.644272	-1.927237	1
H	1.281720	0.575232	-1.375327	1
H	-1.221820	1.084492	0.435033	1
H	1.763450	0.906472	1.109653	1
H	0.455640	0.820832	2.300743	1
H	0.929890	3.032222	0.427583	1
H	1.316400	3.034262	2.013003	1
Es	-0.102092	0.143037	-0.706274	99
Es	0.709197	0.969124	0.925278	99
Es	-1.073123	-2.355432	-0.511801	99
Es	-0.012392	0.453838	-0.926689	99
Es	-0.061173	0.594163	-0.013877	99
Es	0.541227	2.100615	1.366134	99
Es	0.190394	0.372943	-0.893931	99
Es	-0.453625	-0.926897	-0.294417	99
Es	-1.353983	-2.782400	-1.197500	99
Es	-1.228442	-1.845296	-0.530287	99
Es	-1.098347	-1.356201	-0.287056	99
Es	-0.325223	0.750670	0.312918	99
Es	-1.233931	-1.622669	-0.477603	99
Es	-1.088332	-1.679942	-0.691779	99
Es	0.548319	1.020199	0.913188	99
Es	0.962973	2.798666	0.895286	99
Es	0.514253	0.428459	-0.813268	99
Es	-0.149060	0.139808	-0.118016	99
Es	-1.176058	-2.664245	-1.044346	99
Es	0.504802	1.031951	1.346009	99
Es	0.811840	1.256202	1.626204	99
Es	0.633701	2.515200	1.279552	99
Es	0.719495	2.709951	1.452643	99
Es	-0.011105	-0.196249	-0.582406	99
Es	0.843627	2.793054	1.596601	99
Es	-1.309596	-2.897446	-1.336250	99
Es	-0.081766	0.033448	-0.353616	99
Es	-0.635952	-1.101758	-0.168382	99
