38
Properties=species:S:1:pos:R:3:Z:I:1 energy=-358.603855999804 field_type=dipole dipole="0.000000 0.000000 0.000000" charge=0
C	-0.010653	-2.143522	0.296027	6
O	-0.877163	-1.049752	0.016777	8
C	-0.298963	0.147458	-0.064433	6
C	-0.799163	1.399567	-0.311843	6
C	0.330057	2.234278	-0.261673	6
N	1.449737	1.554328	-0.002593	7
O	1.049237	0.230188	0.122357	8
H	-0.616092	-3.053482	0.333377	1
H	0.476057	-2.019252	1.269647	1
H	0.735748	-2.264512	-0.496723	1
H	-1.829023	1.661008	-0.499603	1
H	0.390217	3.303698	-0.401313	1
Es	0.177738	-2.141704	0.403535	99
Es	-0.614892	1.259562	-0.252849	99
Es	1.112668	1.694853	0.024953	99
Es	0.111184	-2.157928	0.257211	99
Es	0.829647	0.600927	0.037755	99
Es	-0.674698	-0.675926	0.107339	99
Es	0.429453	-2.042337	0.334089	99
Es	1.798620	1.644158	0.018745	99
Es	0.291887	2.199125	-0.270353	99
Es	-0.120303	1.806895	-0.389792	99
Es	0.965948	0.272733	0.099532	99
Es	0.912669	1.819498	-0.276946	99
Es	0.987773	0.353755	0.102786	99
Es	-0.668516	-1.167806	0.000268	99
Es	-0.357337	0.270491	-0.082234	99
Es	1.315528	1.644069	0.064387	99
Es	1.207676	-0.043481	0.175102	99
Es	-0.715972	1.333869	-0.270721	99
Es	-0.665685	-1.323888	0.073212	99
Es	-0.541035	0.616590	-0.146591	99
Es	0.936241	0.290692	0.095949	99
Es	0.341687	2.942323	-0.341925	99
Es	-1.478019	1.595072	-0.391847	99
Es	-0.794820	-0.981164	0.003416	99
Es	-0.384632	-2.759622	0.318428	99
Es	-1.185853	-1.043025	-0.054322	99
