46
Properties=species:S:1:pos:R:3:Z:I:1 energy=-325.1276877210381 field_type=dipole dipole="0.000000 0.000000 0.000000" charge=0
C	0.179260	-2.247800	0.397409	6
O	-0.236089	-0.968890	0.860239	8
C	-0.356209	-0.000570	-0.196241	6
C	-1.196189	1.186520	0.350079	6
N	-0.623249	1.817620	1.550939	7
C	1.014371	0.443440	-0.639391	6
C	1.484820	0.335070	-1.890471	6
H	0.141491	-2.943570	1.240319	1
H	1.208691	-2.215020	0.029059	1
H	-0.491489	-2.616330	-0.384771	1
H	-0.916429	-0.445710	-1.028771	1
H	-2.188509	0.807130	0.621879	1
H	-1.328679	1.948770	-0.425391	1
H	-0.370729	1.062450	2.193539	1
H	-1.342709	2.365670	2.017269	1
H	1.645541	0.883930	0.129659	1
H	0.891661	-0.093790	-2.691191	1
H	2.484451	0.681080	-2.134161	1
Es	-0.299551	-1.321593	0.729848	99
Es	-0.976519	1.399601	0.967260	99
Es	0.317998	-2.276054	0.382846	99
Es	0.282382	-2.208693	0.211922	99
Es	0.660353	0.242712	-0.596931	99
Es	-0.028219	-2.219477	0.296574	99
Es	-1.055854	1.029949	0.928907	99
Es	0.847992	0.423532	-0.935790	99
Es	-0.262698	-0.593614	0.486013	99
Es	0.434117	0.105597	-0.756156	99
Es	0.665440	0.340354	-1.017639	99
Es	-0.867107	2.033599	1.720790	99
Es	-0.955027	1.376759	0.943795	99
Es	0.164340	0.254670	-0.215888	99
Es	-0.029499	-1.236348	0.724901	99
Es	1.022602	0.125778	-1.055432	99
Es	1.183259	0.194428	-2.062128	99
Es	0.111193	-2.236562	0.464489	99
Es	-0.644238	1.832717	0.950343	99
Es	-0.905543	0.799011	0.521501	99
Es	-0.303050	-0.923128	0.963105	99
Es	-0.432515	-0.494961	0.411441	99
Es	-0.763681	0.880282	0.584673	99
Es	-0.867402	1.775494	1.473319	99
Es	1.245873	0.112842	-1.650365	99
Es	0.496831	0.309900	-0.362965	99
Es	2.051368	0.555041	-2.016908	99
Es	-0.881327	1.189502	0.711663	99
