45
Properties=species:S:1:pos:R:3:Z:I:1 energy=-341.15200165479575 field_type=dipole dipole="0.000000 0.000000 0.000000" charge=0
N	-2.062151	0.285377	-0.529387	7
C	-0.602531	0.266637	-0.448447	6
C	-0.001731	1.351276	0.443993	6
N	1.376229	0.884636	0.676513	7
C	1.237930	-0.567423	0.898933	6
C	-0.040061	-1.020913	0.173283	6
O	0.223199	-1.993753	-0.837577	8
H	-2.371631	-0.539043	-1.047507	1
H	-2.369781	1.097066	-1.062897	1
H	-0.213941	0.376927	-1.469867	1
H	-0.530631	1.432956	1.401953	1
H	-0.012321	2.334986	-0.036377	1
H	1.918679	1.037226	-0.173677	1
H	2.132429	-1.098303	0.557703	1
H	1.133579	-0.743963	1.975633	1
H	-0.738821	-1.462394	0.893653	1
H	0.921549	-1.641293	-1.415927	1
Es	-1.539537	0.167870	-0.564679	99
Es	0.012421	1.605067	0.306160	99
Es	0.135804	-1.829399	-0.501437	99
Es	-0.287243	0.739650	-0.087843	99
Es	-2.286723	-0.033657	-0.797599	99
Es	-1.697181	0.322764	-0.531798	99
Es	-1.112756	0.303376	-0.376481	99
Es	0.120713	-0.548244	0.082819	99
Es	-0.059557	1.526811	0.477312	99
Es	1.379835	0.817697	0.801164	99
Es	0.214320	-1.212479	0.110890	99
Es	-2.040525	0.573496	-0.763592	99
Es	1.377398	0.116725	0.954927	99
Es	0.866273	0.339576	0.536505	99
Es	1.258335	0.664587	0.740318	99
Es	1.687395	-0.869181	0.721381	99
Es	0.666874	1.057517	0.804081	99
Es	1.288923	0.161337	0.730469	99
Es	-0.473104	0.914323	-0.056499	99
Es	0.010625	-1.519320	-0.457665	99
Es	0.347246	-1.070998	0.171804	99
Es	0.645630	-0.663218	0.428427	99
Es	1.068506	0.726593	0.660462	99
Es	0.500261	-2.040235	-0.801886	99
Es	0.239245	-1.868754	-0.763729	99
Es	-1.787655	0.453314	-0.421692	99
Es	-0.276317	-0.337760	-0.343390	99
Es	-0.113123	-1.996936	-0.664659	99
