39
Properties=species:S:1:pos:R:3:Z:I:1 energy=-338.7687433164367 field_type=dipole dipole="0.000000 0.000000 0.000000" charge=0
N	-0.436966	-1.743425	-1.015956	7
C	-0.899356	-1.024285	0.174134	6
C	-0.275166	0.329715	0.261754	6
N	-0.990046	1.366065	0.726104	7
O	-0.139466	2.456305	0.698154	8
C	1.073895	2.069315	0.237794	6
C	1.049425	0.730345	-0.045876	6
H	-0.956836	-2.616635	-1.087696	1
H	0.538274	-2.006005	-0.890686	1
H	-0.652476	-1.603105	1.071174	1
H	-1.990556	-0.934025	0.126364	1
H	1.820844	2.845845	0.175314	1
H	1.858425	0.129895	-0.430576	1
Es	0.908439	0.698120	-0.042440	99
Es	-0.514184	-0.119154	0.224455	99
Es	-0.555507	-1.535609	-0.580697	99
Es	-0.360894	0.150207	0.258553	99
Es	-0.832246	-1.154945	0.273433	99
Es	0.029078	-1.994538	-1.039181	99
Es	-0.472118	-1.684317	-0.822183	99
Es	-0.158769	2.388040	0.663101	99
Es	-0.988984	1.365596	0.725678	99
Es	-1.609077	-0.981254	0.158926	99
Es	1.562802	0.358419	-0.356461	99
Es	-0.112951	2.330303	0.598171	99
Es	0.937965	1.311389	-0.082253	99
Es	-0.301723	2.511508	0.844800	99
Es	1.567217	2.580754	0.167717	99
Es	-0.784979	-1.247002	0.231641	99
Es	-1.305038	1.364893	0.927156	99
Es	1.075425	1.900796	0.267504	99
Es	-0.568016	0.894331	0.378267	99
Es	0.498488	0.571631	-0.010960	99
Es	1.054232	1.574373	0.317908	99
Es	-0.022555	2.456823	0.729156	99
Es	0.029135	2.063872	0.544505	99
Es	-0.495677	-1.599126	-0.875745	99
Es	-0.645458	-2.117630	-0.999025	99
Es	-0.620293	0.914773	0.657654	99
