45
Properties=species:S:1:pos:R:3:Z:I:1 energy=-341.12057476085266 field_type=dipole dipole="0.000000 0.000000 0.000000" charge=0
N	-0.903154	-1.723887	-1.060408	7
C	-0.616134	-1.134407	0.254472	6
C	0.200546	0.139532	0.119992	6
N	1.424586	-0.007707	-0.710358	7
C	-0.521464	1.449012	-0.265558	6
O	0.191376	2.177123	0.777432	8
C	0.554476	0.913803	1.406582	6
H	-1.450544	-2.574127	-0.925258	1
H	-0.014244	-2.037218	-1.455138	1
H	-0.073764	-1.871167	0.858232	1
H	-1.563314	-0.932717	0.766502	1
H	1.982986	0.849163	-0.735048	1
H	1.192026	-0.194268	-1.686968	1
H	-1.600954	1.473032	-0.081538	1
H	-0.317344	1.856043	-1.260598	1
H	1.601556	0.900393	1.724652	1
H	-0.086634	0.717402	2.273012	1
Es	0.345243	0.519426	0.145609	99
Es	-0.678636	-1.524210	-0.489772	99
Es	-0.471332	-0.632129	0.020921	99
Es	0.293845	0.887279	0.148743	99
Es	0.154292	1.585764	0.856281	99
Es	0.007195	1.244410	1.082283	99
Es	-1.023545	-1.524026	-0.718502	99
Es	0.117554	1.441318	0.601342	99
Es	0.187815	1.607929	0.659885	99
Es	0.620730	0.424085	-0.229760	99
Es	0.575607	-0.020971	-0.316476	99
Es	0.890869	0.023315	-0.469514	99
Es	0.637433	0.020793	-0.519167	99
Es	0.139147	1.398142	0.590969	99
Es	-0.034377	-0.397481	0.004877	99
Es	0.012861	1.233080	0.513438	99
Es	-0.311324	-1.323482	-0.038478	99
Es	-0.113154	-0.514179	-0.006229	99
Es	0.261623	1.801832	0.787296	99
Es	0.296444	1.006659	0.341988	99
Es	-0.792101	-1.834202	-1.037379	99
Es	-0.922945	-1.790066	-0.872078	99
Es	0.918296	0.217484	-0.323518	99
Es	0.405386	1.992200	0.760988	99
Es	0.217448	0.182575	-0.116994	99
Es	-0.009292	1.199369	0.694888	99
Es	0.125850	0.536220	0.051803	99
Es	-0.529698	-1.687425	-0.907766	99
