46
Properties=species:S:1:pos:R:3:Z:I:1 energy=-325.1273077844109 field_type=dipole dipole="0.000000 0.000000 0.000000" charge=0
N	-2.690254	-1.274961	-0.269964	7
C	-1.239654	-1.161281	-0.351824	6
C	-0.723504	-0.128071	0.647016	6
C	0.794176	-0.039470	0.566406	6
C	1.403456	0.677520	-0.648124	6
C	2.099146	1.552739	0.388976	6
O	1.297256	0.995379	1.456366	8
H	-3.024594	-1.922421	-0.982354	1
H	-3.122024	-0.374210	-0.473624	1
H	-0.954774	-0.882390	-1.372074	1
H	-0.791744	-2.139631	-0.145934	1
H	-1.017354	-0.417630	1.663766	1
H	-1.175114	0.852179	0.448426	1
H	1.282396	-0.994321	0.800976	1
H	0.694056	1.214289	-1.284394	1
H	2.068506	0.067469	-1.263944	1
H	3.162396	1.346649	0.542626	1
H	1.937626	2.628159	0.277676	1
Es	0.973133	0.471713	-0.489916	99
Es	1.137910	1.037789	1.528069	99
Es	1.667846	0.853396	0.093125	99
Es	-0.815016	-0.104420	0.521819	99
Es	-2.214769	-1.237239	-0.446085	99
Es	-2.817391	-1.606036	-0.188864	99
Es	1.774008	1.193426	-0.080834	99
Es	1.482811	1.025221	0.924688	99
Es	-0.853248	-0.315786	1.143251	99
Es	0.744710	0.018927	0.601761	99
Es	0.898337	0.087809	0.179159	99
Es	-1.477746	-1.218137	-0.412175	99
Es	1.460701	0.541888	-0.378668	99
Es	0.080290	-0.003599	0.511430	99
Es	-2.529090	-1.305542	-0.288211	99
Es	-2.182479	-1.301971	-0.360868	99
Es	2.584084	1.399746	0.453608	99
Es	1.554722	1.100990	0.298544	99
Es	1.446272	0.722312	-0.517118	99
Es	2.053301	1.579038	0.264362	99
Es	1.768787	1.156451	0.887899	99
Es	-1.114817	-0.981944	-0.968202	99
Es	1.257948	0.612569	0.915495	99
Es	-0.815942	-0.015336	0.753713	99
Es	1.303900	1.000338	1.511871	99
Es	-1.959780	-1.209249	-0.315544	99
Es	-2.221321	-1.305317	-0.310949	99
Es	-0.930649	-0.271785	0.297745	99
