42
Properties=species:S:1:pos:R:3:Z:I:1 energy=-340.00768444898034 field_type=dipole dipole="0.000000 0.000000 0.000000" charge=0
N	-1.201398	-0.449887	0.699861	7
C	0.233662	-0.539077	0.345261	6
C	0.468842	-0.685467	-1.135319	6
C	-0.434528	-0.629457	-2.124830	6
C	0.996962	0.718043	0.852551	6
N	0.206712	1.705013	1.380341	7
O	2.216452	0.850203	0.797981	8
H	-1.261658	-0.470847	1.718391	1
H	-1.643498	-1.314427	0.387381	1
H	0.657892	-1.405717	0.865221	1
H	1.511872	-0.849927	-1.411049	1
H	-1.487988	-0.448997	-1.936819	1
H	-0.127698	-0.747627	-3.159920	1
H	-0.778138	1.675493	1.136231	1
H	0.642512	2.592673	1.584721	1
Es	0.829020	0.254466	0.793977	99
Es	-1.187239	-0.670340	-0.878742	99
Es	-0.668929	-0.425980	0.675556	99
Es	0.191538	-0.480692	0.410261	99
Es	2.420367	0.682148	0.617199	99
Es	-1.275129	-0.161635	0.976346	99
Es	-0.705208	-0.421506	0.540014	99
Es	-0.381814	-0.647834	-1.962844	99
Es	0.147871	-0.547727	-0.631559	99
Es	0.245669	0.772729	0.926674	99
Es	0.259701	-0.602343	-1.478700	99
Es	0.143648	1.821923	1.698181	99
Es	-0.085455	-0.916452	-1.690754	99
Es	0.892013	0.295125	0.779533	99
Es	1.120097	1.159347	1.108133	99
Es	0.448403	1.479836	1.283029	99
Es	2.119994	0.914576	0.857547	99
Es	-0.102580	0.536159	0.924630	99
Es	-1.133640	-0.478165	0.658290	99
Es	0.331964	-0.769957	-1.988361	99
Es	0.139415	-0.768715	-1.806882	99
Es	0.866703	1.111967	1.118496	99
Es	0.367259	1.440071	1.276953	99
Es	1.587521	0.766883	0.758935	99
Es	2.182841	0.985022	0.866984	99
Es	-1.109824	-0.663411	-0.653856	99
Es	0.666861	-0.669145	-1.344044	99
