43
Properties=species:S:1:pos:R:3:Z:I:1 energy=-323.94655823129426 field_type=dipole dipole="0.000000 0.000000 0.000000" charge=0
N	0.531170	-3.180593	0.320493	7
C	0.287630	-2.010113	1.147613	6
C	-0.426770	-0.971662	0.351793	6
C	0.024540	0.273347	0.161303	6
O	-0.683650	1.193938	-0.569017	8
C	-0.167950	2.452497	-0.742817	6
C	-0.827840	3.394757	-1.417847	6
H	1.036520	-3.875592	0.866743	1
H	1.148980	-2.920863	-0.447377	1
H	1.238020	-1.633632	1.541773	1
H	-0.334070	-2.295832	2.002593	1
H	-1.382100	-1.257903	-0.082217	1
H	0.961580	0.627007	0.567833	1
H	0.802609	2.628457	-0.301117	1
H	-1.801090	3.189948	-1.851377	1
H	-0.407580	4.386237	-1.548377	1
Es	-0.837347	1.147470	-0.644883	99
Es	0.405270	-2.490115	0.882112	99
Es	0.311750	-2.085260	1.078442	99
Es	-0.674678	3.043167	-1.302082	99
Es	0.642068	-3.578015	0.586332	99
Es	-0.538017	1.022077	-0.437708	99
Es	0.503050	-2.945681	0.489710	99
Es	-0.543591	4.005574	-1.405009	99
Es	0.216505	2.346413	-0.466016	99
Es	-0.691951	-1.226274	0.322212	99
Es	0.349263	-3.131567	0.366344	99
Es	-0.983988	3.099571	-1.585935	99
Es	0.491351	-2.710027	0.614735	99
Es	-0.555193	1.056803	-0.645674	99
Es	-0.265626	-0.666396	0.123213	99
Es	0.245630	0.346406	0.341245	99
Es	-0.570328	1.399228	-0.337434	99
Es	-0.169941	-1.386458	0.644142	99
Es	-0.055704	2.469338	-0.708557	99
Es	0.142578	0.274695	0.380175	99
Es	-1.017981	3.369500	-1.521001	99
Es	-0.638298	3.071545	-0.901930	99
Es	0.606992	-2.805941	0.616377	99
Es	-0.058817	-0.113441	0.406858	99
Es	-0.441814	1.623567	-0.696287	99
Es	0.645716	-1.804385	1.177601	99
Es	-0.341089	-0.897725	0.224138	99
