39
Properties=species:S:1:pos:R:3:Z:I:1 energy=-338.7630997933982 field_type=dipole dipole="0.000000 0.000000 0.000000" charge=0
N	-1.431555	-1.493137	-0.974718	7
C	-0.381976	-1.570577	-0.230788	6
N	0.484304	-0.569077	0.151072	7
C	0.793794	0.455873	-0.860598	6
C	-0.102225	0.781603	0.286022	6
C	0.397655	1.584693	1.414022	6
O	0.438094	2.807303	1.351132	8
H	-1.854316	-2.424247	-1.065898	1
H	-0.076406	-2.540857	0.197922	1
H	0.355335	0.296263	-1.836848	1
H	1.824774	0.779643	-0.835038	1
H	-1.165056	0.856893	0.088652	1
H	0.717574	1.035623	2.315063	1
Es	0.288808	0.823219	0.338103	99
Es	-0.970118	-1.678642	-0.612018	99
Es	0.433581	1.103797	0.422321	99
Es	0.357510	0.578441	-0.202543	99
Es	0.399783	2.647995	1.344475	99
Es	-0.863494	-1.652079	-0.612016	99
Es	0.338991	-0.381690	-0.140753	99
Es	-1.117413	-1.980236	-0.800205	99
Es	-0.808527	-1.678264	-0.483415	99
Es	0.225217	0.341047	-0.002358	99
Es	-1.005653	-1.303626	-0.873234	99
Es	0.318462	2.059366	1.280733	99
Es	0.224350	0.525046	0.095740	99
Es	0.452250	2.772578	1.354733	99
Es	0.442852	2.561102	1.683760	99
Es	0.549298	2.507148	1.304925	99
Es	0.426503	0.069003	-0.551220	99
Es	-0.689593	-1.184088	-0.547062	99
Es	-0.206278	-1.105230	-0.381348	99
Es	0.356514	-0.015941	-0.611249	99
Es	0.508769	1.844232	0.885050	99
Es	-0.987734	-1.507644	-0.608109	99
Es	0.503528	1.233933	1.676262	99
Es	0.631821	0.770516	-0.147737	99
Es	0.188620	0.101887	-0.088024	99
Es	0.423695	-0.327533	0.076474	99
