42
Properties=species:S:1:pos:R:3:Z:I:1 energy=-339.9512952230672 field_type=dipole dipole="0.000000 0.000000 0.000000" charge=0
N	-0.441741	0.717506	2.815599	7
C	-0.866951	0.452446	1.632739	6
N	-0.275402	-0.469974	0.835309	7
C	-0.305261	-0.218334	-0.575281	6
C	0.809669	0.711096	-1.071361	6
O	1.305509	-0.301514	-1.981531	8
C	0.419029	-1.288774	-1.400451	6
H	-1.040271	1.433146	3.243778	1
H	-1.746261	0.958476	1.196179	1
H	0.613789	-0.785624	1.216199	1
H	-1.305311	0.019116	-0.953411	1
H	1.577689	0.993516	-0.344101	1
H	0.465809	1.601046	-1.606491	1
H	-0.193892	-1.778234	-2.162721	1
H	0.983599	-2.043894	-0.844451	1
Es	-0.773312	0.495794	1.747079	99
Es	-0.651141	0.621916	2.191961	99
Es	0.077913	-0.786119	-0.898532	99
Es	-0.722545	0.990584	2.839242	99
Es	-0.830030	0.636625	2.113196	99
Es	0.495608	0.031190	-0.927153	99
Es	1.138057	0.199577	-1.720810	99
Es	0.790577	0.816804	-1.080641	99
Es	0.011437	-0.399122	0.806631	99
Es	0.964719	-0.359033	-1.880917	99
Es	0.740065	0.741220	-0.906922	99
Es	-0.496683	-0.595080	0.921246	99
Es	-0.112539	-0.214916	-0.165637	99
Es	-0.487565	-0.100839	1.102667	99
Es	-0.584079	0.841192	2.871872	99
Es	-0.331036	-0.242108	-0.281980	99
Es	0.689925	-0.996795	-1.625479	99
Es	0.775767	-0.355216	-1.582244	99
Es	1.321601	-0.314934	-1.929450	99
Es	0.275792	-1.392538	-1.599847	99
Es	-0.129775	-0.527518	0.741874	99
Es	-0.659271	0.623476	2.347429	99
Es	0.904122	-0.572580	-1.812426	99
Es	0.050093	-1.022987	-0.984654	99
Es	0.603201	-0.493203	-1.306586	99
Es	0.455883	0.467261	-0.737209	99
Es	-0.726955	0.680056	2.365771	99
