42
Properties=species:S:1:pos:R:3:Z:I:1 energy=-339.9629047022658 field_type=dipole dipole="0.000000 0.000000 0.000000" charge=0
N	-1.420490	-1.047130	-1.148621	7
C	-1.058010	0.244580	-0.906721	6
N	-1.206290	1.169640	-1.793531	7
C	-0.420810	0.590150	0.425689	6
C	1.032700	0.244430	0.429329	6
C	1.736730	-0.159970	1.696369	6
O	1.320460	-1.129530	0.721229	8
H	-0.942400	-1.739500	-0.575581	1
H	-1.471360	-1.324230	-2.120031	1
H	-1.659940	0.779740	-2.621271	1
H	-0.959500	0.053700	1.217339	1
H	-0.542280	1.663060	0.614439	1
H	1.597780	0.738650	-0.349631	1
H	1.195730	-0.125990	2.632909	1
H	2.797690	0.042400	1.778089	1
Es	-1.469198	1.201567	-1.869863	99
Es	1.404052	0.101231	1.110601	99
Es	1.112591	-1.180057	0.874699	99
Es	-1.220864	0.923503	-1.726536	99
Es	-1.233822	0.763764	-1.399616	99
Es	-1.463784	-1.076999	-1.325228	99
Es	-1.495715	-0.342377	-1.157804	99
Es	0.272144	0.528171	0.328740	99
Es	-0.510542	0.428036	0.140375	99
Es	2.131608	-0.149619	1.935480	99
Es	1.553156	-0.203624	1.679162	99
Es	-1.145047	0.460015	-1.229631	99
Es	-1.138923	-0.661700	-1.155221	99
Es	0.074933	0.976527	0.370088	99
Es	-0.986511	0.776571	-1.500382	99
Es	0.947869	-0.254301	0.480269	99
Es	1.352486	-0.899465	0.818127	99
Es	1.629665	-1.071043	0.865036	99
Es	-1.150355	-1.229527	-0.822660	99
Es	0.865978	0.152923	0.434114	99
Es	1.358839	-0.874987	1.003434	99
Es	-0.644808	0.358836	-0.054047	99
Es	1.774359	-0.147065	1.814045	99
Es	0.173821	0.248924	0.446128	99
Es	-1.421448	-1.205168	-1.338115	99
Es	0.236052	0.285787	0.412611	99
Es	-1.126592	0.935467	-1.465629	99
