39
Properties=species:S:1:pos:R:3:Z:I:1 energy=-338.8195536656365 field_type=dipole dipole="0.000000 0.000000 0.000000" charge=0
N	-1.964310	-1.667801	0.834747	7
C	-2.039630	-0.414362	0.553017	6
N	-1.024260	0.395938	0.132637	7
C	0.286980	0.037868	-0.076853	6
C	1.282830	0.831518	-0.480883	6
C	2.638690	0.278478	-0.655063	6
O	3.567100	0.987358	-1.021433	8
H	-2.885790	-2.013132	1.124237	1
H	-2.999300	0.124818	0.640097	1
H	-1.245760	1.369569	-0.044833	1
H	0.457600	-1.019682	0.128767	1
H	1.159730	1.884778	-0.694873	1
H	2.766120	-0.795352	-0.439563	1
Es	2.575102	0.309897	-0.648314	99
Es	-1.963623	-1.661488	0.833144	99
Es	-1.942014	-1.093574	0.699919	99
Es	-1.451974	0.029938	0.315851	99
Es	0.286689	0.037860	-0.076762	99
Es	0.974909	0.482391	-0.335265	99
Es	3.153234	0.712135	-0.868495	99
Es	-1.709603	-1.828794	0.822163	99
Es	-1.016553	0.330019	0.140509	99
Es	-0.455530	0.257387	0.037721	99
Es	0.756055	0.444953	-0.274156	99
Es	0.404932	-0.648008	0.055532	99
Es	2.005728	0.549152	-0.576838	99
Es	1.187428	1.495749	-0.609490	99
Es	3.565470	0.981537	-1.019579	99
Es	-2.059361	-0.402779	0.554502	99
Es	2.714201	-0.451269	-0.505300	99
Es	3.695673	1.257325	-1.109912	99
Es	3.639980	0.832398	-1.003471	99
Es	-1.159035	0.941566	0.040580	99
Es	3.285672	0.777691	-0.911439	99
Es	-2.668556	-0.054110	0.608004	99
Es	1.282286	0.831413	-0.481568	99
Es	-2.025002	-1.242124	0.733757	99
Es	-2.521928	-1.881620	1.011741	99
Es	-1.024097	0.392010	0.132990	99
