39
Properties=species:S:1:pos:R:3:Z:I:1 energy=-338.6952719651994 field_type=dipole dipole="0.000000 0.000000 0.000000" charge=0
N	-3.124729	-0.503660	-1.051453	7
C	-1.872019	-0.235950	-0.927013	6
N	-1.238389	-0.115091	0.271177	7
O	0.098861	-0.525070	0.215867	8
C	0.890851	0.563869	0.706497	6
C	2.310050	0.195600	0.643357	6
C	3.472921	-0.103940	0.590117	6
H	-3.364499	-0.535331	-2.049233	1
H	-1.219799	-0.069590	-1.802313	1
H	-1.772469	-0.536561	1.029257	1
H	0.606111	0.783979	1.742047	1
H	0.710321	1.453290	0.091497	1
H	4.502791	-0.371540	0.540197	1
Es	-3.090503	-0.394603	-0.956161	99
Es	-0.086789	-0.299773	0.055586	99
Es	-1.534920	-0.214016	-0.113212	99
Es	3.005956	-0.006572	0.875945	99
Es	1.648013	0.325124	0.697368	99
Es	3.300719	-0.074222	0.630495	99
Es	0.670175	0.365595	0.684364	99
Es	-1.906095	-0.241693	-0.929359	99
Es	-1.198503	-0.256214	0.115747	99
Es	0.657381	0.372608	0.649968	99
Es	0.482373	0.373109	0.540174	99
Es	2.681906	-0.048470	0.430639	99
Es	-2.511118	-0.430520	-1.028070	99
Es	0.252096	-0.082040	0.273648	99
Es	-3.130083	-0.495126	-1.101813	99
Es	-1.218564	-0.148209	0.212683	99
Es	-3.423774	-0.577353	-1.387575	99
Es	-2.756140	-0.439629	-1.045865	99
Es	0.769214	0.563805	0.961544	99
Es	2.472902	0.105183	0.541260	99
Es	-0.875913	-0.242728	0.296789	99
Es	-0.903441	-0.128845	0.413393	99
Es	-1.423949	-0.247646	-1.083055	99
Es	0.045931	-0.565090	0.090028	99
Es	3.011383	0.215745	0.588112	99
Es	4.109548	-0.182689	0.547545	99
