39
Properties=species:S:1:pos:R:3:Z:I:1 energy=-338.8098838899122 field_type=dipole dipole="0.000000 0.000000 0.000000" charge=0
N	-2.021262	-0.039112	0.433175	7
N	-0.639932	-0.017082	0.204535	7
C	0.134778	-1.197891	-0.049995	6
C	1.459248	-0.591822	-0.381035	6
C	1.441798	0.747318	-0.368325	6
C	0.070287	1.156448	-0.022215	6
O	-0.328232	2.305738	0.033085	8
H	-2.412022	0.782658	-0.043415	1
H	-2.165512	0.167798	1.424905	1
H	-0.283052	-1.752182	-0.894715	1
H	0.176208	-1.817961	0.849635	1
H	2.331908	-1.185881	-0.611195	1
H	2.235787	1.441968	-0.574435	1
Es	0.100263	-1.467937	-0.022639	99
Es	-0.917933	-0.004587	0.135231	99
Es	-0.258190	2.002564	-0.104978	99
Es	0.795073	-0.964877	-0.269473	99
Es	-0.298676	2.279418	0.020675	99
Es	0.118661	-1.227754	-0.073542	99
Es	-2.047822	-0.093804	0.414469	99
Es	0.037439	1.095626	0.002612	99
Es	1.392458	0.166042	-0.398336	99
Es	-2.114935	0.113595	0.539955	99
Es	1.470194	-0.567951	-0.379946	99
Es	1.945242	1.188538	-0.533161	99
Es	0.775072	0.978853	-0.185785	99
Es	-0.003796	-1.637884	0.036641	99
Es	-0.365251	-0.387151	0.262306	99
Es	2.004236	-0.971717	-0.523538	99
Es	-2.255643	0.178714	0.557428	99
Es	-0.085692	2.058035	0.131718	99
Es	-1.643164	0.018675	0.320429	99
Es	1.443632	0.737841	-0.363074	99
Es	-0.467252	2.037112	0.148238	99
Es	-0.330003	2.549804	-0.059503	99
Es	-0.589290	-0.044597	0.068286	99
Es	1.497019	0.051465	-0.340652	99
Es	-0.335375	0.481819	0.216783	99
Es	-1.377776	-0.022954	0.356430	99
