39
Properties=species:S:1:pos:R:3:Z:I:1 energy=-338.77050721632764 field_type=dipole dipole="0.000000 0.000000 0.000000" charge=0
N	-2.026542	-1.455810	0.722375	7
N	-0.748042	-1.532410	0.281995	7
C	-0.140432	-0.395450	0.111345	6
C	1.291388	-0.303630	-0.348425	6
C	1.432447	1.164880	-0.380355	6
C	0.282547	1.704710	-0.003955	6
O	-0.733702	0.828400	0.312915	8
H	-2.547802	-2.295900	0.472185	1
H	-2.527202	-0.643540	0.357365	1
H	1.406837	-0.752890	-1.337275	1
H	1.959177	-0.769070	0.379535	1
H	2.325078	1.703730	-0.659695	1
H	0.026248	2.746980	0.091995	1
Es	-0.510022	-0.979132	0.233679	99
Es	0.109334	1.492268	0.097167	99
Es	-2.127108	-1.618618	0.607704	99
Es	-0.936472	0.631263	0.325516	99
Es	2.026188	1.543663	-0.569080	99
Es	1.426350	1.072064	-0.376860	99
Es	-0.495383	-1.060389	0.197376	99
Es	-0.747121	-1.525755	0.280289	99
Es	0.835880	1.416745	-0.231367	99
Es	-0.584851	0.584280	0.263727	99
Es	-0.613649	0.868631	0.142033	99
Es	1.379118	-0.335787	-0.244907	99
Es	0.917196	1.426701	-0.207637	99
Es	1.408646	0.538050	-0.323038	99
Es	-1.365166	-1.465160	0.474037	99
Es	-0.594017	-1.873246	0.243759	99
Es	-2.069119	-1.511554	0.649793	99
Es	0.118758	2.399060	0.073164	99
Es	-0.655692	0.830674	0.284841	99
Es	-0.238227	1.236372	0.276398	99
Es	0.552980	-0.365274	-0.099978	99
Es	1.588107	-0.639054	-0.522590	99
Es	-2.155426	-1.724527	0.904986	99
Es	-2.317378	-0.964016	0.612705	99
Es	1.302899	-0.448957	-0.443112	99
Es	-0.074680	-0.359617	0.071838	99
