39
Properties=species:S:1:pos:R:3:Z:I:1 energy=-338.7168371522243 field_type=dipole dipole="0.000000 0.000000 0.000000" charge=0
N	-2.977689	0.300865	-0.034931	7
N	-1.627549	0.400525	-0.032441	7
C	-1.037249	-0.739205	0.108849	6
O	0.306131	-0.891355	0.134879	8
C	1.065531	0.317435	0.008219	6
C	2.494441	-0.008755	0.101459	6
C	3.663101	-0.274015	0.181079	6
H	-3.380819	1.214585	0.192719	1
H	-3.316239	0.115825	-0.984211	1
H	-1.538279	-1.714735	0.223149	1
H	0.794070	1.012565	0.810749	1
H	0.855800	0.780385	-0.963861	1
H	4.698750	-0.514125	0.254339	1
Es	-3.220716	0.722351	-0.079822	99
Es	-1.041992	-0.727042	0.103488	99
Es	-2.267709	0.275126	-0.040948	99
Es	-1.529909	0.695412	-0.049798	99
Es	3.731428	-0.296956	0.191691	99
Es	2.637304	0.022861	0.302764	99
Es	4.266491	-0.406720	0.223295	99
Es	-3.084759	0.064328	0.099753	99
Es	2.017486	0.088704	-0.002829	99
Es	1.002539	0.275077	0.056069	99
Es	0.669900	-0.496359	0.052259	99
Es	0.853743	0.728109	0.035150	99
Es	0.038024	-0.816484	0.094927	99
Es	-1.617735	0.387774	-0.016294	99
Es	0.297689	-1.081696	0.061014	99
Es	0.188224	-0.695881	0.109082	99
Es	3.084939	-0.000784	-0.030953	99
Es	-3.052572	0.257699	-0.241251	99
Es	0.251332	-0.836532	0.190902	99
Es	-1.360023	-1.314244	0.206175	99
Es	-1.433447	-0.061710	-0.086695	99
Es	3.020019	-0.315434	0.156506	99
Es	-3.076090	0.384674	-0.153784	99
Es	0.929959	0.486610	-0.051010	99
Es	2.797950	-0.075733	0.152470	99
Es	-1.327206	-0.083502	0.082317	99
