40
Properties=species:S:1:pos:R:3:Z:I:1 energy=-322.79341823243635 field_type=dipole dipole="0.000000 0.000000 0.000000" charge=0
O	-1.934440	0.040960	1.661779	8
C	-1.043910	0.020460	0.821159	6
C	-0.434989	-1.250140	0.253369	6
C	0.582960	-0.765210	-0.735341	6
N	1.763990	-0.020010	-0.316521	7
C	0.596710	0.733350	-0.756851	6
C	-0.412440	1.264200	0.217159	6
H	-1.216360	-1.828220	-0.246281	1
H	0.028920	-1.832470	1.052889	1
H	0.644920	-1.324570	-1.657821	1
H	1.878570	-0.006730	0.699019	1
H	0.667900	1.265200	-1.694681	1
H	0.062000	1.861230	1.000609	1
H	-1.183830	1.841950	-0.298481	1
Es	1.324371	-0.410220	-0.651950	99
Es	-0.171873	1.037443	0.112230	99
Es	-0.758455	0.480348	0.422587	99
Es	-0.632606	1.388903	0.117435	99
Es	0.463129	0.674170	-0.445288	99
Es	1.214065	-0.407989	-0.620183	99
Es	-1.842716	0.169928	1.366811	99
Es	-2.145191	-0.086627	1.758771	99
Es	-1.393727	0.117038	1.170810	99
Es	-1.183219	-0.226217	1.132421	99
Es	-1.877272	0.126009	1.649239	99
Es	-0.065215	-0.962659	-0.017313	99
Es	-0.901935	-0.029187	0.617321	99
Es	1.404049	0.454184	-0.644997	99
Es	-0.350187	-1.361482	0.374113	99
Es	-0.889764	-1.141108	0.361176	99
Es	-1.254006	-0.302753	0.869628	99
Es	0.678402	-0.557105	-0.445429	99
Es	1.284595	-0.673569	-0.753894	99
Es	0.082007	1.059497	-0.172706	99
Es	0.813803	-0.115899	-0.531608	99
Es	-0.324685	-1.367091	0.233961	99
Es	1.231908	0.455990	-0.776766	99
Es	1.053340	0.093990	-0.664391	99
Es	-0.274802	1.701376	0.528628	99
Es	1.168561	-0.023480	-0.452417	99
