37
Properties=species:S:1:pos:R:3:Z:I:1 energy=-321.5931914220838 field_type=dipole dipole="0.000000 0.000000 0.000000" charge=0
O	-2.331178	-0.333974	1.271648	8
C	-1.158628	-0.162014	1.053068	6
C	-0.203348	1.019196	0.826838	6
C	0.729932	-0.047594	0.215728	6
N	-0.167268	-1.058264	0.793268	7
C	0.754882	-0.144954	-1.226472	6
C	0.764962	-0.221434	-2.424992	6
H	0.149852	1.478976	1.754398	1
H	-0.584498	1.784966	0.147038	1
H	1.722082	-0.080674	0.679088	1
H	-0.443448	-1.947244	0.399468	1
H	0.766652	-0.286984	-3.489081	1
Es	-0.304364	0.082407	0.755419	99
Es	-1.412502	-0.701173	1.072317	99
Es	-0.287199	0.603908	0.837986	99
Es	-0.834018	-0.341800	1.023766	99
Es	0.841087	-0.313126	-2.149989	99
Es	0.704390	-0.090876	-0.518602	99
Es	0.839862	-0.089057	-0.801026	99
Es	0.753609	-0.153160	-0.471318	99
Es	-0.572686	0.215974	0.972502	99
Es	0.804135	-0.480351	-2.492203	99
Es	-1.501856	-0.281999	1.083592	99
Es	0.584490	-0.260301	-0.392102	99
Es	-1.165269	-0.050214	1.031147	99
Es	1.067686	0.067705	-1.799807	99
Es	-0.323244	0.372519	0.932860	99
Es	0.810919	-0.201453	-2.075184	99
Es	-0.196371	0.705813	0.789343	99
Es	-0.139614	-1.053849	0.365997	99
Es	-1.968328	-0.278899	1.341088	99
Es	-0.998211	0.019676	1.048125	99
Es	-1.883095	-0.363652	1.174667	99
Es	-2.147937	-0.499497	1.364833	99
Es	-0.516278	-0.365210	0.803109	99
Es	0.726389	-0.099087	-1.019430	99
Es	0.309632	0.258821	0.229227	99
