43
Properties=species:S:1:pos:R:3:Z:I:1 energy=-323.94328300824975 field_type=dipole dipole="0.000000 0.000000 0.000000" charge=0
O	-1.422217	0.315726	1.293448	8
C	-0.017607	0.156056	1.135608	6
C	0.296283	-1.255364	0.666068	6
C	0.283262	-1.154274	-0.858492	6
N	0.769332	0.200836	-1.192542	7
C	-0.286608	1.206456	-1.256742	6
C	0.489843	1.014576	0.016878	6
H	-1.576997	1.251156	1.513188	1
H	0.469182	0.376636	2.090458	1
H	-0.415567	-2.001804	1.030748	1
H	1.304193	-1.536134	0.994648	1
H	0.946753	-1.907584	-1.296732	1
H	-0.722047	-1.334944	-1.258702	1
H	-0.064578	2.079456	-1.859382	1
H	-1.316147	0.872946	-1.314032	1
H	1.262923	1.716266	0.295578	1
Es	0.681911	-1.452723	-1.060334	99
Es	0.232032	-0.247415	-0.752289	99
Es	-1.166841	0.681290	1.316171	99
Es	-0.296529	-0.262183	0.926881	99
Es	-0.977851	0.339870	1.112286	99
Es	0.029501	-0.119951	0.304550	99
Es	0.677421	0.250990	-1.250348	99
Es	-0.118156	1.297739	-0.947227	99
Es	-0.231678	1.148174	-0.581578	99
Es	0.348802	-1.094856	-0.167292	99
Es	0.152658	0.729253	-0.231987	99
Es	-0.743271	0.299485	1.449795	99
Es	-0.440158	0.441016	0.718128	99
Es	0.428383	0.390274	-0.988717	99
Es	0.042173	1.433987	-1.459708	99
Es	0.403885	-1.026194	-0.442291	99
Es	0.079142	-1.625578	0.999785	99
Es	-0.112704	-0.156319	0.839516	99
Es	0.188779	0.782555	-0.620506	99
Es	0.116692	-0.362404	0.617501	99
Es	0.372657	-0.727557	0.107141	99
Es	0.285555	0.453818	-0.786375	99
Es	-1.049745	0.321335	1.605550	99
Es	-0.566785	0.382741	0.984710	99
Es	0.256377	0.697162	-0.966349	99
Es	0.361805	-1.018498	0.142598	99
Es	0.303775	-0.028156	-0.774307	99
