42
Properties=species:S:1:pos:R:3:Z:I:1 energy=-339.9993387506112 field_type=dipole dipole="0.000000 0.000000 0.000000" charge=0
O	-2.063294	0.131523	-0.589857	8
C	-0.659314	0.113433	-0.670767	6
C	-0.054104	1.237073	0.179173	6
C	1.347636	0.747823	0.557823	6
N	1.237365	-0.694167	0.500993	7
C	0.048666	-1.084197	-0.035587	6
N	-0.419574	-2.280587	0.018873	7
H	-2.396144	-0.553057	-1.192567	1
H	-0.343954	0.198213	-1.717047	1
H	-0.655644	1.397003	1.082623	1
H	-0.027594	2.191543	-0.356747	1
H	2.091086	1.088553	-0.170107	1
H	1.639306	1.094533	1.553523	1
H	1.599216	-1.267397	1.255163	1
H	-1.343644	-2.320297	-0.415497	1
Es	0.015236	-1.052186	-0.027234	99
Es	1.573943	0.885974	0.669879	99
Es	-0.989895	-2.288817	-0.250077	99
Es	-1.563623	-0.040578	-0.649735	99
Es	-1.943020	-0.017538	-0.720375	99
Es	1.250395	0.809301	0.608578	99
Es	-0.277155	-0.309466	-0.353965	99
Es	1.557340	-0.983276	0.651189	99
Es	1.136961	-0.692586	0.496743	99
Es	1.576627	0.778367	0.614776	99
Es	-0.896379	0.121611	-0.730435	99
Es	-0.200440	1.791850	0.073850	99
Es	1.238471	-0.686199	0.524688	99
Es	-2.036832	0.345546	-0.710244	99
Es	-0.364465	0.747428	-0.092914	99
Es	-2.073096	0.011747	-0.693811	99
Es	0.173229	1.149064	0.202763	99
Es	-0.230388	0.230566	-0.310621	99
Es	-0.265053	-1.740197	0.050004	99
Es	-0.248324	0.677340	-0.127278	99
Es	0.653054	-0.800372	0.215579	99
Es	-0.299702	-2.127834	-0.084976	99
Es	-0.348006	-2.081621	0.002588	99
Es	1.155844	0.383101	0.484510	99
Es	-2.061583	0.107672	-0.667924	99
Es	-0.225223	-2.415473	0.105492	99
Es	0.535558	0.993216	0.354161	99
