38
Properties=species:S:1:pos:R:3:Z:I:1 energy=-358.65311994794786 field_type=dipole dipole="0.000000 0.000000 0.000000" charge=0
O	-2.219187	-0.433975	0.007783	8
C	-0.899757	-0.312525	0.002903	6
C	-0.083307	0.788645	0.001783	6
O	-0.559127	2.042285	0.005943	8
C	1.257602	0.358285	-0.004217	6
C	1.224522	-1.022025	-0.006627	6
N	-0.092157	-1.417305	-0.002257	7
H	-2.550367	0.485785	0.010743	1
H	0.183153	2.670795	0.004233	1
H	2.151773	0.965925	-0.006557	1
H	2.018703	-1.757105	-0.011037	1
H	-0.431847	-2.368785	-0.002697	1
Es	0.436460	-1.295757	-0.005313	99
Es	-1.685150	-0.353374	0.032873	99
Es	1.236116	-1.033322	-0.007001	99
Es	1.746666	-1.507621	-0.008974	99
Es	-0.560867	2.364070	0.063129	99
Es	-2.387899	-0.700553	0.002390	99
Es	-2.177293	-0.387404	0.030965	99
Es	-0.907362	-0.313659	0.002851	99
Es	1.199797	-0.214299	0.007552	99
Es	0.604933	0.624490	0.008043	99
Es	-0.551054	2.040103	-0.027975	99
Es	-0.450435	2.085591	-0.003295	99
Es	-0.525201	0.276545	-0.124707	99
Es	-2.225146	-0.422518	0.044096	99
Es	-0.442351	-0.989947	0.101937	99
Es	1.287447	-0.336111	-0.023413	99
Es	-0.051665	-1.296563	-0.029452	99
Es	-0.304712	-1.975040	-0.015142	99
Es	-0.094001	0.784137	-0.002553	99
Es	-0.524792	2.066671	-0.017868	99
Es	-0.374826	1.539984	0.016476	99
Es	1.861623	0.783030	-0.012462	99
Es	-2.366975	-0.002463	-0.068236	99
Es	-0.059059	-1.380105	-0.050364	99
Es	1.256697	0.358333	-0.004275	99
Es	-0.287757	0.193290	0.116955	99
