41
Properties=species:S:1:pos:R:3:Z:I:1 energy=-359.86742072342224 field_type=dipole dipole="0.000000 0.000000 0.000000" charge=0
O	-2.045716	0.139619	-0.592055	8
C	-0.628496	0.107389	-0.668895	6
C	-0.011066	1.251769	0.128375	6
N	1.222114	0.711319	0.611515	7
C	1.215414	-0.664471	0.624345	6
O	2.090864	-1.363672	1.103305	8
C	-0.061596	-1.148981	-0.009735	6
H	-2.384976	-0.631691	-1.079585	1
H	-0.322486	0.164869	-1.720055	1
H	-0.627956	1.548309	0.983305	1
H	0.186694	2.132088	-0.489365	1
H	1.943094	1.226639	1.099445	1
H	0.150264	-1.923052	-0.752115	1
H	-0.726156	-1.550131	0.761515	1
Es	0.890236	-0.849450	0.452664	99
Es	-0.025870	-1.123245	0.004698	99
Es	-0.450856	-0.031924	-0.433046	99
Es	1.299006	0.431273	0.666027	99
Es	-0.157776	-1.655740	-0.203876	99
Es	-1.879142	-0.080606	-0.747008	99
Es	-0.712806	0.245396	-0.693278	99
Es	-0.027518	1.306672	0.012514	99
Es	2.248140	-1.153963	1.087262	99
Es	2.060034	-1.302037	1.106249	99
Es	-1.442945	0.087852	-0.826133	99
Es	-1.928969	0.086955	-0.585790	99
Es	-2.251813	0.161575	-0.703407	99
Es	1.901830	-1.258860	1.136236	99
Es	-0.239867	-1.159956	-0.013761	99
Es	1.172388	-1.025660	0.633721	99
Es	2.119219	-1.600645	0.990572	99
Es	0.159381	1.224009	0.053456	99
Es	-2.066566	0.165952	-0.584800	99
Es	1.229461	0.603362	0.580568	99
Es	-0.469744	-0.441287	-0.320777	99
Es	0.433242	1.273178	0.228181	99
Es	-0.379290	0.802740	-0.295674	99
Es	1.573179	0.710000	0.874605	99
Es	1.171613	0.706619	0.626196	99
Es	-0.261993	1.287708	0.248227	99
Es	1.366261	-0.878711	0.730330	99
