42
Properties=species:S:1:pos:R:3:Z:I:1 energy=-339.9379305296462 field_type=dipole dipole="0.000000 0.000000 0.000000" charge=0
O	0.150040	-2.705895	-0.509307	8
C	-0.624110	-1.560155	-0.182027	6
C	0.300570	-0.416815	0.053453	6
C	0.671170	0.511785	-1.056647	6
N	-0.234840	0.953505	0.017983	7
C	0.276280	1.832995	0.938223	6
N	-0.389160	2.772385	1.515873	7
H	-0.472060	-3.449105	-0.594907	1
H	-1.198360	-1.772875	0.725103	1
H	-1.321180	-1.364595	-1.003847	1
H	1.021140	-0.619565	0.835803	1
H	0.172680	0.426265	-2.012547	1
H	1.650870	0.969885	-1.060497	1
H	1.345380	1.692785	1.180293	1
H	-1.348420	2.729404	1.153043	1
Es	0.677566	0.533880	-0.877869	99
Es	-0.495476	2.678332	1.381991	99
Es	-0.154890	-2.330175	-0.421398	99
Es	-0.408674	2.962966	1.774168	99
Es	0.241106	-2.628622	-0.668500	99
Es	0.318550	0.596152	-0.372643	99
Es	0.167170	2.168716	0.917030	99
Es	0.045936	0.731138	-0.023987	99
Es	-0.063213	1.364865	0.471544	99
Es	0.333799	0.357465	-0.322116	99
Es	0.355386	1.438723	0.538701	99
Es	-0.408619	-1.979838	-0.356534	99
Es	0.132014	-0.564113	-0.176972	99
Es	0.470188	-0.267164	-0.417213	99
Es	-0.243421	-1.941967	-0.225949	99
Es	-0.269726	-1.057374	0.026318	99
Es	0.207973	1.221809	0.211880	99
Es	0.447562	0.131232	-0.964857	99
Es	-0.509278	2.736170	1.442985	99
Es	0.725200	0.226318	-0.747760	99
Es	-0.372873	-1.247603	-0.164064	99
Es	-0.039782	2.073226	1.232939	99
Es	-0.060336	2.267399	1.110752	99
Es	-0.037056	0.948738	0.069298	99
Es	-0.000635	-2.776014	-0.631605	99
Es	-0.725793	-1.805104	-0.045792	99
Es	-0.066806	-2.907041	-0.369296	99
