48
Properties=species:S:1:pos:R:3:Z:I:1 energy=-289.2882801268941 field_type=dipole dipole="0.000000 0.000000 0.000000" charge=0
C	-2.073209	0.024558	0.083445	6
C	-0.576259	0.037838	-0.222455	6
C	-0.320839	0.063348	-1.728976	6
C	0.208761	1.116897	0.577214	6
C	1.109071	0.023228	1.174784	6
N	2.407221	0.046198	0.502124	7
C	0.221541	-1.058812	0.538554	6
H	-2.264419	0.006098	1.161995	1
H	-2.552819	-0.857502	-0.354155	1
H	-2.562709	0.914747	-0.325665	1
H	0.746491	0.068828	-1.966265	1
H	-0.764209	0.956017	-2.183015	1
H	-0.760909	-0.815552	-2.212145	1
H	-0.389649	1.631667	1.338854	1
H	0.700811	1.889887	-0.023935	1
H	1.167301	0.006348	2.266365	1
H	2.370321	0.131938	-0.512335	1
H	2.980402	-0.774762	0.692895	1
H	0.723401	-1.803843	-0.088925	1
H	-0.370299	-1.607122	1.281644	1
Es	0.643073	0.045462	0.985015	99
Es	-2.090763	0.013520	0.144964	99
Es	1.175955	0.001430	0.872956	99
Es	-2.141400	-0.084674	0.530662	99
Es	-1.500862	0.217878	-0.446541	99
Es	0.022623	0.126460	0.420268	99
Es	1.495344	0.060705	0.534231	99
Es	1.855788	-0.028514	0.654583	99
Es	0.324065	-0.082818	0.303755	99
Es	2.461335	-0.185618	0.215478	99
Es	1.032420	0.033856	0.908327	99
Es	1.423288	0.002706	0.835426	99
Es	-0.382107	-0.071704	-0.246911	99
Es	-0.639679	0.201663	-1.227477	99
Es	1.696144	0.071818	0.464993	99
Es	-0.430054	0.156550	0.178310	99
Es	-0.015196	0.040766	-0.864326	99
Es	0.423349	0.021095	0.526253	99
Es	2.300690	0.088007	0.652517	99
Es	-0.755677	-0.016389	-0.914254	99
Es	-0.840821	-0.001333	-0.005784	99
Es	-0.270441	0.033083	-0.574695	99
Es	-1.782157	0.070479	-0.352562	99
Es	0.303569	0.085682	0.841573	99
Es	-0.169850	-0.127471	-0.418644	99
Es	-0.138130	0.017476	-0.733409	99
Es	-0.763219	0.077161	-1.402775	99
Es	0.477598	-0.010223	0.723257	99
