43
Properties=species:S:1:pos:R:3:Z:I:1 energy=-323.94345127552674 field_type=dipole dipole="0.000000 0.000000 0.000000" charge=0
O	-2.067715	-2.330269	-0.222017	8
C	-1.783495	-1.852569	0.871793	6
C	-0.866905	-0.676399	1.081383	6
C	-0.413395	-0.072829	-0.242407	6
N	0.463195	1.074331	0.033693	7
C	1.870914	0.830011	-0.270367	6
C	1.014405	1.665651	-1.183197	6
H	-2.193105	-2.293709	1.796263	1
H	-0.010505	-1.025219	1.668743	1
H	-1.413495	0.064121	1.676683	1
H	-1.293125	0.275691	-0.799687	1
H	0.065475	-0.842139	-0.862407	1
H	2.177715	-0.152499	-0.605967	1
H	2.585744	1.342351	0.361843	1
H	1.146205	2.740591	-1.164197	1
H	0.718085	1.252881	-2.140157	1
Es	0.969268	0.849846	-0.044168	99
Es	1.264250	1.480686	-0.811947	99
Es	0.083567	0.464749	-0.087010	99
Es	-0.656507	-0.074322	-0.285596	99
Es	1.878680	1.486041	-0.284360	99
Es	-1.256852	-1.086929	0.601364	99
Es	-0.545907	-0.658569	1.463276	99
Es	-1.126012	-1.211059	0.267276	99
Es	1.204760	0.980998	-0.467003	99
Es	1.734070	1.714297	-0.719311	99
Es	1.106432	1.005855	-0.127569	99
Es	-2.011543	-2.257198	0.070752	99
Es	0.679962	0.761530	-0.129373	99
Es	-0.745922	0.050004	-0.408021	99
Es	-1.991754	-2.178430	0.348303	99
Es	-1.260167	-1.281108	0.983110	99
Es	-1.889302	-2.207028	0.225773	99
Es	1.150482	1.068474	-0.487141	99
Es	-2.046561	-2.189155	0.013514	99
Es	-2.228976	-2.116343	-0.123077	99
Es	1.045020	0.927980	-0.106367	99
Es	-0.809769	-0.600691	0.906051	99
Es	1.147411	1.482051	-1.025000	99
Es	-2.003069	-2.175228	1.121491	99
Es	-0.136659	-0.215934	-0.285469	99
Es	0.855840	1.381221	-1.650786	99
Es	-0.862612	-0.692273	0.866084	99
