52
Properties=species:S:1:pos:R:3:Z:I:1 energy=-274.49444095360866 field_type=dipole dipole="0.000000 0.000000 0.000000" charge=0
C	-2.690484	-1.526170	-0.038401	6
C	-1.168864	-1.503870	-0.051421	6
C	-0.633154	-0.069730	-0.077701	6
C	0.904836	0.024280	0.018519	6
C	1.592866	-0.721390	-1.131171	6
C	1.385476	1.491340	0.020919	6
C	0.941956	2.284270	1.241559	6
H	-3.054164	-2.558800	-0.019821	1
H	-3.096464	-1.039310	-0.930531	1
H	-3.084354	-1.011900	0.844099	1
H	-0.824534	-2.058720	-0.930051	1
H	-0.793394	-2.025660	0.836429	1
H	-1.081834	0.473560	0.761809	1
H	-0.975394	0.428390	-0.993971	1
H	1.224696	-0.443430	0.958649	1
H	1.243286	-0.358900	-2.103801	1
H	1.405676	-1.797850	-1.077881	1
H	2.678986	-0.585310	-1.090091	1
H	1.038596	2.001490	-0.886011	1
H	2.482346	1.509610	-0.008561	1
H	-0.141764	2.433030	1.257169	1
H	1.407666	3.275040	1.233029	1
H	1.238026	1.780039	2.167229	1
Es	-2.491332	-1.452065	-0.140113	99
Es	-1.454377	-1.478059	-0.020041	99
Es	1.378993	-0.779515	-1.398485	99
Es	-0.835464	0.019167	0.058360	99
Es	0.862196	2.200720	1.311287	99
Es	1.334484	1.867900	0.586893	99
Es	0.471883	-0.081155	-0.272670	99
Es	-0.966533	-1.774396	-0.357309	99
Es	1.152615	1.971861	0.838205	99
Es	1.056326	0.501414	0.141735	99
Es	0.424362	2.327695	1.240887	99
Es	-0.686897	-0.529305	-0.155097	99
Es	2.329783	-0.611910	-1.102040	99
Es	1.137182	2.786160	1.312258	99
Es	-1.002270	-1.064296	-0.042104	99
Es	1.338115	1.330725	0.071691	99
Es	1.182458	-0.528477	-0.630763	99
Es	1.414125	1.765821	0.481209	99
Es	-3.040928	-1.201159	0.395194	99
Es	1.429887	-0.561325	-1.062151	99
Es	-1.119432	-0.883342	0.229558	99
Es	1.524166	1.422469	-0.004265	99
Es	-2.743189	-1.464861	-0.225447	99
Es	0.977491	0.727405	-0.055021	99
Es	0.313924	0.041035	-0.013114	99
Es	0.080379	-0.200744	-0.118310	99
Es	1.256082	-1.014625	-1.002707	99
Es	-1.621045	-1.334885	-0.071557	99
Es	-2.877952	-2.050313	-0.044192	99
