38
Properties=species:S:1:pos:R:3:Z:I:1 energy=-358.6520290437166 field_type=dipole dipole="0.000000 0.000000 0.000000" charge=0
O	-1.954196	-1.672297	0.827932	8
C	-0.851476	-1.582247	0.307152	6
N	-0.094367	-0.452317	0.274002	7
C	-0.517246	0.925352	0.540342	6
C	0.659274	1.366473	-0.354068	6
O	1.109023	2.430702	-0.723878	8
C	1.030904	-0.111097	-0.594398	6
H	-0.365057	-2.433078	-0.197838	1
H	-0.422147	1.210412	1.589422	1
H	-1.503646	1.171872	0.143292	1
H	0.910963	-0.445448	-1.626488	1
H	1.997974	-0.408327	-0.185468	1
Es	-0.938289	1.003402	0.630221	99
Es	1.138070	2.462200	-0.828616	99
Es	-1.751230	-1.641480	0.708836	99
Es	1.092700	0.089173	-0.612490	99
Es	0.660197	1.362620	-0.354469	99
Es	1.022573	2.568571	-0.623352	99
Es	-1.731435	-1.642360	0.724392	99
Es	0.780669	2.122608	-0.671410	99
Es	-0.332204	-0.741970	0.060834	99
Es	-0.137812	-0.680528	0.395366	99
Es	1.316510	2.156359	-0.632012	99
Es	1.138813	-0.156560	-0.807106	99
Es	1.051358	2.240368	-0.634656	99
Es	1.167413	0.175712	-0.487628	99
Es	-0.018746	1.174879	0.111305	99
Es	-1.883082	-1.987146	0.725119	99
Es	-1.913077	-1.386980	0.805617	99
Es	1.171187	-0.213445	-0.825657	99
Es	-1.788759	-1.633786	0.817350	99
Es	0.165611	-0.425786	0.164556	99
Es	-0.987785	-1.616208	0.390680	99
Es	-0.419104	0.953585	0.730683	99
Es	-0.671126	1.018203	0.612793	99
Es	0.123217	-0.441204	0.173909	99
Es	-0.516108	-2.112690	-0.009973	99
Es	-0.410911	0.262105	0.469363	99
