41
Properties=species:S:1:pos:R:3:Z:I:1 energy=-359.8204750043645 field_type=dipole dipole="0.000000 0.000000 0.000000" charge=0
O	-1.867584	-1.042552	0.453704	8
C	-0.856004	-1.501362	-0.337376	6
O	-0.938954	-2.600872	-0.878356	8
C	0.341726	-0.526862	-0.465406	6
C	0.021026	0.946238	-0.804476	6
N	-0.043824	1.197178	0.661564	7
C	0.910756	0.068978	0.841894	6
H	-1.645074	-0.150642	0.808704	1
H	1.116776	-0.956492	-1.113156	1
H	-0.915124	1.129958	-1.338816	1
H	0.832376	1.481218	-1.312626	1
H	0.323376	2.108018	0.948474	1
H	1.965385	0.364098	0.783934	1
H	0.755146	-0.516902	1.751944	1
Es	-1.173676	-1.656840	-0.195176	99
Es	-0.987144	-1.379021	-0.095384	99
Es	0.018477	-0.219772	-0.284677	99
Es	0.552594	0.686716	0.106093	99
Es	-1.954795	-1.288321	0.342121	99
Es	0.064004	0.858702	0.338636	99
Es	0.029058	1.461539	0.725793	99
Es	-1.197294	-1.827533	-0.172425	99
Es	-0.276779	-0.105057	0.277844	99
Es	0.445455	0.364104	0.163859	99
Es	0.374990	0.825294	0.269905	99
Es	0.241472	1.136624	0.395690	99
Es	-1.030245	-2.232476	-0.565925	99
Es	0.294779	0.609529	0.266843	99
Es	-0.672285	-0.807916	-0.003605	99
Es	-0.967901	-2.376841	-0.735573	99
Es	0.421480	0.191403	0.071194	99
Es	0.283363	0.449418	0.055326	99
Es	-1.184938	-2.147985	-0.767517	99
Es	-1.420557	-0.770305	0.201352	99
Es	-0.697702	-1.438523	-0.390751	99
Es	-0.776986	-2.360511	-0.806120	99
Es	0.268449	-0.062609	-0.265148	99
Es	-0.666171	-0.262665	0.186140	99
Es	0.090021	-0.790604	-0.507538	99
Es	0.375359	0.443292	-0.262872	99
Es	0.271247	0.463897	0.144648	99
