35
Properties=species:S:1:pos:R:3:Z:I:1 energy=-357.37535544445603 field_type=dipole dipole="0.000000 0.000000 0.000000" charge=0
O	-2.640136	0.588987	1.193904	8
C	-2.195556	1.294557	0.301334	6
O	-1.007236	1.186067	-0.369326	8
N	-0.280766	0.079987	0.110314	7
C	0.828704	0.001507	-0.530866	6
C	1.634314	-1.105413	-0.102716	6
C	2.311354	-2.031543	0.252844	6
H	-2.729186	2.167377	-0.106026	1
H	1.177604	0.675717	-1.327816	1
H	2.900904	-2.857243	0.578354	1
Es	-2.200297	1.289552	0.309153	99
Es	-2.517270	0.794542	0.981011	99
Es	2.311707	-2.032020	0.253030	99
Es	-1.011739	1.190138	-0.354914	99
Es	-0.699306	0.710062	-0.168224	99
Es	1.642294	-1.153480	-0.068794	99
Es	-2.484246	0.889821	0.826352	99
Es	0.223250	0.063270	-0.192356	99
Es	2.234142	-1.466972	-0.160199	99
Es	1.706940	-1.613740	0.268287	99
Es	0.214591	0.025297	-0.163757	99
Es	-2.403630	0.350775	1.255506	99
Es	-1.476132	1.212768	-0.097620	99
Es	1.249941	-0.564393	-0.318468	99
Es	-2.878348	0.712103	1.237303	99
Es	-1.068605	1.156827	-0.313401	99
Es	-2.645386	0.601378	1.162156	99
Es	1.051088	0.444791	-1.043903	99
Es	-0.287548	0.071592	0.120465	99
Es	0.827118	0.000985	-0.530761	99
Es	-0.903363	1.363659	-0.596057	99
Es	-2.548759	1.886955	0.020769	99
Es	-0.415132	-0.108116	0.351533	99
Es	2.701943	-2.565487	0.457486	99
Es	1.939819	-1.524997	0.059753	99
