38
Properties=species:S:1:pos:R:3:Z:I:1 energy=-358.58724139639116 field_type=dipole dipole="0.000000 0.000000 0.000000" charge=0
O	-2.936918	0.121550	0.179892	8
N	-1.639558	0.645200	0.129242	7
C	-0.798798	-0.333080	0.014642	6
C	0.665752	-0.132880	-0.054678	6
C	1.459452	-1.214690	-0.073298	6
C	1.262982	1.224910	-0.094238	6
O	2.470062	1.429440	-0.171418	8
H	-3.484398	0.919540	0.307852	1
H	-1.149888	-1.381060	-0.030578	1
H	1.068232	-2.225130	-0.038148	1
H	2.540382	-1.111850	-0.115488	1
H	0.542702	2.058050	-0.053778	1
Es	-2.352171	0.379292	0.153124	99
Es	-1.024981	-1.015467	-0.012421	99
Es	-1.247860	0.225413	0.074053	99
Es	2.476530	1.596686	-0.169105	99
Es	-1.622906	0.783870	0.130373	99
Es	-2.906289	0.160271	0.173175	99
Es	2.702008	1.179315	-0.193333	99
Es	0.983412	-0.559821	-0.122737	99
Es	-0.801044	-0.339899	0.013981	99
Es	0.666974	-0.134637	-0.054933	99
Es	1.262896	1.224670	-0.094221	99
Es	2.414668	1.559559	-0.161163	99
Es	-3.248613	0.549942	0.232181	99
Es	1.060037	-0.676937	0.003490	99
Es	-0.073191	-0.203538	-0.018683	99
Es	1.193944	-1.863905	-0.057026	99
Es	1.458827	-1.216436	-0.073249	99
Es	2.007175	1.315930	-0.142527	99
Es	0.765037	1.782547	-0.065728	99
Es	2.090887	1.359826	-0.147691	99
Es	0.947236	0.526481	-0.074171	99
Es	-2.944530	0.069513	0.197918	99
Es	-1.612867	0.834745	0.141422	99
Es	2.177087	-1.179591	-0.106271	99
Es	-2.985838	-0.114343	0.168105	99
Es	-1.267938	0.186383	0.082028	99
