42
Properties=species:S:1:pos:R:3:Z:I:1 energy=-628.2439598927963 field_type=dipole dipole="0.000000 0.000000 0.000000" charge=0
C	-0.065269	-0.993970	1.106488	6
C	-0.443409	-1.376100	-0.355482	6
C	-0.134529	0.019730	-0.697912	6
C	-0.048819	1.013140	-1.606922	6
S	0.524071	2.441010	-0.773692	16
C	0.614761	1.624140	0.770918	6
C	0.214281	0.350530	0.580598	6
H	0.802691	-1.473730	1.571748	1
H	-0.853009	-1.006910	1.868378	1
H	-1.476409	-1.665300	-0.576692	1
H	0.185591	-2.101950	-0.882952	1
H	-0.263589	1.028560	-2.665632	1
H	0.943641	2.140850	1.661158	1
Es	-0.074651	0.102908	-0.489320	99
Es	-0.638147	-1.774159	-0.637741	99
Es	0.476515	2.284411	-0.923920	99
Es	-0.443080	-1.469767	-0.433804	99
Es	0.137586	-0.051457	0.819823	99
Es	-0.110608	-1.024335	1.058309	99
Es	-0.156904	0.600318	-1.171552	99
Es	0.466801	2.305920	-0.701851	99
Es	-0.049437	0.089153	-0.333741	99
Es	0.198024	0.149399	0.722174	99
Es	0.074141	0.767494	-1.385986	99
Es	-0.312073	-0.643418	-0.681050	99
Es	-0.050782	-1.103012	1.366513	99
Es	-0.054839	-1.232531	1.558952	99
Es	0.530897	2.314238	-0.986891	99
Es	0.774854	1.871720	1.167638	99
Es	0.642166	2.005951	0.283897	99
Es	0.522797	2.575165	-0.753876	99
Es	0.354921	0.944935	0.539230	99
Es	-0.097301	0.743260	-1.233762	99
Es	0.308249	2.023905	-0.960492	99
Es	0.532642	2.427933	-0.777691	99
Es	0.655039	2.505266	-0.834043	99
Es	-0.197689	1.029493	-2.307245	99
Es	0.651330	1.779203	0.712880	99
Es	-0.204885	-1.245221	0.526015	99
Es	-0.500167	-1.511353	-0.469362	99
Es	0.426420	2.628353	-0.761120	99
Es	0.445140	0.965259	0.729546	99
