45
Properties=species:S:1:pos:R:3:Z:I:1 energy=-629.4790676527838 field_type=dipole dipole="0.000000 0.000000 0.000000" charge=0
C	-2.694809	0.371529	-0.013369	6
C	-1.207299	0.294259	-0.005969	6
C	-0.293259	1.326649	-0.001039	6
C	1.051180	0.855349	0.005631	6
C	1.122481	-0.522381	0.005491	6
C	2.344541	-1.375631	0.011371	6
S	-0.433569	-1.231281	-0.003259	16
H	-3.032419	1.413319	-0.004639	1
H	-3.114429	-0.123281	0.868771	1
H	-3.104089	-0.105331	-0.910109	1
H	-0.572629	2.373379	-0.002019	1
H	1.923241	1.498219	0.010401	1
H	2.109181	-2.444681	0.021451	1
H	2.952231	-1.157221	0.895661	1
H	2.949650	-1.172891	-0.878379	1
Es	-0.403438	-1.193989	-0.025497	99
Es	-0.673743	0.807497	0.159783	99
Es	-0.401998	-1.168326	0.008343	99
Es	1.870988	-1.014430	-0.020852	99
Es	-1.000699	0.464352	-0.124347	99
Es	2.227493	-1.957857	-0.017338	99
Es	2.494468	-1.245814	0.055075	99
Es	-0.848112	0.678324	-0.108005	99
Es	1.628169	1.286506	-0.013101	99
Es	-0.344409	1.706941	-0.046472	99
Es	2.826765	-1.146381	-0.003020	99
Es	-0.451510	-1.294652	-0.067417	99
Es	0.904082	0.326713	-0.014519	99
Es	-0.405878	-1.173303	-0.038504	99
Es	-0.566861	-1.638157	0.010787	99
Es	-0.625975	-0.850477	-0.118319	99
Es	-0.454473	1.552515	0.064906	99
Es	1.092629	0.192539	0.047467	99
Es	0.346374	1.103871	0.033201	99
Es	-2.677710	0.355535	-0.033681	99
Es	-2.881765	0.140270	-0.013061	99
Es	1.054638	0.711349	-0.031582	99
Es	-0.401713	-1.285373	0.096152	99
Es	-3.013381	-0.047093	0.015532	99
Es	0.979287	-0.471507	0.025126	99
Es	2.296813	-1.508570	0.039125	99
Es	-1.950147	0.318321	-0.005108	99
Es	-2.914760	1.086563	-0.010021	99
Es	0.459310	-0.847943	-0.005022	99
Es	-0.630654	-0.791897	0.121138	99
