44
Properties=species:S:1:pos:R:3:Z:I:1 energy=-645.4748815646299 field_type=dipole dipole="0.000000 0.000000 0.000000" charge=0
C	-2.496918	0.240575	-0.009980	6
C	-1.009418	0.169425	-0.007230	6
C	-0.098248	1.204235	0.003950	6
C	1.248102	0.733695	-0.007460	6
C	1.324352	-0.639675	-0.031310	6
N	2.441312	-1.389775	-0.061400	7
S	-0.228008	-1.352315	-0.023670	16
H	-2.838638	1.281055	-0.001250	1
H	-2.912138	-0.255575	0.873310	1
H	-2.906908	-0.238065	-0.905540	1
H	-0.378608	2.250375	0.014630	1
H	2.116692	1.379425	-0.007210	1
H	2.379112	-2.394245	0.068360	1
H	3.359312	-0.989135	0.094800	1
Es	-0.288895	1.915870	0.002012	99
Es	2.796254	-1.190741	-0.012129	99
Es	-2.671371	0.925978	-0.003848	99
Es	0.609565	0.953699	0.040888	99
Es	-0.618012	-0.599991	-0.054357	99
Es	-0.954607	0.227095	-0.037990	99
Es	-2.660165	0.040299	-0.036003	99
Es	1.317083	-0.464790	-0.089876	99
Es	2.392539	-1.989838	-0.018485	99
Es	-0.251744	-1.290967	0.010694	99
Es	-2.521714	0.199775	0.024991	99
Es	-0.541828	0.650666	-0.103229	99
Es	-0.593058	0.683288	0.126613	99
Es	1.213963	0.730850	-0.025443	99
Es	1.199616	0.105572	-0.110993	99
Es	2.558216	-1.327769	-0.089040	99
Es	-2.828986	-0.183093	-0.027834	99
Es	-0.210002	-1.416054	-0.033202	99
Es	-0.183819	1.091478	0.004791	99
Es	1.941019	-1.048502	-0.029091	99
Es	1.301578	0.003521	0.126334	99
Es	-1.723309	0.184628	-0.008405	99
Es	-0.371774	-1.748875	-0.056243	99
Es	-0.279034	-1.410721	0.059030	99
Es	-0.130610	-1.293915	0.037202	99
Es	-0.226693	-1.239563	-0.138652	99
Es	-0.195634	-1.304380	-0.005667	99
Es	1.847435	1.170383	-0.016555	99
Es	0.594043	-1.028552	-0.016328	99
Es	2.383870	-1.347118	-0.054546	99
