43
Properties=species:S:1:pos:R:3:Z:I:1 energy=-665.308372085807 field_type=dipole dipole="0.000000 0.000000 0.000000" charge=0
C	-1.797719	-0.183191	-0.003544	6
C	-0.307930	-0.109491	-0.000164	6
C	0.431290	1.056799	-0.001324	6
O	-0.021950	2.305559	-0.005074	8
S	2.111681	0.765249	0.002946	16
C	1.883111	-0.925961	0.005986	6
C	0.548560	-1.261521	0.003876	6
H	-2.255899	0.810359	0.007756	1
H	-2.151780	-0.728231	0.877876	1
H	-2.148600	-0.707371	-0.898174	1
H	0.779530	2.856799	-0.004524	1
H	2.734060	-1.593691	0.009126	1
H	0.195640	-2.285311	0.005236	1
Es	0.406888	1.155878	-0.007148	99
Es	-1.819578	-0.219648	0.010945	99
Es	2.357962	0.973902	0.054551	99
Es	0.177204	-0.686609	-0.031563	99
Es	-2.069675	-0.614228	-0.026671	99
Es	2.443941	-1.352917	0.002062	99
Es	2.032812	0.786162	0.057270	99
Es	2.106856	0.745660	-0.026471	99
Es	-2.108914	0.478960	0.003917	99
Es	0.206184	1.708686	-0.045200	99
Es	1.594281	-0.903301	-0.014326	99
Es	2.074074	-0.018110	0.004520	99
Es	2.241220	0.840266	0.018701	99
Es	0.017062	2.269071	-0.041795	99
Es	1.558307	-0.891421	-0.012697	99
Es	2.136307	0.732997	0.021419	99
Es	2.152174	0.762339	-0.071757	99
Es	1.952883	0.699428	0.009578	99
Es	-0.227412	0.004961	0.045920	99
Es	0.860609	-1.187874	0.036665	99
Es	-1.040932	-0.125876	0.001445	99
Es	0.849654	-1.226678	0.039243	99
Es	0.024990	0.119672	0.220044	99
Es	-0.115880	2.312584	0.101936	99
Es	1.227981	0.948716	-0.030426	99
Es	0.040796	0.351184	-0.259359	99
Es	0.167457	2.648738	-0.042582	99
Es	0.032044	2.313251	0.012307	99
Es	-1.962063	-0.441258	-0.009196	99
Es	0.288924	-1.920990	-0.004970	99
