44
Properties=species:S:1:pos:R:3:Z:I:1 energy=-645.4805250291728 field_type=dipole dipole="0.000000 0.000000 0.000000" charge=0
C	-1.548138	0.684481	-0.003386	6
C	-0.059088	0.687801	0.003444	6
C	0.730402	1.824451	0.012754	6
S	2.375202	1.370421	0.017724	16
N	2.100182	-0.258829	0.008094	7
C	0.785302	-0.483639	0.001244	6
C	0.333632	-1.903538	-0.008316	6
H	-1.949868	1.703001	0.002854	1
H	-1.933038	0.164931	0.879894	1
H	-1.924748	0.178881	-0.898246	1
H	0.431732	2.862861	0.016694	1
H	-0.757698	-1.985368	-0.003316	1
H	0.712542	-2.430408	0.873704	1
H	0.703582	-2.415049	-0.903136	1
Es	-1.722241	0.438722	-0.004140	99
Es	0.377157	-1.958427	0.086608	99
Es	0.467235	-2.091245	-0.071876	99
Es	-0.756336	0.686110	0.013415	99
Es	0.085382	0.810094	0.053152	99
Es	0.566354	2.471857	0.016276	99
Es	2.221834	1.051542	-0.084743	99
Es	2.213366	0.857132	0.118945	99
Es	0.790317	-0.179240	-0.046506	99
Es	0.646156	-2.311983	-0.024821	99
Es	-1.590088	0.628582	0.014509	99
Es	-1.768952	0.311417	-0.021391	99
Es	2.353852	1.432423	-0.030766	99
Es	2.166166	-0.337347	-0.086571	99
Es	-0.394941	-1.953930	-0.041548	99
Es	-1.821986	1.361837	-0.011226	99
Es	2.279984	1.294340	0.021606	99
Es	1.465392	1.664436	-0.044968	99
Es	2.317045	1.382227	0.044574	99
Es	0.768850	1.847182	0.010012	99
Es	1.380248	-0.407672	0.148587	99
Es	2.205850	-0.337378	-0.009512	99
Es	2.441227	1.270307	0.092378	99
Es	0.219997	1.156516	-0.019929	99
Es	0.286024	0.901359	0.003613	99
Es	0.540097	-1.193860	0.005419	99
Es	2.639012	1.501330	0.053765	99
Es	2.498806	1.446055	-0.002423	99
Es	0.533471	-0.121630	0.001561	99
Es	1.630384	-0.163537	-0.011290	99
