49
Properties=species:S:1:pos:R:3:Z:I:1 energy=-663.8546082551828 field_type=dipole dipole="0.000000 0.000000 0.000000" charge=0
C	-0.752851	-1.494376	1.425639	6
C	-1.197461	-0.585676	0.287839	6
C	-0.574181	0.806284	0.371049	6
N	0.868199	0.778984	0.202969	7
C	1.589269	0.774144	-0.937381	6
N	0.932639	0.835184	-2.108561	7
S	3.246839	0.722184	-0.894391	16
H	-1.262111	-2.460726	1.357259	1
H	-0.993871	-1.052316	2.397519	1
H	0.325009	-1.680086	1.389439	1
H	-2.288721	-0.486496	0.324159	1
H	-0.947751	-1.059776	-0.668361	1
H	-0.777891	1.260844	1.346419	1
H	-1.010021	1.455834	-0.394911	1
H	1.429059	0.716024	1.045249	1
H	-0.060941	0.684774	-2.181641	1
H	1.474789	0.785194	-2.962291	1
Es	0.952472	0.699699	0.004067	99
Es	-0.506244	-0.773057	1.250218	99
Es	2.873917	0.685094	-0.967130	99
Es	-1.026732	-1.361869	1.473034	99
Es	3.119087	0.774450	-0.941555	99
Es	0.943103	1.082860	-1.933985	99
Es	1.519358	0.854270	-0.700341	99
Es	-0.680708	0.191457	-0.064224	99
Es	-0.051457	0.285495	0.507036	99
Es	3.257991	0.892105	-1.075269	99
Es	3.016318	0.746365	-0.953808	99
Es	3.091213	0.800858	-0.811047	99
Es	3.243052	0.631236	-0.864205	99
Es	1.087839	0.814894	-1.286118	99
Es	1.449855	0.749657	-1.658991	99
Es	3.145309	0.613840	-0.457629	99
Es	2.881937	0.740314	-1.090838	99
Es	1.889025	0.825916	-0.893218	99
Es	0.187886	0.574804	0.271887	99
Es	1.139647	0.864924	-2.082623	99
Es	-0.893718	-1.396045	1.621064	99
Es	2.508736	0.727974	-0.953273	99
Es	-0.331078	-0.215434	0.852506	99
Es	-1.287697	-0.403138	0.476637	99
Es	-1.502628	-0.533511	0.357751	99
Es	0.993538	0.790584	-0.153795	99
Es	0.207843	0.747476	-1.392973	99
Es	-0.788502	-1.333610	1.608184	99
Es	-0.787964	0.175698	0.110339	99
Es	-0.949762	-0.931158	0.836116	99
Es	0.181083	0.822184	-0.813579	99
Es	-0.812061	-0.084179	0.145555	99
