50
Properties=species:S:1:pos:R:3:Z:I:1 energy=-704.6430529543828 field_type=dipole dipole="0.000000 0.000000 0.000000" charge=0
C	-1.433361	-0.717549	0.601294	6
C	0.090169	-0.668289	0.612844	6
C	0.674609	-1.475590	-0.540696	6
S	0.709759	1.023961	0.633084	16
C	0.156319	1.760221	-0.889196	6
O	0.048709	1.728170	1.716574	8
O	2.158909	0.969071	0.582714	8
H	-1.855561	-0.148709	1.435754	1
H	-1.785471	-1.750689	0.691474	1
H	-1.844571	-0.305819	-0.325456	1
H	0.444299	-1.103839	1.555484	1
H	0.341769	-1.094329	-1.510986	1
H	0.365679	-2.524129	-0.471646	1
H	1.768909	-1.450229	-0.529336	1
H	0.578629	1.212281	-1.732036	1
H	0.514779	2.792201	-0.909276	1
H	-0.933581	1.753271	-0.920596	1
Es	0.571650	1.586633	0.811594	99
Es	-1.204615	-0.352689	0.761366	99
Es	0.655270	1.228499	0.591323	99
Es	0.617627	1.262263	0.741343	99
Es	0.329459	0.775757	0.553692	99
Es	-0.233403	-0.197081	0.515473	99
Es	1.247795	1.058682	0.464567	99
Es	0.820635	1.274675	0.344666	99
Es	0.639726	1.099095	0.686345	99
Es	0.168046	0.534673	0.564299	99
Es	-1.110548	-0.456415	0.606384	99
Es	0.616026	0.780561	0.565950	99
Es	0.605555	0.908948	0.318160	99
Es	0.658502	-1.070068	-0.475421	99
Es	-0.040517	-1.584771	-0.153361	99
Es	0.312481	1.404555	0.897047	99
Es	-0.131825	-0.751349	0.185701	99
Es	1.184953	1.143200	0.451709	99
Es	0.646395	0.716264	0.229855	99
Es	0.303495	-0.059643	0.203600	99
Es	1.073500	1.096350	0.383447	99
Es	0.772459	1.193894	0.218706	99
Es	0.165795	-0.895429	-0.018239	99
Es	1.408410	1.310231	0.306936	99
Es	-1.023560	-0.686792	0.374236	99
Es	0.505477	1.308568	0.586837	99
Es	0.412003	1.302020	0.743161	99
Es	-1.041428	-0.296239	0.623226	99
Es	0.674484	-0.893401	-0.105256	99
Es	-0.003191	1.592695	0.839386	99
Es	0.523767	-1.159863	-0.329483	99
Es	0.809949	1.445350	0.273760	99
Es	1.138318	0.024471	-0.124643	99
