45
Properties=species:S:1:pos:R:3:Z:I:1 energy=-739.2940932049956 field_type=dipole dipole="0.000000 0.000000 0.000000" charge=0
C	-1.667399	-0.248639	-0.253973	6
C	-0.232689	-0.328489	0.149167	6
C	0.378521	-1.465409	0.525637	6
S	0.686221	1.153971	0.130027	16
O	1.717711	0.816171	-1.063523	8
O	-0.130739	2.258992	-0.319823	8
O	1.507571	1.261861	1.316807	8
H	-2.213929	0.432851	0.405877	1
H	-2.159599	-1.225579	-0.201593	1
H	-1.757779	0.113311	-1.283113	1
H	-0.155719	-2.409778	0.553597	1
H	1.424891	-1.483459	0.818607	1
H	2.602941	1.124192	-0.777693	1
Es	-0.016622	0.171689	0.093369	99
Es	0.770591	-1.562342	0.637397	99
Es	0.291859	1.881152	-0.185541	99
Es	0.350966	-0.362771	0.226783	99
Es	0.165687	0.022942	0.211935	99
Es	0.433760	1.605360	-0.086667	99
Es	0.989792	0.772739	0.140162	99
Es	0.645419	1.553398	-0.052587	99
Es	1.360757	1.124325	0.177049	99
Es	0.846263	0.323320	0.201489	99
Es	0.654871	0.980661	0.138455	99
Es	-1.627249	-0.015090	-0.156370	99
Es	1.239718	1.042603	0.137007	99
Es	0.694731	0.576209	0.137938	99
Es	0.393159	1.520005	-0.218269	99
Es	0.061298	-1.744062	0.443839	99
Es	0.991932	1.328546	0.066465	99
Es	1.152028	1.303089	-0.043587	99
Es	0.209399	1.826994	-0.259476	99
Es	0.687677	1.387734	-0.016134	99
Es	-1.266250	-0.291802	-0.121414	99
Es	1.308971	1.248696	0.084460	99
Es	1.084898	1.236425	0.156457	99
Es	-1.480277	-0.005009	-0.438802	99
Es	0.967941	0.995951	0.094904	99
Es	1.827455	1.010190	0.276038	99
Es	-1.755199	-0.277017	-0.242873	99
Es	-0.899312	-0.473951	-0.057047	99
Es	0.546922	-0.798199	0.447556	99
Es	-0.149171	0.064627	0.118183	99
Es	1.274010	1.261921	0.169802	99
Es	0.419146	1.450532	-0.208860	99
