45
Properties=species:S:1:pos:R:3:Z:I:1 energy=-739.2965939143933 field_type=dipole dipole="0.000000 0.000000 0.000000" charge=0
C	-0.083566	-2.076990	0.724428	6
C	-0.329396	-0.783970	-0.015992	6
O	-1.226936	-0.748930	-0.866772	8
S	0.576764	0.767870	0.245008	16
C	-0.166016	1.906600	-0.891392	6
O	0.265544	1.177560	1.601718	8
O	1.939694	0.498690	-0.173212	8
H	0.811394	-1.976150	1.343588	1
H	0.072944	-2.884760	0.005618	1
H	-0.940506	-2.295840	1.365588	1
H	-0.034806	1.531920	-1.908171	1
H	0.339204	2.868920	-0.783491	1
H	-1.224316	2.015080	-0.646922	1
Es	-0.110854	-0.036192	-0.058010	99
Es	0.630484	0.665545	0.300001	99
Es	0.611278	0.615058	0.332711	99
Es	0.669401	0.781004	0.547602	99
Es	0.106223	1.242557	-0.297660	99
Es	0.409670	1.189418	-0.253439	99
Es	-0.574242	-1.203458	0.120383	99
Es	-0.012721	-0.850054	0.427690	99
Es	-1.176870	-0.749306	-0.791726	99
Es	-0.635772	-0.450478	-0.562507	99
Es	1.091347	0.771024	0.673757	99
Es	-0.119121	1.899269	-0.970741	99
Es	0.946231	0.794984	0.609540	99
Es	0.391657	1.275128	-0.147155	99
Es	0.816823	0.819442	0.513389	99
Es	-0.959147	-0.822776	-0.610807	99
Es	0.346217	1.188232	-0.256807	99
Es	-0.060113	-2.026705	0.271814	99
Es	-0.137056	1.945266	-0.766791	99
Es	0.860036	0.940658	0.353692	99
Es	0.032458	-2.026864	0.894908	99
Es	-0.041454	-0.306995	-0.007193	99
Es	0.249979	0.243150	0.266873	99
Es	0.964855	0.832678	0.735536	99
Es	0.881502	0.838684	0.504276	99
Es	0.080712	-1.921142	0.757005	99
Es	-0.525321	-1.409303	0.236748	99
Es	0.594433	0.856652	0.081375	99
Es	0.302853	1.092281	-0.026251	99
Es	-0.632926	-0.618955	-0.175818	99
Es	0.677121	0.613454	0.345734	99
Es	0.784841	0.503596	0.422780	99
