48
Properties=species:S:1:pos:R:3:Z:I:1 energy=-740.4758853297742 field_type=dipole dipole="0.000000 0.000000 0.000000" charge=0
C	-1.975257	-1.016404	-0.123665	6
C	-0.471007	-0.840284	-0.173425	6
S	-0.008347	0.882006	-0.106225	16
O	-0.473597	1.525596	-1.319475	8
O	-0.370657	1.400396	1.201945	8
C	1.788122	0.811816	-0.160865	6
O	2.412792	0.236936	0.994865	8
H	-2.235917	-2.078014	-0.171825	1
H	-2.460337	-0.506944	-0.962395	1
H	-2.389807	-0.604304	0.801905	1
H	-0.068617	-1.251854	-1.103685	1
H	0.000313	-1.342404	0.676325	1
H	2.147413	1.839216	-0.270195	1
H	2.078093	0.239296	-1.045685	1
H	2.026813	0.704946	1.762395	1
Es	1.508008	1.222347	0.160193	99
Es	-0.111916	1.089922	-0.322115	99
Es	-1.335028	-0.792191	-0.069570	99
Es	2.208079	0.394580	0.896633	99
Es	-0.595494	0.394870	-0.305795	99
Es	2.248662	0.150871	0.967762	99
Es	-0.266460	0.520645	0.042852	99
Es	-0.375771	0.754827	-0.251885	99
Es	-1.924177	-1.103211	0.091113	99
Es	-0.156121	1.145162	-0.353832	99
Es	0.250496	0.785375	0.095164	99
Es	-1.116886	-0.715285	0.052436	99
Es	1.778567	0.823967	0.188492	99
Es	1.716809	0.684411	0.455823	99
Es	-0.383779	0.633332	-0.217807	99
Es	-0.381389	0.735285	-0.295400	99
Es	0.511228	0.650163	0.356149	99
Es	-2.199587	-0.931138	-0.344201	99
Es	-1.718294	-0.868430	-0.135685	99
Es	0.170204	0.876573	-0.060699	99
Es	-0.211358	1.176214	-0.445819	99
Es	-0.235882	0.873905	-0.278949	99
Es	1.865277	0.482016	0.657715	99
Es	0.886367	0.810083	0.290062	99
Es	-0.369437	-0.073472	-0.124484	99
Es	-0.420938	1.039524	-0.429247	99
Es	2.162501	0.311085	0.922343	99
Es	-0.167360	1.104165	-0.439534	99
Es	-0.527419	0.302503	-0.147406	99
Es	-0.552973	0.219640	-0.068035	99
Es	-0.060594	0.767884	-0.057157	99
Es	0.319972	1.021337	0.087731	99
Es	1.142047	0.905877	0.239286	99
