42
Properties=species:S:1:pos:R:3:Z:I:1 energy=-681.3039899303071 field_type=dipole dipole="0.000000 0.000000 0.000000" charge=0
C	-0.596522	-1.903870	0.287245	6
O	-1.353452	-0.736720	0.011235	8
C	-0.619182	0.392530	-0.125135	6
N	-1.348152	1.472790	-0.382285	7
S	-0.334792	2.775990	-0.524945	16
C	1.111148	1.906050	-0.241905	6
C	0.792798	0.579430	-0.033545	6
H	-1.292892	-2.743380	0.375475	1
H	-0.061292	-1.814150	1.238805	1
H	0.096008	-2.130600	-0.530655	1
H	2.078248	2.387650	-0.242205	1
H	1.528088	-0.185720	0.167915	1
Es	-0.306648	2.773979	-0.530904	99
Es	0.939685	0.629702	-0.082394	99
Es	-0.436143	3.190513	-0.614887	99
Es	-1.327287	1.478176	-0.384693	99
Es	-0.295123	2.631535	-0.527508	99
Es	0.617076	2.242052	-0.328490	99
Es	0.643040	0.875946	-0.059509	99
Es	-0.394738	2.834697	-0.529174	99
Es	-1.062634	-2.483917	0.334053	99
Es	-0.907732	2.028983	-0.433289	99
Es	1.112672	0.378447	-0.012198	99
Es	-1.169531	-0.300360	-0.040797	99
Es	-1.388879	-0.702943	0.064779	99
Es	-0.610852	0.392530	-0.124470	99
Es	1.694607	2.273361	-0.235050	99
Es	-0.199356	2.626294	-0.501925	99
Es	-1.009494	1.013295	-0.206559	99
Es	-1.351352	-0.729877	0.024832	99
Es	-0.573410	-1.908588	0.282855	99
Es	-1.136029	-1.183648	0.098277	99
Es	-1.330829	-0.720857	-0.067441	99
Es	0.348911	0.680476	0.101728	99
Es	-0.342691	2.868480	-0.576958	99
Es	-0.298659	-1.952313	0.315504	99
Es	0.831630	0.783225	-0.207380	99
Es	-0.284976	2.794784	-0.470068	99
Es	-0.993136	1.222091	-0.344922	99
Es	-0.069256	-1.917124	0.366359	99
Es	-1.685094	1.496941	-0.452305	99
Es	1.007237	1.969205	-0.255452	99
