43
Properties=species:S:1:pos:R:3:Z:I:1 energy=-661.4690237910766 field_type=dipole dipole="0.000000 0.000000 0.000000" charge=0
N	-2.038791	-0.532412	0.118158	7
C	-0.684101	-0.586942	0.081778	6
C	0.194779	0.473328	-0.028122	6
N	-0.195391	1.769048	-0.070712	7
C	1.551419	0.062328	-0.084422	6
C	1.672679	-1.307212	0.007568	6
S	0.151509	-2.078432	0.156368	16
H	-2.474831	0.262738	-0.339422	1
H	-2.532581	-1.401522	-0.058042	1
H	0.484899	2.504728	0.093228	1
H	-1.109871	2.003148	0.306048	1
H	2.400309	0.725818	-0.180092	1
H	2.579969	-1.894612	-0.002332	1
Es	0.198151	0.472351	-0.028063	99
Es	-2.099117	-0.631870	0.104151	99
Es	-0.133693	-0.178239	-0.035669	99
Es	0.942854	-1.719302	0.088057	99
Es	0.884376	0.305791	-0.047643	99
Es	-2.277322	-0.939483	0.105871	99
Es	-1.449076	-0.581095	0.061382	99
Es	2.270784	-1.706250	0.006738	99
Es	1.517025	-0.591908	-0.026147	99
Es	-0.046887	1.206712	-0.025544	99
Es	0.038495	-2.228387	0.185198	99
Es	-0.346761	1.785470	0.038356	99
Es	-2.006085	-0.510508	0.108540	99
Es	0.224332	-1.965693	0.167168	99
Es	-0.263424	-0.042273	0.104777	99
Es	-0.476143	-0.932941	0.142291	99
Es	0.124154	-2.129939	0.106584	99
Es	-0.208663	1.756781	-0.114209	99
Es	-2.280004	-0.037707	-0.011763	99
Es	0.185598	-2.020286	0.160737	99
Es	1.630797	-0.631654	-0.054393	99
Es	0.102374	-2.158766	0.166343	99
Es	-0.464831	-0.930222	0.042815	99
Es	1.542103	0.059114	-0.081703	99
Es	1.672549	-1.307195	0.007643	99
Es	0.180159	2.223130	-0.053696	99
Es	-0.542390	1.849196	-0.015018	99
Es	0.212286	-2.173886	0.104371	99
Es	0.111662	-2.213178	0.217222	99
Es	2.116418	0.526893	-0.147048	99
