38
Properties=species:S:1:pos:R:3:Z:I:1 energy=-301.7422972095659 field_type=dipole dipole="0.000000 0.000000 0.000000" charge=0
C	-1.929580	-0.341116	0.017860	6
C	-0.594320	-0.225516	-0.003000	6
C	0.145040	1.057994	-0.039080	6
C	1.629360	0.843394	0.011410	6
N	2.251820	-0.292326	0.037660	7
N	1.523360	-1.484826	0.024630	7
C	0.232720	-1.444776	0.011120	6
H	-2.566820	0.538524	0.008640	1
H	-2.428190	-1.305526	0.045130	1
H	-0.125500	1.690984	0.813030	1
H	-0.076320	1.611894	-0.957810	1
H	2.248140	1.756274	0.020180	1
H	-0.309710	-2.404976	0.010230	1
Es	-2.233275	-0.977555	0.032694	99
Es	1.646161	0.836059	0.013851	99
Es	2.105003	-0.021638	0.194614	99
Es	-0.469921	0.001307	-0.003717	99
Es	0.962387	-1.406027	0.037736	99
Es	-1.220220	-0.319756	0.046057	99
Es	0.065873	1.266071	-0.055028	99
Es	1.782070	-0.805350	0.043461	99
Es	1.575150	-1.570813	0.032917	99
Es	0.344806	1.062545	0.013655	99
Es	0.932332	-1.431461	-0.012435	99
Es	0.112984	-1.678862	0.023183	99
Es	-2.281556	0.145586	0.013548	99
Es	-0.074262	1.565130	-0.043546	99
Es	0.659784	0.987983	-0.071304	99
Es	2.072833	-0.006515	-0.053923	99
Es	-1.269050	-0.260716	-0.035153	99
Es	1.678952	-1.721838	0.024297	99
Es	2.063910	0.092159	-0.042947	99
Es	-0.006908	-1.845484	0.001568	99
Es	2.567469	-0.353800	0.023803	99
Es	2.027745	1.443268	0.017667	99
Es	-0.160961	-0.824437	0.009494	99
Es	-2.034432	-0.254580	0.016985	99
Es	-0.375554	0.173767	-0.033699	99
