38
Properties=species:S:1:pos:R:3:Z:I:1 energy=-301.82068033987423 field_type=dipole dipole="0.000000 0.000000 0.000000" charge=0
C	-2.063146	-0.054197	0.113219	6
C	-0.570556	-0.020807	0.042699	6
C	0.125654	1.183663	-0.003311	6
N	1.476294	1.251003	-0.081921	7
C	2.110094	0.058783	-0.118271	6
C	1.427484	-1.144587	-0.078711	6
N	0.078384	-1.211007	0.001219	7
H	-2.483816	0.942383	0.283299	1
H	-2.384626	-0.700907	0.936479	1
H	-2.471126	-0.445487	-0.824421	1
H	-0.385006	2.139703	0.022589	1
H	3.191244	0.095123	-0.181681	1
H	1.949124	-2.093667	-0.111191	1
Es	0.077327	-1.207804	0.001477	99
Es	-2.357100	-0.509950	0.147373	99
Es	0.125417	1.182304	-0.003932	99
Es	-0.234333	1.829294	0.008174	99
Es	0.958758	1.156732	0.089060	99
Es	1.435636	1.240240	-0.074873	99
Es	2.109748	0.058709	-0.118434	99
Es	0.804059	0.980451	-0.169915	99
Es	-0.221193	0.580079	-0.001477	99
Es	1.608730	1.595630	-0.101168	99
Es	1.796140	-1.780708	-0.087147	99
Es	1.740710	0.702948	-0.095831	99
Es	1.427269	-1.144589	-0.078692	99
Es	1.758593	-0.532045	-0.191400	99
Es	-2.154741	-0.184851	0.080349	99
Es	-0.165930	-0.663131	0.050645	99
Es	2.847484	0.066971	-0.157752	99
Es	0.685969	-1.155839	-0.018224	99
Es	1.546491	-0.349930	-0.017371	99
Es	-1.309413	-0.033658	0.074533	99
Es	-0.570548	-0.020983	0.042712	99
Es	-0.129279	-1.535759	0.020753	99
Es	-2.132905	-0.148984	0.077468	99
Es	-2.358560	0.620600	0.188258	99
Es	0.009604	-0.556345	-0.019233	99
