40
Properties=species:S:1:pos:R:3:Z:I:1 energy=-269.7666998038468 field_type=dipole dipole="0.000000 0.000000 0.000000" charge=0
C	0.913035	-1.288209	0.079816	6
C	-0.573235	-1.432739	0.000066	6
C	-1.554755	-0.526239	-0.048064	6
C	-1.461255	0.906941	-0.014334	6
C	-0.371945	1.679431	-0.014334	6
C	1.011255	1.292771	-0.048514	6
C	1.541985	0.066481	-0.000344	6
H	1.337695	-1.887769	-0.735734	1
H	1.246785	-1.758859	1.012956	1
H	-0.890955	-2.475809	-0.021284	1
H	-2.577245	-0.899939	-0.104894	1
H	-2.427105	1.411221	0.011426	1
H	-0.528485	2.757951	0.011226	1
H	1.702625	2.134251	-0.105724	1
H	2.631595	0.020511	-0.022264	1
Es	-0.930587	1.248052	-0.084385	99
Es	0.969375	-1.345222	0.007739	99
Es	1.955151	0.046256	-0.012765	99
Es	0.168321	-1.280233	0.058563	99
Es	-0.648425	-1.359107	0.022106	99
Es	-1.474811	0.192565	-0.035664	99
Es	1.271290	-0.887066	-0.034419	99
Es	1.139598	-1.485857	0.234028	99
Es	1.245470	0.658766	-0.018705	99
Es	-2.233429	-0.775095	-0.074797	99
Es	1.844701	0.054177	-0.004792	99
Es	-0.491972	2.417736	0.005353	99
Es	1.472273	1.848197	-0.075294	99
Es	-1.569726	-0.531246	-0.048275	99
Es	-0.984562	-0.999327	-0.225022	99
Es	-0.781870	-2.149974	-0.013540	99
Es	-0.203388	1.568200	-0.047038	99
Es	1.084974	-1.486166	0.118403	99
Es	0.104033	1.540769	-0.011694	99
Es	1.010774	1.292631	-0.048397	99
Es	1.230845	0.703780	-0.034418	99
Es	-2.119107	1.263609	-0.000941	99
Es	-1.425536	0.927377	-0.010269	99
Es	-1.044341	-0.944528	0.133875	99
Es	-0.868963	1.288166	0.079274	99
