38
Properties=species:S:1:pos:R:3:Z:I:1 energy=-301.830116880249 field_type=dipole dipole="0.000000 0.000000 0.000000" charge=0
C	-1.916012	-0.022306	0.000729	6
C	-0.427063	-0.011366	-0.001071	6
C	0.296968	1.164334	0.000399	6
N	1.642867	1.217534	0.000459	7
C	2.269808	0.031604	-0.000511	6
N	1.680288	-1.173276	-0.001351	7
C	0.332888	-1.163276	-0.001301	6
H	-2.309402	-1.044206	-0.014771	1
H	-2.300802	0.497344	-0.882771	1
H	-2.298132	0.470334	0.900649	1
H	-0.197432	2.132134	0.001629	1
H	3.354028	0.048534	-0.000561	1
H	-0.128002	-2.147386	-0.001531	1
Es	-1.048915	-0.054809	0.012398	99
Es	1.595247	1.137055	-0.025658	99
Es	1.900974	0.663235	0.007755	99
Es	1.588685	-0.923983	-0.055854	99
Es	-0.003224	-0.047805	0.002427	99
Es	2.855358	0.051596	-0.005472	99
Es	-2.227294	0.420568	-0.009412	99
Es	1.008320	1.164622	-0.002184	99
Es	-1.983831	0.067117	0.007199	99
Es	-2.025828	0.126156	0.015446	99
Es	1.816785	1.525991	-0.006258	99
Es	2.417340	0.034322	0.001275	99
Es	1.071281	-1.134913	-0.013673	99
Es	-0.140822	0.467571	0.039740	99
Es	0.334090	-1.163495	-0.000800	99
Es	-0.504054	0.034695	-0.014717	99
Es	-0.011622	-0.486537	-0.046513	99
Es	1.524225	1.013407	0.019378	99
Es	1.893171	-1.490107	0.012897	99
Es	1.628848	-1.055253	0.004947	99
Es	0.324952	1.161885	-0.000196	99
Es	1.884846	-0.659740	0.053552	99
Es	-0.051960	1.816634	-0.003546	99
Es	-2.189863	-0.710898	-0.005606	99
Es	0.004925	-1.827308	0.005562	99
