38
Properties=species:S:1:pos:R:3:Z:I:1 energy=-301.80167097470877 field_type=dipole dipole="0.000000 0.000000 0.000000" charge=0
C	-2.145310	0.094313	-0.431663	6
C	-0.838081	0.109143	-0.174683	6
N	0.004529	-0.933407	0.074247	7
C	1.270599	-0.476467	0.289087	6
N	2.322799	-1.161817	0.552117	7
C	1.271469	1.000883	0.171717	6
C	-0.010571	1.303203	-0.105923	6
H	-2.699340	-0.837417	-0.467143	1
H	-2.697940	1.009233	-0.613163	1
H	-0.297820	-1.891457	0.091457	1
H	2.078059	-2.153877	0.582597	1
H	2.128899	1.634583	0.291167	1
H	-0.387290	2.303083	-0.259813	1
Es	2.274001	-1.287949	0.552567	99
Es	-0.837837	0.109090	-0.174637	99
Es	-0.010741	1.303142	-0.105915	99
Es	-1.530581	0.140959	-0.314852	99
Es	-2.498984	-0.520714	-0.452665	99
Es	1.289596	0.304272	0.230432	99
Es	0.638973	1.195455	0.030520	99
Es	2.684577	-1.158460	0.624006	99
Es	1.270378	-0.476422	0.289045	99
Es	1.855807	1.397966	0.255905	99
Es	0.633848	1.078804	0.039775	99
Es	-0.284463	1.970465	-0.212883	99
Es	-0.152443	-1.459699	0.083133	99
Es	1.272851	0.976175	0.173825	99
Es	1.950008	-0.935784	0.461821	99
Es	-1.481271	0.086266	-0.299249	99
Es	0.562910	-0.778576	0.172325	99
Es	1.800031	-0.900560	0.422396	99
Es	-2.145384	0.094281	-0.431588	99
Es	-2.535357	0.700407	-0.556510	99
Es	0.004902	-0.930933	0.075760	99
Es	-0.450829	0.714347	-0.145924	99
Es	2.205147	-1.462732	0.555938	99
Es	-0.401070	-0.514540	-0.037497	99
Es	0.038368	-0.860121	0.074512	99
