48
Properties=species:S:1:pos:R:3:Z:I:1 energy=-289.28007317184904 field_type=dipole dipole="0.000000 0.000000 0.000000" charge=0
C	-1.401532	-2.044346	0.959370	6
C	-1.261022	-1.588756	-0.484040	6
C	-0.035932	-0.748036	-0.681250	6
C	-0.067682	0.437104	-1.616330	6
N	-0.027582	0.620914	-0.167110	7
C	1.284178	1.017653	0.351410	6
C	1.221498	2.464254	0.818570	6
H	-2.267772	-2.704376	1.068890	1
H	-1.540092	-1.188516	1.629460	1
H	-0.509912	-2.587616	1.291500	1
H	-2.165832	-1.045136	-0.779120	1
H	-1.191602	-2.467247	-1.135260	1
H	0.878758	-1.327127	-0.615880	1
H	-1.004052	0.702193	-2.093210	1
H	0.816528	0.662934	-2.199360	1
H	2.093658	0.910594	-0.382390	1
H	1.542298	0.384323	1.209420	1
H	0.967368	3.138134	-0.005580	1
H	2.192528	2.772103	1.220520	1
H	0.476198	2.590954	1.610390	1
Es	-1.263207	-1.967682	1.325144	99
Es	-1.055003	-1.506832	-0.447748	99
Es	1.158933	1.065685	0.222664	99
Es	-1.292785	-2.136228	-0.751637	99
Es	1.135089	2.755789	0.311553	99
Es	1.259287	2.000910	0.842809	99
Es	1.155902	1.471147	0.909772	99
Es	0.089979	0.152783	-1.436192	99
Es	-1.143332	-1.699268	-0.003271	99
Es	-1.008565	-1.186557	-0.619692	99
Es	-1.874980	-2.357787	0.847478	99
Es	-0.211896	-0.326070	-1.104037	99
Es	-0.119440	-0.123704	-0.291958	99
Es	1.103652	1.008244	0.300382	99
Es	0.308487	0.805788	-0.876398	99
Es	1.456532	2.512744	1.001108	99
Es	-0.878368	-1.531638	0.169627	99
Es	-0.148820	0.329268	-1.405017	99
Es	-0.004364	0.181569	-1.465766	99
Es	0.231493	0.661550	-0.205369	99
Es	-1.257282	-1.983260	0.914792	99
Es	-1.229145	-1.985196	0.762943	99
Es	-0.003764	0.335927	-1.022982	99
Es	-0.384804	-0.418762	-0.910653	99
Es	1.363072	2.009622	0.699522	99
Es	-0.148889	-0.039216	-0.463107	99
Es	0.644712	0.798444	-0.062205	99
Es	1.284881	1.945849	0.697501	99
