48
Properties=species:S:1:pos:R:3:Z:I:1 energy=-289.2870043257068 field_type=dipole dipole="0.000000 0.000000 0.000000" charge=0
C	-2.044825	-0.637724	0.249375	6
C	-0.845715	-0.919143	-0.642235	6
C	0.342235	-0.007393	-0.367865	6
C	1.229725	-0.419693	0.789945	6
N	0.641025	0.013797	2.046765	7
C	1.040715	0.576806	-1.587255	6
C	0.217445	1.469266	-0.709605	6
H	-2.878285	-1.292683	-0.024985	1
H	-2.382765	0.398687	0.146905	1
H	-1.817725	-0.816414	1.304205	1
H	-1.167355	-0.813553	-1.685175	1
H	-0.540615	-1.965313	-0.523215	1
H	2.227595	0.023646	0.696275	1
H	1.362305	-1.507064	0.797655	1
H	0.550785	1.027576	2.039255	1
H	1.278225	-0.210793	2.808075	1
H	0.656885	0.347636	-2.574475	1
H	2.117555	0.705266	-1.567285	1
H	0.739165	2.194267	-0.095445	1
H	-0.726385	1.832826	-1.100915	1
Es	0.925677	0.050582	0.432200	99
Es	0.719836	-0.195260	1.856116	99
Es	-1.282545	-0.475690	-0.292511	99
Es	-0.652947	-0.419641	-0.207844	99
Es	-1.123039	-0.460488	-0.153779	99
Es	-2.390470	-0.910971	0.148866	99
Es	1.171292	0.770519	-1.481093	99
Es	-1.749028	-0.752058	0.210600	99
Es	0.487417	-0.282937	1.558360	99
Es	0.049180	-0.423004	0.429816	99
Es	0.563447	0.835953	-0.614283	99
Es	-0.133345	0.484140	-0.721746	99
Es	-0.019195	0.284919	-0.679577	99
Es	0.576719	0.780044	-1.117064	99
Es	1.351349	-0.003624	0.948077	99
Es	0.810142	-0.036857	1.210147	99
Es	-0.627829	-0.382309	-0.457385	99
Es	0.842545	0.811934	-1.018803	99
Es	0.831041	0.649676	-1.620616	99
Es	0.826849	-0.022033	1.845875	99
Es	0.807634	0.058653	2.171429	99
Es	0.507048	0.602116	-0.764928	99
Es	0.933789	0.820154	-1.168498	99
Es	-0.538579	-0.437416	-0.291201	99
Es	0.591729	0.090086	-0.043733	99
Es	0.857505	-0.057147	0.516326	99
Es	-1.644924	-0.575635	0.151988	99
Es	-1.049600	-0.658106	-0.370513	99
