41
Properties=species:S:1:pos:R:3:Z:I:1 energy=-302.92830277668105 field_type=dipole dipole="0.000000 0.000000 0.000000" charge=0
C	-1.972445	-1.229719	-0.327089	6
C	-0.514275	-1.154809	-0.010179	6
C	0.224295	-0.039909	0.003961	6
C	1.672975	0.138611	0.307831	6
N	1.867105	1.576801	0.068171	7
N	0.693195	2.243841	-0.145779	7
C	-0.231675	1.339361	-0.239809	6
H	-2.219075	-2.230618	-0.694509	1
H	-2.259865	-0.518239	-1.106369	1
H	-2.566785	-1.042479	0.571751	1
H	-0.030265	-2.100979	0.225911	1
H	2.311375	-0.444599	-0.361389	1
H	1.888985	-0.111179	1.351231	1
H	2.426605	2.020791	0.796621	1
H	-1.290155	1.553121	-0.440359	1
Es	-0.248370	-1.723282	0.128389	99
Es	0.324115	0.407721	0.010148	99
Es	1.561956	1.839739	0.021141	99
Es	-1.244636	-1.159027	-0.159040	99
Es	-2.068739	-1.312143	-0.254207	99
Es	1.765960	0.011968	0.517583	99
Es	1.920488	1.595219	0.018500	99
Es	-0.870416	1.517956	-0.426644	99
Es	2.012074	1.198170	0.294188	99
Es	0.207254	1.823119	0.025322	99
Es	-0.467547	-1.221457	0.006594	99
Es	0.278132	1.851765	-0.325205	99
Es	-0.133859	-0.617605	-0.101187	99
Es	1.807652	1.570264	0.175385	99
Es	0.169971	0.120952	-0.028846	99
Es	-0.150255	-0.544635	0.056184	99
Es	1.850128	0.002690	0.265432	99
Es	-2.122791	-0.964330	-0.523967	99
Es	0.606945	2.143049	-0.156717	99
Es	-2.289758	-1.664481	-0.369133	99
Es	-2.118225	-1.058108	-0.330997	99
Es	0.737508	0.051105	0.111714	99
Es	1.772468	1.605781	0.086814	99
Es	0.704913	2.592897	-0.144467	99
Es	-0.201758	1.371097	-0.245830	99
Es	1.869099	-0.083448	0.316939	99
