35
Properties=species:S:1:pos:R:3:Z:I:1 energy=-300.54361467459756 field_type=dipole dipole="0.000000 0.000000 0.000000" charge=0
C	-2.578923	-0.353234	0.388841	6
C	-1.381053	-0.334184	0.463541	6
C	0.049347	-0.313204	0.554701	6
N	0.823607	-1.046074	-0.443899	7
C	0.838857	0.420936	-0.504829	6
C	2.002387	1.155486	-0.091799	6
N	2.925797	1.773436	0.243291	7
H	-3.643213	-0.373734	0.329321	1
H	0.460447	-0.350804	1.559851	1
H	0.204427	-1.430884	-1.158519	1
H	0.298317	0.852256	-1.340499	1
Es	3.037396	1.880736	0.227989	99
Es	-2.128469	-0.502702	0.694974	99
Es	1.585629	0.887580	-0.207125	99
Es	0.371925	-0.665215	-0.194573	99
Es	1.023619	-0.571624	-0.574476	99
Es	-0.289014	-0.264598	0.487481	99
Es	1.060736	0.526937	-0.312760	99
Es	1.827677	0.908328	-0.175551	99
Es	-1.670545	-0.331503	0.448960	99
Es	0.656887	-0.471021	-0.107699	99
Es	-2.430942	-0.362627	0.485941	99
Es	-1.732002	-0.178766	0.372071	99
Es	-0.300158	-0.431230	0.312262	99
Es	0.417581	-0.057801	-0.091470	99
Es	2.901633	1.838805	0.201157	99
Es	0.664887	-0.584369	-0.362370	99
Es	0.605472	-0.900602	-0.370761	99
Es	2.490254	1.438217	-0.052644	99
Es	2.398824	1.539262	0.305449	99
Es	2.566544	1.499456	0.122659	99
Es	-1.876584	-0.443289	0.186844	99
Es	0.394847	-0.220687	0.062274	99
Es	-3.158998	-0.351602	0.356027	99
Es	0.632281	-0.409941	-0.250544	99
