41
Properties=species:S:1:pos:R:3:Z:I:1 energy=-302.9358906263365 field_type=dipole dipole="0.000000 0.000000 0.000000" charge=0
C	-1.816635	-1.825236	-0.065691	6
C	-0.480795	-1.764186	-0.099001	6
C	0.289135	-0.512276	0.049609	6
N	1.587245	-0.486576	0.067559	7
N	1.937455	0.808204	0.265689	7
C	0.843875	1.718724	-0.047281	6
C	-0.362855	0.834854	0.199199	6
H	-2.318895	-2.781766	-0.175981	1
H	-2.445265	-0.953376	0.075699	1
H	0.116705	-2.661066	-0.230871	1
H	2.811395	1.051904	-0.202131	1
H	0.891315	2.021784	-1.099271	1
H	0.848805	2.611814	0.582959	1
H	-1.151535	0.999424	-0.537951	1
H	-0.749955	0.937774	1.217469	1
Es	-1.919156	-2.064548	-0.095914	99
Es	0.989687	-0.515986	0.194527	99
Es	-1.144831	-1.799372	0.033497	99
Es	-0.885898	0.988322	0.169146	99
Es	1.880405	0.838902	0.263250	99
Es	-0.079763	0.988000	0.257407	99
Es	-0.271051	1.040104	0.212390	99
Es	1.769250	0.903211	0.153863	99
Es	-2.244094	-1.228643	0.011303	99
Es	2.463712	0.984673	0.113049	99
Es	-1.143869	-1.759283	-0.164122	99
Es	1.839451	-0.763494	0.013452	99
Es	0.855043	1.886163	-0.092118	99
Es	0.145612	-0.024590	-0.018741	99
Es	0.789282	-0.385365	0.040186	99
Es	0.958663	1.919579	-0.255463	99
Es	-0.102028	-1.117011	-0.031089	99
Es	-0.133336	-2.274675	-0.173808	99
Es	-0.435944	-1.859269	-0.110629	99
Es	0.837411	2.018862	0.003803	99
Es	1.583256	1.060266	0.318308	99
Es	1.596681	-0.469567	0.060935	99
Es	0.208674	-0.334469	0.078849	99
Es	-2.013791	-2.193121	-0.113803	99
Es	1.733459	0.237082	0.117282	99
Es	-0.363828	0.835747	0.197249	99
