45
Properties=species:S:1:pos:R:3:Z:I:1 energy=-288.0948134018891 field_type=dipole dipole="0.000000 0.000000 0.000000" charge=0
C	-2.962938	0.232839	0.425264	6
C	-1.478488	0.076739	0.385674	6
C	-0.771298	-0.085581	-0.744256	6
C	0.702842	-0.237821	-0.767606	6
C	1.555252	0.887069	-0.143806	6
C	2.413322	-0.268631	0.402604	6
N	1.218272	-1.135661	0.294064	7
H	-3.224628	1.191119	0.884204	1
H	-3.405958	-0.568401	1.024564	1
H	-3.409858	0.199099	-0.573416	1
H	-0.970288	0.090239	1.348064	1
H	-1.276638	-0.105231	-1.705756	1
H	1.053332	-0.525081	-1.768966	1
H	1.070722	1.484749	0.637314	1
H	2.055282	1.558149	-0.847256	1
H	3.236972	-0.567801	-0.256176	1
H	2.795092	-0.137271	1.418254	1
H	1.399012	-2.088521	-0.012766	1
Es	-3.363389	-0.086781	0.512264	99
Es	-2.087965	0.177978	-0.075366	99
Es	0.433627	0.004015	-0.312484	99
Es	-1.482385	0.024152	0.000427	99
Es	1.847028	-0.308621	0.113633	99
Es	-1.442657	0.096097	-0.075368	99
Es	1.381827	-0.781562	0.117639	99
Es	0.963383	0.202120	-0.291207	99
Es	0.978921	-0.519200	-0.034138	99
Es	1.199034	-0.312076	-0.388636	99
Es	0.915766	-0.009203	-0.305905	99
Es	-0.994521	-0.065457	-0.310264	99
Es	-1.028049	-0.098136	0.130817	99
Es	1.382891	0.482545	-0.260225	99
Es	1.705593	-0.008875	-0.080976	99
Es	2.859336	-0.369151	0.248479	99
Es	1.745087	0.063605	0.003276	99
Es	0.962163	-0.708653	0.095819	99
Es	-3.068668	0.269691	0.309854	99
Es	-0.973117	0.114504	-0.097258	99
Es	1.727010	-0.080243	-0.023655	99
Es	1.976147	-0.596817	0.229591	99
Es	1.553524	-0.106342	0.070708	99
Es	-2.085865	0.261824	0.164430	99
Es	1.683259	0.108145	-0.121424	99
Es	-2.953521	0.163950	0.250744	99
Es	-1.597895	0.178727	-0.007290	99
