48
Properties=species:S:1:pos:R:3:Z:I:1 energy=-289.2841092939206 field_type=dipole dipole="0.000000 0.000000 0.000000" charge=0
C	-1.761960	-0.074438	-0.056950	6
C	-0.254160	-0.362938	-0.175970	6
C	0.169630	-1.258598	1.002390	6
C	0.000530	-1.136268	-1.484910	6
C	0.488220	0.963182	-0.244290	6
C	0.827780	1.778632	0.981590	6
N	1.865130	1.075622	0.231350	7
H	-2.116600	0.535122	-0.896220	1
H	-1.985780	0.477432	0.863240	1
H	-2.346770	-1.001058	-0.044650	1
H	-0.037230	-0.785458	1.967890	1
H	1.239330	-1.492728	0.967480	1
H	-0.373840	-2.210768	0.987170	1
H	-0.319510	-0.556178	-2.358260	1
H	-0.542020	-2.088248	-1.499270	1
H	1.067270	-1.353948	-1.611800	1
H	0.250140	1.518782	-1.147380	1
H	0.610410	1.389902	1.967420	1
H	0.820160	2.859132	0.902640	1
H	2.399270	1.722822	-0.351470	1
Es	1.567684	1.288200	0.440521	99
Es	0.868398	1.821271	1.053743	99
Es	-0.275223	-0.705179	-0.519659	99
Es	1.404919	1.119497	0.305023	99
Es	0.496854	1.065722	0.733268	99
Es	0.570683	1.171784	0.446009	99
Es	-0.224187	-0.154993	0.086984	99
Es	0.448793	0.427348	0.321848	99
Es	0.175125	0.010865	0.211738	99
Es	-0.358579	-0.489677	-0.045959	99
Es	-0.328655	-0.333631	-0.173575	99
Es	-1.134064	-0.283828	0.066317	99
Es	-0.690464	-0.406375	0.021255	99
Es	-0.334371	-0.383739	-0.198668	99
Es	0.686764	1.194207	0.652708	99
Es	-0.420473	-1.047334	-0.615562	99
Es	1.101159	0.765253	0.329362	99
Es	-0.108888	-0.984581	-0.648258	99
Es	-1.002998	-0.617678	-0.165626	99
Es	1.532600	1.329352	0.299287	99
Es	0.191874	0.138610	0.107902	99
Es	-0.068877	-0.631426	-0.516793	99
Es	-0.599845	-0.816998	-0.460063	99
Es	-0.305296	-0.124272	-0.078287	99
Es	1.664251	1.364749	0.134781	99
Es	-0.514965	-0.891112	-0.422744	99
Es	-0.097091	-0.636553	-0.428219	99
Es	0.105066	-0.310753	-0.123575	99
