33
Properties=species:S:1:pos:R:3:Z:I:1 energy=-283.34771790049416 field_type=dipole dipole="0.000000 0.000000 0.000000" charge=0
C	-3.572652	-0.273631	0.000000	6
C	-2.372662	-0.274511	0.000000	6
C	-0.840412	-0.274481	0.000000	6
C	0.349748	-0.274481	0.000000	6
C	1.793748	-0.274481	0.000000	6
C	2.275768	1.086689	0.000000	6
N	2.659978	2.171679	0.000000	7
H	-4.637372	-0.270141	0.000000	1
H	2.171928	-0.808321	-0.878630	1
H	2.171928	-0.808321	0.878630	1
Es	-1.605060	-0.276828	0.002972	99
Es	2.712837	2.016999	0.000002	99
Es	-0.324537	-0.588419	-0.083790	99
Es	-0.772390	-0.313255	-0.004918	99
Es	-0.275336	-0.284334	0.081715	99
Es	2.842361	2.446759	-0.000540	99
Es	1.974797	0.486511	0.027504	99
Es	-2.426152	-0.309487	-0.011645	99
Es	1.883279	-0.319026	-0.068658	99
Es	-0.256460	0.084275	-0.000719	99
Es	-2.954319	0.079211	0.046747	99
Es	1.051352	-0.265314	0.003776	99
Es	0.350249	-0.274565	0.000235	99
Es	-3.343175	-0.275848	0.019874	99
Es	2.260839	1.047288	-0.000365	99
Es	-4.264167	-0.274310	-0.003928	99
Es	2.202571	1.686340	0.016407	99
Es	1.953568	-0.466975	0.028835	99
Es	2.053808	-0.546277	0.029657	99
Es	-3.146870	-0.283828	-0.104589	99
Es	-2.922034	-0.581013	0.055217	99
Es	2.488138	1.684434	0.004078	99
Es	2.705997	1.714636	-0.037865	99
