48
Properties=species:S:1:pos:R:3:Z:I:1 energy=-289.3060198045893 field_type=dipole dipole="0.000000 0.000000 0.000000" charge=0
C	-1.368878	-0.723503	-1.592824	6
C	-1.430648	-0.089202	-0.230844	6
C	-2.218258	-0.583532	0.736896	6
C	-0.591828	1.151638	-0.014004	6
C	0.921552	0.930568	-0.124784	6
C	1.455742	-0.061522	0.907746	6
N	2.906672	-0.181632	0.786246	7
H	-1.606438	0.012868	-2.366944	1
H	-2.080568	-1.549773	-1.692204	1
H	-0.369138	-1.124952	-1.786544	1
H	-2.831028	-1.466372	0.578066	1
H	-2.277058	-0.118552	1.717486	1
H	-0.810518	1.591918	0.967736	1
H	-0.892998	1.905498	-0.752704	1
H	1.417862	1.900087	0.012316	1
H	1.176782	0.594068	-1.137214	1
H	1.007252	-1.050592	0.767836	1
H	1.210281	0.278568	1.919606	1
H	3.141342	-0.531802	-0.141874	1
H	3.239882	-0.883772	1.446006	1
Es	0.565628	0.449853	0.488221	99
Es	2.977141	-0.078910	0.789734	99
Es	-0.158735	0.507699	0.217398	99
Es	1.602193	0.366501	0.593978	99
Es	-1.598932	-0.161942	-0.165999	99
Es	2.501246	0.079020	0.745954	99
Es	2.060519	0.111797	0.342110	99
Es	-1.927709	-0.388737	0.358372	99
Es	-0.592809	0.413080	0.020441	99
Es	-1.660238	-0.308112	-0.299903	99
Es	0.561601	0.431618	-0.119013	99
Es	-1.024875	0.074476	-0.770865	99
Es	-2.064675	-0.298453	1.104778	99
Es	-1.386116	-0.228918	-0.767930	99
Es	-1.718987	-0.433357	-1.547517	99
Es	-1.625588	-0.389588	-0.589265	99
Es	1.412640	0.158836	0.658129	99
Es	-1.742117	-0.413683	-0.518997	99
Es	-1.250713	-0.305406	-0.582852	99
Es	0.979960	0.601275	0.146278	99
Es	1.162744	0.324056	0.702783	99
Es	-1.695038	-0.400412	-0.240135	99
Es	-0.880312	0.306677	-0.033234	99
Es	2.902094	-0.028523	0.718221	99
Es	0.715846	0.427002	0.204881	99
Es	-1.086697	-0.007781	-0.678695	99
Es	0.998065	0.495346	-0.052866	99
Es	2.643755	-0.182864	0.904734	99
