45
Properties=species:S:1:pos:R:3:Z:I:1 energy=-288.16561389917837 field_type=dipole dipole="0.000000 0.000000 0.000000" charge=0
C	-1.699828	0.133379	-0.002736	6
C	-0.171148	-0.070521	0.000654	6
C	0.210382	-0.861411	1.265794	6
C	0.212482	-0.887360	-1.247226	6
C	0.505372	1.323589	-0.013136	6
C	1.948742	1.281219	-0.012216	6
N	3.099262	1.247459	-0.011476	7
H	-2.023238	0.682379	-0.893896	1
H	-2.024718	0.700899	0.876184	1
H	-2.228978	-0.826221	0.006844	1
H	-0.035398	-0.297191	2.172174	1
H	1.280652	-1.091411	1.292784	1
H	-0.328598	-1.814880	1.311684	1
H	-0.031478	-0.341861	-2.165516	1
H	-0.326668	-1.841330	-1.274396	1
H	1.282752	-1.118160	-1.267516	1
H	0.164862	1.899559	0.857114	1
H	0.165552	1.881859	-0.895116	1
Es	0.333131	0.200833	0.180288	99
Es	3.021903	1.204983	-0.035725	99
Es	2.454970	1.214902	0.087094	99
Es	1.450432	0.469905	-0.170605	99
Es	-0.726570	-0.412894	-0.234934	99
Es	-0.875180	-0.217446	0.076460	99
Es	1.713176	1.030269	-0.036510	99
Es	0.066264	-0.254853	-0.020638	99
Es	0.161881	0.193314	0.028688	99
Es	0.082475	-0.303337	0.176997	99
Es	-1.637768	-0.285452	0.130636	99
Es	0.844209	0.164794	0.333222	99
Es	-0.350388	0.019660	0.007621	99
Es	0.334617	0.074268	-0.107647	99
Es	2.593187	1.263345	-0.008675	99
Es	1.476407	0.868163	-0.175770	99
Es	-0.937099	0.009196	-0.164575	99
Es	-1.046418	-0.154765	-0.059988	99
Es	0.817667	0.228746	0.213062	99
Es	-0.415442	-0.732183	-0.326948	99
Es	-0.162411	-0.176671	-0.133942	99
Es	-0.359828	-0.451939	-0.040112	99
Es	2.665469	1.343462	-0.008003	99
Es	-0.301595	-0.298530	0.173375	99
Es	-0.557986	-0.185001	0.312274	99
Es	0.226798	0.275455	-0.101054	99
Es	1.390616	0.993970	-0.151455	99
