45
Properties=species:S:1:pos:R:3:Z:I:1 energy=-288.1639189305001 field_type=dipole dipole="0.000000 0.000000 0.000000" charge=0
C	-1.647162	-0.474318	1.163361	6
C	-0.261722	-0.333168	0.526181	6
C	0.132798	-1.649078	-0.145579	6
C	-0.262072	0.855862	-0.457069	6
C	1.078628	1.148292	-1.136209	6
C	2.116128	1.548242	-0.176409	6
N	2.937288	1.863692	0.579291	7
H	-1.930562	0.445122	1.686501	1
H	-1.658552	-1.289768	1.894381	1
H	-2.412472	-0.685418	0.408601	1
H	0.453188	-0.133008	1.333611	1
H	-0.506462	-1.861618	-1.009039	1
H	0.042188	-2.485738	0.555711	1
H	1.172178	-1.626068	-0.486579	1
H	-0.591672	1.756822	0.077881	1
H	-1.008822	0.672252	-1.240729	1
H	0.932098	1.963312	-1.855299	1
H	1.415008	0.284582	-1.718609	1
Es	-1.266097	-0.321213	0.634044	99
Es	1.861323	1.734885	-0.015208	99
Es	0.556602	0.660969	-0.522380	99
Es	0.241041	-0.107980	-0.157975	99
Es	0.075684	0.325969	-0.128314	99
Es	2.248545	1.533106	-0.138709	99
Es	-0.322563	-0.894583	0.108278	99
Es	-0.844939	-1.003946	0.270761	99
Es	2.331962	1.796379	-0.069646	99
Es	2.414586	1.527489	-0.101276	99
Es	-0.281415	-0.732015	0.090654	99
Es	2.242486	1.533815	-0.204800	99
Es	-0.275868	0.188633	-0.074058	99
Es	-0.460060	-0.573044	0.198512	99
Es	1.866221	1.342464	-0.411380	99
Es	0.170790	0.378550	-0.167316	99
Es	1.843441	1.402131	-0.158988	99
Es	-0.490235	-0.770514	0.291885	99
Es	1.784976	1.367974	-0.134266	99
Es	0.309204	-1.051782	-0.082101	99
Es	2.110656	1.740252	-0.298039	99
Es	0.899084	0.827676	-0.488109	99
Es	-1.136165	-1.024816	0.552542	99
Es	-1.215439	-0.953554	0.928795	99
Es	-1.245590	-0.047007	0.767682	99
Es	-1.596797	-0.689978	0.673589	99
Es	0.222047	0.284457	0.055503	99
