43
Properties=species:S:1:pos:R:3:Z:I:1 energy=-270.96301385513567 field_type=dipole dipole="0.000000 0.000000 0.000000" charge=0
C	-2.149864	-0.358015	0.082000	6
C	-0.662234	-0.378455	0.007100	6
C	0.107296	-1.469955	-0.112930	6
C	1.563816	-1.136525	-0.141720	6
C	1.586506	0.391465	-0.223110	6
C	0.165486	0.809915	0.053560	6
C	-0.230674	2.060925	0.312630	6
H	-2.568604	-1.366465	-0.004520	1
H	-2.569314	0.244315	-0.730700	1
H	-2.485774	0.059985	1.036400	1
H	-0.265554	-2.483865	-0.159940	1
H	2.053816	-1.493875	0.770550	1
H	2.062716	-1.587425	-1.004980	1
H	1.881126	0.708895	-1.230740	1
H	2.294316	0.815915	0.496060	1
H	0.483736	2.877475	0.331010	1
H	-1.266794	2.305695	0.519330	1
Es	1.542280	-1.218738	-0.077418	99
Es	1.879327	0.283691	-0.207832	99
Es	1.248232	-1.228242	-0.094201	99
Es	0.072741	0.951019	0.173866	99
Es	-2.263028	-0.152775	0.101664	99
Es	-0.185394	2.002263	0.232329	99
Es	1.942760	-1.501942	-0.329206	99
Es	-2.032335	-0.473699	0.071462	99
Es	1.690612	0.381446	-0.345163	99
Es	-0.009534	0.428751	0.037325	99
Es	-0.119255	-2.140185	-0.182099	99
Es	-0.344405	-0.964231	0.057228	99
Es	1.623252	0.067453	-0.133233	99
Es	-0.000988	1.102134	0.350235	99
Es	-2.488420	0.031815	0.137840	99
Es	0.238183	2.593352	0.341313	99
Es	1.129439	0.603766	-0.156179	99
Es	-1.636854	-0.485697	0.038161	99
Es	-0.108974	1.581074	-0.033578	99
Es	-0.936563	2.220721	0.444724	99
Es	-2.302899	-0.741735	0.060142	99
Es	1.429457	0.504794	-0.137929	99
Es	-0.287184	-0.835974	-0.159036	99
Es	0.072435	-1.396566	-0.099132	99
Es	-0.589843	-0.474440	-0.009324	99
Es	1.366593	-1.263360	-0.127104	99
