42
Properties=species:S:1:pos:R:3:Z:I:1 energy=-286.9720289182457 field_type=dipole dipole="0.000000 0.000000 0.000000" charge=0
C	-0.597334	-1.277775	-1.345193	6
C	-0.761694	-0.815725	0.096227	6
C	-0.213944	0.576435	0.341497	6
C	-1.031554	1.582115	0.703147	6
C	1.276416	0.797565	0.165107	6
C	2.071236	-0.030545	1.086327	6
N	2.711386	-0.686895	1.799687	7
H	-1.078244	-2.251605	-1.483833	1
H	0.457936	-1.389995	-1.613343	1
H	-1.056834	-0.570615	-2.043583	1
H	-0.273584	-1.530345	0.768867	1
H	-1.829794	-0.851445	0.346147	1
H	-2.099954	1.429325	0.831597	1
H	-0.662274	2.587345	0.886147	1
H	1.530056	1.851735	0.332387	1
H	1.558176	0.580425	-0.871183	1
Es	1.498290	0.081202	0.551700	99
Es	-0.984249	-1.684172	-1.440729	99
Es	-0.019816	-0.094187	0.198982	99
Es	2.237941	-0.056826	1.414111	99
Es	1.561406	0.697575	0.549291	99
Es	-0.334399	-1.293757	-0.835237	99
Es	-0.748462	-1.086150	-0.882419	99
Es	-0.701088	-0.827166	-0.476845	99
Es	-0.135022	0.830463	0.376617	99
Es	2.597910	-0.535659	1.302864	99
Es	-0.785118	-0.892985	-0.732824	99
Es	-1.035513	1.793830	0.716229	99
Es	1.783938	0.228882	0.794174	99
Es	-0.473220	-0.578431	-0.505416	99
Es	1.734983	0.227119	0.823737	99
Es	1.927981	0.183483	1.045885	99
Es	-0.750098	1.085487	0.310941	99
Es	0.602516	0.479880	0.169024	99
Es	-0.541928	0.962565	0.530200	99
Es	-0.186500	-1.229250	-0.643535	99
Es	-0.164170	0.503939	0.319912	99
Es	-0.899287	-0.354254	-0.237463	99
Es	-0.308911	1.134655	0.476768	99
Es	2.787960	-0.637252	1.707865	99
Es	-1.210921	1.687057	0.840632	99
Es	2.804409	-0.797655	1.918921	99
