10
Properties=species:S:1:pos:R:3:Z:I:1 energy=-40.213432119065814 field_type=dipole dipole="0.000000 0.000000 0.000000" charge=0
C	0.998260	-0.002460	-0.004360	6
H	2.090210	-0.002430	0.004140	1
H	0.633790	1.026860	0.004140	1
H	0.627040	-0.527730	0.878110	1
H	0.641360	-0.507470	-0.905400	1
Es	0.998260	-0.002460	-0.004360	99
Es	1.737537	-0.002410	0.001444	99
Es	0.751531	0.694426	0.001444	99
Es	0.746962	-0.358041	0.593126	99
Es	0.756674	-0.344300	-0.614275	99
