14
Properties=species:S:1:pos:R:3:Z:I:1 energy=-78.06427871623762 field_type=dipole dipole="0.000000 0.000000 0.000000" charge=0
C	0.989160	0.000100	0.000000	6
C	2.324920	-0.000170	-0.000000	6
H	0.429410	0.930140	0.000000	1
H	0.429070	-0.929850	0.000000	1
H	2.885000	0.929800	-0.000000	1
H	2.884670	-0.930200	0.000000	1
Es	2.325211	-0.000170	0.000000	99
Es	0.988869	0.000100	-0.000000	99
Es	2.707633	-0.633757	0.000000	99
Es	0.606446	0.633693	0.000000	99
Es	2.707856	0.633363	-0.000000	99
Es	1.657040	-0.000036	0.000000	99
Es	0.606222	-0.633423	-0.000000	99
Es	1.657040	-0.000035	-0.000000	99
