11
Properties=species:S:1:pos:R:3:Z:I:1 energy=-76.85022881978477 field_type=dipole dipole="0.000000 0.000000 0.000000" charge=0
C	0.994950	0.000000	0.000000	6
C	2.195210	0.000000	0.000000	6
H	-0.070710	0.000000	0.000000	1
H	3.260870	0.000000	0.000000	1
Es	0.988443	-0.000000	0.000000	99
Es	2.201717	0.000000	-0.000000	99
Es	0.437689	-0.000000	0.000000	99
Es	2.752471	0.000000	-0.000000	99
Es	1.595080	0.000000	0.000000	99
Es	1.595080	-0.000000	0.000000	99
Es	1.595080	0.000000	-0.000000	99
