22
Properties=species:S:1:pos:R:3:Z:I:1 energy=-154.14365395088453 field_type=dipole dipole="0.000000 0.000000 0.000000" charge=0
C	1.005480	-0.000680	0.004310	6
C	2.520130	0.001580	0.001240	6
O	3.004400	1.336610	0.011740	8
H	0.617530	-1.022410	0.011110	1
H	0.616690	0.518480	-0.877370	1
H	0.622110	0.530030	0.881350	1
H	2.912170	-0.507140	-0.885470	1
H	2.905990	-0.508360	0.889530	1
H	2.665730	1.777070	-0.785890	1
Es	3.004319	1.336720	0.011389	99
Es	2.520066	0.001953	0.001234	99
Es	1.005716	-0.000699	0.004294	99
Es	2.812196	0.870732	-0.021775	99
Es	0.748259	0.355646	-0.603393	99
Es	2.780935	-0.350207	-0.614620	99
Es	2.806711	1.530028	-0.411229	99
Es	3.210466	1.451575	0.221619	99
Es	1.750723	-0.005778	0.006601	99
Es	0.748116	0.353220	0.596445	99
Es	0.743781	-0.697075	0.006675	99
Es	2.786954	-0.347352	0.605058	99
Es	2.964947	1.330268	0.000066	99
