24
Properties=species:S:1:pos:R:3:Z:I:1 energy=-118.30787063126775 field_type=dipole dipole="0.000000 0.000000 0.000000" charge=0
C	0.989980	-0.013360	0.004120	6
C	2.508920	0.016510	0.008260	6
C	3.041640	1.439360	0.006470	6
H	0.630900	-1.047410	0.000510	1
H	0.589740	0.488380	-0.882730	1
H	0.585400	0.483540	0.891770	1
H	2.886770	-0.515450	-0.871820	1
H	2.881590	-0.511460	0.892940	1
H	2.711400	1.980780	-0.885940	1
H	4.136060	1.434740	0.015210	1
H	2.697030	1.988820	0.888500	1
Es	2.508789	0.016696	0.008259	99
Es	0.990498	-0.013322	0.004122	99
Es	3.041432	1.438884	0.006469	99
Es	2.771934	0.734873	0.007491	99
Es	0.720719	0.330482	-0.595797	99
Es	2.803871	1.811093	0.603103	99
Es	2.813449	1.805844	-0.597379	99
Es	2.762956	-0.343459	0.610001	99
Es	3.792552	1.438906	0.012536	99
Es	0.717665	0.327377	0.604726	99
Es	0.741049	-0.721922	0.001563	99
Es	1.744030	0.007035	0.005986	99
Es	2.766538	-0.346117	-0.590340	99
