17
Properties=species:S:1:pos:R:3:Z:I:1 energy=-131.97450708370206 field_type=dipole dipole="0.000000 0.000000 0.000000" charge=0
C	1.000000	0.000000	0.000000	6
C	2.444000	0.000000	0.000000	6
N	3.595010	0.000000	0.000000	7
H	0.606430	1.021520	0.011690	1
H	0.606420	-0.520890	0.878830	1
H	0.606430	-0.500630	-0.890500	1
Es	3.599210	-0.000000	0.000000	99
Es	1.000476	0.000000	-0.000000	99
Es	2.443608	-0.000000	0.000000	99
Es	3.014190	-0.000012	0.000052	99
Es	1.811282	-0.000005	0.000018	99
Es	0.760666	0.662262	0.007580	99
Es	0.760665	-0.324567	-0.577323	99
Es	0.760664	-0.337693	0.569747	99
Es	3.948801	-0.000001	0.000004	99
Es	3.083184	-0.000775	-0.000675	99
Es	3.083184	0.000791	0.000608	99
