25
Properties=species:S:1:pos:R:3:Z:I:1 energy=-154.95716900966866 field_type=dipole dipole="0.000000 0.000000 0.000000" charge=0
C	1.000120	-0.054800	0.002960	6
C	2.520000	0.000000	0.000000	6
C	3.002020	1.361170	0.000000	6
C	3.399300	2.483070	0.000000	6
H	0.658160	-1.094070	0.002060	1
H	0.584950	0.441120	-0.880590	1
H	0.588560	0.438410	0.889710	1
H	2.895760	-0.532790	-0.880760	1
H	2.899280	-0.534150	0.878430	1
H	3.754860	3.487710	0.000000	1
Es	2.520099	0.000387	-0.000000	99
Es	3.001832	1.360691	0.000000	99
Es	1.000858	-0.054741	0.002959	99
Es	3.399665	2.484082	0.000000	99
Es	1.783549	0.001141	0.001452	99
Es	3.477657	2.801847	0.000057	99
Es	0.770041	-0.766989	0.002346	99
Es	3.274538	2.233349	0.000092	99
Es	2.783425	0.733167	0.000018	99
Es	2.781062	-0.332494	0.588803	99
Es	2.778711	-0.331588	-0.590357	99
Es	0.724914	0.278860	-0.589406	99
Es	0.727313	0.277072	0.597463	99
Es	3.233221	1.929419	0.027140	99
Es	3.233301	1.929386	-0.027277	99
