30
Properties=species:S:1:pos:R:3:Z:I:1 energy=-173.3528979528423 field_type=dipole dipole="0.000000 0.000000 0.000000" charge=0
C	0.988760	-0.030250	-0.001580	6
C	2.509080	0.011590	0.002480	6
C	3.025730	1.448180	0.008880	6
N	4.483590	1.461290	0.004310	7
H	0.638340	-1.067050	-0.006180	1
H	0.585010	0.468750	-0.888280	1
H	0.580450	0.462550	0.886500	1
H	2.883800	-0.519170	-0.881200	1
H	2.878520	-0.526320	0.884030	1
H	2.660400	1.978560	0.895220	1
H	2.660900	1.983800	-0.874150	1
H	4.834210	0.990790	0.836890	1
H	4.812720	2.424500	0.060720	1
Es	4.483798	1.461036	0.003989	99
Es	3.026165	1.447647	0.008891	99
Es	2.508912	0.011805	0.002480	99
Es	0.989389	-0.030194	-0.001582	99
Es	3.904722	1.478643	0.053244	99
Es	2.766501	0.729470	0.002742	99
Es	0.712883	0.307863	0.597981	99
Es	2.777804	1.817550	-0.589841	99
Es	2.765226	1.810291	0.620319	99
Es	4.640256	2.028148	0.084334	99
Es	4.653307	1.221075	0.517056	99
Es	0.717833	0.312366	-0.601927	99
Es	0.749253	-0.741554	-0.003839	99
Es	1.740038	-0.001079	0.006262	99
Es	2.762848	-0.345508	-0.592677	99
Es	2.766416	-0.347612	0.603660	99
Es	4.612480	1.282121	-0.327306	99
