21
Properties=species:S:1:pos:R:3:Z:I:1 energy=-169.82635259937788 field_type=dipole dipole="0.000000 0.000000 0.000000" charge=0
C	0.977710	-0.003580	-0.000000	6
C	2.316050	0.022730	0.000000	6
C	3.055690	1.236960	0.000000	6
N	3.663170	2.224800	0.000000	7
H	0.441270	-0.947000	-0.000000	1
H	0.385750	0.908920	-0.000000	1
H	2.882290	-0.901300	0.000000	1
Es	3.664246	2.226597	0.000000	99
Es	2.316239	0.023001	-0.000000	99
Es	0.978216	-0.003465	0.000000	99
Es	3.055530	1.236635	-0.000000	99
Es	3.345179	1.771144	-0.000000	99
Es	0.615484	0.608794	0.000000	99
Es	2.698568	0.658019	-0.000000	99
Es	2.707681	-0.579847	-0.000000	99
Es	1.604041	0.027812	0.000000	99
Es	0.648554	-0.629890	0.000000	99
Es	3.843442	2.527587	0.000000	99
Es	3.377344	1.770866	0.000000	99
Es	3.413471	1.761088	0.000000	99
Es	1.743169	0.045378	-0.000000	99
