18
Properties=species:S:1:pos:R:3:Z:I:1 energy=-168.5903033827901 field_type=dipole dipole="0.000000 0.000000 0.000000" charge=0
C	0.939530	0.000000	0.000000	6
C	2.140230	0.000000	0.000000	6
C	3.676370	0.000000	0.000000	6
N	4.836330	0.000000	0.000000	7
H	-0.126000	0.000000	0.000000	1
Es	4.836705	0.000000	-0.000000	99
Es	3.675603	-0.000000	-0.000000	99
Es	2.141236	-0.000000	0.000000	99
Es	0.935923	0.000000	-0.000000	99
Es	4.051059	-0.000000	0.000000	99
Es	1.084882	0.000000	-0.000000	99
Es	2.907811	-0.000000	-0.000000	99
Es	1.001488	0.000000	0.000000	99
Es	5.162925	0.000000	0.000000	99
Es	4.288370	0.000000	-0.000000	99
Es	4.288370	-0.000000	-0.000000	99
Es	1.592205	-0.000000	-0.000000	99
Es	1.592205	-0.000000	0.000000	99
