26
Properties=species:S:1:pos:R:3:Z:I:1 energy=-191.98129564908643 field_type=dipole dipole="0.000000 0.000000 0.000000" charge=0
C	0.351110	1.065650	-0.073450	6
C	0.971410	-0.300400	0.200130	6
O	-0.324770	-0.944290	0.135860	8
C	-0.981350	0.345060	0.115910	6
H	0.574870	1.838880	0.664060	1
H	0.520330	1.446480	-1.084410	1
H	1.424290	-0.422250	1.188670	1
H	1.649920	-0.671030	-0.572240	1
H	-1.684000	0.433360	-0.715860	1
H	-1.492030	0.543560	1.062920	1
Es	-0.324625	-0.943833	0.135972	99
Es	0.970767	-0.300264	0.200015	99
Es	-0.980743	0.344786	0.115848	99
Es	0.350940	1.065167	-0.073175	99
Es	-0.419519	-1.235713	0.096400	99
Es	-0.354055	0.791408	0.013092	99
Es	1.443715	-0.557462	-0.326011	99
Es	-1.326382	0.486600	0.767157	99
Es	-1.470993	0.407461	-0.451671	99
Es	0.504098	1.592640	0.420410	99
Es	-0.570495	-0.481787	0.130366	99
Es	1.280846	-0.376311	0.879549	99
Es	0.464955	1.321350	-0.754649	99
Es	0.744330	0.428039	0.060439	99
Es	0.147946	-0.719494	0.161372	99
Es	-0.311666	-0.900266	0.167897	99
