29
Properties=species:S:1:pos:R:3:Z:I:1 energy=-193.19119141740256 field_type=dipole dipole="0.000000 0.000000 0.000000" charge=0
C	0.990770	-0.028520	-0.005260	6
C	2.507390	0.023660	0.010200	6
C	3.023640	1.455220	0.016160	6
O	4.444960	1.456050	0.012370	8
H	0.646630	-1.067620	-0.009130	1
H	0.589630	0.465040	-0.896880	1
H	0.571710	0.464630	0.878010	1
H	2.907720	-0.506850	-0.861280	1
H	2.887980	-0.509130	0.888880	1
H	2.678420	2.001070	0.900990	1
H	2.684200	1.996620	-0.873580	1
H	4.739640	0.988920	0.812970	1
Es	4.444993	1.456005	0.012794	99
Es	3.023880	1.454819	0.016192	99
Es	2.507185	0.023779	0.010201	99
Es	0.991337	-0.028438	-0.005256	99
Es	4.623202	1.616226	-0.193251	99
Es	2.756505	0.734512	0.009271	99
Es	0.756199	-0.738061	-0.006724	99
Es	2.777058	-0.331717	-0.577100	99
Es	2.779150	1.821160	0.630423	99
Es	3.942417	1.432097	0.042528	99
Es	4.556992	1.206099	0.436665	99
Es	0.709429	0.310328	0.591098	99
Es	0.723281	0.310207	-0.608274	99
Es	1.742966	0.003849	0.006301	99
Es	2.789847	1.825431	-0.588607	99
Es	2.773040	-0.330025	0.614978	99
Es	4.424306	1.416610	0.021076	99
