26
Properties=species:S:1:pos:R:3:Z:I:1 energy=-192.0213780471325 field_type=dipole dipole="0.000000 0.000000 0.000000" charge=0
C	0.984690	-0.032190	-0.053830	6
C	2.493930	0.024130	0.074180	6
C	2.969730	1.451610	0.037400	6
O	3.716710	1.935590	0.882450	8
H	0.636930	-1.069200	-0.025510	1
H	0.652260	0.415480	-0.996170	1
H	0.502040	0.515490	0.762210	1
H	2.967430	-0.513260	-0.753430	1
H	2.813600	-0.435390	1.014780	1
H	2.653620	2.042540	-0.839390	1
Es	3.716427	1.935258	0.882204	99
Es	2.969524	1.451599	0.037100	99
Es	2.493964	0.024622	0.074102	99
Es	0.985309	-0.032104	-0.053753	99
Es	3.410997	1.751695	0.544149	99
Es	0.751245	-0.735395	-0.035079	99
Es	2.743249	0.752764	0.061335	99
Es	2.736501	1.841273	-0.569117	99
Es	2.803964	-0.320754	-0.478177	99
Es	3.878537	2.076272	1.047011	99
Es	2.699531	-0.284535	0.690473	99
Es	1.758964	0.013650	0.007395	99
Es	0.665064	0.338866	0.492226	99
Es	0.766091	0.273595	-0.689168	99
Es	3.489091	1.786784	0.622812	99
Es	3.676777	1.867191	0.862234	99
