25
Properties=species:S:1:pos:R:3:Z:I:1 energy=-207.9630231928188 field_type=dipole dipole="0.000000 0.000000 0.000000" charge=0
C	0.992300	0.005430	-0.006910	6
C	2.486660	0.067620	0.026100	6
N	3.099680	1.200220	-0.106660	7
O	4.475430	0.979270	0.007250	8
H	0.676840	-1.030140	-0.150070	1
H	0.605330	0.625860	-0.820720	1
H	0.598670	0.368850	0.946870	1
H	3.028860	-0.871480	0.222870	1
H	4.838630	1.883930	-0.063100	1
Es	4.475546	0.979712	0.007216	99
Es	3.099645	1.200601	-0.106705	99
Es	2.486606	0.067381	0.026103	99
Es	0.992760	0.005551	-0.006934	99
Es	4.596712	0.695987	0.052517	99
Es	2.844403	0.649937	-0.076551	99
Es	0.733703	0.413120	-0.539051	99
Es	2.780296	-0.535304	0.145850	99
Es	4.634770	1.458735	-0.032573	99
Es	3.903568	1.058644	-0.036751	99
Es	4.443669	1.000493	-0.003778	99
Es	0.739910	0.239887	0.614612	99
Es	0.782976	-0.692185	-0.102734	99
Es	1.841411	0.048287	0.010484	99
Es	2.966865	1.564673	-0.170889	99
Es	2.835804	0.737177	-0.018819	99
