28
Properties=species:S:1:pos:R:3:Z:I:1 energy=-156.164891037012 field_type=dipole dipole="0.000000 0.000000 0.000000" charge=0
C	0.992170	-0.018990	-0.016140	6
C	2.492490	0.026850	-0.001750	6
C	3.209730	-1.292210	-0.006910	6
C	3.171210	1.184890	0.018680	6
H	0.550030	0.981220	-0.013270	1
H	0.621160	-0.550620	0.867020	1
H	0.637600	-0.539610	-0.911200	1
H	2.506060	-2.128150	0.055510	1
H	3.887840	-1.368230	0.849830	1
H	3.786230	-1.411410	-0.929460	1
H	2.661800	2.143200	0.021990	1
H	4.255970	1.203060	0.027230	1
Es	2.492393	0.026828	-0.001749	99
Es	0.992355	-0.019065	-0.016140	99
Es	3.209559	-1.291848	-0.006919	99
Es	3.170864	1.183586	0.018679	99
Es	1.742008	-0.002003	-0.010097	99
Es	0.693023	0.659795	-0.014511	99
Es	2.879005	0.701372	0.018185	99
Es	2.798158	1.768241	0.021599	99
Es	3.883426	1.157970	0.024320	99
Es	3.664099	-1.330727	0.560401	99
Es	0.767551	-0.375347	-0.619714	99
Es	3.594265	-1.359789	-0.620158	99
Es	2.730381	-1.858350	0.035968	99
Es	0.756550	-0.382641	0.579516	99
Es	2.848480	-0.619333	-0.003037	99
Es	2.856109	0.665685	0.000679	99
