33
Properties=species:S:1:pos:R:3:Z:I:1 energy=-231.0704653316448 field_type=dipole dipole="0.000000 0.000000 0.000000" charge=0
C	0.957300	-0.029640	0.005170	6
C	2.476990	-0.008370	0.004550	6
C	3.016010	1.416860	0.008580	6
C	4.525020	1.466820	0.007160	6
O	5.257140	0.483700	-0.004360	8
H	0.592380	-1.061580	0.003720	1
H	0.557620	0.473180	-0.881360	1
H	0.558240	0.470490	0.893480	1
H	2.846080	-0.545950	-0.877140	1
H	2.846940	-0.550900	0.882860	1
H	2.669730	1.954490	0.897980	1
H	2.667720	1.960900	-0.876110	1
H	4.955670	2.483050	0.016000	1
Es	5.256490	0.483764	-0.004358	99
Es	4.524550	1.467041	0.007163	99
Es	3.016460	1.416904	0.008581	99
Es	2.477005	-0.008073	0.004551	99
Es	0.957900	-0.029581	0.005170	99
Es	5.516084	0.371820	-0.005971	99
Es	4.782217	2.169204	0.013405	99
Es	0.706453	-0.735028	0.004185	99
Es	2.761194	0.728150	0.006449	99
Es	2.795870	1.775320	0.591342	99
Es	3.807111	1.441782	0.007832	99
Es	2.795089	1.779239	-0.570741	99
Es	4.965511	0.872745	0.000460	99
Es	0.689712	0.317750	-0.594114	99
Es	0.690142	0.315882	0.605682	99
Es	1.714372	-0.008640	0.005040	99
Es	5.035467	0.780259	-0.001059	99
Es	2.722311	-0.366229	0.594525	99
Es	2.721557	-0.362915	-0.587607	99
Es	5.109486	0.440169	-0.004501	99
