36
Properties=species:S:1:pos:R:3:Z:I:1 energy=-232.23385624604597 field_type=dipole dipole="0.000000 0.000000 0.000000" charge=0
C	1.132260	-0.123890	-0.158330	6
C	2.631330	-0.145040	0.067960	6
O	3.152820	1.145590	-0.238030	8
C	4.562870	1.204840	-0.042790	6
C	5.035850	2.603270	-0.386270	6
H	0.690230	-1.097950	0.067970	1
H	0.903550	0.135990	-1.196460	1
H	0.658750	0.634820	0.472440	1
H	3.095810	-0.895580	-0.582060	1
H	2.846580	-0.393130	1.113690	1
H	5.057840	0.474630	-0.691990	1
H	4.802020	0.977950	1.001700	1
H	4.790840	2.849280	-1.425390	1
H	6.117000	2.695270	-0.247930	1
H	4.534650	3.345990	0.243050	1
Es	3.153119	1.145177	-0.237862	99
Es	2.631029	-0.144743	0.067827	99
Es	4.562684	1.205218	-0.042930	99
Es	5.035679	2.602859	-0.386174	99
Es	1.132718	-0.123866	-0.158270	99
Es	2.970134	1.398552	-0.341127	99
Es	4.877068	2.766212	-1.087447	99
Es	0.812644	0.381803	0.270931	99
Es	4.725874	1.040478	0.676724	99
Es	2.787502	-0.316975	0.787776	99
Es	4.901619	0.694917	-0.486181	99
Es	2.994330	0.649407	-0.113953	99
Es	2.958680	-0.662207	-0.376616	99
Es	4.798486	1.905765	-0.215172	99
Es	0.842226	-0.789812	-0.001841	99
Es	0.978290	0.044279	-0.858503	99
Es	5.771040	2.654646	-0.288821	99
Es	1.880719	-0.132900	-0.045797	99
Es	4.703682	3.102380	0.041877	99
Es	3.681072	1.129375	-0.153503	99
Es	3.171212	1.120136	-0.227568	99
