33
Properties=species:S:1:pos:R:3:Z:I:1 energy=-231.01843574594548 field_type=dipole dipole="0.000000 0.000000 0.000000" charge=0
C	2.536310	-0.927740	-0.860520	6
O	2.016310	0.313960	-0.407180	8
C	3.045580	1.225430	0.019840	6
C	3.503900	2.226770	-1.001760	6
C	2.613850	2.660800	0.124880	6
H	1.701830	-1.556630	-1.182660	1
H	3.067030	-1.435150	-0.049040	1
H	3.208670	-0.772290	-1.709920	1
H	3.763530	0.880200	0.758190	1
H	3.073640	2.175430	-1.995180	1
H	4.541660	2.534350	-0.978870	1
H	3.045690	3.261690	0.916470	1
H	1.580110	2.895650	-0.101750	1
Es	2.016826	0.313880	-0.407171	99
Es	3.045258	1.225896	0.019459	99
Es	2.536162	-0.927402	-0.860407	99
Es	3.503513	2.226600	-1.001038	99
Es	2.614261	2.660420	0.124681	99
Es	1.707157	0.392109	-0.356323	99
Es	3.058127	2.613222	-0.500186	99
Es	3.005166	-0.820146	-1.432395	99
Es	3.219765	2.180241	-1.657195	99
Es	3.534250	0.972578	0.507562	99
Es	2.903938	3.056894	0.655600	99
Es	1.931647	2.809256	-0.023765	99
Es	2.907495	-1.272764	-0.303727	99
Es	2.252794	-0.131775	-0.572770	99
Es	2.431764	0.609008	-0.253979	99
Es	4.205029	2.430945	-0.984391	99
Es	1.966944	-1.356761	-1.087309	99
Es	2.052272	0.328405	-0.448214	99
Es	2.718670	1.925664	0.242353	99
Es	3.397372	1.593712	-0.606028	99
