36
Properties=species:S:1:pos:R:3:Z:I:1 energy=-232.2298200950599 field_type=dipole dipole="0.000000 0.000000 0.000000" charge=0
C	1.019320	-0.098670	0.138210	6
O	2.413600	0.078170	0.348170	8
C	2.859510	1.418700	0.128870	6
C	2.492760	2.315920	1.306490	6
C	4.373580	1.362870	-0.039250	6
H	0.790790	-1.162930	0.244770	1
H	0.736830	0.215960	-0.871140	1
H	0.437590	0.450600	0.883070	1
H	2.420900	1.810710	-0.796180	1
H	2.842310	1.884870	2.251780	1
H	1.407430	2.429990	1.393380	1
H	2.925830	3.315410	1.193910	1
H	4.854120	0.943840	0.852450	1
H	4.791670	2.356520	-0.229120	1
H	4.640030	0.707900	-0.876420	1
Es	2.413336	0.078622	0.348024	99
Es	2.859554	1.418598	0.128925	99
Es	1.019640	-0.098603	0.138230	99
Es	2.492874	2.315505	1.305946	99
Es	4.372894	1.362910	-0.039181	99
Es	2.632744	-0.167246	0.348503	99
Es	4.688722	1.087843	0.570491	99
Es	2.670532	1.878327	0.724194	99
Es	0.826718	0.132685	-0.550760	99
Es	2.529732	0.572881	0.256696	99
Es	0.624123	0.286259	0.641666	99
Es	3.627149	1.390581	0.042682	99
Es	1.876821	0.062030	0.262511	99
Es	4.554722	0.922850	-0.613158	99
Es	2.792106	2.993657	1.224031	99
Es	2.734232	2.022616	1.937170	99
Es	4.641791	2.048303	-0.163127	99
Es	1.749773	2.391621	1.362192	99
Es	0.860000	-0.827969	0.210316	99
Es	2.548605	1.683548	-0.503664	99
Es	2.386220	0.117341	0.426766	99
