32
Properties=species:S:1:pos:R:3:Z:I:1 energy=-194.00353160341245 field_type=dipole dipole="0.000000 0.000000 0.000000" charge=0
C	1.910490	-0.660830	-1.190420	6
C	2.068250	0.296400	-0.267060	6
C	3.236950	1.166540	-0.130810	6
C	3.510150	2.197690	-1.194440	6
C	3.018760	2.629280	0.155980	6
H	1.012070	-1.268680	-1.216120	1
H	2.674320	-0.851690	-1.937340	1
H	1.270420	0.436480	0.461890	1
H	4.095720	0.696850	0.338930	1
H	2.827070	2.282100	-2.032460	1
H	4.544760	2.398440	-1.448090	1
H	3.720750	3.124570	0.817320	1
H	2.005440	3.008930	0.225600	1
Es	3.236674	1.166932	-0.131098	99
Es	2.068177	0.296475	-0.266997	99
Es	3.509973	2.197461	-1.193636	99
Es	3.018973	2.628725	0.155556	99
Es	1.910302	-0.660225	-1.189928	99
Es	3.264528	2.582089	-0.569323	99
Es	1.997768	-0.220232	-0.802899	99
Es	2.646612	0.716494	-0.205401	99
Es	2.340900	2.869852	0.203338	99
Es	1.539013	0.409043	0.242361	99
Es	3.492158	2.962247	0.604516	99
Es	3.052490	2.246094	-1.744619	99
Es	1.310196	-1.041805	-1.199382	99
Es	2.424899	-0.752493	-1.660841	99
Es	4.208281	2.325328	-1.370160	99
Es	3.813104	0.853668	0.172869	99
Es	3.414609	1.529784	-0.805063	99
Es	3.051888	1.867971	0.204269	99
Es	1.984862	-0.201838	-0.726204	99
