27
Properties=species:S:1:pos:R:3:Z:I:1 energy=-228.6663698489971 field_type=dipole dipole="0.000000 0.000000 0.000000" charge=0
O	1.295270	-0.340830	0.730610	8
C	2.244760	-0.057240	0.004230	6
C	3.003390	1.239380	0.096860	6
C	4.450100	1.014880	-0.013470	6
C	5.635690	0.839960	-0.103270	6
H	2.527830	-0.723070	-0.829540	1
H	2.761170	1.724970	1.047460	1
H	2.658090	1.884210	-0.717630	1
H	6.688169	0.689460	-0.178380	1
Es	1.295620	-0.340592	0.730431	99
Es	2.245075	-0.057361	0.003865	99
Es	3.003574	1.239087	0.096774	99
Es	4.449725	1.014969	-0.013476	99
Es	5.637409	0.839495	-0.103360	99
Es	1.681665	-0.220401	0.435480	99
Es	3.771159	1.106137	0.037098	99
Es	5.315254	0.864263	-0.094387	99
Es	2.636109	0.579646	0.056832	99
Es	5.981615	0.773611	-0.140852	99
Es	2.463311	-0.492515	-0.564070	99
Es	2.805036	1.637879	-0.436783	99
Es	1.081387	-0.440167	0.868273	99
Es	2.870538	1.557915	0.706387	99
Es	1.594462	-0.255316	0.511454	99
Es	1.354208	-0.283641	0.716011	99
Es	5.044462	0.956242	-0.032335	99
Es	5.050723	0.928686	-0.063967	99
