32
Properties=species:S:1:pos:R:3:Z:I:1 energy=-247.09417450160137 field_type=dipole dipole="0.000000 0.000000 0.000000" charge=0
C	0.948780	-0.213430	0.086590	6
C	2.439270	0.063060	0.006250	6
N	2.728390	1.474550	0.136010	7
C	2.685710	2.326180	-0.937400	6
O	2.440230	2.012010	-2.092120	8
H	0.755150	-1.287410	0.006680	1
H	0.408250	0.293190	-0.719640	1
H	0.536700	0.140490	1.037440	1
H	2.836860	-0.300260	-0.947410	1
H	2.963660	-0.452460	0.816880	1
H	2.883270	1.861900	1.057470	1
H	2.903570	3.366120	-0.642630	1
Es	2.440232	2.011803	-2.091779	99
Es	2.728375	1.474604	0.136010	99
Es	2.685871	2.326876	-0.936838	99
Es	2.439206	0.063499	0.006277	99
Es	0.949253	-0.213323	0.086568	99
Es	2.411336	2.061734	-2.377339	99
Es	2.786702	1.711809	0.667159	99
Es	1.691874	-0.070573	0.043028	99
Es	2.572810	0.887287	0.097607	99
Es	2.831240	3.017199	-0.710090	99
Es	2.678059	1.865938	-0.346644	99
Es	2.535192	2.119687	-1.596999	99
Es	2.794872	-0.281381	0.564415	99
Es	0.672970	0.031450	0.738221	99
Es	2.500508	2.089425	-1.815827	99
Es	0.820042	-0.944809	0.033638	99
Es	0.591309	0.126347	-0.452145	99
Es	2.710775	-0.176427	-0.627950	99
Es	2.438655	1.919474	-1.995414	99
Es	2.847622	1.551615	0.027573	99
