35
Properties=species:S:1:pos:R:3:Z:I:1 energy=-248.23604321504098 field_type=dipole dipole="0.000000 0.000000 0.000000" charge=0
N	1.168150	-0.176750	0.053200	7
C	2.626830	-0.119310	0.098200	6
C	3.100820	1.328310	-0.028910	6
C	4.620690	1.432010	-0.019470	6
O	5.159330	0.947580	1.203970	8
H	0.870540	-1.148420	0.134630	1
H	0.839450	0.144110	-0.856400	1
H	3.039160	-0.728060	-0.713690	1
H	2.967200	-0.550390	1.045470	1
H	2.692570	1.913490	0.805080	1
H	2.720700	1.768460	-0.958800	1
H	4.933640	2.473390	-0.142210	1
H	5.056490	0.850010	-0.836710	1
H	4.767750	1.473210	1.923920	1
Es	5.159180	0.947922	1.204166	99
Es	1.167996	-0.176513	0.053392	99
Es	4.620375	1.431786	-0.019072	99
Es	2.626414	-0.118665	0.098118	99
Es	3.101005	1.328146	-0.028876	99
Es	5.407177	0.751946	1.218179	99
Es	1.750022	-0.181222	0.027753	99
Es	3.856992	1.369509	-0.037578	99
Es	2.919492	-0.532793	-0.463214	99
Es	2.840351	1.626071	-0.659285	99
Es	4.930263	1.237876	1.550678	99
Es	2.870797	0.609013	0.035763	99
Es	1.031894	-0.752876	0.056294	99
Es	1.012205	-0.024283	-0.498700	99
Es	2.837629	1.728489	0.542498	99
Es	2.850806	-0.413630	0.733473	99
Es	5.105574	0.941456	1.204370	99
Es	4.915204	1.034403	-0.574406	99
Es	4.940804	1.134434	0.793398	99
Es	4.822812	2.157482	-0.105543	99
Es	1.021529	0.047635	0.349155	99
