31
Properties=species:S:1:pos:R:3:Z:I:1 energy=-551.3797066966249 field_type=dipole dipole="0.000000 0.000000 0.000000" charge=0
S	-0.517510	-1.270120	-0.002790	16
C	-1.302910	0.250960	-0.019090	6
C	-0.406050	1.296210	-0.035950	6
C	0.944970	0.841430	-0.035460	6
C	1.027070	-0.533650	-0.018250	6
H	-2.383010	0.303660	-0.015520	1
H	-0.704820	2.337390	-0.048050	1
H	1.812950	1.489750	-0.047140	1
H	1.919190	-1.144580	-0.013970	1
Es	-0.518475	-1.272987	-0.002750	99
Es	-1.302642	0.250548	-0.019086	99
Es	1.026607	-0.533816	-0.018246	99
Es	0.944913	0.841424	-0.035460	99
Es	-0.406008	1.296171	-0.035950	99
Es	-0.391466	-1.262486	-0.003382	99
Es	-0.613044	-1.187532	-0.003468	99
Es	-0.550494	-1.367761	-0.001421	99
Es	-0.517481	-1.270034	-0.002786	99
Es	0.237958	-0.895604	-0.010533	99
Es	-0.598190	1.968927	-0.043771	99
Es	-0.850142	0.780550	-0.027635	99
Es	1.618684	-0.940524	-0.015389	99
Es	-2.020222	0.284487	-0.016700	99
Es	0.986752	0.162015	-0.026952	99
Es	1.504940	1.260892	-0.043010	99
Es	0.268763	1.066587	-0.035673	99
Es	-0.893014	-0.514753	-0.010942	99
Es	-0.772516	0.727581	-0.027246	99
Es	-0.658544	-1.689224	0.003112	99
Es	-0.440987	-1.043108	-0.005989	99
Es	0.892863	0.167171	-0.026668	99
