29
Properties=species:S:1:pos:R:3:Z:I:1 energy=-192.81319932427184 field_type=dipole dipole="0.000000 0.000000 0.000000" charge=0
C	0.976360	0.005020	-0.006680	6
C	2.477240	-0.006490	-0.002590	6
C	3.162510	-1.159750	0.005270	6
C	3.192770	1.227650	-0.004090	6
C	3.792280	2.266840	-0.004040	6
H	0.582260	1.026830	0.020090	1
H	0.583330	-0.523120	0.868610	1
H	0.589940	-0.475470	-0.911790	1
H	2.652550	-2.117630	0.007210	1
H	4.248370	-1.177130	0.009060	1
H	4.326250	3.190080	-0.004010	1
Es	2.477714	-0.005785	-0.002592	99
Es	3.192689	1.227715	-0.004088	99
Es	3.162016	-1.158285	0.005261	99
Es	0.977149	0.005375	-0.006680	99
Es	3.794074	2.269535	-0.004025	99
Es	3.791813	-1.049919	0.007573	99
Es	3.992751	2.633441	-0.004306	99
Es	0.738816	0.705842	0.011366	99
Es	2.832599	0.607370	-0.003796	99
Es	3.570358	1.901069	-0.002921	99
Es	2.947901	-0.705637	0.003830	99
Es	2.803292	-1.737389	0.005961	99
Es	0.739772	-0.321525	-0.607739	99
Es	0.734346	-0.353372	0.573968	99
Es	1.749063	0.049840	-0.003463	99
Es	3.481948	1.725848	-0.005722	99
Es	3.508844	1.750699	-0.004030	99
Es	2.847406	-0.540432	-0.000554	99
