32
Properties=species:S:1:pos:R:3:Z:I:1 energy=-194.0049979435865 field_type=dipole dipole="0.000000 0.000000 0.000000" charge=0
C	0.993190	-0.031710	0.010600	6
C	2.520000	0.000000	0.000000	6
C	3.060090	-0.764150	-1.208410	6
C	3.002020	1.361170	0.000000	6
C	3.399300	2.483070	0.000000	6
H	0.595250	0.488270	0.890130	1
H	0.624320	-1.063160	0.036880	1
H	0.573710	0.454730	-0.878310	1
H	2.874920	-0.506160	0.906280	1
H	2.732170	-0.309910	-2.150210	1
H	2.716850	-1.803780	-1.196280	1
H	4.155640	-0.772660	-1.208810	1
H	3.754950	3.487660	-0.000160	1
Es	2.520093	0.000282	-0.000010	99
Es	3.001864	1.360601	0.000077	99
Es	0.994013	-0.031619	0.010561	99
Es	3.059805	-0.763662	-1.207792	99
Es	3.399704	2.484334	-0.000075	99
Es	0.727899	0.324253	0.606095	99
Es	3.465712	2.714666	-0.026498	99
Es	2.822106	-1.468442	-1.194544	99
Es	2.776513	0.731631	-0.004369	99
Es	3.329286	2.321467	-0.021785	99
Es	2.767729	-0.315360	0.609642	99
Es	1.778341	-0.003226	-0.003921	99
Es	2.780928	-0.358243	-0.595002	99
Es	2.833123	-0.455821	-1.834457	99
Es	0.750060	-0.734736	0.027022	99
Es	0.720867	0.292632	-0.589364	99
Es	3.802315	-0.764830	-1.206711	99
Es	3.225356	1.927900	0.038425	99
Es	3.208370	1.941842	0.001299	99
