34
Properties=species:S:1:pos:R:3:Z:I:1 energy=-211.19482637152572 field_type=dipole dipole="0.000000 0.000000 0.000000" charge=0
C	0.846250	-0.009770	-0.234000	6
C	2.323250	-0.029410	0.050410	6
C	2.691400	-0.007000	1.508360	6
C	3.227490	-0.769330	-0.911580	6
N	3.189120	0.689290	-0.892110	7
H	0.631830	-0.003600	-1.308490	1
H	0.384490	0.880880	0.204990	1
H	0.365830	-0.893740	0.198050	1
H	3.775930	-0.029350	1.661980	1
H	2.264430	-0.875790	2.020090	1
H	2.302950	0.898390	1.986310	1
H	2.790030	-1.240450	-1.783640	1
H	4.132700	-1.236250	-0.542620	1
H	4.011540	1.071870	-0.422550	1
Es	3.005731	0.891884	-1.169557	99
Es	2.323371	-0.029379	0.049858	99
Es	3.227346	-0.768844	-0.911421	99
Es	2.691336	-0.007022	1.508004	99
Es	0.846664	-0.009805	-0.233994	99
Es	3.273991	0.041901	-0.910818	99
Es	2.421910	0.608945	1.824173	99
Es	0.544025	0.594895	0.072442	99
Es	2.926007	-1.082859	-1.503594	99
Es	2.511070	-0.015530	0.771187	99
Es	3.654457	0.867695	-0.576122	99
Es	2.722852	-0.609164	-0.376385	99
Es	2.404708	-0.589844	1.842968	99
Es	0.712352	-0.011036	-0.964532	99
Es	0.537958	-0.611129	0.066264	99
Es	3.435109	-0.022153	1.601271	99
Es	1.588477	-0.008964	-0.095964	99
Es	3.189557	0.688997	-0.891767	99
Es	3.841115	-1.087465	-0.643349	99
Es	2.857209	0.512632	-0.484908	99
