34
Properties=species:S:1:pos:R:3:Z:I:1 energy=-211.1972879384046 field_type=dipole dipole="0.000000 0.000000 0.000000" charge=0
C	0.901680	0.050910	-0.205250	6
C	2.383510	-0.006390	0.063350	6
N	2.756370	-0.039800	1.483840	7
C	3.250340	-0.762800	-0.912530	6
C	3.294270	0.738660	-0.880460	6
H	0.679790	0.083540	-1.277540	1
H	0.464800	0.943640	0.254830	1
H	0.404370	-0.830980	0.212600	1
H	3.767090	-0.085920	1.602310	1
H	2.383860	-0.877780	1.930050	1
H	2.779150	-1.235970	-1.766920	1
H	4.114270	-1.301530	-0.541440	1
H	4.180000	1.217000	-0.478610	1
H	2.850730	1.278700	-1.709580	1
Es	2.756245	-0.039560	1.484274	99
Es	2.383554	-0.006344	0.063245	99
Es	3.294180	0.737799	-0.880173	99
Es	0.902197	0.050882	-0.205213	99
Es	3.250219	-0.761967	-0.912362	99
Es	2.633101	-0.072567	0.893501	99
Es	2.935516	-1.079037	-1.478302	99
Es	0.576554	-0.554612	0.082864	99
Es	2.993664	1.097144	-1.425396	99
Es	3.327429	-0.110348	1.502624	99
Es	3.815652	-1.120059	-0.654801	99
Es	3.386021	-0.012227	-1.007896	99
Es	2.574295	-0.554197	1.685236	99
Es	0.616091	0.656000	0.105252	99
Es	0.765281	0.069645	-0.934175	99
Es	1.658736	0.018798	-0.068371	99
Es	3.874092	1.052782	-0.607639	99
Es	2.610673	0.287478	1.662535	99
Es	2.796085	0.575256	-0.356395	99
Es	2.759936	-0.605006	-0.393422	99
