28
Properties=species:S:1:pos:R:3:Z:I:1 energy=-208.87846553731478 field_type=dipole dipole="0.000000 0.000000 0.000000" charge=0
C	0.926950	-0.011840	0.010520	6
C	2.419930	0.005480	0.018180	6
C	3.139020	1.137990	0.000000	6
C	4.545020	1.137990	0.000000	6
N	5.696030	1.137990	0.000000	7
H	0.566050	-1.045400	-0.043280	1
H	0.531610	0.523530	-0.858880	1
H	0.526920	0.434880	0.925820	1
H	2.920990	-0.961110	0.036350	1
H	2.646020	2.104020	-0.017810	1
Es	5.698074	1.137940	-0.000000	99
Es	2.420110	0.004814	0.018188	99
Es	3.139361	1.138023	-0.000017	99
Es	4.544318	1.138119	-0.000007	99
Es	0.927216	-0.011859	0.010541	99
Es	5.156599	0.970458	0.009277	99
Es	2.717459	-0.598896	0.030250	99
Es	3.878015	1.141154	-0.001749	99
Es	0.682988	-0.709149	-0.025083	99
Es	2.812165	1.781906	-0.012165	99
Es	2.770486	0.542074	0.026652	99
Es	0.680199	0.288344	0.603369	99
Es	0.681537	0.346820	-0.551868	99
Es	6.039646	1.124522	0.000059	99
Es	1.776856	0.026240	0.014984	99
Es	5.175481	1.131707	-0.003214	99
Es	5.158038	1.292151	-0.005140	99
Es	2.897008	0.661572	-0.008280	99
