34
Properties=species:S:1:pos:R:3:Z:I:1 energy=-211.2094931159862 field_type=dipole dipole="0.000000 0.000000 0.000000" charge=0
C	1.034590	0.017920	0.161910	6
C	2.527520	-0.122620	0.052400	6
C	3.109600	-1.333400	-0.000910	6
C	3.330540	1.147660	-0.035810	6
N	3.278620	1.896910	1.210440	7
H	0.757750	0.500070	1.104530	1
H	0.527330	-0.952280	0.126450	1
H	0.648470	0.621620	-0.665940	1
H	2.527700	-2.248080	0.054470	1
H	4.186970	-1.440610	-0.082530	1
H	2.954730	1.766750	-0.858510	1
H	4.379680	0.926990	-0.264090	1
H	2.333140	2.243960	1.355060	1
H	3.870290	2.720800	1.125300	1
Es	3.278738	1.896552	1.211046	99
Es	3.330293	1.147477	-0.035393	99
Es	2.527587	-0.122704	0.052360	99
Es	1.034932	0.017973	0.161900	99
Es	3.108427	-1.330542	-0.000749	99
Es	3.393277	1.665541	1.511272	99
Es	2.672998	-1.866657	0.040085	99
Es	0.786330	0.429503	-0.397534	99
Es	4.038847	1.002493	-0.188543	99
Es	2.891006	-0.880592	0.031661	99
Es	2.733773	2.116495	1.245674	99
Es	3.064429	1.563939	-0.603376	99
Es	3.274972	1.623118	0.682065	99
Es	1.782367	-0.048622	0.105288	99
Es	0.862317	0.349554	0.796208	99
Es	3.803265	-1.325686	-0.052443	99
Es	0.697721	-0.638251	0.139970	99
Es	2.927832	0.485843	0.010886	99
Es	3.593895	2.387980	1.108416	99
Es	2.836408	-0.762120	-0.001801	99
