28
Properties=species:S:1:pos:R:3:Z:I:1 energy=-208.87481229097332 field_type=dipole dipole="0.000000 0.000000 0.000000" charge=0
C	0.986040	0.014820	-0.006540	6
C	2.485870	-0.000070	-0.003150	6
C	3.167600	-1.158180	0.005160	6
C	3.190710	1.242490	-0.006230	6
N	3.760850	2.252600	-0.008030	7
H	0.593040	1.037080	0.021920	1
H	0.592040	-0.513860	0.868020	1
H	0.598060	-0.463660	-0.912110	1
H	2.654580	-2.115340	0.007890	1
H	4.254640	-1.181890	0.008420	1
Es	3.761629	2.253934	-0.008031	99
Es	2.486253	0.000360	-0.003149	99
Es	3.189932	1.241213	-0.006237	99
Es	3.166993	-1.156831	0.005146	99
Es	0.986922	0.015225	-0.006540	99
Es	3.475951	1.721886	-0.003208	99
Es	3.794225	-1.061704	0.006040	99
Es	0.756594	0.718694	0.012729	99
Es	2.852717	0.657356	-0.006271	99
Es	2.925328	-0.701226	0.002546	99
Es	2.812587	-1.735976	0.006295	99
Es	0.754534	-0.309588	-0.604009	99
Es	3.931951	2.550041	-0.008128	99
Es	0.749661	-0.343240	0.569735	99
Es	1.754472	0.022775	-0.004001	99
Es	3.500829	1.783601	-0.011349	99
Es	3.490279	1.808408	-0.006996	99
Es	2.836506	-0.496146	0.001168	99
