37
Properties=species:S:1:pos:R:3:Z:I:1 energy=-212.40002692548404 field_type=dipole dipole="0.000000 0.000000 0.000000" charge=0
C	1.009800	-0.022160	0.018290	6
C	2.538770	-0.006200	-0.039880	6
C	3.020240	-0.799120	-1.258020	6
C	3.046710	1.445580	-0.055620	6
N	4.502680	1.516570	-0.006390	7
H	0.648970	0.506330	0.906690	1
H	0.633210	-1.049200	0.065670	1
H	0.573400	0.458720	-0.863500	1
H	2.914500	-0.504680	0.863750	1
H	2.693880	-0.328100	-2.191310	1
H	2.621760	-1.819010	-1.237580	1
H	4.111860	-0.874690	-1.278730	1
H	2.640660	1.989650	0.805000	1
H	2.697240	1.958350	-0.959010	1
H	4.838770	1.069580	0.845530	1
H	4.792330	2.491610	0.048180	1
Es	4.502640	1.516483	-0.006311	99
Es	3.047151	1.444954	-0.055610	99
Es	2.538683	-0.006233	-0.039928	99
Es	1.010470	-0.022095	0.018263	99
Es	3.019996	-0.798701	-1.257450	99
Es	4.631663	2.088381	0.071842	99
Es	0.722000	0.307224	-0.585255	99
Es	3.755797	-0.854465	-1.272494	99
Es	2.759952	1.815492	0.537849	99
Es	2.798820	-0.334008	0.572018	99
Es	4.663416	1.285434	0.516524	99
Es	0.757419	-0.726554	0.048756	99
Es	3.922552	1.508757	0.017741	99
Es	0.764652	0.342982	0.624438	99
Es	2.794993	-0.475682	-1.886922	99
Es	2.808679	1.797287	-0.667680	99
Es	2.740364	-1.492583	-1.241420	99
Es	2.786939	-0.396025	-0.649998	99
Es	1.760057	-0.013146	-0.003824	99
Es	2.795195	0.720002	-0.055178	99
Es	4.649441	1.341661	-0.332376	99
