31
Properties=species:S:1:pos:R:3:Z:I:1 energy=-210.00739176092625 field_type=dipole dipole="0.000000 0.000000 0.000000" charge=0
C	1.000000	0.000000	0.000000	6
C	2.444000	0.000000	0.000000	6
C	3.634160	0.000000	0.000000	6
C	5.078160	0.000000	0.000000	6
N	5.579760	1.366420	0.018250	7
H	0.605990	1.020880	0.011670	1
H	0.605920	-0.520510	0.878260	1
H	0.605930	-0.500300	-0.889930	1
H	5.460000	-0.514040	-0.888520	1
H	5.462120	-0.533340	0.875490	1
H	5.214180	1.859620	-0.794500	1
H	6.591670	1.350040	-0.084670	1
Es	5.579486	1.366627	0.018733	99
Es	5.077095	0.000244	-0.000043	99
Es	1.000739	-0.000031	0.000011	99
Es	2.442653	0.000025	-0.000054	99
Es	3.634773	-0.000036	0.000030	99
Es	5.385776	0.792012	-0.040885	99
Es	1.957642	0.026268	-0.025576	99
Es	5.319931	-0.346304	-0.593157	99
Es	2.792796	0.067129	-0.044475	99
Es	5.388399	1.610316	-0.476661	99
Es	0.774985	-0.341607	0.573573	99
Es	6.158241	1.320473	-0.084948	99
Es	4.293594	-0.024366	0.015318	99
Es	0.777127	-0.327907	-0.581992	99
Es	0.783972	0.668909	0.005789	99
Es	5.326423	-0.346960	0.565623	99
Es	5.466102	1.538394	0.356035	99
Es	3.059521	-0.091650	0.012566	99
Es	3.036071	0.012501	0.041827	99
