37
Properties=species:S:1:pos:R:3:Z:I:1 energy=-212.39119366944234 field_type=dipole dipole="0.000000 0.000000 0.000000" charge=0
C	1.165880	-0.494200	-0.083660	6
C	2.677720	-0.334630	-0.144020	6
C	3.091950	1.122660	0.059710	6
N	4.550080	1.232490	0.002710	7
C	4.978240	2.613880	0.177750	6
H	0.889090	-1.543320	-0.230300	1
H	0.676860	0.098300	-0.864030	1
H	0.775690	-0.172660	0.887620	1
H	3.034680	-0.696590	-1.116120	1
H	3.134220	-0.967460	0.625480	1
H	2.729000	1.471040	1.034080	1
H	2.633390	1.746670	-0.716860	1
H	4.882980	0.888140	-0.897640	1
H	4.664600	3.005340	1.150810	1
H	4.583450	3.260030	-0.613040	1
H	6.070830	2.664180	0.139530	1
Es	4.550011	1.232031	0.002619	99
Es	3.092209	1.121893	0.059640	99
Es	4.978107	2.613470	0.177704	99
Es	2.677532	-0.334479	-0.143992	99
Es	1.166582	-0.494064	-0.083674	99
Es	3.943490	1.224605	-0.022134	99
Es	1.916163	-0.405388	-0.118783	99
Es	4.748119	2.876784	0.834618	99
Es	2.851157	1.369941	0.716024	99
Es	0.975502	-1.214739	-0.184797	99
Es	2.774746	1.551128	-0.473734	99
Es	0.835677	-0.088909	-0.608272	99
Es	4.699653	3.056607	-0.365978	99
Es	4.705668	1.842866	0.038659	99
Es	0.904399	-0.270811	0.572679	99
Es	5.730025	2.652895	0.149664	99
Es	4.715759	1.069544	-0.546683	99
Es	2.927928	-0.574492	-0.806664	99
Es	2.986642	-0.759937	0.376531	99
Es	2.876020	0.397407	-0.037028	99
Es	4.687631	0.999766	0.291314	99
