34
Properties=species:S:1:pos:R:3:Z:I:1 energy=-211.18204721290857 field_type=dipole dipole="0.000000 0.000000 0.000000" charge=0
C	1.203750	0.296750	0.098780	6
C	2.685520	0.065230	-0.159130	6
N	3.391390	1.349890	-0.170550	7
C	3.995990	1.702870	1.110690	6
C	4.838300	1.208400	-0.037200	6
H	0.663440	-0.654860	0.070060	1
H	0.766320	0.953910	-0.661190	1
H	1.036750	0.749990	1.082090	1
H	2.802950	-0.409470	-1.139810	1
H	3.075120	-0.640130	0.586050	1
H	3.838500	1.050490	1.960680	1
H	4.021400	2.761090	1.341170	1
H	5.432930	1.932460	-0.580850	1
H	5.260580	0.212410	0.019030	1
Es	3.248133	1.626913	-0.394758	99
Es	3.995935	1.702645	1.109992	99
Es	4.837623	1.208529	-0.037053	99
Es	2.685203	0.065661	-0.159035	99
Es	1.204244	0.296668	0.098708	99
Es	3.548973	1.494339	0.440458	99
Es	2.968670	-0.408721	0.360034	99
Es	0.844251	-0.360631	0.080524	99
Es	5.236929	1.699167	-0.407692	99
Es	4.577284	1.469990	0.644945	99
Es	5.113028	0.525659	-0.007655	99
Es	4.003248	2.420736	1.269153	99
Es	2.778329	-0.253895	-0.820151	99
Es	1.937974	0.186452	-0.027690	99
Es	3.876290	1.252452	1.677011	99
Es	1.094123	0.604019	0.767679	99
Es	0.909090	0.739727	-0.417779	99
Es	3.138227	0.788237	-0.113077	99
Es	4.040339	1.215109	-0.196436	99
Es	3.391672	1.349192	-0.170021	99
