37
Properties=species:S:1:pos:R:3:Z:I:1 energy=-212.39425866698414 field_type=dipole dipole="0.000000 0.000000 0.000000" charge=0
C	1.108030	-0.143020	0.097320	6
C	2.628350	-0.109570	0.061060	6
N	3.091780	1.274910	-0.010740	7
C	4.551490	1.342140	-0.035450	6
C	4.998880	2.794020	-0.106690	6
H	0.754970	-1.178370	0.138140	1
H	0.680270	0.324140	-0.796070	1
H	0.720220	0.380120	0.977790	1
H	2.975260	-0.671270	-0.813820	1
H	3.019390	-0.600950	0.959600	1
H	2.737370	1.797520	0.790030	1
H	4.941210	0.807540	-0.908880	1
H	4.973740	0.880520	0.864380	1
H	4.612530	3.284020	-1.007090	1
H	6.091950	2.850800	-0.135150	1
H	4.655050	3.359490	0.766270	1
Es	3.091619	1.275127	-0.010686	99
Es	2.627862	-0.109186	0.061043	99
Es	4.551253	1.342714	-0.035484	99
Es	4.998718	2.793610	-0.106655	99
Es	1.108473	-0.142975	0.097323	99
Es	2.951253	1.438833	-0.342663	99
Es	5.743654	2.824285	-0.122108	99
Es	0.848462	0.216344	0.699731	99
Es	4.807224	0.965990	-0.624185	99
Es	1.864198	-0.123844	0.073680	99
Es	2.901606	-0.446079	0.681700	99
Es	3.709278	1.279611	0.030244	99
Es	4.839611	1.020934	0.586391	99
Es	2.921761	0.685310	0.069840	99
Es	0.875724	-0.850602	0.128608	99
Es	4.741582	3.125837	-0.714483	99
Es	4.760700	3.175658	0.491104	99
Es	0.817256	0.169286	-0.505352	99
Es	2.879233	-0.486008	-0.529899	99
Es	4.773705	2.072345	-0.076633	99
Es	2.911385	1.546922	0.485882	99
