38
Properties=species:S:1:pos:R:3:Z:I:1 energy=-196.40308517955881 field_type=dipole dipole="0.000000 0.000000 0.000000" charge=0
C	0.997820	-0.067240	0.013060	6
C	2.517800	-0.031700	0.024550	6
C	3.043930	1.402840	-0.012450	6
C	4.571780	1.435180	-0.013020	6
C	5.100470	2.860170	-0.046890	6
H	0.642690	-1.102420	0.042190	1
H	0.600900	0.402330	-0.892790	1
H	0.586070	0.457610	0.881120	1
H	2.896460	-0.589770	-0.839520	1
H	2.882670	-0.538910	0.924290	1
H	2.665050	1.955870	0.855820	1
H	2.666150	1.910760	-0.908250	1
H	4.955710	0.888230	-0.882840	1
H	4.955940	0.930010	0.882240	1
H	4.758050	3.383580	-0.945010	1
H	6.194350	2.858720	-0.050500	1
H	4.763940	3.423610	0.828970	1
Es	4.571595	1.435342	-0.013027	99
Es	2.517708	-0.031468	0.024544	99
Es	3.044042	1.402686	-0.012446	99
Es	0.998458	-0.067164	0.013063	99
Es	5.100187	2.859590	-0.046876	99
Es	2.788648	1.775158	0.568701	99
Es	4.831403	2.151345	-0.029993	99
Es	0.721399	0.291675	0.596433	99
Es	2.772528	0.689157	0.005627	99
Es	4.829771	1.089681	0.595136	99
Es	2.789580	1.744720	-0.612059	99
Es	2.778216	-0.408700	-0.562242	99
Es	2.769213	-0.374673	0.635823	99
Es	1.755719	-0.043953	0.018703	99
Es	0.750280	-0.778512	0.033056	99
Es	4.868361	3.240688	0.541849	99
Es	4.864512	3.213729	-0.650602	99
Es	0.731454	0.254651	-0.596188	99
Es	3.807354	1.428385	-0.012599	99
Es	4.829656	1.060972	-0.604160	99
Es	5.853288	2.862564	-0.049420	99
