34
Properties=species:S:1:pos:R:3:Z:I:1 energy=-211.19491240547796 field_type=dipole dipole="0.000000 0.000000 0.000000" charge=0
N	3.058100	-0.976660	-0.519700	7
C	2.363040	0.097630	0.172080	6
C	3.251450	1.299300	0.180500	6
C	3.385050	2.166130	-1.046570	6
C	2.656160	2.685010	0.161930	6
H	2.477310	-1.813060	-0.504910	1
H	3.908940	-1.211630	-0.011840	1
H	2.132920	-0.203190	1.199180	1
H	1.416460	0.303860	-0.338230	1
H	4.136400	1.150010	0.789550	1
H	2.804870	1.903040	-1.923930	1
H	4.363980	2.573810	-1.270240	1
H	3.140710	3.453070	0.753910	1
H	1.580000	2.791590	0.093400	1
Es	3.058197	-0.976576	-0.519993	99
Es	2.363623	0.097818	0.171790	99
Es	3.251467	1.299643	0.180537	99
Es	2.656643	2.684678	0.161628	99
Es	3.384763	2.166074	-1.045786	99
Es	2.776932	-0.566160	-0.196837	99
Es	3.428115	1.571861	-0.553080	99
Es	1.722073	0.232831	-0.173192	99
Es	2.975595	3.200097	0.563097	99
Es	3.839479	1.198954	0.588800	99
Es	4.047784	2.437776	-1.198545	99
Es	2.715438	-1.457877	-0.452512	99
Es	3.522262	-1.115576	-0.181269	99
Es	2.997927	1.989981	-1.618674	99
Es	2.203062	-0.102341	0.879202	99
Es	1.937160	2.743445	0.119260	99
Es	2.812529	0.745194	0.168139	99
Es	2.983451	2.573586	-0.522558	99
Es	2.860189	1.990024	0.369553	99
Es	3.139183	-0.866447	-0.893136	99
