27
Properties=species:S:1:pos:R:3:Z:I:1 energy=-224.8909666431535 field_type=dipole dipole="0.000000 0.000000 0.000000" charge=0
N	0.981130	-0.098330	0.000000	7
C	2.336590	0.008380	0.000000	6
C	3.053520	1.137990	0.000000	6
C	4.459520	1.137990	0.000000	6
N	5.610530	1.137990	0.000000	7
H	0.541680	-1.013380	0.000000	1
H	0.390260	0.725670	0.000000	1
H	2.835350	-0.961790	0.000000	1
H	2.559320	2.101760	-0.000000	1
Es	0.981205	-0.098314	-0.000000	99
Es	5.613001	1.137998	-0.000000	99
Es	2.336531	0.008371	-0.000000	99
Es	4.459137	1.138031	-0.000000	99
Es	3.053833	1.138097	0.000000	99
Es	1.573096	-0.016651	0.000000	99
Es	5.063971	1.129769	0.000000	99
Es	2.665506	0.543055	-0.000000	99
Es	3.789524	1.125112	0.000000	99
Es	0.734500	-0.647401	0.000000	99
Es	0.636795	0.391959	-0.000000	99
Es	2.724682	1.783032	0.000000	99
Es	2.693904	-0.620428	-0.000000	99
Es	1.098319	-0.084432	-0.000000	99
Es	5.963920	1.136666	-0.000000	99
Es	5.123614	1.131750	-0.000000	99
Es	5.074228	1.138242	0.000000	99
Es	2.896711	0.758077	0.000000	99
