27
Properties=species:S:1:pos:R:3:Z:I:1 energy=-228.70709881397866 field_type=dipole dipole="0.000000 0.000000 0.000000" charge=0
O	-0.356660	-1.084960	-0.004270	8
C	-1.138610	0.025200	-0.002180	6
C	-0.361770	1.159620	0.001080	6
C	0.983220	0.717060	0.000980	6
C	0.932560	-0.658210	-0.002330	6
H	-2.204650	-0.154330	-0.003360	1
H	-0.721390	2.179360	0.003260	1
H	1.878800	1.321310	0.003060	1
H	1.682380	-1.436310	-0.003650	1
Es	-0.356560	-1.084659	-0.004269	99
Es	0.932582	-0.658703	-0.002331	99
Es	-1.138953	0.024812	-0.002181	99
Es	0.983238	0.717116	0.000980	99
Es	-0.361749	1.159674	0.001080	99
Es	0.126865	-0.891564	-0.003463	99
Es	1.413584	-1.124092	-0.003097	99
Es	-0.630129	-0.641693	-0.003408	99
Es	0.979292	-0.019299	-0.000767	99
Es	-1.802529	-0.063286	-0.002861	99
Es	-0.461266	-1.401860	-0.005100	99
Es	-0.310191	-0.944405	-0.003902	99
Es	-0.587079	1.843207	0.002552	99
Es	-0.796134	0.566041	-0.000658	99
Es	0.317765	0.958937	0.001084	99
Es	1.570493	1.131930	0.002388	99
Es	-0.673143	0.610041	-0.000441	99
Es	0.906475	0.089771	-0.000577	99
