33
Properties=species:S:1:pos:R:3:Z:I:1 energy=-231.03413807111858 field_type=dipole dipole="0.000000 0.000000 0.000000" charge=0
C	0.943200	0.020310	-0.133700	6
C	2.425980	-0.015050	0.042120	6
O	2.843640	-0.070070	1.411070	8
C	3.283610	-0.755520	-0.945510	6
C	3.315310	0.749250	-0.898360	6
H	0.655130	0.058880	-1.189980	1
H	0.523190	0.901240	0.363320	1
H	0.487050	-0.871880	0.308410	1
H	3.810520	-0.033940	1.504570	1
H	2.802900	-1.225700	-1.796010	1
H	4.144380	-1.298940	-0.575230	1
H	4.199640	1.230440	-0.498650	1
H	2.855580	1.291710	-1.716750	1
Es	2.844213	-0.070035	1.410883	99
Es	2.425786	-0.015043	0.041843	99
Es	3.315225	0.748415	-0.898216	99
Es	3.283598	-0.754705	-0.945284	99
Es	0.943766	0.020293	-0.133732	99
Es	2.642973	-0.083849	1.659287	99
Es	3.850480	-1.112801	-0.690854	99
Es	0.649079	-0.583122	0.160830	99
Es	3.003519	1.109677	-1.435392	99
Es	3.340022	-0.048716	1.398818	99
Es	2.793026	-0.599316	-0.420121	99
Es	2.957140	-1.069108	-1.505902	99
Es	0.673256	0.615554	0.197461	99
Es	1.714731	0.002239	-0.040066	99
Es	0.771666	0.046229	-0.856735	99
Es	2.732883	-0.046073	0.894852	99
Es	2.865109	-0.076493	1.384244	99
Es	3.899114	1.066803	-0.622289	99
Es	3.406684	-0.001316	-1.040790	99
Es	2.817700	0.581843	-0.382652	99
