33
Properties=species:S:1:pos:R:3:Z:I:1 energy=-231.0273538681505 field_type=dipole dipole="0.000000 0.000000 0.000000" charge=0
C	1.036690	0.134000	0.091610	6
C	2.518060	-0.071800	-0.174190	6
C	3.268000	1.219150	-0.094500	6
C	3.864880	1.700090	1.200130	6
O	4.664570	1.071800	0.187350	8
H	0.499670	-0.816940	0.019160	1
H	0.601150	0.829690	-0.632960	1
H	0.871760	0.546180	1.092220	1
H	2.652270	-0.501270	-1.173900	1
H	2.916280	-0.799870	0.543730	1
H	2.979420	1.940290	-0.847450	1
H	3.675770	1.140160	2.107220	1
H	3.990200	2.766220	1.343620	1
Es	4.664141	1.072089	0.187605	99
Es	3.268681	1.219005	-0.094244	99
Es	3.865162	1.699661	1.199324	99
Es	2.518083	-0.071386	-0.174087	99
Es	1.037355	0.133972	0.091509	99
Es	4.901561	1.046062	0.048166	99
Es	2.780499	-0.552514	0.308737	99
Es	0.930359	0.414679	0.764813	99
Es	3.750630	1.315863	1.811745	99
Es	3.077451	1.707521	-0.612836	99
Es	3.350778	1.522895	0.647993	99
Es	4.293622	1.313678	0.557144	99
Es	0.747791	0.610193	-0.398872	99
Es	4.321467	1.106492	0.095566	99
Es	0.669598	-0.515279	0.043155	99
Es	1.782890	0.040520	-0.042674	99
Es	3.954062	2.423954	1.286675	99
Es	2.611811	-0.360404	-0.849881	99
Es	4.598672	1.016185	0.231648	99
Es	2.910141	0.593167	-0.113342	99
