30
Properties=species:S:1:pos:R:3:Z:I:1 energy=-229.82814178707 field_type=dipole dipole="0.000000 0.000000 0.000000" charge=0
C	2.156180	-0.911160	-1.164720	6
C	2.155480	0.124990	-0.315980	6
C	3.252030	1.074760	-0.113030	6
C	3.425730	2.202270	-1.099430	6
O	3.008640	2.444090	0.248240	8
H	1.292630	-1.563990	-1.244580	1
H	3.013270	-1.127090	-1.794140	1
H	1.267710	0.292710	0.291950	1
H	4.151380	0.629040	0.299960	1
H	2.688850	2.342550	-1.880540	1
H	4.432540	2.492310	-1.371800	1
Es	3.008803	2.443783	0.247808	99
Es	3.251889	1.075303	-0.112985	99
Es	3.425421	2.202078	-1.098454	99
Es	2.155455	0.125073	-0.315912	99
Es	2.156180	-0.910897	-1.164447	99
Es	2.943958	2.594754	0.457972	99
Es	2.685511	0.590726	-0.212384	99
Es	2.747860	-1.034828	-1.578203	99
Es	4.110344	2.404595	-1.276716	99
Es	3.862464	0.781882	0.164502	99
Es	3.386730	1.483990	-0.759510	99
Es	1.560875	0.255067	0.100803	99
Es	1.570199	-1.335018	-1.207059	99
Es	2.179544	-0.405095	-0.779815	99
Es	3.062925	2.018687	0.196554	99
Es	2.922056	2.295901	-1.615371	99
Es	3.008033	2.404196	0.204872	99
Es	3.172078	2.342974	-0.288551	99
Es	2.153874	-0.411854	-0.738238	99
