33
Properties=species:S:1:pos:R:3:Z:I:1 energy=-231.06985692812668 field_type=dipole dipole="0.000000 0.000000 0.000000" charge=0
C	0.972270	-0.008510	-0.039790	6
C	2.494370	0.002820	0.001520	6
C	3.089140	-0.752360	-1.178860	6
C	2.982600	1.433510	-0.024030	6
O	3.641650	1.936650	0.881090	8
H	0.556580	0.548610	0.807030	1
H	0.588650	-1.032670	0.006360	1
H	0.593060	0.457610	-0.956190	1
H	2.835500	-0.457370	0.936670	1
H	2.780250	-0.311350	-2.133120	1
H	2.774600	-1.800620	-1.169380	1
H	4.183730	-0.725550	-1.144850	1
H	2.711670	2.021480	-0.918570	1
Es	3.641409	1.936501	0.880737	99
Es	2.982492	1.433493	-0.024221	99
Es	2.494432	0.003200	0.001390	99
Es	0.972955	-0.008415	-0.039776	99
Es	3.088913	-0.751944	-1.178354	99
Es	3.787662	2.109718	1.040987	99
Es	3.830485	-0.728646	-1.157452	99
Es	0.720508	-0.701378	-0.011904	99
Es	2.783590	1.814007	-0.647281	99
Es	2.716122	-0.304247	0.614466	99
Es	3.378625	1.749686	0.510720	99
Es	2.748807	0.740527	-0.006837	99
Es	1.749484	0.007455	-0.028738	99
Es	0.692345	0.373816	0.531333	99
Es	0.726198	0.305147	-0.659036	99
Es	2.870607	-1.456815	-1.168493	99
Es	3.438596	1.780213	0.603357	99
Es	2.875536	-0.450417	-1.815591	99
Es	2.782934	-0.355741	-0.584856	99
Es	3.603472	1.830727	0.879125	99
