27
Properties=species:S:1:pos:R:3:Z:I:1 energy=-228.6722515458984 field_type=dipole dipole="0.000000 0.000000 0.000000" charge=0
C	1.000000	0.000000	0.000000	6
C	2.444000	0.000000	0.000000	6
C	3.634160	0.000000	0.000000	6
C	5.076200	0.011590	-0.000000	6
O	5.697400	1.064460	-0.000000	8
H	0.605930	1.020860	0.011680	1
H	0.605910	-0.520540	0.878240	1
H	0.605910	-0.500300	-0.889930	1
H	5.561590	-0.976850	-0.000000	1
Es	5.697107	1.064008	0.000000	99
Es	5.075918	0.011336	0.000000	99
Es	1.001300	-0.000015	-0.000001	99
Es	2.442013	0.000042	-0.000000	99
Es	3.634455	0.000061	-0.000000	99
Es	5.426047	0.649515	0.000174	99
Es	1.985724	-0.028475	-0.000035	99
Es	2.689535	-0.034563	-0.000041	99
Es	4.364953	0.003539	-0.000001	99
Es	5.363891	-0.658409	0.000005	99
Es	5.860695	1.270766	-0.000055	99
Es	0.799728	-0.338406	0.566899	99
Es	0.799877	-0.325384	-0.574470	99
Es	0.796742	0.659881	0.007585	99
Es	5.486307	0.729458	-0.000153	99
Es	5.642938	1.020338	-0.000000	99
Es	3.041251	0.041739	-0.000066	99
Es	3.173007	-0.004300	0.000193	99
