39
Properties=species:S:1:pos:R:3:Z:I:1 energy=-233.06179720083534 field_type=dipole dipole="0.000000 0.000000 0.000000" charge=0
C	0.949430	0.005840	0.022730	6
C	2.470310	0.009820	0.022710	6
C	3.027390	1.432820	0.000000	6
C	4.471390	1.432820	0.000000	6
C	5.661550	1.432820	0.000000	6
C	7.105550	1.432820	0.000000	6
H	0.572830	-1.022280	0.039110	1
H	0.555390	0.497240	-0.872760	1
H	0.555340	0.525540	0.902080	1
H	2.830820	-0.549780	-0.848910	1
H	2.830770	-0.521670	0.911760	1
H	2.655720	1.985760	0.870830	1
H	2.655720	1.957690	-0.888030	1
H	7.499640	2.453650	-0.011680	1
H	7.499570	0.912240	-0.878240	1
H	7.499570	0.932470	0.889920	1
Es	3.028366	1.432867	-0.000001	99
Es	7.105063	1.432696	0.000002	99
Es	2.470367	0.010387	0.022701	99
Es	0.950077	0.005938	0.022728	99
Es	5.663977	1.432764	0.000001	99
Es	4.470594	1.432874	-0.000001	99
Es	2.792419	1.794791	0.576572	99
Es	6.072338	1.382966	0.000808	99
Es	1.704614	0.019145	0.022539	99
Es	5.377529	1.390810	0.000630	99
Es	2.716275	-0.363056	-0.563847	99
Es	3.811483	1.453183	-0.000312	99
Es	2.792423	1.776216	-0.587824	99
Es	7.323697	1.102831	0.585783	99
Es	7.332499	2.103022	-0.007660	99
Es	7.323684	1.089524	-0.578075	99
Es	0.689520	0.364284	0.616966	99
Es	0.689554	0.345155	-0.582646	99
Es	0.693583	-0.699721	0.033972	99
Es	2.776768	0.744689	0.010977	99
Es	2.716250	-0.344134	0.620879	99
Es	5.067427	1.430952	0.000226	99
Es	5.065483	1.503200	-0.001301	99
