34
Properties=species:S:1:pos:R:3:Z:I:1 energy=-263.85707510336266 field_type=dipole dipole="0.000000 0.000000 0.000000" charge=0
C	0.398340	1.562160	0.468350	6
C	0.890490	0.355860	-0.277410	6
N	0.940400	-0.961120	0.374670	7
N	-0.365380	-1.390770	0.501960	7
C	-1.203650	-0.461810	0.163900	6
C	-0.558010	0.748310	-0.356960	6
H	0.687060	2.537790	0.097360	1
H	0.331760	1.501040	1.548750	1
H	1.521370	0.503290	-1.145460	1
H	1.496070	-1.655760	-0.128580	1
H	-2.297670	-0.557210	0.213880	1
H	-0.923440	1.148280	-1.292190	1
Es	-0.364798	-1.390877	0.501931	99
Es	0.940195	-0.961409	0.374433	99
Es	-1.203555	-0.461837	0.163954	99
Es	0.890077	0.356025	-0.277330	99
Es	0.398164	1.561509	0.467911	99
Es	-0.557719	0.748224	-0.357017	99
Es	0.276983	-1.142815	0.376074	99
Es	0.824092	0.988024	0.202305	99
Es	1.054388	-0.907781	0.722887	99
Es	0.353241	1.521550	1.167110	99
Es	0.897936	-0.422614	0.052063	99
Es	-1.896326	-0.513585	0.188209	99
Es	1.324458	0.444971	-0.857663	99
Es	-0.924697	0.136407	-0.070370	99
Es	-0.713944	-0.903250	0.402745	99
Es	-0.809374	1.025089	-0.971607	99
Es	0.588500	2.209792	0.207912	99
Es	1.196265	-1.329756	0.036732	99
Es	-0.241144	1.246419	0.140266	99
Es	-0.432050	-1.755788	0.626340	99
Es	0.116184	0.456660	-0.449914	99
Es	-0.738349	-0.988589	0.281319	99
