38
Properties=species:S:1:pos:R:3:Z:I:1 energy=-249.02232579482165 field_type=dipole dipole="0.000000 0.000000 0.000000" charge=0
C	0.233070	0.777200	-0.209250	6
C	-0.858780	-0.240180	-0.066930	6
C	0.582090	-0.663960	0.058040	6
N	1.101180	-1.013100	1.389780	7
C	0.971400	-2.447470	1.628010	6
C	2.306100	-1.830990	1.308440	6
H	0.438430	1.172220	-1.196790	1
H	0.366370	1.493510	0.593270	1
H	-1.397120	-0.539220	-0.957890	1
H	-1.464020	-0.211780	0.831660	1
H	0.987400	-1.211050	-0.792240	1
H	0.483770	-3.057220	0.877420	1
H	0.773310	-2.732840	2.653710	1
H	3.013140	-1.702680	2.118890	1
H	2.752140	-2.021560	0.341040	1
Es	1.101340	-1.013693	1.389191	99
Es	0.581553	-0.663288	0.058232	99
Es	2.305335	-1.830738	1.308519	99
Es	0.971672	-2.446759	1.627843	99
Es	-0.857838	-0.239990	-0.067037	99
Es	0.232798	0.776510	-0.209158	99
Es	1.053967	-0.751914	1.663642	99
Es	-0.432004	0.391245	-0.156937	99
Es	0.903627	-0.918362	0.802740	99
Es	2.600292	-1.948252	0.646528	99
Es	0.327613	1.244986	0.316094	99
Es	-0.224616	-0.636975	0.031086	99
Es	0.859151	-1.054774	-0.499515	99
Es	0.638452	-2.845575	1.111132	99
Es	1.718342	-2.316486	1.480829	99
Es	-1.249549	-0.233610	0.521876	99
Es	2.785311	-1.739043	1.853536	99
Es	0.373898	1.033323	-0.869433	99
Es	0.598348	0.141144	-0.083176	99
Es	0.832052	-2.636705	2.325000	99
Es	-1.213280	-0.446363	-0.661639	99
Es	1.662249	-1.269481	1.291928	99
Es	0.940649	-1.656083	1.472744	99
