38
Properties=species:S:1:pos:R:3:Z:I:1 energy=-249.05854153642497 field_type=dipole dipole="0.000000 0.000000 0.000000" charge=0
C	0.803300	1.350090	-0.639790	6
C	-0.326610	0.971600	0.278220	6
C	-1.380760	0.004820	-0.167970	6
C	-0.739140	-1.374560	0.035950	6
N	0.717280	-1.173460	-0.082990	7
C	0.969560	0.217250	0.324980	6
H	0.723290	1.115880	-1.694880	1
H	1.336740	2.270390	-0.433770	1
H	-0.595560	1.601330	1.112000	1
H	-2.297360	0.104420	0.421470	1
H	-1.624530	0.169280	-1.223720	1
H	-0.967290	-1.735990	1.046100	1
H	-1.107150	-2.110830	-0.683980	1
H	1.205460	-1.843420	0.510130	1
H	1.623110	0.367710	1.177960	1
Es	0.717300	-1.173434	-0.082615	99
Es	0.969168	0.217554	0.324812	99
Es	-0.738667	-1.373865	0.035702	99
Es	0.803023	1.349707	-0.639268	99
Es	-1.380195	0.004754	-0.167612	99
Es	-0.326790	0.972033	0.279450	99
Es	0.826275	-1.214672	-0.466430	99
Es	0.262205	0.517397	0.460978	99
Es	-1.550149	0.105394	-0.882351	99
Es	-0.899174	-1.622634	0.735169	99
Es	0.749388	1.201292	-1.319341	99
Es	0.965678	-1.528377	0.309981	99
Es	1.412216	0.307775	0.902110	99
Es	-0.989616	-1.874734	-0.454576	99
Es	-0.496958	1.391896	0.828397	99
Es	1.160045	1.959771	-0.491933	99
Es	-1.991425	0.074044	0.232518	99
Es	0.125894	-1.246764	0.010617	99
Es	-1.073693	-0.693757	-0.070821	99
Es	-0.840382	0.524528	0.047744	99
Es	1.070548	0.747081	-0.259593	99
Es	0.095696	1.312460	-0.292973	99
Es	0.812823	-0.597709	0.135776	99
