31
Properties=species:S:1:pos:R:3:Z:I:1 energy=-262.7332773883019 field_type=dipole dipole="0.000000 0.000000 0.000000" charge=0
C	-0.635600	-1.243690	-0.022040	6
C	-1.394110	-0.082640	-0.024960	6
C	-0.730310	1.126130	0.059430	6
N	0.612830	1.213490	0.143450	7
N	1.357400	0.073830	0.146320	7
C	0.737810	-1.121470	0.065080	6
H	-1.102260	-2.219890	-0.086020	1
H	-2.475180	-0.118160	-0.091300	1
H	-1.259210	2.071840	0.062400	1
H	1.391710	-1.985640	0.072630	1
Es	1.356875	0.074055	0.146297	99
Es	0.612826	1.212920	0.143429	99
Es	0.737751	-1.121297	0.065083	99
Es	-0.730175	1.126005	0.059434	99
Es	-0.635892	-1.244455	-0.022086	99
Es	-1.394932	-0.082601	-0.025008	99
Es	0.911623	0.595643	0.138698	99
Es	0.809372	1.546660	0.167529	99
Es	-1.007682	-0.658472	-0.022894	99
Es	-1.048358	0.510444	0.017653	99
Es	-0.003220	1.094184	0.101994	99
Es	-2.116322	-0.105288	-0.069248	99
Es	0.046383	-1.165359	0.021869	99
Es	-1.086427	1.746602	0.060832	99
Es	1.163049	-1.696818	0.069496	99
Es	-0.946408	-1.896253	-0.064731	99
Es	0.043974	0.915563	0.098271	99
Es	1.741400	0.120037	0.171121	99
Es	1.000693	-0.442571	0.105868	99
Es	-0.821180	-0.536672	-0.007198	99
Es	0.856006	-0.327585	0.101391	99
