31
Properties=species:S:1:pos:R:3:Z:I:1 energy=-262.76714240443675 field_type=dipole dipole="0.000000 0.000000 0.000000" charge=0
C	-0.745110	1.105380	0.030750	6
C	0.638290	1.175320	0.033250	6
N	1.420200	0.071270	0.035760	7
C	0.753550	-1.105740	0.035670	6
C	-0.629950	-1.175600	0.033170	6
N	-1.411890	-0.071700	0.030660	7
H	-1.357780	1.999340	0.028760	1
H	1.157720	2.126470	0.033290	1
H	1.366110	-1.999680	0.037670	1
H	-1.149520	-2.126790	0.033130	1
Es	-1.412174	-0.071714	0.030659	99
Es	1.420484	0.071284	0.035761	99
Es	0.753702	-1.105580	0.035670	99
Es	0.638457	1.175175	0.033250	99
Es	-0.630117	-1.175456	0.033170	99
Es	-0.745262	1.105220	0.030750	99
Es	1.809168	0.090931	0.036465	99
Es	-1.003620	-0.564292	0.031884	99
Es	-0.052255	1.117904	0.032024	99
Es	1.153638	-1.686843	0.036970	99
Es	-1.055310	0.459518	0.030803	99
Es	1.063656	-0.459940	0.035621	99
Es	0.060665	-1.118241	0.034396	99
Es	-1.145282	1.686515	0.029456	99
Es	0.977825	1.793795	0.033275	99
Es	0.930754	-0.329666	0.035239	99
Es	-0.969545	-1.794122	0.033145	99
Es	-1.800852	-0.091334	0.029956	99
Es	-0.885058	-0.420371	0.031976	99
Es	1.011950	0.563907	0.034530	99
Es	-0.033150	0.749591	0.032415	99
