37
Properties=species:S:1:pos:R:3:Z:I:1 energy=-265.10681396084806 field_type=dipole dipole="0.000000 0.000000 0.000000" charge=0
C	0.391120	1.349150	0.325670	6
C	1.394700	0.352550	-0.227690	6
N	0.963570	-0.972270	0.146540	7
C	-0.368770	-1.253880	0.194620	6
N	-1.348660	-0.434180	0.093030	7
C	-1.008380	0.975340	-0.147940	6
H	0.642360	2.365480	0.004500	1
H	0.421100	1.334450	1.422550	1
H	2.391330	0.548370	0.179890	1
H	1.456010	0.426580	-1.319020	1
H	1.604840	-1.735690	-0.033740	1
H	-0.569030	-2.327510	0.353940	1
H	-1.116210	1.184350	-1.218770	1
H	-1.739650	1.601770	0.375010	1
Es	0.963445	-0.972228	0.147087	99
Es	-1.349210	-0.433971	0.092928	99
Es	-0.368846	-1.254781	0.194672	99
Es	1.394101	0.352472	-0.227282	99
Es	-1.007912	0.975053	-0.147688	99
Es	0.391149	1.348816	0.325459	99
Es	0.341463	-1.097359	0.100896	99
Es	-0.816060	-0.805243	0.133708	99
Es	2.074735	0.478925	0.049954	99
Es	-1.135232	0.120008	-0.002691	99
Es	0.413582	1.336965	1.066874	99
Es	1.308671	-1.413784	-0.017368	99
Es	-0.491635	-1.929207	0.287474	99
Es	1.430568	0.403473	-0.974705	99
Es	-1.066030	1.106792	-0.875776	99
Es	-1.504710	1.406317	0.210259	99
Es	0.565276	2.029790	0.102606	99
Es	1.131007	-0.437658	-0.063564	99
Es	0.897397	0.837331	0.043117	99
Es	-0.291032	1.164468	0.087046	99
Es	0.930852	-0.965204	0.435933	99
Es	-1.727319	-0.504319	0.119446	99
Es	-1.014551	-0.698606	0.128851	99
