37
Properties=species:S:1:pos:R:3:Z:I:1 energy=-265.0697714600084 field_type=dipole dipole="0.000000 0.000000 0.000000" charge=0
C	0.424270	1.418130	0.265110	6
C	1.371040	0.329230	-0.207130	6
N	0.921950	-0.924770	0.385640	7
N	-0.344830	-1.358170	0.182910	7
C	-1.251890	-0.443940	0.012350	6
C	-1.011470	1.042900	-0.056610	6
H	0.678180	2.378340	-0.198310	1
H	0.530550	1.552400	1.349540	1
H	2.391150	0.551120	0.119920	1
H	1.375390	0.255030	-1.300580	1
H	1.589620	-1.677170	0.204190	1
H	-2.291490	-0.777270	-0.140990	1
H	-1.270210	1.360480	-1.073300	1
H	-1.707470	1.543420	0.624540	1
Es	-0.344293	-1.357818	0.183028	99
Es	0.921386	-0.924995	0.386415	99
Es	-1.251904	-0.443810	0.012313	99
Es	1.370431	0.329189	-0.206669	99
Es	-1.011129	1.042330	-0.056552	99
Es	0.424083	1.417646	0.264831	99
Es	-0.708624	-0.888663	0.084163	99
Es	0.904533	-0.844377	0.751193	99
Es	-0.317777	1.219949	0.094391	99
Es	0.900058	0.883863	0.024124	99
Es	0.274339	-1.095173	0.224045	99
Es	1.278496	-1.351467	0.209397	99
Es	1.364933	0.282353	-0.957266	99
Es	2.064477	0.470404	0.015324	99
Es	-1.121841	0.223827	-0.009599	99
Es	-1.177365	1.245417	-0.727323	99
Es	-1.919598	-0.619059	-0.085448	99
Es	0.593749	2.070490	-0.056309	99
Es	-0.762430	-0.941641	0.118278	99
Es	-1.473753	1.377447	0.394845	99
Es	0.498138	1.503895	0.995151	99
Es	-0.381599	-1.742556	0.191609	99
Es	1.068540	-0.442394	0.074187	99
