41
Properties=species:S:1:pos:R:3:Z:I:1 energy=-250.2451932099546 field_type=dipole dipole="0.000000 0.000000 0.000000" charge=0
C	1.058920	-0.065710	-0.007120	6
C	2.548040	-0.028530	-0.057880	6
C	3.280520	-0.589960	-1.249230	6
C	3.250590	0.903050	-1.017800	6
C	4.479050	1.636180	-0.588850	6
N	5.264120	1.922810	-1.778750	7
H	0.686390	0.716770	0.661030	1
H	0.719900	-1.032600	0.377140	1
H	0.608730	0.085710	-0.993590	1
H	2.985300	-0.187980	0.921630	1
H	2.704020	-0.978930	-2.081230	1
H	4.204970	-1.126190	-1.067130	1
H	2.635960	1.504650	-1.680390	1
H	5.075230	1.048820	0.117890	1
H	4.197640	2.572750	-0.097300	1
H	5.531530	1.043330	-2.218020	1
H	6.131830	2.378480	-1.503200	1
Es	5.263879	1.922934	-1.778973	99
Es	4.478790	1.635885	-0.589488	99
Es	2.547960	-0.028677	-0.057868	99
Es	3.250925	0.902815	-1.017256	99
Es	3.280326	-0.589485	-1.248809	99
Es	1.059630	-0.065605	-0.007245	99
Es	5.044631	2.150300	-2.023297	99
Es	2.857871	-0.501297	-0.614712	99
Es	0.810811	0.465747	0.440663	99
Es	3.834255	1.238775	-0.798074	99
Es	3.888003	-0.938869	-1.126288	99
Es	4.875817	1.222452	-0.105453	99
Es	5.435842	1.400490	-1.983680	99
Es	1.844913	-0.042181	-0.050643	99
Es	5.776233	2.143734	-1.578813	99
Es	2.842291	-0.122193	0.578154	99
Es	0.830414	-0.723274	0.252800	99
Es	4.290493	2.264581	-0.250430	99
Es	0.761846	0.038674	-0.673284	99
Es	2.906395	-0.839566	-1.795150	99
Es	2.839484	1.298559	-1.453514	99
Es	3.418856	0.168335	-1.308350	99
Es	2.821790	0.606276	-0.397117	99
Es	4.988273	1.775912	-1.283584	99
