41
Properties=species:S:1:pos:R:3:Z:I:1 energy=-250.2326673544369 field_type=dipole dipole="0.000000 0.000000 0.000000" charge=0
C	0.960060	-0.012660	0.025830	6
C	2.476160	-0.030240	0.036640	6
C	3.166540	1.029670	0.938650	6
C	4.233280	-0.043720	1.255130	6
C	3.146260	-1.096340	0.945150	6
N	3.715140	-2.158170	0.124210	7
H	0.569190	-0.881800	-0.513280	1
H	0.588880	0.888100	-0.474210	1
H	0.547460	-0.030510	1.040420	1
H	2.867770	0.003630	-0.991150	1
H	2.581270	1.335490	1.813710	1
H	3.532490	1.923110	0.426430	1
H	5.088500	-0.012740	0.567070	1
H	4.609920	-0.039940	2.281800	1
H	2.565630	-1.426850	1.812060	1
H	4.276350	-1.838380	-0.664430	1
H	3.015570	-2.787440	-0.267900	1
Es	3.715172	-2.158196	0.124267	99
Es	3.146306	-1.096774	0.944886	99
Es	2.475649	-0.030134	0.036693	99
Es	4.232397	-0.043570	1.254999	99
Es	3.166715	1.029206	0.938199	99
Es	0.960596	-0.012697	0.025897	99
Es	3.450459	-1.725185	0.391822	99
Es	3.411283	1.641448	0.595852	99
Es	0.695772	-0.610228	-0.339015	99
Es	3.953734	-2.369100	0.371256	99
Es	4.798566	-0.030620	0.782984	99
Es	1.719313	-0.020440	0.021142	99
Es	3.284462	-2.463781	-0.126742	99
Es	2.744818	-0.020603	-0.639077	99
Es	3.750506	-0.636986	1.137535	99
Es	0.706403	0.604524	-0.314275	99
Es	0.690480	-0.027455	0.716872	99
Es	2.757010	-1.322768	1.517822	99
Es	4.492792	-0.039345	1.953297	99
Es	2.728937	-0.627123	0.461592	99
Es	2.773726	1.224987	1.530675	99
Es	3.759698	0.559934	1.129981	99
Es	2.757732	0.593561	0.449146	99
Es	3.977102	-1.933999	-0.332501	99
