41
Properties=species:S:1:pos:R:3:Z:I:1 energy=-250.24386995378026 field_type=dipole dipole="0.000000 0.000000 0.000000" charge=0
C	0.890510	0.035470	-0.245000	6
C	2.372380	0.035830	0.033190	6
C	2.711220	0.008710	1.502070	6
C	3.268850	-0.735660	-0.910360	6
C	3.262330	0.766190	-0.953700	6
N	4.448030	1.500970	-0.528340	7
H	0.673270	0.046390	-1.318920	1
H	0.420580	0.917800	0.201320	1
H	0.422450	-0.858010	0.181170	1
H	3.784490	-0.099560	1.687260	1
H	2.212120	-0.836050	1.989050	1
H	2.373310	0.930620	1.985840	1
H	2.818060	-1.262270	-1.744100	1
H	4.141120	-1.239570	-0.510600	1
H	2.771760	1.213680	-1.816990	1
H	4.968530	1.003410	0.191110	1
H	4.187440	2.398100	-0.121260	1
Es	4.448119	1.501024	-0.528473	99
Es	3.262721	0.766161	-0.953789	99
Es	2.372554	0.035782	0.033079	99
Es	2.711266	0.008755	1.501556	99
Es	3.268587	-0.734894	-0.910725	99
Es	0.891041	0.035466	-0.245037	99
Es	2.752132	0.598038	-0.398737	99
Es	2.772911	-0.555939	-0.383380	99
Es	0.586048	-0.573696	0.050727	99
Es	0.766053	0.043476	-0.983505	99
Es	3.940219	1.195137	-0.629150	99
Es	2.969994	-1.088276	-1.447642	99
Es	4.259491	1.970654	-0.255855	99
Es	2.920867	1.075806	-1.502435	99
Es	1.637324	0.031342	-0.106272	99
Es	0.590681	0.638340	0.061976	99
Es	2.368291	-0.570129	1.821057	99
Es	2.479731	0.636161	1.814203	99
Es	3.448849	-0.057434	1.605172	99
Es	3.836574	-1.061001	-0.628604	99
Es	2.546626	0.030408	0.751048	99
Es	4.672807	1.558720	-0.846466	99
Es	3.369253	0.005663	-1.053777	99
Es	4.684723	1.217273	-0.095501	99
