35
Properties=species:S:1:pos:R:3:Z:I:1 energy=-247.93841881200223 field_type=dipole dipole="0.000000 0.000000 0.000000" charge=0
C	0.969340	-0.019390	-0.008090	6
C	2.450250	0.060260	-0.000410	6
C	3.296490	1.151730	0.003800	6
C	4.624490	0.664780	0.010300	6
C	4.556590	-0.709200	0.009920	6
N	3.233910	-1.068080	0.003310	7
H	0.521990	0.979860	0.000790	1
H	0.608380	-0.560070	0.872930	1
H	0.617010	-0.540770	-0.903900	1
H	2.989030	2.190110	0.002230	1
H	5.532180	1.253360	0.014840	1
H	5.333730	-1.462160	0.013690	1
H	2.888870	-2.019090	0.001430	1
Es	3.233947	-1.067989	0.003310	99
Es	2.450311	0.059967	-0.000409	99
Es	4.560949	-0.713398	0.009940	99
Es	0.969749	-0.019460	-0.008089	99
Es	4.624823	0.665006	0.010302	99
Es	3.296273	1.153021	0.003800	99
Es	3.886690	-0.920051	0.006598	99
Es	3.992710	0.900914	0.007081	99
Es	1.723167	0.008458	-0.003726	99
Es	2.868442	-0.604342	0.001645	99
Es	3.019801	-1.632760	0.002233	99
Es	4.605929	-0.083720	0.011789	99
Es	4.997306	-1.155191	0.012058	99
Es	0.733921	-0.384261	0.576860	99
Es	2.897725	0.666911	0.002303	99
Es	5.206350	1.070241	0.013394	99
Es	0.673736	0.645761	-0.002307	99
Es	3.281011	-0.912883	0.003327	99
Es	3.067706	1.818254	0.002146	99
Es	0.739861	-0.371247	-0.602805	99
Es	3.014819	0.644860	0.002212	99
Es	4.526273	0.032769	0.008150	99
