34
Properties=species:S:1:pos:R:3:Z:I:1 energy=-263.92440838540716 field_type=dipole dipole="0.000000 0.000000 0.000000" charge=0
C	0.944560	0.010800	-0.007950	6
C	2.423550	0.029520	-0.001010	6
C	3.267990	1.118910	0.003310	6
N	4.538310	0.622520	0.008910	7
N	4.585480	-0.719440	0.008480	7
C	3.300130	-1.079290	0.002410	6
H	0.533790	1.025440	0.001560	1
H	0.564240	-0.517300	0.872180	1
H	0.572600	-0.497500	-0.903160	1
H	3.080980	2.183310	0.002900	1
H	5.413600	1.133580	0.013150	1
H	3.051910	-2.133280	0.000700	1
Es	4.538382	0.622297	0.008911	99
Es	4.585564	-0.718516	0.008481	99
Es	3.266808	1.125030	0.003308	99
Es	3.300417	-1.079778	0.002411	99
Es	0.945077	0.010802	-0.007949	99
Es	2.423335	0.029503	-0.001011	99
Es	5.051536	0.937989	0.011322	99
Es	3.990262	-0.834515	0.005652	99
Es	2.917272	0.790648	0.001512	99
Es	0.702342	-0.329519	-0.604175	99
Es	2.891800	-0.650247	0.000782	99
Es	3.948099	0.842655	0.006254	99
Es	3.078974	1.641923	0.002493	99
Es	4.337155	0.566576	0.008165	99
Es	4.536246	-0.022897	0.008543	99
Es	3.075603	-1.682517	0.000997	99
Es	0.696663	-0.342844	0.578260	99
Es	1.706148	0.016740	-0.004282	99
Es	0.673898	0.688848	-0.001669	99
Es	4.921279	-0.910872	0.009985	99
Es	4.039453	-0.764539	0.005973	99
Es	2.831845	0.330625	0.001312	99
