38
Properties=species:S:1:pos:R:3:Z:I:1 energy=-249.04517637855312 field_type=dipole dipole="0.000000 0.000000 0.000000" charge=0
C	0.935550	0.009820	-0.183390	6
C	2.401700	0.037240	0.074400	6
N	3.301150	-0.765570	-0.742510	7
C	3.347890	0.687400	-0.907810	6
C	4.525340	1.386650	-0.395060	6
C	5.792100	1.190620	-0.785310	6
H	0.466080	0.907340	0.231640	1
H	0.483180	-0.863070	0.298130	1
H	0.700840	-0.030880	-1.252510	1
H	2.634420	0.072700	1.132460	1
H	2.815850	-1.194250	-1.530620	1
H	2.945600	1.077440	-1.837070	1
H	4.340890	2.141860	0.366300	1
H	6.035520	0.444150	-1.534920	1
H	6.606580	1.757400	-0.348130	1
Es	3.300793	-0.765424	-0.742696	99
Es	2.401855	0.037166	0.073897	99
Es	3.348453	0.687392	-0.907494	99
Es	4.525202	1.386532	-0.395061	99
Es	0.936156	0.009839	-0.183343	99
Es	5.791229	1.190954	-0.785036	99
Es	3.385008	-0.144911	-0.900958	99
Es	5.221788	1.288674	-0.661446	99
Es	1.685294	0.026380	-0.070748	99
Es	3.077727	0.928923	-1.539093	99
Es	2.989808	-0.965459	-1.201062	99
Es	6.312131	1.569648	-0.474623	99
Es	0.628813	-0.583264	0.144335	99
Es	2.574365	0.055495	0.788505	99
Es	4.363051	1.897072	0.113269	99
Es	0.625279	0.610456	0.091308	99
Es	5.911381	0.712959	-1.291837	99
Es	0.783897	-0.017874	-0.907070	99
Es	3.965473	1.042129	-0.651352	99
Es	3.597776	-0.949071	-0.574491	99
Es	2.805857	0.568908	-0.360666	99
Es	2.845285	-0.515788	-0.389199	99
Es	5.163774	1.259825	-0.547562	99
