40
Properties=species:S:1:pos:R:3:Z:I:1 energy=-266.236059611059 field_type=dipole dipole="0.000000 0.000000 0.000000" charge=0
C	0.945660	0.052440	-0.173270	6
C	2.437480	0.009930	0.037700	6
N	2.875320	-0.005090	1.454110	7
C	3.281180	-0.746310	-0.959770	6
C	3.298840	0.753660	-0.971650	6
N	4.496490	1.469160	-0.508960	7
H	0.681210	0.065670	-1.236550	1
H	0.520560	0.949560	0.289360	1
H	0.471610	-0.826160	0.277260	1
H	3.799010	-0.429600	1.534650	1
H	2.262830	-0.610650	2.001430	1
H	2.786400	-1.247040	-1.784880	1
H	4.172430	-1.263210	-0.624190	1
H	2.800360	1.225180	-1.816420	1
H	4.710430	1.159680	0.439500	1
H	4.266640	2.455430	-0.387640	1
Es	2.875399	-0.005124	1.454283	99
Es	4.496364	1.469166	-0.508878	99
Es	2.437364	0.009937	0.037666	99
Es	3.298982	0.753461	-0.971367	99
Es	0.946370	0.052412	-0.173255	99
Es	3.281000	-0.745440	-0.959894	99
Es	2.873088	0.369715	1.595991	99
Es	2.537061	-0.397875	1.706851	99
Es	3.413304	-0.009926	-1.079141	99
Es	0.640794	-0.547828	0.137451	99
Es	2.959162	1.080250	-1.519690	99
Es	2.706104	-0.045435	0.868583	99
Es	3.852081	-1.078554	-0.720488	99
Es	4.319121	2.006338	-0.408270	99
Es	3.384429	-0.282880	1.460305	99
Es	4.565611	1.297289	0.026745	99
Es	0.675363	0.657167	0.139240	99
Es	0.788594	0.058673	-0.896840	99
Es	1.716068	0.025634	-0.059192	99
Es	2.956804	-1.077959	-1.503854	99
Es	4.801000	1.414503	-0.759589	99
Es	3.964214	1.181226	-0.652772	99
Es	2.775740	-0.588760	-0.410825	99
Es	2.797190	0.580610	-0.405839	99
