41
Properties=species:S:1:pos:R:3:Z:I:1 energy=-250.24576728059694 field_type=dipole dipole="0.000000 0.000000 0.000000" charge=0
C	0.891360	-0.025300	0.089000	6
C	2.399140	0.001720	0.015610	6
N	2.889780	0.038040	-1.367790	7
C	3.156460	1.069630	0.844720	6
C	4.208620	-0.000730	1.201540	6
C	3.185560	-1.081740	0.793310	6
H	0.545300	-0.056800	1.128340	1
H	0.484050	-0.906180	-0.419600	1
H	0.453770	0.866110	-0.375180	1
H	3.903370	0.040290	-1.470080	1
H	2.554010	0.839930	-1.901980	1
H	2.599050	1.422600	1.721460	1
H	3.535350	1.945750	0.309690	1
H	5.101800	0.026350	0.566930	1
H	4.523050	-0.021580	2.248920	1
H	3.588530	-1.921490	0.217990	1
H	2.639560	-1.491410	1.652620	1
Es	2.889840	0.038102	-1.368024	99
Es	2.398755	0.001705	0.015391	99
Es	4.207695	-0.000712	1.201474	99
Es	3.185571	-1.080979	0.792989	99
Es	0.892173	-0.025306	0.089017	99
Es	3.156502	1.068973	0.844569	99
Es	2.746146	-0.297674	-1.538150	99
Es	3.755106	-0.599712	1.019173	99
Es	0.609479	0.595000	-0.229818	99
Es	2.792586	1.304661	1.433614	99
Es	4.424160	-0.014876	1.913288	99
Es	2.722071	0.540489	-1.615135	99
Es	3.462940	0.091136	-1.372616	99
Es	2.717250	-0.623164	0.388167	99
Es	1.640029	-0.007765	0.046141	99
Es	0.628309	-0.633125	-0.251267	99
Es	4.805750	0.018207	0.772183	99
Es	3.454915	-1.643986	0.397502	99
Es	0.678715	-0.042182	0.786567	99
Es	2.698681	0.625799	0.433669	99
Es	3.408156	1.663023	0.470144	99
Es	2.823119	-1.352683	1.368631	99
Es	3.741877	0.593740	1.047942	99
Es	2.726759	0.078916	-0.815770	99
