10
Properties=species:S:1:pos:R:3:Z:I:1 energy=-40.21343211906588 field_type=dipole dipole="0.000000 0.000000 0.000000" charge=0
C	0.998260	-0.002460	-0.004360	6
H	2.090210	-0.002430	0.004140	1
H	0.633790	1.026860	0.004140	1
H	0.627040	-0.527730	0.878110	1
H	0.641360	-0.507470	-0.905400	1
Es	0.868985	0.484225	0.024423	99
Es	0.859222	0.021376	0.119266	99
Es	0.874259	-0.180765	-0.503806	99
Es	1.544396	-0.012357	0.013513	99
Es	0.844104	-0.325265	0.323984	99
