17
Properties=species:S:1:pos:R:3:Z:I:1 energy=-79.25981201622703 field_type=dipole dipole="0.000000 0.000000 0.000000" charge=0
C	1.004040	-0.002950	-0.006400	6
C	2.515960	-0.007020	0.000590	6
H	0.622350	1.022400	-0.001640	1
H	0.614110	-0.519740	0.875610	1
H	0.622370	-0.508420	-0.898570	1
H	2.897650	0.502100	0.890620	1
H	2.905890	0.506090	-0.883570	1
H	2.897630	-1.032430	0.000060	1
Es	0.786629	0.429712	0.032003	99
Es	2.686609	0.136385	-0.176089	99
Es	0.826760	-0.271932	0.409691	99
Es	2.793098	-0.124646	0.273189	99
Es	2.061587	0.035448	-0.008822	99
Es	2.476917	-0.204699	-0.161398	99
Es	0.815190	-0.305759	-0.398576	99
Es	2.428787	0.140542	0.045368	99
Es	0.964422	0.120034	-0.041544	99
