19
Properties=species:S:1:pos:R:3:Z:I:1 energy=-152.97271981920466 field_type=dipole dipole="0.000000 0.000000 0.000000" charge=0
C	0.993820	0.009340	-0.002210	6
C	2.489170	0.038210	-0.011280	6
O	3.139770	1.048030	-0.265970	8
H	0.652380	-1.013260	-0.192710	1
H	0.603070	0.661730	-0.785940	1
H	0.629860	0.331370	0.975850	1
H	2.987920	-0.888910	0.314450	1
Es	2.922728	1.006379	-0.185564	99
Es	3.216090	1.277995	-0.398194	99
Es	2.935547	0.717266	-0.289165	99
Es	0.858714	0.195913	0.127492	99
Es	2.501855	0.000366	0.002600	99
Es	1.844167	-0.108397	0.013016	99
Es	0.688385	-0.496574	0.052433	99
Es	3.211697	0.968005	-0.211736	99
Es	2.722986	-0.475893	0.161972	99
Es	0.840265	0.286617	-0.280650	99
Es	2.968357	0.697416	-0.097869	99
Es	0.958882	0.064364	0.086085	99
