21
Properties=species:S:1:pos:R:3:Z:I:1 energy=-117.11286671681708 field_type=dipole dipole="0.000000 0.000000 0.000000" charge=0
C	0.975120	-0.010440	0.007820	6
C	2.467370	0.026250	0.010910	6
C	3.175720	1.162210	-0.010090	6
H	0.628360	-1.048000	-0.037040	1
H	0.571030	0.514130	-0.863620	1
H	0.572630	0.438070	0.921390	1
H	2.989930	-0.927010	0.030150	1
H	2.691540	2.133860	-0.027710	1
H	4.261420	1.140940	-0.007570	1
Es	3.884523	1.203737	-0.040827	99
Es	0.711714	-0.601638	0.045822	99
Es	2.825926	0.600560	0.173946	99
Es	0.860895	0.059276	0.124275	99
Es	0.839660	0.245283	-0.050300	99
Es	1.688349	0.186688	0.034229	99
Es	3.117355	1.269781	-0.020366	99
Es	0.912813	0.092541	-0.112134	99
Es	2.541441	0.128353	0.006235	99
Es	2.824048	-0.578680	0.012060	99
Es	2.636548	0.424308	-0.136335	99
Es	2.905665	1.650314	-0.003778	99
