23
Properties=species:S:1:pos:R:3:Z:I:1 energy=-134.29323532740526 field_type=dipole dipole="0.000000 0.000000 0.000000" charge=0
C	1.004600	-0.001030	-0.001030	6
N	2.460720	0.013160	0.009890	7
C	2.968220	1.378100	0.002970	6
H	0.649640	-1.036480	0.006750	1
H	0.604390	0.485290	-0.896940	1
H	0.596890	0.493070	0.887160	1
H	2.807320	-0.477770	-0.813520	1
H	2.634660	1.929690	0.888270	1
H	2.653710	1.919200	-0.895700	1
H	4.062580	1.360640	0.019490	1
Es	1.938152	0.061910	-0.112186	99
Es	2.836578	1.494252	-0.135654	99
Es	2.680547	0.573622	0.071870	99
Es	0.981258	-0.256079	-0.313414	99
Es	2.542222	0.017221	-0.031097	99
Es	3.037179	1.434357	0.108356	99
Es	2.670064	1.681181	0.002010	99
Es	2.635524	-0.078709	-0.128896	99
Es	0.773241	-0.091189	0.123231	99
Es	0.978207	0.196734	0.142897	99
Es	2.009086	-0.051996	-0.041583	99
Es	0.928956	0.102660	0.081649	99
Es	3.556016	1.385024	-0.023392	99
