19
Properties=species:S:1:pos:R:3:Z:I:1 energy=-152.92502856850334 field_type=dipole dipole="0.000000 0.000000 0.000000" charge=0
C	-0.083760	0.896500	-0.061110	6
C	-0.792660	-0.428540	-0.061430	6
O	0.635980	-0.340730	0.013300	8
H	-0.027320	1.451850	-0.988650	1
H	-0.125850	1.504070	0.833850	1
H	-1.223100	-0.783280	-0.989160	1
H	-1.321610	-0.731040	0.833300	1
Es	0.377084	-0.376693	0.057721	99
Es	0.450495	-0.027647	-0.032926	99
Es	0.076492	0.663175	-0.075145	99
Es	0.299453	-0.129615	0.080319	99
Es	0.534270	-0.222368	-0.098894	99
Es	-0.640953	-0.602530	0.023287	99
Es	-1.036776	-0.585569	-0.061880	99
Es	-0.944008	-0.562951	-0.156399	99
Es	-0.105540	1.066909	-0.025041	99
Es	-0.085621	1.181749	-0.090421	99
Es	-0.630681	0.514601	-0.070317	99
Es	0.476234	-0.266831	-0.005840	99
