27
Properties=species:S:1:pos:R:3:Z:I:1 energy=-172.1328432821689 field_type=dipole dipole="0.000000 0.000000 0.000000" charge=0
C	0.342860	1.040170	-0.133990	6
C	0.966520	-0.318410	0.214100	6
N	-0.323240	-0.955570	-0.150000	7
C	-0.994970	0.336410	0.133680	6
H	0.593630	1.872350	0.527520	1
H	0.487280	1.344650	-1.176760	1
H	1.227980	-0.440650	1.271770	1
H	1.819740	-0.621710	-0.399050	1
H	-0.370890	-1.219770	-1.134860	1
H	-1.811340	0.590960	-0.547900	1
H	-1.354320	0.421830	1.165840	1
Es	0.020116	-0.367123	-0.013100	99
Es	-0.307410	-0.920279	-0.214767	99
Es	-0.683838	-0.071247	0.067671	99
Es	-0.226929	0.722846	0.044019	99
Es	0.520898	0.442860	0.131332	99
Es	1.487031	-0.521102	0.177027	99
Es	0.623329	0.504656	-0.081903	99
Es	0.173119	-0.431269	-0.070266	99
Es	-1.498404	0.484175	-0.082697	99
Es	-0.405331	-1.307763	-0.158856	99
Es	0.158848	-0.694458	0.064395	99
Es	-0.892232	0.371270	0.195172	99
Es	1.063769	-0.336237	0.190250	99
Es	0.378875	1.082135	-0.450800	99
Es	-0.841783	0.212825	0.041976	99
Es	0.490284	1.501055	0.218471	99
