30
Properties=species:S:1:pos:R:3:Z:I:1 energy=-173.3528979528423 field_type=dipole dipole="0.000000 0.000000 0.000000" charge=0
C	0.988760	-0.030250	-0.001580	6
C	2.509080	0.011590	0.002480	6
C	3.025730	1.448180	0.008880	6
N	4.483590	1.461290	0.004310	7
H	0.638340	-1.067050	-0.006180	1
H	0.585010	0.468750	-0.888280	1
H	0.580450	0.462550	0.886500	1
H	2.883800	-0.519170	-0.881200	1
H	2.878520	-0.526320	0.884030	1
H	2.660400	1.978560	0.895220	1
H	2.660900	1.983800	-0.874150	1
H	4.834210	0.990790	0.836890	1
H	4.812720	2.424500	0.060720	1
Es	4.543175	1.515953	0.063116	99
Es	3.922684	1.430002	-0.129423	99
Es	4.490102	1.459398	0.132366	99
Es	0.894128	-0.351289	0.076229	99
Es	0.829205	-0.071140	0.287711	99
Es	0.815756	0.135044	-0.142801	99
Es	4.619743	1.309566	-0.017325	99
Es	2.925482	1.375785	-0.081135	99
Es	4.692766	1.727626	0.278670	99
Es	1.778198	0.024255	-0.240536	99
Es	2.862050	-0.262238	0.211915	99
Es	2.752230	1.850547	-0.000273	99
Es	2.856220	1.607096	0.093098	99
Es	2.633407	0.136910	-0.082192	99
Es	1.882386	-0.009938	-0.044093	99
Es	2.689987	0.518744	0.028465	99
Es	1.390312	0.045749	-0.050006	99
