27
Properties=species:S:1:pos:R:3:Z:I:1 energy=-172.1313825826076 field_type=dipole dipole="0.000000 0.000000 0.000000" charge=0
C	1.144150	-0.006700	-0.093280	6
N	2.597610	-0.077770	0.025860	7
C	3.234640	-0.746550	-1.103120	6
C	3.304110	0.751490	-0.943660	6
H	0.759420	0.751060	0.597290	1
H	0.702540	-0.967700	0.190160	1
H	0.784580	0.244310	-1.098750	1
H	2.607180	-1.159060	-1.883130	1
H	4.119730	-1.324600	-0.867460	1
H	4.237510	1.183300	-0.602660	1
H	2.729900	1.373180	-1.619590	1
Es	2.308743	-0.208803	-0.302712	99
Es	3.689117	0.963146	-0.815983	99
Es	3.052902	-0.077879	-0.948234	99
Es	3.037242	0.107349	-0.792519	99
Es	3.234213	-0.415527	-1.142532	99
Es	2.933625	0.139391	-0.904861	99
Es	2.833714	-0.497126	-0.792336	99
Es	0.879486	0.530363	0.354362	99
Es	3.781790	-1.122482	-1.051221	99
Es	2.681700	0.266719	-0.397335	99
Es	3.437806	0.855408	-0.973901	99
Es	1.294739	-0.069860	-0.227568	99
Es	2.346247	-0.222644	-0.215545	99
Es	1.245926	-0.064750	-0.265586	99
Es	1.063352	-0.477965	-0.008731	99
Es	2.337831	0.050825	-0.346565	99
