27
Properties=species:S:1:pos:R:3:Z:I:1 energy=-172.15026399024066 field_type=dipole dipole="0.000000 0.000000 0.000000" charge=0
N	1.016600	-0.033000	-0.124420	7
C	2.468390	-0.066990	-0.000520	6
C	3.269190	-0.749830	-1.069770	6
C	3.294510	0.747230	-0.951880	6
H	0.623830	0.727060	0.429990	1
H	0.602520	-0.891380	0.237350	1
H	2.841970	-0.154930	1.017580	1
H	2.743600	-1.180340	-1.914310	1
H	4.153550	-1.298630	-0.769100	1
H	4.196260	1.212210	-0.572040	1
H	2.785770	1.321920	-1.717330	1
Es	1.372440	-0.057756	-0.110967	99
Es	3.411522	-1.084687	-1.068063	99
Es	0.779108	0.437025	0.192797	99
Es	2.881555	0.718195	-0.703934	99
Es	2.579335	-0.362228	-0.440302	99
Es	3.204712	-0.391214	-0.940225	99
Es	3.168089	-0.224598	-0.886926	99
Es	3.121131	0.566021	-0.778190	99
Es	0.847761	-0.456954	0.137017	99
Es	3.481097	-0.041312	-1.055871	99
Es	2.619817	0.185730	-0.265366	99
Es	3.472653	0.838933	-0.870668	99
Es	3.448311	-0.051942	-0.984701	99
Es	1.205462	-0.062429	-0.114667	99
Es	1.799582	-0.309311	-0.264655	99
Es	2.215109	-0.143430	-0.126216	99
