23
Properties=species:S:1:pos:R:3:Z:I:1 energy=-190.83393445727577 field_type=dipole dipole="0.000000 0.000000 0.000000" charge=0
C	0.978670	-0.014110	0.023790	6
C	2.313830	0.007060	-0.027740	6
C	3.051060	1.286070	-0.012840	6
O	4.274180	1.316150	-0.059680	8
H	0.445660	-0.960380	0.012280	1
H	0.381040	0.891190	0.078130	1
H	2.911310	-0.895570	-0.081990	1
H	2.441000	2.202660	0.042390	1
Es	3.051060	1.286020	-0.012843	99
Es	1.640964	-0.002740	-0.000904	99
Es	0.621774	0.540522	0.056690	99
Es	4.577748	1.327078	-0.069845	99
Es	2.623170	1.906301	0.025562	99
Es	4.217675	1.306301	-0.057674	99
Es	2.313914	0.007082	-0.027722	99
Es	3.889641	1.299821	-0.037353	99
Es	2.731867	-0.577688	-0.064302	99
Es	3.753232	1.305101	-0.049423	99
Es	0.567324	-0.589907	0.021094	99
Es	4.266803	1.321145	-0.059234	99
Es	1.726310	0.052393	-0.004498	99
Es	0.978331	-0.013888	0.023785	99
Es	2.649249	0.628868	-0.019774	99
