25
Properties=species:S:1:pos:R:3:Z:I:1 energy=-154.97830835206133 field_type=dipole dipole="0.000000 0.000000 0.000000" charge=0
C	0.929460	-0.149640	0.229990	6
C	2.142190	0.097820	-0.277690	6
C	2.757830	1.400940	-0.235270	6
C	3.970420	1.650030	-0.742460	6
H	0.503640	-1.146710	0.176240	1
H	0.333050	0.621640	0.707270	1
H	2.696000	-0.712610	-0.744900	1
H	2.203200	2.212460	0.232610	1
H	4.567170	0.879320	-1.219760	1
H	4.395520	2.647390	-0.688300	1
Es	2.380840	1.940331	0.079550	99
Es	3.970555	1.650112	-0.742522	99
Es	4.294201	1.292296	-0.985734	99
Es	2.451710	0.748626	-0.257491	99
Es	3.365723	1.522292	-0.490313	99
Es	3.347735	1.499417	-0.487775	99
Es	0.646126	-0.812038	0.194390	99
Es	0.510320	0.362020	0.557532	99
Es	2.516945	-0.440361	-0.591324	99
Es	2.757733	1.400913	-0.235257	99
Es	1.534516	-0.022284	-0.021456	99
Es	4.348808	2.158505	-0.791321	99
Es	2.142287	0.097860	-0.277726	99
Es	1.552244	0.000302	-0.025318	99
Es	0.929334	-0.149657	0.230052	99
