32
Properties=species:S:1:pos:R:3:Z:I:1 energy=-194.04336329102304 field_type=dipole dipole="0.000000 0.000000 0.000000" charge=0
C	-1.268280	-0.000090	-0.129960	6
C	-0.382420	-1.223390	0.104370	6
C	0.993830	-0.669210	-0.051750	6
C	0.994360	0.667570	-0.044550	6
C	-0.383140	1.219990	0.116860	6
H	-1.622800	0.005340	-1.169060	1
H	-2.155240	-0.003590	0.512160	1
H	-0.592180	-2.008580	-0.627990	1
H	-0.516290	-1.630950	1.111640	1
H	1.880550	-1.283920	-0.127560	1
H	1.880850	1.283600	-0.114320	1
H	-0.516310	1.617380	1.129000	1
H	-0.592160	2.012920	-0.607020	1
Es	-1.307739	-0.053771	-0.164270	99
Es	-1.773081	0.003793	-0.178034	99
Es	-0.423451	-1.373932	0.187274	99
Es	0.082544	1.013840	0.079594	99
Es	-0.332354	-1.518621	0.100655	99
Es	0.294259	1.016070	0.043927	99
Es	1.008755	0.450791	-0.067072	99
Es	-0.920401	-0.606031	-0.059468	99
Es	1.092760	0.334506	-0.055468	99
Es	0.497046	1.015236	-0.061459	99
Es	-0.778138	1.197623	0.125801	99
Es	0.207684	-0.999639	0.002841	99
Es	1.073821	-0.723928	-0.064200	99
Es	1.513643	-1.037828	-0.097107	99
Es	1.271777	0.298586	-0.060061	99
Es	-1.462989	0.023833	-0.111270	99
Es	-0.470588	1.030662	0.222879	99
Es	-0.463518	-1.501856	0.111401	99
Es	-0.342959	1.411436	0.073784	99
