30
Properties=species:S:1:pos:R:3:Z:I:1 energy=-229.82213588782543 field_type=dipole dipole="0.000000 0.000000 0.000000" charge=0
C	1.001800	-0.063780	0.029990	6
O	2.421090	-0.008220	0.028890	8
C	2.894010	1.338550	0.000000	6
C	4.338010	1.338550	0.000000	6
C	5.528170	1.338550	0.000000	6
H	0.699990	-1.113360	0.052710	1
H	0.599310	0.396030	-0.876720	1
H	0.599300	0.434660	0.916580	1
H	2.514430	1.874340	0.877410	1
H	2.514430	1.836190	-0.899590	1
H	6.593500	1.327380	0.000240	1
Es	0.771439	-0.600436	-0.002062	99
Es	4.991483	1.334562	-0.031188	99
Es	3.048165	1.376784	-0.017859	99
Es	4.946157	1.065367	0.038022	99
Es	6.213032	1.309912	-0.008421	99
Es	3.387672	1.406774	0.028983	99
Es	1.534972	0.030670	-0.020732	99
Es	1.032312	-0.036195	0.145143	99
Es	5.440825	1.343770	0.044023	99
Es	0.812634	0.097216	-0.038238	99
Es	2.761576	1.094778	-0.171937	99
Es	2.719542	1.305979	0.082447	99
Es	2.531086	1.233492	0.063861	99
Es	0.993091	0.186005	0.063485	99
Es	2.561711	-0.192861	0.073861	99
Es	4.779357	1.540777	-0.061752	99
Es	2.445697	0.140168	0.067072	99
Es	4.494798	1.436857	0.014596	99
Es	2.405645	0.016687	-0.026058	99
