33
Properties=species:S:1:pos:R:3:Z:I:1 energy=-231.03597932749113 field_type=dipole dipole="0.000000 0.000000 0.000000" charge=0
O	0.937080	0.006060	0.025260	8
C	2.373700	0.019470	0.008460	6
C	3.050340	1.057730	0.935150	6
C	4.121370	-0.005860	1.238230	6
C	3.076370	-1.070210	0.852030	6
H	0.688250	-0.786390	-0.481770	1
H	2.747760	0.067630	-1.022420	1
H	2.445500	1.342820	1.803710	1
H	3.416470	1.963030	0.443770	1
H	4.982630	0.030760	0.561440	1
H	4.478570	-0.041800	2.270110	1
H	3.465090	-1.924960	0.292480	1
H	2.480250	-1.436780	1.695560	1
Es	2.715139	-0.164280	0.075780	99
Es	3.022980	1.110029	0.919992	99
Es	0.959704	-0.099562	-0.028012	99
Es	4.494529	-0.023360	1.435782	99
Es	3.427497	-1.198343	0.702357	99
Es	1.695446	0.057184	0.084857	99
Es	3.137112	1.585497	0.875431	99
Es	2.642818	-0.202266	0.406277	99
Es	2.806091	0.043909	0.515039	99
Es	4.388284	-0.022478	1.278581	99
Es	0.961399	0.139924	-0.170317	99
Es	3.297864	0.693717	0.863242	99
Es	3.241264	-0.961388	0.851909	99
Es	3.568502	-0.155318	1.020642	99
Es	0.808209	-0.295151	-0.143656	99
Es	1.412564	0.032502	0.051194	99
Es	2.735988	-1.202755	1.017870	99
Es	3.715762	-0.436471	1.067778	99
Es	3.220803	0.869316	1.128587	99
Es	1.586422	-0.017322	0.095329	99
