33
Properties=species:S:1:pos:R:3:Z:I:1 energy=-231.03493167264787 field_type=dipole dipole="0.000000 0.000000 0.000000" charge=0
O	3.045060	-0.947280	-0.571510	8
C	2.366950	0.101240	0.102440	6
C	3.248940	1.303440	0.110750	6
C	3.289710	2.231540	-1.075590	6
C	2.660800	2.686840	0.213450	6
H	2.443780	-1.710270	-0.578170	1
H	2.155920	-0.218980	1.127860	1
H	1.418570	0.292130	-0.410380	1
H	4.181970	1.109170	0.627550	1
H	2.640720	2.020040	-1.917760	1
H	4.250410	2.649440	-1.352640	1
H	3.195190	3.420930	0.805280	1
H	1.582830	2.797450	0.237780	1
Es	3.143570	2.407847	-0.755761	99
Es	2.450699	0.331873	0.053482	99
Es	2.777821	3.013245	0.462754	99
Es	2.694898	2.651345	-0.023943	99
Es	2.700691	0.489376	0.255520	99
Es	2.615972	2.499647	0.064314	99
Es	3.070079	1.449864	0.115619	99
Es	2.891712	2.512750	-0.309569	99
Es	3.006950	-0.891992	-0.644358	99
Es	2.770640	-1.135562	-0.537679	99
Es	2.132706	-0.043338	0.386788	99
Es	3.324642	1.993641	-0.493831	99
Es	3.334972	1.993237	-0.780538	99
Es	2.598288	0.222754	0.043839	99
Es	3.164015	-1.130233	-0.684888	99
Es	2.683983	-0.354151	-0.216004	99
Es	3.480861	2.276669	-1.348965	99
Es	3.000804	-0.875759	-0.474564	99
Es	2.939955	1.404584	0.213484	99
Es	3.185162	1.543588	-0.357933	99
