32
Properties=species:S:1:pos:R:3:Z:I:1 energy=-194.00353160341297 field_type=dipole dipole="0.000000 0.000000 0.000000" charge=0
C	1.910490	-0.660830	-1.190420	6
C	2.068250	0.296400	-0.267060	6
C	3.236950	1.166540	-0.130810	6
C	3.510150	2.197690	-1.194440	6
C	3.018760	2.629280	0.155980	6
H	1.012070	-1.268680	-1.216120	1
H	2.674320	-0.851690	-1.937340	1
H	1.270420	0.436480	0.461890	1
H	4.095720	0.696850	0.338930	1
H	2.827070	2.282100	-2.032460	1
H	4.544760	2.398440	-1.448090	1
H	3.720750	3.124570	0.817320	1
H	2.005440	3.008930	0.225600	1
Es	3.238463	1.879628	-0.953051	99
Es	3.268824	2.831510	0.410661	99
Es	3.105919	2.702218	0.124433	99
Es	3.261287	1.561139	-0.471552	99
Es	2.403592	0.629773	-0.117018	99
Es	1.895319	-0.681331	-1.199343	99
Es	3.052576	2.260269	-0.151539	99
Es	3.426355	2.240905	-1.095834	99
Es	2.150068	0.138505	-0.351690	99
Es	3.153558	1.603186	-0.918590	99
Es	2.159929	0.635124	0.140350	99
Es	3.008298	1.655446	-0.022075	99
Es	2.196013	-0.405296	-1.290759	99
Es	3.135832	1.390415	-0.230778	99
Es	1.530230	-0.987804	-1.000198	99
Es	4.162552	2.364778	-1.370485	99
Es	3.023807	2.582820	0.061777	99
Es	2.132301	-0.551000	-1.222361	99
Es	1.980484	-0.074714	-0.624593	99
