32
Properties=species:S:1:pos:R:3:Z:I:1 energy=-247.0136272474324 field_type=dipole dipole="0.000000 0.000000 0.000000" charge=0
C	0.987600	-0.087330	-0.051920	6
C	2.494730	0.031980	0.066440	6
C	2.895340	1.479670	0.064850	6
N	3.414330	2.025210	1.115960	7
O	3.682600	3.370530	0.839660	8
H	0.686860	-1.139340	-0.063510	1
H	0.626360	0.383300	-0.972550	1
H	0.488330	0.404250	0.789870	1
H	2.978020	-0.454380	-0.786720	1
H	2.843120	-0.450160	0.985350	1
H	2.718250	2.051460	-0.863710	1
H	4.064500	3.683950	1.681000	1
Es	3.610100	3.327163	0.984454	99
Es	3.333895	1.924918	0.825132	99
Es	2.542463	0.061756	0.051517	99
Es	2.796077	1.074294	0.112737	99
Es	1.174126	0.068510	0.188193	99
Es	3.436476	1.870280	0.743341	99
Es	1.039949	-0.495181	-0.020624	99
Es	3.674760	3.327037	0.856123	99
Es	2.806016	1.834993	0.044776	99
Es	3.644764	2.686228	1.105992	99
Es	3.407010	2.264732	1.062705	99
Es	2.783147	1.185955	-0.039634	99
Es	0.988916	0.036643	-0.351026	99
Es	2.141065	-0.060826	0.030330	99
Es	3.995937	3.374216	0.848785	99
Es	2.674666	-0.153144	0.342422	99
Es	1.231357	-0.122962	-0.164688	99
Es	3.043235	1.731178	0.674467	99
Es	3.556696	3.355154	0.850032	99
Es	1.193435	-0.110859	-0.198149	99
