29
Properties=species:S:1:pos:R:3:Z:I:1 energy=-192.80036129622664 field_type=dipole dipole="0.000000 0.000000 0.000000" charge=0
C	1.017450	0.035620	-0.105840	6
C	2.216140	0.009190	-0.046780	6
C	3.647140	-0.027240	0.029690	6
C	4.409400	-0.752320	-1.047650	6
C	4.448330	0.746830	-0.983810	6
H	-0.046540	0.057250	-0.157490	1
H	4.056540	-0.079470	1.034490	1
H	3.857350	-1.210620	-1.860770	1
H	5.298540	-1.298600	-0.755160	1
H	5.364930	1.218270	-0.648810	1
H	3.922570	1.301180	-1.753350	1
Es	2.269442	-0.011164	-0.082823	99
Es	4.468139	0.732823	-0.931063	99
Es	3.448037	0.296450	-0.204184	99
Es	3.980807	-0.486591	-0.716009	99
Es	4.914826	0.547732	-1.053405	99
Es	4.439436	-0.549167	-1.023431	99
Es	0.849704	-0.196234	-0.059775	99
Es	4.589573	-0.818800	-0.894953	99
Es	1.727947	0.130836	-0.070724	99
Es	1.063484	0.227980	-0.060542	99
Es	2.800837	-0.012034	-0.032693	99
Es	1.485213	0.012652	-0.002537	99
Es	3.820442	0.191759	-0.347680	99
Es	4.047953	-0.143601	-0.470677	99
Es	1.461343	-0.038150	-0.175138	99
Es	4.147732	-0.457716	-0.693152	99
Es	4.046686	0.566785	-0.729144	99
Es	4.784110	0.038697	-0.963229	99
