29
Properties=species:S:1:pos:R:3:Z:I:1 energy=-245.9050383645898 field_type=dipole dipole="0.000000 0.000000 0.000000" charge=0
C	0.923660	-0.363060	0.019170	6
C	2.186480	0.055720	-0.087740	6
N	2.500580	1.383240	-0.156840	7
C	3.767410	1.887620	-0.267020	6
O	4.010180	3.085820	-0.326410	8
H	0.698790	-1.423930	0.072470	1
H	0.084720	0.324590	0.056650	1
H	3.008890	-0.655400	-0.123200	1
H	1.765740	2.080950	-0.127330	1
H	4.557209	1.118500	-0.298080	1
Es	1.489594	-0.192952	-0.034127	99
Es	2.733029	-0.403622	-0.107877	99
Es	2.581371	1.374873	-0.116039	99
Es	2.134185	1.720862	-0.191695	99
Es	2.490712	1.411571	-0.123994	99
Es	3.953397	2.773698	-0.255581	99
Es	4.278134	1.361032	-0.295870	99
Es	3.905087	3.172319	-0.337909	99
Es	0.916674	-0.355398	0.019238	99
Es	3.743286	1.872749	-0.261728	99
Es	4.338608	3.074267	-0.304945	99
Es	3.079471	1.608501	-0.255509	99
Es	3.872284	3.192791	-0.296049	99
Es	2.356126	0.818038	-0.105547	99
Es	1.549580	-0.115938	-0.041591	99
Es	0.403285	0.080107	0.050007	99
Es	0.747133	-1.074728	0.057493	99
Es	3.857565	2.597000	-0.403982	99
Es	2.184281	0.055415	-0.086166	99
