32
Properties=species:S:1:pos:R:3:Z:I:1 energy=-247.09417450160095 field_type=dipole dipole="0.000000 0.000000 0.000000" charge=0
C	0.948780	-0.213430	0.086590	6
C	2.439270	0.063060	0.006250	6
N	2.728390	1.474550	0.136010	7
C	2.685710	2.326180	-0.937400	6
O	2.440230	2.012010	-2.092120	8
H	0.755150	-1.287410	0.006680	1
H	0.408250	0.293190	-0.719640	1
H	0.536700	0.140490	1.037440	1
H	2.836860	-0.300260	-0.947410	1
H	2.963660	-0.452460	0.816880	1
H	2.883270	1.861900	1.057470	1
H	2.903570	3.366120	-0.642630	1
Es	0.963559	-0.417010	0.196155	99
Es	2.682557	0.828880	0.294114	99
Es	1.395751	-0.143482	0.078645	99
Es	2.652736	2.362735	-1.415448	99
Es	2.073767	0.154060	-0.075179	99
Es	2.042732	0.002108	0.222096	99
Es	2.640819	2.079998	-0.628514	99
Es	1.765645	-0.053661	0.266797	99
Es	2.531902	0.896205	-0.209602	99
Es	2.880878	1.758528	0.344265	99
Es	2.473579	2.307968	-2.148449	99
Es	2.653286	1.708948	-0.203974	99
Es	0.838558	-0.570669	-0.115656	99
Es	2.479910	1.923342	-2.006435	99
Es	1.180381	-0.026730	-0.114085	99
Es	2.879476	1.618576	-0.084442	99
Es	2.515096	2.047762	-1.761182	99
Es	2.310101	1.975841	-1.750583	99
Es	2.809724	2.499849	-1.308174	99
Es	2.356445	0.618982	-0.130878	99
