35
Properties=species:S:1:pos:R:3:Z:I:1 energy=-248.2252786325459 field_type=dipole dipole="0.000000 0.000000 0.000000" charge=0
C	1.333580	-0.295470	-0.064900	6
O	2.714250	-0.025370	0.138700	8
C	3.014090	1.358450	-0.083750	6
C	4.520900	1.576040	0.092330	6
N	5.284070	0.854320	-0.931760	7
H	1.157800	-1.356190	0.132350	1
H	1.050550	-0.081030	-1.099800	1
H	0.721620	0.294610	0.623920	1
H	2.470040	1.964870	0.649100	1
H	2.699200	1.651630	-1.092410	1
H	4.829580	1.208560	1.077130	1
H	4.756800	2.642490	0.029740	1
H	4.937280	-0.108770	-0.944700	1
H	6.259630	0.799130	-0.644280	1
Es	5.206965	0.615399	-0.662888	99
Es	2.885245	1.517681	0.156995	99
Es	5.665621	0.878155	-0.881176	99
Es	1.575661	-0.193275	-0.169040	99
Es	4.574746	1.658376	0.235528	99
Es	1.848465	-0.197902	-0.086468	99
Es	4.750273	1.673114	-0.105772	99
Es	2.919143	1.018469	-0.118558	99
Es	4.363840	1.592771	0.130725	99
Es	2.730175	1.568237	-0.018930	99
Es	5.052006	1.129865	-0.769493	99
Es	4.979080	1.034686	-0.640899	99
Es	1.115348	-0.040869	0.115009	99
Es	2.687180	0.030106	0.110753	99
Es	1.263774	-0.221853	-0.063248	99
Es	2.856834	0.708035	-0.001415	99
Es	5.201528	0.706855	-0.887641	99
Es	4.114722	1.440345	0.087189	99
Es	1.230026	-0.811788	-0.013369	99
Es	2.828708	0.032557	0.008497	99
Es	2.642696	0.142085	-0.033050	99
