32
Properties=species:S:1:pos:R:3:Z:I:1 energy=-247.02232234899103 field_type=dipole dipole="0.000000 0.000000 0.000000" charge=0
N	1.088020	0.173820	0.185600	7
C	2.479220	-0.058800	-0.185750	6
C	3.223300	1.230640	-0.100050	6
C	3.829560	1.696480	1.196300	6
O	4.626440	1.095290	0.164720	8
H	0.587510	-0.713950	0.156260	1
H	0.645130	0.765820	-0.516020	1
H	2.531760	-0.454400	-1.205130	1
H	2.909670	-0.809370	0.486070	1
H	2.918470	1.964000	-0.833940	1
H	3.642010	1.118810	2.092910	1
H	3.936720	2.761980	1.357100	1
Es	3.012569	0.711200	-0.197736	99
Es	4.362715	1.501565	0.727813	99
Es	3.850066	1.487956	0.561428	99
Es	2.517970	-0.045127	-0.322232	99
Es	3.937427	1.654062	0.890156	99
Es	1.139249	-0.142465	0.350753	99
Es	2.440015	-0.219338	-0.328712	99
Es	3.137057	1.112956	-0.099473	99
Es	2.106863	-0.090756	-0.329339	99
Es	1.109187	0.189442	0.214699	99
Es	4.465072	1.159705	0.262382	99
Es	1.397851	0.177503	0.009836	99
Es	3.613307	1.739218	1.290632	99
Es	3.171508	1.066483	-0.023664	99
Es	4.802129	1.045491	-0.007308	99
Es	1.577876	0.083539	-0.091826	99
Es	3.850210	1.672941	1.124396	99
Es	0.993570	0.395899	0.091049	99
Es	3.664624	1.379349	0.528395	99
Es	4.564515	1.042881	0.221661	99
