35
Properties=species:S:1:pos:R:3:Z:I:1 energy=-248.23604321504027 field_type=dipole dipole="0.000000 0.000000 0.000000" charge=0
N	1.168150	-0.176750	0.053200	7
C	2.626830	-0.119310	0.098200	6
C	3.100820	1.328310	-0.028910	6
C	4.620690	1.432010	-0.019470	6
O	5.159330	0.947580	1.203970	8
H	0.870540	-1.148420	0.134630	1
H	0.839450	0.144110	-0.856400	1
H	3.039160	-0.728060	-0.713690	1
H	2.967200	-0.550390	1.045470	1
H	2.692570	1.913490	0.805080	1
H	2.720700	1.768460	-0.958800	1
H	4.933640	2.473390	-0.142210	1
H	5.056490	0.850010	-0.836710	1
H	4.767750	1.473210	1.923920	1
Es	1.349587	-0.057153	0.132817	99
Es	4.849511	1.341580	0.690673	99
Es	5.103063	1.176798	1.051605	99
Es	2.718358	0.782300	0.100702	99
Es	4.664639	1.170982	-0.058853	99
Es	5.188041	0.949692	1.179042	99
Es	4.830139	1.826032	0.216169	99
Es	3.113259	1.324720	-0.101672	99
Es	1.790512	-0.184888	-0.003627	99
Es	4.429146	1.431851	0.021298	99
Es	2.537813	-0.076087	0.130813	99
Es	5.175405	0.688752	1.334500	99
Es	2.615249	-0.220245	0.131190	99
Es	5.094891	1.156109	0.965995	99
Es	2.983507	1.541386	-0.487516	99
Es	1.160789	-0.138787	-0.121080	99
Es	2.786942	-0.118961	0.403896	99
Es	1.143381	-0.227061	-0.097345	99
Es	4.116476	1.257894	-0.085915	99
Es	1.113800	-0.435511	-0.020280	99
Es	3.024014	0.956785	0.098151	99
