29
Properties=species:S:1:pos:R:3:Z:I:1 energy=-245.89755562623589 field_type=dipole dipole="0.000000 0.000000 0.000000" charge=0
N	0.977200	-0.053110	0.197350	7
C	2.339230	0.045580	0.083470	6
C	3.054490	1.174050	0.061780	6
C	4.523470	1.117220	-0.053450	6
O	5.199350	2.137420	-0.100850	8
H	0.569800	-0.868610	-0.256410	1
H	0.465040	0.804950	0.002080	1
H	2.818920	-0.930710	0.020090	1
H	2.611050	2.158940	0.132350	1
H	4.974600	0.112100	-0.098260	1
Es	1.576860	0.012128	0.136376	99
Es	0.679629	0.429818	0.150280	99
Es	5.385834	2.373730	-0.098846	99
Es	4.814113	0.414974	-0.083452	99
Es	2.660834	-0.610949	0.039657	99
Es	3.006489	1.274946	0.066521	99
Es	2.677897	0.602043	0.090841	99
Es	2.801577	1.692851	0.094207	99
Es	5.010759	1.851239	-0.066328	99
Es	4.825409	1.833104	-0.070097	99
Es	0.978166	-0.054015	0.198836	99
Es	2.896949	0.755420	0.042482	99
Es	1.053838	-0.061968	0.182089	99
Es	3.912815	1.159516	0.002350	99
Es	5.218874	1.953077	-0.144547	99
Es	5.200803	2.139519	-0.097920	99
Es	4.386889	1.129019	-0.040842	99
Es	0.719003	-0.549122	0.058231	99
Es	2.339360	0.045925	0.083473	99
