29
Properties=species:S:1:pos:R:3:Z:I:1 energy=-192.81319932427186 field_type=dipole dipole="0.000000 0.000000 0.000000" charge=0
C	0.976360	0.005020	-0.006680	6
C	2.477240	-0.006490	-0.002590	6
C	3.162510	-1.159750	0.005270	6
C	3.192770	1.227650	-0.004090	6
C	3.792280	2.266840	-0.004040	6
H	0.582260	1.026830	0.020090	1
H	0.583330	-0.523120	0.868610	1
H	0.589940	-0.475470	-0.911790	1
H	2.652550	-2.117630	0.007210	1
H	4.248370	-1.177130	0.009060	1
H	4.326250	3.190080	-0.004010	1
Es	0.693776	-0.398512	-0.078197	99
Es	3.236102	-1.134859	0.020056	99
Es	2.776752	-0.454972	0.133967	99
Es	2.604738	-0.196093	-0.108197	99
Es	0.799155	0.681896	0.045496	99
Es	2.960471	0.730931	0.001512	99
Es	0.960312	-0.054388	0.088394	99
Es	3.728316	2.233813	-0.006410	99
Es	4.126164	2.875746	-0.013621	99
Es	2.829597	-1.818637	0.020190	99
Es	3.468851	1.709384	-0.002423	99
Es	3.524868	1.740738	-0.036416	99
Es	3.765437	-1.168007	-0.009826	99
Es	0.815469	-0.196747	-0.075437	99
Es	3.488442	1.724318	0.020180	99
Es	2.778921	-0.463528	-0.035715	99
Es	1.653580	-0.035734	-0.008852	99
Es	3.131599	1.229042	0.003340	99
