34
Properties=species:S:1:pos:R:3:Z:I:1 energy=-211.19482637152532 field_type=dipole dipole="0.000000 0.000000 0.000000" charge=0
C	0.846250	-0.009770	-0.234000	6
C	2.323250	-0.029410	0.050410	6
C	2.691400	-0.007000	1.508360	6
C	3.227490	-0.769330	-0.911580	6
N	3.189120	0.689290	-0.892110	7
H	0.631830	-0.003600	-1.308490	1
H	0.384490	0.880880	0.204990	1
H	0.365830	-0.893740	0.198050	1
H	3.775930	-0.029350	1.661980	1
H	2.264430	-0.875790	2.020090	1
H	2.302950	0.898390	1.986310	1
H	2.790030	-1.240450	-1.783640	1
H	4.132700	-1.236250	-0.542620	1
H	4.011540	1.071870	-0.422550	1
Es	0.903433	-0.011417	-0.423725	99
Es	2.840550	0.049421	1.592337	99
Es	3.139428	0.121992	-0.761589	99
Es	2.621635	-0.024167	0.695851	99
Es	2.628888	-0.013136	1.122002	99
Es	2.655771	-0.155367	-0.171857	99
Es	3.246346	-0.125940	-1.048051	99
Es	2.487814	-0.017007	1.680867	99
Es	0.776542	0.249025	0.199659	99
Es	3.103246	-0.022043	-0.524127	99
Es	2.666709	-0.013415	0.721018	99
Es	3.032118	-0.443278	-1.235458	99
Es	1.806015	0.056230	0.031436	99
Es	2.915078	-0.037941	-0.794158	99
Es	2.242221	0.008423	0.517253	99
Es	0.977630	-0.061446	-0.196348	99
Es	2.899840	0.051654	-0.631354	99
Es	1.052604	-0.210213	-0.531799	99
Es	3.117744	-0.092955	-0.621960	99
Es	3.601639	0.045334	-0.646243	99
