34
Properties=species:S:1:pos:R:3:Z:I:1 energy=-211.18262635089957 field_type=dipole dipole="0.000000 0.000000 0.000000" charge=0
C	1.019210	0.002450	-0.067230	6
C	2.507050	0.050280	-0.021200	6
C	3.319010	-0.707230	-1.045990	6
N	3.226710	0.749730	-1.079250	7
C	4.446060	1.410620	-0.622960	6
H	0.596610	0.783510	0.573050	1
H	0.662210	-0.965430	0.299630	1
H	0.628330	0.146780	-1.080310	1
H	2.883160	0.094550	0.994470	1
H	2.797680	-1.226470	-1.842260	1
H	4.250730	-1.160420	-0.736440	1
H	4.235350	2.467230	-0.429860	1
H	5.209650	1.363420	-1.406020	1
H	4.876170	0.983980	0.292280	1
Es	1.300365	-0.026660	-0.074301	99
Es	4.223698	1.136642	-0.757797	99
Es	0.930402	-0.030606	-0.208909	99
Es	1.965258	-0.035967	-0.047019	99
Es	2.201032	0.056863	-0.067486	99
Es	0.735912	0.457445	0.389656	99
Es	3.599673	-0.426354	-0.901544	99
Es	4.489357	1.058855	-0.518446	99
Es	3.030350	0.119757	-0.732436	99
Es	3.261016	0.647616	-0.931808	99
Es	3.109309	-0.630936	-0.948833	99
Es	3.009414	-0.305082	-0.679813	99
Es	4.261968	1.456811	-0.731358	99
Es	4.697483	1.344073	-0.793589	99
Es	4.279591	1.744372	-0.491812	99
Es	0.801113	-0.448881	-0.170223	99
Es	3.188052	0.301115	-0.852466	99
Es	3.161665	0.406563	-0.784766	99
Es	3.084719	-0.885427	-1.207446	99
Es	2.849718	0.266637	-0.321132	99
