34
Properties=species:S:1:pos:R:3:Z:I:1 energy=-211.19470893874305 field_type=dipole dipole="0.000000 0.000000 0.000000" charge=0
C	1.039860	-0.007590	-0.070800	6
C	2.526210	0.046000	0.013750	6
N	3.337430	-0.641250	-0.990850	7
C	3.332910	0.819980	-1.000120	6
C	4.565130	1.548330	-0.588060	6
H	0.600520	0.734050	0.603560	1
H	0.678800	-0.996400	0.230230	1
H	0.674520	0.196820	-1.081900	1
H	2.888240	-0.025170	1.033040	1
H	2.756970	-1.011630	-1.745640	1
H	2.827690	1.297730	-1.831490	1
H	5.086610	1.050660	0.236450	1
H	4.308780	2.562000	-0.264550	1
H	5.257420	1.626190	-1.431540	1
Es	3.600516	0.895943	-0.941758	99
Es	0.728167	0.391962	0.330904	99
Es	3.245537	-0.387874	-0.732559	99
Es	3.015869	0.361483	-0.668431	99
Es	1.859285	0.065467	-0.184008	99
Es	3.472460	0.398825	-0.786971	99
Es	1.499489	-0.062568	0.010299	99
Es	1.812998	-0.002527	-0.210362	99
Es	4.817027	1.462525	-0.662262	99
Es	3.290976	-0.052405	-0.724623	99
Es	3.307424	0.345828	-0.943274	99
Es	4.461705	1.486161	-0.626515	99
Es	1.204494	-0.277823	0.006397	99
Es	4.447637	2.226498	-0.392930	99
Es	4.933823	1.388293	-0.608432	99
Es	2.863077	-0.047767	-0.612456	99
Es	3.356810	0.396339	-0.973954	99
Es	2.730505	-0.324797	-0.764731	99
Es	3.094816	-0.437618	-0.868538	99
Es	1.019996	-0.244170	-0.148879	99
