34
Properties=species:S:1:pos:R:3:Z:I:1 energy=-211.19728793840443 field_type=dipole dipole="0.000000 0.000000 0.000000" charge=0
C	0.901680	0.050910	-0.205250	6
C	2.383510	-0.006390	0.063350	6
N	2.756370	-0.039800	1.483840	7
C	3.250340	-0.762800	-0.912530	6
C	3.294270	0.738660	-0.880460	6
H	0.679790	0.083540	-1.277540	1
H	0.464800	0.943640	0.254830	1
H	0.404370	-0.830980	0.212600	1
H	3.767090	-0.085920	1.602310	1
H	2.383860	-0.877780	1.930050	1
H	2.779150	-1.235970	-1.766920	1
H	4.114270	-1.301530	-0.541440	1
H	4.180000	1.217000	-0.478610	1
H	2.850730	1.278700	-1.709580	1
Es	3.296187	0.066436	-1.156608	99
Es	2.810210	-0.052975	0.138021	99
Es	3.313538	-0.034823	-0.385483	99
Es	3.633166	0.035716	-0.668341	99
Es	2.725083	-0.333553	1.378876	99
Es	1.251205	-0.190789	0.071908	99
Es	1.825502	0.018177	-0.402780	99
Es	3.035628	-0.159763	-0.161948	99
Es	3.104114	0.123002	-1.370226	99
Es	2.966520	-0.095163	0.783135	99
Es	2.725802	-0.132757	-0.190194	99
Es	2.027385	-0.051807	-0.102042	99
Es	3.036734	0.007715	-0.837970	99
Es	2.568375	-0.129940	1.105352	99
Es	3.079338	0.022450	-0.907754	99
Es	2.919843	-0.013712	0.042508	99
Es	0.887633	0.038357	-0.149896	99
Es	0.873552	0.047206	-0.585516	99
Es	2.570633	0.131476	1.708199	99
Es	1.259074	0.334608	0.246146	99
