31
Properties=species:S:1:pos:R:3:Z:I:1 energy=-209.9956780224515 field_type=dipole dipole="0.000000 0.000000 0.000000" charge=0
C	2.055080	-0.849050	-1.136170	6
C	2.114100	0.203960	-0.309540	6
C	3.246900	1.113810	-0.163640	6
C	3.432050	2.222560	-1.166840	6
N	2.937540	2.499170	0.175980	7
H	1.167760	-1.472120	-1.177330	1
H	2.884800	-1.103810	-1.786890	1
H	1.247500	0.407630	0.318410	1
H	4.129390	0.693390	0.307780	1
H	2.712200	2.331430	-1.968650	1
H	4.437690	2.551600	-1.394640	1
H	3.672230	2.894940	0.762940	1
Es	2.028271	-0.274963	-0.917519	99
Es	3.011374	2.143581	0.044217	99
Es	1.929184	0.385497	0.021609	99
Es	3.154133	2.710249	0.426903	99
Es	2.810581	0.733235	-0.212580	99
Es	3.069615	2.240942	0.072589	99
Es	3.609029	2.231515	-1.264921	99
Es	1.867428	-0.922089	-1.171142	99
Es	3.414981	1.717540	-0.576275	99
Es	3.590323	2.349423	-1.390743	99
Es	3.120208	2.429013	-0.363286	99
Es	3.272467	2.251371	-0.693765	99
Es	3.341532	1.510796	-0.244183	99
Es	3.183935	1.890610	-0.242392	99
Es	2.087338	0.348353	-0.178019	99
Es	2.437171	-1.039101	-1.510665	99
Es	2.873284	0.845992	-0.232025	99
Es	1.857422	-1.001487	-1.000325	99
Es	2.116092	-0.547454	-0.721901	99
