25
Properties=species:S:1:pos:R:3:Z:I:1 energy=-207.66044647574117 field_type=dipole dipole="0.000000 0.000000 0.000000" charge=0
C	1.000000	0.000000	0.000000	6
C	2.190160	0.000000	0.000000	6
C	3.634160	0.000000	0.000000	6
C	4.116180	1.361170	0.000000	6
N	4.500390	2.446160	0.000000	7
H	-0.066190	0.006740	0.000000	1
H	4.012410	-0.533830	-0.878620	1
H	4.012410	-0.533820	0.878630	1
Es	3.888310	-0.338588	-0.151584	99
Es	4.324950	1.944650	-0.043870	99
Es	3.764879	-0.173776	-0.035115	99
Es	4.159467	1.578701	-0.024073	99
Es	1.635251	-0.340376	-0.036159	99
Es	4.581335	2.494195	-0.073444	99
Es	1.804617	0.220326	0.013240	99
Es	4.200165	2.018334	-0.003045	99
Es	1.002000	-0.001938	-0.000493	99
Es	0.308816	0.010734	-0.003033	99
Es	4.569672	2.502894	0.010223	99
Es	3.665366	-0.087249	0.166008	99
Es	4.382821	1.892503	0.116219	99
Es	1.994803	0.080279	0.019369	99
Es	1.615511	0.006988	-0.038097	99
Es	3.887954	0.710345	0.013232	99
Es	2.892341	-0.013315	0.070628	99
