34
Properties=species:S:1:pos:R:3:Z:I:1 energy=-211.21250151920688 field_type=dipole dipole="0.000000 0.000000 0.000000" charge=0
C	0.888110	0.009150	0.019180	6
C	2.378640	-0.084230	-0.012160	6
C	3.195750	0.982190	0.013020	6
C	4.686880	0.904400	-0.013350	6
N	5.188010	1.644130	-1.160700	7
H	0.500210	-0.522070	0.893730	1
H	0.467290	-0.452980	-0.879060	1
H	0.538210	1.045220	0.066050	1
H	2.797390	-1.086440	-0.060470	1
H	2.773130	1.983580	0.065030	1
H	5.036980	-0.132550	-0.061390	1
H	5.085460	1.346560	0.905690	1
H	4.847460	1.195720	-2.010270	1
H	6.202579	1.564090	-1.188120	1
Es	1.561592	-0.050331	-0.122152	99
Es	0.853724	0.044569	-0.034209	99
Es	5.379234	1.619547	-1.111473	99
Es	2.493712	-0.398050	0.103997	99
Es	4.907745	0.986646	-0.287991	99
Es	3.050425	1.233576	0.025305	99
Es	0.792204	0.404341	0.034318	99
Es	4.558276	0.987002	-0.031653	99
Es	2.774723	0.753768	0.084759	99
Es	4.721448	1.113281	-0.285645	99
Es	4.407060	0.974922	0.017444	99
Es	2.319936	-0.137222	-0.006601	99
Es	5.062027	1.464690	-0.886590	99
Es	0.982274	-0.124733	-0.083506	99
Es	5.326454	1.607476	-1.124235	99
Es	4.914209	0.654228	-0.134554	99
Es	3.044970	0.747730	-0.144661	99
Es	5.139064	1.781618	-1.423131	99
Es	2.866107	0.492378	-0.073767	99
Es	0.545713	-0.349485	0.313546	99
