25
Properties=species:S:1:pos:R:3:Z:I:1 energy=-207.65381465748692 field_type=dipole dipole="0.000000 0.000000 0.000000" charge=0
C	1.000000	0.000000	0.000000	6
C	2.444000	0.000000	0.000000	6
C	3.634160	0.000000	0.000000	6
C	5.170160	-0.000000	-0.000000	6
N	6.330380	-0.000010	-0.000010	7
H	0.596420	1.014290	0.069060	1
H	0.617350	-0.569480	0.852890	1
H	0.603650	-0.461270	-0.909390	1
Es	5.788715	-0.025057	0.106714	99
Es	6.330562	-0.000218	-0.000144	99
Es	5.767416	0.137261	-0.073672	99
Es	3.112525	-0.123841	0.026539	99
Es	6.701094	-0.002897	-0.013540	99
Es	5.169679	-0.000056	0.000063	99
Es	5.788807	-0.103160	-0.028367	99
Es	2.954286	-0.021662	-0.148461	99
Es	0.877837	-0.130349	0.070179	99
Es	3.634414	0.000339	0.000078	99
Es	0.850540	0.048860	-0.020288	99
Es	1.762756	0.009884	-0.010211	99
Es	0.931808	-0.024839	0.034174	99
Es	3.056656	0.146472	0.197143	99
Es	2.597288	-0.012076	-0.065325	99
Es	0.618612	0.090089	-0.063255	99
Es	4.419675	0.003485	-0.005771	99
