37
Properties=species:S:1:pos:R:3:Z:I:1 energy=-212.39119366944226 field_type=dipole dipole="0.000000 0.000000 0.000000" charge=0
C	1.165880	-0.494200	-0.083660	6
C	2.677720	-0.334630	-0.144020	6
C	3.091950	1.122660	0.059710	6
N	4.550080	1.232490	0.002710	7
C	4.978240	2.613880	0.177750	6
H	0.889090	-1.543320	-0.230300	1
H	0.676860	0.098300	-0.864030	1
H	0.775690	-0.172660	0.887620	1
H	3.034680	-0.696590	-1.116120	1
H	3.134220	-0.967460	0.625480	1
H	2.729000	1.471040	1.034080	1
H	2.633390	1.746670	-0.716860	1
H	4.882980	0.888140	-0.897640	1
H	4.664600	3.005340	1.150810	1
H	4.583450	3.260030	-0.613040	1
H	6.070830	2.664180	0.139530	1
Es	4.811283	2.639391	0.007301	99
Es	4.387168	1.187814	0.045794	99
Es	2.685684	-0.018115	-0.140667	99
Es	4.554402	0.926115	-0.160569	99
Es	0.910118	-1.114008	-0.102837	99
Es	2.490357	-0.310719	-0.293310	99
Es	4.780643	2.844580	0.466931	99
Es	4.925684	2.680290	0.129383	99
Es	1.069970	-0.324203	-0.039532	99
Es	2.522432	-0.528344	-0.298492	99
Es	2.875521	-0.023093	-0.203282	99
Es	4.498847	1.457664	-0.152785	99
Es	2.948455	1.249056	0.379348	99
Es	2.759592	-0.550015	0.131148	99
Es	0.921428	-0.244019	0.132811	99
Es	2.866996	1.333234	-0.230463	99
Es	4.207104	1.267722	-0.055469	99
Es	5.548738	2.671355	0.138212	99
Es	1.083137	-0.391769	-0.225885	99
Es	3.154874	1.242094	0.146465	99
Es	4.740589	1.871087	0.153610	99
