37
Properties=species:S:1:pos:R:3:Z:I:1 energy=-212.39425866698343 field_type=dipole dipole="0.000000 0.000000 0.000000" charge=0
C	1.108030	-0.143020	0.097320	6
C	2.628350	-0.109570	0.061060	6
N	3.091780	1.274910	-0.010740	7
C	4.551490	1.342140	-0.035450	6
C	4.998880	2.794020	-0.106690	6
H	0.754970	-1.178370	0.138140	1
H	0.680270	0.324140	-0.796070	1
H	0.720220	0.380120	0.977790	1
H	2.975260	-0.671270	-0.813820	1
H	3.019390	-0.600950	0.959600	1
H	2.737370	1.797520	0.790030	1
H	4.941210	0.807540	-0.908880	1
H	4.973740	0.880520	0.864380	1
H	4.612530	3.284020	-1.007090	1
H	6.091950	2.850800	-0.135150	1
H	4.655050	3.359490	0.766270	1
Es	2.157770	-0.044414	0.032903	99
Es	2.919698	1.458990	-0.190748	99
Es	4.605616	1.216721	-0.134762	99
Es	0.988532	-0.013591	-0.141259	99
Es	4.817324	0.998326	-0.009662	99
Es	0.807551	-0.538821	0.185397	99
Es	2.782789	-0.075285	-0.040092	99
Es	3.873110	1.257183	0.015970	99
Es	2.460202	-0.317377	0.158154	99
Es	1.231134	-0.015182	0.106035	99
Es	4.892297	3.017178	0.059599	99
Es	5.581820	2.896189	-0.011931	99
Es	4.610429	1.511089	-0.077229	99
Es	4.943435	2.772465	-0.057594	99
Es	3.028021	1.380194	0.216121	99
Es	3.085847	1.371298	0.172426	99
Es	0.995978	-0.052236	0.370029	99
Es	4.651907	2.818927	-0.365864	99
Es	2.700461	-0.161709	-0.101400	99
Es	4.828238	2.137165	-0.040767	99
Es	2.762397	0.157001	0.192072	99
