37
Properties=species:S:1:pos:R:3:Z:I:1 energy=-212.38163847091556 field_type=dipole dipole="0.000000 0.000000 0.000000" charge=0
C	0.976140	-0.082480	0.099770	6
C	2.493570	0.021160	0.199490	6
N	2.986070	1.404220	0.083930	7
C	2.594610	2.225490	1.231260	6
C	4.445800	1.405590	-0.048630	6
H	0.677910	-1.135330	0.053330	1
H	0.604950	0.410150	-0.805160	1
H	0.477990	0.360470	0.966850	1
H	2.908300	-0.574790	-0.623680	1
H	2.835710	-0.443700	1.133320	1
H	1.507570	2.340410	1.284900	1
H	2.999380	3.239060	1.133360	1
H	2.948590	1.806080	2.179780	1
H	4.753070	0.843740	-0.937340	1
H	4.940350	0.968150	0.825900	1
H	4.819170	2.426900	-0.182490	1
Es	2.897302	1.259159	0.184435	99
Es	2.797025	1.252394	0.487652	99
Es	2.357848	2.282914	1.210551	99
Es	4.513820	1.327950	-0.112467	99
Es	2.096913	0.030644	0.123686	99
Es	2.640868	1.863174	0.641289	99
Es	2.730921	0.892851	0.170217	99
Es	0.712104	-0.031342	0.292089	99
Es	4.523431	1.110027	-0.396636	99
Es	1.838656	0.066238	0.031777	99
Es	2.859090	-0.388039	-0.123712	99
Es	0.875285	-0.589423	0.073156	99
Es	1.340064	0.038387	0.080908	99
Es	4.354852	1.403336	0.152276	99
Es	4.769411	1.796555	0.096519	99
Es	2.867938	2.307778	1.345456	99
Es	2.747956	2.350976	1.306117	99
Es	2.550871	2.021386	0.972921	99
Es	0.816835	0.060549	0.252734	99
Es	2.578972	0.380055	0.237577	99
Es	3.816369	1.346055	0.162115	99
