34
Properties=species:S:1:pos:R:3:Z:I:1 energy=-211.1881105899414 field_type=dipole dipole="0.000000 0.000000 0.000000" charge=0
C	2.945230	-1.075100	-0.396160	6
N	2.315210	0.132690	0.120940	7
C	3.244890	1.263350	0.175680	6
C	3.398390	2.148360	-1.028080	6
C	2.678120	2.654790	0.187860	6
H	2.209050	-1.883430	-0.438050	1
H	3.770570	-1.399300	0.245740	1
H	3.324560	-0.918660	-1.410950	1
H	1.934000	-0.059080	1.047550	1
H	4.132150	1.105000	0.786150	1
H	2.807860	1.925500	-1.909160	1
H	4.382740	2.546870	-1.240580	1
H	3.173940	3.399040	0.798930	1
H	1.603180	2.776350	0.121760	1
Es	2.959685	-1.262228	-0.247623	99
Es	2.431241	0.307039	0.134763	99
Es	2.892669	-1.469374	-0.168409	99
Es	2.865620	1.882461	0.095563	99
Es	2.571819	0.451295	0.179055	99
Es	2.733262	-0.667826	-0.149490	99
Es	2.423510	0.221176	0.135488	99
Es	3.237343	-0.960793	-1.050351	99
Es	3.109004	1.651578	0.085591	99
Es	3.230564	1.405015	-0.161735	99
Es	2.899014	2.989055	0.462050	99
Es	3.175529	2.470383	-0.443768	99
Es	3.218688	1.421498	-0.263935	99
Es	2.925485	-0.893805	-0.226137	99
Es	2.527475	2.626499	0.202277	99
Es	2.247033	0.309395	0.511573	99
Es	3.251109	2.163357	-0.751064	99
Es	3.056543	1.917493	-0.459087	99
Es	3.049714	2.368196	-0.516893	99
Es	3.695081	2.287063	-1.201685	99
