33
Properties=species:S:1:pos:R:3:Z:I:1 energy=-231.03460173416417 field_type=dipole dipole="0.000000 0.000000 0.000000" charge=0
C	1.016470	-0.029040	-0.076190	6
C	2.488020	0.140930	0.049010	6
O	3.244610	-0.485100	-0.997240	8
C	3.270840	0.947670	-0.954340	6
C	4.595810	1.527750	-0.610960	6
H	0.499810	0.663050	0.595440	1
H	0.729090	-1.048770	0.197860	1
H	0.665470	0.162070	-1.096320	1
H	2.848200	0.039800	1.063430	1
H	2.753510	1.489050	-1.734490	1
H	5.107550	0.953170	0.167990	1
H	4.474250	2.554530	-0.252300	1
H	5.238880	1.549550	-1.496180	1
Es	2.667502	0.209624	-0.432408	99
Es	0.721960	-0.334260	-0.086551	99
Es	3.159678	-0.215792	-0.938127	99
Es	0.804404	0.049077	0.062302	99
Es	3.721580	1.089761	-0.806594	99
Es	3.251881	0.536380	-0.680875	99
Es	0.986215	0.109848	0.073312	99
Es	3.090434	-0.020957	-0.851606	99
Es	4.494907	1.906359	-0.471369	99
Es	4.605353	1.600666	-0.520829	99
Es	2.784238	0.268115	-0.349546	99
Es	2.678755	-0.409421	-0.698276	99
Es	4.195225	1.086660	-0.580809	99
Es	2.302246	0.006657	-0.232605	99
Es	4.942316	1.518741	-1.196647	99
Es	2.989284	0.016703	-0.503435	99
Es	3.925666	1.168139	-0.617364	99
Es	2.605310	0.160465	-0.334834	99
Es	3.340179	0.078215	-0.882143	99
Es	1.051362	-0.015731	-0.097966	99
