27
Properties=species:S:1:pos:R:3:Z:I:1 energy=-228.62114276291203 field_type=dipole dipole="0.000000 0.000000 0.000000" charge=0
C	0.988540	0.018600	-0.083660	6
C	2.185930	-0.042430	-0.020660	6
C	3.611760	-0.115010	0.057800	6
C	4.381830	-0.801660	-1.037720	6
O	4.274770	0.625480	-0.977280	8
H	-0.073310	0.079180	-0.144240	1
H	4.054810	-0.085200	1.046120	1
H	3.838730	-1.311490	-1.823550	1
H	5.339530	-1.241650	-0.791480	1
Es	1.823832	-0.062704	-0.187010	99
Es	4.813079	-0.900674	-0.889069	99
Es	0.482380	0.047409	0.025773	99
Es	3.794034	-0.086899	-0.387310	99
Es	4.582570	0.272641	-0.922716	99
Es	4.391022	-0.481681	-0.977149	99
Es	4.011767	-0.401587	-0.828808	99
Es	2.140829	-0.027033	-0.078261	99
Es	4.065868	0.240080	-0.724319	99
Es	1.280054	0.068536	0.043263	99
Es	1.635215	0.106875	-0.037380	99
Es	4.183280	-0.071200	-0.761031	99
Es	1.325584	-0.127571	0.078995	99
Es	4.107540	-0.616158	-0.923206	99
Es	4.121920	0.405712	-0.696453	99
Es	4.036447	0.315106	-0.636722	99
Es	2.802687	-0.075259	-0.086330	99
Es	3.598498	0.001586	-0.099235	99
