36
Properties=species:S:1:pos:R:3:Z:I:1 energy=-232.2387647366371 field_type=dipole dipole="0.000000 0.000000 0.000000" charge=0
C	1.052200	-0.094720	0.024040	6
C	2.571460	-0.045560	0.055720	6
C	3.087010	1.387340	-0.040300	6
C	4.608810	1.439430	-0.008260	6
O	5.047100	2.789120	-0.089710	8
H	0.704970	-1.130370	0.093120	1
H	0.665190	0.331930	-0.906820	1
H	0.624100	0.463800	0.862530	1
H	2.967730	-0.640280	-0.775570	1
H	2.926810	-0.508160	0.983900	1
H	2.686380	1.992140	0.782780	1
H	2.725210	1.859120	-0.962300	1
H	5.045060	0.881980	-0.843490	1
H	4.993610	1.016110	0.924900	1
H	4.721800	3.152020	-0.931240	1
Es	4.231550	1.405588	-0.120652	99
Es	2.697297	-0.056989	-0.059849	99
Es	0.784798	-0.762693	0.079261	99
Es	2.669369	-0.091437	0.156880	99
Es	3.623418	1.454285	-0.080134	99
Es	2.754350	-0.317208	0.276838	99
Es	4.785910	1.064488	-0.081110	99
Es	0.918825	0.092302	0.045955	99
Es	3.799187	1.510447	0.044455	99
Es	1.610581	-0.109685	0.034014	99
Es	4.914906	2.661851	-0.054130	99
Es	4.973678	2.810530	-0.256760	99
Es	2.980970	1.250841	0.024238	99
Es	1.148857	0.097445	-0.191621	99
Es	2.933508	0.647522	0.027844	99
Es	5.048159	2.672409	-0.148933	99
Es	4.851307	2.123318	0.014972	99
Es	4.730974	1.801195	-0.087013	99
Es	2.853175	1.811411	-0.163570	99
Es	0.870025	0.168838	0.058634	99
Es	5.114434	2.797985	-0.054749	99
