36
Properties=species:S:1:pos:R:3:Z:I:1 energy=-232.24694831366565 field_type=dipole dipole="0.000000 0.000000 0.000000" charge=0
C	0.985950	-0.001970	-0.006040	6
C	2.513590	-0.034770	0.006050	6
C	3.026460	-0.714670	1.273810	6
C	3.053660	-0.739210	-1.237850	6
O	2.997120	1.309240	0.013170	8
H	0.613070	0.521150	-0.893920	1
H	0.601340	0.547330	0.860760	1
H	0.560890	-1.010760	0.004890	1
H	2.681440	-0.183380	2.168210	1
H	4.121780	-0.699220	1.308920	1
H	2.692090	-1.755140	1.337840	1
H	2.719870	-0.232190	-2.150260	1
H	2.727650	-1.783260	-1.283480	1
H	4.149160	-0.715470	-1.254080	1
H	2.674350	1.748510	-0.792210	1
Es	2.224149	0.069493	0.211225	99
Es	1.988312	0.134820	0.131541	99
Es	2.821143	-0.351808	1.276596	99
Es	2.325100	-0.045577	0.136412	99
Es	2.577089	-0.008866	-0.062022	99
Es	2.035293	0.190090	0.131502	99
Es	2.471631	0.080220	-0.032904	99
Es	2.545253	0.120781	0.000421	99
Es	1.843136	0.039561	-0.150708	99
Es	2.837460	-0.114082	-0.096049	99
Es	2.692258	0.021939	-0.253089	99
Es	2.566215	-0.077930	-0.207970	99
Es	2.513158	-0.045254	0.145746	99
Es	2.551003	-0.159798	0.420601	99
Es	2.762514	-0.072194	-0.334155	99
Es	2.185736	0.237390	-0.459268	99
Es	3.170075	-0.387690	-0.584742	99
Es	3.115452	-0.332110	0.064483	99
Es	2.620653	-0.142433	-0.528209	99
Es	2.031731	0.121210	-0.089609	99
Es	2.720304	-0.204727	0.207684	99
