30
Properties=species:S:1:pos:R:3:Z:I:1 energy=-229.8448898891379 field_type=dipole dipole="0.000000 0.000000 0.000000" charge=0
C	1.000000	0.000000	0.000000	6
C	2.444000	0.000000	0.000000	6
C	3.634160	0.000000	0.000000	6
C	5.078160	0.000000	0.000000	6
O	5.567640	1.335020	-0.024590	8
H	0.605970	1.020870	0.011680	1
H	0.605910	-0.520530	0.878250	1
H	0.605920	-0.500290	-0.889930	1
H	5.476980	-0.524680	-0.873420	1
H	5.476280	-0.487390	0.894510	1
H	5.075940	1.795870	-0.725650	1
Es	5.534131	1.334301	-0.050342	99
Es	3.491262	-0.052094	-0.032700	99
Es	2.896409	0.026980	0.094491	99
Es	3.053133	0.329865	-0.158580	99
Es	1.706400	-0.000942	-0.006759	99
Es	5.187208	-0.138473	-0.236627	99
Es	5.227369	0.507677	0.146703	99
Es	5.344754	0.280227	0.278314	99
Es	0.854126	0.406885	-0.052388	99
Es	0.697561	-0.423687	0.068810	99
Es	4.850999	-0.105463	0.204250	99
Es	0.834444	-0.229997	-0.014696	99
Es	3.131617	-0.276353	0.007651	99
Es	5.448946	1.155123	-0.212016	99
Es	2.664377	-0.005683	0.047477	99
Es	4.810490	-0.160157	-0.239189	99
Es	5.315037	1.610956	-0.149733	99
Es	5.882722	1.302760	-0.044735	99
Es	0.923071	0.249364	0.002153	99
