39
Properties=species:S:1:pos:R:3:Z:I:1 energy=-233.05273581475876 field_type=dipole dipole="0.000000 0.000000 0.000000" charge=0
C	0.986910	-0.090090	0.008720	6
C	2.506390	-0.037460	0.015020	6
C	3.017660	1.403100	-0.000660	6
C	4.545530	1.451440	0.000970	6
C	5.032290	2.838480	0.001100	6
C	5.433780	3.971300	0.002040	6
H	0.643640	-1.129270	0.023630	1
H	0.581550	0.388680	-0.888380	1
H	0.572960	0.417000	0.886110	1
H	2.888410	-0.578140	-0.858710	1
H	2.880020	-0.555150	0.906170	1
H	2.628000	1.941000	0.873250	1
H	2.631170	1.921670	-0.887570	1
H	4.934580	0.927730	-0.880090	1
H	4.933300	0.928630	0.883100	1
H	5.789260	4.975350	0.003070	1
Es	5.408261	3.876492	-0.097441	99
Es	4.466672	1.402478	-0.112511	99
Es	2.506914	-0.016840	0.010349	99
Es	4.971328	3.365120	-0.107600	99
Es	4.707821	1.245920	0.100625	99
Es	2.760682	0.738220	0.002465	99
Es	5.577125	3.931552	0.155497	99
Es	2.001723	-0.080354	0.046500	99
Es	1.276299	-0.094608	0.068887	99
Es	0.680776	0.269004	-0.020569	99
Es	3.249730	1.681527	0.072156	99
Es	5.325280	3.517006	-0.057711	99
Es	5.216364	3.224635	0.007507	99
Es	2.781415	-0.490019	0.020483	99
Es	3.075199	1.447901	0.099818	99
Es	5.317939	3.764563	0.093927	99
Es	0.780814	-0.733079	0.005151	99
Es	4.698302	1.642564	0.005611	99
Es	3.351687	1.523695	-0.086969	99
Es	4.895800	1.593678	-0.051438	99
Es	0.845935	0.048852	-0.049790	99
Es	2.867619	1.606805	-0.007879	99
Es	2.094148	-0.150852	0.014606	99
