34
Properties=species:S:1:pos:R:3:Z:I:1 energy=-263.888018528415 field_type=dipole dipole="0.000000 0.000000 0.000000" charge=0
C	0.400480	1.489590	0.501500	6
C	0.922080	0.370100	-0.343310	6
N	0.954250	-0.997570	0.193650	7
C	-0.374750	-1.314700	0.342140	6
N	-1.271510	-0.418380	0.042090	7
C	-0.552670	0.762270	-0.403950	6
H	0.679310	2.500290	0.229150	1
H	0.301510	1.335790	1.569400	1
H	1.542480	0.567500	-1.206310	1
H	1.544120	-1.715120	-0.211160	1
H	-0.595040	-2.343490	0.664380	1
H	-0.977100	1.326130	-1.223130	1
Es	0.182514	-1.267738	0.206050	99
Es	-0.492520	0.823682	-0.332644	99
Es	-0.426601	1.220376	-0.138075	99
Es	-1.079610	-0.230484	-0.053245	99
Es	-0.151610	-1.387373	0.354120	99
Es	-1.281725	-0.619349	-0.069608	99
Es	-0.948550	-0.407763	0.148059	99
Es	0.937023	-0.178455	-0.103173	99
Es	1.001774	0.912633	0.034638	99
Es	0.627551	1.012639	0.075062	99
Es	-1.273213	-0.484665	0.122541	99
Es	-0.261813	1.219957	-0.133114	99
Es	0.971344	-0.257471	-0.160197	99
Es	0.246089	0.741444	-0.173634	99
Es	0.110099	-1.106168	0.233523	99
Es	0.770343	-1.331702	0.039801	99
Es	0.281278	-1.289928	0.247169	99
Es	-0.767286	-0.791658	0.222850	99
Es	0.815842	0.788002	0.004435	99
Es	0.501589	1.827270	0.361832	99
Es	1.173920	-0.745464	0.138748	99
Es	0.092370	1.415477	0.100279	99
