38
Properties=species:S:1:pos:R:3:Z:I:1 energy=-249.03090496117784 field_type=dipole dipole="0.000000 0.000000 0.000000" charge=0
C	-0.020550	0.849470	-0.062130	6
C	-0.732980	-0.465670	-0.123870	6
C	0.776580	-0.435440	-0.045260	6
C	1.552450	-0.884100	1.186530	6
C	1.162780	-2.080810	2.021850	6
N	2.290910	-2.148730	1.109400	7
H	0.014570	1.453390	-0.962040	1
H	-0.093650	1.422420	0.854890	1
H	-1.179790	-0.763800	-1.065610	1
H	-1.290590	-0.781000	0.749710	1
H	1.291010	-0.661030	-0.981790	1
H	2.082760	-0.087270	1.703360	1
H	0.288390	-2.651570	1.735520	1
H	1.386680	-2.067610	3.080500	1
H	3.177170	-2.073960	1.610290	1
Es	2.048065	-2.138267	1.360579	99
Es	2.088458	-2.115367	1.809359	99
Es	1.162050	-0.531015	0.420832	99
Es	-0.534924	0.147010	-0.276217	99
Es	0.648801	-0.076376	-0.102786	99
Es	0.617201	-0.124500	0.102993	99
Es	-0.132362	0.880667	-0.422152	99
Es	1.010845	-1.896344	1.717479	99
Es	-0.657484	-0.231636	0.034167	99
Es	1.763517	-1.501475	1.182193	99
Es	0.398948	-0.624047	0.312650	99
Es	1.724382	-0.707276	0.980122	99
Es	2.125054	-2.118170	1.581771	99
Es	-0.657798	-0.349926	0.211814	99
Es	0.894406	-1.741891	1.601320	99
Es	1.665100	-1.231711	1.027989	99
Es	1.710351	-2.066469	1.652398	99
Es	0.769735	-0.310011	0.008107	99
Es	-0.772120	-0.394454	-0.083731	99
Es	-0.086820	0.466412	-0.032801	99
Es	1.885436	-2.076913	1.629313	99
Es	-0.037741	0.858576	-0.208496	99
Es	1.441266	-1.896689	1.538650	99
