38
Properties=species:S:1:pos:R:3:Z:I:1 energy=-249.08673797265163 field_type=dipole dipole="0.000000 0.000000 0.000000" charge=0
C	0.422760	1.326610	0.262890	6
C	-1.057690	1.057560	-0.053490	6
C	-1.400270	-0.404180	-0.004570	6
C	-0.436690	-1.336250	0.045940	6
C	1.026860	-1.001320	0.024710	6
N	1.309230	0.370460	-0.406490	7
H	0.677270	2.341320	-0.062740	1
H	0.589700	1.291380	1.347060	1
H	-1.302320	1.437190	-1.052590	1
H	-1.680870	1.600770	0.665760	1
H	-2.447370	-0.690050	-0.014610	1
H	-0.703810	-2.387850	0.096980	1
H	1.444070	-1.175800	1.023520	1
H	1.536070	-1.684540	-0.663250	1
H	2.278170	0.591780	-0.186910	1
Es	-1.395200	-0.388510	-0.009341	99
Es	-1.075271	1.180504	-0.138497	99
Es	-0.821099	-0.445304	0.147355	99
Es	0.428481	-1.204106	-0.074079	99
Es	-0.570517	-1.982660	0.102594	99
Es	0.861185	0.760499	0.013530	99
Es	1.278441	0.449636	-0.290408	99
Es	-0.995770	0.963058	0.034709	99
Es	-1.163606	0.300427	0.074379	99
Es	1.122250	-0.139350	-0.199731	99
Es	-0.876893	-0.956692	-0.212659	99
Es	1.154957	-1.002554	0.117784	99
Es	-0.400967	1.194720	0.108384	99
Es	-1.368353	1.393577	-0.028112	99
Es	0.881779	-0.818488	-0.001418	99
Es	1.069505	-0.021020	-0.101804	99
Es	-0.367676	-1.307413	0.036353	99
Es	0.435408	1.250595	0.299614	99
Es	0.507118	1.156133	0.235047	99
Es	1.380146	-1.361219	-0.008744	99
Es	-2.087072	-0.597961	0.036410	99
Es	0.598064	2.005473	0.077586	99
Es	1.812199	0.437735	-0.349177	99
