34
Properties=species:S:1:pos:R:3:Z:I:1 energy=-263.9198954470046 field_type=dipole dipole="0.000000 0.000000 0.000000" charge=0
C	1.417400	-0.205140	0.060880	6
C	0.414070	-1.326530	-0.001130	6
C	-0.896440	-1.067360	-0.036640	6
N	-1.323850	0.225470	-0.018330	7
C	-0.428240	1.254040	0.030570	6
N	0.854040	1.162920	0.069100	7
H	2.024310	-0.327950	0.964790	1
H	2.091060	-0.289940	-0.799040	1
H	0.782580	-2.345590	-0.015580	1
H	-1.660550	-1.835150	-0.080720	1
H	-2.318590	0.407770	-0.047320	1
H	-0.913120	2.244160	0.034460	1
Es	-0.473068	-0.928368	0.110014	99
Es	-0.838918	-1.161166	-0.048639	99
Es	1.146358	0.550934	0.090623	99
Es	0.754264	-0.937005	0.028153	99
Es	-1.394089	-1.387578	-0.063197	99
Es	1.679741	-0.252140	0.048447	99
Es	0.425068	1.165171	0.088695	99
Es	-0.875595	0.719321	-0.030460	99
Es	-0.970012	-0.696329	-0.016010	99
Es	-1.256335	0.248894	0.012180	99
Es	0.556572	-1.156273	0.013883	99
Es	1.687701	-0.187341	0.063075	99
Es	0.679173	-2.013651	-0.011444	99
Es	0.951515	1.329141	0.102122	99
Es	-0.219239	-1.206093	-0.150728	99
Es	1.724532	-0.270972	0.089473	99
Es	-1.908834	0.356222	-0.016550	99
Es	-0.776335	1.911328	0.026147	99
Es	0.213783	1.174642	-0.047198	99
Es	-0.451680	1.180573	0.021070	99
Es	0.882658	1.220563	0.090713	99
Es	-1.327003	0.224668	-0.019893	99
