31
Properties=species:S:1:pos:R:3:Z:I:1 energy=-262.73327738830176 field_type=dipole dipole="0.000000 0.000000 0.000000" charge=0
C	-0.635600	-1.243690	-0.022040	6
C	-1.394110	-0.082640	-0.024960	6
C	-0.730310	1.126130	0.059430	6
N	0.612830	1.213490	0.143450	7
N	1.357400	0.073830	0.146320	7
C	0.737810	-1.121470	0.065080	6
H	-1.102260	-2.219890	-0.086020	1
H	-2.475180	-0.118160	-0.091300	1
H	-1.259210	2.071840	0.062400	1
H	1.391710	-1.985640	0.072630	1
Es	0.047099	-1.191172	0.020704	99
Es	0.789393	1.559258	0.166832	99
Es	-1.071774	0.521602	0.016775	99
Es	0.006034	1.128543	0.103209	99
Es	-0.780787	-0.510792	-0.003765	99
Es	-1.096625	1.763113	0.060806	99
Es	0.934365	0.610550	0.140413	99
Es	-1.025499	-0.670113	-0.024322	99
Es	-1.394141	-0.082654	-0.024962	99
Es	0.861496	-0.378830	0.099583	99
Es	-0.730236	1.126148	0.059434	99
Es	-0.001929	0.940916	0.096997	99
Es	0.737856	-1.121410	0.065082	99
Es	1.744817	0.096591	0.170260	99
Es	-0.635625	-1.243713	-0.022036	99
Es	0.612494	1.212865	0.143405	99
Es	1.035770	-0.448034	0.108618	99
Es	1.356702	0.073774	0.146277	99
Es	-2.125250	-0.104240	-0.069732	99
Es	-0.948913	-1.904880	-0.065339	99
Es	1.174109	-1.712775	0.069559	99
