38
Properties=species:S:1:pos:R:3:Z:I:1 energy=-249.03397836320752 field_type=dipole dipole="0.000000 0.000000 0.000000" charge=0
C	0.921720	-0.013880	0.925880	6
C	0.275890	-1.043080	-0.030390	6
C	0.751350	-0.035650	-1.103450	6
N	0.327430	0.998120	-0.056690	7
C	-1.137400	0.768380	0.066130	6
C	-1.205500	-0.754130	0.093640	6
H	2.018330	-0.012410	0.974980	1
H	0.531570	0.034160	1.948750	1
H	0.644880	-2.066180	-0.049900	1
H	0.195560	-0.009230	-2.047510	1
H	1.824300	-0.037160	-1.334920	1
H	-1.532660	1.215130	0.984620	1
H	-1.677900	1.190350	-0.787880	1
H	-1.775190	-1.158510	-0.748920	1
H	-1.621650	-1.133910	1.032070	1
Es	1.092533	-0.187962	-0.184164	99
Es	0.479411	-0.368979	-0.108055	99
Es	-1.209925	0.809060	0.001746	99
Es	-1.128864	-0.268255	0.145233	99
Es	0.476789	0.236680	-0.031897	99
Es	-0.414592	-0.577469	0.001091	99
Es	-0.123090	-0.121686	-0.053387	99
Es	-0.220668	0.069028	-0.068137	99
Es	0.844828	-0.129920	-0.060107	99
Es	0.573549	-0.214207	-0.080121	99
Es	0.004350	-0.482424	0.028138	99
Es	0.183701	0.440338	0.004189	99
Es	-0.404514	-0.042265	-0.011278	99
Es	0.642427	-0.101385	-0.077752	99
Es	-0.266532	-0.070107	0.002501	99
Es	-1.326530	-0.739361	0.095718	99
Es	-0.285013	0.020011	0.034754	99
Es	-0.466927	0.415594	-0.052321	99
Es	0.324911	0.171842	-0.082238	99
Es	-0.009431	0.230827	-0.019605	99
Es	-0.465696	0.232741	0.177812	99
Es	0.871879	-0.061116	-0.001344	99
Es	0.136974	0.188927	-0.023415	99
