31
Properties=species:S:1:pos:R:3:Z:I:1 energy=-262.78044415488296 field_type=dipole dipole="0.000000 0.000000 0.000000" charge=0
C	-0.752160	1.162630	0.008410	6
C	0.623290	1.182470	0.025200	6
N	1.382900	0.072090	0.053740	7
C	0.711660	-1.090580	0.065130	6
N	-0.622950	-1.232090	0.050800	7
C	-1.329430	-0.086670	0.022380	6
H	-1.341430	2.068320	-0.014510	1
H	1.171750	2.119580	0.016150	1
H	1.302450	-1.999530	0.088220	1
H	-2.408730	-0.207040	0.010940	1
Es	1.113307	-1.708407	0.080784	99
Es	-0.622680	-1.231532	0.050797	99
Es	-1.151206	1.776106	-0.007016	99
Es	0.987321	1.825168	0.018776	99
Es	-0.538110	0.832180	0.016578	99
Es	-1.050297	0.542103	0.015077	99
Es	1.764823	0.085528	0.057448	99
Es	-0.913229	-0.695151	0.037767	99
Es	0.623373	1.182412	0.025201	99
Es	-0.458552	-0.925033	0.047017	99
Es	-0.790166	-1.575593	0.054142	99
Es	1.051198	-0.433094	0.058962	99
Es	0.711615	-1.090510	0.065131	99
Es	1.382338	0.072082	0.053743	99
Es	-1.329412	-0.086766	0.022377	99
Es	-0.752177	1.162656	0.008410	99
Es	1.035413	0.047626	0.049048	99
Es	-0.064377	1.182918	0.016865	99
Es	-0.026783	-1.134119	0.057905	99
Es	-2.064549	-0.158081	0.014393	99
Es	1.009870	0.555074	0.041508	99
