38
Properties=species:S:1:pos:R:3:Z:I:1 energy=-249.04909031696508 field_type=dipole dipole="0.000000 0.000000 0.000000" charge=0
C	0.931440	-0.008640	0.961760	6
C	0.290840	-1.021570	-0.028830	6
C	0.758080	-0.027150	-1.130120	6
C	0.289350	0.998630	-0.047370	6
N	-1.165760	0.745870	0.066180	7
C	-1.189420	-0.721880	0.094100	6
H	2.026990	-0.007930	1.001890	1
H	0.546830	-0.001280	1.986640	1
H	0.650940	-2.048160	-0.048980	1
H	0.209990	-0.038500	-2.077850	1
H	1.832190	-0.029270	-1.350040	1
H	0.632150	2.030880	-0.088300	1
H	-1.579960	1.110010	0.923880	1
H	-1.765630	-1.121640	-0.745920	1
H	-1.608080	-1.101160	1.032080	1
Es	-0.589956	-0.115555	0.077003	99
Es	0.512986	0.306826	0.045179	99
Es	-0.025981	0.333382	0.085437	99
Es	0.068086	-0.308321	-0.041903	99
Es	-0.707550	-0.291324	0.085387	99
Es	-1.034821	-0.505248	-0.115638	99
Es	0.758171	-0.358753	-0.151419	99
Es	0.833421	0.080396	-0.134605	99
Es	0.855707	0.113472	-0.133037	99
Es	0.333346	-0.126938	-0.012778	99
Es	0.277246	-0.935053	0.000699	99
Es	0.220174	0.736588	0.060173	99
Es	0.198574	0.259301	-0.015339	99
Es	0.627218	-0.031426	-0.288417	99
Es	0.546516	0.049524	-0.010373	99
Es	-1.019303	0.055238	0.327336	99
Es	-0.920436	0.449144	0.044548	99
Es	-0.058815	-0.153760	0.038195	99
Es	0.322615	0.025804	0.002849	99
Es	-0.734369	0.214442	0.077351	99
Es	-0.995101	-0.035674	0.096904	99
Es	-0.461635	-0.059125	0.082341	99
Es	0.549239	0.016302	-0.128001	99
