37
Properties=species:S:1:pos:R:3:Z:I:1 energy=-265.05000151982836 field_type=dipole dipole="0.000000 0.000000 0.000000" charge=0
C	0.665670	1.237410	-0.197770	6
N	-0.784860	1.379900	0.022900	7
C	-1.395820	0.059680	-0.217840	6
C	-0.335660	-0.905650	0.210410	6
N	0.753450	-1.301600	-0.682220	7
C	0.952350	-0.169640	0.223040	6
H	0.916610	1.392410	-1.252460	1
H	1.212650	1.963030	0.409740	1
H	-1.167000	2.059690	-0.630910	1
H	-2.307850	-0.047790	0.375410	1
H	-1.641440	-0.068700	-1.277700	1
H	-0.596750	-1.543420	1.041990	1
H	1.225280	-2.133690	-0.324400	1
H	1.621960	-0.276060	1.063830	1
Es	-0.120647	1.516182	-0.059048	99
Es	-1.982769	-0.025913	-0.139038	99
Es	0.067087	1.125961	-0.039794	99
Es	0.936731	-0.788974	-0.225727	99
Es	-0.888322	0.838523	-0.033513	99
Es	-0.170698	-0.984654	0.094227	99
Es	-0.500324	1.365645	-0.061709	99
Es	1.023142	0.592817	-0.154963	99
Es	-0.789679	1.438370	0.018613	99
Es	0.035920	-1.274434	0.083137	99
Es	0.705090	1.050010	-0.197721	99
Es	0.024900	-1.295210	-0.142618	99
Es	0.222159	0.185937	0.086169	99
Es	0.823939	-0.825346	-0.263874	99
Es	1.073283	-1.673531	-0.463571	99
Es	-0.597228	-0.691589	0.023887	99
Es	-0.788644	1.398231	0.115698	99
Es	0.853394	-0.716831	-0.231666	99
Es	-1.434026	0.029355	-0.452828	99
Es	-1.484856	0.022760	-0.326856	99
Es	0.327371	-0.915396	-0.083857	99
Es	0.882918	1.269348	-0.320350	99
Es	0.938838	0.013885	0.156507	99
