42
Properties=species:S:1:pos:R:3:Z:I:1 energy=-234.24702158741624 field_type=dipole dipole="0.000000 0.000000 0.000000" charge=0
C	2.487190	-1.330420	-0.666770	6
C	1.896070	-0.043160	-0.111770	6
C	2.958360	0.959460	0.296960	6
C	3.770380	0.578960	1.508980	6
C	3.639180	1.763270	-0.790210	6
C	2.638640	2.428240	0.111250	6
H	1.688100	-2.002690	-0.994440	1
H	3.078790	-1.856280	0.088560	1
H	3.137360	-1.128930	-1.523940	1
H	1.262780	-0.273800	0.753230	1
H	1.236010	0.391000	-0.873310	1
H	4.438350	1.388750	1.822860	1
H	4.392290	-0.297040	1.299860	1
H	3.112570	0.344180	2.352300	1
H	3.353840	1.591170	-1.822310	1
H	4.684900	2.022590	-0.666790	1
H	3.008960	3.140680	0.840510	1
H	1.680380	2.706670	-0.313850	1
Es	2.282601	0.078668	-0.216041	99
Es	3.129502	2.155678	0.320727	99
Es	2.616516	0.504164	0.217494	99
Es	2.605479	0.524973	0.085992	99
Es	3.798142	0.328459	1.509298	99
Es	3.138984	2.089086	-0.138228	99
Es	2.974208	2.083859	-0.380478	99
Es	2.060727	-0.008320	-0.269762	99
Es	2.495749	0.416828	-0.133618	99
Es	2.516463	-1.285151	-0.158382	99
Es	3.139757	1.924362	-0.338729	99
Es	2.685290	0.670727	0.150044	99
Es	2.251217	-1.420410	-0.851947	99
Es	2.530902	-0.792606	-0.549578	99
Es	2.520866	-0.927402	-0.433289	99
Es	3.647502	0.475626	1.262411	99
Es	3.475197	1.195803	0.788389	99
Es	3.048943	1.369016	-0.058166	99
Es	2.324831	-1.185628	-0.791224	99
Es	3.170635	1.446011	-0.167756	99
Es	3.228972	2.383363	-0.083999	99
Es	3.459545	1.443196	0.518918	99
Es	3.573884	0.416508	1.575592	99
Es	3.036783	2.204297	-0.337565	99
