41
Properties=species:S:1:pos:R:3:Z:I:1 energy=-250.2453490271939 field_type=dipole dipole="0.000000 0.000000 0.000000" charge=0
C	0.981270	-0.051570	0.089700	6
C	2.488540	0.067530	-0.006120	6
C	3.166980	1.118160	0.898340	6
C	4.189490	0.008750	1.218540	6
C	5.464490	-0.018390	0.388250	6
N	3.185610	-0.983590	0.769030	7
H	0.625550	-0.929160	-0.459590	1
H	0.501240	0.830230	-0.346950	1
H	0.640610	-0.138600	1.126860	1
H	2.825380	0.123960	-1.050380	1
H	2.571980	1.430340	1.764550	1
H	3.552250	2.007710	0.392450	1
H	4.424240	-0.069530	2.286560	1
H	5.265910	0.038160	-0.687540	1
H	6.031430	-0.935980	0.580120	1
H	6.106150	0.829060	0.652310	1
H	3.550300	-1.755200	0.213370	1
Es	5.455349	0.368482	0.894673	99
Es	2.774887	-0.255960	0.362688	99
Es	4.378147	-0.016796	0.836076	99
Es	3.093099	0.799070	0.655359	99
Es	3.333090	0.566783	0.546235	99
Es	5.168731	0.006527	0.556203	99
Es	4.712936	-0.021413	0.665631	99
Es	2.800118	-0.711342	0.597126	99
Es	3.272324	-0.587375	0.509214	99
Es	2.465188	0.001674	0.268183	99
Es	2.997011	-0.777819	0.462710	99
Es	2.935601	0.169455	0.428303	99
Es	2.676413	0.645860	0.507342	99
Es	0.851250	-0.317484	-0.041940	99
Es	5.782392	-0.628982	0.504257	99
Es	0.629072	0.441979	0.040031	99
Es	3.515156	-0.820354	0.602906	99
Es	4.579500	0.311721	0.864798	99
Es	3.159599	0.450377	0.590323	99
Es	2.821222	1.050639	1.044628	99
Es	4.659299	-0.080615	0.645779	99
Es	0.921836	-0.067950	0.144655	99
Es	0.774288	-0.328199	0.238018	99
Es	4.225452	0.387282	0.870643	99
