41
Properties=species:S:1:pos:R:3:Z:I:1 energy=-250.24295207748565 field_type=dipole dipole="0.000000 0.000000 0.000000" charge=0
C	0.834470	0.294130	-0.335320	6
C	2.267310	0.085430	0.086740	6
C	2.517320	0.172530	1.575780	6
N	2.118760	-1.075740	2.208850	7
C	3.115770	-0.867960	-0.732450	6
C	3.344670	0.610850	-0.843530	6
H	0.722070	0.270390	-1.424570	1
H	0.470860	1.264640	0.016340	1
H	0.189000	-0.487670	0.079890	1
H	1.959780	1.010980	2.008190	1
H	3.579260	0.347760	1.784820	1
H	1.120920	-1.219890	2.074060	1
H	2.262880	-1.000250	3.213450	1
H	2.656490	-1.380670	-1.570170	1
H	3.859210	-1.464560	-0.214040	1
H	4.258210	1.011110	-0.417960	1
H	3.046910	1.100280	-1.764710	1
Es	3.192495	-0.131277	-0.656049	99
Es	1.885498	-0.513786	1.895653	99
Es	2.397323	-0.243843	0.334506	99
Es	1.960382	-0.298728	1.486115	99
Es	2.246337	-0.906440	2.620627	99
Es	1.212695	0.104248	0.000373	99
Es	2.448408	-0.541026	1.739943	99
Es	2.213682	0.192010	-0.342610	99
Es	2.967270	-0.369556	0.180122	99
Es	0.964235	0.385086	-0.547274	99
Es	2.225768	0.068019	0.213896	99
Es	2.270908	-0.108985	-0.020958	99
Es	2.800337	-0.317564	1.395395	99
Es	3.131985	0.112368	-0.868133	99
Es	2.234828	-0.691774	2.023597	99
Es	3.136017	-0.141934	-0.634379	99
Es	3.110556	0.460240	-1.258762	99
Es	3.528270	-0.068523	-0.596077	99
Es	1.102668	0.478500	-0.651540	99
Es	1.924387	-0.357387	1.875402	99
Es	2.912010	0.185447	-0.524102	99
Es	2.691549	-0.245354	-0.183903	99
Es	1.769346	-0.486409	1.514682	99
Es	1.467050	0.181952	-0.179425	99
