42
Properties=species:S:1:pos:R:3:Z:I:1 energy=-234.24725844256886 field_type=dipole dipole="0.000000 0.000000 0.000000" charge=0
C	1.170150	0.203400	0.149930	6
C	2.660780	-0.030600	-0.090650	6
C	2.876160	-0.786330	-1.401020	6
C	3.400180	1.282910	-0.115340	6
C	3.841990	1.929160	1.173090	6
C	4.863590	1.336640	0.243390	6
H	1.005990	0.724060	1.100130	1
H	0.625850	-0.746340	0.187210	1
H	0.729250	0.818390	-0.643300	1
H	3.042500	-0.654010	0.727210	1
H	2.506160	-0.212370	-2.258480	1
H	2.356980	-1.750570	-1.386560	1
H	3.941720	-0.979130	-1.568630	1
H	3.057630	1.938730	-0.909990	1
H	3.648300	1.415070	2.107620	1
H	3.784550	3.009680	1.243250	1
H	5.497230	2.016030	-0.315440	1
H	5.358960	0.422450	0.550920	1
Es	3.451956	-0.879314	-1.474672	99
Es	3.247975	1.107217	-0.022927	99
Es	1.034717	0.589197	0.706534	99
Es	2.470190	0.143301	-0.064332	99
Es	1.153736	0.208235	0.037745	99
Es	2.654317	-0.917521	-1.472885	99
Es	3.849757	1.780324	0.895288	99
Es	4.574478	1.423479	0.345593	99
Es	0.828586	-0.392488	0.197777	99
Es	1.225229	0.404043	-0.209097	99
Es	3.580625	1.363250	0.287014	99
Es	2.642861	-1.013835	-1.738319	99
Es	3.741157	1.256890	0.209271	99
Es	2.624466	0.450403	-0.157462	99
Es	2.637559	-0.137735	-0.444235	99
Es	5.094727	1.545844	0.060089	99
Es	2.412183	0.217297	-0.009548	99
Es	4.708164	1.230722	0.405507	99
Es	2.881612	-0.696897	-1.329609	99
Es	3.881726	1.607114	0.874831	99
Es	3.059576	0.059232	-0.269215	99
Es	4.026624	2.170277	1.091383	99
Es	3.914493	1.952968	1.154436	99
Es	4.519275	1.336374	0.220687	99
