40
Properties=species:S:1:pos:R:3:Z:I:1 energy=-266.23499475387 field_type=dipole dipole="0.000000 0.000000 0.000000" charge=0
C	0.832770	0.293620	-0.366060	6
C	2.247110	0.041330	0.089340	6
C	2.479640	0.155140	1.582810	6
N	2.110630	-1.093140	2.239800	7
C	3.083070	-0.944440	-0.702730	6
N	3.314790	0.488830	-0.824980	7
H	0.734760	0.238010	-1.455910	1
H	0.502360	1.289770	-0.052260	1
H	0.151140	-0.446200	0.066460	1
H	1.895930	0.984830	1.998180	1
H	3.534070	0.363200	1.800780	1
H	1.113290	-1.256880	2.115620	1
H	2.255940	-0.995230	3.243150	1
H	2.638880	-1.431900	-1.561510	1
H	3.838780	-1.523020	-0.185950	1
H	4.158120	0.754750	-0.314680	1
Es	2.720390	-0.113202	-0.199443	99
Es	2.834344	-0.182153	-0.373228	99
Es	2.015276	-0.883097	2.144568	99
Es	3.486024	-0.242214	-0.460889	99
Es	2.080008	-0.576446	2.004127	99
Es	2.636063	-0.262620	-0.019326	99
Es	3.227909	0.107909	-0.761636	99
Es	1.349344	0.327530	-0.206768	99
Es	2.481525	0.073472	-0.300792	99
Es	2.214815	-0.330443	1.722836	99
Es	1.995242	-0.240293	1.801875	99
Es	2.546816	-0.309081	0.152459	99
Es	2.159060	-1.007945	2.528857	99
Es	0.777283	0.411221	-0.349721	99
Es	2.244983	-0.735548	2.275647	99
Es	2.289559	-0.268064	1.153168	99
Es	1.168451	0.383907	-0.301601	99
Es	2.538394	-0.069708	1.045059	99
Es	2.483266	-0.124803	0.449387	99
Es	1.981671	0.115052	-0.698126	99
Es	3.271584	-0.338228	-0.366741	99
Es	0.937983	0.045587	0.037652	99
Es	2.886503	-0.089065	-0.926112	99
Es	3.064901	-0.186066	-0.979826	99
