34
Properties=species:S:1:pos:R:3:Z:I:1 energy=-263.95018476570425 field_type=dipole dipole="0.000000 0.000000 0.000000" charge=0
C	0.961350	-0.013350	-0.007670	6
C	2.437530	0.044410	-0.000930	6
C	3.323710	1.099400	0.002500	6
N	4.619090	0.651080	0.008750	7
C	4.532610	-0.658600	0.009210	6
N	3.232020	-1.074610	0.003270	7
H	0.529070	0.992270	0.001960	1
H	0.592150	-0.548960	0.872700	1
H	0.599820	-0.528890	-0.903060	1
H	3.098260	2.158440	0.000690	1
H	5.365030	-1.349310	0.013630	1
H	2.919040	-2.035570	0.002300	1
Es	3.165038	1.815101	-0.003967	99
Es	3.676795	-0.888149	-0.056177	99
Es	4.687847	0.639483	0.059598	99
Es	4.610003	0.622510	0.015365	99
Es	2.492072	0.291746	0.011003	99
Es	4.486460	0.305991	0.115995	99
Es	3.063979	-1.644373	0.003927	99
Es	2.691977	0.323662	-0.020860	99
Es	1.834405	0.009543	-0.006445	99
Es	0.792828	-0.270417	-0.013878	99
Es	3.378809	1.069490	-0.004367	99
Es	5.080577	-1.133217	0.030082	99
Es	3.326343	-0.968130	0.089634	99
Es	3.037430	0.431225	0.008647	99
Es	2.878540	-0.666462	-0.042179	99
Es	4.001033	0.911052	0.017133	99
Es	4.796769	0.278423	-0.154843	99
Es	0.921515	-0.074631	0.000406	99
Es	4.519839	-0.657445	0.009526	99
Es	0.695839	-0.410007	-0.017435	99
Es	0.671403	0.652501	-0.001614	99
Es	3.267127	-1.038454	0.007095	99
