38
Properties=species:S:1:pos:R:3:Z:I:1 energy=-249.04517637855318 field_type=dipole dipole="0.000000 0.000000 0.000000" charge=0
C	0.935550	0.009820	-0.183390	6
C	2.401700	0.037240	0.074400	6
N	3.301150	-0.765570	-0.742510	7
C	3.347890	0.687400	-0.907810	6
C	4.525340	1.386650	-0.395060	6
C	5.792100	1.190620	-0.785310	6
H	0.466080	0.907340	0.231640	1
H	0.483180	-0.863070	0.298130	1
H	0.700840	-0.030880	-1.252510	1
H	2.634420	0.072700	1.132460	1
H	2.815850	-1.194250	-1.530620	1
H	2.945600	1.077440	-1.837070	1
H	4.340890	2.141860	0.366300	1
H	6.035520	0.444150	-1.534920	1
H	6.606580	1.757400	-0.348130	1
Es	0.604500	-0.188625	0.028333	99
Es	2.473896	0.236956	0.001048	99
Es	3.275059	-0.718218	-0.845986	99
Es	2.848530	0.151631	-0.381882	99
Es	2.676405	-0.226248	-0.397783	99
Es	4.694524	1.467114	-0.386499	99
Es	3.301848	-0.625750	-0.838408	99
Es	4.905559	1.493689	-0.222344	99
Es	4.836195	1.363678	-0.603048	99
Es	3.369445	-0.032860	-0.944032	99
Es	0.821632	0.162247	-0.052390	99
Es	6.265654	1.421093	-0.744535	99
Es	1.026567	-0.039576	-0.322966	99
Es	2.628816	0.072776	-0.185296	99
Es	4.049565	1.275434	-0.500099	99
Es	1.596609	0.073684	-0.051025	99
Es	3.090317	-0.648120	-0.869775	99
Es	3.686339	0.793567	-0.701238	99
Es	3.007591	0.107574	-0.646434	99
Es	5.961333	0.899299	-1.084421	99
Es	4.357845	1.078977	-0.558715	99
Es	5.779194	1.185232	-0.786521	99
Es	0.982973	0.027008	-0.278406	99
