41
Properties=species:S:1:pos:R:3:Z:I:1 energy=-250.245767280597 field_type=dipole dipole="0.000000 0.000000 0.000000" charge=0
C	0.891360	-0.025300	0.089000	6
C	2.399140	0.001720	0.015610	6
N	2.889780	0.038040	-1.367790	7
C	3.156460	1.069630	0.844720	6
C	4.208620	-0.000730	1.201540	6
C	3.185560	-1.081740	0.793310	6
H	0.545300	-0.056800	1.128340	1
H	0.484050	-0.906180	-0.419600	1
H	0.453770	0.866110	-0.375180	1
H	3.903370	0.040290	-1.470080	1
H	2.554010	0.839930	-1.901980	1
H	2.599050	1.422600	1.721460	1
H	3.535350	1.945750	0.309690	1
H	5.101800	0.026350	0.566930	1
H	4.523050	-0.021580	2.248920	1
H	3.588530	-1.921490	0.217990	1
H	2.639560	-1.491410	1.652620	1
Es	2.919392	0.058625	0.369629	99
Es	2.908576	0.193857	-0.914384	99
Es	4.286308	-0.019642	1.311165	99
Es	1.908903	0.139034	-0.409253	99
Es	3.122162	0.107085	0.387888	99
Es	4.213149	-0.005653	1.356684	99
Es	1.727233	-0.084760	-0.249029	99
Es	2.687748	0.116699	-0.898733	99
Es	1.113065	-0.264585	-0.129994	99
Es	1.219303	0.032406	-0.160974	99
Es	3.107663	-0.190827	0.685738	99
Es	3.477087	-0.011838	0.968899	99
Es	3.193329	-0.032138	0.445245	99
Es	2.890682	0.015325	0.400474	99
Es	3.065131	0.048000	0.401108	99
Es	3.923381	-0.022551	0.748567	99
Es	2.129370	0.128206	-0.063052	99
Es	2.743274	0.153243	0.002421	99
Es	1.028326	0.050828	0.189278	99
Es	2.645816	-0.001930	-0.311165	99
Es	2.971168	-0.039074	0.912371	99
Es	2.861503	0.010850	-0.520680	99
Es	3.062446	-0.009751	0.341800	99
Es	3.361570	-0.073822	0.965675	99
