27
Properties=species:S:1:pos:R:3:Z:I:1 energy=-172.13138253571316 field_type=dipole dipole="0.000000 0.000000 0.000000" charge=0
C	-1.239611	-0.008605	0.579296	6
N	0.213849	-0.079675	0.698436	7
C	0.850879	-0.748455	-0.430544	6
C	0.920349	0.749585	-0.271084	6
H	-1.624341	0.749155	1.269866	1
H	-1.681221	-0.969605	0.862736	1
H	-1.599181	0.242405	-0.426174	1
H	0.223419	-1.160965	-1.210554	1
H	1.735969	-1.326505	-0.194884	1
H	1.853749	1.181394	0.069916	1
H	0.346139	1.371275	-0.947014	1
Es	0.355092	-0.120988	1.019583	99
Es	-0.414733	-0.043354	0.607140	99
Es	0.469161	0.407836	0.335123	99
Es	1.008943	0.013897	-0.538279	99
Es	0.521496	1.171700	-0.727431	99
Es	1.450557	-1.145477	-0.272946	99
Es	1.553438	1.047582	-0.040682	99
Es	0.213678	-0.079602	0.697828	99
Es	0.429537	-0.499849	0.237401	99
Es	-1.538920	-0.665885	0.768480	99
Es	-1.501602	0.511572	1.045565	99
Es	0.416409	-1.027985	-0.958515	99
Es	-1.239483	-0.008610	0.579298	99
Es	0.920248	0.749394	-0.270974	99
Es	0.850794	-0.748280	-0.430396	99
Es	-1.476335	0.163736	-0.121261	99
27
Properties=species:S:1:pos:R:3:Z:I:1 energy=-172.13138253571316 field_type=dipole dipole="0.000000 0.000000 0.000000" charge=0
C	-1.239611	-0.008605	0.579296	6
N	0.213849	-0.079675	0.698436	7
C	0.850879	-0.748455	-0.430544	6
C	0.920349	0.749585	-0.271084	6
H	-1.624341	0.749155	1.269866	1
H	-1.681221	-0.969605	0.862736	1
H	-1.599181	0.242405	-0.426174	1
H	0.223419	-1.160965	-1.210554	1
H	1.735969	-1.326505	-0.194884	1
H	1.853749	1.181394	0.069916	1
H	0.346139	1.371275	-0.947014	1
Es	-1.538940	-0.665860	0.768548	99
Es	0.850791	-0.748278	-0.430392	99
Es	0.354921	-0.121246	1.019263	99
Es	0.521519	1.171692	-0.727317	99
Es	0.213688	-0.079603	0.697831	99
Es	-1.476326	0.163656	-0.121272	99
Es	-0.414743	-0.043255	0.607280	99
Es	1.009097	0.013956	-0.538615	99
Es	-1.501617	0.511610	1.045477	99
Es	0.469296	0.408030	0.335562	99
Es	0.920248	0.749398	-0.270974	99
Es	1.450484	-1.145440	-0.273007	99
Es	-1.239483	-0.008610	0.579298	99
Es	1.553332	1.047633	-0.040691	99
Es	0.429541	-0.499955	0.237304	99
Es	0.416471	-1.028039	-0.958361	99
27
Properties=species:S:1:pos:R:3:Z:I:1 energy=-172.13138253571316 field_type=dipole dipole="0.000000 0.000000 0.000000" charge=0
C	-1.239611	-0.008605	0.579296	6
N	0.213849	-0.079675	0.698436	7
C	0.850879	-0.748455	-0.430544	6
C	0.920349	0.749585	-0.271084	6
H	-1.624341	0.749155	1.269866	1
H	-1.681221	-0.969605	0.862736	1
H	-1.599181	0.242405	-0.426174	1
H	0.223419	-1.160965	-1.210554	1
H	1.735969	-1.326505	-0.194884	1
H	1.853749	1.181394	0.069916	1
H	0.346139	1.371275	-0.947014	1
Es	-1.501650	0.511543	1.045561	99
Es	0.521580	1.171660	-0.727161	99
Es	1.553193	1.047695	-0.040731	99
Es	0.416533	-1.028003	-0.958279	99
Es	1.450394	-1.145459	-0.273077	99
Es	-1.239485	-0.008610	0.579298	99
Es	-1.476301	0.163762	-0.121218	99
Es	0.850795	-0.748277	-0.430397	99
Es	0.429433	-0.500134	0.237039	99
Es	0.213662	-0.079598	0.697791	99
Es	-1.538949	-0.665888	0.768405	99
Es	0.920244	0.749388	-0.270972	99
Es	0.469277	0.408451	0.335934	99
Es	-0.414744	-0.043306	0.607793	99
Es	1.009276	0.014006	-0.538848	99
Es	0.355020	-0.121544	1.018795	99
27
Properties=species:S:1:pos:R:3:Z:I:1 energy=-172.13138253571316 field_type=dipole dipole="0.000000 0.000000 0.000000" charge=0
C	-1.239611	-0.008605	0.579296	6
N	0.213849	-0.079675	0.698436	7
C	0.850879	-0.748455	-0.430544	6
C	0.920349	0.749585	-0.271084	6
H	-1.624341	0.749155	1.269866	1
H	-1.681221	-0.969605	0.862736	1
H	-1.599181	0.242405	-0.426174	1
H	0.223419	-1.160965	-1.210554	1
H	1.735969	-1.326505	-0.194884	1
H	1.853749	1.181394	0.069916	1
H	0.346139	1.371275	-0.947014	1
Es	-1.476346	0.163770	-0.121196	99
Es	0.469199	0.408530	0.335994	99
Es	-1.501685	0.511478	1.045565	99
Es	1.009518	0.013921	-0.539194	99
Es	-1.538909	-0.665896	0.768391	99
Es	0.416580	-1.028069	-0.958169	99
Es	0.920246	0.749389	-0.270972	99
Es	1.450251	-1.145461	-0.273058	99
Es	0.354638	-0.120928	1.018411	99
Es	0.521652	1.171712	-0.727150	99
Es	0.429755	-0.500571	0.237553	99
Es	0.213653	-0.079599	0.697809	99
Es	0.850794	-0.748279	-0.430397	99
Es	-1.239484	-0.008610	0.579298	99
Es	-0.414677	-0.043324	0.607813	99
Es	1.553095	1.047623	-0.040763	99
27
Properties=species:S:1:pos:R:3:Z:I:1 energy=-172.13138253571316 field_type=dipole dipole="0.000000 0.000000 0.000000" charge=0
C	-1.239611	-0.008605	0.579296	6
N	0.213849	-0.079675	0.698436	7
C	0.850879	-0.748455	-0.430544	6
C	0.920349	0.749585	-0.271084	6
H	-1.624341	0.749155	1.269866	1
H	-1.681221	-0.969605	0.862736	1
H	-1.599181	0.242405	-0.426174	1
H	0.223419	-1.160965	-1.210554	1
H	1.735969	-1.326505	-0.194884	1
H	1.853749	1.181394	0.069916	1
H	0.346139	1.371275	-0.947014	1
Es	0.416662	-1.028041	-0.958101	99
Es	1.553026	1.047677	-0.040783	99
Es	-1.501664	0.511564	1.045515	99
Es	0.469304	0.408779	0.335999	99
Es	0.429700	-0.500887	0.237807	99
Es	0.354527	-0.120876	1.018047	99
Es	-1.538992	-0.665832	0.768416	99
Es	0.850792	-0.748275	-0.430393	99
Es	1.009657	0.014004	-0.539388	99
Es	-1.239479	-0.008610	0.579299	99
Es	0.521708	1.171653	-0.727056	99
Es	1.450146	-1.145473	-0.273105	99
Es	-0.414691	-0.043510	0.608024	99
Es	-1.476317	0.163720	-0.121171	99
Es	0.213652	-0.079599	0.697797	99
Es	0.920248	0.749395	-0.270974	99
27
Properties=species:S:1:pos:R:3:Z:I:1 energy=-172.13138253571316 field_type=dipole dipole="0.000000 0.000000 0.000000" charge=0
C	-1.239611	-0.008605	0.579296	6
N	0.213849	-0.079675	0.698436	7
C	0.850879	-0.748455	-0.430544	6
C	0.920349	0.749585	-0.271084	6
H	-1.624341	0.749155	1.269866	1
H	-1.681221	-0.969605	0.862736	1
H	-1.599181	0.242405	-0.426174	1
H	0.223419	-1.160965	-1.210554	1
H	1.735969	-1.326505	-0.194884	1
H	1.853749	1.181394	0.069916	1
H	0.346139	1.371275	-0.947014	1
Es	0.920247	0.749388	-0.270975	99
Es	-1.476330	0.163685	-0.121193	99
Es	-0.414675	-0.043404	0.608111	99
Es	1.450096	-1.145455	-0.273144	99
Es	0.850792	-0.748274	-0.430394	99
Es	-1.501668	0.511553	1.045473	99
Es	0.354354	-0.120731	1.017793	99
Es	0.521775	1.171629	-0.726958	99
Es	-1.538992	-0.665817	0.768458	99
Es	1.552979	1.047682	-0.040833	99
Es	1.009701	0.014144	-0.539486	99
Es	0.469355	0.408882	0.336142	99
Es	0.213651	-0.079600	0.697807	99
Es	0.416713	-1.028031	-0.958065	99
Es	-1.239489	-0.008610	0.579298	99
Es	0.429770	-0.501356	0.237897	99
27
Properties=species:S:1:pos:R:3:Z:I:1 energy=-172.13138253571316 field_type=dipole dipole="0.000000 0.000000 0.000000" charge=0
C	-1.239611	-0.008605	0.579296	6
N	0.213849	-0.079675	0.698436	7
C	0.850879	-0.748455	-0.430544	6
C	0.920349	0.749585	-0.271084	6
H	-1.624341	0.749155	1.269866	1
H	-1.681221	-0.969605	0.862736	1
H	-1.599181	0.242405	-0.426174	1
H	0.223419	-1.160965	-1.210554	1
H	1.735969	-1.326505	-0.194884	1
H	1.853749	1.181394	0.069916	1
H	0.346139	1.371275	-0.947014	1
Es	-1.538992	-0.665803	0.768441	99
Es	0.469534	0.409157	0.336532	99
Es	-1.239485	-0.008610	0.579298	99
Es	0.416773	-1.028101	-0.957923	99
Es	0.354115	-0.120923	1.017291	99
Es	-0.414661	-0.043420	0.608289	99
Es	0.429762	-0.501361	0.238035	99
Es	1.009953	0.014082	-0.539937	99
Es	-1.476341	0.163657	-0.121141	99
Es	0.213656	-0.079601	0.697814	99
Es	-1.501704	0.511565	1.045462	99
Es	0.920248	0.749389	-0.270975	99
Es	1.449992	-1.145419	-0.273170	99
Es	0.850792	-0.748277	-0.430392	99
Es	0.521797	1.171635	-0.726844	99
Es	1.552841	1.047717	-0.040847	99
27
Properties=species:S:1:pos:R:3:Z:I:1 energy=-172.13138253571316 field_type=dipole dipole="0.000000 0.000000 0.000000" charge=0
C	-1.239611	-0.008605	0.579296	6
N	0.213849	-0.079675	0.698436	7
C	0.850879	-0.748455	-0.430544	6
C	0.920349	0.749585	-0.271084	6
H	-1.624341	0.749155	1.269866	1
H	-1.681221	-0.969605	0.862736	1
H	-1.599181	0.242405	-0.426174	1
H	0.223419	-1.160965	-1.210554	1
H	1.735969	-1.326505	-0.194884	1
H	1.853749	1.181394	0.069916	1
H	0.346139	1.371275	-0.947014	1
Es	0.850792	-0.748278	-0.430393	99
Es	-1.239485	-0.008610	0.579298	99
Es	1.552736	1.047730	-0.040864	99
Es	0.354002	-0.120851	1.016948	99
Es	0.920247	0.749384	-0.270974	99
Es	1.449895	-1.145444	-0.273205	99
Es	-1.501719	0.511517	1.045456	99
Es	-1.476325	0.163729	-0.121058	99
Es	-1.539028	-0.665872	0.768372	99
Es	0.416810	-1.028082	-0.957851	99
Es	0.213712	-0.079611	0.697878	99
Es	-0.414637	-0.043399	0.608450	99
Es	1.010141	0.014101	-0.540181	99
Es	0.521847	1.171635	-0.726752	99
Es	0.469521	0.409286	0.336659	99
Es	0.429771	-0.501548	0.238150	99
27
Properties=species:S:1:pos:R:3:Z:I:1 energy=-172.13138253571316 field_type=dipole dipole="0.000000 0.000000 0.000000" charge=0
C	-1.239611	-0.008605	0.579296	6
N	0.213849	-0.079675	0.698436	7
C	0.850879	-0.748455	-0.430544	6
C	0.920349	0.749585	-0.271084	6
H	-1.624341	0.749155	1.269866	1
H	-1.681221	-0.969605	0.862736	1
H	-1.599181	0.242405	-0.426174	1
H	0.223419	-1.160965	-1.210554	1
H	1.735969	-1.326505	-0.194884	1
H	1.853749	1.181394	0.069916	1
H	0.346139	1.371275	-0.947014	1
Es	-0.414644	-0.043469	0.608746	99
Es	0.920246	0.749391	-0.270973	99
Es	0.416863	-1.028110	-0.957759	99
Es	0.469486	0.409420	0.336770	99
Es	0.850794	-0.748276	-0.430396	99
Es	-1.476315	0.163659	-0.121076	99
Es	1.552671	1.047747	-0.040901	99
Es	0.353947	-0.120706	1.016576	99
Es	1.449798	-1.145427	-0.273230	99
Es	1.010282	0.014112	-0.540437	99
Es	0.429806	-0.501804	0.238275	99
Es	-1.239487	-0.008610	0.579298	99
Es	-1.539045	-0.665796	0.768399	99
Es	0.521900	1.171603	-0.726670	99
Es	-1.501733	0.511563	1.045428	99
Es	0.213709	-0.079610	0.697881	99
27
Properties=species:S:1:pos:R:3:Z:I:1 energy=-172.13138253571316 field_type=dipole dipole="0.000000 0.000000 0.000000" charge=0
C	-1.239611	-0.008605	0.579296	6
N	0.213849	-0.079675	0.698436	7
C	0.850879	-0.748455	-0.430544	6
C	0.920349	0.749585	-0.271084	6
H	-1.624341	0.749155	1.269866	1
H	-1.681221	-0.969605	0.862736	1
H	-1.599181	0.242405	-0.426174	1
H	0.223419	-1.160965	-1.210554	1
H	1.735969	-1.326505	-0.194884	1
H	1.853749	1.181394	0.069916	1
H	0.346139	1.371275	-0.947014	1
Es	-1.501743	0.511515	1.045420	99
Es	0.469661	0.409683	0.336961	99
Es	0.920247	0.749387	-0.270973	99
Es	1.552562	1.047794	-0.040921	99
Es	-1.239492	-0.008609	0.579300	99
Es	0.429759	-0.501932	0.238435	99
Es	1.449714	-1.145425	-0.273263	99
Es	0.850794	-0.748278	-0.430396	99
Es	-0.414558	-0.043482	0.608773	99
Es	-1.539078	-0.665791	0.768353	99
Es	0.521932	1.171566	-0.726610	99
Es	0.213676	-0.079601	0.697817	99
Es	1.010464	0.014115	-0.540639	99
Es	0.416915	-1.028112	-0.957680	99
Es	0.353736	-0.120849	1.016411	99
Es	-1.476311	0.163705	-0.121054	99
27
Properties=species:S:1:pos:R:3:Z:I:1 energy=-172.13138253571316 field_type=dipole dipole="0.000000 0.000000 0.000000" charge=0
C	-1.239611	-0.008605	0.579296	6
N	0.213849	-0.079675	0.698436	7
C	0.850879	-0.748455	-0.430544	6
C	0.920349	0.749585	-0.271084	6
H	-1.624341	0.749155	1.269866	1
H	-1.681221	-0.969605	0.862736	1
H	-1.599181	0.242405	-0.426174	1
H	0.223419	-1.160965	-1.210554	1
H	1.735969	-1.326505	-0.194884	1
H	1.853749	1.181394	0.069916	1
H	0.346139	1.371275	-0.947014	1
Es	-0.414607	-0.043526	0.609016	99
Es	-1.476310	0.163651	-0.121025	99
Es	0.850787	-0.748266	-0.430386	99
Es	-1.539068	-0.665777	0.768357	99
Es	0.429852	-0.502248	0.238588	99
Es	0.213663	-0.079601	0.697802	99
Es	0.521964	1.171631	-0.726494	99
Es	0.416974	-1.028190	-0.957641	99
Es	0.920245	0.749383	-0.270972	99
Es	-1.501776	0.511556	1.045414	99
Es	1.449530	-1.145348	-0.273283	99
Es	-1.239487	-0.008610	0.579298	99
Es	1.552493	1.047763	-0.040911	99
Es	0.469688	0.409767	0.337066	99
Es	1.010664	0.014212	-0.540898	99
Es	0.353667	-0.120711	1.016001	99
27
Properties=species:S:1:pos:R:3:Z:I:1 energy=-172.13138253571316 field_type=dipole dipole="0.000000 0.000000 0.000000" charge=0
C	-1.239611	-0.008605	0.579296	6
N	0.213849	-0.079675	0.698436	7
C	0.850879	-0.748455	-0.430544	6
C	0.920349	0.749585	-0.271084	6
H	-1.624341	0.749155	1.269866	1
H	-1.681221	-0.969605	0.862736	1
H	-1.599181	0.242405	-0.426174	1
H	0.223419	-1.160965	-1.210554	1
H	1.735969	-1.326505	-0.194884	1
H	1.853749	1.181394	0.069916	1
H	0.346139	1.371275	-0.947014	1
Es	1.010781	0.014131	-0.541110	99
Es	-1.501800	0.511530	1.045412	99
Es	-1.539061	-0.665771	0.768336	99
Es	0.850792	-0.748274	-0.430393	99
Es	0.920247	0.749386	-0.270974	99
Es	-0.414554	-0.043485	0.609112	99
Es	0.429801	-0.502299	0.238647	99
Es	1.449537	-1.145424	-0.273306	99
Es	1.552380	1.047822	-0.040958	99
Es	0.213664	-0.079601	0.697815	99
Es	-1.476321	0.163651	-0.121008	99
Es	-1.239488	-0.008610	0.579299	99
Es	0.469639	0.409887	0.337191	99
Es	0.417020	-1.028128	-0.957521	99
Es	0.522022	1.171543	-0.726467	99
Es	0.353620	-0.120671	1.015858	99
27
Properties=species:S:1:pos:R:3:Z:I:1 energy=-172.13138253571316 field_type=dipole dipole="0.000000 0.000000 0.000000" charge=0
C	-1.239611	-0.008605	0.579296	6
N	0.213849	-0.079675	0.698436	7
C	0.850879	-0.748455	-0.430544	6
C	0.920349	0.749585	-0.271084	6
H	-1.624341	0.749155	1.269866	1
H	-1.681221	-0.969605	0.862736	1
H	-1.599181	0.242405	-0.426174	1
H	0.223419	-1.160965	-1.210554	1
H	1.735969	-1.326505	-0.194884	1
H	1.853749	1.181394	0.069916	1
H	0.346139	1.371275	-0.947014	1
Es	-1.239488	-0.008610	0.579299	99
Es	0.430023	-0.502482	0.238891	99
Es	0.353354	-0.120544	1.015358	99
Es	1.449453	-1.145445	-0.273353	99
Es	0.920247	0.749387	-0.270974	99
Es	0.850792	-0.748266	-0.430391	99
Es	0.469713	0.410192	0.337438	99
Es	1.010875	0.014017	-0.541421	99
Es	0.213666	-0.079600	0.697817	99
Es	-1.501793	0.511490	1.045452	99
Es	-0.414587	-0.043576	0.609253	99
Es	-1.539068	-0.665776	0.768284	99
Es	0.417003	-1.028153	-0.957386	99
Es	-1.476339	0.163710	-0.120981	99
Es	0.522094	1.171584	-0.726358	99
Es	1.552333	1.047758	-0.040995	99
27
Properties=species:S:1:pos:R:3:Z:I:1 energy=-172.13138253571316 field_type=dipole dipole="0.000000 0.000000 0.000000" charge=0
C	-1.239611	-0.008605	0.579296	6
N	0.213849	-0.079675	0.698436	7
C	0.850879	-0.748455	-0.430544	6
C	0.920349	0.749585	-0.271084	6
H	-1.624341	0.749155	1.269866	1
H	-1.681221	-0.969605	0.862736	1
H	-1.599181	0.242405	-0.426174	1
H	0.223419	-1.160965	-1.210554	1
H	1.735969	-1.326505	-0.194884	1
H	1.853749	1.181394	0.069916	1
H	0.346139	1.371275	-0.947014	1
Es	-0.414589	-0.043558	0.609521	99
Es	-1.501826	0.511524	1.045378	99
Es	0.522114	1.171544	-0.726272	99
Es	-1.539098	-0.665759	0.768309	99
Es	-1.476310	0.163645	-0.120964	99
Es	0.213661	-0.079601	0.697816	99
Es	0.850793	-0.748269	-0.430393	99
Es	1.449369	-1.145431	-0.273359	99
Es	0.920246	0.749383	-0.270973	99
Es	1.011066	0.014153	-0.541640	99
Es	1.552234	1.047826	-0.040997	99
Es	0.353373	-0.120525	1.015087	99
Es	0.469708	0.410155	0.337530	99
Es	0.429932	-0.502651	0.238945	99
Es	-1.239489	-0.008610	0.579299	99
Es	0.417095	-1.028140	-0.957353	99
27
Properties=species:S:1:pos:R:3:Z:I:1 energy=-172.13138253571316 field_type=dipole dipole="0.000000 0.000000 0.000000" charge=0
C	-1.239611	-0.008605	0.579296	6
N	0.213849	-0.079675	0.698436	7
C	0.850879	-0.748455	-0.430544	6
C	0.920349	0.749585	-0.271084	6
H	-1.624341	0.749155	1.269866	1
H	-1.681221	-0.969605	0.862736	1
H	-1.599181	0.242405	-0.426174	1
H	0.223419	-1.160965	-1.210554	1
H	1.735969	-1.326505	-0.194884	1
H	1.853749	1.181394	0.069916	1
H	0.346139	1.371275	-0.947014	1
Es	-1.539115	-0.665745	0.768297	99
Es	-1.239489	-0.008610	0.579299	99
Es	0.353292	-0.120525	1.014854	99
Es	0.850792	-0.748270	-0.430391	99
Es	0.429884	-0.502866	0.239014	99
Es	0.522158	1.171532	-0.726203	99
Es	-1.476305	0.163643	-0.120942	99
Es	-1.501835	0.511523	1.045368	99
Es	1.449298	-1.145424	-0.273388	99
Es	0.920246	0.749383	-0.270973	99
Es	0.417145	-1.028133	-0.957300	99
Es	-0.414560	-0.043541	0.609658	99
Es	0.213671	-0.079601	0.697814	99
Es	1.552165	1.047825	-0.041030	99
Es	0.469763	0.410330	0.337643	99
Es	1.011169	0.014166	-0.541786	99
27
Properties=species:S:1:pos:R:3:Z:I:1 energy=-172.13138253571316 field_type=dipole dipole="0.000000 0.000000 0.000000" charge=0
C	-1.239611	-0.008605	0.579296	6
N	0.213849	-0.079675	0.698436	7
C	0.850879	-0.748455	-0.430544	6
C	0.920349	0.749585	-0.271084	6
H	-1.624341	0.749155	1.269866	1
H	-1.681221	-0.969605	0.862736	1
H	-1.599181	0.242405	-0.426174	1
H	0.223419	-1.160965	-1.210554	1
H	1.735969	-1.326505	-0.194884	1
H	1.853749	1.181394	0.069916	1
H	0.346139	1.371275	-0.947014	1
Es	0.522198	1.171521	-0.726130	99
Es	-1.501851	0.511518	1.045361	99
Es	0.353179	-0.120288	1.014536	99
Es	-0.414561	-0.043566	0.609830	99
Es	0.920246	0.749382	-0.270973	99
Es	-1.476301	0.163641	-0.120921	99
Es	-1.239490	-0.008610	0.579299	99
Es	0.850796	-0.748272	-0.430397	99
Es	0.213663	-0.079600	0.697811	99
Es	0.469817	0.410404	0.337583	99
Es	1.011289	0.014203	-0.541976	99
Es	1.449227	-1.145412	-0.273418	99
Es	0.429916	-0.503192	0.239332	99
Es	0.417187	-1.028136	-0.957229	99
Es	-1.539126	-0.665740	0.768278	99
Es	1.552092	1.047834	-0.041053	99
27
Properties=species:S:1:pos:R:3:Z:I:1 energy=-172.13138253571316 field_type=dipole dipole="0.000000 0.000000 0.000000" charge=0
C	-1.239611	-0.008605	0.579296	6
N	0.213849	-0.079675	0.698436	7
C	0.850879	-0.748455	-0.430544	6
C	0.920349	0.749585	-0.271084	6
H	-1.624341	0.749155	1.269866	1
H	-1.681221	-0.969605	0.862736	1
H	-1.599181	0.242405	-0.426174	1
H	0.223419	-1.160965	-1.210554	1
H	1.735969	-1.326505	-0.194884	1
H	1.853749	1.181394	0.069916	1
H	0.346139	1.371275	-0.947014	1
Es	0.469852	0.410698	0.337839	99
Es	0.850792	-0.748273	-0.430393	99
Es	1.449134	-1.145415	-0.273416	99
Es	-1.239489	-0.008610	0.579299	99
Es	-1.539131	-0.665726	0.768309	99
Es	-1.476287	0.163571	-0.120914	99
Es	-0.414569	-0.043529	0.610058	99
Es	0.353089	-0.120356	1.014164	99
Es	1.552016	1.047852	-0.041072	99
Es	1.011433	0.014083	-0.542140	99
Es	0.429924	-0.503256	0.239320	99
Es	0.213668	-0.079601	0.697818	99
Es	0.417232	-1.028154	-0.957156	99
Es	0.522258	1.171473	-0.726114	99
Es	0.920245	0.749381	-0.270972	99
Es	-1.501888	0.511547	1.045300	99
27
Properties=species:S:1:pos:R:3:Z:I:1 energy=-172.13138253571316 field_type=dipole dipole="0.000000 0.000000 0.000000" charge=0
C	-1.239611	-0.008605	0.579296	6
N	0.213849	-0.079675	0.698436	7
C	0.850879	-0.748455	-0.430544	6
C	0.920349	0.749585	-0.271084	6
H	-1.624341	0.749155	1.269866	1
H	-1.681221	-0.969605	0.862736	1
H	-1.599181	0.242405	-0.426174	1
H	0.223419	-1.160965	-1.210554	1
H	1.735969	-1.326505	-0.194884	1
H	1.853749	1.181394	0.069916	1
H	0.346139	1.371275	-0.947014	1
Es	-1.539151	-0.665721	0.768260	99
Es	0.213691	-0.079602	0.697818	99
Es	0.920246	0.749380	-0.270973	99
Es	0.353014	-0.120360	1.014011	99
Es	1.011554	0.014192	-0.542388	99
Es	0.522274	1.171491	-0.725990	99
Es	0.469829	0.410715	0.337991	99
Es	-1.476298	0.163625	-0.120883	99
Es	-0.414532	-0.043602	0.610129	99
Es	0.850792	-0.748268	-0.430391	99
Es	0.429944	-0.503369	0.239370	99
Es	-1.501880	0.511513	1.045330	99
Es	0.417270	-1.028141	-0.957089	99
Es	1.449075	-1.145409	-0.273465	99
Es	-1.239491	-0.008610	0.579299	99
Es	1.551942	1.047850	-0.041098	99
27
Properties=species:S:1:pos:R:3:Z:I:1 energy=-172.13138253571316 field_type=dipole dipole="0.000000 0.000000 0.000000" charge=0
C	-1.239611	-0.008605	0.579296	6
N	0.213849	-0.079675	0.698436	7
C	0.850879	-0.748455	-0.430544	6
C	0.920349	0.749585	-0.271084	6
H	-1.624341	0.749155	1.269866	1
H	-1.681221	-0.969605	0.862736	1
H	-1.599181	0.242405	-0.426174	1
H	0.223419	-1.160965	-1.210554	1
H	1.735969	-1.326505	-0.194884	1
H	1.853749	1.181394	0.069916	1
H	0.346139	1.371275	-0.947014	1
Es	0.850792	-0.748267	-0.430391	99
Es	0.429978	-0.503539	0.239695	99
Es	0.213667	-0.079603	0.697835	99
Es	0.352969	-0.120203	1.013707	99
Es	0.417285	-1.028079	-0.957037	99
Es	1.448963	-1.145455	-0.273522	99
Es	-1.539203	-0.665717	0.768208	99
Es	0.920246	0.749380	-0.270973	99
Es	-1.239491	-0.008610	0.579299	99
Es	-0.414603	-0.043694	0.610328	99
Es	1.551853	1.047878	-0.041059	99
Es	0.522350	1.171462	-0.725959	99
Es	-1.476230	0.163638	-0.120864	99
Es	-1.501914	0.511528	1.045305	99
Es	0.469863	0.410770	0.337888	99
Es	1.011755	0.014196	-0.542529	99
27
Properties=species:S:1:pos:R:3:Z:I:1 energy=-172.13138253571316 field_type=dipole dipole="0.000000 0.000000 0.000000" charge=0
C	-1.239611	-0.008605	0.579296	6
N	0.213849	-0.079675	0.698436	7
C	0.850879	-0.748455	-0.430544	6
C	0.920349	0.749585	-0.271084	6
H	-1.624341	0.749155	1.269866	1
H	-1.681221	-0.969605	0.862736	1
H	-1.599181	0.242405	-0.426174	1
H	0.223419	-1.160965	-1.210554	1
H	1.735969	-1.326505	-0.194884	1
H	1.853749	1.181394	0.069916	1
H	0.346139	1.371275	-0.947014	1
Es	-0.414512	-0.043664	0.610352	99
Es	1.551806	1.047874	-0.041130	99
Es	0.469875	0.410962	0.338249	99
Es	0.352768	-0.120222	1.013470	99
Es	0.920245	0.749379	-0.270972	99
Es	1.448933	-1.145403	-0.273508	99
Es	0.213676	-0.079602	0.697824	99
Es	-1.539169	-0.665704	0.768240	99
Es	0.850792	-0.748266	-0.430390	99
Es	0.522350	1.171457	-0.725860	99
Es	0.430069	-0.503678	0.239617	99
Es	1.011799	0.014194	-0.542769	99
Es	-1.476298	0.163618	-0.120852	99
Es	-1.501901	0.511507	1.045312	99
Es	0.417340	-1.028156	-0.956949	99
Es	-1.239492	-0.008610	0.579299	99
27
Properties=species:S:1:pos:R:3:Z:I:1 energy=-172.13138253571316 field_type=dipole dipole="0.000000 0.000000 0.000000" charge=0
C	-1.239611	-0.008605	0.579296	6
N	0.213849	-0.079675	0.698436	7
C	0.850879	-0.748455	-0.430544	6
C	0.920349	0.749585	-0.271084	6
H	-1.624341	0.749155	1.269866	1
H	-1.681221	-0.969605	0.862736	1
H	-1.599181	0.242405	-0.426174	1
H	0.223419	-1.160965	-1.210554	1
H	1.735969	-1.326505	-0.194884	1
H	1.853749	1.181394	0.069916	1
H	0.346139	1.371275	-0.947014	1
Es	1.011914	0.014212	-0.542953	99
Es	0.469910	0.411049	0.338307	99
Es	1.551736	1.047881	-0.041157	99
Es	0.430000	-0.503813	0.239699	99
Es	-1.539185	-0.665691	0.768236	99
Es	0.213667	-0.079603	0.697827	99
Es	-1.501910	0.511514	1.045298	99
Es	1.448871	-1.145400	-0.273521	99
Es	0.522380	1.171449	-0.725795	99
Es	-1.239493	-0.008611	0.579299	99
Es	-1.476293	0.163608	-0.120826	99
Es	-0.414513	-0.043661	0.610553	99
Es	0.920245	0.749376	-0.270971	99
Es	0.352776	-0.120204	1.013213	99
Es	0.850791	-0.748266	-0.430389	99
Es	0.417384	-1.028154	-0.956888	99
27
Properties=species:S:1:pos:R:3:Z:I:1 energy=-172.13138253571316 field_type=dipole dipole="0.000000 0.000000 0.000000" charge=0
C	-1.239611	-0.008605	0.579296	6
N	0.213849	-0.079675	0.698436	7
C	0.850879	-0.748455	-0.430544	6
C	0.920349	0.749585	-0.271084	6
H	-1.624341	0.749155	1.269866	1
H	-1.681221	-0.969605	0.862736	1
H	-1.599181	0.242405	-0.426174	1
H	0.223419	-1.160965	-1.210554	1
H	1.735969	-1.326505	-0.194884	1
H	1.853749	1.181394	0.069916	1
H	0.346139	1.371275	-0.947014	1
Es	0.417418	-1.028156	-0.956819	99
Es	1.012043	0.014225	-0.543149	99
Es	0.522425	1.171440	-0.725735	99
Es	-0.414479	-0.043658	0.610657	99
Es	-1.501933	0.511498	1.045288	99
Es	0.213707	-0.079607	0.697860	99
Es	0.469905	0.411142	0.338408	99
Es	-1.239493	-0.008610	0.579300	99
Es	-1.476288	0.163604	-0.120806	99
Es	-1.539192	-0.665684	0.768217	99
Es	0.920246	0.749378	-0.270972	99
Es	0.850792	-0.748265	-0.430390	99
Es	1.448786	-1.145396	-0.273537	99
Es	1.551662	1.047884	-0.041177	99
Es	0.352690	-0.120174	1.013003	99
Es	0.429990	-0.503933	0.239786	99
27
Properties=species:S:1:pos:R:3:Z:I:1 energy=-172.13138253571316 field_type=dipole dipole="0.000000 0.000000 0.000000" charge=0
C	-1.239611	-0.008605	0.579296	6
N	0.213849	-0.079675	0.698436	7
C	0.850879	-0.748455	-0.430544	6
C	0.920349	0.749585	-0.271084	6
H	-1.624341	0.749155	1.269866	1
H	-1.681221	-0.969605	0.862736	1
H	-1.599181	0.242405	-0.426174	1
H	0.223419	-1.160965	-1.210554	1
H	1.735969	-1.326505	-0.194884	1
H	1.853749	1.181394	0.069916	1
H	0.346139	1.371275	-0.947014	1
Es	-1.476302	0.163580	-0.120810	99
Es	1.012195	0.014232	-0.543410	99
Es	0.522487	1.171428	-0.725670	99
Es	-1.539208	-0.665697	0.768282	99
Es	0.920245	0.749380	-0.270972	99
Es	-0.414403	-0.043602	0.610741	99
Es	0.417467	-1.028130	-0.956722	99
Es	0.352678	-0.120140	1.012963	99
Es	0.213673	-0.079608	0.697845	99
Es	0.429936	-0.503970	0.239903	99
Es	1.551554	1.047887	-0.041169	99
Es	1.448749	-1.145408	-0.273591	99
Es	-1.501944	0.511471	1.045190	99
Es	-1.239493	-0.008610	0.579299	99
Es	0.469852	0.411138	0.338442	99
Es	0.850792	-0.748264	-0.430390	99
27
Properties=species:S:1:pos:R:3:Z:I:1 energy=-172.13138253571316 field_type=dipole dipole="0.000000 0.000000 0.000000" charge=0
C	-1.239611	-0.008605	0.579296	6
N	0.213849	-0.079675	0.698436	7
C	0.850879	-0.748455	-0.430544	6
C	0.920349	0.749585	-0.271084	6
H	-1.624341	0.749155	1.269866	1
H	-1.681221	-0.969605	0.862736	1
H	-1.599181	0.242405	-0.426174	1
H	0.223419	-1.160965	-1.210554	1
H	1.735969	-1.326505	-0.194884	1
H	1.853749	1.181394	0.069916	1
H	0.346139	1.371275	-0.947014	1
Es	0.920246	0.749377	-0.270972	99
Es	1.448667	-1.145391	-0.273585	99
Es	-1.239495	-0.008610	0.579300	99
Es	0.417490	-1.028152	-0.956698	99
Es	1.551541	1.047902	-0.041210	99
Es	0.430013	-0.504193	0.239982	99
Es	0.352549	-0.120101	1.012504	99
Es	0.522485	1.171406	-0.725606	99
Es	0.469976	0.411337	0.338600	99
Es	-0.414467	-0.043676	0.610941	99
Es	-1.501957	0.511501	1.045261	99
Es	-1.539215	-0.665677	0.768196	99
Es	-1.476281	0.163595	-0.120772	99
Es	1.012260	0.014235	-0.543484	99
Es	0.213677	-0.079608	0.697863	99
Es	0.850790	-0.748260	-0.430387	99
27
Properties=species:S:1:pos:R:3:Z:I:1 energy=-172.13138253571316 field_type=dipole dipole="0.000000 0.000000 0.000000" charge=0
C	-1.239611	-0.008605	0.579296	6
N	0.213849	-0.079675	0.698436	7
C	0.850879	-0.748455	-0.430544	6
C	0.920349	0.749585	-0.271084	6
H	-1.624341	0.749155	1.269866	1
H	-1.681221	-0.969605	0.862736	1
H	-1.599181	0.242405	-0.426174	1
H	0.223419	-1.160965	-1.210554	1
H	1.735969	-1.326505	-0.194884	1
H	1.853749	1.181394	0.069916	1
H	0.346139	1.371275	-0.947014	1
Es	0.430055	-0.504337	0.240139	99
Es	0.920245	0.749375	-0.270972	99
Es	0.470043	0.411388	0.338723	99
Es	1.012395	0.014282	-0.543680	99
Es	1.448602	-1.145383	-0.273603	99
Es	-1.476263	0.163596	-0.120771	99
Es	0.417515	-1.028164	-0.956639	99
Es	-1.239494	-0.008610	0.579300	99
Es	0.522479	1.171423	-0.725548	99
Es	1.551462	1.047905	-0.041227	99
Es	0.352471	-0.120042	1.012198	99
Es	-1.539217	-0.665646	0.768154	99
Es	-0.414501	-0.043736	0.611138	99
Es	-1.501976	0.511500	1.045290	99
Es	0.213672	-0.079602	0.697820	99
Es	0.850792	-0.748263	-0.430389	99
27
Properties=species:S:1:pos:R:3:Z:I:1 energy=-172.13138253571316 field_type=dipole dipole="0.000000 0.000000 0.000000" charge=0
C	-1.239611	-0.008605	0.579296	6
N	0.213849	-0.079675	0.698436	7
C	0.850879	-0.748455	-0.430544	6
C	0.920349	0.749585	-0.271084	6
H	-1.624341	0.749155	1.269866	1
H	-1.681221	-0.969605	0.862736	1
H	-1.599181	0.242405	-0.426174	1
H	0.223419	-1.160965	-1.210554	1
H	1.735969	-1.326505	-0.194884	1
H	1.853749	1.181394	0.069916	1
H	0.346139	1.371275	-0.947014	1
Es	0.417574	-1.028188	-0.956622	99
Es	1.012487	0.014265	-0.543826	99
Es	-0.414465	-0.043718	0.611304	99
Es	0.469987	0.411520	0.338823	99
Es	0.522550	1.171358	-0.725492	99
Es	-1.476264	0.163556	-0.120720	99
Es	0.430032	-0.504413	0.240168	99
Es	0.352400	-0.119997	1.011861	99
Es	-1.239494	-0.008610	0.579300	99
Es	-1.539206	-0.665664	0.768152	99
Es	-1.502021	0.511502	1.045259	99
Es	0.850792	-0.748263	-0.430389	99
Es	1.551440	1.047931	-0.041255	99
Es	1.448515	-1.145346	-0.273589	99
Es	0.920245	0.749374	-0.270972	99
Es	0.213709	-0.079624	0.697931	99
