34
Properties=species:S:1:pos:R:3:Z:I:1 energy=-211.199811010267 field_type=dipole dipole="0.000000 0.000000 0.000000" charge=0
C	-1.928887	-1.080875	0.250435	6
N	-0.485207	-0.981475	0.090395	7
C	-0.025667	0.380175	0.343155	6
C	1.463263	0.429165	0.188265	6
C	2.114373	1.219025	-0.674995	6
H	-2.246987	-2.110295	0.057075	1
H	-2.457677	-0.428305	-0.451905	1
H	-2.233007	-0.829155	1.271795	1
H	-0.237257	-1.233605	-0.866005	1
H	-0.274387	0.681575	1.367615	1
H	-0.511597	1.085285	-0.343015	1
H	2.036143	-0.226775	0.840475	1
H	1.588023	1.892675	-1.343815	1
H	3.198873	1.202585	-0.729475	1
Es	-2.147377	-1.782396	0.113638	99
Es	1.463191	0.429111	0.188328	99
Es	1.844369	-0.016907	0.633031	99
Es	-0.323088	-1.200746	0.315300	99
Es	-2.296297	-0.623872	-0.233530	99
Es	-0.359045	0.871946	-0.132851	99
Es	-1.121060	-1.001353	0.143367	99
Es	1.807025	1.068254	-0.029773	99
Es	2.850147	1.214361	-0.718199	99
Es	-0.025655	0.380053	0.343132	99
Es	0.724218	0.410118	0.258371	99
Es	2.114423	1.219090	-0.675060	99
Es	1.760242	1.678338	-1.131844	99
Es	-0.350966	-1.113373	-0.497587	99
Es	-2.132172	-0.901196	0.947135	99
Es	-0.194316	0.581892	1.039877	99
Es	-0.300620	-0.373879	0.182988	99
Es	1.777100	0.596375	-0.482669	99
Es	-1.928761	-1.080866	0.250419	99
Es	-0.485508	-0.981048	0.089997	99
34
Properties=species:S:1:pos:R:3:Z:I:1 energy=-211.199811010267 field_type=dipole dipole="0.000000 0.000000 0.000000" charge=0
C	-1.928887	-1.080875	0.250435	6
N	-0.485207	-0.981475	0.090395	7
C	-0.025667	0.380175	0.343155	6
C	1.463263	0.429165	0.188265	6
C	2.114373	1.219025	-0.674995	6
H	-2.246987	-2.110295	0.057075	1
H	-2.457677	-0.428305	-0.451905	1
H	-2.233007	-0.829155	1.271795	1
H	-0.237257	-1.233605	-0.866005	1
H	-0.274387	0.681575	1.367615	1
H	-0.511597	1.085285	-0.343015	1
H	2.036143	-0.226775	0.840475	1
H	1.588023	1.892675	-1.343815	1
H	3.198873	1.202585	-0.729475	1
Es	0.724154	0.410159	0.258347	99
Es	1.463193	0.429118	0.188332	99
Es	1.777122	0.596446	-0.482594	99
Es	1.844437	-0.016918	0.633030	99
Es	-1.121150	-1.001553	0.143675	99
Es	-0.194263	0.581904	1.039798	99
Es	-2.147389	-1.782321	0.113677	99
Es	2.114424	1.219091	-0.675065	99
Es	-0.323010	-1.200427	0.315030	99
Es	-2.132213	-0.901125	0.947185	99
Es	1.760247	1.678400	-1.131845	99
Es	-0.025655	0.380052	0.343128	99
Es	1.806979	1.068107	-0.029915	99
Es	-1.928764	-1.080866	0.250419	99
Es	-2.296279	-0.623976	-0.233567	99
Es	-0.485502	-0.981066	0.090005	99
Es	2.850161	1.214383	-0.718094	99
Es	-0.300546	-0.373974	0.182963	99
Es	-0.359081	0.871957	-0.132824	99
Es	-0.351018	-1.113491	-0.497613	99
34
Properties=species:S:1:pos:R:3:Z:I:1 energy=-211.199811010267 field_type=dipole dipole="0.000000 0.000000 0.000000" charge=0
C	-1.928887	-1.080875	0.250435	6
N	-0.485207	-0.981475	0.090395	7
C	-0.025667	0.380175	0.343155	6
C	1.463263	0.429165	0.188265	6
C	2.114373	1.219025	-0.674995	6
H	-2.246987	-2.110295	0.057075	1
H	-2.457677	-0.428305	-0.451905	1
H	-2.233007	-0.829155	1.271795	1
H	-0.237257	-1.233605	-0.866005	1
H	-0.274387	0.681575	1.367615	1
H	-0.511597	1.085285	-0.343015	1
H	2.036143	-0.226775	0.840475	1
H	1.588023	1.892675	-1.343815	1
H	3.198873	1.202585	-0.729475	1
Es	-0.358958	0.871950	-0.132901	99
Es	1.463192	0.429108	0.188323	99
Es	1.760247	1.678557	-1.131757	99
Es	0.724172	0.410168	0.258582	99
Es	-0.300493	-0.373942	0.183082	99
Es	1.807044	1.067937	-0.029960	99
Es	1.844495	-0.016897	0.633013	99
Es	-0.350894	-1.113560	-0.497516	99
Es	-1.928763	-1.080866	0.250419	99
Es	-0.323200	-1.200420	0.314951	99
Es	2.850110	1.214356	-0.718104	99
Es	-0.194404	0.581951	1.039691	99
Es	1.777097	0.596442	-0.482660	99
Es	-2.132238	-0.901108	0.947061	99
Es	-2.147492	-1.782384	0.113668	99
Es	-2.296208	-0.623913	-0.233523	99
Es	-0.025655	0.380054	0.343133	99
Es	-0.485507	-0.981054	0.090001	99
Es	2.114424	1.219090	-0.675065	99
Es	-1.121120	-1.001569	0.143631	99
34
Properties=species:S:1:pos:R:3:Z:I:1 energy=-211.199811010267 field_type=dipole dipole="0.000000 0.000000 0.000000" charge=0
C	-1.928887	-1.080875	0.250435	6
N	-0.485207	-0.981475	0.090395	7
C	-0.025667	0.380175	0.343155	6
C	1.463263	0.429165	0.188265	6
C	2.114373	1.219025	-0.674995	6
H	-2.246987	-2.110295	0.057075	1
H	-2.457677	-0.428305	-0.451905	1
H	-2.233007	-0.829155	1.271795	1
H	-0.237257	-1.233605	-0.866005	1
H	-0.274387	0.681575	1.367615	1
H	-0.511597	1.085285	-0.343015	1
H	2.036143	-0.226775	0.840475	1
H	1.588023	1.892675	-1.343815	1
H	3.198873	1.202585	-0.729475	1
Es	-0.350898	-1.113604	-0.497429	99
Es	0.723993	0.410171	0.258459	99
Es	1.463193	0.429119	0.188331	99
Es	-2.132209	-0.901160	0.947039	99
Es	-2.147452	-1.782360	0.113716	99
Es	-0.323164	-1.200353	0.314874	99
Es	-1.928767	-1.080866	0.250422	99
Es	1.777182	0.596528	-0.482542	99
Es	1.844550	-0.016872	0.633030	99
Es	-0.194327	0.581933	1.039776	99
Es	2.850168	1.214414	-0.718112	99
Es	-2.296298	-0.623915	-0.233528	99
Es	-0.025655	0.380054	0.343132	99
Es	-0.485496	-0.981070	0.090035	99
Es	1.806977	1.067860	-0.030036	99
Es	1.760205	1.678462	-1.131766	99
Es	-0.300450	-0.373900	0.182966	99
Es	-1.121149	-1.001606	0.143634	99
Es	2.114423	1.219091	-0.675063	99
Es	-0.358977	0.871974	-0.132869	99
34
Properties=species:S:1:pos:R:3:Z:I:1 energy=-211.199811010267 field_type=dipole dipole="0.000000 0.000000 0.000000" charge=0
C	-1.928887	-1.080875	0.250435	6
N	-0.485207	-0.981475	0.090395	7
C	-0.025667	0.380175	0.343155	6
C	1.463263	0.429165	0.188265	6
C	2.114373	1.219025	-0.674995	6
H	-2.246987	-2.110295	0.057075	1
H	-2.457677	-0.428305	-0.451905	1
H	-2.233007	-0.829155	1.271795	1
H	-0.237257	-1.233605	-0.866005	1
H	-0.274387	0.681575	1.367615	1
H	-0.511597	1.085285	-0.343015	1
H	2.036143	-0.226775	0.840475	1
H	1.588023	1.892675	-1.343815	1
H	3.198873	1.202585	-0.729475	1
Es	-0.485490	-0.981082	0.090027	99
Es	0.723945	0.410222	0.258410	99
Es	1.844582	-0.016908	0.632996	99
Es	-2.296289	-0.623970	-0.233494	99
Es	-0.323355	-1.200194	0.314976	99
Es	2.114424	1.219091	-0.675065	99
Es	1.760242	1.678440	-1.131783	99
Es	-0.350699	-1.113815	-0.497379	99
Es	1.777140	0.596574	-0.482471	99
Es	1.806997	1.067895	-0.030031	99
Es	-0.300450	-0.373960	0.182906	99
Es	-2.147484	-1.782356	0.113733	99
Es	2.850159	1.214394	-0.718115	99
Es	1.463192	0.429112	0.188326	99
Es	-1.121152	-1.001532	0.143483	99
Es	-0.358977	0.871967	-0.132792	99
Es	-1.928763	-1.080866	0.250419	99
Es	-2.132229	-0.901116	0.947033	99
Es	-0.025655	0.380054	0.343133	99
Es	-0.194288	0.581951	1.039759	99
34
Properties=species:S:1:pos:R:3:Z:I:1 energy=-211.199811010267 field_type=dipole dipole="0.000000 0.000000 0.000000" charge=0
C	-1.928887	-1.080875	0.250435	6
N	-0.485207	-0.981475	0.090395	7
C	-0.025667	0.380175	0.343155	6
C	1.463263	0.429165	0.188265	6
C	2.114373	1.219025	-0.674995	6
H	-2.246987	-2.110295	0.057075	1
H	-2.457677	-0.428305	-0.451905	1
H	-2.233007	-0.829155	1.271795	1
H	-0.237257	-1.233605	-0.866005	1
H	-0.274387	0.681575	1.367615	1
H	-0.511597	1.085285	-0.343015	1
H	2.036143	-0.226775	0.840475	1
H	1.588023	1.892675	-1.343815	1
H	3.198873	1.202585	-0.729475	1
Es	-0.323325	-1.200008	0.314820	99
Es	2.114423	1.219089	-0.675063	99
Es	1.844647	-0.016918	0.633003	99
Es	-1.928765	-1.080866	0.250419	99
Es	-0.025655	0.380054	0.343133	99
Es	-0.485515	-0.981060	0.090011	99
Es	1.777154	0.596679	-0.482352	99
Es	2.850190	1.214389	-0.718094	99
Es	-0.194279	0.581967	1.039731	99
Es	-0.350664	-1.113897	-0.497340	99
Es	-2.147504	-1.782337	0.113734	99
Es	-2.132248	-0.901125	0.947013	99
Es	-2.296294	-0.623985	-0.233470	99
Es	-1.121164	-1.001679	0.143621	99
Es	-0.358963	0.871962	-0.132758	99
Es	0.723888	0.410267	0.258388	99
Es	1.463193	0.429113	0.188327	99
Es	1.760205	1.678454	-1.131791	99
Es	1.806990	1.067770	-0.030149	99
Es	-0.300464	-0.373967	0.182887	99
34
Properties=species:S:1:pos:R:3:Z:I:1 energy=-211.199811010267 field_type=dipole dipole="0.000000 0.000000 0.000000" charge=0
C	-1.928887	-1.080875	0.250435	6
N	-0.485207	-0.981475	0.090395	7
C	-0.025667	0.380175	0.343155	6
C	1.463263	0.429165	0.188265	6
C	2.114373	1.219025	-0.674995	6
H	-2.246987	-2.110295	0.057075	1
H	-2.457677	-0.428305	-0.451905	1
H	-2.233007	-0.829155	1.271795	1
H	-0.237257	-1.233605	-0.866005	1
H	-0.274387	0.681575	1.367615	1
H	-0.511597	1.085285	-0.343015	1
H	2.036143	-0.226775	0.840475	1
H	1.588023	1.892675	-1.343815	1
H	3.198873	1.202585	-0.729475	1
Es	-0.358945	0.871962	-0.132728	99
Es	-0.485488	-0.981080	0.090018	99
Es	-0.323432	-1.200181	0.314905	99
Es	-2.147495	-1.782321	0.113670	99
Es	-2.132329	-0.901131	0.947028	99
Es	-1.121133	-1.001463	0.143463	99
Es	2.114423	1.219089	-0.675062	99
Es	-1.928765	-1.080866	0.250419	99
Es	1.806952	1.067691	-0.030260	99
Es	0.723833	0.410281	0.258378	99
Es	1.844715	-0.016949	0.632976	99
Es	-0.194268	0.581979	1.039709	99
Es	1.463191	0.429113	0.188326	99
Es	1.777072	0.596828	-0.482263	99
Es	-0.350674	-1.113843	-0.497297	99
Es	-2.296263	-0.624043	-0.233430	99
Es	1.760198	1.678453	-1.131725	99
Es	-0.025655	0.380058	0.343133	99
Es	2.850297	1.214354	-0.718099	99
Es	-0.300385	-0.374030	0.182908	99
34
Properties=species:S:1:pos:R:3:Z:I:1 energy=-211.199811010267 field_type=dipole dipole="0.000000 0.000000 0.000000" charge=0
C	-1.928887	-1.080875	0.250435	6
N	-0.485207	-0.981475	0.090395	7
C	-0.025667	0.380175	0.343155	6
C	1.463263	0.429165	0.188265	6
C	2.114373	1.219025	-0.674995	6
H	-2.246987	-2.110295	0.057075	1
H	-2.457677	-0.428305	-0.451905	1
H	-2.233007	-0.829155	1.271795	1
H	-0.237257	-1.233605	-0.866005	1
H	-0.274387	0.681575	1.367615	1
H	-0.511597	1.085285	-0.343015	1
H	2.036143	-0.226775	0.840475	1
H	1.588023	1.892675	-1.343815	1
H	3.198873	1.202585	-0.729475	1
Es	-0.323544	-1.199966	0.314642	99
Es	1.844718	-0.016948	0.632980	99
Es	-2.132296	-0.901156	0.946979	99
Es	-0.358941	0.871915	-0.132716	99
Es	-1.121113	-1.001605	0.143579	99
Es	2.114422	1.219088	-0.675063	99
Es	0.723765	0.410362	0.258335	99
Es	-2.147465	-1.782310	0.113762	99
Es	1.777149	0.596826	-0.482199	99
Es	1.463193	0.429113	0.188326	99
Es	-1.928767	-1.080866	0.250420	99
Es	2.850211	1.214342	-0.718093	99
Es	-2.296360	-0.624059	-0.233447	99
Es	1.807019	1.067637	-0.030244	99
Es	-0.485487	-0.981086	0.090034	99
Es	-0.194267	0.582027	1.039700	99
Es	-0.350636	-1.113985	-0.497267	99
Es	-0.025656	0.380059	0.343133	99
Es	-0.300295	-0.373969	0.182997	99
Es	1.760200	1.678482	-1.131787	99
