27
Properties=species:S:1:pos:R:3:Z:I:1 energy=-228.70709881124412 field_type=dipole dipole="0.000000 0.000000 0.000000" charge=0
O	-0.433758	-1.314820	-0.003447	8
C	-1.215708	-0.204660	-0.001357	6
C	-0.438868	0.929760	0.001903	6
C	0.906122	0.487200	0.001803	6
C	0.855462	-0.888070	-0.001507	6
H	-2.281748	-0.384190	-0.002537	1
H	-0.798488	1.949500	0.004083	1
H	1.801702	1.091450	0.003883	1
H	1.605282	-1.666170	-0.002827	1
Es	-1.931940	-0.323733	-0.002577	99
Es	-0.806791	0.385221	-0.318058	99
Es	-1.215614	-0.204947	-0.001360	99
Es	0.906134	0.487225	0.001805	99
Es	-0.803974	0.383873	0.320673	99
Es	-0.438858	0.929794	0.001915	99
Es	0.877479	-0.169668	-0.318287	99
Es	0.855215	-0.888240	-0.001512	99
Es	-0.433610	-1.314374	-0.003535	99
Es	-0.403764	-1.223322	0.217623	99
Es	0.875124	-0.169643	0.320485	99
Es	-0.719519	-0.896442	-0.056773	99
Es	0.252874	0.766766	0.000744	99
Es	-0.522920	-1.585771	-0.118891	99
Es	0.045011	-1.148526	-0.056177	99
Es	1.360155	-1.409708	-0.002787	99
Es	-0.675609	1.617519	0.003333	99
Es	1.505404	0.898463	0.003222	99
27
Properties=species:S:1:pos:R:3:Z:I:1 energy=-228.70709881124412 field_type=dipole dipole="0.000000 0.000000 0.000000" charge=0
O	-0.433758	-1.314820	-0.003447	8
C	-1.215708	-0.204660	-0.001357	6
C	-0.438868	0.929760	0.001903	6
C	0.906122	0.487200	0.001803	6
C	0.855462	-0.888070	-0.001507	6
H	-2.281748	-0.384190	-0.002537	1
H	-0.798488	1.949500	0.004083	1
H	1.801702	1.091450	0.003883	1
H	1.605282	-1.666170	-0.002827	1
Es	1.505413	0.898488	0.003342	99
Es	0.875392	-0.167868	-0.319981	99
Es	-0.433606	-1.314368	-0.003345	99
Es	-0.438862	0.929789	0.001902	99
Es	-0.806828	0.383688	0.318585	99
Es	-0.406826	-1.229556	-0.229529	99
Es	-0.718958	-0.896438	0.050283	99
Es	-0.675659	1.617504	0.003528	99
Es	0.855212	-0.888246	-0.001514	99
Es	0.877045	-0.171237	0.318513	99
Es	0.252853	0.766765	0.003242	99
Es	1.360258	-1.409690	-0.001895	99
Es	-0.521036	-1.580332	0.120032	99
Es	-1.932009	-0.323654	-0.001689	99
Es	-1.215612	-0.204945	-0.001357	99
Es	-0.803632	0.385383	-0.319897	99
Es	0.906133	0.487223	0.001789	99
Es	0.045518	-1.148016	0.047834	99
27
Properties=species:S:1:pos:R:3:Z:I:1 energy=-228.70709881124412 field_type=dipole dipole="0.000000 0.000000 0.000000" charge=0
O	-0.433758	-1.314820	-0.003447	8
C	-1.215708	-0.204660	-0.001357	6
C	-0.438868	0.929760	0.001903	6
C	0.906122	0.487200	0.001803	6
C	0.855462	-0.888070	-0.001507	6
H	-2.281748	-0.384190	-0.002537	1
H	-0.798488	1.949500	0.004083	1
H	1.801702	1.091450	0.003883	1
H	1.605282	-1.666170	-0.002827	1
Es	-0.720056	-0.896753	-0.056172	99
Es	0.877414	-0.169636	-0.317879	99
Es	0.906133	0.487223	0.001800	99
Es	-1.215612	-0.204943	-0.001361	99
Es	-0.675800	1.617493	0.003242	99
Es	-0.523598	-1.585450	-0.117367	99
Es	-1.932079	-0.323582	-0.002601	99
Es	-0.433600	-1.314279	-0.003612	99
Es	-0.804047	0.383713	0.320487	99
Es	0.252932	0.766892	0.000798	99
Es	0.855214	-0.888244	-0.001510	99
Es	-0.400534	-1.223368	0.220676	99
Es	0.043207	-1.148942	-0.061353	99
Es	-0.438860	0.929791	0.001917	99
Es	-0.806548	0.385045	-0.317718	99
Es	1.505474	0.898435	0.003011	99
Es	0.874805	-0.169244	0.320290	99
Es	1.360353	-1.409666	-0.002806	99
27
Properties=species:S:1:pos:R:3:Z:I:1 energy=-228.70709881124412 field_type=dipole dipole="0.000000 0.000000 0.000000" charge=0
O	-0.433758	-1.314820	-0.003447	8
C	-1.215708	-0.204660	-0.001357	6
C	-0.438868	0.929760	0.001903	6
C	0.906122	0.487200	0.001803	6
C	0.855462	-0.888070	-0.001507	6
H	-2.281748	-0.384190	-0.002537	1
H	-0.798488	1.949500	0.004083	1
H	1.801702	1.091450	0.003883	1
H	1.605282	-1.666170	-0.002827	1
Es	0.876758	-0.171033	0.318202	99
Es	0.855216	-0.888239	-0.001506	99
Es	1.505456	0.898478	0.003205	99
Es	-0.402337	-1.220852	-0.227684	99
Es	-0.803944	0.385283	-0.319522	99
Es	-0.438863	0.929787	0.001904	99
Es	-0.523255	-1.586453	0.107980	99
Es	-1.215612	-0.204945	-0.001357	99
Es	-0.675830	1.617436	0.003443	99
Es	-0.719350	-0.897790	0.054070	99
Es	0.252912	0.766908	0.003188	99
Es	0.906133	0.487224	0.001799	99
Es	0.043713	-1.149437	0.054483	99
Es	-1.932143	-0.323499	-0.001827	99
Es	-0.433571	-1.314343	-0.003316	99
Es	0.875448	-0.167981	-0.319701	99
Es	-0.806383	0.383611	0.318408	99
Es	1.360449	-1.409666	-0.001926	99
27
Properties=species:S:1:pos:R:3:Z:I:1 energy=-228.70709881124412 field_type=dipole dipole="0.000000 0.000000 0.000000" charge=0
O	-0.433758	-1.314820	-0.003447	8
C	-1.215708	-0.204660	-0.001357	6
C	-0.438868	0.929760	0.001903	6
C	0.906122	0.487200	0.001803	6
C	0.855462	-0.888070	-0.001507	6
H	-2.281748	-0.384190	-0.002537	1
H	-0.798488	1.949500	0.004083	1
H	1.801702	1.091450	0.003883	1
H	1.605282	-1.666170	-0.002827	1
Es	-0.719060	-0.898251	-0.062014	99
Es	1.360498	-1.409617	-0.002761	99
Es	-0.675797	1.617522	0.003296	99
Es	1.505505	0.898399	0.002973	99
Es	-0.402036	-1.216575	0.217869	99
Es	-1.932167	-0.323478	-0.002514	99
Es	-0.438861	0.929791	0.001901	99
Es	0.855215	-0.888241	-0.001508	99
Es	-0.433588	-1.314308	-0.003631	99
Es	-0.804022	0.383858	0.320126	99
Es	-0.806098	0.385124	-0.317626	99
Es	0.906134	0.487224	0.001801	99
Es	0.044001	-1.150030	-0.060848	99
Es	0.874840	-0.169399	0.320082	99
Es	0.252894	0.766910	0.001149	99
Es	-0.524388	-1.589650	-0.109348	99
Es	0.877339	-0.169850	-0.317747	99
Es	-1.215612	-0.204942	-0.001359	99
27
Properties=species:S:1:pos:R:3:Z:I:1 energy=-228.70709881124412 field_type=dipole dipole="0.000000 0.000000 0.000000" charge=0
O	-0.433758	-1.314820	-0.003447	8
C	-1.215708	-0.204660	-0.001357	6
C	-0.438868	0.929760	0.001903	6
C	0.906122	0.487200	0.001803	6
C	0.855462	-0.888070	-0.001507	6
H	-2.281748	-0.384190	-0.002537	1
H	-0.798488	1.949500	0.004083	1
H	1.801702	1.091450	0.003883	1
H	1.605282	-1.666170	-0.002827	1
Es	-0.719963	-0.896522	-0.055494	99
Es	-0.401790	-1.225877	0.221545	99
Es	-0.803880	0.383773	0.320128	99
Es	-0.433604	-1.314410	-0.003449	99
Es	-0.438862	0.929787	0.001902	99
Es	0.877306	-0.169589	-0.317365	99
Es	-1.932253	-0.323428	-0.002577	99
Es	0.252850	0.766806	0.000597	99
Es	-1.215612	-0.204945	-0.001359	99
Es	0.906132	0.487223	0.001811	99
Es	-0.523158	-1.583384	-0.120014	99
Es	-0.806313	0.385093	-0.317338	99
Es	0.855222	-0.888232	-0.001506	99
Es	0.874578	-0.169160	0.319945	99
Es	0.043768	-1.148986	-0.060374	99
Es	-0.675764	1.617534	0.003184	99
Es	1.505548	0.898432	0.003021	99
Es	1.360591	-1.409626	-0.002814	99
27
Properties=species:S:1:pos:R:3:Z:I:1 energy=-228.70709881124412 field_type=dipole dipole="0.000000 0.000000 0.000000" charge=0
O	-0.433758	-1.314820	-0.003447	8
C	-1.215708	-0.204660	-0.001357	6
C	-0.438868	0.929760	0.001903	6
C	0.906122	0.487200	0.001803	6
C	0.855462	-0.888070	-0.001507	6
H	-2.281748	-0.384190	-0.002537	1
H	-0.798488	1.949500	0.004083	1
H	1.801702	1.091450	0.003883	1
H	1.605282	-1.666170	-0.002827	1
Es	-0.806799	0.383548	0.317897	99
Es	0.906133	0.487219	0.001807	99
Es	-1.932289	-0.323347	-0.001757	99
Es	1.360673	-1.409605	-0.002008	99
Es	0.875129	-0.167855	-0.319484	99
Es	-0.719619	-0.898779	0.057435	99
Es	-0.525397	-1.592515	0.095930	99
Es	-1.215612	-0.204943	-0.001356	99
Es	-0.675859	1.617491	0.003505	99
Es	0.855217	-0.888238	-0.001505	99
Es	0.876757	-0.171222	0.317876	99
Es	0.252954	0.766999	0.003304	99
Es	1.505565	0.898354	0.003339	99
Es	-0.400623	-1.212586	-0.220496	99
Es	-0.438864	0.929786	0.001897	99
Es	-0.433544	-1.314163	-0.003298	99
Es	0.044191	-1.150953	0.056147	99
Es	-0.803215	0.385296	-0.319389	99
27
Properties=species:S:1:pos:R:3:Z:I:1 energy=-228.70709881124412 field_type=dipole dipole="0.000000 0.000000 0.000000" charge=0
O	-0.433758	-1.314820	-0.003447	8
C	-1.215708	-0.204660	-0.001357	6
C	-0.438868	0.929760	0.001903	6
C	0.906122	0.487200	0.001803	6
C	0.855462	-0.888070	-0.001507	6
H	-2.281748	-0.384190	-0.002537	1
H	-0.798488	1.949500	0.004083	1
H	1.801702	1.091450	0.003883	1
H	1.605282	-1.666170	-0.002827	1
Es	0.045007	-1.151019	-0.059597	99
Es	-0.524978	-1.588948	-0.109613	99
Es	-0.433615	-1.314380	-0.003503	99
Es	0.874385	-0.169255	0.319859	99
Es	0.855216	-0.888237	-0.001509	99
Es	1.505609	0.898307	0.002990	99
Es	0.252943	0.767074	0.000584	99
Es	-0.403423	-1.216762	0.217615	99
Es	0.877319	-0.169857	-0.317239	99
Es	-0.438863	0.929787	0.001902	99
Es	-0.718139	-0.898017	-0.062877	99
Es	-1.932355	-0.323286	-0.002562	99
Es	-0.806240	0.385118	-0.317067	99
Es	-0.675919	1.617504	0.003259	99
Es	-0.803433	0.383769	0.319960	99
Es	1.360759	-1.409589	-0.002806	99
Es	0.906133	0.487222	0.001803	99
Es	-1.215612	-0.204943	-0.001358	99
27
Properties=species:S:1:pos:R:3:Z:I:1 energy=-228.70709881124412 field_type=dipole dipole="0.000000 0.000000 0.000000" charge=0
O	-0.433758	-1.314820	-0.003447	8
C	-1.215708	-0.204660	-0.001357	6
C	-0.438868	0.929760	0.001903	6
C	0.906122	0.487200	0.001803	6
C	0.855462	-0.888070	-0.001507	6
H	-2.281748	-0.384190	-0.002537	1
H	-0.798488	1.949500	0.004083	1
H	1.801702	1.091450	0.003883	1
H	1.605282	-1.666170	-0.002827	1
Es	-0.399648	-1.216017	0.217691	99
Es	-1.215611	-0.204942	-0.001358	99
Es	-0.438865	0.929781	0.001906	99
Es	0.043212	-1.150517	-0.064036	99
Es	0.877202	-0.169728	-0.317011	99
Es	1.505628	0.898293	0.003025	99
Es	-0.524941	-1.590029	-0.106754	99
Es	0.874328	-0.169152	0.319753	99
Es	-0.803631	0.383725	0.319978	99
Es	-1.932434	-0.323221	-0.002579	99
Es	-0.675933	1.617463	0.003113	99
Es	0.855217	-0.888235	-0.001506	99
Es	-0.433611	-1.314302	-0.003583	99
Es	0.252953	0.767117	0.000466	99
Es	-0.806097	0.384988	-0.316903	99
Es	1.360880	-1.409529	-0.002857	99
Es	0.906133	0.487222	0.001801	99
Es	-0.719985	-0.898429	-0.061303	99
27
Properties=species:S:1:pos:R:3:Z:I:1 energy=-228.70709881124412 field_type=dipole dipole="0.000000 0.000000 0.000000" charge=0
O	-0.433758	-1.314820	-0.003447	8
C	-1.215708	-0.204660	-0.001357	6
C	-0.438868	0.929760	0.001903	6
C	0.906122	0.487200	0.001803	6
C	0.855462	-0.888070	-0.001507	6
H	-2.281748	-0.384190	-0.002537	1
H	-0.798488	1.949500	0.004083	1
H	1.801702	1.091450	0.003883	1
H	1.605282	-1.666170	-0.002827	1
Es	-0.399739	-1.211856	-0.223310	99
Es	-1.215611	-0.204942	-0.001358	99
Es	1.360902	-1.409556	-0.001977	99
Es	1.505680	0.898268	0.003375	99
Es	0.874671	-0.167614	-0.319251	99
Es	0.252979	0.767131	0.003532	99
Es	-0.675993	1.617491	0.003529	99
Es	-0.719657	-0.899559	0.058967	99
Es	0.855214	-0.888239	-0.001504	99
Es	0.043240	-1.151302	0.058832	99
Es	0.876790	-0.171292	0.317373	99
Es	0.906133	0.487222	0.001804	99
Es	-0.525235	-1.592134	0.094724	99
Es	-1.932461	-0.323166	-0.001755	99
Es	-0.802937	0.385201	-0.319100	99
Es	-0.806675	0.383491	0.317500	99
Es	-0.433643	-1.314438	-0.003432	99
Es	-0.438864	0.929782	0.001893	99
27
Properties=species:S:1:pos:R:3:Z:I:1 energy=-228.70709881124412 field_type=dipole dipole="0.000000 0.000000 0.000000" charge=0
O	-0.433758	-1.314820	-0.003447	8
C	-1.215708	-0.204660	-0.001357	6
C	-0.438868	0.929760	0.001903	6
C	0.906122	0.487200	0.001803	6
C	0.855462	-0.888070	-0.001507	6
H	-2.281748	-0.384190	-0.002537	1
H	-0.798488	1.949500	0.004083	1
H	1.801702	1.091450	0.003883	1
H	1.605282	-1.666170	-0.002827	1
Es	0.042943	-1.151506	0.059765	99
Es	1.505677	0.898261	0.003406	99
Es	-0.438864	0.929783	0.001903	99
Es	0.252965	0.767135	0.003450	99
Es	-0.399446	-1.211680	-0.223922	99
Es	1.360978	-1.409534	-0.001995	99
Es	-0.433522	-1.314107	-0.003162	99
Es	0.876764	-0.171293	0.317250	99
Es	-0.806620	0.383442	0.317394	99
Es	-1.215612	-0.204943	-0.001354	99
Es	-0.525319	-1.592262	0.093699	99
Es	-1.932502	-0.323117	-0.001759	99
Es	-0.676000	1.617503	0.003554	99
Es	0.874620	-0.167541	-0.319160	99
Es	0.906132	0.487222	0.001802	99
Es	-0.719703	-0.899842	0.059467	99
Es	0.855219	-0.888233	-0.001496	99
Es	-0.802914	0.385197	-0.319000	99
27
Properties=species:S:1:pos:R:3:Z:I:1 energy=-228.70709881124412 field_type=dipole dipole="0.000000 0.000000 0.000000" charge=0
O	-0.433758	-1.314820	-0.003447	8
C	-1.215708	-0.204660	-0.001357	6
C	-0.438868	0.929760	0.001903	6
C	0.906122	0.487200	0.001803	6
C	0.855462	-0.888070	-0.001507	6
H	-2.281748	-0.384190	-0.002537	1
H	-0.798488	1.949500	0.004083	1
H	1.801702	1.091450	0.003883	1
H	1.605282	-1.666170	-0.002827	1
Es	1.505718	0.898234	0.003355	99
Es	-0.806609	0.383446	0.317269	99
Es	0.043035	-1.152100	0.060854	99
Es	-0.720342	-0.900051	0.059782	99
Es	-0.397822	-1.208078	-0.219323	99
Es	0.906132	0.487221	0.001803	99
Es	1.361047	-1.409514	-0.002024	99
Es	-0.526326	-1.595019	0.087956	99
Es	-0.802933	0.385102	-0.318941	99
Es	-0.438863	0.929784	0.001904	99
Es	0.874621	-0.167668	-0.319054	99
Es	0.876678	-0.171159	0.317148	99
Es	-0.676052	1.617497	0.003525	99
Es	0.252995	0.767184	0.003607	99
Es	-0.433535	-1.314149	-0.003376	99
Es	-1.932549	-0.323061	-0.001778	99
Es	0.855216	-0.888238	-0.001508	99
Es	-1.215611	-0.204942	-0.001357	99
27
Properties=species:S:1:pos:R:3:Z:I:1 energy=-228.70709881124412 field_type=dipole dipole="0.000000 0.000000 0.000000" charge=0
O	-0.433758	-1.314820	-0.003447	8
C	-1.215708	-0.204660	-0.001357	6
C	-0.438868	0.929760	0.001903	6
C	0.906122	0.487200	0.001803	6
C	0.855462	-0.888070	-0.001507	6
H	-2.281748	-0.384190	-0.002537	1
H	-0.798488	1.949500	0.004083	1
H	1.801702	1.091450	0.003883	1
H	1.605282	-1.666170	-0.002827	1
Es	1.505746	0.898209	0.003057	99
Es	-0.438863	0.929786	0.001905	99
Es	-1.215612	-0.204942	-0.001358	99
Es	-0.676083	1.617506	0.003167	99
Es	0.876885	-0.169602	-0.316697	99
Es	-1.932594	-0.323001	-0.002516	99
Es	-0.433614	-1.314388	-0.003508	99
Es	-0.398245	-1.209624	0.216275	99
Es	0.906130	0.487213	0.001804	99
Es	-0.525922	-1.593525	-0.097567	99
Es	0.042552	-1.151883	-0.067374	99
Es	0.855217	-0.888236	-0.001513	99
Es	1.361124	-1.409496	-0.002735	99
Es	-0.719787	-0.900093	-0.066112	99
Es	0.874240	-0.169175	0.319320	99
Es	-0.803232	0.383644	0.319486	99
Es	0.253018	0.767213	0.000692	99
Es	-0.806165	0.384882	-0.316483	99
27
Properties=species:S:1:pos:R:3:Z:I:1 energy=-228.70709881124412 field_type=dipole dipole="0.000000 0.000000 0.000000" charge=0
O	-0.433758	-1.314820	-0.003447	8
C	-1.215708	-0.204660	-0.001357	6
C	-0.438868	0.929760	0.001903	6
C	0.906122	0.487200	0.001803	6
C	0.855462	-0.888070	-0.001507	6
H	-2.281748	-0.384190	-0.002537	1
H	-0.798488	1.949500	0.004083	1
H	1.801702	1.091450	0.003883	1
H	1.605282	-1.666170	-0.002827	1
Es	-1.932640	-0.322948	-0.002511	99
Es	-0.720248	-0.900111	-0.065251	99
Es	0.873976	-0.168982	0.319285	99
Es	-0.806045	0.384857	-0.316387	99
Es	0.855216	-0.888238	-0.001508	99
Es	-0.525726	-1.592918	-0.098019	99
Es	0.253023	0.767252	0.000477	99
Es	0.906132	0.487220	0.001802	99
Es	-1.215611	-0.204942	-0.001359	99
Es	-0.438864	0.929784	0.001902	99
Es	-0.803292	0.383570	0.319397	99
Es	-0.397221	-1.210695	0.217662	99
Es	-0.676129	1.617495	0.003207	99
Es	0.876992	-0.169633	-0.316448	99
Es	1.361196	-1.409479	-0.002745	99
Es	1.505774	0.898194	0.003031	99
Es	-0.433559	-1.314237	-0.003797	99
Es	0.041822	-1.151701	-0.068894	99
27
Properties=species:S:1:pos:R:3:Z:I:1 energy=-228.70709881124412 field_type=dipole dipole="0.000000 0.000000 0.000000" charge=0
O	-0.433758	-1.314820	-0.003447	8
C	-1.215708	-0.204660	-0.001357	6
C	-0.438868	0.929760	0.001903	6
C	0.906122	0.487200	0.001803	6
C	0.855462	-0.888070	-0.001507	6
H	-2.281748	-0.384190	-0.002537	1
H	-0.798488	1.949500	0.004083	1
H	1.801702	1.091450	0.003883	1
H	1.605282	-1.666170	-0.002827	1
Es	-0.733819	-0.890042	0.004370	99
Es	0.253038	0.767300	0.002194	99
Es	1.361260	-1.409624	-0.002351	99
Es	-0.804991	0.383513	0.318142	99
Es	0.855217	-0.888238	-0.001507	99
Es	0.875577	-0.168462	-0.317860	99
Es	-0.534367	-1.619744	0.016681	99
Es	0.875436	-0.170237	0.318022	99
Es	-0.438864	0.929784	0.001903	99
Es	-0.676162	1.617487	0.003395	99
Es	-0.804163	0.385052	-0.317726	99
Es	0.906132	0.487219	0.001803	99
Es	-1.215612	-0.204942	-0.001357	99
Es	-0.408610	-1.238881	-0.021293	99
Es	1.505802	0.898178	0.003227	99
Es	0.060224	-1.152050	0.004577	99
Es	-1.932779	-0.323022	-0.002108	99
Es	-0.418523	-1.268805	-0.020269	99
27
Properties=species:S:1:pos:R:3:Z:I:1 energy=-228.70709881124412 field_type=dipole dipole="0.000000 0.000000 0.000000" charge=0
O	-0.433758	-1.314820	-0.003447	8
C	-1.215708	-0.204660	-0.001357	6
C	-0.438868	0.929760	0.001903	6
C	0.906122	0.487200	0.001803	6
C	0.855462	-0.888070	-0.001507	6
H	-2.281748	-0.384190	-0.002537	1
H	-0.798488	1.949500	0.004083	1
H	1.801702	1.091450	0.003883	1
H	1.605282	-1.666170	-0.002827	1
Es	-0.525797	-1.593377	-0.097290	99
Es	-0.805982	0.384869	-0.316095	99
Es	-0.433632	-1.314439	-0.003440	99
Es	-0.719787	-0.900363	-0.066545	99
Es	0.855219	-0.888230	-0.001514	99
Es	-0.803039	0.383536	0.319220	99
Es	0.253066	0.767322	0.000404	99
Es	1.505840	0.898150	0.003005	99
Es	0.873866	-0.169022	0.319096	99
Es	0.042284	-1.151955	-0.067919	99
Es	-1.215611	-0.204943	-0.001366	99
Es	-0.438865	0.929784	0.001900	99
Es	-0.676222	1.617490	0.003188	99
Es	-0.398259	-1.209660	0.216876	99
Es	-1.932701	-0.322826	-0.002515	99
Es	0.906133	0.487218	0.001808	99
Es	0.876954	-0.169648	-0.316248	99
Es	1.361328	-1.409419	-0.002722	99
27
Properties=species:S:1:pos:R:3:Z:I:1 energy=-228.70709881124412 field_type=dipole dipole="0.000000 0.000000 0.000000" charge=0
O	-0.433758	-1.314820	-0.003447	8
C	-1.215708	-0.204660	-0.001357	6
C	-0.438868	0.929760	0.001903	6
C	0.906122	0.487200	0.001803	6
C	0.855462	-0.888070	-0.001507	6
H	-2.281748	-0.384190	-0.002537	1
H	-0.798488	1.949500	0.004083	1
H	1.801702	1.091450	0.003883	1
H	1.605282	-1.666170	-0.002827	1
Es	0.253088	0.767399	0.000607	99
Es	0.876841	-0.169765	-0.316172	99
Es	-1.932750	-0.322770	-0.002502	99
Es	0.042141	-1.152314	-0.068621	99
Es	-0.802903	0.383649	0.319113	99
Es	0.855216	-0.888236	-0.001508	99
Es	0.873813	-0.168939	0.318997	99
Es	-0.719488	-0.901010	-0.068361	99
Es	-0.676239	1.617488	0.003154	99
Es	-0.438864	0.929783	0.001902	99
Es	-0.398599	-1.208872	0.218493	99
Es	-0.433622	-1.314407	-0.003472	99
Es	-0.805977	0.384766	-0.316039	99
Es	-1.215612	-0.204942	-0.001358	99
Es	1.361414	-1.409425	-0.002730	99
Es	1.505857	0.898090	0.002970	99
Es	-0.525649	-1.593227	-0.096431	99
Es	0.906132	0.487219	0.001802	99
27
Properties=species:S:1:pos:R:3:Z:I:1 energy=-228.70709881124412 field_type=dipole dipole="0.000000 0.000000 0.000000" charge=0
O	-0.433758	-1.314820	-0.003447	8
C	-1.215708	-0.204660	-0.001357	6
C	-0.438868	0.929760	0.001903	6
C	0.906122	0.487200	0.001803	6
C	0.855462	-0.888070	-0.001507	6
H	-2.281748	-0.384190	-0.002537	1
H	-0.798488	1.949500	0.004083	1
H	1.801702	1.091450	0.003883	1
H	1.605282	-1.666170	-0.002827	1
Es	1.361507	-1.409391	-0.002687	99
Es	0.906132	0.487219	0.001794	99
Es	0.876875	-0.169547	-0.315992	99
Es	1.505851	0.898147	0.003139	99
Es	-0.438864	0.929783	0.001905	99
Es	-1.215612	-0.204943	-0.001358	99
Es	-0.721160	-0.900599	-0.065681	99
Es	-0.803206	0.383378	0.319036	99
Es	-0.806042	0.384651	-0.316014	99
Es	-0.527303	-1.595713	-0.090024	99
Es	-0.393019	-1.206196	0.214738	99
Es	-1.932799	-0.322735	-0.002480	99
Es	-0.433629	-1.314391	-0.003528	99
Es	0.040402	-1.153015	-0.073952	99
Es	-0.676286	1.617514	0.003183	99
Es	0.855217	-0.888238	-0.001511	99
Es	0.873670	-0.168778	0.318839	99
Es	0.253063	0.767341	0.000434	99
27
Properties=species:S:1:pos:R:3:Z:I:1 energy=-228.70709881124412 field_type=dipole dipole="0.000000 0.000000 0.000000" charge=0
O	-0.433758	-1.314820	-0.003447	8
C	-1.215708	-0.204660	-0.001357	6
C	-0.438868	0.929760	0.001903	6
C	0.906122	0.487200	0.001803	6
C	0.855462	-0.888070	-0.001507	6
H	-2.281748	-0.384190	-0.002537	1
H	-0.798488	1.949500	0.004083	1
H	1.801702	1.091450	0.003883	1
H	1.605282	-1.666170	-0.002827	1
Es	-1.932868	-0.322672	-0.002483	99
Es	0.873699	-0.168945	0.318829	99
Es	-1.215611	-0.204941	-0.001358	99
Es	-0.397857	-1.206702	0.214436	99
Es	0.042606	-1.152756	-0.068723	99
Es	1.361527	-1.409403	-0.002725	99
Es	0.253076	0.767421	0.000390	99
Es	0.876772	-0.169664	-0.315918	99
Es	-0.433618	-1.314398	-0.003420	99
Es	-0.676309	1.617493	0.003175	99
Es	0.855217	-0.888237	-0.001508	99
Es	1.505922	0.898074	0.003011	99
Es	-0.805826	0.384792	-0.315784	99
Es	-0.438864	0.929782	0.001902	99
Es	0.906132	0.487218	0.001802	99
Es	-0.802851	0.383508	0.318930	99
Es	-0.720120	-0.901058	-0.068499	99
Es	-0.526228	-1.595025	-0.092213	99
27
Properties=species:S:1:pos:R:3:Z:I:1 energy=-228.70709881124412 field_type=dipole dipole="0.000000 0.000000 0.000000" charge=0
O	-0.433758	-1.314820	-0.003447	8
C	-1.215708	-0.204660	-0.001357	6
C	-0.438868	0.929760	0.001903	6
C	0.906122	0.487200	0.001803	6
C	0.855462	-0.888070	-0.001507	6
H	-2.281748	-0.384190	-0.002537	1
H	-0.798488	1.949500	0.004083	1
H	1.801702	1.091450	0.003883	1
H	1.605282	-1.666170	-0.002827	1
Es	-0.676352	1.617494	0.003570	99
Es	0.855217	-0.888237	-0.001507	99
Es	-0.806263	0.383240	0.316330	99
Es	-0.802331	0.385011	-0.318177	99
Es	-0.438864	0.929782	0.001904	99
Es	-1.215611	-0.204941	-0.001357	99
Es	0.874070	-0.167386	-0.318290	99
Es	-0.433618	-1.314386	-0.003510	99
Es	0.041903	-1.153248	0.064605	99
Es	-1.932899	-0.322627	-0.001811	99
Es	-0.720031	-0.901737	0.063885	99
Es	-0.526297	-1.595088	0.083769	99
Es	1.361593	-1.409376	-0.002053	99
Es	1.505951	0.898056	0.003419	99
Es	0.253083	0.767451	0.003654	99
Es	0.906131	0.487217	0.001804	99
Es	-0.397170	-1.205577	-0.222627	99
Es	0.876284	-0.171163	0.316234	99
27
Properties=species:S:1:pos:R:3:Z:I:1 energy=-228.70709881124412 field_type=dipole dipole="0.000000 0.000000 0.000000" charge=0
O	-0.433758	-1.314820	-0.003447	8
C	-1.215708	-0.204660	-0.001357	6
C	-0.438868	0.929760	0.001903	6
C	0.906122	0.487200	0.001803	6
C	0.855462	-0.888070	-0.001507	6
H	-2.281748	-0.384190	-0.002537	1
H	-0.798488	1.949500	0.004083	1
H	1.801702	1.091450	0.003883	1
H	1.605282	-1.666170	-0.002827	1
Es	-0.396887	-1.203700	-0.223791	99
Es	-0.438864	0.929781	0.001904	99
Es	-0.719709	-0.902579	0.065904	99
Es	0.874228	-0.167513	-0.318129	99
Es	0.906131	0.487217	0.001804	99
Es	-0.802387	0.384984	-0.318014	99
Es	0.041390	-1.153742	0.066056	99
Es	-0.806097	0.383214	0.316286	99
Es	-1.215611	-0.204941	-0.001357	99
Es	-0.433603	-1.314327	-0.003310	99
Es	-0.526465	-1.595727	0.081345	99
Es	1.505981	0.898035	0.003368	99
Es	0.253099	0.767478	0.003467	99
Es	-0.676390	1.617496	0.003568	99
Es	0.876042	-0.171039	0.316198	99
Es	0.855217	-0.888237	-0.001508	99
Es	-1.932937	-0.322565	-0.001845	99
Es	1.361658	-1.409348	-0.002103	99
27
Properties=species:S:1:pos:R:3:Z:I:1 energy=-228.70709881124412 field_type=dipole dipole="0.000000 0.000000 0.000000" charge=0
O	-0.433758	-1.314820	-0.003447	8
C	-1.215708	-0.204660	-0.001357	6
C	-0.438868	0.929760	0.001903	6
C	0.906122	0.487200	0.001803	6
C	0.855462	-0.888070	-0.001507	6
H	-2.281748	-0.384190	-0.002537	1
H	-0.798488	1.949500	0.004083	1
H	1.801702	1.091450	0.003883	1
H	1.605282	-1.666170	-0.002827	1
Es	-0.438865	0.929781	0.001902	99
Es	0.906131	0.487217	0.001802	99
Es	0.042459	-1.152797	-0.068673	99
Es	-0.399089	-1.208523	0.218165	99
Es	-0.525472	-1.593043	-0.094927	99
Es	-0.676430	1.617496	0.003158	99
Es	0.873486	-0.168872	0.318531	99
Es	-0.802592	0.383473	0.318633	99
Es	-0.805637	0.384750	-0.315440	99
Es	0.855216	-0.888236	-0.001508	99
Es	0.876614	-0.169644	-0.315593	99
Es	-0.719640	-0.901410	-0.069554	99
Es	-0.433627	-1.314424	-0.003421	99
Es	1.361714	-1.409352	-0.002728	99
Es	1.506019	0.898016	0.002995	99
Es	-1.215611	-0.204941	-0.001358	99
Es	0.253104	0.767520	0.000335	99
Es	-1.932984	-0.322523	-0.002476	99
27
Properties=species:S:1:pos:R:3:Z:I:1 energy=-228.70709881124412 field_type=dipole dipole="0.000000 0.000000 0.000000" charge=0
O	-0.433758	-1.314820	-0.003447	8
C	-1.215708	-0.204660	-0.001357	6
C	-0.438868	0.929760	0.001903	6
C	0.906122	0.487200	0.001803	6
C	0.855462	-0.888070	-0.001507	6
H	-2.281748	-0.384190	-0.002537	1
H	-0.798488	1.949500	0.004083	1
H	1.801702	1.091450	0.003883	1
H	1.605282	-1.666170	-0.002827	1
Es	0.873470	-0.168870	0.318465	99
Es	-0.526568	-1.595908	-0.088394	99
Es	1.506029	0.898000	0.002989	99
Es	-0.676459	1.617496	0.003164	99
Es	-0.438865	0.929781	0.001902	99
Es	0.906131	0.487216	0.001802	99
Es	-0.805704	0.384696	-0.315350	99
Es	-1.215611	-0.204941	-0.001358	99
Es	1.361777	-1.409328	-0.002695	99
Es	-0.720303	-0.901841	-0.070086	99
Es	0.876613	-0.169642	-0.315484	99
Es	0.042026	-1.153440	-0.070930	99
Es	-0.396817	-1.204640	0.214150	99
Es	0.253111	0.767539	0.000353	99
Es	-0.802637	0.383411	0.318563	99
Es	0.855217	-0.888236	-0.001508	99
Es	-1.933019	-0.322466	-0.002459	99
Es	-0.433593	-1.314340	-0.003281	99
27
Properties=species:S:1:pos:R:3:Z:I:1 energy=-228.70709881124412 field_type=dipole dipole="0.000000 0.000000 0.000000" charge=0
O	-0.433758	-1.314820	-0.003447	8
C	-1.215708	-0.204660	-0.001357	6
C	-0.438868	0.929760	0.001903	6
C	0.906122	0.487200	0.001803	6
C	0.855462	-0.888070	-0.001507	6
H	-2.281748	-0.384190	-0.002537	1
H	-0.798488	1.949500	0.004083	1
H	1.801702	1.091450	0.003883	1
H	1.605282	-1.666170	-0.002827	1
Es	0.873072	-0.168484	0.318421	99
Es	-0.433609	-1.314372	-0.003529	99
Es	-1.215611	-0.204940	-0.001358	99
Es	0.906133	0.487212	0.001794	99
Es	-0.802989	0.383354	0.318399	99
Es	-0.395983	-1.205528	0.218485	99
Es	1.361844	-1.409292	-0.002710	99
Es	-0.805393	0.384640	-0.315423	99
Es	0.876763	-0.169747	-0.315277	99
Es	-0.438870	0.929779	0.001902	99
Es	0.040891	-1.153599	-0.073205	99
Es	-0.720073	-0.902194	-0.070478	99
Es	-0.676445	1.617493	0.003233	99
Es	0.253152	0.767569	0.000499	99
Es	-1.933035	-0.322441	-0.002407	99
Es	-0.526357	-1.594662	-0.089869	99
Es	1.506091	0.897937	0.002877	99
Es	0.855216	-0.888235	-0.001510	99
