37
Properties=species:S:1:pos:R:3:Z:I:1 energy=-268.8960110983073 field_type=dipole dipole="0.000000 0.000000 0.000000" charge=0
C	1.013805	1.181994	-0.618117	6
C	-0.149135	0.861114	0.283733	6
C	-1.177185	-0.132516	-0.147527	6
C	-0.509885	-1.485146	0.103803	6
O	0.909645	-1.253156	0.045793	8
C	1.145015	0.122344	0.430253	6
H	0.979565	0.868484	-1.654837	1
H	1.537215	2.116964	-0.457127	1
H	-0.454285	1.545104	1.059933	1
H	-2.117025	-0.042636	0.405803	1
H	-1.398175	-0.006536	-1.213747	1
H	-0.747595	-1.861466	1.104403	1
H	-0.797415	-2.234726	-0.638437	1
H	1.765455	0.320174	1.296073	1
Es	-0.863357	-0.813199	-0.027035	99
Es	0.439574	0.439097	0.510161	99
Es	-0.148984	0.861090	0.283650	99
Es	0.986322	-1.270378	-0.251381	99
Es	1.574707	0.248411	1.013887	99
Es	1.037409	-1.426096	0.259923	99
Es	0.981402	-0.723015	0.193604	99
Es	-0.509678	-1.485083	0.103787	99
Es	0.981548	0.968512	-1.315141	99
Es	-0.705751	-1.999381	-0.404015	99
Es	-0.351448	1.337825	0.804759	99
Es	0.370688	-1.313723	0.076145	99
Es	0.311114	1.154001	-0.263475	99
Es	1.013719	1.181922	-0.617976	99
Es	1.144914	0.122236	0.430069	99
Es	-0.683529	-1.741620	0.795781	99
Es	-1.177159	-0.132521	-0.147511	99
Es	-1.327834	-0.050523	-0.876969	99
Es	-0.670701	0.385577	0.053270	99
Es	1.270777	0.615910	-0.159699	99
Es	1.366141	1.814095	-0.500085	99
Es	0.909418	-1.252913	0.045888	99
Es	-1.814471	-0.070441	0.234209	99
37
Properties=species:S:1:pos:R:3:Z:I:1 energy=-268.8960110983073 field_type=dipole dipole="0.000000 0.000000 0.000000" charge=0
C	1.013805	1.181994	-0.618117	6
C	-0.149135	0.861114	0.283733	6
C	-1.177185	-0.132516	-0.147527	6
C	-0.509885	-1.485146	0.103803	6
O	0.909645	-1.253156	0.045793	8
C	1.145015	0.122344	0.430253	6
H	0.979565	0.868484	-1.654837	1
H	1.537215	2.116964	-0.457127	1
H	-0.454285	1.545104	1.059933	1
H	-2.117025	-0.042636	0.405803	1
H	-1.398175	-0.006536	-1.213747	1
H	-0.747595	-1.861466	1.104403	1
H	-0.797415	-2.234726	-0.638437	1
H	1.765455	0.320174	1.296073	1
Es	1.574553	0.248390	1.013870	99
Es	0.310983	1.154104	-0.263253	99
Es	-0.148988	0.861088	0.283655	99
Es	-0.351370	1.337778	0.804665	99
Es	0.909442	-1.252963	0.045868	99
Es	1.271367	0.615902	-0.159780	99
Es	1.013724	1.181920	-0.617977	99
Es	1.039607	-1.427079	0.258097	99
Es	0.983867	-1.268932	-0.250543	99
Es	-1.814488	-0.070390	0.234183	99
Es	0.981448	0.968612	-1.315080	99
Es	-0.509687	-1.485086	0.103785	99
Es	1.144891	0.122234	0.430086	99
Es	-0.705751	-1.999430	-0.403936	99
Es	-1.327831	-0.050624	-0.876937	99
Es	1.366070	1.813882	-0.500278	99
Es	-1.177159	-0.132521	-0.147511	99
Es	-0.863424	-0.813164	-0.026983	99
Es	-0.683485	-1.741587	0.795735	99
Es	0.370554	-1.314578	0.077420	99
Es	-0.670768	0.385727	0.053222	99
Es	0.981842	-0.722608	0.193309	99
Es	0.439420	0.439107	0.510230	99
37
Properties=species:S:1:pos:R:3:Z:I:1 energy=-268.8960110983073 field_type=dipole dipole="0.000000 0.000000 0.000000" charge=0
C	1.013805	1.181994	-0.618117	6
C	-0.149135	0.861114	0.283733	6
C	-1.177185	-0.132516	-0.147527	6
C	-0.509885	-1.485146	0.103803	6
O	0.909645	-1.253156	0.045793	8
C	1.145015	0.122344	0.430253	6
H	0.979565	0.868484	-1.654837	1
H	1.537215	2.116964	-0.457127	1
H	-0.454285	1.545104	1.059933	1
H	-2.117025	-0.042636	0.405803	1
H	-1.398175	-0.006536	-1.213747	1
H	-0.747595	-1.861466	1.104403	1
H	-0.797415	-2.234726	-0.638437	1
H	1.765455	0.320174	1.296073	1
Es	0.982264	-0.722929	0.194737	99
Es	1.041200	-1.429326	0.256213	99
Es	0.981595	0.968681	-1.315032	99
Es	-0.148985	0.861090	0.283652	99
Es	-0.683452	-1.741613	0.795668	99
Es	1.574568	0.248365	1.013698	99
Es	0.370382	-1.314655	0.076975	99
Es	-0.509675	-1.485082	0.103781	99
Es	1.013714	1.181922	-0.617974	99
Es	1.366164	1.813724	-0.500237	99
Es	0.982212	-1.266342	-0.249714	99
Es	-0.863394	-0.813228	-0.026991	99
Es	-0.351378	1.337663	0.804555	99
Es	0.909403	-1.252913	0.045854	99
Es	1.144903	0.122236	0.430076	99
Es	0.310758	1.154609	-0.263607	99
Es	-1.814352	-0.070437	0.234249	99
Es	1.271165	0.615691	-0.159520	99
Es	-1.177160	-0.132521	-0.147512	99
Es	-0.670846	0.385858	0.053163	99
Es	0.439536	0.438968	0.510539	99
Es	-0.705796	-1.999406	-0.403825	99
Es	-1.328008	-0.050569	-0.876902	99
37
Properties=species:S:1:pos:R:3:Z:I:1 energy=-268.8960110983073 field_type=dipole dipole="0.000000 0.000000 0.000000" charge=0
C	1.013805	1.181994	-0.618117	6
C	-0.149135	0.861114	0.283733	6
C	-1.177185	-0.132516	-0.147527	6
C	-0.509885	-1.485146	0.103803	6
O	0.909645	-1.253156	0.045793	8
C	1.145015	0.122344	0.430253	6
H	0.979565	0.868484	-1.654837	1
H	1.537215	2.116964	-0.457127	1
H	-0.454285	1.545104	1.059933	1
H	-2.117025	-0.042636	0.405803	1
H	-1.398175	-0.006536	-1.213747	1
H	-0.747595	-1.861466	1.104403	1
H	-0.797415	-2.234726	-0.638437	1
H	1.765455	0.320174	1.296073	1
Es	-0.705706	-1.999457	-0.403787	99
Es	0.370278	-1.314555	0.077021	99
Es	-0.148987	0.861086	0.283658	99
Es	-0.670811	0.385825	0.053282	99
Es	1.366085	1.813739	-0.500357	99
Es	0.982906	-1.267084	-0.249947	99
Es	0.909531	-1.253043	0.045845	99
Es	-1.327886	-0.050526	-0.876862	99
Es	1.013724	1.181918	-0.617975	99
Es	0.439578	0.439091	0.510526	99
Es	-0.509680	-1.485084	0.103785	99
Es	-0.683479	-1.741596	0.795652	99
Es	0.310445	1.154599	-0.263467	99
Es	-0.863527	-0.813248	-0.027113	99
Es	-1.177158	-0.132520	-0.147512	99
Es	1.271551	0.615670	-0.159516	99
Es	-1.814443	-0.070420	0.234156	99
Es	1.574518	0.248350	1.013616	99
Es	1.039965	-1.428559	0.256081	99
Es	-0.351374	1.337616	0.804487	99
Es	0.981595	0.968656	-1.314940	99
Es	1.144908	0.122235	0.430075	99
Es	0.982786	-0.722907	0.195137	99
37
Properties=species:S:1:pos:R:3:Z:I:1 energy=-268.8960110983073 field_type=dipole dipole="0.000000 0.000000 0.000000" charge=0
C	1.013805	1.181994	-0.618117	6
C	-0.149135	0.861114	0.283733	6
C	-1.177185	-0.132516	-0.147527	6
C	-0.509885	-1.485146	0.103803	6
O	0.909645	-1.253156	0.045793	8
C	1.145015	0.122344	0.430253	6
H	0.979565	0.868484	-1.654837	1
H	1.537215	2.116964	-0.457127	1
H	-0.454285	1.545104	1.059933	1
H	-2.117025	-0.042636	0.405803	1
H	-1.398175	-0.006536	-1.213747	1
H	-0.747595	-1.861466	1.104403	1
H	-0.797415	-2.234726	-0.638437	1
H	1.765455	0.320174	1.296073	1
Es	-0.509679	-1.485084	0.103785	99
Es	0.310208	1.154715	-0.263501	99
Es	-1.177160	-0.132521	-0.147512	99
Es	1.271767	0.615592	-0.159518	99
Es	-0.351309	1.337575	0.804328	99
Es	-0.863518	-0.813249	-0.026974	99
Es	1.144905	0.122236	0.430075	99
Es	0.981575	0.968759	-1.314907	99
Es	1.574496	0.248334	1.013507	99
Es	-1.814434	-0.070404	0.234079	99
Es	0.982463	-0.722161	0.193093	99
Es	0.439663	0.439088	0.510710	99
Es	1.013724	1.181918	-0.617975	99
Es	0.370046	-1.314786	0.075892	99
Es	-0.670910	0.385894	0.053403	99
Es	1.038288	-1.426276	0.258300	99
Es	0.909481	-1.253001	0.045844	99
Es	0.985256	-1.269994	-0.248984	99
Es	1.366027	1.813653	-0.500382	99
Es	-0.683493	-1.741693	0.795595	99
Es	-0.148972	0.861084	0.283651	99
Es	-0.705739	-1.999354	-0.403808	99
Es	-1.327863	-0.050540	-0.876856	99
37
Properties=species:S:1:pos:R:3:Z:I:1 energy=-268.8960110983073 field_type=dipole dipole="0.000000 0.000000 0.000000" charge=0
C	1.013805	1.181994	-0.618117	6
C	-0.149135	0.861114	0.283733	6
C	-1.177185	-0.132516	-0.147527	6
C	-0.509885	-1.485146	0.103803	6
O	0.909645	-1.253156	0.045793	8
C	1.145015	0.122344	0.430253	6
H	0.979565	0.868484	-1.654837	1
H	1.537215	2.116964	-0.457127	1
H	-0.454285	1.545104	1.059933	1
H	-2.117025	-0.042636	0.405803	1
H	-1.398175	-0.006536	-1.213747	1
H	-0.747595	-1.861466	1.104403	1
H	-0.797415	-2.234726	-0.638437	1
H	1.765455	0.320174	1.296073	1
Es	1.013728	1.181920	-0.617980	99
Es	1.038346	-1.427708	0.257247	99
Es	1.144896	0.122256	0.430070	99
Es	-0.705710	-1.999363	-0.403731	99
Es	-0.509684	-1.485085	0.103785	99
Es	-0.670989	0.386102	0.053268	99
Es	-1.177159	-0.132521	-0.147512	99
Es	1.271920	0.615535	-0.159481	99
Es	1.574476	0.248309	1.013375	99
Es	-0.863543	-0.813262	-0.027019	99
Es	-0.148984	0.861083	0.283660	99
Es	-0.683487	-1.741698	0.795553	99
Es	-1.814399	-0.070427	0.234040	99
Es	0.983255	-0.722306	0.194218	99
Es	0.310213	1.154877	-0.263484	99
Es	-0.351306	1.337459	0.804203	99
Es	0.981601	0.968818	-1.314791	99
Es	0.984769	-1.268942	-0.248337	99
Es	0.909397	-1.252920	0.045912	99
Es	0.439540	0.438995	0.511020	99
Es	-1.327918	-0.050557	-0.876790	99
Es	1.366010	1.813601	-0.500461	99
Es	0.369848	-1.314378	0.075082	99
37
Properties=species:S:1:pos:R:3:Z:I:1 energy=-268.8960110983073 field_type=dipole dipole="0.000000 0.000000 0.000000" charge=0
C	1.013805	1.181994	-0.618117	6
C	-0.149135	0.861114	0.283733	6
C	-1.177185	-0.132516	-0.147527	6
C	-0.509885	-1.485146	0.103803	6
O	0.909645	-1.253156	0.045793	8
C	1.145015	0.122344	0.430253	6
H	0.979565	0.868484	-1.654837	1
H	1.537215	2.116964	-0.457127	1
H	-0.454285	1.545104	1.059933	1
H	-2.117025	-0.042636	0.405803	1
H	-1.398175	-0.006536	-1.213747	1
H	-0.747595	-1.861466	1.104403	1
H	-0.797415	-2.234726	-0.638437	1
H	1.765455	0.320174	1.296073	1
Es	1.272048	0.615439	-0.159381	99
Es	0.370192	-1.314205	0.076193	99
Es	0.909417	-1.252899	0.045934	99
Es	0.981659	0.968822	-1.314741	99
Es	0.985195	-1.271113	-0.248958	99
Es	-0.705693	-1.999379	-0.403699	99
Es	-1.814353	-0.070446	0.234063	99
Es	-0.670985	0.386201	0.053244	99
Es	-1.327978	-0.050542	-0.876782	99
Es	1.144906	0.122244	0.430070	99
Es	1.013724	1.181918	-0.617975	99
Es	1.366026	1.813545	-0.500498	99
Es	-0.148981	0.861086	0.283655	99
Es	-0.509682	-1.485084	0.103785	99
Es	-0.863545	-0.813286	-0.027042	99
Es	-0.683503	-1.741690	0.795509	99
Es	-1.177159	-0.132521	-0.147512	99
Es	1.574440	0.248282	1.013296	99
Es	0.310074	1.155014	-0.263568	99
Es	0.983190	-0.721850	0.192496	99
Es	-0.351339	1.337429	0.804149	99
Es	0.439508	0.438981	0.511117	99
Es	1.037660	-1.426162	0.258491	99
37
Properties=species:S:1:pos:R:3:Z:I:1 energy=-268.8960110983073 field_type=dipole dipole="0.000000 0.000000 0.000000" charge=0
C	1.013805	1.181994	-0.618117	6
C	-0.149135	0.861114	0.283733	6
C	-1.177185	-0.132516	-0.147527	6
C	-0.509885	-1.485146	0.103803	6
O	0.909645	-1.253156	0.045793	8
C	1.145015	0.122344	0.430253	6
H	0.979565	0.868484	-1.654837	1
H	1.537215	2.116964	-0.457127	1
H	-0.454285	1.545104	1.059933	1
H	-2.117025	-0.042636	0.405803	1
H	-1.398175	-0.006536	-1.213747	1
H	-0.747595	-1.861466	1.104403	1
H	-0.797415	-2.234726	-0.638437	1
H	1.765455	0.320174	1.296073	1
Es	1.366011	1.813470	-0.500543	99
Es	-0.863570	-0.813285	-0.027062	99
Es	1.144903	0.122241	0.430073	99
Es	0.983699	-0.722059	0.193747	99
Es	-1.814335	-0.070438	0.234075	99
Es	1.013723	1.181918	-0.617974	99
Es	-1.177158	-0.132521	-0.147512	99
Es	-0.509685	-1.485085	0.103785	99
Es	-0.148980	0.861084	0.283656	99
Es	1.574383	0.248268	1.013200	99
Es	0.369670	-1.314606	0.075575	99
Es	-0.671002	0.386299	0.053202	99
Es	0.909387	-1.252903	0.045928	99
Es	1.272212	0.615475	-0.159455	99
Es	-0.683466	-1.741713	0.795485	99
Es	-0.351313	1.337359	0.804050	99
Es	-0.705702	-1.999377	-0.403671	99
Es	1.037781	-1.426682	0.257119	99
Es	0.985148	-1.270018	-0.248224	99
Es	0.981686	0.968866	-1.314683	99
Es	0.309853	1.155135	-0.263501	99
Es	-1.328017	-0.050522	-0.876730	99
Es	0.439591	0.438880	0.511307	99
37
Properties=species:S:1:pos:R:3:Z:I:1 energy=-268.8960110983073 field_type=dipole dipole="0.000000 0.000000 0.000000" charge=0
C	1.013805	1.181994	-0.618117	6
C	-0.149135	0.861114	0.283733	6
C	-1.177185	-0.132516	-0.147527	6
C	-0.509885	-1.485146	0.103803	6
O	0.909645	-1.253156	0.045793	8
C	1.145015	0.122344	0.430253	6
H	0.979565	0.868484	-1.654837	1
H	1.537215	2.116964	-0.457127	1
H	-0.454285	1.545104	1.059933	1
H	-2.117025	-0.042636	0.405803	1
H	-1.398175	-0.006536	-1.213747	1
H	-0.747595	-1.861466	1.104403	1
H	-0.797415	-2.234726	-0.638437	1
H	1.765455	0.320174	1.296073	1
Es	-0.705691	-1.999345	-0.403611	99
Es	0.981637	0.968947	-1.314639	99
Es	0.439591	0.438928	0.511456	99
Es	1.272413	0.615372	-0.159430	99
Es	1.013722	1.181917	-0.617973	99
Es	1.365953	1.813420	-0.500596	99
Es	-1.814354	-0.070447	0.233988	99
Es	0.909445	-1.253034	0.045835	99
Es	-0.683485	-1.741737	0.795437	99
Es	1.574398	0.248258	1.013082	99
Es	-0.351306	1.337316	0.803956	99
Es	1.041101	-1.428514	0.255768	99
Es	-0.509681	-1.485084	0.103785	99
Es	-0.863621	-0.813313	-0.027061	99
Es	-0.148978	0.861085	0.283655	99
Es	1.144902	0.122244	0.430073	99
Es	-1.327972	-0.050503	-0.876702	99
Es	0.982728	-0.722205	0.193966	99
Es	0.309753	1.155217	-0.263513	99
Es	-0.671047	0.386328	0.053299	99
Es	0.982540	-1.266907	-0.247782	99
Es	-1.177159	-0.132521	-0.147512	99
Es	0.369929	-1.315636	0.076365	99
37
Properties=species:S:1:pos:R:3:Z:I:1 energy=-268.8960110983073 field_type=dipole dipole="0.000000 0.000000 0.000000" charge=0
C	1.013805	1.181994	-0.618117	6
C	-0.149135	0.861114	0.283733	6
C	-1.177185	-0.132516	-0.147527	6
C	-0.509885	-1.485146	0.103803	6
O	0.909645	-1.253156	0.045793	8
C	1.145015	0.122344	0.430253	6
H	0.979565	0.868484	-1.654837	1
H	1.537215	2.116964	-0.457127	1
H	-0.454285	1.545104	1.059933	1
H	-2.117025	-0.042636	0.405803	1
H	-1.398175	-0.006536	-1.213747	1
H	-0.747595	-1.861466	1.104403	1
H	-0.797415	-2.234726	-0.638437	1
H	1.765455	0.320174	1.296073	1
Es	-1.177159	-0.132521	-0.147512	99
Es	-0.671075	0.386417	0.053288	99
Es	-0.683473	-1.741755	0.795376	99
Es	-1.327967	-0.050527	-0.876675	99
Es	1.365923	1.813359	-0.500601	99
Es	1.144901	0.122245	0.430073	99
Es	0.981694	0.969016	-1.314589	99
Es	1.013723	1.181916	-0.617972	99
Es	-0.509684	-1.485085	0.103785	99
Es	1.574391	0.248235	1.012972	99
Es	0.984286	-1.269406	-0.247776	99
Es	-0.148979	0.861084	0.283655	99
Es	0.439589	0.438883	0.511651	99
Es	0.309621	1.155325	-0.263569	99
Es	0.983480	-0.721786	0.193418	99
Es	-0.351297	1.337270	0.803853	99
Es	1.272508	0.615316	-0.159403	99
Es	0.369630	-1.315647	0.076363	99
Es	-0.863656	-0.813311	-0.026997	99
Es	1.039017	-1.426536	0.256197	99
Es	-0.705699	-1.999343	-0.403589	99
Es	-1.814353	-0.070427	0.233943	99
Es	0.909399	-1.252936	0.045955	99
37
Properties=species:S:1:pos:R:3:Z:I:1 energy=-268.8960110983073 field_type=dipole dipole="0.000000 0.000000 0.000000" charge=0
C	1.013805	1.181994	-0.618117	6
C	-0.149135	0.861114	0.283733	6
C	-1.177185	-0.132516	-0.147527	6
C	-0.509885	-1.485146	0.103803	6
O	0.909645	-1.253156	0.045793	8
C	1.145015	0.122344	0.430253	6
H	0.979565	0.868484	-1.654837	1
H	1.537215	2.116964	-0.457127	1
H	-0.454285	1.545104	1.059933	1
H	-2.117025	-0.042636	0.405803	1
H	-1.398175	-0.006536	-1.213747	1
H	-0.747595	-1.861466	1.104403	1
H	-0.797415	-2.234726	-0.638437	1
H	1.765455	0.320174	1.296073	1
Es	-0.863678	-0.813341	-0.026999	99
Es	1.272653	0.615256	-0.159333	99
Es	-0.351291	1.337219	0.803750	99
Es	0.983652	-0.721349	0.192288	99
Es	0.309508	1.155448	-0.263607	99
Es	-0.671105	0.386502	0.053283	99
Es	1.013723	1.181915	-0.617971	99
Es	-0.148979	0.861084	0.283656	99
Es	1.144897	0.122247	0.430074	99
Es	-0.705697	-1.999346	-0.403559	99
Es	-1.327984	-0.050525	-0.876642	99
Es	0.439575	0.438869	0.511803	99
Es	-0.683466	-1.741757	0.795348	99
Es	0.981727	0.969041	-1.314534	99
Es	1.038633	-1.425879	0.256845	99
Es	0.984677	-1.270496	-0.247088	99
Es	0.909384	-1.252926	0.046002	99
Es	0.369514	-1.315670	0.076101	99
Es	1.365901	1.813308	-0.500646	99
Es	-1.814334	-0.070424	0.233913	99
Es	1.574353	0.248215	1.012891	99
Es	-1.177159	-0.132520	-0.147512	99
Es	-0.509684	-1.485086	0.103785	99
37
Properties=species:S:1:pos:R:3:Z:I:1 energy=-268.8960110983073 field_type=dipole dipole="0.000000 0.000000 0.000000" charge=0
C	1.013805	1.181994	-0.618117	6
C	-0.149135	0.861114	0.283733	6
C	-1.177185	-0.132516	-0.147527	6
C	-0.509885	-1.485146	0.103803	6
O	0.909645	-1.253156	0.045793	8
C	1.145015	0.122344	0.430253	6
H	0.979565	0.868484	-1.654837	1
H	1.537215	2.116964	-0.457127	1
H	-0.454285	1.545104	1.059933	1
H	-2.117025	-0.042636	0.405803	1
H	-1.398175	-0.006536	-1.213747	1
H	-0.747595	-1.861466	1.104403	1
H	-0.797415	-2.234726	-0.638437	1
H	1.765455	0.320174	1.296073	1
Es	0.309361	1.155561	-0.263579	99
Es	-1.328007	-0.050520	-0.876585	99
Es	-0.671156	0.386588	0.053280	99
Es	-0.148977	0.861084	0.283656	99
Es	-1.177159	-0.132521	-0.147513	99
Es	-0.351258	1.337148	0.803676	99
Es	-0.683445	-1.741755	0.795320	99
Es	-0.863727	-0.813351	-0.027044	99
Es	-0.705666	-1.999371	-0.403483	99
Es	1.365888	1.813259	-0.500691	99
Es	0.439597	0.438882	0.511921	99
Es	-0.509685	-1.485085	0.103785	99
Es	0.909417	-1.252933	0.045885	99
Es	1.574347	0.248210	1.012786	99
Es	1.013722	1.181915	-0.617971	99
Es	-1.814316	-0.070429	0.233873	99
Es	1.144900	0.122246	0.430072	99
Es	1.037202	-1.425000	0.257181	99
Es	0.986395	-1.271072	-0.247047	99
Es	0.983577	-0.721519	0.193079	99
Es	0.369305	-1.315842	0.075042	99
Es	1.272783	0.615200	-0.159325	99
Es	0.981721	0.969092	-1.314472	99
37
Properties=species:S:1:pos:R:3:Z:I:1 energy=-268.8960110983073 field_type=dipole dipole="0.000000 0.000000 0.000000" charge=0
C	1.013805	1.181994	-0.618117	6
C	-0.149135	0.861114	0.283733	6
C	-1.177185	-0.132516	-0.147527	6
C	-0.509885	-1.485146	0.103803	6
O	0.909645	-1.253156	0.045793	8
C	1.145015	0.122344	0.430253	6
H	0.979565	0.868484	-1.654837	1
H	1.537215	2.116964	-0.457127	1
H	-0.454285	1.545104	1.059933	1
H	-2.117025	-0.042636	0.405803	1
H	-1.398175	-0.006536	-1.213747	1
H	-0.747595	-1.861466	1.104403	1
H	-0.797415	-2.234726	-0.638437	1
H	1.765455	0.320174	1.296073	1
Es	0.909375	-1.252918	0.046006	99
Es	-0.351264	1.337103	0.803579	99
Es	-0.671167	0.386653	0.053286	99
Es	0.985592	-1.270910	-0.246535	99
Es	-0.705679	-1.999320	-0.403469	99
Es	-1.177159	-0.132521	-0.147512	99
Es	-0.683463	-1.741791	0.795275	99
Es	0.369204	-1.315990	0.075463	99
Es	1.272949	0.615157	-0.159319	99
Es	1.574306	0.248187	1.012699	99
Es	1.037732	-1.425280	0.256411	99
Es	1.365869	1.813203	-0.500740	99
Es	0.439597	0.438829	0.512094	99
Es	-1.814313	-0.070431	0.233863	99
Es	0.981730	0.969127	-1.314421	99
Es	-0.148976	0.861083	0.283655	99
Es	1.013722	1.181915	-0.617970	99
Es	1.144898	0.122250	0.430072	99
Es	0.984062	-0.721267	0.192811	99
Es	-0.509686	-1.485085	0.103785	99
Es	0.309246	1.155665	-0.263589	99
Es	-1.328007	-0.050520	-0.876588	99
Es	-0.863749	-0.813355	-0.027010	99
37
Properties=species:S:1:pos:R:3:Z:I:1 energy=-268.8960110983073 field_type=dipole dipole="0.000000 0.000000 0.000000" charge=0
C	1.013805	1.181994	-0.618117	6
C	-0.149135	0.861114	0.283733	6
C	-1.177185	-0.132516	-0.147527	6
C	-0.509885	-1.485146	0.103803	6
O	0.909645	-1.253156	0.045793	8
C	1.145015	0.122344	0.430253	6
H	0.979565	0.868484	-1.654837	1
H	1.537215	2.116964	-0.457127	1
H	-0.454285	1.545104	1.059933	1
H	-2.117025	-0.042636	0.405803	1
H	-1.398175	-0.006536	-1.213747	1
H	-0.747595	-1.861466	1.104403	1
H	-0.797415	-2.234726	-0.638437	1
H	1.765455	0.320174	1.296073	1
Es	0.982628	-1.268464	-0.246866	99
Es	-1.177158	-0.132521	-0.147512	99
Es	0.439603	0.438836	0.512237	99
Es	-1.328027	-0.050492	-0.876619	99
Es	0.984274	-0.721496	0.193614	99
Es	1.144896	0.122253	0.430071	99
Es	1.273258	0.615158	-0.159435	99
Es	1.574213	0.248167	1.012643	99
Es	-0.863806	-0.813380	-0.027004	99
Es	0.309175	1.155669	-0.263430	99
Es	-0.683475	-1.741791	0.795229	99
Es	1.040313	-1.427025	0.254164	99
Es	-0.509687	-1.485085	0.103785	99
Es	-0.148975	0.861083	0.283655	99
Es	0.369447	-1.316522	0.077468	99
Es	0.909346	-1.252868	0.045805	99
Es	0.981633	0.969222	-1.314398	99
Es	1.365813	1.813162	-0.500781	99
Es	1.013724	1.181916	-0.617975	99
Es	-0.705655	-1.999329	-0.403434	99
Es	-1.814256	-0.070431	0.233821	99
Es	-0.671199	0.386674	0.053331	99
Es	-0.351267	1.337049	0.803475	99
37
Properties=species:S:1:pos:R:3:Z:I:1 energy=-268.8960110983073 field_type=dipole dipole="0.000000 0.000000 0.000000" charge=0
C	1.013805	1.181994	-0.618117	6
C	-0.149135	0.861114	0.283733	6
C	-1.177185	-0.132516	-0.147527	6
C	-0.509885	-1.485146	0.103803	6
O	0.909645	-1.253156	0.045793	8
C	1.145015	0.122344	0.430253	6
H	0.979565	0.868484	-1.654837	1
H	1.537215	2.116964	-0.457127	1
H	-0.454285	1.545104	1.059933	1
H	-2.117025	-0.042636	0.405803	1
H	-1.398175	-0.006536	-1.213747	1
H	-0.747595	-1.861466	1.104403	1
H	-0.797415	-2.234726	-0.638437	1
H	1.765455	0.320174	1.296073	1
Es	-0.705654	-1.999308	-0.403431	99
Es	0.985645	-1.271530	-0.245842	99
Es	0.309016	1.155887	-0.263578	99
Es	1.365878	1.813121	-0.500826	99
Es	-0.863803	-0.813400	-0.026976	99
Es	0.981731	0.969188	-1.314303	99
Es	-0.509688	-1.485085	0.103785	99
Es	-1.177158	-0.132521	-0.147513	99
Es	1.037564	-1.424797	0.256814	99
Es	1.144895	0.122253	0.430071	99
Es	-1.814272	-0.070413	0.233828	99
Es	1.273216	0.615057	-0.159300	99
Es	0.984179	-0.720848	0.192011	99
Es	-0.148974	0.861082	0.283656	99
Es	0.439635	0.438763	0.512323	99
Es	-0.351228	1.336987	0.803433	99
Es	-0.671229	0.386826	0.053237	99
Es	0.909471	-1.252982	0.045854	99
Es	-1.328051	-0.050523	-0.876535	99
Es	-0.683463	-1.741831	0.795194	99
Es	1.013722	1.181914	-0.617969	99
Es	0.369169	-1.316213	0.075351	99
Es	1.574217	0.248158	1.012562	99
37
Properties=species:S:1:pos:R:3:Z:I:1 energy=-268.8960110983073 field_type=dipole dipole="0.000000 0.000000 0.000000" charge=0
C	1.013805	1.181994	-0.618117	6
C	-0.149135	0.861114	0.283733	6
C	-1.177185	-0.132516	-0.147527	6
C	-0.509885	-1.485146	0.103803	6
O	0.909645	-1.253156	0.045793	8
C	1.145015	0.122344	0.430253	6
H	0.979565	0.868484	-1.654837	1
H	1.537215	2.116964	-0.457127	1
H	-0.454285	1.545104	1.059933	1
H	-2.117025	-0.042636	0.405803	1
H	-1.398175	-0.006536	-1.213747	1
H	-0.747595	-1.861466	1.104403	1
H	-0.797415	-2.234726	-0.638437	1
H	1.765455	0.320174	1.296073	1
Es	1.144895	0.122254	0.430071	99
Es	1.037377	-1.424423	0.256577	99
Es	-0.671243	0.386907	0.053262	99
Es	0.984564	-0.720801	0.191793	99
Es	-1.328075	-0.050510	-0.876484	99
Es	0.308804	1.156000	-0.263616	99
Es	-0.351218	1.336958	0.803358	99
Es	-0.509688	-1.485085	0.103786	99
Es	1.365827	1.813009	-0.500896	99
Es	-0.705643	-1.999323	-0.403324	99
Es	-0.863836	-0.813415	-0.027080	99
Es	-0.683472	-1.741793	0.795171	99
Es	1.273394	0.614991	-0.159289	99
Es	1.574235	0.248155	1.012452	99
Es	0.985528	-1.272070	-0.246143	99
Es	0.981802	0.969270	-1.314174	99
Es	1.013721	1.181913	-0.617969	99
Es	0.369228	-1.316207	0.076096	99
Es	-1.177159	-0.132521	-0.147513	99
Es	-0.148973	0.861082	0.283656	99
Es	-1.814258	-0.070450	0.233793	99
Es	0.439584	0.438760	0.512477	99
Es	0.909426	-1.252915	0.045842	99
37
Properties=species:S:1:pos:R:3:Z:I:1 energy=-268.8960110983073 field_type=dipole dipole="0.000000 0.000000 0.000000" charge=0
C	1.013805	1.181994	-0.618117	6
C	-0.149135	0.861114	0.283733	6
C	-1.177185	-0.132516	-0.147527	6
C	-0.509885	-1.485146	0.103803	6
O	0.909645	-1.253156	0.045793	8
C	1.145015	0.122344	0.430253	6
H	0.979565	0.868484	-1.654837	1
H	1.537215	2.116964	-0.457127	1
H	-0.454285	1.545104	1.059933	1
H	-2.117025	-0.042636	0.405803	1
H	-1.398175	-0.006536	-1.213747	1
H	-0.747595	-1.861466	1.104403	1
H	-0.797415	-2.234726	-0.638437	1
H	1.765455	0.320174	1.296073	1
Es	0.909414	-1.252928	0.045873	99
Es	1.574202	0.248130	1.012350	99
Es	-0.509689	-1.485086	0.103786	99
Es	0.985412	-1.270415	-0.245647	99
Es	1.144894	0.122256	0.430070	99
Es	0.439618	0.438763	0.512629	99
Es	-0.351214	1.336904	0.803254	99
Es	0.368982	-1.316298	0.074960	99
Es	-1.814261	-0.070440	0.233762	99
Es	1.037760	-1.425593	0.255699	99
Es	0.984560	-0.721187	0.193293	99
Es	1.365799	1.812990	-0.500879	99
Es	-0.705646	-1.999296	-0.403331	99
Es	0.981791	0.969279	-1.314229	99
Es	-1.328057	-0.050509	-0.876477	99
Es	-0.671280	0.386949	0.053292	99
Es	-0.863862	-0.813398	-0.027014	99
Es	-1.177158	-0.132521	-0.147513	99
Es	1.273474	0.614951	-0.159224	99
Es	0.308780	1.156085	-0.263638	99
Es	-0.148973	0.861081	0.283656	99
Es	-0.683448	-1.741845	0.795139	99
Es	1.013720	1.181912	-0.617966	99
37
Properties=species:S:1:pos:R:3:Z:I:1 energy=-268.8960110983073 field_type=dipole dipole="0.000000 0.000000 0.000000" charge=0
C	1.013805	1.181994	-0.618117	6
C	-0.149135	0.861114	0.283733	6
C	-1.177185	-0.132516	-0.147527	6
C	-0.509885	-1.485146	0.103803	6
O	0.909645	-1.253156	0.045793	8
C	1.145015	0.122344	0.430253	6
H	0.979565	0.868484	-1.654837	1
H	1.537215	2.116964	-0.457127	1
H	-0.454285	1.545104	1.059933	1
H	-2.117025	-0.042636	0.405803	1
H	-1.398175	-0.006536	-1.213747	1
H	-0.747595	-1.861466	1.104403	1
H	-0.797415	-2.234726	-0.638437	1
H	1.765455	0.320174	1.296073	1
Es	-0.509692	-1.485085	0.103787	99
Es	0.909416	-1.252873	0.045876	99
Es	-0.705619	-1.999300	-0.403314	99
Es	1.038995	-1.426286	0.253213	99
Es	0.984995	-0.721669	0.194805	99
Es	0.983702	-1.268755	-0.246655	99
Es	-1.177158	-0.132521	-0.147512	99
Es	0.308692	1.156160	-0.263619	99
Es	1.574171	0.248124	1.012264	99
Es	-0.863933	-0.813440	-0.027048	99
Es	-0.671239	0.386929	0.053274	99
Es	-0.148971	0.861081	0.283655	99
Es	1.144894	0.122257	0.430069	99
Es	1.273641	0.614871	-0.159214	99
Es	1.013721	1.181913	-0.617968	99
Es	0.369039	-1.316854	0.076985	99
Es	-0.683460	-1.741858	0.795090	99
Es	-0.351226	1.336864	0.803143	99
Es	-1.814208	-0.070388	0.233782	99
Es	-1.328116	-0.050476	-0.876447	99
Es	1.365788	1.812941	-0.500911	99
Es	0.439603	0.438813	0.512774	99
Es	0.981783	0.969334	-1.314181	99
