39
Properties=species:S:1:pos:R:3:Z:I:1 energy=-286.077418052885 field_type=dipole dipole="0.000000 0.000000 0.000000" charge=0
N	-1.876531	0.174716	-0.428333	7
C	-0.426331	0.180616	-0.573893	6
C	0.185039	1.201896	0.405637	6
C	1.243799	0.126986	0.743837	6
C	0.200939	-0.937244	0.315057	6
O	0.704969	-2.099134	-0.373963	8
H	-2.314271	-0.670024	-0.796323	1
H	-2.340331	0.956506	-0.887403	1
H	-0.052661	0.225406	-1.601483	1
H	-0.438951	1.474456	1.266337	1
H	0.576499	2.116886	-0.047963	1
H	2.136019	0.163976	0.108797	1
H	1.553679	0.091066	1.791277	1
H	-0.428591	-1.252734	1.158547	1
H	1.276729	-1.753374	-1.080133	1
Es	-1.876447	0.174685	-0.428890	99
Es	0.767087	0.727942	0.614628	99
Es	-0.230146	-1.146039	0.880625	99
Es	-0.159931	-0.434405	-0.183730	99
Es	-0.426467	0.180625	-0.573849	99
Es	-1.261006	0.176825	-0.549385	99
Es	0.201067	-0.937374	0.314910	99
Es	0.886847	-2.248101	-0.177447	99
Es	1.011000	-1.893734	-0.750828	99
Es	-2.124525	-0.333042	-0.677672	99
Es	0.786356	-0.462266	0.566016	99
Es	-0.242557	1.373146	0.984430	99
Es	0.453270	1.832118	0.093383	99
Es	-0.154356	0.208011	-1.276920	99
Es	-2.139971	0.645963	-0.730846	99
Es	-1.943557	0.190643	-0.090560	99
Es	1.243753	0.127005	0.743814	99
Es	-0.161887	0.761245	-0.123647	99
Es	0.528278	-1.652656	-0.128379	99
Es	1.843132	0.147209	0.293678	99
Es	0.462726	-2.229147	-0.513146	99
Es	0.185086	1.201832	0.405609	99
Es	0.705025	-2.098796	-0.374067	99
Es	1.462837	0.101708	1.461092	99
39
Properties=species:S:1:pos:R:3:Z:I:1 energy=-286.077418052885 field_type=dipole dipole="0.000000 0.000000 0.000000" charge=0
N	-1.876531	0.174716	-0.428333	7
C	-0.426331	0.180616	-0.573893	6
C	0.185039	1.201896	0.405637	6
C	1.243799	0.126986	0.743837	6
C	0.200939	-0.937244	0.315057	6
O	0.704969	-2.099134	-0.373963	8
H	-2.314271	-0.670024	-0.796323	1
H	-2.340331	0.956506	-0.887403	1
H	-0.052661	0.225406	-1.601483	1
H	-0.438951	1.474456	1.266337	1
H	0.576499	2.116886	-0.047963	1
H	2.136019	0.163976	0.108797	1
H	1.553679	0.091066	1.791277	1
H	-0.428591	-1.252734	1.158547	1
H	1.276729	-1.753374	-1.080133	1
Es	-1.260817	0.177213	-0.549202	99
Es	-0.230138	-1.146057	0.880515	99
Es	-0.242526	1.373160	0.984325	99
Es	1.243756	0.127003	0.743813	99
Es	-0.159916	-0.434347	-0.183711	99
Es	-2.124350	-0.333061	-0.678082	99
Es	-0.154367	0.207946	-1.276842	99
Es	-1.943826	0.190405	-0.090710	99
Es	-0.161932	0.761376	-0.123752	99
Es	0.786524	-0.462344	0.566121	99
Es	-1.876445	0.174683	-0.428909	99
Es	0.527928	-1.652613	-0.128517	99
Es	0.767017	0.727995	0.614735	99
Es	0.201070	-0.937374	0.314910	99
Es	1.462760	0.101602	1.461001	99
Es	0.453174	1.832092	0.093469	99
Es	0.886971	-2.247355	-0.177528	99
Es	0.462995	-2.229863	-0.512716	99
Es	0.705051	-2.098778	-0.374021	99
Es	1.010952	-1.893833	-0.751118	99
Es	1.843207	0.147255	0.293774	99
Es	-0.426467	0.180624	-0.573847	99
Es	0.185085	1.201837	0.405614	99
Es	-2.140089	0.645831	-0.730499	99
39
Properties=species:S:1:pos:R:3:Z:I:1 energy=-286.077418052885 field_type=dipole dipole="0.000000 0.000000 0.000000" charge=0
N	-1.876531	0.174716	-0.428333	7
C	-0.426331	0.180616	-0.573893	6
C	0.185039	1.201896	0.405637	6
C	1.243799	0.126986	0.743837	6
C	0.200939	-0.937244	0.315057	6
O	0.704969	-2.099134	-0.373963	8
H	-2.314271	-0.670024	-0.796323	1
H	-2.340331	0.956506	-0.887403	1
H	-0.052661	0.225406	-1.601483	1
H	-0.438951	1.474456	1.266337	1
H	0.576499	2.116886	-0.047963	1
H	2.136019	0.163976	0.108797	1
H	1.553679	0.091066	1.791277	1
H	-0.428591	-1.252734	1.158547	1
H	1.276729	-1.753374	-1.080133	1
Es	0.786509	-0.462401	0.566183	99
Es	1.243753	0.127005	0.743812	99
Es	-0.230109	-1.146059	0.880367	99
Es	-2.124530	-0.332921	-0.677684	99
Es	0.887107	-2.246909	-0.177428	99
Es	1.010763	-1.894130	-0.751493	99
Es	-1.943776	0.190728	-0.090532	99
Es	0.705054	-2.098831	-0.374064	99
Es	-0.154402	0.207923	-1.276784	99
Es	0.527638	-1.652400	-0.128743	99
Es	-2.139857	0.645853	-0.730984	99
Es	0.201067	-0.937372	0.314910	99
Es	0.767163	0.728220	0.614735	99
Es	1.843264	0.147248	0.293963	99
Es	-1.876464	0.174672	-0.428882	99
Es	-0.159964	-0.434377	-0.183722	99
Es	-1.260925	0.176729	-0.549334	99
Es	-0.161987	0.761377	-0.123785	99
Es	0.453053	1.832157	0.093522	99
Es	0.185087	1.201835	0.405613	99
Es	1.462685	0.101543	1.460861	99
Es	-0.242405	1.373078	0.984319	99
Es	0.463355	-2.230198	-0.512181	99
Es	-0.426467	0.180625	-0.573846	99
39
Properties=species:S:1:pos:R:3:Z:I:1 energy=-286.077418052885 field_type=dipole dipole="0.000000 0.000000 0.000000" charge=0
N	-1.876531	0.174716	-0.428333	7
C	-0.426331	0.180616	-0.573893	6
C	0.185039	1.201896	0.405637	6
C	1.243799	0.126986	0.743837	6
C	0.200939	-0.937244	0.315057	6
O	0.704969	-2.099134	-0.373963	8
H	-2.314271	-0.670024	-0.796323	1
H	-2.340331	0.956506	-0.887403	1
H	-0.052661	0.225406	-1.601483	1
H	-0.438951	1.474456	1.266337	1
H	0.576499	2.116886	-0.047963	1
H	2.136019	0.163976	0.108797	1
H	1.553679	0.091066	1.791277	1
H	-0.428591	-1.252734	1.158547	1
H	1.276729	-1.753374	-1.080133	1
Es	1.009187	-1.893855	-0.752449	99
Es	0.453024	1.832087	0.093623	99
Es	-0.426467	0.180625	-0.573846	99
Es	-2.140108	0.645941	-0.730618	99
Es	1.462834	0.101482	1.460826	99
Es	-0.230109	-1.146015	0.880400	99
Es	0.786595	-0.462429	0.566127	99
Es	-2.124755	-0.332993	-0.677419	99
Es	-1.260866	0.176725	-0.549815	99
Es	-1.943369	0.190666	-0.090751	99
Es	0.462664	-2.233490	-0.510599	99
Es	0.201067	-0.937367	0.314914	99
Es	0.888962	-2.243814	-0.178612	99
Es	0.705044	-2.098805	-0.374002	99
Es	1.243754	0.127005	0.743814	99
Es	-0.159942	-0.434460	-0.183826	99
Es	-0.154409	0.207960	-1.276657	99
Es	-0.242431	1.373138	0.984201	99
Es	0.185086	1.201833	0.405612	99
Es	-1.876455	0.174688	-0.428920	99
Es	0.767202	0.728179	0.614849	99
Es	-0.162030	0.761598	-0.123778	99
Es	0.528017	-1.652539	-0.128213	99
Es	1.843121	0.147236	0.293961	99
39
Properties=species:S:1:pos:R:3:Z:I:1 energy=-286.077418052885 field_type=dipole dipole="0.000000 0.000000 0.000000" charge=0
N	-1.876531	0.174716	-0.428333	7
C	-0.426331	0.180616	-0.573893	6
C	0.185039	1.201896	0.405637	6
C	1.243799	0.126986	0.743837	6
C	0.200939	-0.937244	0.315057	6
O	0.704969	-2.099134	-0.373963	8
H	-2.314271	-0.670024	-0.796323	1
H	-2.340331	0.956506	-0.887403	1
H	-0.052661	0.225406	-1.601483	1
H	-0.438951	1.474456	1.266337	1
H	0.576499	2.116886	-0.047963	1
H	2.136019	0.163976	0.108797	1
H	1.553679	0.091066	1.791277	1
H	-0.428591	-1.252734	1.158547	1
H	1.276729	-1.753374	-1.080133	1
Es	-0.242409	1.373164	0.984180	99
Es	-0.162032	0.761665	-0.123917	99
Es	-1.876447	0.174692	-0.428881	99
Es	-0.159999	-0.434501	-0.183783	99
Es	-1.943526	0.190861	-0.090692	99
Es	0.463815	-2.229513	-0.512524	99
Es	1.243752	0.127005	0.743812	99
Es	-2.124704	-0.333075	-0.677397	99
Es	-0.154451	0.207895	-1.276589	99
Es	0.452927	1.832024	0.093695	99
Es	0.786769	-0.462427	0.566224	99
Es	0.767163	0.728214	0.614821	99
Es	0.705009	-2.098752	-0.374074	99
Es	0.886465	-2.247761	-0.178080	99
Es	-0.230044	-1.145997	0.880342	99
Es	0.527470	-1.652446	-0.127935	99
Es	-0.426466	0.180624	-0.573845	99
Es	0.201068	-0.937366	0.314913	99
Es	-2.140002	0.645775	-0.730836	99
Es	0.185086	1.201831	0.405613	99
Es	1.843135	0.147225	0.293961	99
Es	-1.260882	0.176797	-0.549741	99
Es	1.011091	-1.894053	-0.751264	99
Es	1.462824	0.101513	1.460823	99
39
Properties=species:S:1:pos:R:3:Z:I:1 energy=-286.077418052885 field_type=dipole dipole="0.000000 0.000000 0.000000" charge=0
N	-1.876531	0.174716	-0.428333	7
C	-0.426331	0.180616	-0.573893	6
C	0.185039	1.201896	0.405637	6
C	1.243799	0.126986	0.743837	6
C	0.200939	-0.937244	0.315057	6
O	0.704969	-2.099134	-0.373963	8
H	-2.314271	-0.670024	-0.796323	1
H	-2.340331	0.956506	-0.887403	1
H	-0.052661	0.225406	-1.601483	1
H	-0.438951	1.474456	1.266337	1
H	0.576499	2.116886	-0.047963	1
H	2.136019	0.163976	0.108797	1
H	1.553679	0.091066	1.791277	1
H	-0.428591	-1.252734	1.158547	1
H	1.276729	-1.753374	-1.080133	1
Es	-1.876460	0.174684	-0.428902	99
Es	-1.943824	0.190488	-0.091366	99
Es	-0.242386	1.373211	0.984008	99
Es	0.464399	-2.234448	-0.509463	99
Es	1.843142	0.147134	0.294045	99
Es	-1.260635	0.176841	-0.549031	99
Es	0.705060	-2.098771	-0.374032	99
Es	0.452949	1.832011	0.093776	99
Es	1.243754	0.127005	0.743813	99
Es	-2.140059	0.646058	-0.730574	99
Es	1.462839	0.101462	1.460654	99
Es	-0.154485	0.207928	-1.276516	99
Es	0.185087	1.201834	0.405612	99
Es	-0.230092	-1.145999	0.880235	99
Es	-2.124627	-0.333041	-0.677684	99
Es	0.201066	-0.937372	0.314910	99
Es	-0.162024	0.761686	-0.123922	99
Es	0.889021	-2.242746	-0.178249	99
Es	-0.426467	0.180625	-0.573844	99
Es	0.526225	-1.652217	-0.128886	99
Es	1.009137	-1.894348	-0.753258	99
Es	-0.159930	-0.434446	-0.183943	99
Es	0.767095	0.728358	0.615007	99
Es	0.786829	-0.462540	0.566431	99
39
Properties=species:S:1:pos:R:3:Z:I:1 energy=-286.077418052885 field_type=dipole dipole="0.000000 0.000000 0.000000" charge=0
N	-1.876531	0.174716	-0.428333	7
C	-0.426331	0.180616	-0.573893	6
C	0.185039	1.201896	0.405637	6
C	1.243799	0.126986	0.743837	6
C	0.200939	-0.937244	0.315057	6
O	0.704969	-2.099134	-0.373963	8
H	-2.314271	-0.670024	-0.796323	1
H	-2.340331	0.956506	-0.887403	1
H	-0.052661	0.225406	-1.601483	1
H	-0.438951	1.474456	1.266337	1
H	0.576499	2.116886	-0.047963	1
H	2.136019	0.163976	0.108797	1
H	1.553679	0.091066	1.791277	1
H	-0.428591	-1.252734	1.158547	1
H	1.276729	-1.753374	-1.080133	1
Es	-0.162029	0.761675	-0.123907	99
Es	0.452803	1.832002	0.093758	99
Es	0.705032	-2.098757	-0.374029	99
Es	-0.160061	-0.434573	-0.183917	99
Es	1.462871	0.101554	1.460571	99
Es	0.201067	-0.937370	0.314911	99
Es	1.009499	-1.894343	-0.753526	99
Es	-0.242356	1.373216	0.983953	99
Es	0.525947	-1.652359	-0.128413	99
Es	0.465167	-2.232939	-0.509494	99
Es	0.786704	-0.462608	0.566381	99
Es	-2.124616	-0.332893	-0.677527	99
Es	-0.154481	0.207914	-1.276431	99
Es	1.843095	0.147118	0.294164	99
Es	-0.230002	-1.145971	0.880219	99
Es	0.888194	-2.244168	-0.178398	99
Es	-1.260937	0.176771	-0.549888	99
Es	-1.943538	0.190636	-0.090569	99
Es	1.243748	0.127003	0.743813	99
Es	-2.140075	0.645858	-0.730745	99
Es	0.767410	0.728489	0.615033	99
Es	0.185087	1.201833	0.405612	99
Es	-1.876449	0.174687	-0.428904	99
Es	-0.426465	0.180625	-0.573844	99
39
Properties=species:S:1:pos:R:3:Z:I:1 energy=-286.077418052885 field_type=dipole dipole="0.000000 0.000000 0.000000" charge=0
N	-1.876531	0.174716	-0.428333	7
C	-0.426331	0.180616	-0.573893	6
C	0.185039	1.201896	0.405637	6
C	1.243799	0.126986	0.743837	6
C	0.200939	-0.937244	0.315057	6
O	0.704969	-2.099134	-0.373963	8
H	-2.314271	-0.670024	-0.796323	1
H	-2.340331	0.956506	-0.887403	1
H	-0.052661	0.225406	-1.601483	1
H	-0.438951	1.474456	1.266337	1
H	0.576499	2.116886	-0.047963	1
H	2.136019	0.163976	0.108797	1
H	1.553679	0.091066	1.791277	1
H	-0.428591	-1.252734	1.158547	1
H	1.276729	-1.753374	-1.080133	1
Es	1.012016	-1.894473	-0.751042	99
Es	0.767426	0.728548	0.615142	99
Es	-1.260867	0.176629	-0.550084	99
Es	-0.426463	0.180625	-0.573842	99
Es	1.462937	0.101479	1.460507	99
Es	-0.154504	0.207944	-1.276394	99
Es	-1.876447	0.174682	-0.428884	99
Es	1.843050	0.147110	0.294149	99
Es	-0.242297	1.373138	0.983854	99
Es	1.243750	0.127005	0.743813	99
Es	-1.943237	0.191884	-0.090995	99
Es	0.201066	-0.937362	0.314912	99
Es	0.786742	-0.462592	0.566401	99
Es	0.885280	-2.248730	-0.177997	99
Es	0.452715	1.832045	0.093905	99
Es	-0.162125	0.761762	-0.124006	99
Es	-0.229967	-1.145971	0.880218	99
Es	0.705014	-2.098795	-0.374068	99
Es	0.526804	-1.652231	-0.127863	99
Es	0.185087	1.201833	0.405612	99
Es	-0.160066	-0.434623	-0.183908	99
Es	0.464746	-2.228345	-0.512906	99
Es	-2.125088	-0.333539	-0.676283	99
Es	-2.139957	0.645373	-0.731418	99
39
Properties=species:S:1:pos:R:3:Z:I:1 energy=-286.077418052885 field_type=dipole dipole="0.000000 0.000000 0.000000" charge=0
N	-1.876531	0.174716	-0.428333	7
C	-0.426331	0.180616	-0.573893	6
C	0.185039	1.201896	0.405637	6
C	1.243799	0.126986	0.743837	6
C	0.200939	-0.937244	0.315057	6
O	0.704969	-2.099134	-0.373963	8
H	-2.314271	-0.670024	-0.796323	1
H	-2.340331	0.956506	-0.887403	1
H	-0.052661	0.225406	-1.601483	1
H	-0.438951	1.474456	1.266337	1
H	0.576499	2.116886	-0.047963	1
H	2.136019	0.163976	0.108797	1
H	1.553679	0.091066	1.791277	1
H	-0.428591	-1.252734	1.158547	1
H	1.276729	-1.753374	-1.080133	1
Es	1.011809	-1.894240	-0.751170	99
Es	0.185086	1.201832	0.405611	99
Es	-0.229893	-1.145910	0.880184	99
Es	-1.260489	0.176876	-0.548899	99
Es	0.885625	-2.247082	-0.179042	99
Es	-1.876442	0.174677	-0.428919	99
Es	-0.160187	-0.434643	-0.183974	99
Es	0.767529	0.728586	0.615099	99
Es	-0.426465	0.180625	-0.573844	99
Es	0.464421	-2.230095	-0.512520	99
Es	0.526833	-1.652466	-0.127128	99
Es	0.786785	-0.462663	0.566399	99
Es	0.705131	-2.098753	-0.373979	99
Es	-0.242274	1.373197	0.983832	99
Es	1.842993	0.147080	0.294244	99
Es	-0.154558	0.207811	-1.276308	99
Es	-1.943998	0.190516	-0.091622	99
Es	-2.124602	-0.333030	-0.677568	99
Es	0.201066	-0.937366	0.314912	99
Es	-2.140099	0.646060	-0.730666	99
Es	1.462973	0.101509	1.460459	99
Es	1.243751	0.127005	0.743812	99
Es	-0.162036	0.761901	-0.124030	99
Es	0.452654	1.831972	0.093941	99
39
Properties=species:S:1:pos:R:3:Z:I:1 energy=-286.077418052885 field_type=dipole dipole="0.000000 0.000000 0.000000" charge=0
N	-1.876531	0.174716	-0.428333	7
C	-0.426331	0.180616	-0.573893	6
C	0.185039	1.201896	0.405637	6
C	1.243799	0.126986	0.743837	6
C	0.200939	-0.937244	0.315057	6
O	0.704969	-2.099134	-0.373963	8
H	-2.314271	-0.670024	-0.796323	1
H	-2.340331	0.956506	-0.887403	1
H	-0.052661	0.225406	-1.601483	1
H	-0.438951	1.474456	1.266337	1
H	0.576499	2.116886	-0.047963	1
H	2.136019	0.163976	0.108797	1
H	1.553679	0.091066	1.791277	1
H	-0.428591	-1.252734	1.158547	1
H	1.276729	-1.753374	-1.080133	1
Es	-1.943538	0.190523	-0.090745	99
Es	1.842975	0.147081	0.294263	99
Es	0.452517	1.831967	0.093964	99
Es	1.010123	-1.894249	-0.752696	99
Es	-0.162111	0.761979	-0.124054	99
Es	0.887764	-2.243893	-0.178774	99
Es	0.705126	-2.098775	-0.374045	99
Es	0.185087	1.201833	0.405612	99
Es	-2.140120	0.645886	-0.730475	99
Es	-0.242265	1.373184	0.983751	99
Es	-0.426461	0.180624	-0.573840	99
Es	-1.876445	0.174684	-0.428884	99
Es	-0.154541	0.207823	-1.276259	99
Es	0.465119	-2.233311	-0.510258	99
Es	0.767557	0.728606	0.615152	99
Es	-0.229918	-1.145894	0.880066	99
Es	1.463011	0.101498	1.460376	99
Es	-1.260825	0.176774	-0.550014	99
Es	0.786909	-0.462703	0.566559	99
Es	-0.160120	-0.434624	-0.183929	99
Es	0.525681	-1.652433	-0.128076	99
Es	-2.124730	-0.332824	-0.677598	99
Es	1.243751	0.127005	0.743813	99
Es	0.201067	-0.937366	0.314913	99
39
Properties=species:S:1:pos:R:3:Z:I:1 energy=-286.077418052885 field_type=dipole dipole="0.000000 0.000000 0.000000" charge=0
N	-1.876531	0.174716	-0.428333	7
C	-0.426331	0.180616	-0.573893	6
C	0.185039	1.201896	0.405637	6
C	1.243799	0.126986	0.743837	6
C	0.200939	-0.937244	0.315057	6
O	0.704969	-2.099134	-0.373963	8
H	-2.314271	-0.670024	-0.796323	1
H	-2.340331	0.956506	-0.887403	1
H	-0.052661	0.225406	-1.601483	1
H	-0.438951	1.474456	1.266337	1
H	0.576499	2.116886	-0.047963	1
H	2.136019	0.163976	0.108797	1
H	1.553679	0.091066	1.791277	1
H	-0.428591	-1.252734	1.158547	1
H	1.276729	-1.753374	-1.080133	1
Es	0.527290	-1.652017	-0.127265	99
Es	1.011180	-1.894877	-0.752188	99
Es	-0.426463	0.180623	-0.573840	99
Es	-0.229958	-1.145946	0.880015	99
Es	0.185087	1.201835	0.405614	99
Es	0.201066	-0.937360	0.314913	99
Es	0.885732	-2.247663	-0.178884	99
Es	-2.140157	0.645604	-0.731044	99
Es	-0.160070	-0.434650	-0.183979	99
Es	0.464597	-2.229255	-0.511491	99
Es	-2.124700	-0.332938	-0.676984	99
Es	0.705045	-2.098812	-0.374055	99
Es	-0.162176	0.762022	-0.124162	99
Es	0.767555	0.728761	0.615295	99
Es	0.786838	-0.462788	0.566649	99
Es	1.463062	0.101437	1.460265	99
Es	-1.943596	0.191014	-0.090761	99
Es	-1.260754	0.176685	-0.550114	99
Es	1.842937	0.147048	0.294316	99
Es	-1.876449	0.174681	-0.428907	99
Es	-0.154557	0.207835	-1.276136	99
Es	-0.242236	1.373320	0.983719	99
Es	0.452590	1.831832	0.094033	99
Es	1.243752	0.127005	0.743812	99
39
Properties=species:S:1:pos:R:3:Z:I:1 energy=-286.077418052885 field_type=dipole dipole="0.000000 0.000000 0.000000" charge=0
N	-1.876531	0.174716	-0.428333	7
C	-0.426331	0.180616	-0.573893	6
C	0.185039	1.201896	0.405637	6
C	1.243799	0.126986	0.743837	6
C	0.200939	-0.937244	0.315057	6
O	0.704969	-2.099134	-0.373963	8
H	-2.314271	-0.670024	-0.796323	1
H	-2.340331	0.956506	-0.887403	1
H	-0.052661	0.225406	-1.601483	1
H	-0.438951	1.474456	1.266337	1
H	0.576499	2.116886	-0.047963	1
H	2.136019	0.163976	0.108797	1
H	1.553679	0.091066	1.791277	1
H	-0.428591	-1.252734	1.158547	1
H	1.276729	-1.753374	-1.080133	1
Es	-1.943466	0.190703	-0.090765	99
Es	0.201066	-0.937370	0.314917	99
Es	0.452469	1.831789	0.094053	99
Es	1.243752	0.127004	0.743812	99
Es	0.786958	-0.462757	0.566604	99
Es	-2.139991	0.645829	-0.730488	99
Es	1.842899	0.147036	0.294376	99
Es	-0.229843	-1.145876	0.879978	99
Es	-0.160201	-0.434743	-0.184049	99
Es	-0.242239	1.373347	0.983649	99
Es	-0.426471	0.180625	-0.573845	99
Es	0.525737	-1.652184	-0.127424	99
Es	0.767672	0.728748	0.615282	99
Es	0.465456	-2.232246	-0.510786	99
Es	0.886828	-2.244844	-0.179195	99
Es	-0.154598	0.207828	-1.276095	99
Es	-1.260779	0.176630	-0.550221	99
Es	1.010768	-1.894579	-0.752333	99
Es	0.185089	1.201831	0.405611	99
Es	-2.124965	-0.332815	-0.677424	99
Es	0.705007	-2.098840	-0.374060	99
Es	-1.876457	0.174693	-0.428913	99
Es	-0.162151	0.762123	-0.124120	99
Es	1.463076	0.101466	1.460258	99
39
Properties=species:S:1:pos:R:3:Z:I:1 energy=-286.077418052885 field_type=dipole dipole="0.000000 0.000000 0.000000" charge=0
N	-1.876531	0.174716	-0.428333	7
C	-0.426331	0.180616	-0.573893	6
C	0.185039	1.201896	0.405637	6
C	1.243799	0.126986	0.743837	6
C	0.200939	-0.937244	0.315057	6
O	0.704969	-2.099134	-0.373963	8
H	-2.314271	-0.670024	-0.796323	1
H	-2.340331	0.956506	-0.887403	1
H	-0.052661	0.225406	-1.601483	1
H	-0.438951	1.474456	1.266337	1
H	0.576499	2.116886	-0.047963	1
H	2.136019	0.163976	0.108797	1
H	1.553679	0.091066	1.791277	1
H	-0.428591	-1.252734	1.158547	1
H	1.276729	-1.753374	-1.080133	1
Es	-0.160230	-0.434668	-0.184068	99
Es	0.886161	-2.245911	-0.179106	99
Es	-2.140258	0.645728	-0.730494	99
Es	1.842856	0.147015	0.294446	99
Es	-0.162186	0.762124	-0.124203	99
Es	0.786917	-0.462919	0.566754	99
Es	1.243750	0.127005	0.743813	99
Es	1.463121	0.101497	1.460154	99
Es	0.452552	1.831842	0.094156	99
Es	0.185088	1.201831	0.405613	99
Es	0.201065	-0.937365	0.314914	99
Es	-1.260761	0.176793	-0.550329	99
Es	0.767604	0.728813	0.615451	99
Es	1.011095	-1.894794	-0.752489	99
Es	0.705072	-2.098855	-0.374027	99
Es	-0.154591	0.207848	-1.276033	99
Es	-1.943347	0.190815	-0.090966	99
Es	-0.426464	0.180625	-0.573841	99
Es	-1.876450	0.174678	-0.428899	99
Es	0.525671	-1.652158	-0.127392	99
Es	-0.242223	1.373332	0.983478	99
Es	-2.124875	-0.333007	-0.677169	99
Es	0.465813	-2.230986	-0.510841	99
Es	-0.229768	-1.145884	0.879902	99
39
Properties=species:S:1:pos:R:3:Z:I:1 energy=-286.077418052885 field_type=dipole dipole="0.000000 0.000000 0.000000" charge=0
N	-1.876531	0.174716	-0.428333	7
C	-0.426331	0.180616	-0.573893	6
C	0.185039	1.201896	0.405637	6
C	1.243799	0.126986	0.743837	6
C	0.200939	-0.937244	0.315057	6
O	0.704969	-2.099134	-0.373963	8
H	-2.314271	-0.670024	-0.796323	1
H	-2.340331	0.956506	-0.887403	1
H	-0.052661	0.225406	-1.601483	1
H	-0.438951	1.474456	1.266337	1
H	0.576499	2.116886	-0.047963	1
H	2.136019	0.163976	0.108797	1
H	1.553679	0.091066	1.791277	1
H	-0.428591	-1.252734	1.158547	1
H	1.276729	-1.753374	-1.080133	1
Es	-0.229794	-1.145838	0.879910	99
Es	-1.943423	0.190865	-0.090871	99
Es	1.011373	-1.894978	-0.752376	99
Es	-1.876454	0.174686	-0.428890	99
Es	-0.162121	0.762148	-0.124167	99
Es	-0.154625	0.207782	-1.275979	99
Es	-0.426463	0.180625	-0.573835	99
Es	1.463103	0.101451	1.460034	99
Es	0.767627	0.728918	0.615511	99
Es	0.185088	1.201833	0.405610	99
Es	0.705026	-2.098823	-0.374051	99
Es	1.842895	0.147013	0.294495	99
Es	-1.260768	0.176653	-0.550349	99
Es	0.201066	-0.937359	0.314916	99
Es	-0.160213	-0.434699	-0.184125	99
Es	0.452534	1.831825	0.094114	99
Es	-2.124977	-0.332888	-0.677173	99
Es	-0.242198	1.373354	0.983496	99
Es	1.243753	0.127005	0.743812	99
Es	-2.140093	0.645721	-0.730580	99
Es	0.526604	-1.652084	-0.126606	99
Es	0.465366	-2.229534	-0.511233	99
Es	0.885398	-2.247321	-0.179557	99
Es	0.786913	-0.462958	0.566717	99
39
Properties=species:S:1:pos:R:3:Z:I:1 energy=-286.077418052885 field_type=dipole dipole="0.000000 0.000000 0.000000" charge=0
N	-1.876531	0.174716	-0.428333	7
C	-0.426331	0.180616	-0.573893	6
C	0.185039	1.201896	0.405637	6
C	1.243799	0.126986	0.743837	6
C	0.200939	-0.937244	0.315057	6
O	0.704969	-2.099134	-0.373963	8
H	-2.314271	-0.670024	-0.796323	1
H	-2.340331	0.956506	-0.887403	1
H	-0.052661	0.225406	-1.601483	1
H	-0.438951	1.474456	1.266337	1
H	0.576499	2.116886	-0.047963	1
H	2.136019	0.163976	0.108797	1
H	1.553679	0.091066	1.791277	1
H	-0.428591	-1.252734	1.158547	1
H	1.276729	-1.753374	-1.080133	1
Es	0.885848	-2.245677	-0.179429	99
Es	-0.242140	1.373403	0.983445	99
Es	0.525735	-1.652035	-0.127112	99
Es	-1.876482	0.174686	-0.428831	99
Es	0.185089	1.201831	0.405610	99
Es	-0.160213	-0.434759	-0.184089	99
Es	0.465970	-2.231267	-0.510596	99
Es	-1.943294	0.190860	-0.091280	99
Es	0.767769	0.728968	0.615474	99
Es	-0.154629	0.207770	-1.275897	99
Es	0.201066	-0.937360	0.314914	99
Es	-2.140341	0.645789	-0.730629	99
Es	1.463135	0.101440	1.460025	99
Es	0.704931	-2.098756	-0.374139	99
Es	-1.260697	0.176674	-0.550309	99
Es	-0.229810	-1.145833	0.879817	99
Es	1.011299	-1.895019	-0.752547	99
Es	-0.426464	0.180624	-0.573840	99
Es	1.842827	0.146979	0.294573	99
Es	-0.162234	0.762272	-0.124216	99
Es	0.452399	1.831746	0.094173	99
Es	1.243748	0.127004	0.743811	99
Es	-2.124899	-0.333002	-0.676880	99
Es	0.787005	-0.462940	0.566774	99
39
Properties=species:S:1:pos:R:3:Z:I:1 energy=-286.077418052885 field_type=dipole dipole="0.000000 0.000000 0.000000" charge=0
N	-1.876531	0.174716	-0.428333	7
C	-0.426331	0.180616	-0.573893	6
C	0.185039	1.201896	0.405637	6
C	1.243799	0.126986	0.743837	6
C	0.200939	-0.937244	0.315057	6
O	0.704969	-2.099134	-0.373963	8
H	-2.314271	-0.670024	-0.796323	1
H	-2.340331	0.956506	-0.887403	1
H	-0.052661	0.225406	-1.601483	1
H	-0.438951	1.474456	1.266337	1
H	0.576499	2.116886	-0.047963	1
H	2.136019	0.163976	0.108797	1
H	1.553679	0.091066	1.791277	1
H	-0.428591	-1.252734	1.158547	1
H	1.276729	-1.753374	-1.080133	1
Es	-1.876451	0.174673	-0.428896	99
Es	0.452305	1.831742	0.094329	99
Es	-1.260713	0.176714	-0.550497	99
Es	-0.426460	0.180624	-0.573837	99
Es	-0.154632	0.207728	-1.275880	99
Es	1.463130	0.101451	1.459935	99
Es	-0.229791	-1.145829	0.879759	99
Es	0.465741	-2.228818	-0.511177	99
Es	1.243754	0.127005	0.743813	99
Es	0.787067	-0.462974	0.566890	99
Es	-0.242117	1.373328	0.983435	99
Es	1.842841	0.146929	0.294613	99
Es	-2.125035	-0.332934	-0.677184	99
Es	1.011643	-1.895460	-0.752468	99
Es	-2.140132	0.645644	-0.730429	99
Es	0.185088	1.201830	0.405612	99
Es	0.526457	-1.651835	-0.126856	99
Es	0.767801	0.729066	0.615433	99
Es	0.201066	-0.937358	0.314914	99
Es	0.884929	-2.247742	-0.179299	99
Es	-1.943394	0.190901	-0.090936	99
Es	-0.162236	0.762356	-0.124325	99
Es	-0.160256	-0.434740	-0.184117	99
Es	0.705010	-2.098905	-0.374008	99
39
Properties=species:S:1:pos:R:3:Z:I:1 energy=-286.077418052885 field_type=dipole dipole="0.000000 0.000000 0.000000" charge=0
N	-1.876531	0.174716	-0.428333	7
C	-0.426331	0.180616	-0.573893	6
C	0.185039	1.201896	0.405637	6
C	1.243799	0.126986	0.743837	6
C	0.200939	-0.937244	0.315057	6
O	0.704969	-2.099134	-0.373963	8
H	-2.314271	-0.670024	-0.796323	1
H	-2.340331	0.956506	-0.887403	1
H	-0.052661	0.225406	-1.601483	1
H	-0.438951	1.474456	1.266337	1
H	0.576499	2.116886	-0.047963	1
H	2.136019	0.163976	0.108797	1
H	1.553679	0.091066	1.791277	1
H	-0.428591	-1.252734	1.158547	1
H	1.276729	-1.753374	-1.080133	1
Es	-2.140033	0.645485	-0.730797	99
Es	-0.426463	0.180625	-0.573843	99
Es	0.705016	-2.098824	-0.374036	99
Es	-2.124948	-0.332768	-0.677069	99
Es	-0.242107	1.373387	0.983358	99
Es	-0.162227	0.762382	-0.124275	99
Es	1.243750	0.127007	0.743812	99
Es	0.884778	-2.246782	-0.179576	99
Es	1.463283	0.101428	1.459902	99
Es	-0.154661	0.207783	-1.275777	99
Es	-1.260854	0.176586	-0.550774	99
Es	0.526167	-1.651949	-0.126747	99
Es	0.465763	-2.229867	-0.511079	99
Es	0.201067	-0.937357	0.314912	99
Es	0.185089	1.201830	0.405607	99
Es	-0.229779	-1.145801	0.879799	99
Es	-1.876451	0.174688	-0.428900	99
Es	0.787090	-0.462983	0.566830	99
Es	-0.160252	-0.434866	-0.184171	99
Es	1.842705	0.146960	0.294577	99
Es	-1.943459	0.191037	-0.090454	99
Es	0.452234	1.831683	0.094323	99
Es	1.012031	-1.895361	-0.752364	99
Es	0.767877	0.729077	0.615565	99
39
Properties=species:S:1:pos:R:3:Z:I:1 energy=-286.077418052885 field_type=dipole dipole="0.000000 0.000000 0.000000" charge=0
N	-1.876531	0.174716	-0.428333	7
C	-0.426331	0.180616	-0.573893	6
C	0.185039	1.201896	0.405637	6
C	1.243799	0.126986	0.743837	6
C	0.200939	-0.937244	0.315057	6
O	0.704969	-2.099134	-0.373963	8
H	-2.314271	-0.670024	-0.796323	1
H	-2.340331	0.956506	-0.887403	1
H	-0.052661	0.225406	-1.601483	1
H	-0.438951	1.474456	1.266337	1
H	0.576499	2.116886	-0.047963	1
H	2.136019	0.163976	0.108797	1
H	1.553679	0.091066	1.791277	1
H	-0.428591	-1.252734	1.158547	1
H	1.276729	-1.753374	-1.080133	1
Es	-1.943375	0.190910	-0.090818	99
Es	-0.426462	0.180625	-0.573832	99
Es	-1.260786	0.176715	-0.550776	99
Es	-0.154630	0.207700	-1.275660	99
Es	0.185089	1.201832	0.405612	99
Es	-0.229723	-1.145804	0.879652	99
Es	1.011652	-1.895072	-0.752400	99
Es	0.885240	-2.245928	-0.180171	99
Es	0.787163	-0.463054	0.566926	99
Es	0.526000	-1.652067	-0.126313	99
Es	1.463247	0.101395	1.459838	99
Es	-0.160369	-0.434834	-0.184215	99
Es	0.465806	-2.230929	-0.510874	99
Es	0.705060	-2.098800	-0.374034	99
Es	-2.140192	0.645591	-0.730540	99
Es	1.243749	0.127005	0.743813	99
Es	1.842719	0.146976	0.294699	99
Es	-2.124977	-0.332864	-0.677067	99
Es	0.201067	-0.937357	0.314912	99
Es	0.452245	1.831690	0.094286	99
Es	0.767835	0.729160	0.615684	99
Es	-0.242112	1.373431	0.983248	99
Es	-1.876454	0.174684	-0.428897	99
Es	-0.162176	0.762391	-0.124251	99
39
Properties=species:S:1:pos:R:3:Z:I:1 energy=-286.077418052885 field_type=dipole dipole="0.000000 0.000000 0.000000" charge=0
N	-1.876531	0.174716	-0.428333	7
C	-0.426331	0.180616	-0.573893	6
C	0.185039	1.201896	0.405637	6
C	1.243799	0.126986	0.743837	6
C	0.200939	-0.937244	0.315057	6
O	0.704969	-2.099134	-0.373963	8
H	-2.314271	-0.670024	-0.796323	1
H	-2.340331	0.956506	-0.887403	1
H	-0.052661	0.225406	-1.601483	1
H	-0.438951	1.474456	1.266337	1
H	0.576499	2.116886	-0.047963	1
H	2.136019	0.163976	0.108797	1
H	1.553679	0.091066	1.791277	1
H	-0.428591	-1.252734	1.158547	1
H	1.276729	-1.753374	-1.080133	1
Es	0.705027	-2.098906	-0.374032	99
Es	0.787225	-0.463126	0.566944	99
Es	0.466049	-2.229995	-0.510770	99
Es	-0.229736	-1.145776	0.879638	99
Es	0.452140	1.831700	0.094471	99
Es	-2.140348	0.645651	-0.730452	99
Es	1.842743	0.146977	0.294770	99
Es	-0.160273	-0.434821	-0.184150	99
Es	-0.242054	1.373339	0.983234	99
Es	0.526095	-1.651949	-0.126135	99
Es	1.463209	0.101426	1.459785	99
Es	0.767897	0.729175	0.615607	99
Es	-2.125170	-0.333021	-0.676671	99
Es	1.243745	0.127006	0.743812	99
Es	1.011345	-1.895247	-0.752663	99
Es	-1.876465	0.174681	-0.428909	99
Es	0.201067	-0.937350	0.314913	99
Es	-0.154676	0.207676	-1.275653	99
Es	-0.162290	0.762564	-0.124458	99
Es	0.885242	-2.246724	-0.180179	99
Es	-1.943022	0.191054	-0.091101	99
Es	-1.260765	0.176617	-0.550946	99
Es	0.185092	1.201823	0.405605	99
Es	-0.426460	0.180624	-0.573838	99
39
Properties=species:S:1:pos:R:3:Z:I:1 energy=-286.077418052885 field_type=dipole dipole="0.000000 0.000000 0.000000" charge=0
N	-1.876531	0.174716	-0.428333	7
C	-0.426331	0.180616	-0.573893	6
C	0.185039	1.201896	0.405637	6
C	1.243799	0.126986	0.743837	6
C	0.200939	-0.937244	0.315057	6
O	0.704969	-2.099134	-0.373963	8
H	-2.314271	-0.670024	-0.796323	1
H	-2.340331	0.956506	-0.887403	1
H	-0.052661	0.225406	-1.601483	1
H	-0.438951	1.474456	1.266337	1
H	0.576499	2.116886	-0.047963	1
H	2.136019	0.163976	0.108797	1
H	1.553679	0.091066	1.791277	1
H	-0.428591	-1.252734	1.158547	1
H	1.276729	-1.753374	-1.080133	1
Es	0.787112	-0.463070	0.567011	99
Es	0.705071	-2.098794	-0.374070	99
Es	0.525257	-1.651872	-0.126683	99
Es	1.011633	-1.895481	-0.752917	99
Es	-0.162096	0.762418	-0.124372	99
Es	-0.160298	-0.434930	-0.184327	99
Es	-2.140359	0.645521	-0.730553	99
Es	-0.426460	0.180625	-0.573833	99
Es	-2.125242	-0.333127	-0.676447	99
Es	0.885002	-2.246335	-0.179778	99
Es	-0.242143	1.373436	0.983124	99
Es	-1.876451	0.174688	-0.428810	99
Es	-1.260908	0.176670	-0.551314	99
Es	1.243750	0.127006	0.743813	99
Es	0.466791	-2.230351	-0.510328	99
Es	0.185090	1.201830	0.405610	99
Es	1.463248	0.101380	1.459703	99
Es	0.767995	0.729404	0.615811	99
Es	-1.942824	0.191284	-0.090967	99
Es	0.201066	-0.937357	0.314915	99
Es	-0.229750	-1.145766	0.879607	99
Es	0.452150	1.831634	0.094421	99
Es	-0.154733	0.207745	-1.275568	99
Es	1.842715	0.146840	0.294774	99
39
Properties=species:S:1:pos:R:3:Z:I:1 energy=-286.077418052885 field_type=dipole dipole="0.000000 0.000000 0.000000" charge=0
N	-1.876531	0.174716	-0.428333	7
C	-0.426331	0.180616	-0.573893	6
C	0.185039	1.201896	0.405637	6
C	1.243799	0.126986	0.743837	6
C	0.200939	-0.937244	0.315057	6
O	0.704969	-2.099134	-0.373963	8
H	-2.314271	-0.670024	-0.796323	1
H	-2.340331	0.956506	-0.887403	1
H	-0.052661	0.225406	-1.601483	1
H	-0.438951	1.474456	1.266337	1
H	0.576499	2.116886	-0.047963	1
H	2.136019	0.163976	0.108797	1
H	1.553679	0.091066	1.791277	1
H	-0.428591	-1.252734	1.158547	1
H	1.276729	-1.753374	-1.080133	1
Es	-1.876457	0.174684	-0.428894	99
Es	0.452185	1.831541	0.094435	99
Es	-1.943313	0.191035	-0.090936	99
Es	0.767935	0.729313	0.615786	99
Es	-0.426465	0.180625	-0.573837	99
Es	-2.125081	-0.332922	-0.676916	99
Es	-0.229672	-1.145783	0.879576	99
Es	-1.260717	0.176685	-0.550902	99
Es	-0.242079	1.373540	0.983138	99
Es	-0.160367	-0.434924	-0.184246	99
Es	-0.154720	0.207698	-1.275511	99
Es	1.243747	0.127005	0.743813	99
Es	0.185094	1.201820	0.405612	99
Es	0.201066	-0.937352	0.314917	99
Es	-2.140217	0.645512	-0.730508	99
Es	0.525350	-1.652015	-0.126215	99
Es	0.705097	-2.098797	-0.373987	99