45
Properties=species:S:1:pos:R:3:Z:I:1 energy=-288.11421108781104 field_type=dipole dipole="0.000000 0.000000 0.000000" charge=0
C	-2.567417	-0.744314	-0.821756	6
C	-1.085477	-0.822004	-0.640556	6
C	-0.432537	-0.280104	0.403854	6
C	1.048422	-0.294444	0.699794	6
N	1.825862	-1.073144	-0.256066	7
C	1.678373	1.072296	0.787504	6
C	1.123133	2.268886	0.542594	6
H	-2.799987	-0.305904	-1.797736	1
H	-3.049377	-0.131804	-0.052146	1
H	-3.001807	-1.748414	-0.783366	1
H	-0.546737	-1.349274	-1.421416	1
H	-1.023397	0.229696	1.165164	1
H	1.170093	-0.767654	1.682424	1
H	1.699743	-0.659354	-1.177376	1
H	1.436523	-2.011754	-0.299756	1
H	2.724263	1.061066	1.094814	1
H	0.092013	2.378846	0.224854	1
H	1.708313	3.177376	0.649174	1
Es	2.384995	1.055416	0.997903	99
Es	1.336058	0.403353	0.734625	99
Es	-0.832861	0.069653	0.924928	99
Es	1.571545	-1.633038	-0.285173	99
Es	1.123095	2.268973	0.542578	99
Es	-2.852846	-1.424930	-0.796528	99
Es	0.298937	-0.281933	0.530286	99
Es	1.825344	-1.073121	-0.256185	99
Es	1.295517	1.699325	0.975330	99
Es	2.170177	-1.079310	-0.166275	99
Es	1.514940	2.887583	0.613265	99
Es	-0.432478	-0.280063	0.403936	99
Es	1.122525	-0.608352	1.364431	99
Es	-1.085543	-0.822045	-0.640632	99
Es	-2.716714	-0.449211	-1.482904	99
Es	-0.722082	-1.182923	-1.175205	99
Es	1.048459	-0.294464	0.699681	99
Es	-0.781137	-0.839610	0.050169	99
Es	1.727739	-0.824979	-0.810049	99
Es	1.480055	1.653781	0.345929	99
Es	-2.889778	-0.328200	-0.295977	99
Es	1.465237	-0.733155	0.146885	99
Es	0.425000	2.348905	0.329424	99
Es	1.678387	1.072184	0.787522	99
Es	-2.567375	-0.744320	-0.821757	99
Es	-1.825587	-0.780244	-0.724279	99
Es	-0.716551	-0.269042	-0.289020	99
45
Properties=species:S:1:pos:R:3:Z:I:1 energy=-288.11421108781104 field_type=dipole dipole="0.000000 0.000000 0.000000" charge=0
C	-2.567417	-0.744314	-0.821756	6
C	-1.085477	-0.822004	-0.640556	6
C	-0.432537	-0.280104	0.403854	6
C	1.048422	-0.294444	0.699794	6
N	1.825862	-1.073144	-0.256066	7
C	1.678373	1.072296	0.787504	6
C	1.123133	2.268886	0.542594	6
H	-2.799987	-0.305904	-1.797736	1
H	-3.049377	-0.131804	-0.052146	1
H	-3.001807	-1.748414	-0.783366	1
H	-0.546737	-1.349274	-1.421416	1
H	-1.023397	0.229696	1.165164	1
H	1.170093	-0.767654	1.682424	1
H	1.699743	-0.659354	-1.177376	1
H	1.436523	-2.011754	-0.299756	1
H	2.724263	1.061066	1.094814	1
H	0.092013	2.378846	0.224854	1
H	1.708313	3.177376	0.649174	1
Es	-0.716534	-0.269224	-0.288932	99
Es	0.425063	2.348711	0.329409	99
Es	1.123087	2.268966	0.542579	99
Es	1.825294	-1.073125	-0.256202	99
Es	1.048458	-0.294464	0.699682	99
Es	-0.781209	-0.839300	0.050052	99
Es	1.480049	1.653758	0.346173	99
Es	1.335918	0.403216	0.734497	99
Es	-0.432476	-0.280064	0.403939	99
Es	1.678387	1.072185	0.787523	99
Es	-2.716746	-0.449277	-1.482939	99
Es	1.514837	2.887720	0.613066	99
Es	1.571636	-1.633017	-0.285129	99
Es	1.122528	-0.608170	1.364454	99
Es	-1.825660	-0.780262	-0.724292	99
Es	1.465331	-0.733187	0.146966	99
Es	2.170086	-1.079348	-0.166350	99
Es	-2.852855	-1.424849	-0.796479	99
Es	-0.722025	-1.183038	-1.175126	99
Es	-2.889763	-0.328148	-0.295969	99
Es	2.385034	1.055437	0.997879	99
Es	-1.085545	-0.822044	-0.640635	99
Es	-0.832878	0.069689	0.924935	99
Es	1.727792	-0.825052	-0.810112	99
Es	0.299006	-0.281992	0.530258	99
Es	-2.567375	-0.744320	-0.821756	99
Es	1.295617	1.699429	0.975417	99
45
Properties=species:S:1:pos:R:3:Z:I:1 energy=-288.11421108781104 field_type=dipole dipole="0.000000 0.000000 0.000000" charge=0
C	-2.567417	-0.744314	-0.821756	6
C	-1.085477	-0.822004	-0.640556	6
C	-0.432537	-0.280104	0.403854	6
C	1.048422	-0.294444	0.699794	6
N	1.825862	-1.073144	-0.256066	7
C	1.678373	1.072296	0.787504	6
C	1.123133	2.268886	0.542594	6
H	-2.799987	-0.305904	-1.797736	1
H	-3.049377	-0.131804	-0.052146	1
H	-3.001807	-1.748414	-0.783366	1
H	-0.546737	-1.349274	-1.421416	1
H	-1.023397	0.229696	1.165164	1
H	1.170093	-0.767654	1.682424	1
H	1.699743	-0.659354	-1.177376	1
H	1.436523	-2.011754	-0.299756	1
H	2.724263	1.061066	1.094814	1
H	0.092013	2.378846	0.224854	1
H	1.708313	3.177376	0.649174	1
Es	1.514938	2.887650	0.613322	99
Es	1.295527	1.699204	0.975001	99
Es	-0.722023	-1.183029	-1.175114	99
Es	-0.832943	0.069672	0.924917	99
Es	1.571866	-1.633412	-0.284988	99
Es	-1.085544	-0.822054	-0.640625	99
Es	1.048456	-0.294462	0.699687	99
Es	1.480032	1.653843	0.346159	99
Es	-1.825721	-0.780122	-0.724284	99
Es	0.424961	2.348828	0.329470	99
Es	0.299134	-0.281862	0.530266	99
Es	-2.716766	-0.449266	-1.482927	99
Es	-2.852826	-1.424860	-0.796492	99
Es	2.170133	-1.078825	-0.166486	99
Es	1.678390	1.072185	0.787519	99
Es	-0.781145	-0.839259	0.049996	99
Es	1.123096	2.268965	0.542576	99
Es	2.385098	1.055559	0.998008	99
Es	1.825307	-1.073124	-0.256201	99
Es	-2.889793	-0.328188	-0.295975	99
Es	-0.432477	-0.280060	0.403936	99
Es	-2.567375	-0.744320	-0.821758	99
Es	1.465138	-0.733112	0.146709	99
Es	1.122460	-0.608178	1.364523	99
Es	-0.716489	-0.269404	-0.288891	99
Es	1.335972	0.403183	0.734445	99
Es	1.727651	-0.825320	-0.809884	99
45
Properties=species:S:1:pos:R:3:Z:I:1 energy=-288.11421108781104 field_type=dipole dipole="0.000000 0.000000 0.000000" charge=0
C	-2.567417	-0.744314	-0.821756	6
C	-1.085477	-0.822004	-0.640556	6
C	-0.432537	-0.280104	0.403854	6
C	1.048422	-0.294444	0.699794	6
N	1.825862	-1.073144	-0.256066	7
C	1.678373	1.072296	0.787504	6
C	1.123133	2.268886	0.542594	6
H	-2.799987	-0.305904	-1.797736	1
H	-3.049377	-0.131804	-0.052146	1
H	-3.001807	-1.748414	-0.783366	1
H	-0.546737	-1.349274	-1.421416	1
H	-1.023397	0.229696	1.165164	1
H	1.170093	-0.767654	1.682424	1
H	1.699743	-0.659354	-1.177376	1
H	1.436523	-2.011754	-0.299756	1
H	2.724263	1.061066	1.094814	1
H	0.092013	2.378846	0.224854	1
H	1.708313	3.177376	0.649174	1
Es	-0.721968	-1.183050	-1.175086	99
Es	-0.716523	-0.269445	-0.288832	99
Es	-2.716744	-0.449302	-1.482936	99
Es	1.335793	0.403155	0.734502	99
Es	1.123092	2.268969	0.542579	99
Es	1.728391	-0.824935	-0.810122	99
Es	1.295635	1.699309	0.975126	99
Es	1.514907	2.887672	0.613294	99
Es	2.384948	1.055479	0.997956	99
Es	0.425007	2.348775	0.329325	99
Es	-1.825785	-0.780178	-0.724236	99
Es	-0.781118	-0.839038	0.049853	99
Es	1.122501	-0.608116	1.364462	99
Es	1.480180	1.653910	0.346216	99
Es	1.571760	-1.633122	-0.285362	99
Es	1.678388	1.072184	0.787525	99
Es	1.825301	-1.073120	-0.256196	99
Es	1.465028	-0.733254	0.146855	99
Es	-1.085547	-0.822045	-0.640637	99
Es	-0.833004	0.069645	0.924929	99
Es	1.048458	-0.294463	0.699683	99
Es	-0.432470	-0.280060	0.403941	99
Es	-2.852791	-1.424861	-0.796501	99
Es	2.169644	-1.079390	-0.166095	99
Es	-2.889837	-0.328171	-0.295969	99
Es	0.299187	-0.281996	0.530392	99
Es	-2.567376	-0.744321	-0.821757	99
45
Properties=species:S:1:pos:R:3:Z:I:1 energy=-288.11421108781104 field_type=dipole dipole="0.000000 0.000000 0.000000" charge=0
C	-2.567417	-0.744314	-0.821756	6
C	-1.085477	-0.822004	-0.640556	6
C	-0.432537	-0.280104	0.403854	6
C	1.048422	-0.294444	0.699794	6
N	1.825862	-1.073144	-0.256066	7
C	1.678373	1.072296	0.787504	6
C	1.123133	2.268886	0.542594	6
H	-2.799987	-0.305904	-1.797736	1
H	-3.049377	-0.131804	-0.052146	1
H	-3.001807	-1.748414	-0.783366	1
H	-0.546737	-1.349274	-1.421416	1
H	-1.023397	0.229696	1.165164	1
H	1.170093	-0.767654	1.682424	1
H	1.699743	-0.659354	-1.177376	1
H	1.436523	-2.011754	-0.299756	1
H	2.724263	1.061066	1.094814	1
H	0.092013	2.378846	0.224854	1
H	1.708313	3.177376	0.649174	1
Es	-0.432479	-0.280066	0.403937	99
Es	-2.889788	-0.328174	-0.296004	99
Es	1.123093	2.268965	0.542586	99
Es	1.678386	1.072191	0.787521	99
Es	1.480063	1.653866	0.346352	99
Es	1.514967	2.887626	0.613262	99
Es	1.728202	-0.825023	-0.810120	99
Es	0.424958	2.348826	0.329381	99
Es	2.385041	1.055608	0.997976	99
Es	-2.852817	-1.424817	-0.796420	99
Es	-0.833052	0.069642	0.925002	99
Es	1.048458	-0.294463	0.699683	99
Es	1.295627	1.699270	0.974998	99
Es	-1.825848	-0.780160	-0.724264	99
Es	-0.781068	-0.838901	0.049758	99
Es	0.299240	-0.281937	0.530319	99
Es	-0.716511	-0.269621	-0.288754	99
Es	1.335852	0.403111	0.734416	99
Es	1.122449	-0.608105	1.364486	99
Es	-2.567375	-0.744321	-0.821756	99
Es	1.464826	-0.733420	0.146885	99
Es	1.825274	-1.073123	-0.256210	99
Es	1.572162	-1.633262	-0.285302	99
Es	-2.716799	-0.449308	-1.482980	99
Es	-1.085548	-0.822045	-0.640636	99
Es	-0.721886	-1.183068	-1.175041	99
Es	2.169631	-1.079062	-0.166167	99
45
Properties=species:S:1:pos:R:3:Z:I:1 energy=-288.11421108781104 field_type=dipole dipole="0.000000 0.000000 0.000000" charge=0
C	-2.567417	-0.744314	-0.821756	6
C	-1.085477	-0.822004	-0.640556	6
C	-0.432537	-0.280104	0.403854	6
C	1.048422	-0.294444	0.699794	6
N	1.825862	-1.073144	-0.256066	7
C	1.678373	1.072296	0.787504	6
C	1.123133	2.268886	0.542594	6
H	-2.799987	-0.305904	-1.797736	1
H	-3.049377	-0.131804	-0.052146	1
H	-3.001807	-1.748414	-0.783366	1
H	-0.546737	-1.349274	-1.421416	1
H	-1.023397	0.229696	1.165164	1
H	1.170093	-0.767654	1.682424	1
H	1.699743	-0.659354	-1.177376	1
H	1.436523	-2.011754	-0.299756	1
H	2.724263	1.061066	1.094814	1
H	0.092013	2.378846	0.224854	1
H	1.708313	3.177376	0.649174	1
Es	-0.781110	-0.838883	0.049767	99
Es	-0.721869	-1.183007	-1.175072	99
Es	-0.432477	-0.280062	0.403936	99
Es	1.048458	-0.294463	0.699685	99
Es	-1.085543	-0.822037	-0.640637	99
Es	-0.833022	0.069695	0.924964	99
Es	0.424933	2.348802	0.329460	99
Es	1.464865	-0.733080	0.146425	99
Es	-2.852797	-1.424882	-0.796470	99
Es	1.728804	-0.825119	-0.810139	99
Es	2.170188	-1.080173	-0.165561	99
Es	1.825375	-1.073114	-0.256173	99
Es	0.299363	-0.281883	0.530220	99
Es	-2.567375	-0.744320	-0.821757	99
Es	-2.889821	-0.328208	-0.296010	99
Es	-1.825907	-0.780108	-0.724213	99
Es	1.514933	2.887654	0.613345	99
Es	1.122386	-0.608124	1.364520	99
Es	1.678387	1.072188	0.787522	99
Es	1.123094	2.268965	0.542577	99
Es	-2.716755	-0.449268	-1.482957	99
Es	1.570919	-1.632397	-0.285520	99
Es	2.385075	1.055636	0.997962	99
Es	1.295712	1.699226	0.974821	99
Es	1.480084	1.653910	0.346385	99
Es	1.335739	0.403020	0.734477	99
Es	-0.716581	-0.269738	-0.288650	99
45
Properties=species:S:1:pos:R:3:Z:I:1 energy=-288.11421108781104 field_type=dipole dipole="0.000000 0.000000 0.000000" charge=0
C	-2.567417	-0.744314	-0.821756	6
C	-1.085477	-0.822004	-0.640556	6
C	-0.432537	-0.280104	0.403854	6
C	1.048422	-0.294444	0.699794	6
N	1.825862	-1.073144	-0.256066	7
C	1.678373	1.072296	0.787504	6
C	1.123133	2.268886	0.542594	6
H	-2.799987	-0.305904	-1.797736	1
H	-3.049377	-0.131804	-0.052146	1
H	-3.001807	-1.748414	-0.783366	1
H	-0.546737	-1.349274	-1.421416	1
H	-1.023397	0.229696	1.165164	1
H	1.170093	-0.767654	1.682424	1
H	1.699743	-0.659354	-1.177376	1
H	1.436523	-2.011754	-0.299756	1
H	2.724263	1.061066	1.094814	1
H	0.092013	2.378846	0.224854	1
H	1.708313	3.177376	0.649174	1
Es	-1.825964	-0.780043	-0.724208	99
Es	1.122414	-0.608102	1.364525	99
Es	-1.085544	-0.822044	-0.640634	99
Es	-2.567376	-0.744320	-0.821758	99
Es	1.825279	-1.073130	-0.256214	99
Es	1.514944	2.887649	0.613397	99
Es	-2.716810	-0.449367	-1.483017	99
Es	1.048457	-0.294463	0.699685	99
Es	1.480127	1.653927	0.346429	99
Es	2.169329	-1.079470	-0.166653	99
Es	1.335621	0.402999	0.734458	99
Es	-2.852739	-1.424866	-0.796359	99
Es	-0.781031	-0.838769	0.049668	99
Es	-0.716526	-0.269883	-0.288607	99
Es	1.465361	-0.733054	0.147235	99
Es	0.299415	-0.281862	0.530324	99
Es	1.123095	2.268969	0.542570	99
Es	1.728248	-0.825060	-0.810137	99
Es	1.678389	1.072188	0.787515	99
Es	-0.721847	-1.183043	-1.175047	99
Es	-2.889828	-0.328162	-0.296042	99
Es	1.295745	1.699220	0.974726	99
Es	-0.833145	0.069687	0.924930	99
Es	0.424935	2.348814	0.329438	99
Es	2.385049	1.055648	0.998003	99
Es	1.571940	-1.633176	-0.285248	99
Es	-0.432480	-0.280056	0.403928	99
45
Properties=species:S:1:pos:R:3:Z:I:1 energy=-288.11421108781104 field_type=dipole dipole="0.000000 0.000000 0.000000" charge=0
C	-2.567417	-0.744314	-0.821756	6
C	-1.085477	-0.822004	-0.640556	6
C	-0.432537	-0.280104	0.403854	6
C	1.048422	-0.294444	0.699794	6
N	1.825862	-1.073144	-0.256066	7
C	1.678373	1.072296	0.787504	6
C	1.123133	2.268886	0.542594	6
H	-2.799987	-0.305904	-1.797736	1
H	-3.049377	-0.131804	-0.052146	1
H	-3.001807	-1.748414	-0.783366	1
H	-0.546737	-1.349274	-1.421416	1
H	-1.023397	0.229696	1.165164	1
H	1.170093	-0.767654	1.682424	1
H	1.699743	-0.659354	-1.177376	1
H	1.436523	-2.011754	-0.299756	1
H	2.724263	1.061066	1.094814	1
H	0.092013	2.378846	0.224854	1
H	1.708313	3.177376	0.649174	1
Es	-0.833056	0.069629	0.924937	99
Es	-0.721835	-1.182957	-1.175060	99
Es	1.123094	2.268964	0.542583	99
Es	1.122390	-0.608141	1.364509	99
Es	0.424925	2.348810	0.329463	99
Es	-2.716719	-0.449301	-1.482942	99
Es	2.169156	-1.079343	-0.166691	99
Es	-0.716590	-0.269844	-0.288597	99
Es	1.514971	2.887648	0.613319	99
Es	0.299478	-0.281909	0.530324	99
Es	-1.825930	-0.780055	-0.724210	99
Es	1.678385	1.072189	0.787527	99
Es	-2.852823	-1.424853	-0.796487	99
Es	1.048456	-0.294462	0.699687	99
Es	1.465327	-0.732879	0.147097	99
Es	1.825303	-1.073123	-0.256200	99
Es	2.385142	1.055736	0.997976	99
Es	1.480014	1.653876	0.346595	99
Es	1.572020	-1.633349	-0.285154	99
Es	1.295796	1.699239	0.974631	99
Es	-0.432487	-0.280063	0.403921	99
Es	1.335551	0.402968	0.734490	99
Es	1.728371	-0.825175	-0.810121	99
Es	-2.889870	-0.328183	-0.296049	99
Es	-2.567376	-0.744320	-0.821757	99
Es	-1.085547	-0.822047	-0.640636	99
Es	-0.781089	-0.838823	0.049754	99
