41
Properties=species:S:1:pos:R:3:Z:I:1 energy=-302.953768930365 field_type=dipole dipole="0.000000 0.000000 0.000000" charge=0
C	-1.210344	-2.960712	-0.550577	6
C	-0.387034	-2.011363	-0.091477	6
C	-0.619654	-0.601673	-0.299227	6
C	0.219086	0.348417	0.138513	6
N	0.062686	1.704887	-0.004007	7
C	0.886636	2.725827	0.375563	6
N	2.064886	2.684777	0.886483	7
H	-0.996434	-4.009442	-0.367777	1
H	-2.107494	-2.728483	-1.115367	1
H	0.498846	-2.306922	0.467673	1
H	-1.521244	-0.320563	-0.837427	1
H	1.122526	0.067757	0.673713	1
H	-0.806734	1.980547	-0.450737	1
H	0.427947	3.712917	0.191343	1
H	2.366326	1.714027	0.983313	1
Es	-1.820644	-2.803282	-0.934198	99
Es	0.079237	1.716903	0.114444	99
Es	-1.210409	-2.960777	-0.550602	99
Es	-1.233467	-0.407367	-0.665230	99
Es	-0.382214	-0.156106	0.191277	99
Es	0.063216	1.704849	-0.004715	99
Es	1.706565	2.689628	0.421989	99
Es	-0.449171	1.874124	-0.282963	99
Es	-0.498472	-1.298131	-0.192821	99
Es	-0.057240	-0.187684	-0.371072	99
Es	-0.386969	-2.011252	-0.091439	99
Es	1.475978	2.673578	0.942036	99
Es	2.263208	2.961159	0.982582	99
Es	-0.637140	-2.490533	-0.599150	99
Es	0.560234	3.385335	0.242321	99
Es	2.230997	2.087675	0.939206	99
Es	0.886453	2.725700	0.375490	99
Es	-0.973362	-2.464404	-0.051517	99
Es	0.831649	0.168111	0.499492	99
Es	2.064583	2.684423	0.886347	99
Es	-1.071473	-3.673904	-0.430525	99
Es	0.219154	0.348691	0.138539	99
Es	-0.619690	-0.601699	-0.299238	99
Es	0.158565	1.120318	0.031195	99
Es	0.455321	2.116780	0.121090	99
Es	0.217738	-2.198704	0.288895	99
41
Properties=species:S:1:pos:R:3:Z:I:1 energy=-302.953768930365 field_type=dipole dipole="0.000000 0.000000 0.000000" charge=0
C	-1.210344	-2.960712	-0.550577	6
C	-0.387034	-2.011363	-0.091477	6
C	-0.619654	-0.601673	-0.299227	6
C	0.219086	0.348417	0.138513	6
N	0.062686	1.704887	-0.004007	7
C	0.886636	2.725827	0.375563	6
N	2.064886	2.684777	0.886483	7
H	-0.996434	-4.009442	-0.367777	1
H	-2.107494	-2.728483	-1.115367	1
H	0.498846	-2.306922	0.467673	1
H	-1.521244	-0.320563	-0.837427	1
H	1.122526	0.067757	0.673713	1
H	-0.806734	1.980547	-0.450737	1
H	0.427947	3.712917	0.191343	1
H	2.366326	1.714027	0.983313	1
Es	-1.820677	-2.803292	-0.934154	99
Es	0.076422	1.707560	0.014898	99
Es	-0.057293	-0.187631	-0.371212	99
Es	0.433627	2.123208	0.175426	99
Es	1.475837	2.673935	0.941513	99
Es	0.110808	1.708838	-0.004535	99
Es	2.262881	2.961078	0.982734	99
Es	-0.498657	-1.298212	-0.192602	99
Es	-1.071480	-3.673915	-0.430439	99
Es	2.231141	2.087652	0.939542	99
Es	-0.637134	-2.490513	-0.599241	99
Es	-1.233447	-0.407287	-0.665213	99
Es	2.064550	2.684390	0.886328	99
Es	-0.457714	1.875060	-0.268725	99
Es	-0.973272	-2.464421	-0.051650	99
Es	0.217749	-2.198685	0.288925	99
Es	1.707090	2.689382	0.421624	99
Es	0.219154	0.348684	0.138539	99
Es	0.560026	3.385404	0.242633	99
Es	0.831591	0.168040	0.499640	99
Es	0.886453	2.725700	0.375496	99
Es	0.143964	1.118303	0.062098	99
Es	-1.210401	-2.960769	-0.550603	99
Es	-0.619681	-0.601696	-0.299243	99
Es	-0.381923	-0.156127	0.191093	99
Es	-0.386964	-2.011252	-0.091441	99
41
Properties=species:S:1:pos:R:3:Z:I:1 energy=-302.953768930365 field_type=dipole dipole="0.000000 0.000000 0.000000" charge=0
C	-1.210344	-2.960712	-0.550577	6
C	-0.387034	-2.011363	-0.091477	6
C	-0.619654	-0.601673	-0.299227	6
C	0.219086	0.348417	0.138513	6
N	0.062686	1.704887	-0.004007	7
C	0.886636	2.725827	0.375563	6
N	2.064886	2.684777	0.886483	7
H	-0.996434	-4.009442	-0.367777	1
H	-2.107494	-2.728483	-1.115367	1
H	0.498846	-2.306922	0.467673	1
H	-1.521244	-0.320563	-0.837427	1
H	1.122526	0.067757	0.673713	1
H	-0.806734	1.980547	-0.450737	1
H	0.427947	3.712917	0.191343	1
H	2.366326	1.714027	0.983313	1
Es	-1.820673	-2.803269	-0.934188	99
Es	2.231940	2.087663	0.939579	99
Es	1.706075	2.689505	0.422193	99
Es	-1.210404	-2.960779	-0.550610	99
Es	2.064548	2.684382	0.886328	99
Es	0.560238	3.385446	0.242362	99
Es	-0.382117	-0.156298	0.191207	99
Es	-0.498620	-1.298197	-0.192794	99
Es	-1.233477	-0.407261	-0.665082	99
Es	0.159246	1.120752	0.029830	99
Es	0.217734	-2.198707	0.288935	99
Es	-0.057110	-0.187582	-0.371069	99
Es	-0.973284	-2.464422	-0.051603	99
Es	0.075721	1.716960	0.119231	99
Es	0.455677	2.116210	0.119412	99
Es	-0.637108	-2.490531	-0.599230	99
Es	-0.619686	-0.601697	-0.299242	99
Es	0.831609	0.168119	0.499536	99
Es	-0.448475	1.874046	-0.284075	99
Es	0.886456	2.725700	0.375482	99
Es	-0.386964	-2.011253	-0.091447	99
Es	1.476200	2.673656	0.942293	99
Es	-1.071507	-3.673887	-0.430482	99
Es	2.262505	2.961253	0.981786	99
Es	0.064969	1.704933	-0.005460	99
Es	0.219154	0.348689	0.138538	99
41
Properties=species:S:1:pos:R:3:Z:I:1 energy=-302.953768930365 field_type=dipole dipole="0.000000 0.000000 0.000000" charge=0
C	-1.210344	-2.960712	-0.550577	6
C	-0.387034	-2.011363	-0.091477	6
C	-0.619654	-0.601673	-0.299227	6
C	0.219086	0.348417	0.138513	6
N	0.062686	1.704887	-0.004007	7
C	0.886636	2.725827	0.375563	6
N	2.064886	2.684777	0.886483	7
H	-0.996434	-4.009442	-0.367777	1
H	-2.107494	-2.728483	-1.115367	1
H	0.498846	-2.306922	0.467673	1
H	-1.521244	-0.320563	-0.837427	1
H	1.122526	0.067757	0.673713	1
H	-0.806734	1.980547	-0.450737	1
H	0.427947	3.712917	0.191343	1
H	2.366326	1.714027	0.983313	1
Es	-0.454055	1.874834	-0.275606	99
Es	0.217737	-2.198678	0.288945	99
Es	-1.210407	-2.960781	-0.550611	99
Es	2.262423	2.961157	0.982532	99
Es	0.560123	3.385532	0.242471	99
Es	-0.386963	-2.011251	-0.091443	99
Es	-1.820684	-2.803283	-0.934081	99
Es	0.073010	1.705544	-0.005760	99
Es	2.231607	2.087666	0.939744	99
Es	0.886459	2.725701	0.375480	99
Es	0.151612	1.118435	0.046401	99
Es	2.064563	2.684394	0.886333	99
Es	-0.498651	-1.298144	-0.192803	99
Es	-0.619685	-0.601696	-0.299242	99
Es	-0.382039	-0.156094	0.191121	99
Es	1.475820	2.673725	0.941471	99
Es	0.219153	0.348687	0.138540	99
Es	0.445110	2.121704	0.150786	99
Es	0.091479	1.712342	0.063226	99
Es	-1.233419	-0.407287	-0.665265	99
Es	-0.973237	-2.464428	-0.051689	99
Es	-0.637147	-2.490512	-0.599187	99
Es	-0.057332	-0.187582	-0.370952	99
Es	-1.071474	-3.673948	-0.430458	99
Es	1.706944	2.689458	0.421862	99
Es	0.831704	0.167936	0.499620	99
41
Properties=species:S:1:pos:R:3:Z:I:1 energy=-302.953768930365 field_type=dipole dipole="0.000000 0.000000 0.000000" charge=0
C	-1.210344	-2.960712	-0.550577	6
C	-0.387034	-2.011363	-0.091477	6
C	-0.619654	-0.601673	-0.299227	6
C	0.219086	0.348417	0.138513	6
N	0.062686	1.704887	-0.004007	7
C	0.886636	2.725827	0.375563	6
N	2.064886	2.684777	0.886483	7
H	-0.996434	-4.009442	-0.367777	1
H	-2.107494	-2.728483	-1.115367	1
H	0.498846	-2.306922	0.467673	1
H	-1.521244	-0.320563	-0.837427	1
H	1.122526	0.067757	0.673713	1
H	-0.806734	1.980547	-0.450737	1
H	0.427947	3.712917	0.191343	1
H	2.366326	1.714027	0.983313	1
Es	0.560281	3.385543	0.242399	99
Es	-1.820737	-2.803286	-0.934128	99
Es	-1.210403	-2.960776	-0.550610	99
Es	0.831868	0.167844	0.499411	99
Es	0.886454	2.725700	0.375488	99
Es	2.231503	2.087525	0.939506	99
Es	-0.446822	1.873874	-0.285994	99
Es	-0.973197	-2.464485	-0.051650	99
Es	0.066096	1.705064	-0.005174	99
Es	0.219156	0.348689	0.138535	99
Es	1.475459	2.673533	0.941279	99
Es	0.217826	-2.198724	0.288886	99
Es	-0.386967	-2.011252	-0.091443	99
Es	-1.071478	-3.673864	-0.430489	99
Es	-0.619684	-0.601698	-0.299242	99
Es	0.457659	2.114008	0.111326	99
Es	-0.057397	-0.187675	-0.370714	99
Es	2.064554	2.684387	0.886331	99
Es	-0.637178	-2.490476	-0.599185	99
Es	-0.498771	-1.298138	-0.192711	99
Es	2.262055	2.960422	0.983471	99
Es	-1.233324	-0.407295	-0.665354	99
Es	0.069029	1.718029	0.133637	99
Es	-0.382138	-0.155972	0.191168	99
Es	1.707672	2.690547	0.421586	99
Es	0.161135	1.121906	0.025101	99
41
Properties=species:S:1:pos:R:3:Z:I:1 energy=-302.953768930365 field_type=dipole dipole="0.000000 0.000000 0.000000" charge=0
C	-1.210344	-2.960712	-0.550577	6
C	-0.387034	-2.011363	-0.091477	6
C	-0.619654	-0.601673	-0.299227	6
C	0.219086	0.348417	0.138513	6
N	0.062686	1.704887	-0.004007	7
C	0.886636	2.725827	0.375563	6
N	2.064886	2.684777	0.886483	7
H	-0.996434	-4.009442	-0.367777	1
H	-2.107494	-2.728483	-1.115367	1
H	0.498846	-2.306922	0.467673	1
H	-1.521244	-0.320563	-0.837427	1
H	1.122526	0.067757	0.673713	1
H	-0.806734	1.980547	-0.450737	1
H	0.427947	3.712917	0.191343	1
H	2.366326	1.714027	0.983313	1
Es	0.560390	3.385606	0.242294	99
Es	-0.057285	-0.187606	-0.370790	99
Es	-0.382189	-0.156045	0.191160	99
Es	-0.973126	-2.464429	-0.051864	99
Es	0.064115	1.719852	0.150796	99
Es	2.231499	2.087434	0.939359	99
Es	0.219154	0.348686	0.138537	99
Es	-1.210403	-2.960779	-0.550611	99
Es	-0.498790	-1.298104	-0.192753	99
Es	1.707163	2.690405	0.422022	99
Es	1.475637	2.673675	0.941635	99
Es	-1.071437	-3.673881	-0.430384	99
Es	-1.233331	-0.407273	-0.665243	99
Es	0.459727	2.111232	0.101637	99
Es	-0.619687	-0.601696	-0.299237	99
Es	2.262326	2.960464	0.982944	99
Es	0.886456	2.725700	0.375483	99
Es	-0.386967	-2.011255	-0.091446	99
Es	-0.637236	-2.490440	-0.599164	99
Es	2.064558	2.684395	0.886326	99
Es	-1.820777	-2.803302	-0.934135	99
Es	0.831805	0.167844	0.499484	99
Es	0.217799	-2.198815	0.288940	99
Es	0.163389	1.123342	0.019852	99
Es	-0.444989	1.873474	-0.288174	99
Es	0.064851	1.704946	-0.005237	99
41
Properties=species:S:1:pos:R:3:Z:I:1 energy=-302.953768930365 field_type=dipole dipole="0.000000 0.000000 0.000000" charge=0
C	-1.210344	-2.960712	-0.550577	6
C	-0.387034	-2.011363	-0.091477	6
C	-0.619654	-0.601673	-0.299227	6
C	0.219086	0.348417	0.138513	6
N	0.062686	1.704887	-0.004007	7
C	0.886636	2.725827	0.375563	6
N	2.064886	2.684777	0.886483	7
H	-0.996434	-4.009442	-0.367777	1
H	-2.107494	-2.728483	-1.115367	1
H	0.498846	-2.306922	0.467673	1
H	-1.521244	-0.320563	-0.837427	1
H	1.122526	0.067757	0.673713	1
H	-0.806734	1.980547	-0.450737	1
H	0.427947	3.712917	0.191343	1
H	2.366326	1.714027	0.983313	1
Es	0.219154	0.348686	0.138538	99
Es	0.158620	1.120283	0.031543	99
Es	-0.382104	-0.156003	0.191150	99
Es	-1.071430	-3.673885	-0.430439	99
Es	-0.973230	-2.464423	-0.051715	99
Es	2.064547	2.684399	0.886327	99
Es	2.232192	2.087663	0.939640	99
Es	2.261656	2.960576	0.982860	99
Es	-1.233384	-0.407289	-0.665257	99
Es	-0.498755	-1.298095	-0.192802	99
Es	-0.449705	1.874402	-0.282344	99
Es	-0.057329	-0.187605	-0.370862	99
Es	0.217813	-2.198743	0.288912	99
Es	0.560199	3.385696	0.242452	99
Es	0.831817	0.167860	0.499582	99
Es	0.082437	1.714986	0.102608	99
Es	-0.637232	-2.490486	-0.599075	99
Es	1.707347	2.690222	0.421771	99
Es	0.062432	1.705174	-0.000083	99
Es	-0.386972	-2.011256	-0.091440	99
Es	-0.619684	-0.601694	-0.299241	99
Es	-1.210402	-2.960777	-0.550609	99
Es	0.886454	2.725700	0.375485	99
Es	0.453437	2.117824	0.127198	99
Es	-1.820699	-2.803312	-0.934216	99
Es	1.475474	2.673526	0.941451	99
