39
Properties=species:S:1:pos:R:3:Z:I:1 energy=-285.722958812371 field_type=dipole dipole="0.000000 0.000000 0.000000" charge=0
N	-0.114710	0.026186	-1.351153	7
C	-0.037700	-1.090344	-0.361243	6
C	1.202950	-0.652554	0.389937	6
C	1.168340	0.695256	0.419137	6
C	-0.093380	1.101846	-0.313273	6
C	-1.293850	0.631796	0.477417	6
C	-1.259310	-0.716904	0.448137	6
H	0.747750	0.060276	-1.888443	1
H	-0.024790	-2.074394	-0.828613	1
H	1.914490	-1.301054	0.872807	1
H	1.846510	1.357646	0.930427	1
H	-0.131410	2.104776	-0.737673	1
H	-1.996270	1.258276	1.000057	1
H	-1.928620	-1.400804	0.942477	1
Es	-0.093372	1.101725	-0.313316	99
Es	1.621606	1.151931	0.760032	99
Es	-0.425016	0.022749	-1.564637	99
Es	-0.114199	0.026192	-1.350856	99
Es	-0.025314	-1.766819	-0.671884	99
Es	-0.697693	0.921399	0.103097	99
Es	-1.129815	-0.044888	0.742975	99
Es	0.423646	0.046799	-1.663509	99
Es	-1.293803	0.631914	0.477396	99
Es	1.410479	0.033126	0.127450	99
Es	1.059267	0.012244	0.676097	99
Es	-0.059760	-0.476818	-0.928038	99
Es	0.598452	-0.928377	0.036104	99
Es	-0.037697	-1.090222	-0.361280	99
Es	1.679238	-1.099875	0.711125	99
Es	-1.499804	-0.042780	0.212572	99
Es	0.550348	0.955151	0.077120	99
Es	-0.115873	1.790961	-0.594365	99
Es	1.202922	-0.652663	0.389917	99
Es	-1.259259	-0.717017	0.448111	99
Es	-0.649755	-0.959183	0.062014	99
Es	1.168306	0.695364	0.419122	99
Es	-1.761025	1.065642	0.825791	99
Es	-1.703512	-1.188898	0.776939	99
Es	-0.085046	0.513039	-0.906455	99
39
Properties=species:S:1:pos:R:3:Z:I:1 energy=-285.722958812371 field_type=dipole dipole="0.000000 0.000000 0.000000" charge=0
N	-0.114710	0.026186	-1.351153	7
C	-0.037700	-1.090344	-0.361243	6
C	1.202950	-0.652554	0.389937	6
C	1.168340	0.695256	0.419137	6
C	-0.093380	1.101846	-0.313273	6
C	-1.293850	0.631796	0.477417	6
C	-1.259310	-0.716904	0.448137	6
H	0.747750	0.060276	-1.888443	1
H	-0.024790	-2.074394	-0.828613	1
H	1.914490	-1.301054	0.872807	1
H	1.846510	1.357646	0.930427	1
H	-0.131410	2.104776	-0.737673	1
H	-1.996270	1.258276	1.000057	1
H	-1.928620	-1.400804	0.942477	1
Es	-1.703556	-1.188869	0.776872	99
Es	1.679344	-1.099834	0.711110	99
Es	1.059308	0.012233	0.676041	99
Es	-0.059684	-0.476748	-0.928017	99
Es	-0.697549	0.921380	0.103079	99
Es	0.423817	0.046927	-1.662767	99
Es	1.168312	0.695365	0.419111	99
Es	-0.424653	0.022277	-1.565374	99
Es	-0.649683	-0.959254	0.062102	99
Es	-0.115938	1.790996	-0.594250	99
Es	-0.037698	-1.090221	-0.361281	99
Es	-1.259262	-0.717013	0.448106	99
Es	0.550280	0.955189	0.077107	99
Es	-1.499756	-0.042796	0.212663	99
Es	-1.129838	-0.044896	0.743008	99
Es	1.621634	1.151928	0.760027	99
Es	-0.093372	1.101726	-0.313315	99
Es	-0.085659	0.513312	-0.906736	99
Es	-1.293806	0.631909	0.477393	99
Es	-1.761062	1.065635	0.825753	99
Es	0.598357	-0.928428	0.036047	99
Es	-0.114199	0.026193	-1.350819	99
Es	-0.025286	-1.766795	-0.671834	99
Es	1.202922	-0.652659	0.389917	99
Es	1.410349	0.033138	0.127582	99
39
Properties=species:S:1:pos:R:3:Z:I:1 energy=-285.722958812371 field_type=dipole dipole="0.000000 0.000000 0.000000" charge=0
N	-0.114710	0.026186	-1.351153	7
C	-0.037700	-1.090344	-0.361243	6
C	1.202950	-0.652554	0.389937	6
C	1.168340	0.695256	0.419137	6
C	-0.093380	1.101846	-0.313273	6
C	-1.293850	0.631796	0.477417	6
C	-1.259310	-0.716904	0.448137	6
H	0.747750	0.060276	-1.888443	1
H	-0.024790	-2.074394	-0.828613	1
H	1.914490	-1.301054	0.872807	1
H	1.846510	1.357646	0.930427	1
H	-0.131410	2.104776	-0.737673	1
H	-1.996270	1.258276	1.000057	1
H	-1.928620	-1.400804	0.942477	1
Es	-0.060061	-0.477278	-0.928330	99
Es	0.550155	0.955186	0.077125	99
Es	-1.129993	-0.044903	0.742868	99
Es	-1.761043	1.065538	0.825829	99
Es	0.423633	0.046987	-1.663257	99
Es	-0.424234	0.022872	-1.564829	99
Es	0.598262	-0.928519	0.036107	99
Es	1.679323	-1.099746	0.711145	99
Es	-0.697540	0.921547	0.103016	99
Es	1.168308	0.695365	0.419132	99
Es	1.202921	-0.652662	0.389917	99
Es	-1.499713	-0.042792	0.212699	99
Es	-1.703595	-1.188815	0.776934	99
Es	-0.085480	0.513190	-0.906594	99
Es	-0.037698	-1.090222	-0.361280	99
Es	-0.025310	-1.766787	-0.671779	99
Es	1.410346	0.033120	0.127692	99
Es	-0.649579	-0.959296	0.062064	99
Es	1.059499	0.012274	0.675711	99
Es	1.621674	1.151905	0.760210	99
Es	-1.293807	0.631908	0.477392	99
Es	-0.114227	0.026191	-1.350822	99
Es	-1.259251	-0.717000	0.448127	99
Es	-0.115897	1.790908	-0.594237	99
Es	-0.093373	1.101725	-0.313316	99
39
Properties=species:S:1:pos:R:3:Z:I:1 energy=-285.722958812371 field_type=dipole dipole="0.000000 0.000000 0.000000" charge=0
N	-0.114710	0.026186	-1.351153	7
C	-0.037700	-1.090344	-0.361243	6
C	1.202950	-0.652554	0.389937	6
C	1.168340	0.695256	0.419137	6
C	-0.093380	1.101846	-0.313273	6
C	-1.293850	0.631796	0.477417	6
C	-1.259310	-0.716904	0.448137	6
H	0.747750	0.060276	-1.888443	1
H	-0.024790	-2.074394	-0.828613	1
H	1.914490	-1.301054	0.872807	1
H	1.846510	1.357646	0.930427	1
H	-0.131410	2.104776	-0.737673	1
H	-1.996270	1.258276	1.000057	1
H	-1.928620	-1.400804	0.942477	1
Es	-0.093371	1.101727	-0.313315	99
Es	-0.649647	-0.959305	0.061991	99
Es	1.168309	0.695361	0.419120	99
Es	0.598243	-0.928567	0.036084	99
Es	0.423621	0.046894	-1.663180	99
Es	-0.060125	-0.477276	-0.928317	99
Es	-1.703640	-1.188835	0.776955	99
Es	1.410202	0.033133	0.127725	99
Es	1.202930	-0.652655	0.389902	99
Es	1.621724	1.151850	0.760011	99
Es	1.059484	0.012242	0.675933	99
Es	-0.114202	0.026192	-1.350835	99
Es	-1.259262	-0.717009	0.448106	99
Es	-0.697494	0.921608	0.103066	99
Es	1.679380	-1.099764	0.711140	99
Es	-0.424119	0.022870	-1.564878	99
Es	-1.761089	1.065491	0.825830	99
Es	-0.115911	1.790872	-0.594197	99
Es	0.550157	0.955326	0.077132	99
Es	-1.499629	-0.042804	0.212839	99
Es	-0.085463	0.513269	-0.906739	99
Es	-1.293810	0.631907	0.477386	99
Es	-0.025326	-1.766733	-0.671762	99
Es	-1.129943	-0.044876	0.742804	99
Es	-0.037699	-1.090221	-0.361279	99
39
Properties=species:S:1:pos:R:3:Z:I:1 energy=-285.722958812371 field_type=dipole dipole="0.000000 0.000000 0.000000" charge=0
N	-0.114710	0.026186	-1.351153	7
C	-0.037700	-1.090344	-0.361243	6
C	1.202950	-0.652554	0.389937	6
C	1.168340	0.695256	0.419137	6
C	-0.093380	1.101846	-0.313273	6
C	-1.293850	0.631796	0.477417	6
C	-1.259310	-0.716904	0.448137	6
H	0.747750	0.060276	-1.888443	1
H	-0.024790	-2.074394	-0.828613	1
H	1.914490	-1.301054	0.872807	1
H	1.846510	1.357646	0.930427	1
H	-0.131410	2.104776	-0.737673	1
H	-1.996270	1.258276	1.000057	1
H	-1.928620	-1.400804	0.942477	1
Es	-0.093372	1.101725	-0.313316	99
Es	-0.649485	-0.959470	0.061986	99
Es	-0.085661	0.513520	-0.906862	99
Es	1.168307	0.695357	0.419118	99
Es	1.679458	-1.099778	0.710997	99
Es	0.423441	0.046896	-1.663512	99
Es	1.410081	0.033122	0.128057	99
Es	0.550180	0.955344	0.076938	99
Es	-1.130153	-0.044889	0.742618	99
Es	1.202917	-0.652663	0.389918	99
Es	-0.025322	-1.766666	-0.671652	99
Es	-1.259260	-0.717014	0.448108	99
Es	-1.293806	0.631907	0.477392	99
Es	-1.761146	1.065487	0.825888	99
Es	-0.115864	1.790811	-0.594164	99
Es	-0.037698	-1.090221	-0.361281	99
Es	1.621802	1.151860	0.760000	99
Es	-0.697426	0.921677	0.103136	99
Es	-1.499551	-0.042800	0.212815	99
Es	1.059451	0.012244	0.675934	99
Es	-0.423692	0.022823	-1.564511	99
Es	0.598192	-0.928588	0.036147	99
Es	-1.703614	-1.188749	0.777047	99
Es	-0.114198	0.026194	-1.350822	99
Es	-0.060262	-0.477435	-0.928455	99
39
Properties=species:S:1:pos:R:3:Z:I:1 energy=-285.722958812371 field_type=dipole dipole="0.000000 0.000000 0.000000" charge=0
N	-0.114710	0.026186	-1.351153	7
C	-0.037700	-1.090344	-0.361243	6
C	1.202950	-0.652554	0.389937	6
C	1.168340	0.695256	0.419137	6
C	-0.093380	1.101846	-0.313273	6
C	-1.293850	0.631796	0.477417	6
C	-1.259310	-0.716904	0.448137	6
H	0.747750	0.060276	-1.888443	1
H	-0.024790	-2.074394	-0.828613	1
H	1.914490	-1.301054	0.872807	1
H	1.846510	1.357646	0.930427	1
H	-0.131410	2.104776	-0.737673	1
H	-1.996270	1.258276	1.000057	1
H	-1.928620	-1.400804	0.942477	1
Es	1.168306	0.695357	0.419121	99
Es	1.679433	-1.099709	0.711183	99
Es	-0.060401	-0.477651	-0.928626	99
Es	1.621820	1.151800	0.759982	99
Es	-0.093373	1.101727	-0.313316	99
Es	0.550103	0.955404	0.076996	99
Es	-0.423345	0.023037	-1.564317	99
Es	-1.499443	-0.042800	0.212996	99
Es	0.423380	0.046899	-1.663614	99
Es	-0.037698	-1.090221	-0.361280	99
Es	1.202923	-0.652657	0.389913	99
Es	0.598210	-0.928676	0.036007	99
Es	1.410084	0.033117	0.128028	99
Es	-0.114378	0.026189	-1.350895	99
Es	-0.649500	-0.959483	0.062024	99
Es	-1.703710	-1.188719	0.776967	99
Es	-0.115868	1.790805	-0.594098	99
Es	1.059467	0.012246	0.675817	99
Es	-0.025314	-1.766651	-0.671633	99
Es	-0.697376	0.921716	0.103091	99
Es	-0.085617	0.513484	-0.906819	99
Es	-1.259257	-0.717008	0.448115	99
Es	-1.293809	0.631911	0.477388	99
Es	-1.130122	-0.044889	0.742670	99
Es	-1.761195	1.065468	0.825822	99
39
Properties=species:S:1:pos:R:3:Z:I:1 energy=-285.722958812371 field_type=dipole dipole="0.000000 0.000000 0.000000" charge=0
N	-0.114710	0.026186	-1.351153	7
C	-0.037700	-1.090344	-0.361243	6
C	1.202950	-0.652554	0.389937	6
C	1.168340	0.695256	0.419137	6
C	-0.093380	1.101846	-0.313273	6
C	-1.293850	0.631796	0.477417	6
C	-1.259310	-0.716904	0.448137	6
H	0.747750	0.060276	-1.888443	1
H	-0.024790	-2.074394	-0.828613	1
H	1.914490	-1.301054	0.872807	1
H	1.846510	1.357646	0.930427	1
H	-0.131410	2.104776	-0.737673	1
H	-1.996270	1.258276	1.000057	1
H	-1.928620	-1.400804	0.942477	1
Es	0.423337	0.046872	-1.663701	99
Es	1.679461	-1.099699	0.711154	99
Es	-0.093372	1.101724	-0.313316	99
Es	-0.085726	0.513736	-0.907074	99
Es	-1.703785	-1.188688	0.776957	99
Es	-0.115963	1.790748	-0.594010	99
Es	1.621911	1.151799	0.759876	99
Es	1.168307	0.695359	0.419120	99
Es	1.409998	0.033099	0.128325	99
Es	-1.499326	-0.042777	0.213058	99
Es	-1.259259	-0.717011	0.448109	99
Es	-0.025314	-1.766632	-0.671576	99
Es	-0.697370	0.921671	0.103070	99
Es	-1.761245	1.065426	0.825851	99
Es	0.598344	-0.928702	0.035721	99
Es	-1.293806	0.631906	0.477393	99
Es	-0.114178	0.026192	-1.350817	99
Es	-0.649338	-0.959565	0.062207	99
Es	0.550104	0.955523	0.076933	99
Es	-1.130208	-0.044897	0.742564	99
Es	1.059307	0.012257	0.675889	99
Es	-0.037698	-1.090221	-0.361280	99
Es	-0.060500	-0.477594	-0.928582	99
Es	1.202923	-0.652654	0.389916	99
Es	-0.423279	0.022823	-1.564263	99
39
Properties=species:S:1:pos:R:3:Z:I:1 energy=-285.722958812371 field_type=dipole dipole="0.000000 0.000000 0.000000" charge=0
N	-0.114710	0.026186	-1.351153	7
C	-0.037700	-1.090344	-0.361243	6
C	1.202950	-0.652554	0.389937	6
C	1.168340	0.695256	0.419137	6
C	-0.093380	1.101846	-0.313273	6
C	-1.293850	0.631796	0.477417	6
C	-1.259310	-0.716904	0.448137	6
H	0.747750	0.060276	-1.888443	1
H	-0.024790	-2.074394	-0.828613	1
H	1.914490	-1.301054	0.872807	1
H	1.846510	1.357646	0.930427	1
H	-0.131410	2.104776	-0.737673	1
H	-1.996270	1.258276	1.000057	1
H	-1.928620	-1.400804	0.942477	1
Es	-0.060678	-0.477898	-0.928853	99
Es	-1.703778	-1.188637	0.777032	99
Es	-1.761285	1.065390	0.825826	99
Es	0.550029	0.955622	0.077005	99
Es	-1.259262	-0.717007	0.448109	99
Es	-0.423212	0.023313	-1.564286	99
Es	-0.649424	-0.959624	0.061999	99
Es	0.598145	-0.928820	0.035940	99
Es	-0.037699	-1.090221	-0.361280	99
Es	1.621898	1.151716	0.760015	99
Es	-0.085343	0.513558	-0.906889	99
Es	1.679524	-1.099632	0.711197	99
Es	1.409922	0.033111	0.128237	99
Es	-1.130195	-0.044888	0.742516	99
Es	1.202921	-0.652656	0.389917	99
Es	1.059495	0.012252	0.675663	99
Es	-0.115920	1.790698	-0.594065	99
Es	-0.114209	0.026203	-1.350838	99
Es	0.423175	0.046751	-1.663658	99
Es	-1.499284	-0.042790	0.213190	99
Es	-0.025310	-1.766570	-0.671525	99
Es	1.168306	0.695360	0.419126	99
Es	-0.697317	0.921832	0.103067	99
Es	-0.093372	1.101725	-0.313316	99
Es	-1.293806	0.631904	0.477393	99
39
Properties=species:S:1:pos:R:3:Z:I:1 energy=-285.722958812371 field_type=dipole dipole="0.000000 0.000000 0.000000" charge=0
N	-0.114710	0.026186	-1.351153	7
C	-0.037700	-1.090344	-0.361243	6
C	1.202950	-0.652554	0.389937	6
C	1.168340	0.695256	0.419137	6
C	-0.093380	1.101846	-0.313273	6
C	-1.293850	0.631796	0.477417	6
C	-1.259310	-0.716904	0.448137	6
H	0.747750	0.060276	-1.888443	1
H	-0.024790	-2.074394	-0.828613	1
H	1.914490	-1.301054	0.872807	1
H	1.846510	1.357646	0.930427	1
H	-0.131410	2.104776	-0.737673	1
H	-1.996270	1.258276	1.000057	1
H	-1.928620	-1.400804	0.942477	1
Es	-0.115894	1.790719	-0.593987	99
Es	-0.697189	0.921856	0.103116	99
Es	0.423125	0.046837	-1.663994	99
Es	1.679580	-1.099590	0.711213	99
Es	0.598113	-0.928906	0.035924	99
Es	-0.422778	0.022940	-1.563919	99
Es	-0.060542	-0.477877	-0.928763	99
Es	-1.293803	0.631905	0.477395	99
Es	-1.761314	1.065378	0.825781	99
Es	-0.025357	-1.766550	-0.671517	99
Es	1.059547	0.012249	0.675713	99
Es	-0.085845	0.513865	-0.907131	99
Es	-1.259258	-0.717009	0.448112	99
Es	-1.130326	-0.044898	0.742513	99
Es	-0.649340	-0.959611	0.062011	99
Es	-1.499178	-0.042801	0.213270	99
Es	1.168311	0.695357	0.419117	99
Es	-0.114235	0.026191	-1.350828	99
Es	1.409854	0.033105	0.128383	99
Es	1.202922	-0.652654	0.389916	99
Es	-0.093372	1.101724	-0.313315	99
Es	-1.703851	-1.188627	0.776973	99
Es	1.621905	1.151789	0.759889	99
Es	0.549948	0.955522	0.076930	99
Es	-0.037698	-1.090221	-0.361280	99
39
Properties=species:S:1:pos:R:3:Z:I:1 energy=-285.722958812371 field_type=dipole dipole="0.000000 0.000000 0.000000" charge=0
N	-0.114710	0.026186	-1.351153	7
C	-0.037700	-1.090344	-0.361243	6
C	1.202950	-0.652554	0.389937	6
C	1.168340	0.695256	0.419137	6
C	-0.093380	1.101846	-0.313273	6
C	-1.293850	0.631796	0.477417	6
C	-1.259310	-0.716904	0.448137	6
H	0.747750	0.060276	-1.888443	1
H	-0.024790	-2.074394	-0.828613	1
H	1.914490	-1.301054	0.872807	1
H	1.846510	1.357646	0.930427	1
H	-0.131410	2.104776	-0.737673	1
H	-1.996270	1.258276	1.000057	1
H	-1.928620	-1.400804	0.942477	1
Es	-0.115885	1.790676	-0.593952	99
Es	1.679599	-1.099585	0.711185	99
Es	-1.761338	1.065328	0.825841	99
Es	-0.697204	0.921938	0.103056	99
Es	1.168307	0.695355	0.419120	99
Es	-0.085978	0.513962	-0.907191	99
Es	-0.037701	-1.090221	-0.361278	99
Es	0.549898	0.955671	0.076930	99
Es	-1.259258	-0.717008	0.448111	99
Es	0.423108	0.046867	-1.663958	99
Es	-1.130324	-0.044896	0.742424	99
Es	-0.060680	-0.477996	-0.928889	99
Es	-1.499144	-0.042801	0.213365	99
Es	-0.093372	1.101725	-0.313315	99
Es	1.202920	-0.652652	0.389914	99
Es	1.059546	0.012245	0.675626	99
Es	-0.114206	0.026192	-1.350820	99
Es	-0.025314	-1.766522	-0.671464	99
Es	-0.649308	-0.959706	0.061997	99
Es	0.598076	-0.928897	0.035924	99
Es	1.621984	1.151688	0.759959	99
Es	-1.703857	-1.188594	0.777001	99
Es	-1.293804	0.631902	0.477394	99
Es	-0.422504	0.022932	-1.563912	99
Es	1.409759	0.033094	0.128456	99
39
Properties=species:S:1:pos:R:3:Z:I:1 energy=-285.722958812371 field_type=dipole dipole="0.000000 0.000000 0.000000" charge=0
N	-0.114710	0.026186	-1.351153	7
C	-0.037700	-1.090344	-0.361243	6
C	1.202950	-0.652554	0.389937	6
C	1.168340	0.695256	0.419137	6
C	-0.093380	1.101846	-0.313273	6
C	-1.293850	0.631796	0.477417	6
C	-1.259310	-0.716904	0.448137	6
H	0.747750	0.060276	-1.888443	1
H	-0.024790	-2.074394	-0.828613	1
H	1.914490	-1.301054	0.872807	1
H	1.846510	1.357646	0.930427	1
H	-0.131410	2.104776	-0.737673	1
H	-1.996270	1.258276	1.000057	1
H	-1.928620	-1.400804	0.942477	1
Es	-0.085933	0.514036	-0.907240	99
Es	-1.703899	-1.188572	0.776993	99
Es	0.422945	0.046824	-1.664266	99
Es	-1.499050	-0.042796	0.213453	99
Es	-0.025313	-1.766492	-0.671420	99
Es	1.679660	-1.099554	0.711114	99
Es	1.059490	0.012249	0.675629	99
Es	-0.422427	0.022928	-1.563607	99
Es	-0.093372	1.101724	-0.313315	99
Es	-0.115892	1.790640	-0.593931	99
Es	1.622050	1.151652	0.759927	99
Es	0.549945	0.955730	0.076833	99
Es	-0.114222	0.026190	-1.350824	99
Es	-0.697147	0.921990	0.103093	99
Es	-0.037698	-1.090221	-0.361279	99
Es	0.598041	-0.928966	0.035842	99
Es	-1.293805	0.631904	0.477393	99
Es	1.168306	0.695356	0.419121	99
Es	-1.761384	1.065302	0.825838	99
Es	1.409657	0.033093	0.128719	99
Es	1.202921	-0.652654	0.389917	99
Es	-1.130375	-0.044888	0.742366	99
Es	-0.060649	-0.478012	-0.928930	99
Es	-1.259260	-0.717009	0.448109	99
Es	-0.649268	-0.959757	0.061989	99
39
Properties=species:S:1:pos:R:3:Z:I:1 energy=-285.722958812371 field_type=dipole dipole="0.000000 0.000000 0.000000" charge=0
N	-0.114710	0.026186	-1.351153	7
C	-0.037700	-1.090344	-0.361243	6
C	1.202950	-0.652554	0.389937	6
C	1.168340	0.695256	0.419137	6
C	-0.093380	1.101846	-0.313273	6
C	-1.293850	0.631796	0.477417	6
C	-1.259310	-0.716904	0.448137	6
H	0.747750	0.060276	-1.888443	1
H	-0.024790	-2.074394	-0.828613	1
H	1.914490	-1.301054	0.872807	1
H	1.846510	1.357646	0.930427	1
H	-0.131410	2.104776	-0.737673	1
H	-1.996270	1.258276	1.000057	1
H	-1.928620	-1.400804	0.942477	1
Es	-0.422133	0.022956	-1.563361	99
Es	-1.703941	-1.188540	0.776959	99
Es	1.409611	0.033082	0.128651	99
Es	-1.259259	-0.717006	0.448109	99
Es	1.679666	-1.099517	0.711191	99
Es	-1.498978	-0.042793	0.213552	99
Es	1.202920	-0.652654	0.389918	99
Es	-1.293804	0.631903	0.477394	99
Es	-0.025320	-1.766470	-0.671394	99
Es	-0.114214	0.026191	-1.350824	99
Es	-0.093372	1.101724	-0.313315	99
Es	-0.649255	-0.959796	0.061966	99
Es	0.549855	0.955783	0.076905	99
Es	-0.037698	-1.090220	-0.361279	99
Es	0.597982	-0.929016	0.035883	99
Es	-0.060754	-0.478159	-0.929003	99
Es	0.422856	0.046827	-1.664467	99
Es	-1.761414	1.065265	0.825856	99
Es	1.622061	1.151617	0.759971	99
Es	-0.697121	0.922032	0.103039	99
Es	1.168305	0.695355	0.419122	99
Es	-0.085985	0.514151	-0.907324	99
Es	1.059606	0.012252	0.675511	99
Es	-1.130398	-0.044882	0.742340	99
Es	-0.115894	1.790609	-0.593878	99
39
Properties=species:S:1:pos:R:3:Z:I:1 energy=-285.722958812371 field_type=dipole dipole="0.000000 0.000000 0.000000" charge=0
N	-0.114710	0.026186	-1.351153	7
C	-0.037700	-1.090344	-0.361243	6
C	1.202950	-0.652554	0.389937	6
C	1.168340	0.695256	0.419137	6
C	-0.093380	1.101846	-0.313273	6
C	-1.293850	0.631796	0.477417	6
C	-1.259310	-0.716904	0.448137	6
H	0.747750	0.060276	-1.888443	1
H	-0.024790	-2.074394	-0.828613	1
H	1.914490	-1.301054	0.872807	1
H	1.846510	1.357646	0.930427	1
H	-0.131410	2.104776	-0.737673	1
H	-1.996270	1.258276	1.000057	1
H	-1.928620	-1.400804	0.942477	1
Es	-0.025341	-1.766381	-0.671374	99
Es	1.622072	1.151556	0.760004	99
Es	-0.115890	1.790557	-0.593841	99
Es	-0.697156	0.922163	0.103056	99
Es	-1.498875	-0.042775	0.213593	99
Es	1.409622	0.033071	0.128647	99
Es	-0.114229	0.026183	-1.350831	99
Es	-1.293805	0.631901	0.477392	99
Es	-0.060578	-0.478147	-0.929081	99
Es	1.168310	0.695354	0.419115	99
Es	1.059683	0.012272	0.675410	99
Es	-1.704006	-1.188484	0.777005	99
Es	-1.130364	-0.044892	0.742249	99
Es	-0.085901	0.514183	-0.907338	99
Es	-1.761466	1.065159	0.825871	99
Es	-0.093372	1.101725	-0.313316	99
Es	-0.422214	0.022890	-1.563516	99
Es	1.679647	-1.099512	0.711243	99
Es	-0.037699	-1.090222	-0.361279	99
Es	1.202911	-0.652638	0.389934	99
Es	0.597982	-0.929072	0.035893	99
Es	0.422722	0.046862	-1.664324	99
Es	-0.649226	-0.959923	0.061960	99
Es	-1.259261	-0.717007	0.448108	99
Es	0.549758	0.955872	0.076944	99
39
Properties=species:S:1:pos:R:3:Z:I:1 energy=-285.722958812371 field_type=dipole dipole="0.000000 0.000000 0.000000" charge=0
N	-0.114710	0.026186	-1.351153	7
C	-0.037700	-1.090344	-0.361243	6
C	1.202950	-0.652554	0.389937	6
C	1.168340	0.695256	0.419137	6
C	-0.093380	1.101846	-0.313273	6
C	-1.293850	0.631796	0.477417	6
C	-1.259310	-0.716904	0.448137	6
H	0.747750	0.060276	-1.888443	1
H	-0.024790	-2.074394	-0.828613	1
H	1.914490	-1.301054	0.872807	1
H	1.846510	1.357646	0.930427	1
H	-0.131410	2.104776	-0.737673	1
H	-1.996270	1.258276	1.000057	1
H	-1.928620	-1.400804	0.942477	1
Es	-1.259259	-0.717006	0.448110	99
Es	1.409483	0.033083	0.128851	99
Es	1.679709	-1.099438	0.711118	99
Es	-0.060793	-0.478411	-0.929186	99
Es	-1.704038	-1.188476	0.776992	99
Es	-0.085855	0.514059	-0.907409	99
Es	0.597856	-0.929122	0.035764	99
Es	-1.130532	-0.044893	0.742167	99
Es	-0.115885	1.790540	-0.593842	99
Es	0.549744	0.955921	0.076938	99
Es	-1.761492	1.065188	0.825861	99
Es	-0.114222	0.026194	-1.350833	99
Es	-0.037698	-1.090220	-0.361279	99
Es	-1.498806	-0.042794	0.213668	99
Es	-0.697018	0.922198	0.103026	99
Es	1.202920	-0.652652	0.389917	99
Es	-0.025319	-1.766439	-0.671267	99
Es	-0.649163	-0.959845	0.062042	99
Es	-0.093372	1.101724	-0.313315	99
Es	1.622131	1.151566	0.759924	99
Es	0.422689	0.046868	-1.664644	99
Es	1.059675	0.012227	0.675543	99
Es	-0.421936	0.023167	-1.563139	99
Es	-1.293804	0.631903	0.477393	99
Es	1.168305	0.695353	0.419123	99
39
Properties=species:S:1:pos:R:3:Z:I:1 energy=-285.722958812371 field_type=dipole dipole="0.000000 0.000000 0.000000" charge=0
N	-0.114710	0.026186	-1.351153	7
C	-0.037700	-1.090344	-0.361243	6
C	1.202950	-0.652554	0.389937	6
C	1.168340	0.695256	0.419137	6
C	-0.093380	1.101846	-0.313273	6
C	-1.293850	0.631796	0.477417	6
C	-1.259310	-0.716904	0.448137	6
H	0.747750	0.060276	-1.888443	1
H	-0.024790	-2.074394	-0.828613	1
H	1.914490	-1.301054	0.872807	1
H	1.846510	1.357646	0.930427	1
H	-0.131410	2.104776	-0.737673	1
H	-1.996270	1.258276	1.000057	1
H	-1.928620	-1.400804	0.942477	1
Es	-1.761555	1.065118	0.825823	99
Es	-0.696923	0.922298	0.103145	99
Es	-0.114222	0.026186	-1.350814	99
Es	-0.649117	-0.959912	0.061972	99
Es	-0.115851	1.790503	-0.593762	99
Es	1.202920	-0.652652	0.389918	99
Es	-0.060362	-0.478192	-0.929161	99
Es	-0.037699	-1.090223	-0.361279	99
Es	1.168305	0.695354	0.419122	99
Es	1.679749	-1.099448	0.711083	99
Es	1.409441	0.033087	0.128942	99
Es	-1.703935	-1.188490	0.776986	99
Es	1.059728	0.012274	0.675472	99
Es	-1.498832	-0.042799	0.213747	99
Es	0.549723	0.955923	0.076734	99
Es	1.622135	1.151511	0.759977	99
Es	-0.085984	0.514202	-0.907499	99
Es	-1.259259	-0.717006	0.448109	99
Es	-1.293806	0.631900	0.477390	99
Es	-1.130569	-0.044876	0.742218	99
Es	-0.422108	0.022834	-1.562790	99
Es	-0.025321	-1.766362	-0.671273	99
Es	0.422400	0.046926	-1.665077	99
Es	-0.093372	1.101724	-0.313315	99
Es	0.597833	-0.929182	0.035855	99
39
Properties=species:S:1:pos:R:3:Z:I:1 energy=-285.722958812371 field_type=dipole dipole="0.000000 0.000000 0.000000" charge=0
N	-0.114710	0.026186	-1.351153	7
C	-0.037700	-1.090344	-0.361243	6
C	1.202950	-0.652554	0.389937	6
C	1.168340	0.695256	0.419137	6
C	-0.093380	1.101846	-0.313273	6
C	-1.293850	0.631796	0.477417	6
C	-1.259310	-0.716904	0.448137	6
H	0.747750	0.060276	-1.888443	1
H	-0.024790	-2.074394	-0.828613	1
H	1.914490	-1.301054	0.872807	1
H	1.846510	1.357646	0.930427	1
H	-0.131410	2.104776	-0.737673	1
H	-1.996270	1.258276	1.000057	1
H	-1.928620	-1.400804	0.942477	1
Es	-1.761566	1.065139	0.825876	99
Es	-0.086194	0.514425	-0.907588	99
Es	-0.649039	-0.959996	0.061942	99
Es	-0.115883	1.790481	-0.593725	99
Es	-1.498662	-0.042794	0.213908	99
Es	0.549689	0.955976	0.076810	99
Es	-0.114209	0.026191	-1.350825	99
Es	-0.093371	1.101727	-0.313314	99
Es	0.597851	-0.929213	0.035774	99
Es	0.422493	0.046913	-1.664980	99
Es	-0.060777	-0.478440	-0.929279	99
Es	-1.259260	-0.717006	0.448107	99
Es	1.168306	0.695355	0.419119	99
Es	1.409308	0.033071	0.129069	99
Es	-0.037699	-1.090221	-0.361278	99
Es	1.202919	-0.652651	0.389918	99
Es	-1.130610	-0.044886	0.742000	99
Es	1.059690	0.012267	0.675345	99
Es	-0.025332	-1.766364	-0.671230	99
Es	1.679803	-1.099414	0.711157	99
Es	-0.421502	0.022882	-1.562759	99
Es	-1.293806	0.631902	0.477394	99
Es	-0.696954	0.922241	0.103036	99
Es	1.622205	1.151513	0.759971	99
Es	-1.704077	-1.188402	0.777077	99
39
Properties=species:S:1:pos:R:3:Z:I:1 energy=-285.722958812371 field_type=dipole dipole="0.000000 0.000000 0.000000" charge=0
N	-0.114710	0.026186	-1.351153	7
C	-0.037700	-1.090344	-0.361243	6
C	1.202950	-0.652554	0.389937	6
C	1.168340	0.695256	0.419137	6
C	-0.093380	1.101846	-0.313273	6
C	-1.293850	0.631796	0.477417	6
C	-1.259310	-0.716904	0.448137	6
H	0.747750	0.060276	-1.888443	1
H	-0.024790	-2.074394	-0.828613	1
H	1.914490	-1.301054	0.872807	1
H	1.846510	1.357646	0.930427	1
H	-0.131410	2.104776	-0.737673	1
H	-1.996270	1.258276	1.000057	1
H	-1.928620	-1.400804	0.942477	1
Es	-0.421638	0.022986	-1.562841	99
Es	-0.696915	0.922256	0.103000	99
Es	-1.498579	-0.042775	0.213947	99
Es	1.168306	0.695353	0.419122	99
Es	1.679833	-1.099356	0.711151	99
Es	0.597760	-0.929315	0.035786	99
Es	-0.085944	0.514401	-0.907666	99
Es	-1.704143	-1.188351	0.776992	99
Es	1.202920	-0.652650	0.389917	99
Es	0.549661	0.956072	0.076830	99
Es	-0.025339	-1.766328	-0.671235	99
Es	-1.761586	1.065139	0.825890	99
Es	-1.259261	-0.717004	0.448102	99
Es	-1.130618	-0.044884	0.742025	99
Es	0.422328	0.046861	-1.664913	99
Es	-0.037698	-1.090221	-0.361279	99
Es	1.409241	0.033063	0.129143	99
Es	-0.093372	1.101725	-0.313315	99
Es	-0.649010	-0.960091	0.061962	99
Es	-1.293805	0.631900	0.477392	99
Es	-0.114210	0.026190	-1.350832	99
Es	1.622243	1.151462	0.759955	99
Es	1.059726	0.012259	0.675324	99
Es	-0.060661	-0.478457	-0.929223	99
Es	-0.115917	1.790460	-0.593714	99
39
Properties=species:S:1:pos:R:3:Z:I:1 energy=-285.722958812371 field_type=dipole dipole="0.000000 0.000000 0.000000" charge=0
N	-0.114710	0.026186	-1.351153	7
C	-0.037700	-1.090344	-0.361243	6
C	1.202950	-0.652554	0.389937	6
C	1.168340	0.695256	0.419137	6
C	-0.093380	1.101846	-0.313273	6
C	-1.293850	0.631796	0.477417	6
C	-1.259310	-0.716904	0.448137	6
H	0.747750	0.060276	-1.888443	1
H	-0.024790	-2.074394	-0.828613	1
H	1.914490	-1.301054	0.872807	1
H	1.846510	1.357646	0.930427	1
H	-0.131410	2.104776	-0.737673	1
H	-1.996270	1.258276	1.000057	1
H	-1.928620	-1.400804	0.942477	1
Es	-0.114216	0.026200	-1.350847	99
Es	-1.293803	0.631899	0.477393	99
Es	-1.761602	1.065047	0.825925	99
Es	0.597810	-0.929328	0.035685	99
Es	0.549668	0.956076	0.076797	99
Es	-0.421112	0.023096	-1.562577	99
Es	1.622224	1.151458	0.760025	99
Es	-0.115924	1.790417	-0.593654	99
Es	-0.025363	-1.766325	-0.671147	99
Es	-1.259258	-0.717004	0.448110	99
Es	-0.696803	0.922356	0.103082	99
Es	-0.037698	-1.090220	-0.361279	99
Es	0.422384	0.046885	-1.665063	99
Es	1.679890	-1.099335	0.711162	99
Es	-1.498516	-0.042792	0.213922	99
Es	-0.648897	-0.960057	0.062023	99
Es	-0.061059	-0.478714	-0.929486	99
Es	-0.093373	1.101724	-0.313315	99
Es	1.202920	-0.652651	0.389917	99
Es	1.059704	0.012265	0.675213	99
Es	-0.086202	0.514498	-0.907660	99
Es	-1.704150	-1.188347	0.777074	99
Es	-1.130802	-0.044888	0.741868	99
Es	1.409201	0.033079	0.129219	99
Es	1.168298	0.695354	0.419137	99
39
Properties=species:S:1:pos:R:3:Z:I:1 energy=-285.722958812371 field_type=dipole dipole="0.000000 0.000000 0.000000" charge=0
N	-0.114710	0.026186	-1.351153	7
C	-0.037700	-1.090344	-0.361243	6
C	1.202950	-0.652554	0.389937	6
C	1.168340	0.695256	0.419137	6
C	-0.093380	1.101846	-0.313273	6
C	-1.293850	0.631796	0.477417	6
C	-1.259310	-0.716904	0.448137	6
H	0.747750	0.060276	-1.888443	1
H	-0.024790	-2.074394	-0.828613	1
H	1.914490	-1.301054	0.872807	1
H	1.846510	1.357646	0.930427	1
H	-0.131410	2.104776	-0.737673	1
H	-1.996270	1.258276	1.000057	1
H	-1.928620	-1.400804	0.942477	1
Es	-0.061213	-0.478573	-0.929538	99
Es	-0.037698	-1.090220	-0.361279	99
Es	-1.259259	-0.717002	0.448109	99
Es	-0.115875	1.790423	-0.593646	99
Es	1.168305	0.695349	0.419121	99
Es	-0.086091	0.514522	-0.907688	99
Es	-1.130507	-0.044912	0.741700	99
Es	-1.761600	1.064969	0.826060	99
Es	1.059743	0.012277	0.675258	99
Es	0.422468	0.046713	-1.665130	99
Es	1.202920	-0.652651	0.389918	99
Es	-1.498470	-0.042785	0.214243	99
Es	0.597764	-0.929354	0.035685	99
Es	1.679900	-1.099361	0.711126	99
Es	-0.093373	1.101724	-0.313315	99
Es	-0.025413	-1.766330	-0.671113	99
Es	-1.293802	0.631898	0.477393	99
Es	1.409068	0.033060	0.129353	99
Es	-0.697042	0.922484	0.102827	99
Es	-0.421073	0.023115	-1.562493	99
Es	0.549552	0.956046	0.076810	99
Es	1.622320	1.151493	0.759934	99
Es	-0.114199	0.026202	-1.350859	99
Es	-0.648887	-0.960019	0.061925	99
Es	-1.704217	-1.188372	0.777121	99
39
Properties=species:S:1:pos:R:3:Z:I:1 energy=-285.722958812371 field_type=dipole dipole="0.000000 0.000000 0.000000" charge=0
N	-0.114710	0.026186	-1.351153	7
C	-0.037700	-1.090344	-0.361243	6
C	1.202950	-0.652554	0.389937	6
C	1.168340	0.695256	0.419137	6
C	-0.093380	1.101846	-0.313273	6
C	-1.293850	0.631796	0.477417	6
C	-1.259310	-0.716904	0.448137	6
H	0.747750	0.060276	-1.888443	1
H	-0.024790	-2.074394	-0.828613	1
H	1.914490	-1.301054	0.872807	1
H	1.846510	1.357646	0.930427	1
H	-0.131410	2.104776	-0.737673	1
H	-1.996270	1.258276	1.000057	1
H	-1.928620	-1.400804	0.942477	1
Es	1.059745	0.012268	0.675137	99
Es	0.549559	0.956192	0.076734	99
Es	-1.293804	0.631900	0.477393	99
Es	-0.114234	0.026197	-1.350805	99
Es	-1.130715	-0.044902	0.741962	99
Es	1.202920	-0.652651	0.389917	99
Es	1.168305	0.695353	0.419121	99
Es	-0.037698	-1.090220	-0.361279	99
Es	-1.704252	-1.188298	0.776960	99
Es	0.597752	-0.929435	0.035659	99
Es	-1.498340	-0.042791	0.214209	99
Es	1.622324	1.151412	0.759965	99
Es	-1.259259	-0.717002	0.448110	99
Es	1.409063	0.033055	0.129418	99
Es	-0.648843	-0.960191	0.061963	99
Es	-0.025360	-1.766260	-0.671124	99
Es	-0.086096	0.514373	-0.907771	99
Es	-0.421241	0.022996	-1.562089	99
Es	-0.060687	-0.478632	-0.929472	99
Es	-1.761697	1.065007	0.825827	99
Es	-0.115902	1.790350	-0.593624	99
Es	-0.093372	1.101724	-0.313315	99
Es	0.422052	0.047044	-1.665646	99
Es	1.679905	-1.099280	0.711219	99
Es	-0.696806	0.922487	0.103055	99
