45
Properties=species:S:1:pos:R:3:Z:I:1 energy=-288.14258635368395 field_type=dipole dipole="0.000000 0.000000 0.000000" charge=0
N	-2.050190	-0.099224	0.720003	7
C	-0.624580	-0.188604	1.022323	6
C	0.113590	1.098316	0.601323	6
C	0.487170	1.120136	-0.877967	6
C	1.294060	-0.114764	-1.285727	6
C	0.792600	-1.385614	-0.668107	6
C	-0.078420	-1.414434	0.350323	6
H	-2.444470	0.710996	1.194213	1
H	-2.524120	-0.911054	1.112213	1
H	-0.512680	-0.302914	2.107173	1
H	-0.489800	1.984486	0.844283	1
H	1.031450	1.187136	1.200693	1
H	1.073920	2.023715	-1.097147	1
H	-0.420910	1.181896	-1.484567	1
H	2.343620	0.014366	-0.999677	1
H	1.267690	-0.207284	-2.377867	1
H	1.153840	-2.320344	-1.090967	1
H	-0.412770	-2.376804	0.729483	1
Es	0.891814	0.493266	-1.072332	99
Es	-2.108214	-0.074777	0.372827	99
Es	-0.536535	-0.273350	1.772203	99
Es	-0.259666	0.453420	0.799387	99
Es	-0.316375	-2.066485	0.618331	99
Es	0.792684	-1.385588	-0.668198	99
Es	0.104726	-1.398933	-0.363262	99
Es	2.005957	-0.033476	-1.083446	99
Es	1.274476	-0.184795	-2.026559	99
Es	-2.326773	-0.590601	0.975752	99
Es	-0.131717	1.157886	-1.290790	99
Es	0.892615	1.739532	-1.025132	99
Es	1.294032	-0.114786	-1.285695	99
Es	-0.624693	-0.188600	1.022250	99
Es	0.113581	1.098287	0.601310	99
Es	-0.345699	-0.803138	0.679752	99
Es	0.487196	1.120102	-0.877933	99
Es	0.745604	1.151942	1.010895	99
Es	1.044783	-2.018705	-0.961614	99
Es	-1.437405	-0.139333	0.870726	99
Es	-2.278571	0.386154	1.029674	99
Es	-0.308249	1.701123	0.770322	99
Es	0.605077	-1.402169	0.066613	99
Es	-0.078490	-1.414422	0.350417	99
Es	1.038040	-0.751628	-0.972882	99
Es	-2.050111	-0.099247	0.720593	99
Es	0.297568	1.103666	-0.135969	99
45
Properties=species:S:1:pos:R:3:Z:I:1 energy=-288.14258635368395 field_type=dipole dipole="0.000000 0.000000 0.000000" charge=0
N	-2.050190	-0.099224	0.720003	7
C	-0.624580	-0.188604	1.022323	6
C	0.113590	1.098316	0.601323	6
C	0.487170	1.120136	-0.877967	6
C	1.294060	-0.114764	-1.285727	6
C	0.792600	-1.385614	-0.668107	6
C	-0.078420	-1.414434	0.350323	6
H	-2.444470	0.710996	1.194213	1
H	-2.524120	-0.911054	1.112213	1
H	-0.512680	-0.302914	2.107173	1
H	-0.489800	1.984486	0.844283	1
H	1.031450	1.187136	1.200693	1
H	1.073920	2.023715	-1.097147	1
H	-0.420910	1.181896	-1.484567	1
H	2.343620	0.014366	-0.999677	1
H	1.267690	-0.207284	-2.377867	1
H	1.153840	-2.320344	-1.090967	1
H	-0.412770	-2.376804	0.729483	1
Es	1.044837	-2.018757	-0.961549	99
Es	0.297609	1.103816	-0.135924	99
Es	0.605066	-1.402051	0.066581	99
Es	-0.131611	1.157997	-1.290821	99
Es	0.792684	-1.385589	-0.668194	99
Es	-2.108467	-0.074891	0.372958	99
Es	-0.345810	-0.803199	0.679834	99
Es	-2.050097	-0.099253	0.720579	99
Es	-0.624691	-0.188599	1.022250	99
Es	-1.437175	-0.139525	0.870618	99
Es	1.294036	-0.114786	-1.285695	99
Es	0.891679	0.493135	-1.072400	99
Es	1.274409	-0.184861	-2.026529	99
Es	-0.259577	0.453275	0.799317	99
Es	0.113581	1.098289	0.601310	99
Es	0.892587	1.739440	-1.025114	99
Es	2.006109	-0.033454	-1.083364	99
Es	-0.308266	1.700913	0.770220	99
Es	0.745503	1.152155	1.011038	99
Es	-2.278493	0.386203	1.029596	99
Es	0.104765	-1.398908	-0.363198	99
Es	1.038086	-0.751515	-0.973018	99
Es	-0.078483	-1.414424	0.350415	99
Es	-0.536542	-0.273314	1.772173	99
Es	0.487198	1.120102	-0.877932	99
Es	-0.316400	-2.066528	0.618282	99
Es	-2.326880	-0.590320	0.975806	99
45
Properties=species:S:1:pos:R:3:Z:I:1 energy=-288.14258635368395 field_type=dipole dipole="0.000000 0.000000 0.000000" charge=0
N	-2.050190	-0.099224	0.720003	7
C	-0.624580	-0.188604	1.022323	6
C	0.113590	1.098316	0.601323	6
C	0.487170	1.120136	-0.877967	6
C	1.294060	-0.114764	-1.285727	6
C	0.792600	-1.385614	-0.668107	6
C	-0.078420	-1.414434	0.350323	6
H	-2.444470	0.710996	1.194213	1
H	-2.524120	-0.911054	1.112213	1
H	-0.512680	-0.302914	2.107173	1
H	-0.489800	1.984486	0.844283	1
H	1.031450	1.187136	1.200693	1
H	1.073920	2.023715	-1.097147	1
H	-0.420910	1.181896	-1.484567	1
H	2.343620	0.014366	-0.999677	1
H	1.267690	-0.207284	-2.377867	1
H	1.153840	-2.320344	-1.090967	1
H	-0.412770	-2.376804	0.729483	1
Es	-0.308284	1.700932	0.770262	99
Es	1.294033	-0.114786	-1.285695	99
Es	0.604866	-1.402166	0.066391	99
Es	-0.345785	-0.802996	0.679883	99
Es	-0.536463	-0.273393	1.772131	99
Es	-2.050117	-0.099234	0.720577	99
Es	-0.131591	1.157895	-1.290770	99
Es	-0.259543	0.453318	0.799312	99
Es	-2.278524	0.386129	1.029534	99
Es	1.044794	-2.018774	-0.961533	99
Es	-0.624690	-0.188599	1.022250	99
Es	-0.078488	-1.414423	0.350418	99
Es	1.274554	-0.184865	-2.026572	99
Es	1.038161	-0.751450	-0.973036	99
Es	-2.108517	-0.075061	0.372665	99
Es	0.104868	-1.398957	-0.363099	99
Es	-1.437247	-0.139505	0.870849	99
Es	0.792683	-1.385590	-0.668195	99
Es	0.891740	0.493310	-1.072350	99
Es	-0.316356	-2.066564	0.618271	99
Es	-2.326768	-0.590137	0.975992	99
Es	0.487195	1.120104	-0.877935	99
Es	0.745527	1.152128	1.011004	99
Es	2.005946	-0.033576	-1.083348	99
Es	0.297583	1.103824	-0.135900	99
Es	0.113583	1.098288	0.601310	99
Es	0.892497	1.739499	-1.025179	99
45
Properties=species:S:1:pos:R:3:Z:I:1 energy=-288.14258635368395 field_type=dipole dipole="0.000000 0.000000 0.000000" charge=0
N	-2.050190	-0.099224	0.720003	7
C	-0.624580	-0.188604	1.022323	6
C	0.113590	1.098316	0.601323	6
C	0.487170	1.120136	-0.877967	6
C	1.294060	-0.114764	-1.285727	6
C	0.792600	-1.385614	-0.668107	6
C	-0.078420	-1.414434	0.350323	6
H	-2.444470	0.710996	1.194213	1
H	-2.524120	-0.911054	1.112213	1
H	-0.512680	-0.302914	2.107173	1
H	-0.489800	1.984486	0.844283	1
H	1.031450	1.187136	1.200693	1
H	1.073920	2.023715	-1.097147	1
H	-0.420910	1.181896	-1.484567	1
H	2.343620	0.014366	-0.999677	1
H	1.267690	-0.207284	-2.377867	1
H	1.153840	-2.320344	-1.090967	1
H	-0.412770	-2.376804	0.729483	1
Es	-0.346051	-0.803100	0.679907	99
Es	1.044794	-2.018836	-0.961496	99
Es	-0.078490	-1.414422	0.350416	99
Es	0.297563	1.103846	-0.135930	99
Es	0.745498	1.152083	1.010996	99
Es	-0.308263	1.700947	0.770297	99
Es	-1.436981	-0.139442	0.870580	99
Es	-2.050101	-0.099252	0.720558	99
Es	0.487198	1.120101	-0.877932	99
Es	0.892480	1.739479	-1.025214	99
Es	0.792680	-1.385588	-0.668192	99
Es	0.113584	1.098291	0.601311	99
Es	1.038182	-0.751288	-0.973069	99
Es	-0.259463	0.453389	0.799367	99
Es	0.891656	0.493238	-1.072413	99
Es	0.604893	-1.402117	0.066411	99
Es	-2.278602	0.386232	1.029346	99
Es	-0.536534	-0.273395	1.772076	99
Es	0.105012	-1.399058	-0.363017	99
Es	-0.316261	-2.066514	0.618178	99
Es	1.294032	-0.114786	-1.285696	99
Es	-2.326909	-0.590242	0.975890	99
Es	-0.131546	1.157929	-1.290737	99
Es	-0.624695	-0.188598	1.022248	99
Es	1.274539	-0.184938	-2.026537	99
Es	-2.108570	-0.075064	0.373214	99
Es	2.006012	-0.033546	-1.083324	99
45
Properties=species:S:1:pos:R:3:Z:I:1 energy=-288.14258635368395 field_type=dipole dipole="0.000000 0.000000 0.000000" charge=0
N	-2.050190	-0.099224	0.720003	7
C	-0.624580	-0.188604	1.022323	6
C	0.113590	1.098316	0.601323	6
C	0.487170	1.120136	-0.877967	6
C	1.294060	-0.114764	-1.285727	6
C	0.792600	-1.385614	-0.668107	6
C	-0.078420	-1.414434	0.350323	6
H	-2.444470	0.710996	1.194213	1
H	-2.524120	-0.911054	1.112213	1
H	-0.512680	-0.302914	2.107173	1
H	-0.489800	1.984486	0.844283	1
H	1.031450	1.187136	1.200693	1
H	1.073920	2.023715	-1.097147	1
H	-0.420910	1.181896	-1.484567	1
H	2.343620	0.014366	-0.999677	1
H	1.267690	-0.207284	-2.377867	1
H	1.153840	-2.320344	-1.090967	1
H	-0.412770	-2.376804	0.729483	1
Es	0.113583	1.098290	0.601313	99
Es	1.274578	-0.184907	-2.026499	99
Es	-0.131559	1.157944	-1.290690	99
Es	-0.536522	-0.273499	1.771944	99
Es	0.105070	-1.399139	-0.362928	99
Es	0.792687	-1.385586	-0.668193	99
Es	-0.078472	-1.414423	0.350418	99
Es	1.038115	-0.751351	-0.973136	99
Es	-0.308235	1.700945	0.770227	99
Es	0.891674	0.493264	-1.072398	99
Es	0.297612	1.103872	-0.135906	99
Es	0.604788	-1.402245	0.066349	99
Es	-0.624689	-0.188599	1.022250	99
Es	1.294032	-0.114787	-1.285696	99
Es	-0.316304	-2.066585	0.618270	99
Es	-2.050104	-0.099247	0.720603	99
Es	-2.108595	-0.075117	0.373382	99
Es	1.044760	-2.018732	-0.961585	99
Es	-0.259408	0.453357	0.799516	99
Es	0.745466	1.152203	1.010933	99
Es	0.487196	1.120102	-0.877933	99
Es	0.892423	1.739484	-1.025207	99
Es	2.005965	-0.033580	-1.083377	99
Es	-2.326939	-0.590247	0.975854	99
Es	-1.437021	-0.139533	0.870442	99
Es	-0.345850	-0.802864	0.679953	99
Es	-2.278596	0.386327	1.029333	99
45
Properties=species:S:1:pos:R:3:Z:I:1 energy=-288.14258635368395 field_type=dipole dipole="0.000000 0.000000 0.000000" charge=0
N	-2.050190	-0.099224	0.720003	7
C	-0.624580	-0.188604	1.022323	6
C	0.113590	1.098316	0.601323	6
C	0.487170	1.120136	-0.877967	6
C	1.294060	-0.114764	-1.285727	6
C	0.792600	-1.385614	-0.668107	6
C	-0.078420	-1.414434	0.350323	6
H	-2.444470	0.710996	1.194213	1
H	-2.524120	-0.911054	1.112213	1
H	-0.512680	-0.302914	2.107173	1
H	-0.489800	1.984486	0.844283	1
H	1.031450	1.187136	1.200693	1
H	1.073920	2.023715	-1.097147	1
H	-0.420910	1.181896	-1.484567	1
H	2.343620	0.014366	-0.999677	1
H	1.267690	-0.207284	-2.377867	1
H	1.153840	-2.320344	-1.090967	1
H	-0.412770	-2.376804	0.729483	1
Es	-2.108229	-0.074493	0.373081	99
Es	0.604482	-1.402137	0.065984	99
Es	-1.437240	-0.139547	0.870983	99
Es	0.792682	-1.385589	-0.668190	99
Es	0.105086	-1.399183	-0.362875	99
Es	-0.308094	1.700810	0.770173	99
Es	-2.278497	0.385914	1.029499	99
Es	-0.624692	-0.188600	1.022250	99
Es	1.274675	-0.184891	-2.026495	99
Es	0.297614	1.103898	-0.135975	99
Es	0.745364	1.152263	1.011058	99
Es	-0.536461	-0.273450	1.772001	99
Es	-0.345791	-0.802793	0.680000	99
Es	0.892413	1.739470	-1.025194	99
Es	0.487196	1.120103	-0.877933	99
Es	1.038234	-0.751224	-0.973225	99
Es	-2.327200	-0.590527	0.975485	99
Es	0.891632	0.493292	-1.072461	99
Es	-0.078494	-1.414420	0.350413	99
Es	-2.050103	-0.099246	0.720569	99
Es	2.005940	-0.033651	-1.083290	99
Es	-0.131448	1.157994	-1.290696	99
Es	-0.259565	0.453367	0.799452	99
Es	1.294032	-0.114786	-1.285697	99
Es	-0.316247	-2.066626	0.618397	99
Es	0.113583	1.098289	0.601311	99
Es	1.044784	-2.018888	-0.961386	99
45
Properties=species:S:1:pos:R:3:Z:I:1 energy=-288.14258635368395 field_type=dipole dipole="0.000000 0.000000 0.000000" charge=0
N	-2.050190	-0.099224	0.720003	7
C	-0.624580	-0.188604	1.022323	6
C	0.113590	1.098316	0.601323	6
C	0.487170	1.120136	-0.877967	6
C	1.294060	-0.114764	-1.285727	6
C	0.792600	-1.385614	-0.668107	6
C	-0.078420	-1.414434	0.350323	6
H	-2.444470	0.710996	1.194213	1
H	-2.524120	-0.911054	1.112213	1
H	-0.512680	-0.302914	2.107173	1
H	-0.489800	1.984486	0.844283	1
H	1.031450	1.187136	1.200693	1
H	1.073920	2.023715	-1.097147	1
H	-0.420910	1.181896	-1.484567	1
H	2.343620	0.014366	-0.999677	1
H	1.267690	-0.207284	-2.377867	1
H	1.153840	-2.320344	-1.090967	1
H	-0.412770	-2.376804	0.729483	1
Es	-0.316329	-2.066661	0.618123	99
Es	-0.131413	1.157983	-1.290714	99
Es	1.038298	-0.751144	-0.973133	99
Es	0.297539	1.104066	-0.135909	99
Es	-0.078488	-1.414422	0.350415	99
Es	1.274556	-0.184962	-2.026496	99
Es	-0.259552	0.453352	0.799430	99
Es	1.044688	-2.018917	-0.961453	99
Es	0.113583	1.098290	0.601311	99
Es	0.892322	1.739382	-1.025264	99
Es	-2.278760	0.386341	1.029153	99
Es	0.792681	-1.385589	-0.668195	99
Es	0.891715	0.493314	-1.072466	99
Es	-2.327024	-0.590247	0.975702	99
Es	0.745418	1.152218	1.011042	99
Es	2.005990	-0.033643	-1.083382	99
Es	-0.536441	-0.273480	1.772012	99
Es	0.487197	1.120101	-0.877935	99
Es	0.604450	-1.402337	0.066069	99
Es	-2.108528	-0.075150	0.373674	99
Es	-0.308097	1.700759	0.770281	99
Es	-2.050107	-0.099250	0.720575	99
Es	-1.436842	-0.139533	0.870535	99
Es	0.105394	-1.399050	-0.362687	99
Es	1.294033	-0.114786	-1.285697	99
Es	-0.345939	-0.802685	0.679995	99
Es	-0.624689	-0.188600	1.022252	99
45
Properties=species:S:1:pos:R:3:Z:I:1 energy=-288.14258635368395 field_type=dipole dipole="0.000000 0.000000 0.000000" charge=0
N	-2.050190	-0.099224	0.720003	7
C	-0.624580	-0.188604	1.022323	6
C	0.113590	1.098316	0.601323	6
C	0.487170	1.120136	-0.877967	6
C	1.294060	-0.114764	-1.285727	6
C	0.792600	-1.385614	-0.668107	6
C	-0.078420	-1.414434	0.350323	6
H	-2.444470	0.710996	1.194213	1
H	-2.524120	-0.911054	1.112213	1
H	-0.512680	-0.302914	2.107173	1
H	-0.489800	1.984486	0.844283	1
H	1.031450	1.187136	1.200693	1
H	1.073920	2.023715	-1.097147	1
H	-0.420910	1.181896	-1.484567	1
H	2.343620	0.014366	-0.999677	1
H	1.267690	-0.207284	-2.377867	1
H	1.153840	-2.320344	-1.090967	1
H	-0.412770	-2.376804	0.729483	1
Es	-0.131433	1.157987	-1.290664	99
Es	1.044646	-2.018936	-0.961440	99
Es	-0.316389	-2.066688	0.618150	99
Es	0.113584	1.098290	0.601311	99
Es	0.297599	1.104266	-0.135871	99
Es	-1.436789	-0.139471	0.870668	99
Es	-2.278763	0.386212	1.029047	99
Es	0.892231	1.739297	-1.025364	99
Es	2.005984	-0.033683	-1.083480	99
Es	0.487196	1.120098	-0.877932	99
Es	0.891798	0.493230	-1.072313	99
Es	-0.345929	-0.802775	0.679896	99
Es	0.792682	-1.385588	-0.668190	99
Es	-2.050105	-0.099250	0.720578	99
Es	1.274499	-0.184907	-2.026480	99
Es	1.294033	-0.114785	-1.285697	99
Es	0.604489	-1.402296	0.066051	99
Es	-0.259517	0.453389	0.799482	99
Es	-0.536443	-0.273504	1.771870	99
Es	0.745417	1.152210	1.011036	99
Es	-2.327088	-0.590218	0.975719	99
Es	-0.078493	-1.414416	0.350419	99
Es	-2.108579	-0.075109	0.373684	99
Es	0.105492	-1.399078	-0.362586	99
Es	-0.624687	-0.188599	1.022252	99
Es	-0.308121	1.700775	0.770287	99
Es	1.038344	-0.751104	-0.973193	99
45
Properties=species:S:1:pos:R:3:Z:I:1 energy=-288.14258635368395 field_type=dipole dipole="0.000000 0.000000 0.000000" charge=0
N	-2.050190	-0.099224	0.720003	7
C	-0.624580	-0.188604	1.022323	6
C	0.113590	1.098316	0.601323	6
C	0.487170	1.120136	-0.877967	6
C	1.294060	-0.114764	-1.285727	6
C	0.792600	-1.385614	-0.668107	6
C	-0.078420	-1.414434	0.350323	6
H	-2.444470	0.710996	1.194213	1
H	-2.524120	-0.911054	1.112213	1
H	-0.512680	-0.302914	2.107173	1
H	-0.489800	1.984486	0.844283	1
H	1.031450	1.187136	1.200693	1
H	1.073920	2.023715	-1.097147	1
H	-0.420910	1.181896	-1.484567	1
H	2.343620	0.014366	-0.999677	1
H	1.267690	-0.207284	-2.377867	1
H	1.153840	-2.320344	-1.090967	1
H	-0.412770	-2.376804	0.729483	1
Es	1.294033	-0.114785	-1.285700	99
Es	-0.345997	-0.802610	0.680067	99
Es	0.113583	1.098289	0.601311	99
Es	0.297521	1.104089	-0.135926	99
Es	-0.131332	1.158030	-1.290692	99
Es	-0.316311	-2.066736	0.618108	99
Es	-0.078481	-1.414423	0.350423	99
Es	0.792680	-1.385590	-0.668193	99
Es	0.487196	1.120102	-0.877934	99
Es	0.892301	1.739389	-1.025248	99
Es	-1.437130	-0.139583	0.871002	99
Es	1.038357	-0.751013	-0.973225	99
Es	-2.327090	-0.590429	0.975135	99
Es	0.891642	0.493373	-1.072490	99
Es	-0.308097	1.700800	0.770324	99
Es	2.005907	-0.033698	-1.083403	99
Es	-2.108543	-0.074092	0.373003	99
Es	-0.624690	-0.188600	1.022252	99
Es	0.105616	-1.399127	-0.362478	99
Es	1.044639	-2.018975	-0.961400	99
Es	-0.536417	-0.273537	1.771866	99
Es	-0.259393	0.453334	0.799489	99
Es	-2.278516	0.385509	1.029996	99
Es	0.604298	-1.402323	0.065894	99
Es	0.745321	1.152229	1.010975	99
Es	1.274662	-0.185013	-2.026441	99
Es	-2.050105	-0.099264	0.720524	99
45
Properties=species:S:1:pos:R:3:Z:I:1 energy=-288.14258635368395 field_type=dipole dipole="0.000000 0.000000 0.000000" charge=0
N	-2.050190	-0.099224	0.720003	7
C	-0.624580	-0.188604	1.022323	6
C	0.113590	1.098316	0.601323	6
C	0.487170	1.120136	-0.877967	6
C	1.294060	-0.114764	-1.285727	6
C	0.792600	-1.385614	-0.668107	6
C	-0.078420	-1.414434	0.350323	6
H	-2.444470	0.710996	1.194213	1
H	-2.524120	-0.911054	1.112213	1
H	-0.512680	-0.302914	2.107173	1
H	-0.489800	1.984486	0.844283	1
H	1.031450	1.187136	1.200693	1
H	1.073920	2.023715	-1.097147	1
H	-0.420910	1.181896	-1.484567	1
H	2.343620	0.014366	-0.999677	1
H	1.267690	-0.207284	-2.377867	1
H	1.153840	-2.320344	-1.090967	1
H	-0.412770	-2.376804	0.729483	1
Es	0.604219	-1.402341	0.065829	99
Es	2.005890	-0.033768	-1.083398	99
Es	-0.131300	1.158103	-1.290695	99
Es	1.294030	-0.114782	-1.285696	99
Es	0.891542	0.493411	-1.072479	99
Es	-0.259404	0.453327	0.799523	99
Es	-0.316293	-2.066735	0.618095	99
Es	1.044647	-2.019001	-0.961346	99
Es	0.297549	1.104102	-0.135906	99
Es	0.113584	1.098291	0.601312	99
Es	0.792679	-1.385588	-0.668194	99
Es	-1.436929	-0.139452	0.870809	99
Es	-0.345997	-0.802515	0.680144	99
Es	0.745274	1.152252	1.010989	99
Es	-0.078486	-1.414423	0.350414	99
Es	-2.108259	-0.075120	0.373905	99
Es	-0.536413	-0.273544	1.771826	99
Es	-2.279029	0.386264	1.028924	99
Es	-0.308051	1.700783	0.770299	99
Es	-0.624687	-0.188602	1.022252	99
Es	-2.050116	-0.099246	0.720561	99
Es	-2.327117	-0.590351	0.975426	99
Es	1.274692	-0.185054	-2.026438	99
Es	0.105662	-1.399158	-0.362449	99
Es	0.892331	1.739333	-1.025248	99
Es	1.038441	-0.750937	-0.973284	99
Es	0.487195	1.120102	-0.877934	99
45
Properties=species:S:1:pos:R:3:Z:I:1 energy=-288.14258635368395 field_type=dipole dipole="0.000000 0.000000 0.000000" charge=0
N	-2.050190	-0.099224	0.720003	7
C	-0.624580	-0.188604	1.022323	6
C	0.113590	1.098316	0.601323	6
C	0.487170	1.120136	-0.877967	6
C	1.294060	-0.114764	-1.285727	6
C	0.792600	-1.385614	-0.668107	6
C	-0.078420	-1.414434	0.350323	6
H	-2.444470	0.710996	1.194213	1
H	-2.524120	-0.911054	1.112213	1
H	-0.512680	-0.302914	2.107173	1
H	-0.489800	1.984486	0.844283	1
H	1.031450	1.187136	1.200693	1
H	1.073920	2.023715	-1.097147	1
H	-0.420910	1.181896	-1.484567	1
H	2.343620	0.014366	-0.999677	1
H	1.267690	-0.207284	-2.377867	1
H	1.153840	-2.320344	-1.090967	1
H	-0.412770	-2.376804	0.729483	1
Es	0.892250	1.739347	-1.025271	99
Es	0.891619	0.493417	-1.072517	99
Es	0.745248	1.152229	1.010972	99
Es	-0.536393	-0.273568	1.771812	99
Es	0.105906	-1.399101	-0.362283	99
Es	-2.050107	-0.099248	0.720568	99
Es	2.005870	-0.033765	-1.083421	99
Es	-0.131245	1.158075	-1.290674	99
Es	-0.316341	-2.066792	0.618021	99
Es	-0.078486	-1.414421	0.350414	99
Es	-0.259410	0.453334	0.799540	99
Es	1.294030	-0.114780	-1.285696	99
Es	0.792677	-1.385588	-0.668194	99
Es	1.044558	-2.019043	-0.961400	99
Es	-1.436586	-0.139533	0.870195	99
Es	0.297507	1.104167	-0.135923	99
Es	-0.308027	1.700770	0.770352	99
Es	1.038412	-0.750890	-0.973272	99
Es	-2.327181	-0.590375	0.975401	99
Es	0.487196	1.120102	-0.877934	99
Es	-0.624686	-0.188599	1.022252	99
Es	0.604137	-1.402436	0.065792	99
Es	1.274715	-0.185040	-2.026414	99
Es	-2.108470	-0.075388	0.374749	99
Es	-2.279117	0.386644	1.028738	99
Es	-0.346004	-0.802454	0.680122	99
Es	0.113584	1.098289	0.601311	99
45
Properties=species:S:1:pos:R:3:Z:I:1 energy=-288.14258635368395 field_type=dipole dipole="0.000000 0.000000 0.000000" charge=0
N	-2.050190	-0.099224	0.720003	7
C	-0.624580	-0.188604	1.022323	6
C	0.113590	1.098316	0.601323	6
C	0.487170	1.120136	-0.877967	6
C	1.294060	-0.114764	-1.285727	6
C	0.792600	-1.385614	-0.668107	6
C	-0.078420	-1.414434	0.350323	6
H	-2.444470	0.710996	1.194213	1
H	-2.524120	-0.911054	1.112213	1
H	-0.512680	-0.302914	2.107173	1
H	-0.489800	1.984486	0.844283	1
H	1.031450	1.187136	1.200693	1
H	1.073920	2.023715	-1.097147	1
H	-0.420910	1.181896	-1.484567	1
H	2.343620	0.014366	-0.999677	1
H	1.267690	-0.207284	-2.377867	1
H	1.153840	-2.320344	-1.090967	1
H	-0.412770	-2.376804	0.729483	1
Es	1.044599	-2.019083	-0.961315	99
Es	-0.316280	-2.066814	0.618051	99
Es	-0.078488	-1.414421	0.350408	99
Es	-0.536383	-0.273604	1.771746	99
Es	0.113583	1.098289	0.601311	99
Es	0.792681	-1.385589	-0.668189	99
Es	0.891729	0.493413	-1.072470	99
Es	0.105905	-1.399186	-0.362239	99
Es	-2.108377	-0.075701	0.374169	99
Es	1.274586	-0.185064	-2.026405	99
Es	-0.624687	-0.188600	1.022254	99
Es	0.297472	1.104202	-0.135936	99
Es	1.038478	-0.750792	-0.973268	99
Es	0.603993	-1.402383	0.065625	99
Es	-0.346021	-0.802411	0.680162	99
Es	2.005931	-0.033809	-1.083513	99
Es	-0.259399	0.453382	0.799553	99
Es	0.487195	1.120102	-0.877933	99
Es	-0.131177	1.158019	-1.290612	99
Es	0.892140	1.739405	-1.025308	99
Es	-2.279108	0.386706	1.028581	99
Es	-2.327089	-0.590034	0.975705	99
Es	-0.308006	1.700733	0.770331	99
Es	-2.050087	-0.099247	0.720516	99
Es	1.294033	-0.114785	-1.285697	99
Es	-1.436819	-0.139639	0.870714	99
Es	0.745252	1.152259	1.010996	99
45
Properties=species:S:1:pos:R:3:Z:I:1 energy=-288.14258635368395 field_type=dipole dipole="0.000000 0.000000 0.000000" charge=0
N	-2.050190	-0.099224	0.720003	7
C	-0.624580	-0.188604	1.022323	6
C	0.113590	1.098316	0.601323	6
C	0.487170	1.120136	-0.877967	6
C	1.294060	-0.114764	-1.285727	6
C	0.792600	-1.385614	-0.668107	6
C	-0.078420	-1.414434	0.350323	6
H	-2.444470	0.710996	1.194213	1
H	-2.524120	-0.911054	1.112213	1
H	-0.512680	-0.302914	2.107173	1
H	-0.489800	1.984486	0.844283	1
H	1.031450	1.187136	1.200693	1
H	1.073920	2.023715	-1.097147	1
H	-0.420910	1.181896	-1.484567	1
H	2.343620	0.014366	-0.999677	1
H	1.267690	-0.207284	-2.377867	1
H	1.153840	-2.320344	-1.090967	1
H	-0.412770	-2.376804	0.729483	1
Es	-0.307992	1.700741	0.770343	99
Es	-2.050121	-0.099251	0.720547	99
Es	1.294035	-0.114787	-1.285698	99
Es	-0.346150	-0.802386	0.680128	99
Es	1.038444	-0.750702	-0.973398	99
Es	-0.259359	0.453366	0.799554	99
Es	0.113584	1.098289	0.601311	99
Es	0.487198	1.120109	-0.877937	99
Es	0.891597	0.493432	-1.072532	99
Es	-0.536355	-0.273599	1.771712	99
Es	-1.436743	-0.139609	0.870493	99
Es	0.604053	-1.402532	0.065757	99
Es	1.274706	-0.185102	-2.026411	99
Es	-0.078486	-1.414421	0.350413	99
Es	-2.278917	0.386397	1.028948	99
Es	0.792685	-1.385586	-0.668178	99
Es	0.745165	1.152252	1.011003	99
Es	0.297549	1.104215	-0.135930	99
Es	-0.624684	-0.188601	1.022254	99
Es	-0.316457	-2.066821	0.617867	99
Es	1.044456	-2.019132	-0.961358	99
Es	0.106292	-1.399088	-0.362020	99
Es	-2.108582	-0.075237	0.374202	99
Es	0.892194	1.739314	-1.025306	99
Es	2.005868	-0.033842	-1.083430	99
Es	-0.131170	1.158114	-1.290626	99
Es	-2.327152	-0.590186	0.975530	99
