44
Properties=species:S:1:pos:R:3:Z:I:1 energy=-304.1250516542169 field_type=dipole dipole="0.000000 0.000000 0.000000" charge=0
N	-1.926395	0.415539	-0.604227	7
C	-0.472945	0.396899	-0.568937	6
C	0.140435	1.493119	0.314663	6
N	1.513664	1.030869	0.596753	7
C	1.359125	-0.421031	0.811453	6
C	0.128865	-0.830741	0.050733	6
C	-0.352475	-2.082931	0.018993	6
H	-2.249455	-0.275441	-1.278767	1
H	-2.245235	1.319549	-0.946237	1
H	-0.082695	0.501819	-1.590017	1
H	-0.404585	1.609979	1.260243	1
H	0.149105	2.465289	-0.188547	1
H	2.076215	1.158239	-0.244307	1
H	2.250605	-0.948481	0.459403	1
H	1.229325	-0.613471	1.881593	1
H	-1.266405	-2.327611	-0.510637	1
H	0.152855	-2.891591	0.537843	1
Es	0.745369	-0.645367	0.423805	99
Es	-0.297018	-1.419542	0.295946	99
Es	0.146672	2.158999	-0.035657	99
Es	1.667943	1.199311	0.869397	99
Es	-0.195621	0.954694	-0.136305	99
Es	-2.100491	0.961527	-0.832041	99
Es	-0.010772	-2.634561	0.369228	99
Es	-0.972008	-2.253979	-0.343575	99
Es	0.140559	1.493064	0.314654	99
Es	-0.235139	1.561388	0.955817	99
Es	-2.108136	0.005361	-1.026503	99
Es	-0.193968	-0.240227	-0.270789	99
Es	0.916130	1.232185	0.458653	99
Es	1.445411	0.395050	0.676745	99
Es	0.128921	-0.830622	0.050724	99
Es	-0.473069	0.396871	-0.568914	99
Es	-0.188692	0.463139	-1.265886	99
Es	-1.293130	0.408191	-0.611649	99
Es	-2.060799	0.355335	-0.286810	99
Es	1.359112	-0.420909	0.811401	99
Es	1.834996	1.094649	0.069004	99
Es	0.057271	-1.541800	-0.247069	99
Es	-1.926187	0.415650	-0.604725	99
Es	-0.352504	-2.083015	0.018983	99
Es	1.513400	1.030598	0.596305	99
Es	1.961907	-0.782443	0.568798	99
Es	1.260093	-0.560275	1.533505	99
44
Properties=species:S:1:pos:R:3:Z:I:1 energy=-304.1250516542169 field_type=dipole dipole="0.000000 0.000000 0.000000" charge=0
N	-1.926395	0.415539	-0.604227	7
C	-0.472945	0.396899	-0.568937	6
C	0.140435	1.493119	0.314663	6
N	1.513664	1.030869	0.596753	7
C	1.359125	-0.421031	0.811453	6
C	0.128865	-0.830741	0.050733	6
C	-0.352475	-2.082931	0.018993	6
H	-2.249455	-0.275441	-1.278767	1
H	-2.245235	1.319549	-0.946237	1
H	-0.082695	0.501819	-1.590017	1
H	-0.404585	1.609979	1.260243	1
H	0.149105	2.465289	-0.188547	1
H	2.076215	1.158239	-0.244307	1
H	2.250605	-0.948481	0.459403	1
H	1.229325	-0.613471	1.881593	1
H	-1.266405	-2.327611	-0.510637	1
H	0.152855	-2.891591	0.537843	1
Es	-0.010870	-2.634544	0.369356	99
Es	-0.473068	0.396872	-0.568914	99
Es	-0.972050	-2.253945	-0.343499	99
Es	0.057299	-1.541923	-0.247137	99
Es	-0.195562	0.954766	-0.136394	99
Es	1.961801	-0.782458	0.568719	99
Es	-2.101080	0.962199	-0.831084	99
Es	-1.926179	0.415654	-0.604778	99
Es	1.359112	-0.420907	0.811400	99
Es	1.835010	1.094161	0.069059	99
Es	0.745300	-0.645429	0.423933	99
Es	0.916366	1.231666	0.457912	99
Es	-2.060806	0.354298	-0.287986	99
Es	-0.235193	1.561393	0.955750	99
Es	-1.292949	0.408096	-0.610875	99
Es	-0.188683	0.463039	-1.265854	99
Es	-0.352502	-2.083012	0.018981	99
Es	0.140561	1.493062	0.314655	99
Es	0.146670	2.158976	-0.035601	99
Es	0.128921	-0.830620	0.050726	99
Es	-0.194105	-0.240126	-0.270742	99
Es	-2.107763	0.005874	-1.027015	99
Es	1.260224	-0.560335	1.533484	99
Es	-0.296810	-1.419486	0.295741	99
Es	1.513429	1.030589	0.596282	99
Es	1.445595	0.395096	0.677651	99
Es	1.667583	1.200314	0.869273	99
44
Properties=species:S:1:pos:R:3:Z:I:1 energy=-304.1250516542169 field_type=dipole dipole="0.000000 0.000000 0.000000" charge=0
N	-1.926395	0.415539	-0.604227	7
C	-0.472945	0.396899	-0.568937	6
C	0.140435	1.493119	0.314663	6
N	1.513664	1.030869	0.596753	7
C	1.359125	-0.421031	0.811453	6
C	0.128865	-0.830741	0.050733	6
C	-0.352475	-2.082931	0.018993	6
H	-2.249455	-0.275441	-1.278767	1
H	-2.245235	1.319549	-0.946237	1
H	-0.082695	0.501819	-1.590017	1
H	-0.404585	1.609979	1.260243	1
H	0.149105	2.465289	-0.188547	1
H	2.076215	1.158239	-0.244307	1
H	2.250605	-0.948481	0.459403	1
H	1.229325	-0.613471	1.881593	1
H	-1.266405	-2.327611	-0.510637	1
H	0.152855	-2.891591	0.537843	1
Es	-0.194074	-0.240120	-0.270699	99
Es	1.834781	1.094097	0.069020	99
Es	1.260194	-0.560388	1.533433	99
Es	-0.188610	0.463066	-1.265772	99
Es	0.745490	-0.645543	0.423826	99
Es	-2.060381	0.355303	-0.287123	99
Es	0.057084	-1.541816	-0.247046	99
Es	-0.296781	-1.419518	0.295772	99
Es	1.667977	1.200068	0.868939	99
Es	-0.010778	-2.634574	0.369247	99
Es	1.445747	0.395220	0.677683	99
Es	-0.972062	-2.253945	-0.343462	99
Es	-0.195653	0.954739	-0.136502	99
Es	0.146659	2.158964	-0.035533	99
Es	0.140558	1.493064	0.314654	99
Es	0.916117	1.231953	0.458340	99
Es	-2.108353	0.005230	-1.026169	99
Es	-0.235193	1.561398	0.955691	99
Es	-0.473071	0.396872	-0.568914	99
Es	1.359112	-0.420908	0.811400	99
Es	1.513393	1.030574	0.596269	99
Es	-1.926158	0.415653	-0.604770	99
Es	-0.352503	-2.083006	0.018985	99
Es	-2.101020	0.961540	-0.831777	99
Es	0.128923	-0.830619	0.050725	99
Es	-1.292942	0.408366	-0.611984	99
Es	1.961792	-0.782402	0.568808	99
44
Properties=species:S:1:pos:R:3:Z:I:1 energy=-304.1250516542169 field_type=dipole dipole="0.000000 0.000000 0.000000" charge=0
N	-1.926395	0.415539	-0.604227	7
C	-0.472945	0.396899	-0.568937	6
C	0.140435	1.493119	0.314663	6
N	1.513664	1.030869	0.596753	7
C	1.359125	-0.421031	0.811453	6
C	0.128865	-0.830741	0.050733	6
C	-0.352475	-2.082931	0.018993	6
H	-2.249455	-0.275441	-1.278767	1
H	-2.245235	1.319549	-0.946237	1
H	-0.082695	0.501819	-1.590017	1
H	-0.404585	1.609979	1.260243	1
H	0.149105	2.465289	-0.188547	1
H	2.076215	1.158239	-0.244307	1
H	2.250605	-0.948481	0.459403	1
H	1.229325	-0.613471	1.881593	1
H	-1.266405	-2.327611	-0.510637	1
H	0.152855	-2.891591	0.537843	1
Es	1.513401	1.030583	0.596276	99
Es	-0.972001	-2.253977	-0.343526	99
Es	-2.060699	0.355026	-0.287635	99
Es	0.916215	1.231844	0.458329	99
Es	-2.108273	0.005530	-1.026649	99
Es	1.445966	0.395127	0.677549	99
Es	0.057224	-1.541886	-0.246879	99
Es	-0.194255	-0.240199	-0.270915	99
Es	-2.100926	0.961653	-0.831356	99
Es	-1.292773	0.408252	-0.611426	99
Es	-0.188634	0.462992	-1.265774	99
Es	1.667895	1.200117	0.868906	99
Es	0.745552	-0.645440	0.423714	99
Es	-0.235175	1.561412	0.955686	99
Es	-0.473068	0.396871	-0.568914	99
Es	0.140559	1.493064	0.314654	99
Es	-0.352497	-2.083011	0.018975	99
Es	-0.195645	0.954831	-0.136464	99
Es	1.359112	-0.420907	0.811400	99
Es	1.961790	-0.782503	0.569093	99
Es	-0.010817	-2.634549	0.369316	99
Es	0.128921	-0.830624	0.050726	99
Es	0.146655	2.158943	-0.035486	99
Es	-0.296769	-1.419488	0.295739	99
Es	1.834716	1.094275	0.069077	99
Es	1.259937	-0.560312	1.533381	99
Es	-1.926161	0.415644	-0.604755	99
44
Properties=species:S:1:pos:R:3:Z:I:1 energy=-304.1250516542169 field_type=dipole dipole="0.000000 0.000000 0.000000" charge=0
N	-1.926395	0.415539	-0.604227	7
C	-0.472945	0.396899	-0.568937	6
C	0.140435	1.493119	0.314663	6
N	1.513664	1.030869	0.596753	7
C	1.359125	-0.421031	0.811453	6
C	0.128865	-0.830741	0.050733	6
C	-0.352475	-2.082931	0.018993	6
H	-2.249455	-0.275441	-1.278767	1
H	-2.245235	1.319549	-0.946237	1
H	-0.082695	0.501819	-1.590017	1
H	-0.404585	1.609979	1.260243	1
H	0.149105	2.465289	-0.188547	1
H	2.076215	1.158239	-0.244307	1
H	2.250605	-0.948481	0.459403	1
H	1.229325	-0.613471	1.881593	1
H	-1.266405	-2.327611	-0.510637	1
H	0.152855	-2.891591	0.537843	1
Es	0.146613	2.158918	-0.035448	99
Es	-1.926169	0.415645	-0.604744	99
Es	1.834943	1.094357	0.069213	99
Es	-0.352500	-2.083008	0.018981	99
Es	0.128918	-0.830624	0.050724	99
Es	0.057217	-1.541864	-0.246905	99
Es	1.961711	-0.782447	0.568873	99
Es	0.745454	-0.645572	0.424028	99
Es	0.916173	1.232175	0.458415	99
Es	1.359112	-0.420910	0.811401	99
Es	-0.010913	-2.634580	0.369350	99
Es	1.513396	1.030578	0.596273	99
Es	-1.292911	0.408102	-0.611426	99
Es	-0.195629	0.954819	-0.136455	99
Es	-0.188682	0.462989	-1.265717	99
Es	-2.108202	0.005562	-1.026513	99
Es	-0.194219	-0.240107	-0.271005	99
Es	0.140558	1.493065	0.314654	99
Es	-0.473063	0.396872	-0.568915	99
Es	1.667782	1.199792	0.868598	99
Es	-0.972056	-2.253891	-0.343456	99
Es	-0.235135	1.561435	0.955658	99
Es	1.445890	0.395104	0.677697	99
Es	1.260234	-0.560399	1.533351	99
Es	-2.100847	0.961724	-0.831601	99
Es	-2.060767	0.355047	-0.287510	99
Es	-0.296658	-1.419510	0.295521	99
44
Properties=species:S:1:pos:R:3:Z:I:1 energy=-304.1250516542169 field_type=dipole dipole="0.000000 0.000000 0.000000" charge=0
N	-1.926395	0.415539	-0.604227	7
C	-0.472945	0.396899	-0.568937	6
C	0.140435	1.493119	0.314663	6
N	1.513664	1.030869	0.596753	7
C	1.359125	-0.421031	0.811453	6
C	0.128865	-0.830741	0.050733	6
C	-0.352475	-2.082931	0.018993	6
H	-2.249455	-0.275441	-1.278767	1
H	-2.245235	1.319549	-0.946237	1
H	-0.082695	0.501819	-1.590017	1
H	-0.404585	1.609979	1.260243	1
H	0.149105	2.465289	-0.188547	1
H	2.076215	1.158239	-0.244307	1
H	2.250605	-0.948481	0.459403	1
H	1.229325	-0.613471	1.881593	1
H	-1.266405	-2.327611	-0.510637	1
H	0.152855	-2.891591	0.537843	1
Es	0.916178	1.232157	0.458398	99
Es	-1.926163	0.415653	-0.604762	99
Es	0.146524	2.158889	-0.035415	99
Es	-0.010838	-2.634544	0.369384	99
Es	-0.235121	1.561441	0.955585	99
Es	1.667509	1.199872	0.868183	99
Es	-0.188590	0.462929	-1.265707	99
Es	0.745638	-0.645645	0.424018	99
Es	1.513413	1.030585	0.596268	99
Es	-2.060618	0.354815	-0.287882	99
Es	-0.352502	-2.083010	0.018981	99
Es	0.057043	-1.541786	-0.246809	99
Es	0.140557	1.493066	0.314654	99
Es	-2.101133	0.961863	-0.831282	99
Es	-2.108228	0.005643	-1.026510	99
Es	1.835040	1.094404	0.069267	99
Es	1.446081	0.395101	0.678131	99
Es	1.961746	-0.782423	0.568899	99
Es	-0.972057	-2.253950	-0.343449	99
Es	-0.194375	-0.240099	-0.270930	99
Es	-0.473065	0.396872	-0.568914	99
Es	1.359112	-0.420911	0.811401	99
Es	-0.195681	0.954811	-0.136434	99
Es	-1.292741	0.408127	-0.611447	99
Es	0.128921	-0.830622	0.050727	99
Es	1.260199	-0.560443	1.533304	99
Es	-0.296596	-1.419522	0.295383	99
44
Properties=species:S:1:pos:R:3:Z:I:1 energy=-304.1250516542169 field_type=dipole dipole="0.000000 0.000000 0.000000" charge=0
N	-1.926395	0.415539	-0.604227	7
C	-0.472945	0.396899	-0.568937	6
C	0.140435	1.493119	0.314663	6
N	1.513664	1.030869	0.596753	7
C	1.359125	-0.421031	0.811453	6
C	0.128865	-0.830741	0.050733	6
C	-0.352475	-2.082931	0.018993	6
H	-2.249455	-0.275441	-1.278767	1
H	-2.245235	1.319549	-0.946237	1
H	-0.082695	0.501819	-1.590017	1
H	-0.404585	1.609979	1.260243	1
H	0.149105	2.465289	-0.188547	1
H	2.076215	1.158239	-0.244307	1
H	2.250605	-0.948481	0.459403	1
H	1.229325	-0.613471	1.881593	1
H	-1.266405	-2.327611	-0.510637	1
H	0.152855	-2.891591	0.537843	1
Es	0.057045	-1.541757	-0.246719	99
Es	-0.235137	1.561504	0.955609	99
Es	1.260100	-0.560427	1.533325	99
Es	-0.188671	0.462928	-1.265601	99
Es	-0.296650	-1.419513	0.295403	99
Es	-1.292825	0.408006	-0.611600	99
Es	0.745716	-0.645654	0.424082	99
Es	1.835291	1.094578	0.069445	99
Es	-1.926151	0.415656	-0.604772	99
Es	-2.100960	0.961810	-0.831460	99
Es	0.128919	-0.830623	0.050722	99
Es	1.446155	0.395112	0.677903	99
Es	-0.972052	-2.253931	-0.343499	99
Es	-0.352498	-2.083013	0.018974	99
Es	0.140557	1.493065	0.314653	99
Es	1.359113	-0.420911	0.811400	99
Es	-2.108358	0.005655	-1.026371	99
Es	-0.010863	-2.634559	0.369289	99
Es	-0.473068	0.396872	-0.568915	99
Es	1.667353	1.199611	0.868246	99
Es	1.961696	-0.782493	0.568957	99
Es	-0.194267	-0.240135	-0.271088	99
Es	0.146571	2.158837	-0.035421	99
Es	1.513407	1.030584	0.596270	99
Es	-0.195622	0.954883	-0.136439	99
Es	-2.060648	0.354980	-0.287671	99
Es	0.916098	1.232206	0.458321	99
44
Properties=species:S:1:pos:R:3:Z:I:1 energy=-304.1250516542169 field_type=dipole dipole="0.000000 0.000000 0.000000" charge=0
N	-1.926395	0.415539	-0.604227	7
C	-0.472945	0.396899	-0.568937	6
C	0.140435	1.493119	0.314663	6
N	1.513664	1.030869	0.596753	7
C	1.359125	-0.421031	0.811453	6
C	0.128865	-0.830741	0.050733	6
C	-0.352475	-2.082931	0.018993	6
H	-2.249455	-0.275441	-1.278767	1
H	-2.245235	1.319549	-0.946237	1
H	-0.082695	0.501819	-1.590017	1
H	-0.404585	1.609979	1.260243	1
H	0.149105	2.465289	-0.188547	1
H	2.076215	1.158239	-0.244307	1
H	2.250605	-0.948481	0.459403	1
H	1.229325	-0.613471	1.881593	1
H	-1.266405	-2.327611	-0.510637	1
H	0.152855	-2.891591	0.537843	1
Es	-2.060847	0.355048	-0.287932	99
Es	-2.100962	0.961756	-0.831589	99
Es	-0.473064	0.396872	-0.568915	99
Es	1.446135	0.394975	0.678226	99
Es	0.916107	1.232510	0.458534	99
Es	-0.235116	1.561512	0.955533	99
Es	-0.352501	-2.083009	0.018982	99
Es	-0.972026	-2.253947	-0.343468	99
Es	-1.292781	0.408056	-0.611226	99
Es	1.260185	-0.560537	1.533254	99
Es	1.835512	1.094758	0.069565	99
Es	-0.010894	-2.634540	0.369396	99
Es	1.359112	-0.420907	0.811400	99
Es	0.140557	1.493065	0.314654	99
Es	0.146581	2.158847	-0.035344	99
Es	-0.194382	-0.240080	-0.271196	99
Es	-0.195678	0.954883	-0.136500	99
Es	1.513403	1.030585	0.596296	99
Es	-2.108187	0.005598	-1.026420	99
Es	-1.926184	0.415634	-0.604686	99
Es	1.667144	1.199298	0.867721	99
Es	1.961681	-0.782427	0.568910	99
Es	-0.188664	0.462904	-1.265624	99
Es	0.745684	-0.645673	0.424122	99
Es	-0.296563	-1.419521	0.295244	99
Es	0.057081	-1.541765	-0.246621	99
Es	0.128920	-0.830624	0.050725	99
44
Properties=species:S:1:pos:R:3:Z:I:1 energy=-304.1250516542169 field_type=dipole dipole="0.000000 0.000000 0.000000" charge=0
N	-1.926395	0.415539	-0.604227	7
C	-0.472945	0.396899	-0.568937	6
C	0.140435	1.493119	0.314663	6
N	1.513664	1.030869	0.596753	7
C	1.359125	-0.421031	0.811453	6
C	0.128865	-0.830741	0.050733	6
C	-0.352475	-2.082931	0.018993	6
H	-2.249455	-0.275441	-1.278767	1
H	-2.245235	1.319549	-0.946237	1
H	-0.082695	0.501819	-1.590017	1
H	-0.404585	1.609979	1.260243	1
H	0.149105	2.465289	-0.188547	1
H	2.076215	1.158239	-0.244307	1
H	2.250605	-0.948481	0.459403	1
H	1.229325	-0.613471	1.881593	1
H	-1.266405	-2.327611	-0.510637	1
H	0.152855	-2.891591	0.537843	1
Es	1.667225	1.199258	0.867960	99
Es	0.128918	-0.830620	0.050726	99
Es	0.056955	-1.541786	-0.246523	99
Es	0.916314	1.232532	0.458628	99
Es	0.146555	2.158827	-0.035322	99
Es	1.513410	1.030599	0.596326	99
Es	1.359112	-0.420909	0.811401	99
Es	-0.194411	-0.240043	-0.271272	99
Es	-0.235125	1.561518	0.955501	99
Es	-0.972018	-2.253948	-0.343489	99
Es	-0.188668	0.462871	-1.265583	99
Es	-1.926153	0.415658	-0.604766	99
Es	-2.101028	0.961799	-0.831107	99
Es	0.745777	-0.645794	0.424116	99
Es	-2.060744	0.354848	-0.288084	99
Es	0.140557	1.493065	0.314653	99
Es	-0.296518	-1.419453	0.295149	99
Es	1.260139	-0.560490	1.533243	99
Es	-0.473063	0.396872	-0.568915	99
Es	-0.010883	-2.634545	0.369396	99
Es	-2.108468	0.005859	-1.026525	99
Es	1.445971	0.395016	0.677942	99
Es	1.961648	-0.782440	0.569038	99
Es	-0.195642	0.954887	-0.136485	99
Es	1.835475	1.094778	0.069445	99
Es	-0.352501	-2.083009	0.018982	99
Es	-1.292584	0.407920	-0.611392	99
44
Properties=species:S:1:pos:R:3:Z:I:1 energy=-304.1250516542169 field_type=dipole dipole="0.000000 0.000000 0.000000" charge=0
N	-1.926395	0.415539	-0.604227	7
C	-0.472945	0.396899	-0.568937	6
C	0.140435	1.493119	0.314663	6
N	1.513664	1.030869	0.596753	7
C	1.359125	-0.421031	0.811453	6
C	0.128865	-0.830741	0.050733	6
C	-0.352475	-2.082931	0.018993	6
H	-2.249455	-0.275441	-1.278767	1
H	-2.245235	1.319549	-0.946237	1
H	-0.082695	0.501819	-1.590017	1
H	-0.404585	1.609979	1.260243	1
H	0.149105	2.465289	-0.188547	1
H	2.076215	1.158239	-0.244307	1
H	2.250605	-0.948481	0.459403	1
H	1.229325	-0.613471	1.881593	1
H	-1.266405	-2.327611	-0.510637	1
H	0.152855	-2.891591	0.537843	1
Es	-1.926174	0.415645	-0.604733	99
Es	0.745754	-0.645804	0.424249	99
Es	-0.473063	0.396872	-0.568914	99
Es	1.359107	-0.420915	0.811403	99
Es	1.961600	-0.782463	0.568918	99
Es	-0.010860	-2.634534	0.369390	99
Es	-0.235091	1.561605	0.955489	99
Es	1.667143	1.199335	0.867616	99
Es	1.260261	-0.560469	1.533277	99
Es	-0.188623	0.462784	-1.265546	99
Es	0.146513	2.158742	-0.035330	99
Es	1.835476	1.094737	0.069490	99
Es	0.140557	1.493066	0.314654	99
Es	-0.194531	-0.239963	-0.271321	99
Es	0.056943	-1.541695	-0.246397	99
Es	-0.296464	-1.419531	0.295113	99
Es	-0.972011	-2.253968	-0.343489	99
Es	-2.108448	0.005442	-1.026123	99
Es	-2.060724	0.355328	-0.288094	99
Es	0.128919	-0.830626	0.050726	99
Es	1.446154	0.394975	0.678188	99
Es	-0.352499	-2.083005	0.018982	99
Es	-1.292662	0.407952	-0.611316	99
Es	-0.195678	0.954887	-0.136467	99
Es	-2.101008	0.961696	-0.831664	99
Es	1.513409	1.030602	0.596330	99
Es	0.916249	1.232577	0.458610	99
44
Properties=species:S:1:pos:R:3:Z:I:1 energy=-304.1250516542169 field_type=dipole dipole="0.000000 0.000000 0.000000" charge=0
N	-1.926395	0.415539	-0.604227	7
C	-0.472945	0.396899	-0.568937	6
C	0.140435	1.493119	0.314663	6
N	1.513664	1.030869	0.596753	7
C	1.359125	-0.421031	0.811453	6
C	0.128865	-0.830741	0.050733	6
C	-0.352475	-2.082931	0.018993	6
H	-2.249455	-0.275441	-1.278767	1
H	-2.245235	1.319549	-0.946237	1
H	-0.082695	0.501819	-1.590017	1
H	-0.404585	1.609979	1.260243	1
H	0.149105	2.465289	-0.188547	1
H	2.076215	1.158239	-0.244307	1
H	2.250605	-0.948481	0.459403	1
H	1.229325	-0.613471	1.881593	1
H	-1.266405	-2.327611	-0.510637	1
H	0.152855	-2.891591	0.537843	1
Es	0.056916	-1.541692	-0.246369	99
Es	-0.352500	-2.083006	0.018981	99
Es	1.666855	1.199173	0.867424	99
Es	1.359109	-0.420910	0.811399	99
Es	0.916095	1.232574	0.458537	99
Es	0.745804	-0.645875	0.424352	99
Es	-1.292628	0.408029	-0.611301	99
Es	0.146550	2.158822	-0.035256	99
Es	1.260245	-0.560532	1.533162	99
Es	-0.972017	-2.253940	-0.343497	99
Es	-2.060722	0.354939	-0.288194	99
Es	-0.473062	0.396872	-0.568913	99
Es	-2.108372	0.005676	-1.026418	99
Es	-0.010891	-2.634545	0.369422	99
Es	-2.101144	0.961755	-0.831251	99
Es	-0.194497	-0.240003	-0.271398	99
Es	-0.188665	0.462825	-1.265485	99
Es	1.513383	1.030574	0.596289	99
Es	1.835738	1.094993	0.069834	99
Es	1.446399	0.394968	0.678260	99
Es	-0.235116	1.561535	0.955415	99
Es	0.140555	1.493066	0.314653	99
Es	-1.926170	0.415666	-0.604764	99
Es	-0.296438	-1.419517	0.294959	99
Es	0.128919	-0.830621	0.050728	99
Es	-0.195649	0.954950	-0.136512	99
Es	1.961551	-0.782508	0.568984	99
44
Properties=species:S:1:pos:R:3:Z:I:1 energy=-304.1250516542169 field_type=dipole dipole="0.000000 0.000000 0.000000" charge=0
N	-1.926395	0.415539	-0.604227	7
C	-0.472945	0.396899	-0.568937	6
C	0.140435	1.493119	0.314663	6
N	1.513664	1.030869	0.596753	7
C	1.359125	-0.421031	0.811453	6
C	0.128865	-0.830741	0.050733	6
C	-0.352475	-2.082931	0.018993	6
H	-2.249455	-0.275441	-1.278767	1
H	-2.245235	1.319549	-0.946237	1
H	-0.082695	0.501819	-1.590017	1
H	-0.404585	1.609979	1.260243	1
H	0.149105	2.465289	-0.188547	1
H	2.076215	1.158239	-0.244307	1
H	2.250605	-0.948481	0.459403	1
H	1.229325	-0.613471	1.881593	1
H	-1.266405	-2.327611	-0.510637	1
H	0.152855	-2.891591	0.537843	1
Es	-1.292628	0.408014	-0.611349	99
Es	0.745779	-0.645878	0.424350	99
Es	0.146550	2.158662	-0.035311	99
Es	1.667783	1.199422	0.866690	99
Es	0.916033	1.232978	0.459243	99
Es	-2.108356	0.005695	-1.026386	99
Es	-0.010904	-2.634538	0.369355	99
Es	0.056969	-1.541556	-0.246283	99
Es	-0.188639	0.462802	-1.265472	99
Es	0.128917	-0.830626	0.050730	99
Es	-0.971940	-2.253984	-0.343506	99
Es	-2.060717	0.354930	-0.288214	99
Es	1.834797	1.094355	0.069351	99
Es	-0.296539	-1.419593	0.295075	99
Es	1.513396	1.030583	0.596293	99
Es	1.260357	-0.560591	1.533208	99
Es	-0.352502	-2.083007	0.018983	99
Es	1.961431	-0.782471	0.568936	99
Es	1.359111	-0.420910	0.811401	99
Es	-1.926169	0.415649	-0.604750	99
Es	-2.101191	0.961766	-0.831252	99
Es	0.140556	1.493066	0.314654	99
Es	-0.195688	0.954891	-0.136464	99
Es	-0.235137	1.561716	0.955395	99
Es	-0.473065	0.396872	-0.568914	99
Es	-0.194532	-0.239982	-0.271506	99
Es	1.446576	0.395004	0.678785	99
44
Properties=species:S:1:pos:R:3:Z:I:1 energy=-304.1250516542169 field_type=dipole dipole="0.000000 0.000000 0.000000" charge=0
N	-1.926395	0.415539	-0.604227	7
C	-0.472945	0.396899	-0.568937	6
C	0.140435	1.493119	0.314663	6
N	1.513664	1.030869	0.596753	7
C	1.359125	-0.421031	0.811453	6
C	0.128865	-0.830741	0.050733	6
C	-0.352475	-2.082931	0.018993	6
H	-2.249455	-0.275441	-1.278767	1
H	-2.245235	1.319549	-0.946237	1
H	-0.082695	0.501819	-1.590017	1
H	-0.404585	1.609979	1.260243	1
H	0.149105	2.465289	-0.188547	1
H	2.076215	1.158239	-0.244307	1
H	2.250605	-0.948481	0.459403	1
H	1.229325	-0.613471	1.881593	1
H	-1.266405	-2.327611	-0.510637	1
H	0.152855	-2.891591	0.537843	1
Es	1.961591	-0.782524	0.569108	99
Es	-0.188650	0.462811	-1.265433	99
Es	-2.060693	0.355013	-0.288386	99
Es	0.146501	2.158808	-0.035175	99
Es	-0.235111	1.561512	0.955371	99
Es	-0.352501	-2.083008	0.018982	99
Es	1.260230	-0.560534	1.532993	99
Es	0.916111	1.232742	0.458630	99
Es	1.359112	-0.420910	0.811401	99
Es	1.513412	1.030588	0.596278	99
Es	1.835868	1.095141	0.069939	99
Es	1.666675	1.198957	0.867156	99
Es	-1.926169	0.415653	-0.604754	99
Es	-0.010696	-2.634639	0.369260	99
Es	1.446483	0.394957	0.678409	99
Es	0.745891	-0.645965	0.424321	99
Es	-2.108436	0.005643	-1.026329	99
Es	-2.101217	0.961754	-0.831225	99
Es	-0.971958	-2.253932	-0.343565	99
Es	-0.473062	0.396872	-0.568914	99
Es	-1.292566	0.407988	-0.611271	99
Es	0.128919	-0.830624	0.050726	99
Es	-0.195645	0.954971	-0.136518	99
Es	-0.194637	-0.240002	-0.271584	99
Es	-0.296369	-1.419531	0.294965	99
Es	0.056614	-1.541539	-0.245997	99
Es	0.140555	1.493066	0.314654	99
44
Properties=species:S:1:pos:R:3:Z:I:1 energy=-304.1250516542169 field_type=dipole dipole="0.000000 0.000000 0.000000" charge=0
N	-1.926395	0.415539	-0.604227	7
C	-0.472945	0.396899	-0.568937	6
C	0.140435	1.493119	0.314663	6
N	1.513664	1.030869	0.596753	7
C	1.359125	-0.421031	0.811453	6
C	0.128865	-0.830741	0.050733	6
C	-0.352475	-2.082931	0.018993	6
H	-2.249455	-0.275441	-1.278767	1
H	-2.245235	1.319549	-0.946237	1
H	-0.082695	0.501819	-1.590017	1
H	-0.404585	1.609979	1.260243	1
H	0.149105	2.465289	-0.188547	1
H	2.076215	1.158239	-0.244307	1
H	2.250605	-0.948481	0.459403	1
H	1.229325	-0.613471	1.881593	1
H	-1.266405	-2.327611	-0.510637	1
H	0.152855	-2.891591	0.537843	1
Es	1.836045	1.095331	0.070167	99
Es	-2.060319	0.355041	-0.288420	99
Es	-0.473066	0.396872	-0.568915	99
Es	-2.108641	0.005527	-1.026168	99
Es	-2.101409	0.961785	-0.831056	99
Es	-0.235070	1.561583	0.955340	99
Es	-0.194672	-0.240031	-0.271610	99
Es	-0.195668	0.954938	-0.136508	99
Es	-1.926180	0.415649	-0.604759	99
Es	1.961430	-0.782472	0.569031	99
Es	0.056869	-1.541653	-0.246224	99
Es	0.140554	1.493066	0.314653	99
Es	-0.010910	-2.634531	0.369468	99
Es	0.745949	-0.645946	0.424453	99
Es	1.260255	-0.560641	1.533134	99
Es	1.446439	0.394976	0.677976	99
Es	0.146477	2.158749	-0.035146	99
Es	1.359112	-0.420906	0.811401	99
Es	0.916231	1.232568	0.458310	99
Es	-0.972042	-2.253939	-0.343422	99
Es	-0.296261	-1.419524	0.294700	99
Es	-0.188649	0.462799	-1.265379	99
Es	-0.352499	-2.083004	0.018983	99
Es	0.128919	-0.830624	0.050728	99
Es	-1.292560	0.408088	-0.611592	99
Es	1.513402	1.030598	0.596333	99
Es	1.666514	1.198972	0.867565	99
44
Properties=species:S:1:pos:R:3:Z:I:1 energy=-304.1250516542169 field_type=dipole dipole="0.000000 0.000000 0.000000" charge=0
N	-1.926395	0.415539	-0.604227	7
C	-0.472945	0.396899	-0.568937	6
C	0.140435	1.493119	0.314663	6
N	1.513664	1.030869	0.596753	7
C	1.359125	-0.421031	0.811453	6
C	0.128865	-0.830741	0.050733	6
C	-0.352475	-2.082931	0.018993	6
H	-2.249455	-0.275441	-1.278767	1
H	-2.245235	1.319549	-0.946237	1
H	-0.082695	0.501819	-1.590017	1
H	-0.404585	1.609979	1.260243	1
H	0.149105	2.465289	-0.188547	1
H	2.076215	1.158239	-0.244307	1
H	2.250605	-0.948481	0.459403	1
H	1.229325	-0.613471	1.881593	1
H	-1.266405	-2.327611	-0.510637	1
H	0.152855	-2.891591	0.537843	1
Es	-1.292481	0.407963	-0.611208	99
Es	1.513406	1.030583	0.596276	99
Es	1.260255	-0.560595	1.533018	99
Es	0.916128	1.232857	0.458624	99
Es	-0.972019	-2.253940	-0.343500	99
Es	1.836144	1.095377	0.070145	99
Es	1.961481	-0.782528	0.569083	99
Es	-0.352500	-2.083006	0.018982	99
Es	-0.296240	-1.419572	0.294707	99
Es	0.146485	2.158728	-0.035146	99
Es	-0.195673	0.954986	-0.136517	99
Es	0.140555	1.493066	0.314653	99
Es	-2.060628	0.355042	-0.288663	99
Es	0.128919	-0.830624	0.050726	99
Es	-2.108520	0.005634	-1.026255	99
Es	-2.101314	0.961758	-0.831131	99
Es	0.745963	-0.646011	0.424463	99
Es	-0.473061	0.396872	-0.568914	99
Es	1.446564	0.394933	0.678340	99
Es	-0.235081	1.561613	0.955313	99
Es	0.056803	-1.541565	-0.246032	99
Es	-0.194721	-0.239953	-0.271667	99
Es	1.666412	1.198711	0.867012	99
Es	-0.010903	-2.634536	0.369445	99
Es	-0.188652	0.462735	-1.265376	99
Es	1.359112	-0.420911	0.811401	99
Es	-1.926184	0.415653	-0.604736	99
44
Properties=species:S:1:pos:R:3:Z:I:1 energy=-304.1250516542169 field_type=dipole dipole="0.000000 0.000000 0.000000" charge=0
N	-1.926395	0.415539	-0.604227	7
C	-0.472945	0.396899	-0.568937	6
C	0.140435	1.493119	0.314663	6
N	1.513664	1.030869	0.596753	7
C	1.359125	-0.421031	0.811453	6
C	0.128865	-0.830741	0.050733	6
C	-0.352475	-2.082931	0.018993	6
H	-2.249455	-0.275441	-1.278767	1
H	-2.245235	1.319549	-0.946237	1
H	-0.082695	0.501819	-1.590017	1
H	-0.404585	1.609979	1.260243	1
H	0.149105	2.465289	-0.188547	1
H	2.076215	1.158239	-0.244307	1
H	2.250605	-0.948481	0.459403	1
H	1.229325	-0.613471	1.881593	1
H	-1.266405	-2.327611	-0.510637	1
H	0.152855	-2.891591	0.537843	1
Es	0.746095	-0.646012	0.424504	99
Es	1.835914	1.095149	0.070030	99
Es	-0.235057	1.561605	0.955271	99
Es	-2.060786	0.354992	-0.288055	99
Es	-2.108438	0.005805	-1.026252	99
Es	-0.473060	0.396873	-0.568913	99
Es	-0.195705	0.955065	-0.136552	99
Es	0.056697	-1.541516	-0.245974	99
Es	-0.352515	-2.083011	0.018970	99
Es	0.146479	2.158741	-0.035078	99
Es	1.359115	-0.420898	0.811399	99
Es	-1.926170	0.415651	-0.604751	99
Es	0.140558	1.493065	0.314654	99
Es	-2.101168	0.961617	-0.831340	99
Es	-0.010894	-2.634552	0.369448	99
Es	0.916165	1.232973	0.458764	99
Es	-0.188649	0.462680	-1.265333	99
Es	1.961485	-0.782575	0.569099	99
Es	-0.194806	-0.239939	-0.271679	99
Es	1.513409	1.030580	0.596283	99
Es	1.446570	0.394932	0.678584	99
Es	0.128918	-0.830623	0.050728	99
Es	-0.972002	-2.253930	-0.343462	99
Es	1.260165	-0.560626	1.532990	99
Es	-0.296160	-1.419566	0.294550	99
Es	-1.292574	0.407991	-0.611625	99
Es	1.666665	1.198798	0.866780	99
44
Properties=species:S:1:pos:R:3:Z:I:1 energy=-304.1250516542169 field_type=dipole dipole="0.000000 0.000000 0.000000" charge=0
N	-1.926395	0.415539	-0.604227	7
C	-0.472945	0.396899	-0.568937	6
C	0.140435	1.493119	0.314663	6
N	1.513664	1.030869	0.596753	7
C	1.359125	-0.421031	0.811453	6
C	0.128865	-0.830741	0.050733	6
C	-0.352475	-2.082931	0.018993	6
H	-2.249455	-0.275441	-1.278767	1
H	-2.245235	1.319549	-0.946237	1
H	-0.082695	0.501819	-1.590017	1
H	-0.404585	1.609979	1.260243	1
H	0.149105	2.465289	-0.188547	1
H	2.076215	1.158239	-0.244307	1
H	2.250605	-0.948481	0.459403	1
H	1.229325	-0.613471	1.881593	1
H	-1.266405	-2.327611	-0.510637	1
H	0.152855	-2.891591	0.537843	1
Es	1.836042	1.095272	0.070085	99
Es	-0.194793	-0.239976	-0.271868	99
Es	0.128923	-0.830625	0.050726	99
Es	1.359112	-0.420914	0.811405	99
Es	1.260214	-0.560629	1.532943	99
Es	1.666476	1.198701	0.866689	99
Es	-0.972027	-2.253937	-0.343508	99
Es	-0.195669	0.954956	-0.136422	99
Es	0.146494	2.158641	-0.035198	99
Es	-0.473057	0.396871	-0.568912	99
Es	-1.926169	0.415648	-0.604741	99
Es	1.961464	-0.782533	0.569141	99
Es	0.056681	-1.541376	-0.245805	99
Es	-0.235086	1.561747	0.955255	99
Es	-1.292517	0.407983	-0.611599	99
Es	0.916135	1.232978	0.458812	99
Es	0.746145	-0.646094	0.424449	99
Es	-0.352503	-2.083002	0.018984	99
Es	-0.010866	-2.634547	0.369362	99
Es	-2.101142	0.961544	-0.831302	99
Es	1.513436	1.030607	0.596301	99
Es	0.140555	1.493066	0.314656	99
Es	-0.188651	0.462716	-1.265299	99
Es	-0.296228	-1.419688	0.294683	99
Es	-2.108590	0.005725	-1.026211	99
Es	-2.060748	0.355152	-0.288177	99
Es	1.446618	0.394985	0.678594	99
44
Properties=species:S:1:pos:R:3:Z:I:1 energy=-304.1250516542169 field_type=dipole dipole="0.000000 0.000000 0.000000" charge=0
N	-1.926395	0.415539	-0.604227	7
C	-0.472945	0.396899	-0.568937	6
C	0.140435	1.493119	0.314663	6
N	1.513664	1.030869	0.596753	7
C	1.359125	-0.421031	0.811453	6
C	0.128865	-0.830741	0.050733	6
C	-0.352475	-2.082931	0.018993	6
H	-2.249455	-0.275441	-1.278767	1
H	-2.245235	1.319549	-0.946237	1
H	-0.082695	0.501819	-1.590017	1
H	-0.404585	1.609979	1.260243	1
H	0.149105	2.465289	-0.188547	1
H	2.076215	1.158239	-0.244307	1
H	2.250605	-0.948481	0.459403	1
H	1.229325	-0.613471	1.881593	1
H	-1.266405	-2.327611	-0.510637	1
H	0.152855	-2.891591	0.537843	1
Es	-0.195688	0.955043	-0.136538	99
Es	1.836181	1.095393	0.070202	99
Es	1.260222	-0.560681	1.532904	99
Es	-0.473060	0.396872	-0.568913	99
Es	-2.101419	0.961744	-0.831034	99
Es	1.513412	1.030585	0.596275	99
Es	1.666295	1.198639	0.866487	99
Es	-0.972103	-2.253879	-0.343437	99
Es	-0.352500	-2.083004	0.018982	99
Es	0.128916	-0.830619	0.050729	99
Es	-1.292409	0.407933	-0.611277	99
Es	-0.010934	-2.634542	0.369559	99
Es	-0.235118	1.561688	0.955226	99
Es	-2.108597	0.005654	-1.026189	99
Es	-0.188619	0.462667	-1.265301	99
Es	1.359112	-0.420908	0.811400	99
Es	1.446722	0.394956	0.678770	99
Es	-0.295991	-1.419650	0.294330	99
Es	1.961455	-0.782574	0.569077	99
Es	0.146497	2.158661	-0.035107	99
Es	0.746098	-0.645969	0.424653	99
Es	0.140554	1.493065	0.314652	99
Es	-2.060586	0.355036	-0.288799	99
Es	0.056781	-1.541518	-0.245833	99
Es	-1.926173	0.415653	-0.604749	99
Es	-0.194906	-0.239971	-0.271835	99
Es	0.916106	1.232994	0.458809	99
44
Properties=species:S:1:pos:R:3:Z:I:1 energy=-304.1250516542169 field_type=dipole dipole="0.000000 0.000000 0.000000" charge=0
N	-1.926395	0.415539	-0.604227	7
C	-0.472945	0.396899	-0.568937	6
C	0.140435	1.493119	0.314663	6
N	1.513664	1.030869	0.596753	7
C	1.359125	-0.421031	0.811453	6
C	0.128865	-0.830741	0.050733	6
C	-0.352475	-2.082931	0.018993	6
H	-2.249455	-0.275441	-1.278767	1
H	-2.245235	1.319549	-0.946237	1
H	-0.082695	0.501819	-1.590017	1
H	-0.404585	1.609979	1.260243	1
H	0.149105	2.465289	-0.188547	1
H	2.076215	1.158239	-0.244307	1
H	2.250605	-0.948481	0.459403	1
H	1.229325	-0.613471	1.881593	1
H	-1.266405	-2.327611	-0.510637	1
H	0.152855	-2.891591	0.537843	1
Es	-0.194887	-0.239890	-0.271890	99
Es	1.260300	-0.560703	1.532961	99
Es	-0.010870	-2.634504	0.369502	99
Es	1.359111	-0.420911	0.811400	99
Es	-2.060577	0.355250	-0.288775	99
Es	-0.473058	0.396873	-0.568915	99
Es	-0.972056	-2.253958	-0.343512	99
Es	-0.352499	-2.083004	0.018981	99
Es	-1.926175	0.415650	-0.604742	99
Es	-2.108729	0.005560	-1.026065	99