38
Properties=species:S:1:pos:R:3:Z:I:1 energy=-301.7972685172118 field_type=dipole dipole="0.000000 0.000000 0.000000" charge=0
N	-3.462158	-0.051209	0.089938	7
C	-2.311148	-0.051209	0.089938	6
C	-0.905148	-0.051209	0.089938	6
C	-0.128548	-1.135519	0.031158	6
C	1.304242	-0.746849	0.032298	6
N	1.322262	0.725571	-0.051412	7
C	-0.073907	1.178271	0.134848	6
H	-0.472668	-2.159569	-0.005202	1
H	1.793452	-1.076339	0.954108	1
H	1.831762	-1.184119	-0.821252	1
H	1.618722	0.986131	-0.992072	1
H	-0.348318	1.884951	-0.655772	1
H	-0.168548	1.681101	1.103488	1
Es	-0.590099	-0.560273	-0.260495	99
Es	-0.073824	1.178165	0.134817	99
Es	1.304187	-0.746735	0.032279	99
Es	1.321852	0.725317	-0.051842	99
Es	0.580878	-0.974728	0.027880	99
Es	-0.905351	-0.051119	0.089946	99
Es	-0.128497	-1.135588	0.031161	99
Es	1.302748	0.078968	-0.027894	99
Es	-0.350345	-1.824630	0.007661	99
Es	-1.641121	-0.041322	0.094256	99
Es	-0.151917	1.510330	0.792927	99
Es	1.536423	0.867813	0.183886	99
Es	-0.263934	1.652135	-0.403801	99
Es	-0.544810	0.566315	0.110118	99
Es	-2.928551	-0.291009	-0.103917	99
Es	1.654284	-1.045718	-0.548152	99
Es	-2.927221	-0.104229	0.390022	99
Es	-2.310813	-0.051168	0.089949	99
Es	-2.931966	0.239070	-0.017305	99
Es	1.620083	-0.980660	0.657820	99
Es	0.703065	0.909867	0.015243	99
Es	-3.831217	-0.051683	0.089127	99
Es	-0.581519	-0.587810	0.378109	99
Es	-3.461709	-0.051208	0.089938	99
Es	1.480343	0.868228	-0.629072	99
38
Properties=species:S:1:pos:R:3:Z:I:1 energy=-301.7972685172118 field_type=dipole dipole="0.000000 0.000000 0.000000" charge=0
N	-3.462158	-0.051209	0.089938	7
C	-2.311148	-0.051209	0.089938	6
C	-0.905148	-0.051209	0.089938	6
C	-0.128548	-1.135519	0.031158	6
C	1.304242	-0.746849	0.032298	6
N	1.322262	0.725571	-0.051412	7
C	-0.073907	1.178271	0.134848	6
H	-0.472668	-2.159569	-0.005202	1
H	1.793452	-1.076339	0.954108	1
H	1.831762	-1.184119	-0.821252	1
H	1.618722	0.986131	-0.992072	1
H	-0.348318	1.884951	-0.655772	1
H	-0.168548	1.681101	1.103488	1
Es	1.480736	0.868252	-0.628995	99
Es	-0.590077	-0.560235	-0.260513	99
Es	-0.581565	-0.587856	0.377957	99
Es	-1.641062	-0.041293	0.094349	99
Es	0.581008	-0.974727	0.028074	99
Es	-2.928152	-0.270832	-0.126355	99
Es	-3.461688	-0.051209	0.089937	99
Es	1.620049	-0.980599	0.657707	99
Es	-3.831003	-0.051118	0.089215	99
Es	1.536184	0.867609	0.183859	99
Es	1.321857	0.725301	-0.051845	99
Es	-2.310783	-0.051208	0.089938	99
Es	-0.128498	-1.135584	0.031162	99
Es	-0.544835	0.566323	0.110219	99
Es	-0.350402	-1.824608	0.007631	99
Es	-2.927580	-0.133579	0.384395	99
Es	-2.932303	0.247614	0.010619	99
Es	1.304188	-0.746738	0.032278	99
Es	-0.905350	-0.051122	0.089962	99
Es	-0.263971	1.652235	-0.403771	99
Es	-0.073822	1.178165	0.134817	99
Es	0.703062	0.910139	0.015110	99
Es	1.654299	-1.045819	-0.548187	99
Es	1.302581	0.078993	-0.027817	99
Es	-0.151905	1.510226	0.792914	99
38
Properties=species:S:1:pos:R:3:Z:I:1 energy=-301.7972685172118 field_type=dipole dipole="0.000000 0.000000 0.000000" charge=0
N	-3.462158	-0.051209	0.089938	7
C	-2.311148	-0.051209	0.089938	6
C	-0.905148	-0.051209	0.089938	6
C	-0.128548	-1.135519	0.031158	6
C	1.304242	-0.746849	0.032298	6
N	1.322262	0.725571	-0.051412	7
C	-0.073907	1.178271	0.134848	6
H	-0.472668	-2.159569	-0.005202	1
H	1.793452	-1.076339	0.954108	1
H	1.831762	-1.184119	-0.821252	1
H	1.618722	0.986131	-0.992072	1
H	-0.348318	1.884951	-0.655772	1
H	-0.168548	1.681101	1.103488	1
Es	1.535237	0.867505	0.183590	99
Es	-0.073822	1.178165	0.134816	99
Es	-2.932740	0.258959	0.095948	99
Es	-0.590007	-0.560440	-0.260059	99
Es	-0.581702	-0.587707	0.378002	99
Es	0.702996	0.909941	0.014915	99
Es	-0.151944	1.510285	0.792847	99
Es	0.581055	-0.974765	0.027904	99
Es	-0.544827	0.566471	0.110100	99
Es	-0.905350	-0.051120	0.089924	99
Es	1.481331	0.868783	-0.628747	99
Es	-0.263956	1.652174	-0.403717	99
Es	1.654376	-1.045797	-0.548088	99
Es	-2.926610	-0.201857	-0.177676	99
Es	1.304188	-0.746737	0.032279	99
Es	-3.830705	-0.051420	0.089096	99
Es	-3.461710	-0.051209	0.089937	99
Es	-0.128499	-1.135582	0.031161	99
Es	1.321859	0.725306	-0.051849	99
Es	1.619961	-0.980627	0.657668	99
Es	-2.929005	-0.213550	0.350361	99
Es	1.303126	0.078768	-0.027559	99
Es	-0.350452	-1.824583	0.007562	99
Es	-1.641062	-0.041429	0.094306	99
Es	-2.310772	-0.051206	0.089936	99
38
Properties=species:S:1:pos:R:3:Z:I:1 energy=-301.7972685172118 field_type=dipole dipole="0.000000 0.000000 0.000000" charge=0
N	-3.462158	-0.051209	0.089938	7
C	-2.311148	-0.051209	0.089938	6
C	-0.905148	-0.051209	0.089938	6
C	-0.128548	-1.135519	0.031158	6
C	1.304242	-0.746849	0.032298	6
N	1.322262	0.725571	-0.051412	7
C	-0.073907	1.178271	0.134848	6
H	-0.472668	-2.159569	-0.005202	1
H	1.793452	-1.076339	0.954108	1
H	1.831762	-1.184119	-0.821252	1
H	1.618722	0.986131	-0.992072	1
H	-0.348318	1.884951	-0.655772	1
H	-0.168548	1.681101	1.103488	1
Es	1.321889	0.725316	-0.051807	99
Es	-2.932101	-0.360316	0.075021	99
Es	-0.128498	-1.135585	0.031162	99
Es	-3.830627	-0.051526	0.089516	99
Es	-1.641007	-0.041658	0.094363	99
Es	1.536268	0.867629	0.183238	99
Es	-0.544839	0.566628	0.110199	99
Es	1.304187	-0.746735	0.032278	99
Es	0.581140	-0.974642	0.027974	99
Es	1.654338	-1.045787	-0.548050	99
Es	-0.581827	-0.587938	0.377793	99
Es	-0.905349	-0.051121	0.089950	99
Es	0.703116	0.910223	0.015548	99
Es	-0.350421	-1.824621	0.007557	99
Es	-2.928282	0.115005	-0.169067	99
Es	1.619951	-0.980704	0.657654	99
Es	1.302943	0.078941	-0.027702	99
Es	-0.263969	1.652176	-0.403700	99
Es	1.480390	0.868249	-0.628895	99
Es	-2.310776	-0.051207	0.089937	99
Es	-0.151979	1.510286	0.792799	99
Es	-0.073822	1.178165	0.134816	99
Es	-0.590128	-0.560595	-0.260207	99
Es	-2.927924	0.089351	0.362346	99
Es	-3.461706	-0.051206	0.089938	99
38
Properties=species:S:1:pos:R:3:Z:I:1 energy=-301.7972685172118 field_type=dipole dipole="0.000000 0.000000 0.000000" charge=0
N	-3.462158	-0.051209	0.089938	7
C	-2.311148	-0.051209	0.089938	6
C	-0.905148	-0.051209	0.089938	6
C	-0.128548	-1.135519	0.031158	6
C	1.304242	-0.746849	0.032298	6
N	1.322262	0.725571	-0.051412	7
C	-0.073907	1.178271	0.134848	6
H	-0.472668	-2.159569	-0.005202	1
H	1.793452	-1.076339	0.954108	1
H	1.831762	-1.184119	-0.821252	1
H	1.618722	0.986131	-0.992072	1
H	-0.348318	1.884951	-0.655772	1
H	-0.168548	1.681101	1.103488	1
Es	-1.640855	-0.041702	0.094469	99
Es	0.703032	0.910384	0.015498	99
Es	-0.128496	-1.135587	0.031160	99
Es	-0.263987	1.652170	-0.403641	99
Es	1.619945	-0.980698	0.657645	99
Es	-0.350516	-1.824594	0.007682	99
Es	-2.932404	0.248509	0.170148	99
Es	-0.544924	0.566728	0.110183	99
Es	0.581278	-0.974650	0.027938	99
Es	-2.310782	-0.051205	0.089948	99
Es	-2.930499	-0.271443	0.304786	99
Es	-0.151969	1.510282	0.792779	99
Es	-0.905350	-0.051120	0.089953	99
Es	1.654318	-1.045825	-0.548086	99
Es	-2.925939	-0.133398	-0.206500	99
Es	1.480875	0.868486	-0.628777	99
Es	1.535742	0.867355	0.182985	99
Es	-0.073823	1.178165	0.134817	99
Es	-3.461728	-0.051209	0.089937	99
Es	1.303102	0.078853	-0.027519	99
Es	1.321860	0.725307	-0.051851	99
Es	-0.590234	-0.560474	-0.260111	99
Es	-0.581674	-0.587875	0.377659	99
Es	1.304187	-0.746734	0.032279	99
Es	-3.830195	-0.051398	0.089281	99
38
Properties=species:S:1:pos:R:3:Z:I:1 energy=-301.7972685172118 field_type=dipole dipole="0.000000 0.000000 0.000000" charge=0
N	-3.462158	-0.051209	0.089938	7
C	-2.311148	-0.051209	0.089938	6
C	-0.905148	-0.051209	0.089938	6
C	-0.128548	-1.135519	0.031158	6
C	1.304242	-0.746849	0.032298	6
N	1.322262	0.725571	-0.051412	7
C	-0.073907	1.178271	0.134848	6
H	-0.472668	-2.159569	-0.005202	1
H	1.793452	-1.076339	0.954108	1
H	1.831762	-1.184119	-0.821252	1
H	1.618722	0.986131	-0.992072	1
H	-0.348318	1.884951	-0.655772	1
H	-0.168548	1.681101	1.103488	1
Es	0.581381	-0.974654	0.027874	99
Es	1.481033	0.868771	-0.628536	99
Es	-0.152079	1.510276	0.792779	99
Es	-2.929534	-0.303602	-0.088913	99
Es	-0.590100	-0.560443	-0.260037	99
Es	-2.932064	0.231787	-0.036720	99
Es	-0.128498	-1.135587	0.031160	99
Es	1.654331	-1.045880	-0.548026	99
Es	1.321871	0.725317	-0.051830	99
Es	-3.461705	-0.051208	0.089939	99
Es	-0.544925	0.566786	0.110206	99
Es	-0.581784	-0.587970	0.377671	99
Es	-0.905345	-0.051126	0.089946	99
Es	1.304188	-0.746736	0.032279	99
Es	1.535628	0.866968	0.182738	99
Es	-2.310782	-0.051209	0.089937	99
Es	1.619853	-0.980719	0.657702	99
Es	-1.640832	-0.041654	0.094167	99
Es	-0.264002	1.652133	-0.403571	99
Es	1.303027	0.078690	-0.027805	99
Es	-0.073822	1.178166	0.134815	99
Es	-0.350590	-1.824603	0.007577	99
Es	-2.927350	-0.084463	0.394059	99
Es	-3.830087	-0.051427	0.089509	99
Es	0.703154	0.910716	0.015738	99
38
Properties=species:S:1:pos:R:3:Z:I:1 energy=-301.7972685172118 field_type=dipole dipole="0.000000 0.000000 0.000000" charge=0
N	-3.462158	-0.051209	0.089938	7
C	-2.311148	-0.051209	0.089938	6
C	-0.905148	-0.051209	0.089938	6
C	-0.128548	-1.135519	0.031158	6
C	1.304242	-0.746849	0.032298	6
N	1.322262	0.725571	-0.051412	7
C	-0.073907	1.178271	0.134848	6
H	-0.472668	-2.159569	-0.005202	1
H	1.793452	-1.076339	0.954108	1
H	1.831762	-1.184119	-0.821252	1
H	1.618722	0.986131	-0.992072	1
H	-0.348318	1.884951	-0.655772	1
H	-0.168548	1.681101	1.103488	1
Es	-2.930677	-0.330187	-0.044497	99
Es	1.619969	-0.980652	0.657565	99
Es	1.481214	0.868639	-0.628625	99
Es	-2.931277	0.205082	-0.083210	99
Es	1.304188	-0.746738	0.032279	99
Es	-1.640801	-0.041736	0.094255	99
Es	-0.590227	-0.560561	-0.259931	99
Es	-0.581816	-0.588045	0.377602	99
Es	1.321844	0.725274	-0.051865	99
Es	-3.461705	-0.051208	0.089936	99
Es	1.654329	-1.045837	-0.548073	99
Es	0.581401	-0.974726	0.027996	99
Es	-2.927138	-0.031032	0.395918	99
Es	-0.128499	-1.135582	0.031161	99
Es	-0.544856	0.566880	0.110177	99
Es	1.535450	0.867010	0.182588	99
Es	0.703102	0.910730	0.015791	99
Es	-0.152114	1.510191	0.792677	99
Es	-2.310790	-0.051206	0.089941	99
Es	1.303058	0.078788	-0.027459	99
Es	-0.350602	-1.824582	0.007553	99
Es	-0.264011	1.652236	-0.403607	99
Es	-0.073822	1.178166	0.134817	99
Es	-3.829907	-0.051454	0.089720	99
Es	-0.905348	-0.051121	0.089950	99
38
Properties=species:S:1:pos:R:3:Z:I:1 energy=-301.7972685172118 field_type=dipole dipole="0.000000 0.000000 0.000000" charge=0
N	-3.462158	-0.051209	0.089938	7
C	-2.311148	-0.051209	0.089938	6
C	-0.905148	-0.051209	0.089938	6
C	-0.128548	-1.135519	0.031158	6
C	1.304242	-0.746849	0.032298	6
N	1.322262	0.725571	-0.051412	7
C	-0.073907	1.178271	0.134848	6
H	-0.472668	-2.159569	-0.005202	1
H	1.793452	-1.076339	0.954108	1
H	1.831762	-1.184119	-0.821252	1
H	1.618722	0.986131	-0.992072	1
H	-0.348318	1.884951	-0.655772	1
H	-0.168548	1.681101	1.103488	1
Es	-0.590098	-0.560856	-0.259684	99
Es	-0.905346	-0.051124	0.089954	99
Es	-0.350701	-1.824617	0.007534	99
Es	1.654253	-1.045888	-0.548022	99
Es	1.303457	0.078746	-0.027388	99
Es	0.581490	-0.974630	0.027917	99
Es	-0.581964	-0.587821	0.377616	99
Es	1.534959	0.866757	0.182171	99
Es	1.481331	0.868886	-0.628524	99
Es	-0.152103	1.510224	0.792685	99
Es	-0.544875	0.566993	0.110092	99
Es	-2.310783	-0.051206	0.089938	99
Es	-3.829450	-0.051266	0.090049	99
Es	-0.073823	1.178166	0.134817	99
Es	-0.128499	-1.135582	0.031161	99
Es	-2.930975	0.193743	-0.098753	99
Es	-2.927098	-0.012605	0.394723	99
Es	1.619910	-0.980752	0.657563	99
Es	-0.264045	1.652190	-0.403561	99
Es	1.304188	-0.746737	0.032279	99
Es	1.321987	0.725393	-0.051771	99
Es	-3.461978	-0.051206	0.089955	99
Es	-2.931190	-0.337430	-0.028191	99
Es	-1.640747	-0.041784	0.094229	99
Es	0.703067	0.910736	0.015872	99
38
Properties=species:S:1:pos:R:3:Z:I:1 energy=-301.7972685172118 field_type=dipole dipole="0.000000 0.000000 0.000000" charge=0
N	-3.462158	-0.051209	0.089938	7
C	-2.311148	-0.051209	0.089938	6
C	-0.905148	-0.051209	0.089938	6
C	-0.128548	-1.135519	0.031158	6
C	1.304242	-0.746849	0.032298	6
N	1.322262	0.725571	-0.051412	7
C	-0.073907	1.178271	0.134848	6
H	-0.472668	-2.159569	-0.005202	1
H	1.793452	-1.076339	0.954108	1
H	1.831762	-1.184119	-0.821252	1
H	1.618722	0.986131	-0.992072	1
H	-0.348318	1.884951	-0.655772	1
H	-0.168548	1.681101	1.103488	1
Es	1.304188	-0.746736	0.032280	99
Es	-0.544937	0.567077	0.110243	99
Es	-0.073823	1.178166	0.134817	99
Es	-2.310783	-0.051207	0.089938	99
Es	0.581565	-0.974653	0.027992	99
Es	-2.928393	0.103028	0.355874	99
Es	0.703070	0.910665	0.015755	99
Es	1.481419	0.868867	-0.628564	99
Es	-0.152115	1.510192	0.792647	99
Es	1.303702	0.078671	-0.027014	99
Es	1.321863	0.725308	-0.051852	99
Es	-1.640722	-0.041919	0.094191	99
Es	-3.461709	-0.051208	0.089937	99
Es	-2.932621	-0.361421	0.090157	99
Es	-0.581965	-0.588014	0.377430	99
Es	1.654277	-1.045893	-0.548011	99
Es	-2.928280	0.102242	-0.177858	99
Es	1.534804	0.867018	0.182054	99
Es	-0.128497	-1.135583	0.031160	99
Es	-3.829658	-0.051270	0.089687	99
Es	1.619868	-0.980772	0.657523	99
Es	-0.264043	1.652223	-0.403491	99
Es	-0.590135	-0.560742	-0.259765	99
Es	-0.350765	-1.824586	0.007573	99
Es	-0.905343	-0.051127	0.089957	99
38
Properties=species:S:1:pos:R:3:Z:I:1 energy=-301.7972685172118 field_type=dipole dipole="0.000000 0.000000 0.000000" charge=0
N	-3.462158	-0.051209	0.089938	7
C	-2.311148	-0.051209	0.089938	6
C	-0.905148	-0.051209	0.089938	6
C	-0.128548	-1.135519	0.031158	6
C	1.304242	-0.746849	0.032298	6
N	1.322262	0.725571	-0.051412	7
C	-0.073907	1.178271	0.134848	6
H	-0.472668	-2.159569	-0.005202	1
H	1.793452	-1.076339	0.954108	1
H	1.831762	-1.184119	-0.821252	1
H	1.618722	0.986131	-0.992072	1
H	-0.348318	1.884951	-0.655772	1
H	-0.168548	1.681101	1.103488	1
Es	-2.930145	-0.243645	0.330941	99
Es	-1.640572	-0.041868	0.094307	99
Es	-2.933205	0.257114	0.132495	99
Es	-0.152131	1.510282	0.792590	99
Es	-3.461709	-0.051208	0.089937	99
Es	-2.310782	-0.051205	0.089936	99
Es	1.534973	0.866810	0.182009	99
Es	-0.350825	-1.824625	0.007619	99
Es	-0.073821	1.178165	0.134816	99
Es	-3.829128	-0.051610	0.089203	99
Es	-0.544890	0.567133	0.110313	99
Es	1.481407	0.868955	-0.628382	99
Es	1.321863	0.725310	-0.051825	99
Es	0.581684	-0.974577	0.028022	99
Es	-2.926645	-0.169518	-0.194881	99
Es	-0.581872	-0.588099	0.377207	99
Es	0.703051	0.910806	0.015909	99
Es	-0.128500	-1.135581	0.031162	99
Es	1.619862	-0.980793	0.657528	99
Es	-0.590254	-0.560524	-0.259614	99
Es	1.304188	-0.746738	0.032278	99
Es	-0.905344	-0.051125	0.089949	99
Es	1.654213	-1.045940	-0.547999	99
Es	1.303603	0.078671	-0.027346	99
Es	-0.264054	1.652138	-0.403517	99
38
Properties=species:S:1:pos:R:3:Z:I:1 energy=-301.7972685172118 field_type=dipole dipole="0.000000 0.000000 0.000000" charge=0
N	-3.462158	-0.051209	0.089938	7
C	-2.311148	-0.051209	0.089938	6
C	-0.905148	-0.051209	0.089938	6
C	-0.128548	-1.135519	0.031158	6
C	1.304242	-0.746849	0.032298	6
N	1.322262	0.725571	-0.051412	7
C	-0.073907	1.178271	0.134848	6
H	-0.472668	-2.159569	-0.005202	1
H	1.793452	-1.076339	0.954108	1
H	1.831762	-1.184119	-0.821252	1
H	1.618722	0.986131	-0.992072	1
H	-0.348318	1.884951	-0.655772	1
H	-0.168548	1.681101	1.103488	1
Es	-0.905343	-0.051126	0.089947	99
Es	-0.073822	1.178167	0.134816	99
Es	-2.932988	0.253090	0.156645	99
Es	1.303834	0.078636	-0.027316	99
Es	1.534758	0.866702	0.181756	99
Es	0.581685	-0.974619	0.027998	99
Es	-0.264105	1.652186	-0.403504	99
Es	1.619824	-0.980747	0.657465	99
Es	1.304188	-0.746733	0.032279	99
Es	1.654283	-1.045960	-0.547954	99
Es	-2.926528	-0.147125	-0.203396	99
Es	-0.128500	-1.135580	0.031159	99
Es	0.703012	0.910812	0.016092	99
Es	-0.581932	-0.588035	0.377259	99
Es	-0.590276	-0.560668	-0.259554	99
Es	-3.461698	-0.051224	0.089934	99
Es	-2.310782	-0.051209	0.089938	99
Es	-0.544872	0.567234	0.110243	99
Es	-1.640499	-0.042012	0.094334	99
Es	-0.350826	-1.824624	0.007613	99
Es	-3.828873	-0.051370	0.089285	99
Es	-2.930732	-0.262119	0.315201	99
Es	1.481449	0.869134	-0.628334	99
Es	1.321869	0.725316	-0.051834	99
Es	-0.152161	1.510204	0.792588	99
38
Properties=species:S:1:pos:R:3:Z:I:1 energy=-301.7972685172118 field_type=dipole dipole="0.000000 0.000000 0.000000" charge=0
N	-3.462158	-0.051209	0.089938	7
C	-2.311148	-0.051209	0.089938	6
C	-0.905148	-0.051209	0.089938	6
C	-0.128548	-1.135519	0.031158	6
C	1.304242	-0.746849	0.032298	6
N	1.322262	0.725571	-0.051412	7
C	-0.073907	1.178271	0.134848	6
H	-0.472668	-2.159569	-0.005202	1
H	1.793452	-1.076339	0.954108	1
H	1.831762	-1.184119	-0.821252	1
H	1.618722	0.986131	-0.992072	1
H	-0.348318	1.884951	-0.655772	1
H	-0.168548	1.681101	1.103488	1
Es	0.703072	0.910975	0.015939	99
Es	1.619824	-0.980799	0.657490	99
Es	-2.927611	-0.062788	0.396511	99
Es	-0.544887	0.567270	0.110253	99
Es	0.581751	-0.974559	0.027959	99
Es	-0.073829	1.178170	0.134816	99
Es	1.304187	-0.746742	0.032280	99
Es	-0.590300	-0.560706	-0.259541	99
Es	-2.930309	-0.316229	-0.072364	99
Es	1.321869	0.725310	-0.051836	99
Es	1.654226	-1.045973	-0.547988	99
Es	-3.461753	-0.051208	0.089938	99
Es	-3.828862	-0.051623	0.089535	99
Es	1.481573	0.869063	-0.628249	99
Es	-0.264133	1.652210	-0.403460	99
Es	-0.905337	-0.051131	0.089956	99
Es	-0.581955	-0.588127	0.377233	99
Es	-1.640474	-0.041981	0.094149	99
Es	1.534814	0.866648	0.181881	99
Es	-0.350895	-1.824605	0.007560	99
Es	-0.128501	-1.135586	0.031160	99
Es	1.303676	0.078640	-0.027370	99
Es	-2.932215	0.223137	-0.055675	99
Es	-0.152178	1.510169	0.792549	99
Es	-2.310783	-0.051207	0.089937	99
38
Properties=species:S:1:pos:R:3:Z:I:1 energy=-301.7972685172118 field_type=dipole dipole="0.000000 0.000000 0.000000" charge=0
N	-3.462158	-0.051209	0.089938	7
C	-2.311148	-0.051209	0.089938	6
C	-0.905148	-0.051209	0.089938	6
C	-0.128548	-1.135519	0.031158	6
C	1.304242	-0.746849	0.032298	6
N	1.322262	0.725571	-0.051412	7
C	-0.073907	1.178271	0.134848	6
H	-0.472668	-2.159569	-0.005202	1
H	1.793452	-1.076339	0.954108	1
H	1.831762	-1.184119	-0.821252	1
H	1.618722	0.986131	-0.992072	1
H	-0.348318	1.884951	-0.655772	1
H	-0.168548	1.681101	1.103488	1
Es	1.654163	-1.046003	-0.547938	99
Es	0.703055	0.910824	0.015545	99
Es	1.321866	0.725302	-0.051837	99
Es	-2.927610	0.015051	0.389808	99
Es	-0.152227	1.510201	0.792533	99
Es	-2.930564	0.177036	-0.120030	99
Es	-3.461710	-0.051209	0.089938	99
Es	1.304189	-0.746740	0.032279	99
Es	-0.350992	-1.824621	0.007616	99
Es	-1.640467	-0.042070	0.094148	99
Es	-0.581990	-0.588094	0.377105	99
Es	-2.931944	-0.348407	-0.001557	99
Es	1.303580	0.078661	-0.027686	99
Es	-0.264126	1.652167	-0.403405	99
Es	-0.128507	-1.135579	0.031162	99
Es	-2.310786	-0.051216	0.089931	99
Es	-0.544923	0.567437	0.110205	99
Es	1.482340	0.869565	-0.628018	99
Es	-0.590275	-0.560859	-0.259388	99
Es	-0.073826	1.178168	0.134816	99
Es	-0.905341	-0.051126	0.089948	99
Es	0.581837	-0.974586	0.028016	99
Es	1.619880	-0.980764	0.657458	99
Es	-3.828860	-0.051102	0.089736	99
Es	1.534204	0.866291	0.182274	99
38
Properties=species:S:1:pos:R:3:Z:I:1 energy=-301.7972685172118 field_type=dipole dipole="0.000000 0.000000 0.000000" charge=0
N	-3.462158	-0.051209	0.089938	7
C	-2.311148	-0.051209	0.089938	6
C	-0.905148	-0.051209	0.089938	6
C	-0.128548	-1.135519	0.031158	6
C	1.304242	-0.746849	0.032298	6
N	1.322262	0.725571	-0.051412	7
C	-0.073907	1.178271	0.134848	6
H	-0.472668	-2.159569	-0.005202	1
H	1.793452	-1.076339	0.954108	1
H	1.831762	-1.184119	-0.821252	1
H	1.618722	0.986131	-0.992072	1
H	-0.348318	1.884951	-0.655772	1
H	-0.168548	1.681101	1.103488	1
Es	-0.152171	1.510137	0.792510	99
Es	1.304189	-0.746743	0.032279	99
Es	-2.310785	-0.051207	0.089938	99
Es	-0.351036	-1.824608	0.007595	99
Es	-1.640448	-0.042171	0.094196	99
Es	-0.590312	-0.560795	-0.259331	99
Es	-2.929788	0.154120	0.321194	99
Es	-2.933214	-0.356317	0.150616	99
Es	-0.582028	-0.588208	0.376985	99
Es	-2.927257	0.045606	-0.202991	99
Es	-0.264209	1.652216	-0.403376	99
Es	-3.828696	-0.050755	0.089038	99
Es	0.581960	-0.974581	0.027940	99
Es	1.654226	-1.046046	-0.547894	99
Es	1.303669	0.078647	-0.027682	99
Es	1.482944	0.869963	-0.627792	99
Es	0.702957	0.911091	0.015556	99
Es	1.533565	0.865731	0.181953	99
Es	-0.905341	-0.051128	0.089951	99
Es	-0.128500	-1.135574	0.031168	99
Es	-3.461722	-0.051208	0.089937	99
Es	-0.544882	0.567465	0.110408	99
Es	-0.073823	1.178169	0.134818	99
Es	1.321925	0.725331	-0.051791	99
Es	1.619742	-0.980807	0.657434	99
38
Properties=species:S:1:pos:R:3:Z:I:1 energy=-301.7972685172118 field_type=dipole dipole="0.000000 0.000000 0.000000" charge=0
N	-3.462158	-0.051209	0.089938	7
C	-2.311148	-0.051209	0.089938	6
C	-0.905148	-0.051209	0.089938	6
C	-0.128548	-1.135519	0.031158	6
C	1.304242	-0.746849	0.032298	6
N	1.322262	0.725571	-0.051412	7
C	-0.073907	1.178271	0.134848	6
H	-0.472668	-2.159569	-0.005202	1
H	1.793452	-1.076339	0.954108	1
H	1.831762	-1.184119	-0.821252	1
H	1.618722	0.986131	-0.992072	1
H	-0.348318	1.884951	-0.655772	1
H	-0.168548	1.681101	1.103488	1
Es	-0.544865	0.567573	0.110313	99
Es	1.321889	0.725308	-0.051844	99
Es	-0.905335	-0.051130	0.089945	99
Es	-1.640312	-0.042188	0.094307	99
Es	-0.128500	-1.135587	0.031156	99
Es	-0.351124	-1.824646	0.007584	99
Es	1.533895	0.866343	0.181004	99
Es	-2.931850	0.219190	0.243800	99
Es	-2.926453	-0.054520	-0.218569	99
Es	-3.828260	-0.051082	0.089131	99
Es	-2.932517	-0.321039	0.243375	99
Es	-3.461703	-0.051212	0.089934	99
Es	-0.264188	1.652178	-0.403397	99
Es	-0.590232	-0.560912	-0.259153	99
Es	0.581944	-0.974596	0.027928	99
Es	1.482079	0.869365	-0.628151	99
Es	0.703094	0.911241	0.016189	99
Es	1.304172	0.078472	-0.026824	99
Es	-0.152278	1.510163	0.792440	99
Es	-2.310784	-0.051208	0.089938	99
Es	-0.582057	-0.587987	0.376938	99
Es	1.619751	-0.980810	0.657423	99
Es	1.654244	-1.046017	-0.547902	99
Es	1.304188	-0.746741	0.032279	99
Es	-0.073831	1.178171	0.134818	99
