42
Properties=species:S:1:pos:R:3:Z:I:1 energy=-343.81605827954866 field_type=dipole dipole="0.000000 0.000000 0.000000" charge=0
C	-1.221236	-0.424581	-0.646697	6
O	-1.156706	1.016909	-0.669997	8
C	-0.003066	1.330079	0.129713	6
C	-0.013856	0.273919	1.213303	6
C	-0.001446	-0.825151	0.175403	6
C	1.236884	-0.422381	-0.619907	6
O	1.169294	1.019229	-0.643977	8
H	-1.206636	-0.809441	-1.671267	1
H	-2.160036	-0.716541	-0.163527	1
H	-0.007556	2.371649	0.458493	1
H	-0.921956	0.279659	1.824083	1
H	0.880374	0.281589	1.844283	1
H	-0.003986	-1.856161	0.528563	1
H	2.164634	-0.711941	-0.115197	1
H	1.245294	-0.806841	-1.643277	1
Es	-0.720313	1.120791	-0.365119	99
Es	-1.221197	-0.424356	-0.646678	99
Es	-0.009095	0.828448	0.722092	99
Es	0.596252	0.282394	1.639757	99
Es	1.177463	0.469934	-0.627173	99
Es	-0.611633	-0.659026	-0.243485	99
Es	-0.633360	0.280966	1.625962	99
Es	1.236843	-0.422156	-0.619889	99
Es	-1.863864	-0.634076	-0.310556	99
Es	0.618321	-0.657966	-0.229865	99
Es	-0.006068	2.039740	0.345342	99
Es	1.237969	-0.691993	-1.319881	99
Es	0.726784	1.121880	-0.347342	99
Es	1.410317	1.120393	-0.480877	99
Es	1.107599	1.105251	-0.927950	99
Es	1.871979	-0.630315	-0.269222	99
Es	-0.003063	1.329941	0.129440	99
Es	1.169088	1.018960	-0.643735	99
Es	-1.162517	0.467852	-0.653967	99
Es	-1.156539	1.016738	-0.669882	99
Es	-0.001445	-0.825110	0.175382	99
Es	-1.397533	1.112343	-0.506983	99
Es	-1.206496	-0.694427	-1.347251	99
Es	-0.013855	0.273897	1.213269	99
Es	-0.008069	-0.314169	0.737315	99
Es	-1.095122	1.107622	-0.955225	99
Es	-0.003271	-1.529244	0.411297	99
42
Properties=species:S:1:pos:R:3:Z:I:1 energy=-343.81605827954866 field_type=dipole dipole="0.000000 0.000000 0.000000" charge=0
C	-1.221236	-0.424581	-0.646697	6
O	-1.156706	1.016909	-0.669997	8
C	-0.003066	1.330079	0.129713	6
C	-0.013856	0.273919	1.213303	6
C	-0.001446	-0.825151	0.175403	6
C	1.236884	-0.422381	-0.619907	6
O	1.169294	1.019229	-0.643977	8
H	-1.206636	-0.809441	-1.671267	1
H	-2.160036	-0.716541	-0.163527	1
H	-0.007556	2.371649	0.458493	1
H	-0.921956	0.279659	1.824083	1
H	0.880374	0.281589	1.844283	1
H	-0.003986	-1.856161	0.528563	1
H	2.164634	-0.711941	-0.115197	1
H	1.245294	-0.806841	-1.643277	1
Es	-0.611685	-0.659121	-0.243403	99
Es	0.618258	-0.658102	-0.230046	99
Es	-0.008056	-0.314341	0.737498	99
Es	-0.013854	0.273900	1.213268	99
Es	-1.163394	0.467387	-0.653761	99
Es	-1.206611	-0.694417	-1.347242	99
Es	-1.398560	1.114082	-0.509960	99
Es	1.176217	0.469642	-0.628696	99
Es	1.871862	-0.630259	-0.269131	99
Es	-0.003239	-1.529189	0.411228	99
Es	-0.633334	0.281131	1.625989	99
Es	-0.001446	-0.825109	0.175383	99
Es	-1.092649	1.105840	-0.953712	99
Es	1.236843	-0.422156	-0.619889	99
Es	-1.156601	1.016797	-0.669907	99
Es	-0.720848	1.121289	-0.363830	99
Es	1.111093	1.107594	-0.927860	99
Es	1.408696	1.117492	-0.478832	99
Es	0.726123	1.122754	-0.347910	99
Es	1.169089	1.018991	-0.643752	99
Es	-1.863785	-0.634023	-0.310612	99
Es	0.596255	0.282449	1.639723	99
Es	-0.003063	1.329942	0.129438	99
Es	1.238211	-0.691977	-1.319870	99
Es	-0.009084	0.828389	0.721998	99
Es	-0.006066	2.039683	0.345339	99
Es	-1.221196	-0.424357	-0.646679	99
42
Properties=species:S:1:pos:R:3:Z:I:1 energy=-343.81605827954866 field_type=dipole dipole="0.000000 0.000000 0.000000" charge=0
C	-1.221236	-0.424581	-0.646697	6
O	-1.156706	1.016909	-0.669997	8
C	-0.003066	1.330079	0.129713	6
C	-0.013856	0.273919	1.213303	6
C	-0.001446	-0.825151	0.175403	6
C	1.236884	-0.422381	-0.619907	6
O	1.169294	1.019229	-0.643977	8
H	-1.206636	-0.809441	-1.671267	1
H	-2.160036	-0.716541	-0.163527	1
H	-0.007556	2.371649	0.458493	1
H	-0.921956	0.279659	1.824083	1
H	0.880374	0.281589	1.844283	1
H	-0.003986	-1.856161	0.528563	1
H	2.164634	-0.711941	-0.115197	1
H	1.245294	-0.806841	-1.643277	1
Es	-0.009071	0.828589	0.722276	99
Es	-0.008141	-0.314274	0.737332	99
Es	-1.221196	-0.424357	-0.646679	99
Es	1.110210	1.108084	-0.928460	99
Es	-1.163542	0.467669	-0.655183	99
Es	-1.398671	1.114117	-0.508780	99
Es	0.618262	-0.658143	-0.229981	99
Es	1.169087	1.019020	-0.643793	99
Es	-0.611604	-0.659208	-0.243473	99
Es	1.177330	0.469835	-0.628639	99
Es	-1.093424	1.106644	-0.953020	99
Es	-1.863806	-0.634093	-0.310621	99
Es	1.236843	-0.422159	-0.619889	99
Es	-0.720035	1.120317	-0.364386	99
Es	-0.001445	-0.825108	0.175383	99
Es	1.871891	-0.630319	-0.269247	99
Es	0.726455	1.121463	-0.347579	99
Es	-0.633268	0.281063	1.625981	99
Es	-1.206571	-0.694415	-1.347155	99
Es	1.238129	-0.691943	-1.319801	99
Es	-1.156429	1.016698	-0.669855	99
Es	-0.003063	1.329943	0.129442	99
Es	1.408234	1.118115	-0.478593	99
Es	-0.013856	0.273899	1.213267	99
Es	0.596176	0.282358	1.639730	99
Es	-0.003238	-1.529133	0.411199	99
Es	-0.006080	2.039649	0.345297	99
42
Properties=species:S:1:pos:R:3:Z:I:1 energy=-343.81605827954866 field_type=dipole dipole="0.000000 0.000000 0.000000" charge=0
C	-1.221236	-0.424581	-0.646697	6
O	-1.156706	1.016909	-0.669997	8
C	-0.003066	1.330079	0.129713	6
C	-0.013856	0.273919	1.213303	6
C	-0.001446	-0.825151	0.175403	6
C	1.236884	-0.422381	-0.619907	6
O	1.169294	1.019229	-0.643977	8
H	-1.206636	-0.809441	-1.671267	1
H	-2.160036	-0.716541	-0.163527	1
H	-0.007556	2.371649	0.458493	1
H	-0.921956	0.279659	1.824083	1
H	0.880374	0.281589	1.844283	1
H	-0.003986	-1.856161	0.528563	1
H	2.164634	-0.711941	-0.115197	1
H	1.245294	-0.806841	-1.643277	1
Es	-1.163345	0.466981	-0.654864	99
Es	0.618279	-0.658195	-0.230034	99
Es	1.110574	1.107391	-0.927448	99
Es	-1.397608	1.113453	-0.508666	99
Es	-0.611580	-0.659314	-0.243403	99
Es	-0.009094	0.828512	0.722088	99
Es	0.596130	0.282479	1.639748	99
Es	-1.156595	1.016797	-0.669909	99
Es	1.408038	1.118354	-0.479619	99
Es	-0.001445	-0.825110	0.175383	99
Es	-0.008089	-0.314512	0.737589	99
Es	-0.003062	1.329943	0.129442	99
Es	-0.633236	0.281163	1.625956	99
Es	1.236842	-0.422158	-0.619889	99
Es	1.871942	-0.630342	-0.269261	99
Es	0.726184	1.122580	-0.347736	99
Es	1.169070	1.018992	-0.643790	99
Es	-0.720092	1.121397	-0.364841	99
Es	-1.863805	-0.634032	-0.310767	99
Es	-1.221197	-0.424360	-0.646679	99
Es	-0.006032	2.039568	0.345375	99
Es	-1.206660	-0.694327	-1.347099	99
Es	-0.013856	0.273899	1.213267	99
Es	-1.094478	1.106922	-0.952929	99
Es	-0.003277	-1.529096	0.411074	99
Es	1.238126	-0.691887	-1.319758	99
Es	1.177442	0.469212	-0.628454	99
42
Properties=species:S:1:pos:R:3:Z:I:1 energy=-343.81605827954866 field_type=dipole dipole="0.000000 0.000000 0.000000" charge=0
C	-1.221236	-0.424581	-0.646697	6
O	-1.156706	1.016909	-0.669997	8
C	-0.003066	1.330079	0.129713	6
C	-0.013856	0.273919	1.213303	6
C	-0.001446	-0.825151	0.175403	6
C	1.236884	-0.422381	-0.619907	6
O	1.169294	1.019229	-0.643977	8
H	-1.206636	-0.809441	-1.671267	1
H	-2.160036	-0.716541	-0.163527	1
H	-0.007556	2.371649	0.458493	1
H	-0.921956	0.279659	1.824083	1
H	0.880374	0.281589	1.844283	1
H	-0.003986	-1.856161	0.528563	1
H	2.164634	-0.711941	-0.115197	1
H	1.245294	-0.806841	-1.643277	1
Es	-0.611600	-0.659330	-0.243523	99
Es	0.725382	1.122811	-0.348796	99
Es	-1.398431	1.113680	-0.510486	99
Es	-0.720884	1.121605	-0.363291	99
Es	1.177110	0.469112	-0.629176	99
Es	-1.863747	-0.634054	-0.310647	99
Es	-0.006068	2.039557	0.345260	99
Es	1.113604	1.109269	-0.927863	99
Es	1.871920	-0.630324	-0.269378	99
Es	-0.009001	0.828676	0.722336	99
Es	-0.008157	-0.314531	0.737483	99
Es	-0.001445	-0.825107	0.175383	99
Es	1.406166	1.116374	-0.477384	99
Es	-1.163249	0.466810	-0.655485	99
Es	-0.003252	-1.529025	0.411063	99
Es	-1.156453	1.016706	-0.669873	99
Es	0.596074	0.282360	1.639685	99
Es	-0.003063	1.329943	0.129442	99
Es	-1.206720	-0.694364	-1.347106	99
Es	1.236844	-0.422154	-0.619888	99
Es	1.238141	-0.691887	-1.319690	99
Es	0.618241	-0.658313	-0.229973	99
Es	1.169085	1.019033	-0.643860	99
Es	-1.093103	1.106706	-0.952062	99
Es	-1.221197	-0.424368	-0.646679	99
Es	-0.633165	0.281222	1.626009	99
Es	-0.013856	0.273904	1.213270	99
42
Properties=species:S:1:pos:R:3:Z:I:1 energy=-343.81605827954866 field_type=dipole dipole="0.000000 0.000000 0.000000" charge=0
C	-1.221236	-0.424581	-0.646697	6
O	-1.156706	1.016909	-0.669997	8
C	-0.003066	1.330079	0.129713	6
C	-0.013856	0.273919	1.213303	6
C	-0.001446	-0.825151	0.175403	6
C	1.236884	-0.422381	-0.619907	6
O	1.169294	1.019229	-0.643977	8
H	-1.206636	-0.809441	-1.671267	1
H	-2.160036	-0.716541	-0.163527	1
H	-0.007556	2.371649	0.458493	1
H	-0.921956	0.279659	1.824083	1
H	0.880374	0.281589	1.844283	1
H	-0.003986	-1.856161	0.528563	1
H	2.164634	-0.711941	-0.115197	1
H	1.245294	-0.806841	-1.643277	1
Es	1.406845	1.118309	-0.479311	99
Es	-0.003266	-1.529007	0.411048	99
Es	-0.633163	0.281165	1.625965	99
Es	-1.863791	-0.634088	-0.310788	99
Es	0.618249	-0.658365	-0.230031	99
Es	0.725140	1.123435	-0.349026	99
Es	-1.156490	1.016704	-0.669808	99
Es	-0.001446	-0.825108	0.175383	99
Es	0.596063	0.282469	1.639733	99
Es	-1.206653	-0.694340	-1.346995	99
Es	-1.398634	1.114430	-0.510301	99
Es	-1.163462	0.466818	-0.655206	99
Es	1.871856	-0.630374	-0.269379	99
Es	-0.006071	2.039565	0.345322	99
Es	-1.093293	1.105965	-0.951703	99
Es	1.178050	0.469061	-0.627351	99
Es	-1.221197	-0.424361	-0.646679	99
Es	-0.009081	0.828638	0.722309	99
Es	1.236842	-0.422156	-0.619888	99
Es	1.169042	1.019005	-0.643843	99
Es	1.112316	1.106828	-0.927498	99
Es	-0.008084	-0.314549	0.737481	99
Es	-0.720257	1.121676	-0.364218	99
Es	-0.003062	1.329944	0.129442	99
Es	-0.611603	-0.659398	-0.243464	99
Es	-0.013856	0.273899	1.213262	99
Es	1.238180	-0.691856	-1.319685	99
42
Properties=species:S:1:pos:R:3:Z:I:1 energy=-343.81605827954866 field_type=dipole dipole="0.000000 0.000000 0.000000" charge=0
C	-1.221236	-0.424581	-0.646697	6
O	-1.156706	1.016909	-0.669997	8
C	-0.003066	1.330079	0.129713	6
C	-0.013856	0.273919	1.213303	6
C	-0.001446	-0.825151	0.175403	6
C	1.236884	-0.422381	-0.619907	6
O	1.169294	1.019229	-0.643977	8
H	-1.206636	-0.809441	-1.671267	1
H	-2.160036	-0.716541	-0.163527	1
H	-0.007556	2.371649	0.458493	1
H	-0.921956	0.279659	1.824083	1
H	0.880374	0.281589	1.844283	1
H	-0.003986	-1.856161	0.528563	1
H	2.164634	-0.711941	-0.115197	1
H	1.245294	-0.806841	-1.643277	1
Es	-0.720226	1.121732	-0.364179	99
Es	-1.863745	-0.634075	-0.310840	99
Es	-1.221198	-0.424364	-0.646680	99
Es	0.596041	0.282486	1.639765	99
Es	0.725677	1.123349	-0.347863	99
Es	-1.164099	0.466738	-0.654725	99
Es	-0.006056	2.039481	0.345250	99
Es	1.178350	0.468909	-0.628011	99
Es	0.618259	-0.658382	-0.230006	99
Es	-1.206694	-0.694342	-1.346956	99
Es	-0.633114	0.281215	1.625926	99
Es	-1.398382	1.115012	-0.510894	99
Es	-0.009077	0.828715	0.722368	99
Es	1.168896	1.018957	-0.643962	99
Es	-0.611634	-0.659488	-0.243404	99
Es	-0.003065	1.329943	0.129443	99
Es	1.236843	-0.422162	-0.619888	99
Es	-0.013857	0.273899	1.213260	99
Es	-0.003287	-1.528992	0.411059	99
Es	1.238218	-0.691916	-1.319660	99
Es	1.407380	1.118768	-0.480698	99
Es	-0.008107	-0.314621	0.737495	99
Es	-1.092960	1.105499	-0.951596	99
Es	1.871796	-0.630321	-0.269427	99
Es	1.111155	1.106684	-0.926552	99
Es	-0.001446	-0.825107	0.175383	99
Es	-1.156491	1.016691	-0.669834	99
42
Properties=species:S:1:pos:R:3:Z:I:1 energy=-343.81605827954866 field_type=dipole dipole="0.000000 0.000000 0.000000" charge=0
C	-1.221236	-0.424581	-0.646697	6
O	-1.156706	1.016909	-0.669997	8
C	-0.003066	1.330079	0.129713	6
C	-0.013856	0.273919	1.213303	6
C	-0.001446	-0.825151	0.175403	6
C	1.236884	-0.422381	-0.619907	6
O	1.169294	1.019229	-0.643977	8
H	-1.206636	-0.809441	-1.671267	1
H	-2.160036	-0.716541	-0.163527	1
H	-0.007556	2.371649	0.458493	1
H	-0.921956	0.279659	1.824083	1
H	0.880374	0.281589	1.844283	1
H	-0.003986	-1.856161	0.528563	1
H	2.164634	-0.711941	-0.115197	1
H	1.245294	-0.806841	-1.643277	1
Es	-1.206840	-0.694344	-1.346968	99
Es	-1.398335	1.114759	-0.511542	99
Es	1.111851	1.107817	-0.926826	99
Es	0.725750	1.123232	-0.347946	99
Es	1.169039	1.018999	-0.643812	99
Es	-1.093123	1.105353	-0.950686	99
Es	-0.001446	-0.825106	0.175382	99
Es	-0.633092	0.281196	1.625972	99
Es	-0.003277	-1.528903	0.410962	99
Es	1.236844	-0.422162	-0.619888	99
Es	-1.156563	1.016774	-0.669870	99
Es	1.406528	1.117966	-0.479890	99
Es	-0.008107	-0.314664	0.737599	99
Es	-1.863614	-0.634104	-0.310746	99
Es	-0.013856	0.273899	1.213264	99
Es	-0.611518	-0.659515	-0.243575	99
Es	-0.720171	1.122375	-0.363895	99
Es	-0.003063	1.329943	0.129443	99
Es	-0.009081	0.828766	0.722406	99
Es	1.871794	-0.630324	-0.269464	99
Es	-0.006064	2.039449	0.345242	99
Es	0.595987	0.282514	1.639715	99
Es	-1.164079	0.466426	-0.655247	99
Es	1.238246	-0.691896	-1.319605	99
Es	-1.221199	-0.424365	-0.646680	99
Es	1.178278	0.468722	-0.628612	99
Es	0.618285	-0.658501	-0.229960	99
42
Properties=species:S:1:pos:R:3:Z:I:1 energy=-343.81605827954866 field_type=dipole dipole="0.000000 0.000000 0.000000" charge=0
C	-1.221236	-0.424581	-0.646697	6
O	-1.156706	1.016909	-0.669997	8
C	-0.003066	1.330079	0.129713	6
C	-0.013856	0.273919	1.213303	6
C	-0.001446	-0.825151	0.175403	6
C	1.236884	-0.422381	-0.619907	6
O	1.169294	1.019229	-0.643977	8
H	-1.206636	-0.809441	-1.671267	1
H	-2.160036	-0.716541	-0.163527	1
H	-0.007556	2.371649	0.458493	1
H	-0.921956	0.279659	1.824083	1
H	0.880374	0.281589	1.844283	1
H	-0.003986	-1.856161	0.528563	1
H	2.164634	-0.711941	-0.115197	1
H	1.245294	-0.806841	-1.643277	1
Es	-1.093737	1.106295	-0.950546	99
Es	-0.720344	1.122198	-0.363800	99
Es	1.114099	1.109402	-0.926889	99
Es	-1.397841	1.114366	-0.511196	99
Es	1.871852	-0.630342	-0.269502	99
Es	-0.013856	0.273900	1.213267	99
Es	-0.008091	-0.314626	0.737587	99
Es	1.169044	1.018987	-0.643801	99
Es	1.177897	0.468528	-0.629446	99
Es	1.238266	-0.691812	-1.319539	99
Es	-0.633073	0.281172	1.625954	99
Es	-0.611653	-0.659636	-0.243391	99
Es	0.725135	1.123150	-0.348932	99
Es	-0.006059	2.039422	0.345216	99
Es	-1.863678	-0.634096	-0.310985	99
Es	-0.009084	0.828822	0.722385	99
Es	-0.001445	-0.825108	0.175383	99
Es	-1.206706	-0.694338	-1.346874	99
Es	-0.003063	1.329943	0.129445	99
Es	1.405277	1.116664	-0.478013	99
Es	1.236843	-0.422162	-0.619888	99
Es	-1.156306	1.016636	-0.669970	99
Es	0.618190	-0.658561	-0.230031	99
Es	-0.003254	-1.528905	0.411010	99
Es	-1.221197	-0.424362	-0.646679	99
Es	-1.164031	0.466277	-0.655725	99
Es	0.595987	0.282495	1.639733	99
42
Properties=species:S:1:pos:R:3:Z:I:1 energy=-343.81605827954866 field_type=dipole dipole="0.000000 0.000000 0.000000" charge=0
C	-1.221236	-0.424581	-0.646697	6
O	-1.156706	1.016909	-0.669997	8
C	-0.003066	1.330079	0.129713	6
C	-0.013856	0.273919	1.213303	6
C	-0.001446	-0.825151	0.175403	6
C	1.236884	-0.422381	-0.619907	6
O	1.169294	1.019229	-0.643977	8
H	-1.206636	-0.809441	-1.671267	1
H	-2.160036	-0.716541	-0.163527	1
H	-0.007556	2.371649	0.458493	1
H	-0.921956	0.279659	1.824083	1
H	0.880374	0.281589	1.844283	1
H	-0.003986	-1.856161	0.528563	1
H	2.164634	-0.711941	-0.115197	1
H	1.245294	-0.806841	-1.643277	1
Es	-0.008109	-0.314827	0.737639	99
Es	-0.611669	-0.659628	-0.243412	99
Es	1.236844	-0.422165	-0.619888	99
Es	0.595928	0.282545	1.639703	99
Es	-0.001445	-0.825105	0.175382	99
Es	-0.003230	-1.528836	0.410866	99
Es	-0.009114	0.828870	0.722473	99
Es	-0.719707	1.122538	-0.364513	99
Es	-1.156395	1.016661	-0.669873	99
Es	-0.003063	1.329942	0.129442	99
Es	0.725408	1.122707	-0.347935	99
Es	-0.632981	0.281215	1.625976	99
Es	-1.164421	0.466193	-0.655216	99
Es	0.618225	-0.658560	-0.230011	99
Es	1.169074	1.018990	-0.643789	99
Es	1.405625	1.117083	-0.478924	99
Es	-0.006023	2.039409	0.345230	99
Es	1.871784	-0.630316	-0.269512	99
Es	1.238309	-0.691875	-1.319494	99
Es	1.178336	0.468356	-0.630720	99
Es	-1.863687	-0.634083	-0.310931	99
Es	-1.397434	1.114629	-0.511137	99
Es	-1.094314	1.105761	-0.950536	99
Es	-0.013855	0.273899	1.213265	99
Es	-1.221197	-0.424361	-0.646679	99
Es	-1.206734	-0.694352	-1.346871	99
Es	1.113019	1.109617	-0.925763	99
42
Properties=species:S:1:pos:R:3:Z:I:1 energy=-343.81605827954866 field_type=dipole dipole="0.000000 0.000000 0.000000" charge=0
C	-1.221236	-0.424581	-0.646697	6
O	-1.156706	1.016909	-0.669997	8
C	-0.003066	1.330079	0.129713	6
C	-0.013856	0.273919	1.213303	6
C	-0.001446	-0.825151	0.175403	6
C	1.236884	-0.422381	-0.619907	6
O	1.169294	1.019229	-0.643977	8
H	-1.206636	-0.809441	-1.671267	1
H	-2.160036	-0.716541	-0.163527	1
H	-0.007556	2.371649	0.458493	1
H	-0.921956	0.279659	1.824083	1
H	0.880374	0.281589	1.844283	1
H	-0.003986	-1.856161	0.528563	1
H	2.164634	-0.711941	-0.115197	1
H	1.245294	-0.806841	-1.643277	1
Es	1.177588	0.468485	-0.630379	99
Es	-1.156517	1.016686	-0.669801	99
Es	-1.221197	-0.424364	-0.646679	99
Es	-0.611685	-0.659565	-0.243347	99
Es	-0.013857	0.273901	1.213261	99
Es	-1.092762	1.104411	-0.950556	99
Es	-0.719916	1.122452	-0.364336	99
Es	-0.632985	0.281267	1.625936	99
Es	1.236844	-0.422163	-0.619889	99
Es	0.595861	0.282536	1.639735	99
Es	0.618176	-0.658582	-0.229995	99
Es	-0.008106	-0.314945	0.737509	99
Es	-1.206691	-0.694369	-1.346854	99
Es	-0.003241	-1.528885	0.410835	99
Es	-0.009058	0.828909	0.722633	99
Es	0.725734	1.123417	-0.347755	99
Es	1.238369	-0.691831	-1.319433	99
Es	-0.006059	2.039366	0.345202	99
Es	-0.001450	-0.825107	0.175380	99
Es	1.871759	-0.630313	-0.269585	99
Es	1.404966	1.115544	-0.478433	99
Es	-1.863669	-0.634102	-0.310974	99
Es	-1.165339	0.466159	-0.654139	99
Es	-1.397772	1.116089	-0.512435	99
Es	-0.003062	1.329943	0.129447	99
Es	1.169095	1.019042	-0.643824	99
Es	1.114150	1.110329	-0.926752	99
42
Properties=species:S:1:pos:R:3:Z:I:1 energy=-343.81605827954866 field_type=dipole dipole="0.000000 0.000000 0.000000" charge=0
C	-1.221236	-0.424581	-0.646697	6
O	-1.156706	1.016909	-0.669997	8
C	-0.003066	1.330079	0.129713	6
C	-0.013856	0.273919	1.213303	6
C	-0.001446	-0.825151	0.175403	6
C	1.236884	-0.422381	-0.619907	6
O	1.169294	1.019229	-0.643977	8
H	-1.206636	-0.809441	-1.671267	1
H	-2.160036	-0.716541	-0.163527	1
H	-0.007556	2.371649	0.458493	1
H	-0.921956	0.279659	1.824083	1
H	0.880374	0.281589	1.844283	1
H	-0.003986	-1.856161	0.528563	1
H	2.164634	-0.711941	-0.115197	1
H	1.245294	-0.806841	-1.643277	1
Es	1.236844	-0.422162	-0.619888	99
Es	-1.863613	-0.634041	-0.311068	99
Es	-0.719998	1.122643	-0.364035	99
Es	1.178719	0.468397	-0.628627	99
Es	-0.013856	0.273899	1.213265	99
Es	-1.164819	0.465947	-0.655442	99
Es	-0.009060	0.828796	0.722518	99
Es	-0.001446	-0.825102	0.175386	99
Es	0.725285	1.123781	-0.348339	99
Es	-0.006051	2.039316	0.345189	99
Es	-1.397074	1.114636	-0.511706	99
Es	-0.611525	-0.659900	-0.243365	99
Es	-0.003285	-1.528687	0.410976	99
Es	0.595813	0.282720	1.639702	99
Es	0.618408	-0.658727	-0.230010	99
Es	1.871769	-0.630314	-0.269626	99
Es	-1.221197	-0.424363	-0.646679	99
Es	-1.156492	1.016697	-0.669821	99
Es	-0.008171	-0.315020	0.737624	99
Es	1.112038	1.107114	-0.925739	99
Es	1.238302	-0.691868	-1.319429	99
Es	-0.632946	0.281414	1.625955	99
Es	-1.206869	-0.694297	-1.346766	99
Es	1.406374	1.118578	-0.480655	99
Es	-0.003063	1.329944	0.129446	99
Es	1.169075	1.019010	-0.643784	99
Es	-1.093984	1.105898	-0.950309	99
42
Properties=species:S:1:pos:R:3:Z:I:1 energy=-343.81605827954866 field_type=dipole dipole="0.000000 0.000000 0.000000" charge=0
C	-1.221236	-0.424581	-0.646697	6
O	-1.156706	1.016909	-0.669997	8
C	-0.003066	1.330079	0.129713	6
C	-0.013856	0.273919	1.213303	6
C	-0.001446	-0.825151	0.175403	6
C	1.236884	-0.422381	-0.619907	6
O	1.169294	1.019229	-0.643977	8
H	-1.206636	-0.809441	-1.671267	1
H	-2.160036	-0.716541	-0.163527	1
H	-0.007556	2.371649	0.458493	1
H	-0.921956	0.279659	1.824083	1
H	0.880374	0.281589	1.844283	1
H	-0.003986	-1.856161	0.528563	1
H	2.164634	-0.711941	-0.115197	1
H	1.245294	-0.806841	-1.643277	1
Es	1.236842	-0.422166	-0.619887	99
Es	-1.156494	1.016691	-0.669830	99
Es	-0.008160	-0.314991	0.737538	99
Es	-0.009083	0.828953	0.722778	99
Es	1.169098	1.019022	-0.643774	99
Es	1.179096	0.468157	-0.629621	99
Es	-0.003173	-1.528744	0.410800	99
Es	1.871652	-0.630273	-0.269650	99
Es	0.725124	1.123354	-0.348441	99
Es	0.618221	-0.658737	-0.229838	99
Es	-1.093866	1.105714	-0.950259	99
Es	-1.206811	-0.694303	-1.346745	99
Es	1.238429	-0.691874	-1.319431	99
Es	-0.719957	1.122541	-0.364278	99
Es	-0.001440	-0.825106	0.175383	99
Es	1.405233	1.117881	-0.479773	99
Es	-0.611630	-0.659812	-0.243554	99
Es	-0.003064	1.329944	0.129450	99
Es	0.595845	0.282611	1.639695	99
Es	-0.013856	0.273901	1.213264	99
Es	-1.221197	-0.424367	-0.646677	99
Es	-0.006056	2.039263	0.345139	99
Es	1.113013	1.108505	-0.925531	99
Es	-1.863652	-0.634087	-0.311026	99
Es	-1.397151	1.114955	-0.511656	99
Es	-0.632912	0.281328	1.625968	99
Es	-1.164876	0.465950	-0.655272	99
42
Properties=species:S:1:pos:R:3:Z:I:1 energy=-343.81605827954866 field_type=dipole dipole="0.000000 0.000000 0.000000" charge=0
C	-1.221236	-0.424581	-0.646697	6
O	-1.156706	1.016909	-0.669997	8
C	-0.003066	1.330079	0.129713	6
C	-0.013856	0.273919	1.213303	6
C	-0.001446	-0.825151	0.175403	6
C	1.236884	-0.422381	-0.619907	6
O	1.169294	1.019229	-0.643977	8
H	-1.206636	-0.809441	-1.671267	1
H	-2.160036	-0.716541	-0.163527	1
H	-0.007556	2.371649	0.458493	1
H	-0.921956	0.279659	1.824083	1
H	0.880374	0.281589	1.844283	1
H	-0.003986	-1.856161	0.528563	1
H	2.164634	-0.711941	-0.115197	1
H	1.245294	-0.806841	-1.643277	1
Es	-1.221196	-0.424364	-0.646677	99
Es	-1.094376	1.105348	-0.949826	99
Es	0.618234	-0.658851	-0.229998	99
Es	-0.008056	-0.315040	0.737818	99
Es	-0.632884	0.281340	1.625936	99
Es	1.871707	-0.630318	-0.269689	99
Es	-0.001444	-0.825106	0.175380	99
Es	1.238357	-0.691850	-1.319388	99
Es	-1.206807	-0.694340	-1.346700	99
Es	-1.156400	1.016676	-0.669901	99
Es	-0.611649	-0.659856	-0.243371	99
Es	-0.009076	0.828990	0.722646	99
Es	1.169060	1.018993	-0.643807	99
Es	0.595797	0.282655	1.639720	99
Es	0.725394	1.124286	-0.347956	99
Es	1.112626	1.107672	-0.925311	99
Es	1.236843	-0.422163	-0.619888	99
Es	1.178712	0.468110	-0.629148	99
Es	-1.397432	1.114460	-0.512099	99
Es	-1.164279	0.465951	-0.655312	99
Es	1.405792	1.117871	-0.480919	99
Es	-0.013855	0.273899	1.213266	99
Es	-0.006058	2.039242	0.345138	99
Es	-0.003061	1.329944	0.129449	99
Es	-1.863635	-0.634062	-0.311094	99
Es	-0.003264	-1.528638	0.410691	99
Es	-0.719874	1.123460	-0.364186	99
42
Properties=species:S:1:pos:R:3:Z:I:1 energy=-343.81605827954866 field_type=dipole dipole="0.000000 0.000000 0.000000" charge=0
C	-1.221236	-0.424581	-0.646697	6
O	-1.156706	1.016909	-0.669997	8
C	-0.003066	1.330079	0.129713	6
C	-0.013856	0.273919	1.213303	6
C	-0.001446	-0.825151	0.175403	6
C	1.236884	-0.422381	-0.619907	6
O	1.169294	1.019229	-0.643977	8
H	-1.206636	-0.809441	-1.671267	1
H	-2.160036	-0.716541	-0.163527	1
H	-0.007556	2.371649	0.458493	1
H	-0.921956	0.279659	1.824083	1
H	0.880374	0.281589	1.844283	1
H	-0.003986	-1.856161	0.528563	1
H	2.164634	-0.711941	-0.115197	1
H	1.245294	-0.806841	-1.643277	1
Es	-0.632837	0.281377	1.625924	99
Es	1.112499	1.107546	-0.924508	99
Es	-0.001445	-0.825101	0.175385	99
Es	-1.206762	-0.694254	-1.346680	99
Es	1.169035	1.019002	-0.643869	99
Es	-0.008036	-0.315209	0.737709	99
Es	-1.166118	0.465646	-0.654680	99
Es	-0.003063	1.329944	0.129449	99
Es	-0.013857	0.273898	1.213266	99
Es	-1.092539	1.104085	-0.949020	99
Es	1.236843	-0.422167	-0.619888	99
Es	0.595718	0.282657	1.639720	99
Es	-1.863629	-0.634157	-0.311156	99
Es	-0.003242	-1.528631	0.410717	99
Es	1.238418	-0.691812	-1.319345	99
Es	-1.397368	1.116340	-0.514132	99
Es	0.725385	1.124538	-0.347611	99
Es	-0.611690	-0.659825	-0.243385	99
Es	-0.720001	1.123141	-0.363551	99
Es	-1.221199	-0.424364	-0.646680	99
Es	-1.156433	1.016690	-0.669891	99
Es	0.618240	-0.658872	-0.230001	99
Es	1.871683	-0.630314	-0.269717	99
Es	-0.009042	0.829057	0.722758	99
Es	1.405627	1.118034	-0.481684	99
Es	1.179049	0.467858	-0.629459	99
Es	-0.006064	2.039206	0.345102	99
42
Properties=species:S:1:pos:R:3:Z:I:1 energy=-343.81605827954866 field_type=dipole dipole="0.000000 0.000000 0.000000" charge=0
C	-1.221236	-0.424581	-0.646697	6
O	-1.156706	1.016909	-0.669997	8
C	-0.003066	1.330079	0.129713	6
C	-0.013856	0.273919	1.213303	6
C	-0.001446	-0.825151	0.175403	6
C	1.236884	-0.422381	-0.619907	6
O	1.169294	1.019229	-0.643977	8
H	-1.206636	-0.809441	-1.671267	1
H	-2.160036	-0.716541	-0.163527	1
H	-0.007556	2.371649	0.458493	1
H	-0.921956	0.279659	1.824083	1
H	0.880374	0.281589	1.844283	1
H	-0.003986	-1.856161	0.528563	1
H	2.164634	-0.711941	-0.115197	1
H	1.245294	-0.806841	-1.643277	1
Es	1.405910	1.117936	-0.482876	99
Es	-0.008116	-0.315196	0.737801	99
Es	-0.001444	-0.825104	0.175383	99
Es	-1.863539	-0.634071	-0.311189	99
Es	-1.156515	1.016737	-0.669858	99
Es	-0.632824	0.281414	1.625954	99
Es	-0.611636	-0.659983	-0.243325	99
Es	-0.013855	0.273899	1.213263	99
Es	-0.720019	1.122555	-0.363704	99
Es	-0.003063	1.329944	0.129451	99
Es	-0.009076	0.829042	0.722744	99
Es	1.111651	1.107009	-0.924663	99
Es	-1.221197	-0.424366	-0.646678	99
Es	1.236843	-0.422166	-0.619888	99
Es	-0.006079	2.039174	0.345092	99
Es	-0.003231	-1.528581	0.410681	99
Es	-1.167179	0.465596	-0.654030	99
Es	-1.206869	-0.694296	-1.346689	99
Es	1.238408	-0.691822	-1.319327	99
Es	0.595727	0.282695	1.639690	99
Es	-1.398018	1.118377	-0.515218	99
Es	0.618285	-0.658901	-0.230029	99
Es	-1.090710	1.102670	-0.948499	99
Es	1.871679	-0.630324	-0.269735	99
Es	1.178876	0.467792	-0.629005	99
Es	0.726059	1.125223	-0.346725	99
Es	1.169107	1.019054	-0.643847	99
42
Properties=species:S:1:pos:R:3:Z:I:1 energy=-343.81605827954866 field_type=dipole dipole="0.000000 0.000000 0.000000" charge=0
C	-1.221236	-0.424581	-0.646697	6
O	-1.156706	1.016909	-0.669997	8
C	-0.003066	1.330079	0.129713	6
C	-0.013856	0.273919	1.213303	6
C	-0.001446	-0.825151	0.175403	6
C	1.236884	-0.422381	-0.619907	6
O	1.169294	1.019229	-0.643977	8
H	-1.206636	-0.809441	-1.671267	1
H	-2.160036	-0.716541	-0.163527	1
H	-0.007556	2.371649	0.458493	1
H	-0.921956	0.279659	1.824083	1
H	0.880374	0.281589	1.844283	1
H	-0.003986	-1.856161	0.528563	1
H	2.164634	-0.711941	-0.115197	1
H	1.245294	-0.806841	-1.643277	1
Es	-1.156543	1.016712	-0.669849	99
Es	-1.863567	-0.634073	-0.311191	99
Es	-0.001445	-0.825105	0.175383	99
Es	-1.397804	1.116048	-0.514928	99
Es	1.115142	1.109339	-0.925273	99
Es	-0.720860	1.123494	-0.362626	99
Es	-0.003063	1.329943	0.129451	99
Es	-1.165486	0.465416	-0.655411	99
Es	-0.008975	0.829021	0.722710	99
Es	-0.008217	-0.315245	0.737841	99
Es	-1.206880	-0.694285	-1.346630	99
Es	1.179212	0.467756	-0.629807	99
Es	-0.611674	-0.660072	-0.243398	99
Es	-0.006049	2.039140	0.345121	99
Es	0.595718	0.282651	1.639699	99
Es	0.724549	1.124206	-0.349156	99
Es	-0.013855	0.273900	1.213264	99
Es	1.236843	-0.422166	-0.619888	99
Es	-0.003205	-1.528518	0.410674	99
Es	1.238496	-0.691806	-1.319278	99
Es	-1.091750	1.104321	-0.948494	99
Es	0.618242	-0.658981	-0.230042	99
Es	-1.221197	-0.424367	-0.646678	99
Es	-0.632801	0.281545	1.625938	99
Es	1.169140	1.019036	-0.643838	99
Es	1.403575	1.116706	-0.479072	99
Es	1.871630	-0.630306	-0.269749	99
42
Properties=species:S:1:pos:R:3:Z:I:1 energy=-343.81605827954866 field_type=dipole dipole="0.000000 0.000000 0.000000" charge=0
C	-1.221236	-0.424581	-0.646697	6
O	-1.156706	1.016909	-0.669997	8
C	-0.003066	1.330079	0.129713	6
C	-0.013856	0.273919	1.213303	6
C	-0.001446	-0.825151	0.175403	6
C	1.236884	-0.422381	-0.619907	6
O	1.169294	1.019229	-0.643977	8
H	-1.206636	-0.809441	-1.671267	1
H	-2.160036	-0.716541	-0.163527	1
H	-0.007556	2.371649	0.458493	1
H	-0.921956	0.279659	1.824083	1
H	0.880374	0.281589	1.844283	1
H	-0.003986	-1.856161	0.528563	1
H	2.164634	-0.711941	-0.115197	1
H	1.245294	-0.806841	-1.643277	1
Es	1.116117	1.109751	-0.924690	99
Es	1.238459	-0.691781	-1.319236	99
Es	-1.863550	-0.634075	-0.311213	99
Es	-0.013855	0.273899	1.213262	99
Es	1.403638	1.115862	-0.478728	99
Es	-1.206937	-0.694255	-1.346576	99
Es	-0.008026	-0.315308	0.737875	99
Es	-0.006054	2.039140	0.345083	99
Es	1.169114	1.019017	-0.643777	99
Es	-0.003062	1.329944	0.129453	99
Es	-1.394888	1.113078	-0.510569	99
Es	1.236842	-0.422167	-0.619887	99
Es	-1.097038	1.106975	-0.950071	99
Es	1.178483	0.467722	-0.630641	99
Es	-0.001447	-0.825102	0.175382	99
Es	-0.009136	0.829058	0.722745	99
Es	0.618267	-0.659095	-0.229936	99
Es	-0.003265	-1.528502	0.410615	99
Es	-0.611626	-0.660082	-0.243467	99
Es	-1.164988	0.465665	-0.655739	99
Es	-1.221197	-0.424365	-0.646678	99
Es	0.595677	0.282833	1.639663	99
Es	-0.632777	0.281406	1.625968	99
Es	1.871640	-0.630312	-0.269863	99
Es	0.724304	1.124702	-0.349287	99
Es	-1.156558	1.016735	-0.669858	99
Es	-0.718960	1.123567	-0.365056	99
42
Properties=species:S:1:pos:R:3:Z:I:1 energy=-343.81605827954866 field_type=dipole dipole="0.000000 0.000000 0.000000" charge=0
C	-1.221236	-0.424581	-0.646697	6
O	-1.156706	1.016909	-0.669997	8
C	-0.003066	1.330079	0.129713	6
C	-0.013856	0.273919	1.213303	6
C	-0.001446	-0.825151	0.175403	6
C	1.236884	-0.422381	-0.619907	6
O	1.169294	1.019229	-0.643977	8
H	-1.206636	-0.809441	-1.671267	1
H	-2.160036	-0.716541	-0.163527	1
H	-0.007556	2.371649	0.458493	1
H	-0.921956	0.279659	1.824083	1
H	0.880374	0.281589	1.844283	1
H	-0.003986	-1.856161	0.528563	1
H	2.164634	-0.711941	-0.115197	1
H	1.245294	-0.806841	-1.643277	1
Es	1.236845	-0.422166	-0.619887	99
Es	1.169137	1.019024	-0.643804	99
Es	-0.008116	-0.315436	0.737976	99
Es	-1.206956	-0.694271	-1.346576	99
Es	-1.863506	-0.634078	-0.311212	99
Es	-0.001446	-0.825102	0.175382	99
Es	-1.095098	1.105941	-0.948987	99
Es	-0.003275	-1.528455	0.410561	99
Es	-0.632726	0.281524	1.625937	99
Es	-0.009072	0.829098	0.722706	99
Es	1.113351	1.108572	-0.924350	99
Es	-1.165568	0.465371	-0.655866	99
Es	1.871615	-0.630322	-0.269856	99
Es	-0.719483	1.123544	-0.364313	99
Es	0.725576	1.124944	-0.347270	99
Es	-0.006032	2.039098	0.345094	99
Es	-1.156508	1.016702	-0.669840	99
Es	1.179354	0.467447	-0.630004	99
Es	0.618292	-0.659039	-0.229995	99
Es	-1.395830	1.114501	-0.512326	99
Es	0.595642	0.282755	1.639681	99
Es	1.238454	-0.691786	-1.319259	99
Es	1.404298	1.117045	-0.481670	99
Es	-0.611656	-0.660072	-0.243387	99
Es	-0.013856	0.273893	1.213263	99
Es	-0.003062	1.329944	0.129454	99
Es	-1.221196	-0.424367	-0.646677	99
42
Properties=species:S:1:pos:R:3:Z:I:1 energy=-343.81605827954866 field_type=dipole dipole="0.000000 0.000000 0.000000" charge=0
C	-1.221236	-0.424581	-0.646697	6
O	-1.156706	1.016909	-0.669997	8
C	-0.003066	1.330079	0.129713	6
C	-0.013856	0.273919	1.213303	6
C	-0.001446	-0.825151	0.175403	6
C	1.236884	-0.422381	-0.619907	6
O	1.169294	1.019229	-0.643977	8
H	-1.206636	-0.809441	-1.671267	1