37
Properties=species:S:1:pos:R:3:Z:I:1 energy=-268.5113736377575 field_type=dipole dipole="0.000000 0.000000 0.000000" charge=0
C	-1.598124	-1.872834	2.101331	6
C	-1.238474	-1.570695	0.995201	6
C	-0.799864	-1.209525	-0.359089	6
C	-0.237964	0.180335	-0.358909	6
C	1.033536	0.475296	-0.666799	6
C	1.502866	1.800645	-0.666799	6
C	1.900146	2.922545	-0.666799	6
H	-1.914304	-2.137694	3.084221	1
H	-1.648004	-1.249315	-1.051709	1
H	-0.060924	-1.935915	-0.716439	1
H	-0.930314	0.980536	-0.102769	1
H	1.737176	-0.310395	-0.926389	1
H	2.254246	3.927016	-0.665049	1
Es	-0.304383	-1.694141	-0.583344	99
Es	0.514359	0.322307	-0.211881	99
Es	-1.570058	-1.396588	1.591847	99
Es	1.550328	2.410252	-0.348026	99
Es	-1.598203	-1.872891	2.101540	99
Es	-1.613988	-1.994605	1.420724	99
Es	-1.238388	-1.570614	0.994936	99
Es	-1.367266	-1.230099	-0.804814	99
Es	2.039921	2.248374	-0.696520	99
Es	-1.026414	-1.390077	0.341216	99
Es	1.510658	-0.041584	-0.841780	99
Es	1.279886	1.155086	-0.667549	99
Es	-1.079459	-1.776375	1.654795	99
Es	0.350943	0.381952	-0.834152	99
Es	2.131215	3.578395	-0.665911	99
Es	-0.709927	0.710747	-0.185578	99
Es	1.502779	1.800392	-0.666801	99
Es	-1.804636	-2.045641	2.741605	99
Es	-0.238062	0.180255	-0.358888	99
Es	1.900227	2.922795	-0.666797	99
Es	-0.517774	-0.525817	-0.348194	99
Es	1.503748	2.421807	-0.955236	99
Es	1.033658	0.475404	-0.666821	99
Es	-0.799890	-1.209507	-0.358959	99
37
Properties=species:S:1:pos:R:3:Z:I:1 energy=-268.5113736377575 field_type=dipole dipole="0.000000 0.000000 0.000000" charge=0
C	-1.598124	-1.872834	2.101331	6
C	-1.238474	-1.570695	0.995201	6
C	-0.799864	-1.209525	-0.359089	6
C	-0.237964	0.180335	-0.358909	6
C	1.033536	0.475296	-0.666799	6
C	1.502866	1.800645	-0.666799	6
C	1.900146	2.922545	-0.666799	6
H	-1.914304	-2.137694	3.084221	1
H	-1.648004	-1.249315	-1.051709	1
H	-0.060924	-1.935915	-0.716439	1
H	-0.930314	0.980536	-0.102769	1
H	1.737176	-0.310395	-0.926389	1
H	2.254246	3.927016	-0.665049	1
Es	-1.078992	-1.733619	1.666745	99
Es	1.510753	-0.041592	-0.841729	99
Es	1.033649	0.475404	-0.666822	99
Es	0.350944	0.381966	-0.834292	99
Es	1.900235	2.922796	-0.666798	99
Es	-1.026336	-1.390142	0.341228	99
Es	-0.709848	0.710798	-0.185707	99
Es	-0.304529	-1.694204	-0.583351	99
Es	1.989767	2.265125	-0.856909	99
Es	-1.607156	-1.414613	1.575686	99
Es	0.514212	0.322448	-0.211894	99
Es	1.279820	1.154994	-0.667826	99
Es	-1.367328	-1.230070	-0.804782	99
Es	1.703434	2.350007	-0.313580	99
Es	-0.517702	-0.525773	-0.348073	99
Es	1.502790	1.800391	-0.666791	99
Es	2.131349	3.578317	-0.665760	99
Es	-1.804434	-2.045588	2.741667	99
Es	-1.577577	-2.019397	1.424768	99
Es	-1.238407	-1.570608	0.994932	99
Es	1.400778	2.465317	-0.829010	99
Es	-1.598196	-1.872878	2.101556	99
Es	-0.238063	0.180255	-0.358888	99
Es	-0.799891	-1.209508	-0.358960	99
37
Properties=species:S:1:pos:R:3:Z:I:1 energy=-268.5113736377575 field_type=dipole dipole="0.000000 0.000000 0.000000" charge=0
C	-1.598124	-1.872834	2.101331	6
C	-1.238474	-1.570695	0.995201	6
C	-0.799864	-1.209525	-0.359089	6
C	-0.237964	0.180335	-0.358909	6
C	1.033536	0.475296	-0.666799	6
C	1.502866	1.800645	-0.666799	6
C	1.900146	2.922545	-0.666799	6
H	-1.914304	-2.137694	3.084221	1
H	-1.648004	-1.249315	-1.051709	1
H	-0.060924	-1.935915	-0.716439	1
H	-0.930314	0.980536	-0.102769	1
H	1.737176	-0.310395	-0.926389	1
H	2.254246	3.927016	-0.665049	1
Es	1.392654	2.475379	-0.521428	99
Es	2.131359	3.578331	-0.666112	99
Es	-0.517621	-0.525919	-0.347965	99
Es	-1.598192	-1.872881	2.101554	99
Es	1.900228	2.922792	-0.666801	99
Es	1.033657	0.475404	-0.666821	99
Es	-1.804550	-2.045677	2.741577	99
Es	0.350735	0.382215	-0.833940	99
Es	-0.799889	-1.209507	-0.358960	99
Es	-1.684549	-1.478127	1.535977	99
Es	1.970103	2.262704	-0.458885	99
Es	1.502782	1.800395	-0.666799	99
Es	-0.238064	0.180254	-0.358886	99
Es	-1.026404	-1.389898	0.341133	99
Es	-1.099660	-1.630237	1.687829	99
Es	1.732033	2.341891	-1.019497	99
Es	-0.304552	-1.694378	-0.583469	99
Es	-1.367392	-1.229916	-0.804664	99
Es	-1.479319	-2.059385	1.443489	99
Es	-0.709818	0.710767	-0.185807	99
Es	-1.238390	-1.570616	0.994933	99
Es	1.510792	-0.041629	-0.841898	99
Es	0.514019	0.322668	-0.211697	99
Es	1.279309	1.155197	-0.667451	99
37
Properties=species:S:1:pos:R:3:Z:I:1 energy=-268.5113736377575 field_type=dipole dipole="0.000000 0.000000 0.000000" charge=0
C	-1.598124	-1.872834	2.101331	6
C	-1.238474	-1.570695	0.995201	6
C	-0.799864	-1.209525	-0.359089	6
C	-0.237964	0.180335	-0.358909	6
C	1.033536	0.475296	-0.666799	6
C	1.502866	1.800645	-0.666799	6
C	1.900146	2.922545	-0.666799	6
H	-1.914304	-2.137694	3.084221	1
H	-1.648004	-1.249315	-1.051709	1
H	-0.060924	-1.935915	-0.716439	1
H	-0.930314	0.980536	-0.102769	1
H	1.737176	-0.310395	-0.926389	1
H	2.254246	3.927016	-0.665049	1
Es	1.510822	-0.041652	-0.841820	99
Es	1.502783	1.800397	-0.666803	99
Es	-0.238060	0.180256	-0.358891	99
Es	0.513873	0.322634	-0.211899	99
Es	-1.598184	-1.872885	2.101550	99
Es	-1.367425	-1.230018	-0.804699	99
Es	-0.799891	-1.209508	-0.358962	99
Es	-1.804523	-2.045512	2.741559	99
Es	-1.619597	-1.990836	1.420121	99
Es	1.950303	2.268053	-0.433191	99
Es	-1.238393	-1.570621	0.994939	99
Es	-0.709799	0.710830	-0.185654	99
Es	1.900233	2.922803	-0.666803	99
Es	-1.563319	-1.393261	1.594813	99
Es	-1.080651	-1.783659	1.652401	99
Es	1.033655	0.475403	-0.666820	99
Es	-0.304506	-1.694374	-0.583350	99
Es	1.762801	2.332252	-1.014946	99
Es	1.279359	1.155205	-0.667490	99
Es	1.381712	2.479571	-0.551729	99
Es	-1.026382	-1.389985	0.341042	99
Es	2.131351	3.578326	-0.665938	99
Es	0.350728	0.382317	-0.834035	99
Es	-0.517615	-0.525910	-0.347982	99
37
Properties=species:S:1:pos:R:3:Z:I:1 energy=-268.5113736377575 field_type=dipole dipole="0.000000 0.000000 0.000000" charge=0
C	-1.598124	-1.872834	2.101331	6
C	-1.238474	-1.570695	0.995201	6
C	-0.799864	-1.209525	-0.359089	6
C	-0.237964	0.180335	-0.358909	6
C	1.033536	0.475296	-0.666799	6
C	1.502866	1.800645	-0.666799	6
C	1.900146	2.922545	-0.666799	6
H	-1.914304	-2.137694	3.084221	1
H	-1.648004	-1.249315	-1.051709	1
H	-0.060924	-1.935915	-0.716439	1
H	-0.930314	0.980536	-0.102769	1
H	1.737176	-0.310395	-0.926389	1
H	2.254246	3.927016	-0.665049	1
Es	-1.804391	-2.045583	2.741591	99
Es	1.510779	-0.041745	-0.841867	99
Es	1.279784	1.154990	-0.667392	99
Es	1.510547	2.426687	-0.371707	99
Es	1.543246	2.406634	-0.979978	99
Es	-0.304556	-1.694401	-0.583389	99
Es	-0.799891	-1.209508	-0.358962	99
Es	-0.517586	-0.525946	-0.348120	99
Es	0.350863	0.382156	-0.833719	99
Es	-1.367455	-1.230051	-0.804614	99
Es	-0.238059	0.180256	-0.358885	99
Es	-1.598192	-1.872887	2.101548	99
Es	-1.080217	-1.784802	1.652150	99
Es	-1.026255	-1.389987	0.341094	99
Es	1.900237	2.922791	-0.666794	99
Es	1.502782	1.800395	-0.666799	99
Es	1.033652	0.475404	-0.666827	99
Es	-1.562287	-1.393423	1.595125	99
Es	0.514127	0.322635	-0.212063	99
Es	2.040359	2.247083	-0.648405	99
Es	-1.621249	-1.989430	1.420021	99
Es	-1.238390	-1.570621	0.994936	99
Es	-0.709816	0.710919	-0.185645	99
Es	2.131242	3.578259	-0.665887	99
37
Properties=species:S:1:pos:R:3:Z:I:1 energy=-268.5113736377575 field_type=dipole dipole="0.000000 0.000000 0.000000" charge=0
C	-1.598124	-1.872834	2.101331	6
C	-1.238474	-1.570695	0.995201	6
C	-0.799864	-1.209525	-0.359089	6
C	-0.237964	0.180335	-0.358909	6
C	1.033536	0.475296	-0.666799	6
C	1.502866	1.800645	-0.666799	6
C	1.900146	2.922545	-0.666799	6
H	-1.914304	-2.137694	3.084221	1
H	-1.648004	-1.249315	-1.051709	1
H	-0.060924	-1.935915	-0.716439	1
H	-0.930314	0.980536	-0.102769	1
H	1.737176	-0.310395	-0.926389	1
H	2.254246	3.927016	-0.665049	1
Es	-1.238388	-1.570626	0.994940	99
Es	-1.804497	-2.045583	2.741536	99
Es	-0.709764	0.710963	-0.185757	99
Es	-0.799891	-1.209507	-0.358959	99
Es	-1.079648	-1.774745	1.655216	99
Es	-0.238064	0.180255	-0.358889	99
Es	0.350927	0.382049	-0.833768	99
Es	1.033655	0.475402	-0.666808	99
Es	-1.367488	-1.229977	-0.804741	99
Es	-1.598192	-1.872887	2.101546	99
Es	-0.304565	-1.694394	-0.583335	99
Es	0.514124	0.322659	-0.212028	99
Es	1.467612	2.436345	-0.924331	99
Es	2.131165	3.578237	-0.665899	99
Es	-1.571287	-1.396745	1.591447	99
Es	1.593191	2.392897	-0.329794	99
Es	2.033394	2.251262	-0.745500	99
Es	1.502780	1.800394	-0.666800	99
Es	-0.517561	-0.526024	-0.347897	99
Es	-1.612703	-1.996178	1.420685	99
Es	1.900231	2.922790	-0.666799	99
Es	1.510841	-0.041631	-0.841863	99
Es	-1.026296	-1.390049	0.340976	99
Es	1.279698	1.154920	-0.667766	99
