45
Properties=species:S:1:pos:R:3:Z:I:1 energy=-344.9726839159494 field_type=dipole dipole="0.000000 0.000000 0.000000" charge=0
C	-1.669975	0.791944	-0.698882	6
C	-0.172255	0.588234	-0.808222	6
O	0.551765	1.634574	-0.108272	8
C	1.443955	0.657384	0.481588	6
C	0.543485	-0.513006	0.029418	6
C	-0.232995	-1.148996	1.172678	6
O	1.191135	-1.564896	-0.732792	8
H	-2.205415	-0.067326	-1.113842	1
H	-1.977685	1.680154	-1.260442	1
H	-1.992015	0.928394	0.338478	1
H	0.126675	0.578104	-1.865792	1
H	2.434675	0.698794	0.017208	1
H	1.545825	0.802474	1.561158	1
H	-0.694875	-0.398306	1.822728	1
H	0.428515	-1.759596	1.796708	1
H	-1.026915	-1.799056	0.790098	1
H	1.706105	-1.108876	-1.421812	1
Es	1.463759	-1.302694	-1.098600	99
Es	1.515291	0.751628	1.222445	99
Es	1.391865	-1.698522	-0.541999	99
Es	1.055957	0.019839	0.298096	99
Es	-0.770441	-1.585008	0.908504	99
Es	2.123759	0.673882	0.155107	99
Es	1.443812	0.657535	0.481492	99
Es	-1.669950	0.791928	-0.698897	99
Es	0.271705	1.259272	-0.390640	99
Es	0.701945	1.821750	-0.305430	99
Es	0.911152	1.285618	0.122583	99
Es	-0.928275	0.681123	-0.747069	99
Es	-0.541124	-0.630489	1.604669	99
Es	0.364286	1.722712	0.117685	99
Es	0.543593	-0.513155	0.029294	99
Es	1.191162	-1.564557	-0.732856	99
Es	0.964688	-1.715332	-0.875486	99
Es	0.221800	-1.554801	1.589323	99
Es	0.958906	-1.153269	-0.460383	99
Es	-0.172165	0.588390	-0.808096	99
Es	0.120577	-0.026461	-0.422714	99
Es	-1.880818	0.878785	0.005931	99
Es	0.551792	1.634245	-0.108285	99
Es	-2.024428	0.204171	-0.983221	99
Es	0.146529	-0.826452	0.597648	99
Es	0.039448	0.567981	-1.536663	99
Es	-0.232979	-1.148968	1.172646	99
Es	-1.869657	1.391846	-1.082072	99
45
Properties=species:S:1:pos:R:3:Z:I:1 energy=-344.9726839159494 field_type=dipole dipole="0.000000 0.000000 0.000000" charge=0
C	-1.669975	0.791944	-0.698882	6
C	-0.172255	0.588234	-0.808222	6
O	0.551765	1.634574	-0.108272	8
C	1.443955	0.657384	0.481588	6
C	0.543485	-0.513006	0.029418	6
C	-0.232995	-1.148996	1.172678	6
O	1.191135	-1.564896	-0.732792	8
H	-2.205415	-0.067326	-1.113842	1
H	-1.977685	1.680154	-1.260442	1
H	-1.992015	0.928394	0.338478	1
H	0.126675	0.578104	-1.865792	1
H	2.434675	0.698794	0.017208	1
H	1.545825	0.802474	1.561158	1
H	-0.694875	-0.398306	1.822728	1
H	0.428515	-1.759596	1.796708	1
H	-1.026915	-1.799056	0.790098	1
H	1.706105	-1.108876	-1.421812	1
Es	0.365153	1.726791	0.117705	99
Es	0.221845	-1.554685	1.589484	99
Es	-0.541123	-0.630496	1.604485	99
Es	1.391978	-1.695649	-0.541659	99
Es	0.551771	1.634211	-0.108246	99
Es	0.966499	-1.717975	-0.874413	99
Es	-0.928347	0.681121	-0.747141	99
Es	0.120633	-0.026471	-0.422770	99
Es	1.191167	-1.564565	-0.732850	99
Es	0.956827	-1.153416	-0.461165	99
Es	0.270288	1.259415	-0.390178	99
Es	-0.770480	-1.585097	0.908527	99
Es	0.911609	1.285524	0.122527	99
Es	0.702039	1.817758	-0.305846	99
Es	-0.172174	0.588386	-0.808099	99
Es	0.039449	0.567993	-1.536568	99
Es	1.515409	0.751617	1.222382	99
Es	-1.869712	1.391808	-1.082175	99
Es	-0.232978	-1.148968	1.172648	99
Es	1.443813	0.657535	0.481486	99
Es	1.463894	-1.302794	-1.099232	99
Es	-1.880672	0.878954	0.005865	99
Es	1.056015	0.019684	0.298062	99
Es	0.543591	-0.513148	0.029296	99
Es	-1.669951	0.791927	-0.698895	99
Es	-2.024498	0.204033	-0.983027	99
Es	0.146509	-0.826455	0.597624	99
Es	2.123638	0.673957	0.155186	99
45
Properties=species:S:1:pos:R:3:Z:I:1 energy=-344.9726839159494 field_type=dipole dipole="0.000000 0.000000 0.000000" charge=0
C	-1.669975	0.791944	-0.698882	6
C	-0.172255	0.588234	-0.808222	6
O	0.551765	1.634574	-0.108272	8
C	1.443955	0.657384	0.481588	6
C	0.543485	-0.513006	0.029418	6
C	-0.232995	-1.148996	1.172678	6
O	1.191135	-1.564896	-0.732792	8
H	-2.205415	-0.067326	-1.113842	1
H	-1.977685	1.680154	-1.260442	1
H	-1.992015	0.928394	0.338478	1
H	0.126675	0.578104	-1.865792	1
H	2.434675	0.698794	0.017208	1
H	1.545825	0.802474	1.561158	1
H	-0.694875	-0.398306	1.822728	1
H	0.428515	-1.759596	1.796708	1
H	-1.026915	-1.799056	0.790098	1
H	1.706105	-1.108876	-1.421812	1
Es	0.911248	1.285639	0.123634	99
Es	0.039475	0.567976	-1.536537	99
Es	0.146591	-0.826453	0.597554	99
Es	-0.928347	0.681075	-0.747201	99
Es	-1.669953	0.791925	-0.698896	99
Es	1.515361	0.751592	1.222321	99
Es	1.462607	-1.302904	-1.100069	99
Es	-0.541080	-0.630499	1.604538	99
Es	1.393423	-1.691065	-0.541848	99
Es	-2.024500	0.204171	-0.983184	99
Es	0.967253	-1.722374	-0.872814	99
Es	-1.880716	0.878758	0.005894	99
Es	0.543591	-0.513146	0.029298	99
Es	1.055985	0.019781	0.298192	99
Es	-1.869661	1.391929	-1.082043	99
Es	0.221778	-1.554699	1.589439	99
Es	0.270007	1.259317	-0.390190	99
Es	0.551790	1.634327	-0.108285	99
Es	2.123707	0.673819	0.155203	99
Es	1.191145	-1.564621	-0.732876	99
Es	-0.232979	-1.148966	1.172649	99
Es	-0.770505	-1.585076	0.908560	99
Es	0.955944	-1.153449	-0.461726	99
Es	0.120549	-0.026488	-0.422751	99
Es	0.702456	1.817200	-0.305906	99
Es	0.365381	1.727313	0.116664	99
Es	1.443813	0.657534	0.481491	99
Es	-0.172171	0.588385	-0.808098	99
45
Properties=species:S:1:pos:R:3:Z:I:1 energy=-344.9726839159494 field_type=dipole dipole="0.000000 0.000000 0.000000" charge=0
C	-1.669975	0.791944	-0.698882	6
C	-0.172255	0.588234	-0.808222	6
O	0.551765	1.634574	-0.108272	8
C	1.443955	0.657384	0.481588	6
C	0.543485	-0.513006	0.029418	6
C	-0.232995	-1.148996	1.172678	6
O	1.191135	-1.564896	-0.732792	8
H	-2.205415	-0.067326	-1.113842	1
H	-1.977685	1.680154	-1.260442	1
H	-1.992015	0.928394	0.338478	1
H	0.126675	0.578104	-1.865792	1
H	2.434675	0.698794	0.017208	1
H	1.545825	0.802474	1.561158	1
H	-0.694875	-0.398306	1.822728	1
H	0.428515	-1.759596	1.796708	1
H	-1.026915	-1.799056	0.790098	1
H	1.706105	-1.108876	-1.421812	1
Es	0.911358	1.285650	0.124223	99
Es	1.056016	0.019689	0.298217	99
Es	-0.232979	-1.148968	1.172648	99
Es	1.391167	-1.697028	-0.542026	99
Es	-0.928366	0.681201	-0.747357	99
Es	0.269269	1.259290	-0.389979	99
Es	0.146614	-0.826403	0.597555	99
Es	-0.172167	0.588388	-0.808094	99
Es	-0.770547	-1.585022	0.908522	99
Es	1.443812	0.657534	0.481490	99
Es	0.957743	-1.152980	-0.460696	99
Es	0.120523	-0.026502	-0.422762	99
Es	2.123639	0.673883	0.155229	99
Es	-1.669951	0.791927	-0.698896	99
Es	0.543591	-0.513149	0.029297	99
Es	0.551805	1.634247	-0.108299	99
Es	-0.541031	-0.630552	1.604606	99
Es	0.702390	1.816256	-0.305945	99
Es	-1.880625	0.878899	0.005881	99
Es	-2.024523	0.204037	-0.983076	99
Es	-1.869765	1.391795	-1.082059	99
Es	0.366029	1.728375	0.115939	99
Es	1.515424	0.751610	1.222299	99
Es	1.191179	-1.564561	-0.732837	99
Es	0.965893	-1.716550	-0.874608	99
Es	1.464397	-1.303277	-1.099183	99
Es	0.221795	-1.554768	1.589373	99
Es	0.039500	0.567977	-1.536453	99
45
Properties=species:S:1:pos:R:3:Z:I:1 energy=-344.9726839159494 field_type=dipole dipole="0.000000 0.000000 0.000000" charge=0
C	-1.669975	0.791944	-0.698882	6
C	-0.172255	0.588234	-0.808222	6
O	0.551765	1.634574	-0.108272	8
C	1.443955	0.657384	0.481588	6
C	0.543485	-0.513006	0.029418	6
C	-0.232995	-1.148996	1.172678	6
O	1.191135	-1.564896	-0.732792	8
H	-2.205415	-0.067326	-1.113842	1
H	-1.977685	1.680154	-1.260442	1
H	-1.992015	0.928394	0.338478	1
H	0.126675	0.578104	-1.865792	1
H	2.434675	0.698794	0.017208	1
H	1.545825	0.802474	1.561158	1
H	-0.694875	-0.398306	1.822728	1
H	0.428515	-1.759596	1.796708	1
H	-1.026915	-1.799056	0.790098	1
H	1.706105	-1.108876	-1.421812	1
Es	0.966714	-1.715062	-0.875145	99
Es	0.146589	-0.826404	0.597482	99
Es	-0.232979	-1.148968	1.172648	99
Es	0.365437	1.729320	0.116126	99
Es	-0.770601	-1.584971	0.908620	99
Es	-1.669948	0.791928	-0.698895	99
Es	-1.869690	1.391818	-1.082062	99
Es	2.123609	0.673873	0.155250	99
Es	-1.880659	0.878954	0.005785	99
Es	0.039445	0.567935	-1.536471	99
Es	1.056048	0.019649	0.298240	99
Es	-0.540951	-0.630506	1.604584	99
Es	1.390692	-1.698517	-0.542005	99
Es	0.956954	-1.153171	-0.460508	99
Es	1.464800	-1.303131	-1.098853	99
Es	0.269804	1.259323	-0.390592	99
Es	0.911653	1.285898	0.124177	99
Es	1.515480	0.751641	1.222228	99
Es	1.443817	0.657531	0.481492	99
Es	0.221773	-1.554795	1.589382	99
Es	0.551796	1.634234	-0.108303	99
Es	-0.928290	0.681049	-0.747213	99
Es	0.702161	1.815138	-0.305476	99
Es	1.191180	-1.564592	-0.732826	99
Es	0.543590	-0.513144	0.029298	99
Es	-0.172168	0.588387	-0.808095	99
Es	-2.024615	0.204053	-0.983059	99
Es	0.120547	-0.026474	-0.422797	99
45
Properties=species:S:1:pos:R:3:Z:I:1 energy=-344.9726839159494 field_type=dipole dipole="0.000000 0.000000 0.000000" charge=0
C	-1.669975	0.791944	-0.698882	6
C	-0.172255	0.588234	-0.808222	6
O	0.551765	1.634574	-0.108272	8
C	1.443955	0.657384	0.481588	6
C	0.543485	-0.513006	0.029418	6
C	-0.232995	-1.148996	1.172678	6
O	1.191135	-1.564896	-0.732792	8
H	-2.205415	-0.067326	-1.113842	1
H	-1.977685	1.680154	-1.260442	1
H	-1.992015	0.928394	0.338478	1
H	0.126675	0.578104	-1.865792	1
H	2.434675	0.698794	0.017208	1
H	1.545825	0.802474	1.561158	1
H	-0.694875	-0.398306	1.822728	1
H	0.428515	-1.759596	1.796708	1
H	-1.026915	-1.799056	0.790098	1
H	1.706105	-1.108876	-1.421812	1
Es	-0.541028	-0.630562	1.604529	99
Es	0.221771	-1.554778	1.589459	99
Es	0.269274	1.259237	-0.390789	99
Es	1.393471	-1.691011	-0.541966	99
Es	1.191173	-1.564580	-0.732821	99
Es	0.120679	-0.026568	-0.422851	99
Es	1.443814	0.657533	0.481491	99
Es	0.911765	1.286131	0.125201	99
Es	-0.928262	0.681021	-0.747245	99
Es	-0.232979	-1.148968	1.172649	99
Es	-0.172171	0.588385	-0.808098	99
Es	-1.880675	0.878949	0.005701	99
Es	0.551805	1.634229	-0.108312	99
Es	1.056056	0.019602	0.298172	99
Es	1.461958	-1.303884	-1.101895	99
Es	1.515449	0.751620	1.222183	99
Es	0.146540	-0.826363	0.597529	99
Es	-2.024660	0.204057	-0.983059	99
Es	0.955739	-1.152918	-0.461782	99
Es	0.968055	-1.722062	-0.870881	99
Es	0.543591	-0.513144	0.029299	99
Es	0.039417	0.567978	-1.536339	99
Es	2.123598	0.673923	0.155370	99
Es	0.701710	1.816833	-0.304890	99
Es	-0.770552	-1.584988	0.908569	99
Es	0.366294	1.727570	0.114706	99
Es	-1.669952	0.791927	-0.698895	99
Es	-1.869692	1.391828	-1.082022	99
45
Properties=species:S:1:pos:R:3:Z:I:1 energy=-344.9726839159494 field_type=dipole dipole="0.000000 0.000000 0.000000" charge=0
C	-1.669975	0.791944	-0.698882	6
C	-0.172255	0.588234	-0.808222	6
O	0.551765	1.634574	-0.108272	8
C	1.443955	0.657384	0.481588	6
C	0.543485	-0.513006	0.029418	6
C	-0.232995	-1.148996	1.172678	6
O	1.191135	-1.564896	-0.732792	8
H	-2.205415	-0.067326	-1.113842	1
H	-1.977685	1.680154	-1.260442	1
H	-1.992015	0.928394	0.338478	1
H	0.126675	0.578104	-1.865792	1
H	2.434675	0.698794	0.017208	1
H	1.545825	0.802474	1.561158	1
H	-0.694875	-0.398306	1.822728	1
H	0.428515	-1.759596	1.796708	1
H	-1.026915	-1.799056	0.790098	1
H	1.706105	-1.108876	-1.421812	1
Es	0.146523	-0.826556	0.597345	99
Es	1.191152	-1.564518	-0.732838	99
Es	-2.024378	0.204167	-0.983113	99
Es	0.551781	1.634256	-0.108264	99
Es	-0.172169	0.588385	-0.808097	99
Es	0.366342	1.726804	0.115367	99
Es	-0.232981	-1.148969	1.172648	99
Es	-0.928189	0.681114	-0.747121	99
Es	2.123574	0.673892	0.155393	99
Es	-1.880901	0.878844	0.005821	99
Es	0.543590	-0.513143	0.029299	99
Es	1.443816	0.657530	0.481491	99
Es	1.463916	-1.303680	-1.100130	99
Es	-1.869763	1.391769	-1.082137	99
Es	0.957319	-1.152776	-0.459971	99
Es	0.701495	1.817540	-0.304715	99
Es	1.515487	0.751653	1.222134	99
Es	0.039324	0.567958	-1.536390	99
Es	0.911964	1.285898	0.124344	99
Es	-0.770487	-1.584982	0.908739	99
Es	0.269333	1.259534	-0.390859	99
Es	0.120617	-0.026560	-0.422862	99
Es	0.221783	-1.554744	1.589540	99
Es	-0.541058	-0.630422	1.604429	99
Es	1.056034	0.019553	0.298272	99
Es	0.966803	-1.717562	-0.873413	99
Es	-1.669950	0.791926	-0.698893	99
Es	1.391214	-1.695911	-0.543007	99
45
Properties=species:S:1:pos:R:3:Z:I:1 energy=-344.9726839159494 field_type=dipole dipole="0.000000 0.000000 0.000000" charge=0
C	-1.669975	0.791944	-0.698882	6
C	-0.172255	0.588234	-0.808222	6
O	0.551765	1.634574	-0.108272	8
C	1.443955	0.657384	0.481588	6
C	0.543485	-0.513006	0.029418	6
C	-0.232995	-1.148996	1.172678	6
O	1.191135	-1.564896	-0.732792	8
H	-2.205415	-0.067326	-1.113842	1
H	-1.977685	1.680154	-1.260442	1
H	-1.992015	0.928394	0.338478	1
H	0.126675	0.578104	-1.865792	1
H	2.434675	0.698794	0.017208	1
H	1.545825	0.802474	1.561158	1
H	-0.694875	-0.398306	1.822728	1
H	0.428515	-1.759596	1.796708	1
H	-1.026915	-1.799056	0.790098	1
H	1.706105	-1.108876	-1.421812	1
Es	0.221737	-1.554834	1.589458	99
Es	-0.928317	0.681017	-0.747262	99
Es	-0.770558	-1.584922	0.908599	99
Es	1.515495	0.751628	1.222117	99
Es	2.123548	0.673938	0.155430	99
Es	0.956794	-1.153072	-0.459206	99
Es	1.056067	0.019511	0.298237	99
Es	0.039422	0.567910	-1.536290	99
Es	-0.541008	-0.630583	1.604541	99
Es	-0.232980	-1.148968	1.172649	99
Es	0.967402	-1.717178	-0.873925	99
Es	-1.669953	0.791926	-0.698896	99
Es	0.146565	-0.826348	0.597450	99
Es	-1.869752	1.391864	-1.082110	99
Es	0.269902	1.259629	-0.391972	99
Es	1.463643	-1.303227	-1.099741	99
Es	-1.880660	0.878936	0.005705	99
Es	-0.172168	0.588385	-0.808096	99
Es	0.911508	1.285974	0.125408	99
Es	-2.024584	0.204043	-0.982984	99
Es	0.120663	-0.026515	-0.422838	99
Es	1.191178	-1.564564	-0.732833	99
Es	0.551782	1.634280	-0.108292	99
Es	0.702260	1.814022	-0.304205	99
Es	0.543588	-0.513143	0.029299	99
Es	1.443820	0.657530	0.481493	99
Es	0.365400	1.730188	0.114932	99
Es	1.391395	-1.696426	-0.543657	99
45
Properties=species:S:1:pos:R:3:Z:I:1 energy=-344.9726839159494 field_type=dipole dipole="0.000000 0.000000 0.000000" charge=0
C	-1.669975	0.791944	-0.698882	6
C	-0.172255	0.588234	-0.808222	6
O	0.551765	1.634574	-0.108272	8
C	1.443955	0.657384	0.481588	6
C	0.543485	-0.513006	0.029418	6
C	-0.232995	-1.148996	1.172678	6
O	1.191135	-1.564896	-0.732792	8
H	-2.205415	-0.067326	-1.113842	1
H	-1.977685	1.680154	-1.260442	1
H	-1.992015	0.928394	0.338478	1
H	0.126675	0.578104	-1.865792	1
H	2.434675	0.698794	0.017208	1
H	1.545825	0.802474	1.561158	1
H	-0.694875	-0.398306	1.822728	1
H	0.428515	-1.759596	1.796708	1
H	-1.026915	-1.799056	0.790098	1
H	1.706105	-1.108876	-1.421812	1
Es	0.955387	-1.153040	-0.460602	99
Es	1.392586	-1.691908	-0.543010	99
Es	-1.880765	0.878995	0.005673	99
Es	0.268320	1.259552	-0.390899	99
Es	-0.172171	0.588384	-0.808098	99
Es	1.443814	0.657533	0.481492	99
Es	1.515505	0.751612	1.222064	99
Es	-0.770519	-1.584980	0.908644	99
Es	-2.024513	0.204021	-0.982962	99
Es	-1.869785	1.391765	-1.082164	99
Es	-0.928215	0.681073	-0.747220	99
Es	1.056028	0.019463	0.298186	99
Es	1.191151	-1.564672	-0.732828	99
Es	0.039388	0.567935	-1.536267	99
Es	1.462663	-1.303685	-1.101298	99
Es	0.543589	-0.513141	0.029303	99
Es	0.120665	-0.026523	-0.422874	99
Es	0.146578	-0.826330	0.597486	99
Es	0.551804	1.634512	-0.108323	99
Es	-0.541046	-0.630588	1.604515	99
Es	2.123552	0.673894	0.155464	99
Es	0.367078	1.729328	0.114220	99
Es	-0.232979	-1.148968	1.172649	99
Es	-1.669952	0.791927	-0.698896	99
Es	0.968585	-1.721181	-0.871632	99
Es	0.912133	1.286174	0.125448	99
Es	0.701561	1.814618	-0.304539	99
Es	0.221747	-1.554768	1.589485	99
45
Properties=species:S:1:pos:R:3:Z:I:1 energy=-344.9726839159494 field_type=dipole dipole="0.000000 0.000000 0.000000" charge=0
C	-1.669975	0.791944	-0.698882	6
C	-0.172255	0.588234	-0.808222	6
O	0.551765	1.634574	-0.108272	8
C	1.443955	0.657384	0.481588	6
C	0.543485	-0.513006	0.029418	6
C	-0.232995	-1.148996	1.172678	6
O	1.191135	-1.564896	-0.732792	8
H	-2.205415	-0.067326	-1.113842	1
H	-1.977685	1.680154	-1.260442	1
H	-1.992015	0.928394	0.338478	1
H	0.126675	0.578104	-1.865792	1
H	2.434675	0.698794	0.017208	1
H	1.545825	0.802474	1.561158	1
H	-0.694875	-0.398306	1.822728	1
H	0.428515	-1.759596	1.796708	1
H	-1.026915	-1.799056	0.790098	1
H	1.706105	-1.108876	-1.421812	1
Es	1.443817	0.657528	0.481492	99
Es	0.551747	1.634279	-0.108312	99
Es	0.956615	-1.152924	-0.459518	99
Es	0.366974	1.729747	0.114216	99
Es	1.390678	-1.696666	-0.543427	99
Es	0.039388	0.567867	-1.536217	99
Es	0.268506	1.259496	-0.391159	99
Es	-0.232979	-1.148968	1.172649	99
Es	-2.024520	0.204119	-0.983012	99
Es	1.056065	0.019508	0.298141	99
Es	-1.669952	0.791927	-0.698896	99
Es	2.123486	0.673920	0.155516	99
Es	0.146590	-0.826243	0.597591	99
Es	1.464230	-1.303596	-1.100040	99
Es	-0.540980	-0.630636	1.604565	99
Es	0.120473	-0.026657	-0.422775	99
Es	-0.172170	0.588385	-0.808097	99
Es	1.191219	-1.564546	-0.732810	99
Es	0.221826	-1.554768	1.589410	99
Es	0.912268	1.286300	0.125432	99
Es	-1.880753	0.878869	0.005698	99
Es	0.701417	1.814424	-0.304300	99
Es	0.543589	-0.513142	0.029299	99
Es	1.515546	0.751601	1.222045	99
Es	-1.869798	1.391845	-1.082095	99
Es	-0.928174	0.681105	-0.747351	99
Es	-0.770603	-1.585006	0.908550	99
Es	0.967683	-1.716770	-0.873586	99
45
Properties=species:S:1:pos:R:3:Z:I:1 energy=-344.9726839159494 field_type=dipole dipole="0.000000 0.000000 0.000000" charge=0
C	-1.669975	0.791944	-0.698882	6
C	-0.172255	0.588234	-0.808222	6
O	0.551765	1.634574	-0.108272	8
C	1.443955	0.657384	0.481588	6
C	0.543485	-0.513006	0.029418	6
C	-0.232995	-1.148996	1.172678	6
O	1.191135	-1.564896	-0.732792	8
H	-2.205415	-0.067326	-1.113842	1
H	-1.977685	1.680154	-1.260442	1
H	-1.992015	0.928394	0.338478	1
H	0.126675	0.578104	-1.865792	1
H	2.434675	0.698794	0.017208	1
H	1.545825	0.802474	1.561158	1
H	-0.694875	-0.398306	1.822728	1
H	0.428515	-1.759596	1.796708	1
H	-1.026915	-1.799056	0.790098	1
H	1.706105	-1.108876	-1.421812	1
Es	1.191100	-1.564526	-0.732909	99
Es	-1.869795	1.391835	-1.082046	99
Es	1.443817	0.657531	0.481492	99
Es	-2.024530	0.204105	-0.983057	99
Es	-0.172171	0.588384	-0.808098	99
Es	1.056102	0.019370	0.298270	99
Es	-0.232980	-1.148969	1.172649	99
Es	0.543589	-0.513140	0.029301	99
Es	1.463114	-1.304115	-1.101093	99
Es	1.515526	0.751578	1.221960	99
Es	0.912146	1.286223	0.126006	99
Es	0.551820	1.634262	-0.108321	99
Es	-0.770430	-1.585094	0.908643	99
Es	0.120650	-0.026601	-0.422899	99
Es	-0.928196	0.681073	-0.747356	99
Es	-1.880753	0.878860	0.005700	99
Es	0.039352	0.567939	-1.536153	99
Es	1.391944	-1.691091	-0.543836	99
Es	-0.541161	-0.630605	1.604417	99
Es	0.955849	-1.152578	-0.460028	99
Es	0.367340	1.730494	0.113601	99
Es	-1.669952	0.791927	-0.698896	99
Es	2.123502	0.673943	0.155604	99
Es	0.968413	-1.722185	-0.871512	99
Es	0.146604	-0.826325	0.597390	99
Es	0.221739	-1.554641	1.589588	99
Es	0.701561	1.813716	-0.304421	99
Es	0.267989	1.259628	-0.390985	99
45
Properties=species:S:1:pos:R:3:Z:I:1 energy=-344.9726839159494 field_type=dipole dipole="0.000000 0.000000 0.000000" charge=0
C	-1.669975	0.791944	-0.698882	6
C	-0.172255	0.588234	-0.808222	6
O	0.551765	1.634574	-0.108272	8
C	1.443955	0.657384	0.481588	6
C	0.543485	-0.513006	0.029418	6
C	-0.232995	-1.148996	1.172678	6
O	1.191135	-1.564896	-0.732792	8
H	-2.205415	-0.067326	-1.113842	1
H	-1.977685	1.680154	-1.260442	1
H	-1.992015	0.928394	0.338478	1
H	0.126675	0.578104	-1.865792	1
H	2.434675	0.698794	0.017208	1
H	1.545825	0.802474	1.561158	1
H	-0.694875	-0.398306	1.822728	1
H	0.428515	-1.759596	1.796708	1
H	-1.026915	-1.799056	0.790098	1
H	1.706105	-1.108876	-1.421812	1
Es	-0.540996	-0.630589	1.604535	99
Es	0.267611	1.259661	-0.391278	99
Es	0.221721	-1.554778	1.589457	99
Es	-0.172171	0.588384	-0.808099	99
Es	1.056101	0.019330	0.298348	99
Es	0.367693	1.733027	0.112347	99
Es	0.039353	0.567919	-1.536132	99
Es	-0.770550	-1.584959	0.908696	99
Es	-2.024561	0.204172	-0.982963	99
Es	1.515630	0.751621	1.221916	99
Es	0.956060	-1.152469	-0.460041	99
Es	-1.669952	0.791927	-0.698895	99
Es	1.391152	-1.693928	-0.543399	99
Es	0.702798	1.811450	-0.304487	99
Es	0.543589	-0.513136	0.029300	99
Es	0.968352	-1.719061	-0.871943	99
Es	0.146539	-0.826341	0.597332	99
Es	0.911018	1.286050	0.127468	99
Es	1.463711	-1.304382	-1.101196	99
Es	0.120707	-0.026593	-0.422884	99
Es	-0.928183	0.680973	-0.747425	99
Es	-0.232980	-1.148969	1.172649	99
Es	1.443817	0.657530	0.481492	99
Es	-1.869819	1.391796	-1.082097	99
Es	2.123445	0.673953	0.155562	99
Es	1.191141	-1.564655	-0.732817	99
Es	0.551696	1.634155	-0.108157	99
Es	-1.880734	0.878909	0.005725	99
45
Properties=species:S:1:pos:R:3:Z:I:1 energy=-344.9726839159494 field_type=dipole dipole="0.000000 0.000000 0.000000" charge=0
C	-1.669975	0.791944	-0.698882	6
C	-0.172255	0.588234	-0.808222	6
O	0.551765	1.634574	-0.108272	8
C	1.443955	0.657384	0.481588	6
C	0.543485	-0.513006	0.029418	6
C	-0.232995	-1.148996	1.172678	6
O	1.191135	-1.564896	-0.732792	8
H	-2.205415	-0.067326	-1.113842	1
H	-1.977685	1.680154	-1.260442	1
H	-1.992015	0.928394	0.338478	1
H	0.126675	0.578104	-1.865792	1
H	2.434675	0.698794	0.017208	1
H	1.545825	0.802474	1.561158	1
H	-0.694875	-0.398306	1.822728	1
H	0.428515	-1.759596	1.796708	1
H	-1.026915	-1.799056	0.790098	1
H	1.706105	-1.108876	-1.421812	1
Es	1.393256	-1.692424	-0.543616	99
Es	2.123421	0.673898	0.155605	99
Es	0.221719	-1.554716	1.589506	99
Es	0.969371	-1.720819	-0.871163	99
Es	0.267967	1.259950	-0.391844	99
Es	1.515620	0.751634	1.221918	99
Es	-0.770531	-1.585006	0.908745	99
Es	-0.232980	-1.148969	1.172649	99
Es	-0.928172	0.681041	-0.747368	99
Es	0.701047	1.814048	-0.303374	99
Es	-0.172172	0.588384	-0.808099	99
Es	0.146586	-0.826303	0.597332	99
Es	0.543587	-0.513132	0.029304	99
Es	-1.669952	0.791927	-0.698896	99
Es	0.955042	-1.152899	-0.460036	99
Es	-0.541018	-0.630629	1.604492	99
Es	-1.869798	1.391839	-1.082022	99
Es	1.191136	-1.564543	-0.732826	99
Es	0.912575	1.286261	0.125876	99
Es	-1.880770	0.878852	0.005656	99
Es	1.443816	0.657529	0.481491	99
Es	0.551715	1.634189	-0.108199	99
Es	0.039317	0.567916	-1.536067	99
Es	1.461610	-1.303824	-1.101767	99
Es	-2.024553	0.204121	-0.983055	99
Es	1.056082	0.019361	0.298276	99
Es	0.120682	-0.026659	-0.422890	99
Es	0.367588	1.729972	0.113386	99
45
Properties=species:S:1:pos:R:3:Z:I:1 energy=-344.9726839159494 field_type=dipole dipole="0.000000 0.000000 0.000000" charge=0
C	-1.669975	0.791944	-0.698882	6
C	-0.172255	0.588234	-0.808222	6
O	0.551765	1.634574	-0.108272	8
C	1.443955	0.657384	0.481588	6
C	0.543485	-0.513006	0.029418	6
C	-0.232995	-1.148996	1.172678	6
O	1.191135	-1.564896	-0.732792	8
H	-2.205415	-0.067326	-1.113842	1
H	-1.977685	1.680154	-1.260442	1
H	-1.992015	0.928394	0.338478	1
H	0.126675	0.578104	-1.865792	1
H	2.434675	0.698794	0.017208	1
H	1.545825	0.802474	1.561158	1
H	-0.694875	-0.398306	1.822728	1
H	0.428515	-1.759596	1.796708	1
H	-1.026915	-1.799056	0.790098	1
H	1.706105	-1.108876	-1.421812	1
Es	-0.770542	-1.584988	0.908728	99
Es	-2.024565	0.204110	-0.983032	99
Es	0.146598	-0.826301	0.597326	99
Es	0.039318	0.567919	-1.536035	99
Es	1.464572	-1.304085	-1.100479	99
Es	1.390175	-1.695640	-0.543888	99
Es	1.515633	0.751619	1.221864	99
Es	0.968419	-1.717553	-0.872901	99
Es	0.912633	1.286475	0.126449	99
Es	-1.880770	0.878904	0.005652	99
Es	1.443817	0.657529	0.481492	99
Es	2.123413	0.673928	0.155648	99
Es	-0.172171	0.588383	-0.808098	99
Es	0.368037	1.731916	0.112634	99
Es	-0.928149	0.681054	-0.747415	99
Es	0.551707	1.634169	-0.108180	99
Es	0.221673	-1.554734	1.589490	99
Es	-1.869819	1.391778	-1.082022	99
Es	0.543588	-0.513137	0.029302	99
Es	0.267507	1.259780	-0.391463	99
Es	-0.232980	-1.148969	1.172650	99
Es	-1.669952	0.791927	-0.698896	99
Es	0.120705	-0.026663	-0.422926	99
Es	0.700994	1.812121	-0.303558	99
Es	0.956103	-1.152677	-0.459283	99
Es	1.056087	0.019320	0.298298	99
Es	-0.541002	-0.630621	1.604509	99
Es	1.191161	-1.564565	-0.732854	99
45
Properties=species:S:1:pos:R:3:Z:I:1 energy=-344.9726839159494 field_type=dipole dipole="0.000000 0.000000 0.000000" charge=0
C	-1.669975	0.791944	-0.698882	6
C	-0.172255	0.588234	-0.808222	6
O	0.551765	1.634574	-0.108272	8
C	1.443955	0.657384	0.481588	6
C	0.543485	-0.513006	0.029418	6
C	-0.232995	-1.148996	1.172678	6
O	1.191135	-1.564896	-0.732792	8
H	-2.205415	-0.067326	-1.113842	1
H	-1.977685	1.680154	-1.260442	1
H	-1.992015	0.928394	0.338478	1
H	0.126675	0.578104	-1.865792	1
H	2.434675	0.698794	0.017208	1
H	1.545825	0.802474	1.561158	1
H	-0.694875	-0.398306	1.822728	1
H	0.428515	-1.759596	1.796708	1
H	-1.026915	-1.799056	0.790098	1
H	1.706105	-1.108876	-1.421812	1
Es	0.146522	-0.826434	0.597281	99
Es	-1.880757	0.878871	0.005620	99
Es	-1.869827	1.391816	-1.081986	99
Es	0.912597	1.286458	0.126797	99
Es	-0.540892	-0.630530	1.604426	99
Es	0.039318	0.567907	-1.535986	99
Es	0.543585	-0.513135	0.029308	99
Es	0.551783	1.634345	-0.108295	99
Es	1.463999	-1.304205	-1.101076	99
Es	0.956424	-1.152600	-0.458887	99
Es	0.700925	1.813630	-0.303104	99
Es	-0.928167	0.681126	-0.747421	99
Es	0.267425	1.259995	-0.391927	99
Es	-0.232978	-1.148967	1.172644	99
Es	1.390475	-1.695429	-0.544289	99
Es	-2.024561	0.204057	-0.983064	99
Es	-0.172172	0.588382	-0.808099	99
Es	0.221713	-1.554800	1.589544	99
Es	1.056144	0.019227	0.298304	99
Es	2.123366	0.673957	0.155731	99
Es	0.120716	-0.026665	-0.422960	99
Es	-0.770639	-1.584896	0.908800	99
Es	0.968375	-1.717712	-0.872270	99
Es	1.191148	-1.564560	-0.732866	99
Es	1.515661	0.751614	1.221798	99
Es	1.443818	0.657527	0.481493	99
Es	-1.669952	0.791927	-0.698896	99
Es	0.368140	1.730093	0.112390	99
45
Properties=species:S:1:pos:R:3:Z:I:1 energy=-344.9726839159494 field_type=dipole dipole="0.000000 0.000000 0.000000" charge=0
C	-1.669975	0.791944	-0.698882	6
C	-0.172255	0.588234	-0.808222	6
O	0.551765	1.634574	-0.108272	8
C	1.443955	0.657384	0.481588	6
C	0.543485	-0.513006	0.029418	6
C	-0.232995	-1.148996	1.172678	6
O	1.191135	-1.564896	-0.732792	8
H	-2.205415	-0.067326	-1.113842	1
H	-1.977685	1.680154	-1.260442	1
H	-1.992015	0.928394	0.338478	1
H	0.126675	0.578104	-1.865792	1
H	2.434675	0.698794	0.017208	1
H	1.545825	0.802474	1.561158	1
H	-0.694875	-0.398306	1.822728	1
H	0.428515	-1.759596	1.796708	1
H	-1.026915	-1.799056	0.790098	1
H	1.706105	-1.108876	-1.421812	1
Es	-2.024545	0.204116	-0.983031	99
Es	-0.928163	0.681060	-0.747483	99
Es	0.120714	-0.026693	-0.422957	99
Es	0.146590	-0.826276	0.597303	99
Es	0.551782	1.634331	-0.108279	99
Es	-1.880734	0.878813	0.005629	99
Es	0.368224	1.732286	0.112352	99
Es	-1.669953	0.791927	-0.698896	99
Es	-0.541001	-0.630645	1.604472	99
Es	1.515678	0.751621	1.221782	99
Es	-1.869878	1.391852	-1.081986	99
Es	-0.232981	-1.148969	1.172650	99
Es	1.191075	-1.564518	-0.732924	99
Es	-0.770546	-1.584955	0.908747	99
Es	1.443818	0.657528	0.481492	99
Es	0.543588	-0.513135	0.029303	99
Es	2.123366	0.673928	0.155710	99
Es	0.267102	1.259846	-0.391494	99
Es	0.956602	-1.152579	-0.458471	99
Es	-0.172172	0.588382	-0.808099	99
Es	1.465520	-1.304228	-1.100031	99
Es	0.039303	0.567908	-1.535944	99
Es	0.221684	-1.554759	1.589534	99
Es	0.912721	1.286606	0.126896	99
Es	1.056094	0.019261	0.298318	99
Es	1.388702	-1.697474	-0.544646	99
Es	0.701058	1.811497	-0.303596	99
Es	0.968543	-1.715732	-0.873340	99
45
Properties=species:S:1:pos:R:3:Z:I:1 energy=-344.9726839159494 field_type=dipole dipole="0.000000 0.000000 0.000000" charge=0
C	-1.669975	0.791944	-0.698882	6
C	-0.172255	0.588234	-0.808222	6
O	0.551765	1.634574	-0.108272	8
C	1.443955	0.657384	0.481588	6
C	0.543485	-0.513006	0.029418	6
C	-0.232995	-1.148996	1.172678	6
O	1.191135	-1.564896	-0.732792	8
H	-2.205415	-0.067326	-1.113842	1
H	-1.977685	1.680154	-1.260442	1
H	-1.992015	0.928394	0.338478	1
H	0.126675	0.578104	-1.865792	1
H	2.434675	0.698794	0.017208	1
H	1.545825	0.802474	1.561158	1
H	-0.694875	-0.398306	1.822728	1
H	0.428515	-1.759596	1.796708	1
H	-1.026915	-1.799056	0.790098	1
H	1.706105	-1.108876	-1.421812	1
Es	0.120737	-0.026695	-0.422973	99
Es	-1.869834	1.391806	-1.082008	99
Es	0.221660	-1.554734	1.589534	99
Es	0.543587	-0.513134	0.029304	99
Es	1.515676	0.751614	1.221769	99
Es	-0.540992	-0.630672	1.604474	99
Es	0.699163	1.815251	-0.301959	99
Es	-0.770544	-1.584965	0.908791	99
Es	1.443817	0.657527	0.481492	99
Es	1.191148	-1.564545	-0.732852	99
Es	1.056112	0.019238	0.298300	99
Es	0.968625	-1.718910	-0.871886	99
Es	0.914127	1.286967	0.125418	99
Es	-0.172172	0.588381	-0.808100	99
Es	0.267693	1.260039	-0.392511	99
Es	0.039286	0.567907	-1.535912	99
Es	0.368140	1.727994	0.113187	99
Es	0.551785	1.634356	-0.108289	99
Es	-0.232982	-1.148972	1.172652	99
Es	0.146599	-0.826252	0.597259	99
Es	0.956233	-1.152496	-0.458840	99
Es	-2.024571	0.204081	-0.983025	99
Es	1.464068	-1.304412	-1.101210	99
Es	-1.669952	0.791927	-0.698895	99
Es	1.390363	-1.694180	-0.544629	99
Es	-1.880767	0.878890	0.005598	99
Es	-0.928159	0.681060	-0.747437	99
Es	2.123343	0.673926	0.155759	99
45
Properties=species:S:1:pos:R:3:Z:I:1 energy=-344.9726839159494 field_type=dipole dipole="0.000000 0.000000 0.000000" charge=0
C	-1.669975	0.791944	-0.698882	6
C	-0.172255	0.588234	-0.808222	6
O	0.551765	1.634574	-0.108272	8
C	1.443955	0.657384	0.481588	6
C	0.543485	-0.513006	0.029418	6
C	-0.232995	-1.148996	1.172678	6
O	1.191135	-1.564896	-0.732792	8
H	-2.205415	-0.067326	-1.113842	1
H	-1.977685	1.680154	-1.260442	1
H	-1.992015	0.928394	0.338478	1
H	0.126675	0.578104	-1.865792	1
H	2.434675	0.698794	0.017208	1
H	1.545825	0.802474	1.561158	1
H	-0.694875	-0.398306	1.822728	1
H	0.428515	-1.759596	1.796708	1
H	-1.026915	-1.799056	0.790098	1
H	1.706105	-1.108876	-1.421812	1
Es	-1.880743	0.878900	0.005570	99
Es	-0.541005	-0.630650	1.604455	99
Es	0.221698	-1.554724	1.589543	99
Es	0.368463	1.731455	0.112105	99
Es	2.123307	0.673934	0.155748	99
Es	-0.928116	0.681035	-0.747447	99
Es	0.146605	-0.826275	0.597256	99
Es	0.700424	1.812135	-0.302875	99
Es	1.191193	-1.564551	-0.732841	99
Es	0.969160	-1.717967	-0.872419	99
Es	1.056108	0.019264	0.298285	99
Es	0.551774	1.634294	-0.108270	99
Es	0.267043	1.259948	-0.391969	99
Es	1.464837	-1.304372	-1.100784	99
Es	0.039246	0.567916	-1.535899	99
Es	1.443813	0.657529	0.481490	99
Es	1.515720	0.751561	1.221768	99
Es	0.955534	-1.152579	-0.459219	99
Es	0.120693	-0.026748	-0.422960	99
Es	-2.024585	0.204085	-0.982976	99
Es	1.389736	-1.695072	-0.544168	99
Es	0.913195	1.286839	0.126902	99
Es	0.543589	-0.513135	0.029301	99
Es	-1.669949	0.791927	-0.698897	99
Es	-0.232981	-1.148969	1.172650	99
Es	-1.869859	1.391815	-1.082022	99
Es	-0.770536	-1.584979	0.908784	99
Es	-0.172172	0.588381	-0.808099	99
45
Properties=species:S:1:pos:R:3:Z:I:1 energy=-344.9726839159494 field_type=dipole dipole="0.000000 0.000000 0.000000" charge=0
C	-1.669975	0.791944	-0.698882	6
C	-0.172255	0.588234	-0.808222	6
O	0.551765	1.634574	-0.108272	8
C	1.443955	0.657384	0.481588	6
C	0.543485	-0.513006	0.029418	6
C	-0.232995	-1.148996	1.172678	6
O	1.191135	-1.564896	-0.732792	8
H	-2.205415	-0.067326	-1.113842	1
H	-1.977685	1.680154	-1.260442	1
H	-1.992015	0.928394	0.338478	1