45
Properties=species:S:1:pos:R:3:Z:I:1 energy=-344.97132116807626 field_type=dipole dipole="0.000000 0.000000 0.000000" charge=0
C	-1.848036	0.071222	-0.347159	6
C	-0.330056	0.130712	-0.409419	6
O	0.072984	0.139022	-1.801829	8
C	0.313944	1.217782	0.489991	6
C	1.370324	0.182382	0.912701	6
C	0.403044	-0.938188	0.469721	6
O	1.011544	-2.026778	-0.257549	8
H	-2.210676	0.056012	0.686141	1
H	-2.221646	-0.829518	-0.844829	1
H	-2.290986	0.940282	-0.843879	1
H	1.034044	0.310202	-1.792399	1
H	-0.319716	1.559922	1.315821	1
H	0.710304	2.092672	-0.032399	1
H	2.294384	0.227272	0.323541	1
H	1.630054	0.188182	1.973680	1
H	-0.207776	-1.326168	1.294281	1
H	0.588264	-1.995018	-1.136409	1
Es	-0.061067	0.381385	-1.923267	99
Es	1.987661	0.214233	0.496775	99
Es	0.945369	-0.430420	0.733090	99
Es	-0.050465	0.743783	0.006426	99
Es	-2.143747	0.663401	-0.681722	99
Es	1.551091	0.187447	1.639255	99
Es	-2.081829	0.060595	0.361627	99
Es	-1.098682	0.099208	-0.382204	99
Es	-2.095896	-0.543861	-0.683892	99
Es	0.403157	-0.938305	0.469592	99
Es	-0.005709	-0.471994	-0.009113	99
Es	1.297880	-1.939996	-0.302851	99
Es	0.033190	-0.153867	-1.901395	99
Es	0.774530	-2.002955	-0.716527	99
Es	-0.123498	1.436522	1.049958	99
Es	1.011241	-2.026583	-0.257643	99
Es	-0.049635	0.138718	-1.269270	99
Es	-0.022626	-1.191322	1.034826	99
Es	0.589002	0.230955	-1.781210	99
Es	-1.848021	0.071218	-0.347150	99
Es	0.768633	-1.613401	0.005068	99
Es	0.073214	0.139055	-1.801558	99
Es	0.313963	1.217727	0.489989	99
Es	-0.329970	0.130718	-0.409619	99
Es	0.932785	-2.288764	-0.119380	99
Es	0.884553	0.763057	0.740918	99
Es	0.582454	1.812956	0.129003	99
Es	1.370271	0.182401	0.912679	99
45
Properties=species:S:1:pos:R:3:Z:I:1 energy=-344.97132116807626 field_type=dipole dipole="0.000000 0.000000 0.000000" charge=0
C	-1.848036	0.071222	-0.347159	6
C	-0.330056	0.130712	-0.409419	6
O	0.072984	0.139022	-1.801829	8
C	0.313944	1.217782	0.489991	6
C	1.370324	0.182382	0.912701	6
C	0.403044	-0.938188	0.469721	6
O	1.011544	-2.026778	-0.257549	8
H	-2.210676	0.056012	0.686141	1
H	-2.221646	-0.829518	-0.844829	1
H	-2.290986	0.940282	-0.843879	1
H	1.034044	0.310202	-1.792399	1
H	-0.319716	1.559922	1.315821	1
H	0.710304	2.092672	-0.032399	1
H	2.294384	0.227272	0.323541	1
H	1.630054	0.188182	1.973680	1
H	-0.207776	-1.326168	1.294281	1
H	0.588264	-1.995018	-1.136409	1
Es	0.928276	-2.286527	-0.121494	99
Es	0.768818	-1.613101	0.005202	99
Es	0.589466	0.231376	-1.782124	99
Es	-2.143784	0.663351	-0.681848	99
Es	0.582422	1.812902	0.129054	99
Es	0.403164	-0.938316	0.469589	99
Es	-1.098655	0.099170	-0.382292	99
Es	-2.095919	-0.543871	-0.683716	99
Es	1.011330	-2.026577	-0.257653	99
Es	0.945349	-0.430417	0.733300	99
Es	1.370272	0.182399	0.912679	99
Es	-0.005863	-0.471990	-0.009081	99
Es	-0.022567	-1.191370	1.034652	99
Es	1.300550	-1.943725	-0.299983	99
Es	0.776138	-2.001731	-0.717436	99
Es	1.987652	0.214169	0.496824	99
Es	-2.081783	0.060711	0.361667	99
Es	-0.062118	0.379834	-1.924502	99
Es	0.034111	-0.152970	-1.899708	99
Es	-0.049950	0.138943	-1.268826	99
Es	1.551134	0.187385	1.639138	99
Es	0.313967	1.217728	0.489984	99
Es	0.884600	0.763210	0.741027	99
Es	-1.848018	0.071222	-0.347149	99
Es	-0.123481	1.436577	1.049894	99
Es	-0.329971	0.130720	-0.409615	99
Es	-0.050499	0.743765	0.006385	99
Es	0.073209	0.139044	-1.801562	99
45
Properties=species:S:1:pos:R:3:Z:I:1 energy=-344.97132116807626 field_type=dipole dipole="0.000000 0.000000 0.000000" charge=0
C	-1.848036	0.071222	-0.347159	6
C	-0.330056	0.130712	-0.409419	6
O	0.072984	0.139022	-1.801829	8
C	0.313944	1.217782	0.489991	6
C	1.370324	0.182382	0.912701	6
C	0.403044	-0.938188	0.469721	6
O	1.011544	-2.026778	-0.257549	8
H	-2.210676	0.056012	0.686141	1
H	-2.221646	-0.829518	-0.844829	1
H	-2.290986	0.940282	-0.843879	1
H	1.034044	0.310202	-1.792399	1
H	-0.319716	1.559922	1.315821	1
H	0.710304	2.092672	-0.032399	1
H	2.294384	0.227272	0.323541	1
H	1.630054	0.188182	1.973680	1
H	-0.207776	-1.326168	1.294281	1
H	0.588264	-1.995018	-1.136409	1
Es	0.403162	-0.938310	0.469587	99
Es	1.011303	-2.026478	-0.257713	99
Es	1.370272	0.182402	0.912679	99
Es	0.073191	0.139060	-1.801543	99
Es	-0.329972	0.130718	-0.409613	99
Es	0.767955	-1.613763	0.006416	99
Es	-0.005859	-0.471943	-0.009097	99
Es	1.551173	0.187370	1.639058	99
Es	-0.049858	0.139023	-1.268929	99
Es	-0.062555	0.379644	-1.924896	99
Es	0.774696	-2.003309	-0.717288	99
Es	0.589187	0.231947	-1.781958	99
Es	1.987616	0.214130	0.496904	99
Es	0.313964	1.217729	0.489990	99
Es	-2.096007	-0.543752	-0.683868	99
Es	1.300661	-1.943164	-0.300700	99
Es	-2.143758	0.663376	-0.681650	99
Es	0.034771	-0.153454	-1.899397	99
Es	-1.848022	0.071219	-0.347149	99
Es	0.884669	0.763258	0.741002	99
Es	-0.022547	-1.191298	1.034661	99
Es	0.582360	1.812909	0.129176	99
Es	0.930447	-2.285015	-0.122046	99
Es	-0.050591	0.743870	0.006310	99
Es	-1.098572	0.099130	-0.382335	99
Es	-2.081802	0.060574	0.361654	99
Es	0.945401	-0.430509	0.733288	99
Es	-0.123437	1.436545	1.049863	99
45
Properties=species:S:1:pos:R:3:Z:I:1 energy=-344.97132116807626 field_type=dipole dipole="0.000000 0.000000 0.000000" charge=0
C	-1.848036	0.071222	-0.347159	6
C	-0.330056	0.130712	-0.409419	6
O	0.072984	0.139022	-1.801829	8
C	0.313944	1.217782	0.489991	6
C	1.370324	0.182382	0.912701	6
C	0.403044	-0.938188	0.469721	6
O	1.011544	-2.026778	-0.257549	8
H	-2.210676	0.056012	0.686141	1
H	-2.221646	-0.829518	-0.844829	1
H	-2.290986	0.940282	-0.843879	1
H	1.034044	0.310202	-1.792399	1
H	-0.319716	1.559922	1.315821	1
H	0.710304	2.092672	-0.032399	1
H	2.294384	0.227272	0.323541	1
H	1.630054	0.188182	1.973680	1
H	-0.207776	-1.326168	1.294281	1
H	0.588264	-1.995018	-1.136409	1
Es	0.313964	1.217725	0.489989	99
Es	-2.096016	-0.543775	-0.683830	99
Es	1.987483	0.214130	0.496974	99
Es	0.929761	-2.286727	-0.121586	99
Es	-0.329973	0.130718	-0.409607	99
Es	-2.081778	0.060617	0.361670	99
Es	1.370271	0.182403	0.912679	99
Es	-0.123424	1.436595	1.049759	99
Es	0.403165	-0.938314	0.469587	99
Es	0.582256	1.812855	0.129232	99
Es	-0.050629	0.743877	0.006301	99
Es	-0.062814	0.378801	-1.926611	99
Es	-0.022484	-1.191362	1.034622	99
Es	0.945434	-0.430689	0.733341	99
Es	0.073229	0.138966	-1.801543	99
Es	0.589230	0.231613	-1.781963	99
Es	1.011288	-2.026544	-0.257674	99
Es	0.776320	-2.002108	-0.717787	99
Es	0.035376	-0.153500	-1.897758	99
Es	1.299273	-1.943305	-0.300123	99
Es	1.551271	0.187376	1.639084	99
Es	-1.098540	0.099107	-0.382352	99
Es	0.768401	-1.612984	0.005793	99
Es	-0.005944	-0.471824	-0.009126	99
Es	-2.143754	0.663373	-0.681681	99
Es	0.884793	0.763340	0.741053	99
Es	-0.050290	0.140329	-1.268887	99
Es	-1.848021	0.071218	-0.347150	99
45
Properties=species:S:1:pos:R:3:Z:I:1 energy=-344.97132116807626 field_type=dipole dipole="0.000000 0.000000 0.000000" charge=0
C	-1.848036	0.071222	-0.347159	6
C	-0.330056	0.130712	-0.409419	6
O	0.072984	0.139022	-1.801829	8
C	0.313944	1.217782	0.489991	6
C	1.370324	0.182382	0.912701	6
C	0.403044	-0.938188	0.469721	6
O	1.011544	-2.026778	-0.257549	8
H	-2.210676	0.056012	0.686141	1
H	-2.221646	-0.829518	-0.844829	1
H	-2.290986	0.940282	-0.843879	1
H	1.034044	0.310202	-1.792399	1
H	-0.319716	1.559922	1.315821	1
H	0.710304	2.092672	-0.032399	1
H	2.294384	0.227272	0.323541	1
H	1.630054	0.188182	1.973680	1
H	-0.207776	-1.326168	1.294281	1
H	0.588264	-1.995018	-1.136409	1
Es	1.987538	0.214146	0.497020	99
Es	0.767314	-1.614090	0.006669	99
Es	0.776769	-2.001949	-0.718412	99
Es	1.551255	0.187371	1.638932	99
Es	-1.848022	0.071218	-0.347150	99
Es	0.403164	-0.938308	0.469589	99
Es	-0.050681	0.743848	0.006322	99
Es	1.011322	-2.026531	-0.257668	99
Es	0.945452	-0.430614	0.733320	99
Es	-2.081783	0.060623	0.361654	99
Es	-1.098534	0.099086	-0.382355	99
Es	1.299687	-1.943181	-0.299105	99
Es	-0.050011	0.137820	-1.268542	99
Es	-2.096064	-0.543759	-0.683848	99
Es	-0.123379	1.436628	1.049673	99
Es	0.929990	-2.286011	-0.122843	99
Es	0.313962	1.217727	0.489990	99
Es	-0.005981	-0.471923	-0.009049	99
Es	-0.022471	-1.191274	1.034607	99
Es	0.884794	0.763398	0.741183	99
Es	-2.143747	0.663345	-0.681634	99
Es	0.035277	-0.151730	-1.898950	99
Es	0.582207	1.812846	0.129209	99
Es	0.073255	0.138933	-1.801504	99
Es	0.589389	0.231285	-1.782148	99
Es	-0.063153	0.379888	-1.925618	99
Es	1.370271	0.182402	0.912679	99
Es	-0.329972	0.130718	-0.409613	99
45
Properties=species:S:1:pos:R:3:Z:I:1 energy=-344.97132116807626 field_type=dipole dipole="0.000000 0.000000 0.000000" charge=0
C	-1.848036	0.071222	-0.347159	6
C	-0.330056	0.130712	-0.409419	6
O	0.072984	0.139022	-1.801829	8
C	0.313944	1.217782	0.489991	6
C	1.370324	0.182382	0.912701	6
C	0.403044	-0.938188	0.469721	6
O	1.011544	-2.026778	-0.257549	8
H	-2.210676	0.056012	0.686141	1
H	-2.221646	-0.829518	-0.844829	1
H	-2.290986	0.940282	-0.843879	1
H	1.034044	0.310202	-1.792399	1
H	-0.319716	1.559922	1.315821	1
H	0.710304	2.092672	-0.032399	1
H	2.294384	0.227272	0.323541	1
H	1.630054	0.188182	1.973680	1
H	-0.207776	-1.326168	1.294281	1
H	0.588264	-1.995018	-1.136409	1
Es	0.945419	-0.430711	0.733446	99
Es	-0.062444	0.379205	-1.924610	99
Es	1.011340	-2.026543	-0.257630	99
Es	-0.123327	1.436764	1.049551	99
Es	0.929982	-2.285782	-0.121715	99
Es	0.582199	1.812765	0.129129	99
Es	1.370272	0.182402	0.912680	99
Es	0.775793	-2.002831	-0.717768	99
Es	-0.050741	0.743912	0.006504	99
Es	1.551225	0.187380	1.638788	99
Es	-0.006057	-0.471959	-0.009128	99
Es	0.034695	-0.152484	-1.899627	99
Es	1.987611	0.214227	0.497048	99
Es	1.299235	-1.943987	-0.300410	99
Es	-2.096127	-0.543827	-0.683907	99
Es	0.313964	1.217727	0.489990	99
Es	0.403162	-0.938306	0.469590	99
Es	-0.050172	0.138476	-1.268557	99
Es	-0.022492	-1.191254	1.034488	99
Es	-2.143617	0.663260	-0.681620	99
Es	0.589459	0.231959	-1.782382	99
Es	-2.081866	0.060757	0.361634	99
Es	0.884825	0.763336	0.741402	99
Es	-0.329972	0.130717	-0.409614	99
Es	-1.098468	0.099091	-0.382328	99
Es	0.768758	-1.612647	0.006186	99
Es	-1.848022	0.071218	-0.347150	99
Es	0.073213	0.139047	-1.801581	99
45
Properties=species:S:1:pos:R:3:Z:I:1 energy=-344.97132116807626 field_type=dipole dipole="0.000000 0.000000 0.000000" charge=0
C	-1.848036	0.071222	-0.347159	6
C	-0.330056	0.130712	-0.409419	6
O	0.072984	0.139022	-1.801829	8
C	0.313944	1.217782	0.489991	6
C	1.370324	0.182382	0.912701	6
C	0.403044	-0.938188	0.469721	6
O	1.011544	-2.026778	-0.257549	8
H	-2.210676	0.056012	0.686141	1
H	-2.221646	-0.829518	-0.844829	1
H	-2.290986	0.940282	-0.843879	1
H	1.034044	0.310202	-1.792399	1
H	-0.319716	1.559922	1.315821	1
H	0.710304	2.092672	-0.032399	1
H	2.294384	0.227272	0.323541	1
H	1.630054	0.188182	1.973680	1
H	-0.207776	-1.326168	1.294281	1
H	0.588264	-1.995018	-1.136409	1
Es	0.032438	-0.151378	-1.900378	99
Es	0.073255	0.138912	-1.801508	99
Es	1.551324	0.187303	1.638771	99
Es	0.945521	-0.430741	0.733427	99
Es	0.884931	0.763604	0.741222	99
Es	0.313964	1.217727	0.489990	99
Es	0.403161	-0.938307	0.469588	99
Es	-0.061185	0.380282	-1.923551	99
Es	-1.848022	0.071218	-0.347150	99
Es	-2.081800	0.060610	0.361674	99
Es	1.370271	0.182402	0.912679	99
Es	0.767995	-1.613183	0.006799	99
Es	-0.329972	0.130717	-0.409610	99
Es	-0.006022	-0.471913	-0.009110	99
Es	-2.143747	0.663351	-0.681663	99
Es	-0.022463	-1.191190	1.034473	99
Es	1.987487	0.214121	0.497145	99
Es	1.011316	-2.026508	-0.257691	99
Es	-0.049630	0.138646	-1.268184	99
Es	-2.096025	-0.543748	-0.683848	99
Es	0.933782	-2.287623	-0.120871	99
Es	0.589868	0.229767	-1.783176	99
Es	0.775509	-2.003352	-0.717816	99
Es	-1.098518	0.099075	-0.382338	99
Es	-0.050773	0.743857	0.006325	99
Es	-0.123309	1.436659	1.049640	99
Es	0.582040	1.812779	0.129300	99
Es	1.296454	-1.941178	-0.301730	99
45
Properties=species:S:1:pos:R:3:Z:I:1 energy=-344.97132116807626 field_type=dipole dipole="0.000000 0.000000 0.000000" charge=0
C	-1.848036	0.071222	-0.347159	6
C	-0.330056	0.130712	-0.409419	6
O	0.072984	0.139022	-1.801829	8
C	0.313944	1.217782	0.489991	6
C	1.370324	0.182382	0.912701	6
C	0.403044	-0.938188	0.469721	6
O	1.011544	-2.026778	-0.257549	8
H	-2.210676	0.056012	0.686141	1
H	-2.221646	-0.829518	-0.844829	1
H	-2.290986	0.940282	-0.843879	1
H	1.034044	0.310202	-1.792399	1
H	-0.319716	1.559922	1.315821	1
H	0.710304	2.092672	-0.032399	1
H	2.294384	0.227272	0.323541	1
H	1.630054	0.188182	1.973680	1
H	-0.207776	-1.326168	1.294281	1
H	0.588264	-1.995018	-1.136409	1
Es	0.589375	0.233285	-1.783317	99
Es	-2.096033	-0.543732	-0.683869	99
Es	0.767963	-1.612908	0.006378	99
Es	-0.123239	1.436676	1.049580	99
Es	1.551225	0.187324	1.638723	99
Es	1.011334	-2.026529	-0.257660	99
Es	-1.848022	0.071217	-0.347151	99
Es	-0.006109	-0.471989	-0.009071	99
Es	-2.143740	0.663270	-0.681633	99
Es	0.931388	-2.286031	-0.121570	99
Es	-0.022413	-1.191164	1.034438	99
Es	-0.063391	0.376382	-1.926617	99
Es	0.313964	1.217729	0.489990	99
Es	-1.098409	0.099107	-0.382365	99
Es	1.298446	-1.942995	-0.300586	99
Es	-0.329972	0.130718	-0.409611	99
Es	1.370271	0.182401	0.912679	99
Es	0.945634	-0.430750	0.733422	99
Es	0.775938	-2.003411	-0.717877	99
Es	0.036280	-0.152907	-1.897233	99
Es	-2.081850	0.060630	0.361683	99
Es	-0.050732	0.140351	-1.268078	99
Es	0.073191	0.139099	-1.801567	99
Es	0.403163	-0.938310	0.469590	99
Es	0.581978	1.812761	0.129339	99
Es	1.987537	0.214098	0.497318	99
Es	0.884943	0.763643	0.741140	99
Es	-0.050872	0.743945	0.006335	99
45
Properties=species:S:1:pos:R:3:Z:I:1 energy=-344.97132116807626 field_type=dipole dipole="0.000000 0.000000 0.000000" charge=0
C	-1.848036	0.071222	-0.347159	6
C	-0.330056	0.130712	-0.409419	6
O	0.072984	0.139022	-1.801829	8
C	0.313944	1.217782	0.489991	6
C	1.370324	0.182382	0.912701	6
C	0.403044	-0.938188	0.469721	6
O	1.011544	-2.026778	-0.257549	8
H	-2.210676	0.056012	0.686141	1
H	-2.221646	-0.829518	-0.844829	1
H	-2.290986	0.940282	-0.843879	1
H	1.034044	0.310202	-1.792399	1
H	-0.319716	1.559922	1.315821	1
H	0.710304	2.092672	-0.032399	1
H	2.294384	0.227272	0.323541	1
H	1.630054	0.188182	1.973680	1
H	-0.207776	-1.326168	1.294281	1
H	0.588264	-1.995018	-1.136409	1
Es	0.589636	0.231449	-1.782861	99
Es	0.403168	-0.938310	0.469591	99
Es	-0.123294	1.436672	1.049466	99
Es	-0.006114	-0.471943	-0.009063	99
Es	-1.098382	0.099063	-0.382382	99
Es	0.945640	-0.430831	0.733633	99
Es	1.370268	0.182402	0.912681	99
Es	-0.022417	-1.191116	1.034333	99
Es	-0.329973	0.130719	-0.409594	99
Es	1.987473	0.214062	0.497274	99
Es	0.884924	0.763732	0.741304	99
Es	-2.143792	0.663362	-0.681591	99
Es	-2.081756	0.060594	0.361611	99
Es	-0.050829	0.743938	0.006193	99
Es	-0.061867	0.379758	-1.923256	99
Es	0.313965	1.217725	0.489989	99
Es	-1.848022	0.071218	-0.347150	99
Es	-2.096095	-0.543736	-0.683829	99
Es	1.551341	0.187353	1.638619	99
Es	0.768241	-1.612786	0.006757	99
Es	0.931546	-2.286212	-0.121736	99
Es	0.034033	-0.150762	-1.901082	99
Es	0.775674	-2.003271	-0.717556	99
Es	0.073226	0.139070	-1.801618	99
Es	0.581960	1.812752	0.129444	99
Es	1.298315	-1.943075	-0.301124	99
Es	1.011283	-2.026585	-0.257649	99
Es	-0.050302	0.136668	-1.267997	99
45
Properties=species:S:1:pos:R:3:Z:I:1 energy=-344.97132116807626 field_type=dipole dipole="0.000000 0.000000 0.000000" charge=0
C	-1.848036	0.071222	-0.347159	6
C	-0.330056	0.130712	-0.409419	6
O	0.072984	0.139022	-1.801829	8
C	0.313944	1.217782	0.489991	6
C	1.370324	0.182382	0.912701	6
C	0.403044	-0.938188	0.469721	6
O	1.011544	-2.026778	-0.257549	8
H	-2.210676	0.056012	0.686141	1
H	-2.221646	-0.829518	-0.844829	1
H	-2.290986	0.940282	-0.843879	1
H	1.034044	0.310202	-1.792399	1
H	-0.319716	1.559922	1.315821	1
H	0.710304	2.092672	-0.032399	1
H	2.294384	0.227272	0.323541	1
H	1.630054	0.188182	1.973680	1
H	-0.207776	-1.326168	1.294281	1
H	0.588264	-1.995018	-1.136409	1
Es	0.885027	0.763776	0.741367	99
Es	-0.062906	0.376676	-1.926136	99
Es	-0.329972	0.130719	-0.409606	99
Es	1.298107	-1.942346	-0.302001	99
Es	0.073196	0.139243	-1.801516	99
Es	0.035967	-0.152793	-1.898035	99
Es	-2.096111	-0.543782	-0.683736	99
Es	0.767908	-1.613205	0.007633	99
Es	-1.848020	0.071218	-0.347150	99
Es	0.581893	1.812761	0.129504	99
Es	-0.006174	-0.471975	-0.009124	99
Es	-0.050893	0.743947	0.006221	99
Es	-0.123218	1.436662	1.049407	99
Es	-2.143783	0.663261	-0.681678	99
Es	0.774657	-2.004062	-0.717247	99
Es	-0.050781	0.139981	-1.268009	99
Es	-1.098362	0.099043	-0.382349	99
Es	0.945644	-0.430868	0.733618	99
Es	1.551452	0.187334	1.638584	99
Es	0.933020	-2.285677	-0.122036	99
Es	-2.081788	0.060727	0.361608	99
Es	0.403161	-0.938305	0.469590	99
Es	0.313964	1.217726	0.489989	99
Es	0.589227	0.233107	-1.783136	99
Es	1.370271	0.182402	0.912677	99
Es	1.011387	-2.026622	-0.257631	99
Es	-0.022383	-1.191131	1.034280	99
Es	1.987359	0.214094	0.497319	99
45
Properties=species:S:1:pos:R:3:Z:I:1 energy=-344.97132116807626 field_type=dipole dipole="0.000000 0.000000 0.000000" charge=0
C	-1.848036	0.071222	-0.347159	6
C	-0.330056	0.130712	-0.409419	6
O	0.072984	0.139022	-1.801829	8
C	0.313944	1.217782	0.489991	6
C	1.370324	0.182382	0.912701	6
C	0.403044	-0.938188	0.469721	6
O	1.011544	-2.026778	-0.257549	8
H	-2.210676	0.056012	0.686141	1
H	-2.221646	-0.829518	-0.844829	1
H	-2.290986	0.940282	-0.843879	1
H	1.034044	0.310202	-1.792399	1
H	-0.319716	1.559922	1.315821	1
H	0.710304	2.092672	-0.032399	1
H	2.294384	0.227272	0.323541	1
H	1.630054	0.188182	1.973680	1
H	-0.207776	-1.326168	1.294281	1
H	0.588264	-1.995018	-1.136409	1
Es	0.885088	0.763883	0.741507	99
Es	-2.143837	0.663296	-0.681661	99
Es	0.945605	-0.430869	0.733643	99
Es	1.987350	0.214031	0.497330	99
Es	-0.123260	1.436717	1.049304	99
Es	-0.062334	0.378241	-1.925142	99
Es	0.403162	-0.938304	0.469590	99
Es	0.775288	-2.003572	-0.717583	99
Es	-0.329974	0.130718	-0.409603	99
Es	1.011333	-2.026567	-0.257660	99
Es	0.035357	-0.151135	-1.899501	99
Es	-0.006296	-0.471871	-0.009138	99
Es	1.551477	0.187302	1.638534	99
Es	-1.098261	0.098971	-0.382336	99
Es	-0.051025	0.137893	-1.267922	99
Es	1.370271	0.182402	0.912680	99
Es	0.313964	1.217726	0.489989	99
Es	0.073208	0.139086	-1.801538	99
Es	0.768709	-1.612380	0.007222	99
Es	-0.022362	-1.191109	1.034271	99
Es	0.581871	1.812716	0.129493	99
Es	-0.050849	0.743974	0.006298	99
Es	0.931800	-2.285748	-0.121851	99
Es	-2.081793	0.060638	0.361595	99
Es	1.297929	-1.943668	-0.301421	99
Es	-2.096073	-0.543722	-0.683738	99
Es	0.589522	0.232043	-1.782804	99
Es	-1.848021	0.071218	-0.347150	99
45
Properties=species:S:1:pos:R:3:Z:I:1 energy=-344.97132116807626 field_type=dipole dipole="0.000000 0.000000 0.000000" charge=0
C	-1.848036	0.071222	-0.347159	6
C	-0.330056	0.130712	-0.409419	6
O	0.072984	0.139022	-1.801829	8
C	0.313944	1.217782	0.489991	6
C	1.370324	0.182382	0.912701	6
C	0.403044	-0.938188	0.469721	6
O	1.011544	-2.026778	-0.257549	8
H	-2.210676	0.056012	0.686141	1
H	-2.221646	-0.829518	-0.844829	1
H	-2.290986	0.940282	-0.843879	1
H	1.034044	0.310202	-1.792399	1
H	-0.319716	1.559922	1.315821	1
H	0.710304	2.092672	-0.032399	1
H	2.294384	0.227272	0.323541	1
H	1.630054	0.188182	1.973680	1
H	-0.207776	-1.326168	1.294281	1
H	0.588264	-1.995018	-1.136409	1
Es	0.313965	1.217727	0.489989	99
Es	0.403161	-0.938300	0.469592	99
Es	0.581844	1.812643	0.129528	99
Es	-0.123230	1.436796	1.049239	99
Es	0.769307	-1.611783	0.007101	99
Es	0.945621	-0.430883	0.733623	99
Es	-0.062518	0.378336	-1.925437	99
Es	-0.006326	-0.472000	-0.009010	99
Es	-0.050759	0.138232	-1.267861	99
Es	-1.098317	0.099062	-0.382391	99
Es	-0.022264	-1.191101	1.034259	99
Es	-0.050955	0.743881	0.006158	99
Es	-2.081765	0.060649	0.361586	99
Es	0.885080	0.764061	0.741652	99
Es	-2.143875	0.663317	-0.681714	99
Es	-0.329974	0.130718	-0.409603	99
Es	-1.848023	0.071218	-0.347150	99
Es	1.297733	-1.945652	-0.299667	99
Es	0.776928	-2.002451	-0.718613	99
Es	1.370271	0.182402	0.912680	99
Es	0.929775	-2.285615	-0.122415	99
Es	1.011335	-2.026448	-0.257718	99
Es	1.987340	0.214025	0.497399	99
Es	-2.096038	-0.543753	-0.683684	99
Es	0.589930	0.231235	-1.783231	99
Es	0.073211	0.139037	-1.801531	99
Es	1.551507	0.187215	1.638408	99
Es	0.034884	-0.150659	-1.898781	99
45
Properties=species:S:1:pos:R:3:Z:I:1 energy=-344.97132116807626 field_type=dipole dipole="0.000000 0.000000 0.000000" charge=0
C	-1.848036	0.071222	-0.347159	6
C	-0.330056	0.130712	-0.409419	6
O	0.072984	0.139022	-1.801829	8
C	0.313944	1.217782	0.489991	6
C	1.370324	0.182382	0.912701	6
C	0.403044	-0.938188	0.469721	6
O	1.011544	-2.026778	-0.257549	8
H	-2.210676	0.056012	0.686141	1
H	-2.221646	-0.829518	-0.844829	1
H	-2.290986	0.940282	-0.843879	1
H	1.034044	0.310202	-1.792399	1
H	-0.319716	1.559922	1.315821	1
H	0.710304	2.092672	-0.032399	1
H	2.294384	0.227272	0.323541	1
H	1.630054	0.188182	1.973680	1
H	-0.207776	-1.326168	1.294281	1
H	0.588264	-1.995018	-1.136409	1
Es	0.767734	-1.612880	0.007780	99
Es	1.370272	0.182403	0.912678	99
Es	-2.081759	0.060574	0.361542	99
Es	1.551665	0.187328	1.638376	99
Es	0.775551	-2.003939	-0.717750	99
Es	-2.096145	-0.543709	-0.683817	99
Es	0.581802	1.812622	0.129577	99
Es	-0.329975	0.130718	-0.409600	99
Es	0.313965	1.217726	0.489990	99
Es	-1.848023	0.071219	-0.347151	99
Es	1.011330	-2.026534	-0.257674	99
Es	-2.143817	0.663366	-0.681539	99
Es	0.933077	-2.285816	-0.122235	99
Es	-0.022349	-1.191049	1.034167	99
Es	0.033794	-0.150062	-1.900973	99
Es	1.297368	-1.942826	-0.301386	99
Es	-0.061582	0.379257	-1.923302	99
Es	0.073186	0.139059	-1.801566	99
Es	-0.050121	0.136839	-1.267167	99
Es	0.945673	-0.431026	0.733786	99
Es	0.589460	0.231058	-1.783886	99
Es	0.403161	-0.938303	0.469591	99
Es	-0.050898	0.743967	0.006210	99
Es	-1.098261	0.099014	-0.382340	99
Es	0.885123	0.764025	0.741593	99
Es	-0.123241	1.436796	1.049208	99
Es	-0.006321	-0.471920	-0.009123	99
Es	1.987180	0.214002	0.497420	99
45
Properties=species:S:1:pos:R:3:Z:I:1 energy=-344.97132116807626 field_type=dipole dipole="0.000000 0.000000 0.000000" charge=0
C	-1.848036	0.071222	-0.347159	6
C	-0.330056	0.130712	-0.409419	6
O	0.072984	0.139022	-1.801829	8
C	0.313944	1.217782	0.489991	6
C	1.370324	0.182382	0.912701	6
C	0.403044	-0.938188	0.469721	6
O	1.011544	-2.026778	-0.257549	8
H	-2.210676	0.056012	0.686141	1
H	-2.221646	-0.829518	-0.844829	1
H	-2.290986	0.940282	-0.843879	1
H	1.034044	0.310202	-1.792399	1
H	-0.319716	1.559922	1.315821	1
H	0.710304	2.092672	-0.032399	1
H	2.294384	0.227272	0.323541	1
H	1.630054	0.188182	1.973680	1
H	-0.207776	-1.326168	1.294281	1
H	0.588264	-1.995018	-1.136409	1
Es	1.987308	0.214001	0.497496	99
Es	-0.022249	-1.191053	1.034116	99
Es	0.885192	0.764068	0.741593	99
Es	0.589648	0.231382	-1.783372	99
Es	0.073137	0.139075	-1.801515	99
Es	1.551532	0.187294	1.638310	99
Es	1.298614	-1.944360	-0.299834	99
Es	-0.050978	0.744021	0.006145	99
Es	0.931484	-2.284531	-0.123920	99
Es	0.035293	-0.150501	-1.898749	99
Es	0.945766	-0.431023	0.733811	99
Es	-0.051296	0.138619	-1.267388	99
Es	0.403161	-0.938300	0.469591	99
Es	-1.848023	0.071219	-0.347151	99
Es	0.767303	-1.613403	0.008542	99
Es	-1.098187	0.099125	-0.382502	99
Es	0.313965	1.217724	0.489989	99
Es	-2.096144	-0.543757	-0.683676	99
Es	-0.123169	1.436740	1.049170	99
Es	-2.081664	0.060643	0.361551	99
Es	1.370268	0.182403	0.912679	99
Es	-0.006441	-0.472011	-0.009061	99
Es	0.776272	-2.003165	-0.718414	99
Es	1.011328	-2.026532	-0.257671	99
Es	0.581714	1.812653	0.129678	99
Es	-0.329973	0.130718	-0.409603	99
Es	-2.143949	0.663274	-0.681579	99
Es	-0.062063	0.377587	-1.925831	99
45
Properties=species:S:1:pos:R:3:Z:I:1 energy=-344.97132116807626 field_type=dipole dipole="0.000000 0.000000 0.000000" charge=0
C	-1.848036	0.071222	-0.347159	6
C	-0.330056	0.130712	-0.409419	6
O	0.072984	0.139022	-1.801829	8
C	0.313944	1.217782	0.489991	6
C	1.370324	0.182382	0.912701	6
C	0.403044	-0.938188	0.469721	6
O	1.011544	-2.026778	-0.257549	8
H	-2.210676	0.056012	0.686141	1
H	-2.221646	-0.829518	-0.844829	1
H	-2.290986	0.940282	-0.843879	1
H	1.034044	0.310202	-1.792399	1
H	-0.319716	1.559922	1.315821	1
H	0.710304	2.092672	-0.032399	1
H	2.294384	0.227272	0.323541	1
H	1.630054	0.188182	1.973680	1
H	-0.207776	-1.326168	1.294281	1
H	0.588264	-1.995018	-1.136409	1
Es	-2.081832	0.060599	0.361522	99
Es	0.945751	-0.430993	0.733859	99
Es	0.073173	0.139036	-1.801593	99
Es	0.034520	-0.150697	-1.898633	99
Es	1.551538	0.187273	1.638271	99
Es	-0.061736	0.377274	-1.925385	99
Es	0.589930	0.231205	-1.783878	99
Es	0.403161	-0.938300	0.469591	99
Es	1.011339	-2.026607	-0.257628	99
Es	1.370264	0.182408	0.912679	99
Es	1.298439	-1.946721	-0.299008	99
Es	-0.329972	0.130718	-0.409603	99
Es	-0.006399	-0.472004	-0.009054	99
Es	0.929180	-2.284029	-0.123214	99
Es	0.768983	-1.611679	0.007403	99
Es	-0.022275	-1.191023	1.034044	99
Es	0.313965	1.217725	0.489989	99
Es	1.987291	0.213944	0.497566	99
Es	-1.098199	0.099020	-0.382304	99
Es	-0.050999	0.744031	0.006144	99
Es	0.581640	1.812616	0.129684	99
Es	0.777107	-2.002990	-0.718829	99
Es	-2.096136	-0.543695	-0.683820	99
Es	-1.848022	0.071219	-0.347150	99
Es	0.885280	0.764139	0.741617	99
Es	-2.143792	0.663326	-0.681569	99
Es	-0.051168	0.139352	-1.267395	99
Es	-0.123181	1.436766	1.049102	99
45
Properties=species:S:1:pos:R:3:Z:I:1 energy=-344.97132116807626 field_type=dipole dipole="0.000000 0.000000 0.000000" charge=0
C	-1.848036	0.071222	-0.347159	6
C	-0.330056	0.130712	-0.409419	6
O	0.072984	0.139022	-1.801829	8
C	0.313944	1.217782	0.489991	6
C	1.370324	0.182382	0.912701	6
C	0.403044	-0.938188	0.469721	6
O	1.011544	-2.026778	-0.257549	8
H	-2.210676	0.056012	0.686141	1
H	-2.221646	-0.829518	-0.844829	1
H	-2.290986	0.940282	-0.843879	1
H	1.034044	0.310202	-1.792399	1
H	-0.319716	1.559922	1.315821	1
H	0.710304	2.092672	-0.032399	1
H	2.294384	0.227272	0.323541	1
H	1.630054	0.188182	1.973680	1
H	-0.207776	-1.326168	1.294281	1
H	0.588264	-1.995018	-1.136409	1
Es	1.296948	-1.942790	-0.301530	99
Es	-0.006420	-0.471969	-0.009014	99
Es	1.011346	-2.026570	-0.257663	99
Es	-2.143949	0.663083	-0.681600	99
Es	-0.062654	0.376333	-1.926138	99
Es	0.073191	0.138994	-1.801556	99
Es	0.581659	1.812619	0.129804	99
Es	-2.081723	0.060729	0.361649	99
Es	0.313966	1.217724	0.489989	99
Es	1.987272	0.213917	0.497648	99
Es	0.945821	-0.431081	0.733858	99
Es	-0.123146	1.436755	1.049058	99
Es	-2.096119	-0.543747	-0.683665	99
Es	-0.329975	0.130717	-0.409601	99
Es	-0.051225	0.139207	-1.267176	99
Es	0.933842	-2.285229	-0.122274	99
Es	-1.848022	0.071217	-0.347148	99
Es	0.590013	0.231836	-1.784351	99
Es	0.885232	0.764113	0.741537	99
Es	0.035423	-0.150204	-1.897662	99
Es	1.370270	0.182403	0.912679	99
Es	1.551523	0.187330	1.638263	99
Es	-1.098147	0.099174	-0.382594	99
Es	-0.022232	-1.191026	1.034086	99
Es	0.403160	-0.938295	0.469592	99
Es	0.775272	-2.004624	-0.717933	99
Es	-0.051107	0.744105	0.006050	99
Es	0.767631	-1.612809	0.008100	99
45
Properties=species:S:1:pos:R:3:Z:I:1 energy=-344.97132116807626 field_type=dipole dipole="0.000000 0.000000 0.000000" charge=0
C	-1.848036	0.071222	-0.347159	6
C	-0.330056	0.130712	-0.409419	6
O	0.072984	0.139022	-1.801829	8
C	0.313944	1.217782	0.489991	6
C	1.370324	0.182382	0.912701	6
C	0.403044	-0.938188	0.469721	6
O	1.011544	-2.026778	-0.257549	8
H	-2.210676	0.056012	0.686141	1
H	-2.221646	-0.829518	-0.844829	1
H	-2.290986	0.940282	-0.843879	1
H	1.034044	0.310202	-1.792399	1
H	-0.319716	1.559922	1.315821	1
H	0.710304	2.092672	-0.032399	1
H	2.294384	0.227272	0.323541	1
H	1.630054	0.188182	1.973680	1
H	-0.207776	-1.326168	1.294281	1
H	0.588264	-1.995018	-1.136409	1
Es	-0.006429	-0.471930	-0.009110	99
Es	1.987248	0.213917	0.497646	99
Es	-2.096120	-0.543684	-0.683778	99
Es	-1.098134	0.099013	-0.382353	99
Es	0.581568	1.812579	0.129800	99
Es	0.313965	1.217724	0.489989	99
Es	0.768461	-1.612026	0.007886	99
Es	-1.848024	0.071219	-0.347151	99
Es	0.931135	-2.284528	-0.122948	99
Es	0.885286	0.764287	0.741678	99
Es	0.589697	0.232118	-1.782861	99
Es	0.403161	-0.938297	0.469592	99
Es	0.073216	0.139070	-1.801599	99
Es	-0.062988	0.375523	-1.928891	99
Es	-0.052533	0.140724	-1.267743	99
Es	-2.081820	0.060597	0.361528	99
Es	-0.329976	0.130718	-0.409598	99
Es	1.551588	0.187253	1.638157	99
Es	-0.051083	0.744040	0.006096	99
Es	1.370269	0.182403	0.912679	99
Es	-0.123129	1.436779	1.049025	99
Es	0.037325	-0.151253	-1.895812	99
Es	0.776414	-2.003658	-0.718492	99
Es	1.297695	-1.945248	-0.300079	99
Es	-2.143850	0.663285	-0.681569	99
Es	1.011362	-2.026593	-0.257635	99
Es	0.945798	-0.431124	0.733990	99
Es	-0.022252	-1.190997	1.033962	99
45
Properties=species:S:1:pos:R:3:Z:I:1 energy=-344.97132116807626 field_type=dipole dipole="0.000000 0.000000 0.000000" charge=0
C	-1.848036	0.071222	-0.347159	6
C	-0.330056	0.130712	-0.409419	6
O	0.072984	0.139022	-1.801829	8
C	0.313944	1.217782	0.489991	6
C	1.370324	0.182382	0.912701	6
C	0.403044	-0.938188	0.469721	6
O	1.011544	-2.026778	-0.257549	8
H	-2.210676	0.056012	0.686141	1
H	-2.221646	-0.829518	-0.844829	1
H	-2.290986	0.940282	-0.843879	1
H	1.034044	0.310202	-1.792399	1
H	-0.319716	1.559922	1.315821	1
H	0.710304	2.092672	-0.032399	1
H	2.294384	0.227272	0.323541	1
H	1.630054	0.188182	1.973680	1
H	-0.207776	-1.326168	1.294281	1
H	0.588264	-1.995018	-1.136409	1
Es	0.313966	1.217722	0.489989	99
Es	-0.123090	1.436712	1.048952	99
Es	0.403159	-0.938292	0.469595	99
Es	-1.848029	0.071217	-0.347150	99
Es	-0.022239	-1.190982	1.033938	99
Es	-0.059767	0.379023	-1.922154	99
Es	-0.051109	0.744065	0.006040	99
Es	1.551581	0.187207	1.638121	99
Es	0.777008	-2.003037	-0.718844	99
Es	0.590218	0.230121	-1.783888	99
Es	0.768981	-1.611652	0.008188	99
Es	-2.143904	0.663284	-0.681545	99
Es	0.945737	-0.431137	0.733917	99
Es	0.032355	-0.148895	-1.902247	99
Es	1.987251	0.213950	0.497692	99
Es	-0.329976	0.130718	-0.409595	99
Es	1.011136	-2.026634	-0.257628	99
Es	-1.098190	0.099085	-0.382501	99
Es	-2.096142	-0.543697	-0.683737	99
Es	0.073193	0.139065	-1.801565	99
Es	0.581518	1.812633	0.129891	99
Es	0.930159	-2.284171	-0.123573	99
Es	-0.051228	0.136862	-1.267027	99
Es	1.297788	-1.946576	-0.299398	99
Es	-0.006491	-0.471973	-0.009074	99
Es	1.370261	0.182404	0.912677	99
Es	-2.081714	0.060601	0.361568	99
Es	0.885415	0.764286	0.741768	99
45
Properties=species:S:1:pos:R:3:Z:I:1 energy=-344.97132116807626 field_type=dipole dipole="0.000000 0.000000 0.000000" charge=0
C	-1.848036	0.071222	-0.347159	6
C	-0.330056	0.130712	-0.409419	6
O	0.072984	0.139022	-1.801829	8
C	0.313944	1.217782	0.489991	6
C	1.370324	0.182382	0.912701	6
C	0.403044	-0.938188	0.469721	6
O	1.011544	-2.026778	-0.257549	8
H	-2.210676	0.056012	0.686141	1
H	-2.221646	-0.829518	-0.844829	1
H	-2.290986	0.940282	-0.843879	1