47
Properties=species:S:1:pos:R:3:Z:I:1 energy=-309.1216361807927 field_type=dipole dipole="0.000000 0.000000 0.000000" charge=0
C	-2.661425	-0.293910	-0.268149	6
C	-1.145995	-0.419980	-0.315019	6
C	-0.474765	0.954330	-0.332300	6
C	1.048945	0.873890	-0.440000	6
C	1.679785	0.251980	0.767511	6
C	2.283255	-1.127950	0.719110	6
O	3.094315	0.052010	0.640070	8
H	-3.124415	-1.285210	-0.248329	1
H	-3.038085	0.239610	-1.146519	1
H	-2.981935	0.248670	0.627071	1
H	-0.859245	-0.987510	-1.208159	1
H	-0.813095	-0.994570	0.556851	1
H	-0.752485	1.509320	0.571600	1
H	-0.851935	1.527610	-1.187649	1
H	1.442895	1.892280	-0.546180	1
H	1.328865	0.331180	-1.351589	1
H	1.321805	0.649690	1.707120	1
H	2.177006	-1.719560	-0.180829	1
H	2.326505	-1.701880	1.635390	1
Es	2.322415	-1.521429	1.343063	99
Es	1.680099	0.251906	0.767477	99
Es	-1.908515	-0.353042	-0.292017	99
Es	-2.977596	-0.971619	-0.254495	99
Es	0.292180	0.904490	-0.376554	99
Es	-0.946251	-0.806609	-0.930611	99
Es	1.755527	-0.543128	0.760834	99
Es	1.357867	0.548532	0.164799	99
Es	-0.805261	0.265492	-0.321449	99
Es	2.876089	-0.462312	0.661840	99
Es	-1.146020	-0.419948	-0.315017	99
Es	3.166788	0.099361	0.343302	99
Es	-0.662555	1.331996	0.293177	99
Es	3.093984	0.051861	0.640062	99
Es	2.217238	-1.530953	0.104237	99
Es	2.283414	-1.127688	0.719098	99
Es	1.238389	0.494878	-1.057144	99
Es	1.318688	1.566470	-0.503290	99
Es	-0.474731	0.954304	-0.332298	99
Es	1.438059	0.524238	1.412746	99
Es	-0.734163	1.345026	-0.919978	99
Es	3.235911	0.097054	0.910813	99
Es	1.048920	0.873878	-0.439964	99
Es	2.579238	0.232575	0.696903	99
Es	-0.915455	-0.810865	0.285103	99
Es	-2.915377	0.072689	-0.869495	99
Es	-2.876553	0.078881	0.344689	99
Es	-2.661409	-0.293911	-0.268150	99
47
Properties=species:S:1:pos:R:3:Z:I:1 energy=-309.1216361807927 field_type=dipole dipole="0.000000 0.000000 0.000000" charge=0
C	-2.661425	-0.293910	-0.268149	6
C	-1.145995	-0.419980	-0.315019	6
C	-0.474765	0.954330	-0.332300	6
C	1.048945	0.873890	-0.440000	6
C	1.679785	0.251980	0.767511	6
C	2.283255	-1.127950	0.719110	6
O	3.094315	0.052010	0.640070	8
H	-3.124415	-1.285210	-0.248329	1
H	-3.038085	0.239610	-1.146519	1
H	-2.981935	0.248670	0.627071	1
H	-0.859245	-0.987510	-1.208159	1
H	-0.813095	-0.994570	0.556851	1
H	-0.752485	1.509320	0.571600	1
H	-0.851935	1.527610	-1.187649	1
H	1.442895	1.892280	-0.546180	1
H	1.328865	0.331180	-1.351589	1
H	1.321805	0.649690	1.707120	1
H	2.177006	-1.719560	-0.180829	1
H	2.326505	-1.701880	1.635390	1
Es	1.238391	0.494931	-1.057146	99
Es	3.236363	0.097917	0.910242	99
Es	2.283414	-1.127681	0.719097	99
Es	-2.661406	-0.293913	-0.268149	99
Es	-0.662500	1.332053	0.293159	99
Es	-0.946181	-0.806686	-0.930425	99
Es	3.094023	0.051879	0.640074	99
Es	-2.977606	-0.971486	-0.254370	99
Es	-0.915513	-0.810785	0.285221	99
Es	-1.908556	-0.353193	-0.292261	99
Es	-2.876517	0.079028	0.344722	99
Es	-0.474731	0.954304	-0.332297	99
Es	2.322485	-1.521404	1.342869	99
Es	-0.805283	0.265438	-0.321565	99
Es	1.755246	-0.543241	0.761047	99
Es	1.318744	1.566435	-0.503245	99
Es	0.292054	0.904509	-0.376538	99
Es	3.166114	0.098569	0.344067	99
Es	2.217222	-1.530955	0.104288	99
Es	1.357852	0.548512	0.164743	99
Es	-1.146020	-0.419948	-0.315016	99
Es	1.438108	0.524216	1.412611	99
Es	1.048919	0.873877	-0.439964	99
Es	1.680093	0.251906	0.767475	99
Es	2.876717	-0.462748	0.662262	99
Es	-0.734120	1.345028	-0.919957	99
Es	-2.915408	0.072550	-0.869584	99
Es	2.579009	0.233013	0.696325	99
47
Properties=species:S:1:pos:R:3:Z:I:1 energy=-309.1216361807927 field_type=dipole dipole="0.000000 0.000000 0.000000" charge=0
C	-2.661425	-0.293910	-0.268149	6
C	-1.145995	-0.419980	-0.315019	6
C	-0.474765	0.954330	-0.332300	6
C	1.048945	0.873890	-0.440000	6
C	1.679785	0.251980	0.767511	6
C	2.283255	-1.127950	0.719110	6
O	3.094315	0.052010	0.640070	8
H	-3.124415	-1.285210	-0.248329	1
H	-3.038085	0.239610	-1.146519	1
H	-2.981935	0.248670	0.627071	1
H	-0.859245	-0.987510	-1.208159	1
H	-0.813095	-0.994570	0.556851	1
H	-0.752485	1.509320	0.571600	1
H	-0.851935	1.527610	-1.187649	1
H	1.442895	1.892280	-0.546180	1
H	1.328865	0.331180	-1.351589	1
H	1.321805	0.649690	1.707120	1
H	2.177006	-1.719560	-0.180829	1
H	2.326505	-1.701880	1.635390	1
Es	1.754965	-0.543278	0.761090	99
Es	-2.661406	-0.293913	-0.268149	99
Es	2.877174	-0.463177	0.660188	99
Es	1.048920	0.873878	-0.439964	99
Es	-2.876513	0.078794	0.344654	99
Es	3.094228	0.051954	0.640045	99
Es	3.166349	0.099643	0.345781	99
Es	2.578738	0.232825	0.695778	99
Es	-0.474733	0.954307	-0.332296	99
Es	-0.946206	-0.806631	-0.930467	99
Es	1.438145	0.524237	1.412574	99
Es	-0.915487	-0.810831	0.285045	99
Es	-0.734082	1.344954	-0.919800	99
Es	1.238409	0.494878	-1.057071	99
Es	2.322580	-1.521435	1.342786	99
Es	2.283412	-1.127683	0.719098	99
Es	1.318780	1.566385	-0.503330	99
Es	-2.915471	0.072743	-0.869447	99
Es	2.217274	-1.530914	0.104381	99
Es	-2.977609	-0.971613	-0.254477	99
Es	-1.146019	-0.419949	-0.315017	99
Es	-0.662632	1.332064	0.293063	99
Es	0.292145	0.904613	-0.376523	99
Es	1.680088	0.251904	0.767475	99
Es	-0.805314	0.265475	-0.321532	99
Es	-1.908533	-0.353095	-0.292111	99
Es	3.235835	0.097360	0.911163	99
Es	1.357881	0.548628	0.164743	99
47
Properties=species:S:1:pos:R:3:Z:I:1 energy=-309.1216361807927 field_type=dipole dipole="0.000000 0.000000 0.000000" charge=0
C	-2.661425	-0.293910	-0.268149	6
C	-1.145995	-0.419980	-0.315019	6
C	-0.474765	0.954330	-0.332300	6
C	1.048945	0.873890	-0.440000	6
C	1.679785	0.251980	0.767511	6
C	2.283255	-1.127950	0.719110	6
O	3.094315	0.052010	0.640070	8
H	-3.124415	-1.285210	-0.248329	1
H	-3.038085	0.239610	-1.146519	1
H	-2.981935	0.248670	0.627071	1
H	-0.859245	-0.987510	-1.208159	1
H	-0.813095	-0.994570	0.556851	1
H	-0.752485	1.509320	0.571600	1
H	-0.851935	1.527610	-1.187649	1
H	1.442895	1.892280	-0.546180	1
H	1.328865	0.331180	-1.351589	1
H	1.321805	0.649690	1.707120	1
H	2.177006	-1.719560	-0.180829	1
H	2.326505	-1.701880	1.635390	1
Es	2.217274	-1.530913	0.104474	99
Es	-2.876559	0.078722	0.344574	99
Es	1.238380	0.494862	-1.057070	99
Es	-0.734062	1.345014	-0.919890	99
Es	1.357928	0.548663	0.164811	99
Es	-1.146019	-0.419950	-0.315017	99
Es	2.283413	-1.127684	0.719098	99
Es	0.292234	0.904571	-0.376325	99
Es	-0.474731	0.954304	-0.332297	99
Es	3.234158	0.094895	0.910766	99
Es	1.048919	0.873878	-0.439964	99
Es	1.318795	1.566398	-0.503341	99
Es	-0.662687	1.331994	0.292932	99
Es	3.094116	0.051944	0.640090	99
Es	-2.977678	-0.971573	-0.254508	99
Es	-0.805278	0.265550	-0.321490	99
Es	-1.908424	-0.353087	-0.292080	99
Es	-2.915498	0.072772	-0.869362	99
Es	-2.661406	-0.293913	-0.268149	99
Es	1.680101	0.251907	0.767476	99
Es	-0.946233	-0.806633	-0.930415	99
Es	1.438168	0.524252	1.412472	99
Es	3.168111	0.101887	0.345756	99
Es	2.578970	0.233348	0.697643	99
Es	2.877116	-0.463509	0.658694	99
Es	2.322533	-1.521411	1.342753	99
Es	-0.915503	-0.810852	0.284990	99
Es	1.754780	-0.543314	0.761059	99
47
Properties=species:S:1:pos:R:3:Z:I:1 energy=-309.1216361807927 field_type=dipole dipole="0.000000 0.000000 0.000000" charge=0
C	-2.661425	-0.293910	-0.268149	6
C	-1.145995	-0.419980	-0.315019	6
C	-0.474765	0.954330	-0.332300	6
C	1.048945	0.873890	-0.440000	6
C	1.679785	0.251980	0.767511	6
C	2.283255	-1.127950	0.719110	6
O	3.094315	0.052010	0.640070	8
H	-3.124415	-1.285210	-0.248329	1
H	-3.038085	0.239610	-1.146519	1
H	-2.981935	0.248670	0.627071	1
H	-0.859245	-0.987510	-1.208159	1
H	-0.813095	-0.994570	0.556851	1
H	-0.752485	1.509320	0.571600	1
H	-0.851935	1.527610	-1.187649	1
H	1.442895	1.892280	-0.546180	1
H	1.328865	0.331180	-1.351589	1
H	1.321805	0.649690	1.707120	1
H	2.177006	-1.719560	-0.180829	1
H	2.326505	-1.701880	1.635390	1
Es	1.238494	0.494919	-1.057031	99
Es	3.168431	0.100306	0.346034	99
Es	1.754444	-0.543355	0.761119	99
Es	1.438204	0.524125	1.412426	99
Es	-2.661406	-0.293913	-0.268149	99
Es	1.318806	1.566355	-0.503288	99
Es	-1.908489	-0.353119	-0.292076	99
Es	-2.977702	-0.971552	-0.254539	99
Es	-0.734166	1.345021	-0.919814	99
Es	-1.146019	-0.419949	-0.315017	99
Es	2.322655	-1.521549	1.342542	99
Es	1.680091	0.251908	0.767475	99
Es	-0.915502	-0.810789	0.284929	99
Es	-0.474731	0.954304	-0.332298	99
Es	2.876927	-0.463858	0.660381	99
Es	3.094020	0.051878	0.640071	99
Es	1.357875	0.548761	0.164771	99
Es	2.217410	-1.530751	0.104577	99
Es	1.048920	0.873877	-0.439963	99
Es	2.283405	-1.127684	0.719099	99
Es	-2.876597	0.078760	0.344583	99
Es	-2.915460	0.072732	-0.869333	99
Es	-0.946176	-0.806661	-0.930375	99
Es	2.579172	0.234577	0.696628	99
Es	-0.805226	0.265489	-0.321451	99
Es	-0.662568	1.331988	0.292996	99
Es	0.292053	0.904559	-0.376500	99
Es	3.234052	0.095743	0.909885	99
47
Properties=species:S:1:pos:R:3:Z:I:1 energy=-309.1216361807927 field_type=dipole dipole="0.000000 0.000000 0.000000" charge=0
C	-2.661425	-0.293910	-0.268149	6
C	-1.145995	-0.419980	-0.315019	6
C	-0.474765	0.954330	-0.332300	6
C	1.048945	0.873890	-0.440000	6
C	1.679785	0.251980	0.767511	6
C	2.283255	-1.127950	0.719110	6
O	3.094315	0.052010	0.640070	8
H	-3.124415	-1.285210	-0.248329	1
H	-3.038085	0.239610	-1.146519	1
H	-2.981935	0.248670	0.627071	1
H	-0.859245	-0.987510	-1.208159	1
H	-0.813095	-0.994570	0.556851	1
H	-0.752485	1.509320	0.571600	1
H	-0.851935	1.527610	-1.187649	1
H	1.442895	1.892280	-0.546180	1
H	1.328865	0.331180	-1.351589	1
H	1.321805	0.649690	1.707120	1
H	2.177006	-1.719560	-0.180829	1
H	2.326505	-1.701880	1.635390	1
Es	-0.805260	0.265493	-0.321470	99
Es	-0.734176	1.345030	-0.919758	99
Es	0.292060	0.904486	-0.376547	99
Es	1.048919	0.873878	-0.439964	99
Es	-2.915491	0.072775	-0.869268	99
Es	1.357768	0.548712	0.164659	99
Es	2.877269	-0.464127	0.661086	99
Es	3.094110	0.051913	0.640103	99
Es	-0.662547	1.331988	0.292931	99
Es	2.322552	-1.521363	1.342675	99
Es	1.754476	-0.543488	0.761038	99
Es	-2.661407	-0.293913	-0.268149	99
Es	2.579155	0.234998	0.696422	99
Es	2.217421	-1.530918	0.104716	99
Es	-1.908446	-0.353080	-0.292129	99
Es	1.238547	0.494968	-1.056984	99
Es	1.680093	0.251904	0.767477	99
Es	-2.876660	0.078658	0.344528	99
Es	-0.915521	-0.810791	0.284947	99
Es	2.283408	-1.127683	0.719099	99
Es	1.318841	1.566432	-0.503219	99
Es	1.438227	0.524087	1.412335	99
Es	3.234808	0.096672	0.909049	99
Es	-0.474732	0.954305	-0.332298	99
Es	-1.146018	-0.419948	-0.315017	99
Es	-2.977696	-0.971570	-0.254592	99
Es	3.167356	0.099353	0.346267	99
Es	-0.946139	-0.806647	-0.930256	99
47
Properties=species:S:1:pos:R:3:Z:I:1 energy=-309.1216361807927 field_type=dipole dipole="0.000000 0.000000 0.000000" charge=0
C	-2.661425	-0.293910	-0.268149	6
C	-1.145995	-0.419980	-0.315019	6
C	-0.474765	0.954330	-0.332300	6
C	1.048945	0.873890	-0.440000	6
C	1.679785	0.251980	0.767511	6
C	2.283255	-1.127950	0.719110	6
O	3.094315	0.052010	0.640070	8
H	-3.124415	-1.285210	-0.248329	1
H	-3.038085	0.239610	-1.146519	1
H	-2.981935	0.248670	0.627071	1
H	-0.859245	-0.987510	-1.208159	1
H	-0.813095	-0.994570	0.556851	1
H	-0.752485	1.509320	0.571600	1
H	-0.851935	1.527610	-1.187649	1
H	1.442895	1.892280	-0.546180	1
H	1.328865	0.331180	-1.351589	1
H	1.321805	0.649690	1.707120	1
H	2.177006	-1.719560	-0.180829	1
H	2.326505	-1.701880	1.635390	1
Es	1.680089	0.251907	0.767475	99
Es	-0.474733	0.954308	-0.332295	99
Es	3.235907	0.096532	0.907315	99
Es	2.322557	-1.521331	1.342546	99
Es	-1.908422	-0.353168	-0.292090	99
Es	2.878446	-0.464389	0.661126	99
Es	2.217416	-1.530931	0.104705	99
Es	-0.915487	-0.810822	0.284849	99
Es	-2.661406	-0.293913	-0.268149	99
Es	1.318928	1.566262	-0.503334	99
Es	-0.734155	1.344975	-0.919717	99
Es	3.094012	0.051875	0.640051	99
Es	-2.977708	-0.971469	-0.254459	99
Es	-0.946197	-0.806626	-0.930290	99
Es	2.283404	-1.127687	0.719099	99
Es	1.438227	0.524128	1.412300	99
Es	1.238495	0.494884	-1.056959	99
Es	1.048920	0.873877	-0.439964	99
Es	-2.915544	0.072650	-0.869323	99
Es	0.292005	0.904711	-0.376509	99
Es	-0.805224	0.265471	-0.321440	99
Es	-1.146019	-0.419949	-0.315016	99
Es	-2.876636	0.078762	0.344505	99
Es	1.754295	-0.543464	0.761131	99
Es	3.165618	0.100378	0.345304	99
Es	1.357864	0.548782	0.164770	99
Es	-0.662583	1.332028	0.292905	99
Es	2.578850	0.234339	0.699145	99
47
Properties=species:S:1:pos:R:3:Z:I:1 energy=-309.1216361807927 field_type=dipole dipole="0.000000 0.000000 0.000000" charge=0
C	-2.661425	-0.293910	-0.268149	6
C	-1.145995	-0.419980	-0.315019	6
C	-0.474765	0.954330	-0.332300	6
C	1.048945	0.873890	-0.440000	6
C	1.679785	0.251980	0.767511	6
C	2.283255	-1.127950	0.719110	6
O	3.094315	0.052010	0.640070	8
H	-3.124415	-1.285210	-0.248329	1
H	-3.038085	0.239610	-1.146519	1
H	-2.981935	0.248670	0.627071	1
H	-0.859245	-0.987510	-1.208159	1
H	-0.813095	-0.994570	0.556851	1
H	-0.752485	1.509320	0.571600	1
H	-0.851935	1.527610	-1.187649	1
H	1.442895	1.892280	-0.546180	1
H	1.328865	0.331180	-1.351589	1
H	1.321805	0.649690	1.707120	1
H	2.177006	-1.719560	-0.180829	1
H	2.326505	-1.701880	1.635390	1
Es	2.283407	-1.127677	0.719099	99
Es	2.217512	-1.530915	0.104778	99
Es	1.357865	0.548872	0.164840	99
Es	1.754036	-0.543627	0.761163	99
Es	-1.908386	-0.353330	-0.292031	99
Es	3.094031	0.051882	0.640131	99
Es	-1.146020	-0.419951	-0.315016	99
Es	1.048919	0.873879	-0.439965	99
Es	-0.662438	1.331949	0.292907	99
Es	1.438232	0.524090	1.412230	99
Es	1.680092	0.251902	0.767475	99
Es	2.322598	-1.521335	1.342424	99
Es	2.877876	-0.464671	0.662074	99
Es	-0.474730	0.954305	-0.332298	99
Es	-0.805287	0.265507	-0.321413	99
Es	3.237401	0.097810	0.906761	99
Es	0.291975	0.904621	-0.376726	99
Es	-0.734269	1.345067	-0.919610	99
Es	1.318889	1.566248	-0.503346	99
Es	-2.977968	-0.971453	-0.254477	99
Es	2.579220	0.235750	0.697597	99
Es	-2.876566	0.078793	0.344383	99
Es	1.238609	0.494905	-1.056884	99
Es	-2.661408	-0.293914	-0.268149	99
Es	-0.915458	-0.810848	0.284810	99
Es	-2.915419	0.072737	-0.869233	99
Es	-0.946202	-0.806586	-0.930270	99
Es	3.164408	0.098115	0.346427	99
47
Properties=species:S:1:pos:R:3:Z:I:1 energy=-309.1216361807927 field_type=dipole dipole="0.000000 0.000000 0.000000" charge=0
C	-2.661425	-0.293910	-0.268149	6
C	-1.145995	-0.419980	-0.315019	6
C	-0.474765	0.954330	-0.332300	6
C	1.048945	0.873890	-0.440000	6
C	1.679785	0.251980	0.767511	6
C	2.283255	-1.127950	0.719110	6
O	3.094315	0.052010	0.640070	8
H	-3.124415	-1.285210	-0.248329	1
H	-3.038085	0.239610	-1.146519	1
H	-2.981935	0.248670	0.627071	1
H	-0.859245	-0.987510	-1.208159	1
H	-0.813095	-0.994570	0.556851	1
H	-0.752485	1.509320	0.571600	1
H	-0.851935	1.527610	-1.187649	1
H	1.442895	1.892280	-0.546180	1
H	1.328865	0.331180	-1.351589	1
H	1.321805	0.649690	1.707120	1
H	2.177006	-1.719560	-0.180829	1
H	2.326505	-1.701880	1.635390	1
Es	2.217505	-1.530848	0.104818	99
Es	1.318911	1.566221	-0.503302	99
Es	-0.915503	-0.810748	0.284723	99
Es	0.291979	0.904708	-0.376481	99
Es	3.234178	0.096601	0.908259	99
Es	3.094010	0.051880	0.640064	99
Es	-0.662607	1.331930	0.292866	99
Es	2.578698	0.235983	0.695877	99
Es	-1.908456	-0.353327	-0.292152	99
Es	-0.474730	0.954305	-0.332298	99
Es	-2.977818	-0.971376	-0.254478	99
Es	-2.876560	0.078686	0.344503	99
Es	2.283410	-1.127679	0.719099	99
Es	-0.946150	-0.806674	-0.930161	99
Es	-0.734219	1.345018	-0.919632	99
Es	1.438320	0.524211	1.412158	99
Es	-2.661409	-0.293912	-0.268152	99
Es	-1.146019	-0.419950	-0.315017	99
Es	2.322611	-1.521379	1.342368	99
Es	-2.915605	0.072734	-0.869230	99
Es	3.167724	0.099466	0.348174	99
Es	1.238567	0.494948	-1.056943	99
Es	-0.805131	0.265506	-0.321491	99
Es	1.357906	0.548773	0.164755	99
Es	1.680087	0.251903	0.767475	99
Es	1.048919	0.873878	-0.439965	99
Es	2.878416	-0.465074	0.660562	99
Es	1.753882	-0.543661	0.761280	99
47
Properties=species:S:1:pos:R:3:Z:I:1 energy=-309.1216361807927 field_type=dipole dipole="0.000000 0.000000 0.000000" charge=0
C	-2.661425	-0.293910	-0.268149	6
C	-1.145995	-0.419980	-0.315019	6
C	-0.474765	0.954330	-0.332300	6
C	1.048945	0.873890	-0.440000	6
C	1.679785	0.251980	0.767511	6
C	2.283255	-1.127950	0.719110	6
O	3.094315	0.052010	0.640070	8
H	-3.124415	-1.285210	-0.248329	1
H	-3.038085	0.239610	-1.146519	1
H	-2.981935	0.248670	0.627071	1
H	-0.859245	-0.987510	-1.208159	1
H	-0.813095	-0.994570	0.556851	1
H	-0.752485	1.509320	0.571600	1
H	-0.851935	1.527610	-1.187649	1
H	1.442895	1.892280	-0.546180	1
H	1.328865	0.331180	-1.351589	1
H	1.321805	0.649690	1.707120	1
H	2.177006	-1.719560	-0.180829	1
H	2.326505	-1.701880	1.635390	1
Es	-2.876731	0.078729	0.344496	99
Es	1.048919	0.873878	-0.439965	99
Es	-1.908447	-0.353260	-0.292023	99
Es	-2.661408	-0.293912	-0.268148	99
Es	3.165964	0.099279	0.347674	99
Es	1.753741	-0.543690	0.761204	99
Es	-0.915388	-0.810828	0.284691	99
Es	3.093934	0.051830	0.640206	99
Es	-2.915562	0.072615	-0.869253	99
Es	0.291985	0.904814	-0.376483	99
Es	1.680080	0.251908	0.767476	99
Es	2.283409	-1.127680	0.719098	99
Es	-0.662585	1.331979	0.292774	99
Es	2.217553	-1.530883	0.104907	99
Es	2.322606	-1.521325	1.342321	99
Es	-1.146020	-0.419952	-0.315018	99
Es	3.235762	0.096683	0.906618	99
Es	1.319074	1.566214	-0.503317	99
Es	-0.946225	-0.806566	-0.930167	99
Es	-0.734185	1.345001	-0.919579	99
Es	-0.805220	0.265428	-0.321470	99
Es	-2.977742	-0.971354	-0.254521	99
Es	1.438291	0.524132	1.412111	99
Es	1.357936	0.548751	0.164744	99
Es	1.238461	0.494972	-1.056876	99
Es	-0.474731	0.954304	-0.332297	99
Es	2.578984	0.236399	0.697597	99
Es	2.878458	-0.465342	0.660881	99
