44
Properties=species:S:1:pos:R:3:Z:I:1 energy=-307.9854502831576 field_type=dipole dipole="0.000000 0.000000 0.000000" charge=0
C	-2.320534	0.296278	-0.084044	6
C	-0.845804	0.045038	0.102956	6
C	-0.491564	-1.399602	0.314546	6
C	0.014846	1.081158	0.112226	6
C	1.497976	1.052498	0.241106	6
C	2.294906	-0.023492	-0.445814	6
O	2.051326	1.961408	0.859746	8
H	-2.546074	1.355738	-0.245614	1
H	-2.877714	-0.031072	0.799826	1
H	-2.689594	-0.257012	-0.953904	1
H	-1.214974	-1.873232	0.987436	1
H	0.487266	-1.532942	0.779746	1
H	-0.507844	-1.937662	-0.638194	1
H	-0.361044	2.099957	0.037536	1
H	1.713466	-0.510732	-1.232234	1
H	2.628746	-0.760962	0.287456	1
H	3.166616	0.434638	-0.922774	1
Es	-1.580883	0.174424	0.012739	99
Es	-0.845895	0.044926	0.102973	99
Es	0.173654	-1.482308	0.623354	99
Es	1.838128	1.498276	0.848032	99
Es	0.749626	1.031413	0.171377	99
Es	1.497957	1.052476	0.241077	99
Es	-2.685575	0.068331	0.513923	99
Es	-0.379138	0.621683	0.430191	99
Es	1.883990	0.496587	-0.108785	99
Es	-2.556210	-0.084908	-0.669032	99
Es	1.894532	-0.355719	-0.971617	99
Es	0.014939	1.081189	0.112226	99
Es	2.873395	0.287665	-0.758075	99
Es	-2.320494	0.296259	-0.084042	99
Es	-0.656343	-0.673182	0.205750	99
Es	-0.491580	-1.399554	0.314533	99
Es	2.368158	1.934429	0.859558	99
Es	-0.505699	-1.748716	-0.330697	99
Es	-0.341228	0.557231	-0.222192	99
Es	-0.235978	1.764429	0.053928	99
Es	-0.986855	-1.706427	0.764255	99
Es	-2.467280	1.014740	-0.193740	99
Es	2.051184	1.961159	0.859574	99
Es	2.294876	-0.023474	-0.445791	99
Es	1.862164	1.770864	0.428295	99
Es	2.505180	-0.508840	0.051568	99
Es	1.847002	2.168399	0.982657	99
44
Properties=species:S:1:pos:R:3:Z:I:1 energy=-307.9854502831576 field_type=dipole dipole="0.000000 0.000000 0.000000" charge=0
C	-2.320534	0.296278	-0.084044	6
C	-0.845804	0.045038	0.102956	6
C	-0.491564	-1.399602	0.314546	6
C	0.014846	1.081158	0.112226	6
C	1.497976	1.052498	0.241106	6
C	2.294906	-0.023492	-0.445814	6
O	2.051326	1.961408	0.859746	8
H	-2.546074	1.355738	-0.245614	1
H	-2.877714	-0.031072	0.799826	1
H	-2.689594	-0.257012	-0.953904	1
H	-1.214974	-1.873232	0.987436	1
H	0.487266	-1.532942	0.779746	1
H	-0.507844	-1.937662	-0.638194	1
H	-0.361044	2.099957	0.037536	1
H	1.713466	-0.510732	-1.232234	1
H	2.628746	-0.760962	0.287456	1
H	3.166616	0.434638	-0.922774	1
Es	-0.987136	-1.706655	0.764094	99
Es	-2.556138	-0.084917	-0.669017	99
Es	1.497950	1.052466	0.241083	99
Es	-2.685623	0.068311	0.513899	99
Es	-1.580852	0.174527	0.012794	99
Es	1.863696	1.770983	0.428166	99
Es	-0.341361	0.557144	-0.222051	99
Es	1.845786	2.166979	0.980204	99
Es	2.505157	-0.508785	0.051522	99
Es	2.051196	1.961178	0.859587	99
Es	-0.235960	1.764418	0.053848	99
Es	-0.491580	-1.399555	0.314533	99
Es	-2.320492	0.296258	-0.084041	99
Es	-0.505463	-1.748405	-0.330680	99
Es	2.873436	0.287659	-0.758071	99
Es	1.894535	-0.355767	-0.971613	99
Es	-0.379074	0.621775	0.430180	99
Es	0.173659	-1.482339	0.623463	99
Es	2.368991	1.935916	0.862237	99
Es	-0.656248	-0.673339	0.205755	99
Es	0.749605	1.031452	0.171311	99
Es	0.014940	1.081190	0.112225	99
Es	-0.845893	0.044928	0.102973	99
Es	1.883976	0.496617	-0.108786	99
Es	-2.467320	1.014734	-0.193779	99
Es	2.294876	-0.023473	-0.445790	99
Es	1.836964	1.498049	0.847989	99
44
Properties=species:S:1:pos:R:3:Z:I:1 energy=-307.9854502831576 field_type=dipole dipole="0.000000 0.000000 0.000000" charge=0
C	-2.320534	0.296278	-0.084044	6
C	-0.845804	0.045038	0.102956	6
C	-0.491564	-1.399602	0.314546	6
C	0.014846	1.081158	0.112226	6
C	1.497976	1.052498	0.241106	6
C	2.294906	-0.023492	-0.445814	6
O	2.051326	1.961408	0.859746	8
H	-2.546074	1.355738	-0.245614	1
H	-2.877714	-0.031072	0.799826	1
H	-2.689594	-0.257012	-0.953904	1
H	-1.214974	-1.873232	0.987436	1
H	0.487266	-1.532942	0.779746	1
H	-0.507844	-1.937662	-0.638194	1
H	-0.361044	2.099957	0.037536	1
H	1.713466	-0.510732	-1.232234	1
H	2.628746	-0.760962	0.287456	1
H	3.166616	0.434638	-0.922774	1
Es	2.873448	0.287609	-0.758142	99
Es	1.894498	-0.355743	-0.971546	99
Es	-0.656132	-0.673436	0.205682	99
Es	-2.467369	1.014774	-0.193593	99
Es	2.294876	-0.023474	-0.445789	99
Es	-2.685488	0.068263	0.513815	99
Es	2.051229	1.961245	0.859629	99
Es	-0.845892	0.044929	0.102972	99
Es	-1.580840	0.174512	0.012724	99
Es	-0.987097	-1.706587	0.764219	99
Es	1.838813	1.497654	0.849747	99
Es	-0.505528	-1.748501	-0.330648	99
Es	-0.341365	0.557200	-0.221857	99
Es	1.845493	2.167732	0.979951	99
Es	0.173684	-1.482269	0.623391	99
Es	2.367308	1.937106	0.861223	99
Es	-0.491580	-1.399554	0.314533	99
Es	0.014937	1.081186	0.112221	99
Es	1.884028	0.496603	-0.108827	99
Es	0.749589	1.031545	0.171316	99
Es	-2.320497	0.296257	-0.084047	99
Es	1.863798	1.769368	0.427611	99
Es	-0.235991	1.764409	0.053777	99
Es	-0.379126	0.621724	0.430094	99
Es	-2.556270	-0.084865	-0.669057	99
Es	1.497955	1.052461	0.241091	99
Es	2.505144	-0.508798	0.051549	99
44
Properties=species:S:1:pos:R:3:Z:I:1 energy=-307.9854502831576 field_type=dipole dipole="0.000000 0.000000 0.000000" charge=0
C	-2.320534	0.296278	-0.084044	6
C	-0.845804	0.045038	0.102956	6
C	-0.491564	-1.399602	0.314546	6
C	0.014846	1.081158	0.112226	6
C	1.497976	1.052498	0.241106	6
C	2.294906	-0.023492	-0.445814	6
O	2.051326	1.961408	0.859746	8
H	-2.546074	1.355738	-0.245614	1
H	-2.877714	-0.031072	0.799826	1
H	-2.689594	-0.257012	-0.953904	1
H	-1.214974	-1.873232	0.987436	1
H	0.487266	-1.532942	0.779746	1
H	-0.507844	-1.937662	-0.638194	1
H	-0.361044	2.099957	0.037536	1
H	1.713466	-0.510732	-1.232234	1
H	2.628746	-0.760962	0.287456	1
H	3.166616	0.434638	-0.922774	1
Es	-0.656068	-0.673420	0.205865	99
Es	2.367634	1.932274	0.859692	99
Es	2.873387	0.287750	-0.758093	99
Es	-1.580928	0.174622	0.012797	99
Es	-0.987055	-1.706630	0.764133	99
Es	-0.505501	-1.748477	-0.330698	99
Es	2.294876	-0.023474	-0.445789	99
Es	1.862865	1.771210	0.428343	99
Es	1.894504	-0.355727	-0.971619	99
Es	0.749596	1.031415	0.171483	99
Es	-0.236050	1.764489	0.054072	99
Es	1.884091	0.496430	-0.108803	99
Es	2.505201	-0.508826	0.051602	99
Es	1.849246	2.170146	0.981588	99
Es	-0.491579	-1.399556	0.314533	99
Es	1.497955	1.052467	0.241085	99
Es	0.014937	1.081187	0.112226	99
Es	-0.340999	0.557687	-0.221923	99
Es	1.835657	1.498413	0.848879	99
Es	0.173623	-1.482330	0.623425	99
Es	-2.556166	-0.084879	-0.669052	99
Es	-2.685613	0.068299	0.513874	99
Es	-2.467318	1.014735	-0.193718	99
Es	-0.845892	0.044928	0.102973	99
Es	-2.320490	0.296260	-0.084042	99
Es	2.051154	1.961169	0.859583	99
Es	-0.379442	0.621189	0.429620	99
44
Properties=species:S:1:pos:R:3:Z:I:1 energy=-307.9854502831576 field_type=dipole dipole="0.000000 0.000000 0.000000" charge=0
C	-2.320534	0.296278	-0.084044	6
C	-0.845804	0.045038	0.102956	6
C	-0.491564	-1.399602	0.314546	6
C	0.014846	1.081158	0.112226	6
C	1.497976	1.052498	0.241106	6
C	2.294906	-0.023492	-0.445814	6
O	2.051326	1.961408	0.859746	8
H	-2.546074	1.355738	-0.245614	1
H	-2.877714	-0.031072	0.799826	1
H	-2.689594	-0.257012	-0.953904	1
H	-1.214974	-1.873232	0.987436	1
H	0.487266	-1.532942	0.779746	1
H	-0.507844	-1.937662	-0.638194	1
H	-0.361044	2.099957	0.037536	1
H	1.713466	-0.510732	-1.232234	1
H	2.628746	-0.760962	0.287456	1
H	3.166616	0.434638	-0.922774	1
Es	-0.235954	1.764424	0.053786	99
Es	0.749579	1.031467	0.171340	99
Es	-2.467339	1.014768	-0.193825	99
Es	2.294876	-0.023473	-0.445790	99
Es	-0.341476	0.557209	-0.221575	99
Es	-0.987132	-1.706607	0.764237	99
Es	0.014937	1.081187	0.112224	99
Es	-0.379127	0.621707	0.429914	99
Es	1.847483	2.168656	0.981791	99
Es	2.051182	1.961174	0.859588	99
Es	1.884102	0.496453	-0.108859	99
Es	-0.491579	-1.399554	0.314533	99
Es	1.894477	-0.355805	-0.971531	99
Es	-2.320496	0.296259	-0.084044	99
Es	-0.655908	-0.673440	0.205689	99
Es	-0.505511	-1.748473	-0.330636	99
Es	-0.845893	0.044931	0.102978	99
Es	1.497956	1.052468	0.241087	99
Es	-1.580916	0.174509	0.012535	99
Es	-2.556276	-0.084856	-0.668843	99
Es	1.837077	1.497840	0.848043	99
Es	0.173645	-1.482325	0.623358	99
Es	2.367311	1.934123	0.860851	99
Es	2.505186	-0.508741	0.051630	99
Es	-2.685542	0.068330	0.513968	99
Es	2.873425	0.287706	-0.758173	99
Es	1.863537	1.771415	0.427762	99
44
Properties=species:S:1:pos:R:3:Z:I:1 energy=-307.9854502831576 field_type=dipole dipole="0.000000 0.000000 0.000000" charge=0
C	-2.320534	0.296278	-0.084044	6
C	-0.845804	0.045038	0.102956	6
C	-0.491564	-1.399602	0.314546	6
C	0.014846	1.081158	0.112226	6
C	1.497976	1.052498	0.241106	6
C	2.294906	-0.023492	-0.445814	6
O	2.051326	1.961408	0.859746	8
H	-2.546074	1.355738	-0.245614	1
H	-2.877714	-0.031072	0.799826	1
H	-2.689594	-0.257012	-0.953904	1
H	-1.214974	-1.873232	0.987436	1
H	0.487266	-1.532942	0.779746	1
H	-0.507844	-1.937662	-0.638194	1
H	-0.361044	2.099957	0.037536	1
H	1.713466	-0.510732	-1.232234	1
H	2.628746	-0.760962	0.287456	1
H	3.166616	0.434638	-0.922774	1
Es	-2.685520	0.068269	0.513805	99
Es	-1.580948	0.174652	0.012762	99
Es	-2.320492	0.296259	-0.084041	99
Es	2.367211	1.934613	0.861016	99
Es	-0.341385	0.557359	-0.221563	99
Es	-2.467377	1.014773	-0.193621	99
Es	1.894499	-0.355739	-0.971491	99
Es	-2.556256	-0.084851	-0.669038	99
Es	-0.379072	0.621417	0.429901	99
Es	0.014934	1.081184	0.112228	99
Es	2.505200	-0.508813	0.051610	99
Es	2.873428	0.287790	-0.758215	99
Es	-0.505332	-1.748352	-0.330693	99
Es	0.749549	1.031615	0.171127	99
Es	2.051152	1.961197	0.859598	99
Es	-0.987191	-1.706748	0.764036	99
Es	1.497955	1.052465	0.241088	99
Es	-0.655978	-0.673450	0.205802	99
Es	2.294876	-0.023474	-0.445790	99
Es	0.173579	-1.482332	0.623511	99
Es	1.884097	0.496348	-0.108848	99
Es	-0.236030	1.764414	0.053893	99
Es	1.863831	1.771328	0.427935	99
Es	-0.845893	0.044928	0.102973	99
Es	1.847214	2.168508	0.981439	99
Es	1.837153	1.497549	0.848081	99
Es	-0.491579	-1.399555	0.314533	99
44
Properties=species:S:1:pos:R:3:Z:I:1 energy=-307.9854502831576 field_type=dipole dipole="0.000000 0.000000 0.000000" charge=0
C	-2.320534	0.296278	-0.084044	6
C	-0.845804	0.045038	0.102956	6
C	-0.491564	-1.399602	0.314546	6
C	0.014846	1.081158	0.112226	6
C	1.497976	1.052498	0.241106	6
C	2.294906	-0.023492	-0.445814	6
O	2.051326	1.961408	0.859746	8
H	-2.546074	1.355738	-0.245614	1
H	-2.877714	-0.031072	0.799826	1
H	-2.689594	-0.257012	-0.953904	1
H	-1.214974	-1.873232	0.987436	1
H	0.487266	-1.532942	0.779746	1
H	-0.507844	-1.937662	-0.638194	1
H	-0.361044	2.099957	0.037536	1
H	1.713466	-0.510732	-1.232234	1
H	2.628746	-0.760962	0.287456	1
H	3.166616	0.434638	-0.922774	1
Es	2.505032	-0.508734	0.051607	99
Es	-0.505406	-1.748408	-0.330666	99
Es	-0.655873	-0.673437	0.205802	99
Es	-1.581004	0.174787	0.012782	99
Es	-0.491579	-1.399558	0.314535	99
Es	0.749545	1.031405	0.171404	99
Es	2.294877	-0.023473	-0.445790	99
Es	1.497957	1.052469	0.241088	99
Es	0.014934	1.081183	0.112227	99
Es	-0.845893	0.044928	0.102976	99
Es	1.884143	0.496454	-0.108963	99
Es	2.051159	1.961152	0.859570	99
Es	-2.685644	0.068256	0.513802	99
Es	-0.341387	0.557366	-0.221397	99
Es	-0.987120	-1.706731	0.764151	99
Es	0.173564	-1.482338	0.623381	99
Es	-2.467373	1.014688	-0.193635	99
Es	-2.320494	0.296260	-0.084042	99
Es	1.847676	2.168619	0.981999	99
Es	-0.235899	1.764503	0.053840	99
Es	1.837048	1.497547	0.847861	99
Es	1.894528	-0.355773	-0.971626	99
Es	-0.379217	0.621489	0.429599	99
Es	2.367154	1.934147	0.860696	99
Es	2.873547	0.287655	-0.758041	99
Es	1.863504	1.771713	0.427991	99
Es	-2.556150	-0.084818	-0.669111	99
44
Properties=species:S:1:pos:R:3:Z:I:1 energy=-307.9854502831576 field_type=dipole dipole="0.000000 0.000000 0.000000" charge=0
C	-2.320534	0.296278	-0.084044	6
C	-0.845804	0.045038	0.102956	6
C	-0.491564	-1.399602	0.314546	6
C	0.014846	1.081158	0.112226	6
C	1.497976	1.052498	0.241106	6
C	2.294906	-0.023492	-0.445814	6
O	2.051326	1.961408	0.859746	8
H	-2.546074	1.355738	-0.245614	1
H	-2.877714	-0.031072	0.799826	1
H	-2.689594	-0.257012	-0.953904	1
H	-1.214974	-1.873232	0.987436	1
H	0.487266	-1.532942	0.779746	1
H	-0.507844	-1.937662	-0.638194	1
H	-0.361044	2.099957	0.037536	1
H	1.713466	-0.510732	-1.232234	1
H	2.628746	-0.760962	0.287456	1
H	3.166616	0.434638	-0.922774	1
Es	2.367404	1.938205	0.861749	99
Es	1.839196	1.496895	0.848379	99
Es	-2.556162	-0.084841	-0.669075	99
Es	-1.581049	0.174881	0.012616	99
Es	0.014937	1.081189	0.112238	99
Es	2.051148	1.961122	0.859582	99
Es	-0.491580	-1.399556	0.314533	99
Es	0.173598	-1.482405	0.623388	99
Es	-2.467386	1.014625	-0.193706	99
Es	1.884200	0.496458	-0.108982	99
Es	-2.685621	0.068286	0.513926	99
Es	-0.505444	-1.748356	-0.330657	99
Es	1.844980	2.166280	0.980572	99
Es	-0.341489	0.557146	-0.221190	99
Es	-0.379092	0.621629	0.429536	99
Es	-0.987177	-1.706707	0.764134	99
Es	2.505111	-0.508729	0.051667	99
Es	1.894443	-0.355787	-0.971474	99
Es	0.749511	1.031553	0.171415	99
Es	-0.845893	0.044929	0.102976	99
Es	-0.235967	1.764468	0.053735	99
Es	1.863840	1.770675	0.427806	99
Es	2.294879	-0.023475	-0.445793	99
Es	1.497955	1.052468	0.241085	99
Es	2.873488	0.287626	-0.758215	99
Es	-2.320493	0.296259	-0.084040	99
Es	-0.655713	-0.673487	0.205831	99
44
Properties=species:S:1:pos:R:3:Z:I:1 energy=-307.9854502831576 field_type=dipole dipole="0.000000 0.000000 0.000000" charge=0
C	-2.320534	0.296278	-0.084044	6
C	-0.845804	0.045038	0.102956	6
C	-0.491564	-1.399602	0.314546	6
C	0.014846	1.081158	0.112226	6
C	1.497976	1.052498	0.241106	6
C	2.294906	-0.023492	-0.445814	6
O	2.051326	1.961408	0.859746	8
H	-2.546074	1.355738	-0.245614	1
H	-2.877714	-0.031072	0.799826	1
H	-2.689594	-0.257012	-0.953904	1
H	-1.214974	-1.873232	0.987436	1
H	0.487266	-1.532942	0.779746	1
H	-0.507844	-1.937662	-0.638194	1
H	-0.361044	2.099957	0.037536	1
H	1.713466	-0.510732	-1.232234	1
H	2.628746	-0.760962	0.287456	1
H	3.166616	0.434638	-0.922774	1
Es	-0.491578	-1.399554	0.314536	99
Es	0.173498	-1.482366	0.623521	99
Es	-1.581110	0.174926	0.012758	99
Es	-0.505211	-1.748354	-0.330573	99
Es	-0.235968	1.764431	0.053645	99
Es	1.837455	1.497418	0.848293	99
Es	-0.655622	-0.673521	0.205715	99
Es	-2.685584	0.068395	0.513953	99
Es	1.847429	2.168389	0.981584	99
Es	2.294876	-0.023474	-0.445790	99
Es	2.051191	1.961206	0.859608	99
Es	2.505123	-0.508770	0.051658	99
Es	-2.320494	0.296258	-0.084044	99
Es	0.014940	1.081191	0.112227	99
Es	-0.341554	0.557230	-0.221031	99
Es	1.863325	1.771282	0.428145	99
Es	-2.556166	-0.084976	-0.669053	99
Es	-0.987318	-1.706775	0.764043	99
Es	2.367121	1.934917	0.860431	99
Es	0.749510	1.031600	0.171234	99
Es	2.873480	0.287716	-0.758170	99
Es	-0.845892	0.044932	0.102969	99
Es	-2.467374	1.014634	-0.193800	99
Es	-0.379102	0.621538	0.429583	99
Es	1.884222	0.496361	-0.108961	99
Es	1.894472	-0.355752	-0.971527	99
Es	1.497956	1.052468	0.241084	99
44
Properties=species:S:1:pos:R:3:Z:I:1 energy=-307.9854502831576 field_type=dipole dipole="0.000000 0.000000 0.000000" charge=0
C	-2.320534	0.296278	-0.084044	6
C	-0.845804	0.045038	0.102956	6
C	-0.491564	-1.399602	0.314546	6
C	0.014846	1.081158	0.112226	6
C	1.497976	1.052498	0.241106	6
C	2.294906	-0.023492	-0.445814	6
O	2.051326	1.961408	0.859746	8
H	-2.546074	1.355738	-0.245614	1
H	-2.877714	-0.031072	0.799826	1
H	-2.689594	-0.257012	-0.953904	1
H	-1.214974	-1.873232	0.987436	1
H	0.487266	-1.532942	0.779746	1
H	-0.507844	-1.937662	-0.638194	1
H	-0.361044	2.099957	0.037536	1
H	1.713466	-0.510732	-1.232234	1
H	2.628746	-0.760962	0.287456	1
H	3.166616	0.434638	-0.922774	1
Es	2.873449	0.287872	-0.758138	99
Es	2.505208	-0.508722	0.051575	99
Es	1.884117	0.496223	-0.108861	99
Es	0.014935	1.081185	0.112226	99
Es	2.367217	1.935640	0.860224	99
Es	-0.655626	-0.673496	0.205839	99
Es	0.173554	-1.482380	0.623401	99
Es	-2.467363	1.014602	-0.193770	99
Es	1.862924	1.771767	0.428222	99
Es	-0.845885	0.044931	0.102975	99
Es	1.846798	2.167530	0.982536	99
Es	-2.556147	-0.084872	-0.669059	99
Es	0.749466	1.031564	0.171258	99
Es	-0.379073	0.621599	0.429574	99
Es	-2.320493	0.296259	-0.084041	99
Es	1.894547	-0.355830	-0.971554	99
Es	-1.581140	0.174947	0.012657	99
Es	1.497955	1.052463	0.241090	99
Es	2.051187	1.961168	0.859573	99
Es	-0.491579	-1.399555	0.314533	99
Es	-2.685655	0.068338	0.513954	99
Es	-0.235915	1.764443	0.053591	99
Es	1.838398	1.497138	0.847449	99
Es	-0.987150	-1.706805	0.764084	99
Es	-0.505356	-1.748333	-0.330652	99
Es	2.294877	-0.023474	-0.445790	99
Es	-0.341624	0.557151	-0.220858	99
44
Properties=species:S:1:pos:R:3:Z:I:1 energy=-307.9854502831576 field_type=dipole dipole="0.000000 0.000000 0.000000" charge=0
C	-2.320534	0.296278	-0.084044	6
C	-0.845804	0.045038	0.102956	6
C	-0.491564	-1.399602	0.314546	6
C	0.014846	1.081158	0.112226	6
C	1.497976	1.052498	0.241106	6
C	2.294906	-0.023492	-0.445814	6
O	2.051326	1.961408	0.859746	8
H	-2.546074	1.355738	-0.245614	1
H	-2.877714	-0.031072	0.799826	1
H	-2.689594	-0.257012	-0.953904	1
H	-1.214974	-1.873232	0.987436	1
H	0.487266	-1.532942	0.779746	1
H	-0.507844	-1.937662	-0.638194	1
H	-0.361044	2.099957	0.037536	1
H	1.713466	-0.510732	-1.232234	1
H	2.628746	-0.760962	0.287456	1
H	3.166616	0.434638	-0.922774	1
Es	2.366911	1.935357	0.860177	99
Es	-0.235861	1.764435	0.053571	99
Es	-1.581158	0.174977	0.012572	99
Es	-2.320494	0.296259	-0.084040	99
Es	-0.655520	-0.673539	0.205754	99
Es	1.884246	0.496398	-0.109096	99
Es	-0.505502	-1.748436	-0.330575	99
Es	-0.341620	0.557171	-0.220793	99
Es	0.173591	-1.482393	0.623252	99
Es	2.505050	-0.508808	0.051706	99
Es	0.014934	1.081185	0.112221	99
Es	0.749460	1.031620	0.171198	99
Es	-2.685599	0.068401	0.514003	99
Es	-0.379127	0.621584	0.429563	99
Es	1.837201	1.497655	0.849842	99
Es	1.894527	-0.355704	-0.971540	99
Es	1.497956	1.052469	0.241085	99
Es	-2.467364	1.014627	-0.193853	99
Es	1.863030	1.770296	0.428189	99
Es	-0.491579	-1.399557	0.314534	99
Es	-0.987116	-1.706687	0.764270	99
Es	2.873524	0.287669	-0.758130	99
Es	-0.845891	0.044929	0.102974	99
Es	2.051307	1.961059	0.859514	99
Es	-2.556190	-0.084939	-0.668983	99
Es	2.294877	-0.023475	-0.445791	99
Es	1.848033	2.168798	0.980414	99
44
Properties=species:S:1:pos:R:3:Z:I:1 energy=-307.9854502831576 field_type=dipole dipole="0.000000 0.000000 0.000000" charge=0
C	-2.320534	0.296278	-0.084044	6
C	-0.845804	0.045038	0.102956	6
C	-0.491564	-1.399602	0.314546	6
C	0.014846	1.081158	0.112226	6
C	1.497976	1.052498	0.241106	6
C	2.294906	-0.023492	-0.445814	6
O	2.051326	1.961408	0.859746	8
H	-2.546074	1.355738	-0.245614	1
H	-2.877714	-0.031072	0.799826	1
H	-2.689594	-0.257012	-0.953904	1
H	-1.214974	-1.873232	0.987436	1
H	0.487266	-1.532942	0.779746	1
H	-0.507844	-1.937662	-0.638194	1
H	-0.361044	2.099957	0.037536	1
H	1.713466	-0.510732	-1.232234	1
H	2.628746	-0.760962	0.287456	1
H	3.166616	0.434638	-0.922774	1
Es	-2.320494	0.296259	-0.084041	99
Es	-2.556151	-0.084878	-0.669043	99
Es	-0.341579	0.557219	-0.220638	99
Es	-0.987126	-1.706782	0.764141	99
Es	-2.685644	0.068345	0.513946	99
Es	1.847092	2.168295	0.981304	99
Es	-0.235929	1.764476	0.053562	99
Es	1.884275	0.496278	-0.109008	99
Es	1.837604	1.497329	0.848237	99
Es	-0.845890	0.044930	0.102967	99
Es	-0.491577	-1.399557	0.314535	99
Es	2.366795	1.935357	0.860899	99
Es	0.014929	1.081181	0.112235	99
Es	1.894501	-0.355764	-0.971487	99
Es	2.873524	0.287759	-0.758193	99
Es	-0.505365	-1.748407	-0.330569	99
Es	2.505094	-0.508756	0.051684	99
Es	2.294878	-0.023472	-0.445792	99
Es	2.051193	1.961158	0.859570	99
Es	-1.581186	0.175064	0.012660	99
Es	-0.655558	-0.673523	0.205756	99
Es	-2.467384	1.014608	-0.193778	99
Es	-0.379080	0.621440	0.429427	99
Es	1.863773	1.771074	0.428057	99
Es	0.173540	-1.482367	0.623356	99
Es	1.497956	1.052469	0.241084	99
Es	0.749433	1.031618	0.171167	99
