45
Properties=species:S:1:pos:R:3:Z:I:1 energy=-344.97771946160276 field_type=dipole dipole="0.000000 0.000000 0.000000" charge=0
C	-2.767905	1.102540	0.822902	6
C	-1.300785	0.765480	0.630162	6
O	-1.218835	-0.443290	-0.125758	8
C	0.027235	-0.927280	-0.407298	6
C	1.225805	-0.395880	-0.123468	6
C	2.518655	-1.048210	-0.482068	6
O	3.208965	-0.205700	-1.390218	8
H	-2.884135	2.003610	1.431212	1
H	-3.294215	0.275240	1.309952	1
H	-3.254665	1.264720	-0.144248	1
H	-0.829055	0.626210	1.610002	1
H	-0.808625	1.584500	0.093122	1
H	-0.080285	-1.869570	-0.935598	1
H	1.313995	0.550590	0.399182	1
H	2.384905	-2.030880	-0.944458	1
H	3.137214	-1.172140	0.412342	1
H	2.621725	-0.079940	-2.155758	1
Es	-2.767866	1.102544	0.822904	99
Es	2.411732	-1.727334	-0.797720	99
Es	0.026916	-0.927225	-0.407267	99
Es	1.847403	-0.732587	-0.299496	99
Es	0.669565	-0.483637	-0.557782	99
Es	-1.312972	-0.389891	-0.396569	99
Es	-3.118893	0.542707	1.158919	99
Es	1.283409	0.243605	0.228990	99
Es	-1.218510	-0.443129	-0.125646	99
Es	-1.205222	0.008706	0.155574	99
Es	0.666446	-0.806680	0.034759	99
Es	2.927258	-0.527651	-1.060160	99
Es	1.225847	-0.395863	-0.123455	99
Es	-0.956687	1.325654	0.262839	99
Es	-0.970456	0.670547	1.300255	99
Es	-1.300807	0.765265	0.630029	99
Es	-0.717137	-0.585601	-0.207275	99
Es	-2.836003	1.716076	1.237100	99
Es	-1.323831	-0.661995	0.038991	99
Es	3.208644	-0.205867	-1.390281	99
Es	-0.040336	-1.567426	-0.765978	99
Es	-3.093077	1.217399	0.165569	99
Es	3.456189	-0.360929	-1.487562	99
Es	2.518710	-1.048047	-0.482203	99
Es	-2.035338	0.931382	0.724894	99
Es	3.227121	0.067472	-1.252912	99
Es	2.879607	-0.153033	-1.795106	99
Es	2.936193	-1.129069	0.127837	99
45
Properties=species:S:1:pos:R:3:Z:I:1 energy=-344.97771946160276 field_type=dipole dipole="0.000000 0.000000 0.000000" charge=0
C	-2.767905	1.102540	0.822902	6
C	-1.300785	0.765480	0.630162	6
O	-1.218835	-0.443290	-0.125758	8
C	0.027235	-0.927280	-0.407298	6
C	1.225805	-0.395880	-0.123468	6
C	2.518655	-1.048210	-0.482068	6
O	3.208965	-0.205700	-1.390218	8
H	-2.884135	2.003610	1.431212	1
H	-3.294215	0.275240	1.309952	1
H	-3.254665	1.264720	-0.144248	1
H	-0.829055	0.626210	1.610002	1
H	-0.808625	1.584500	0.093122	1
H	-0.080285	-1.869570	-0.935598	1
H	1.313995	0.550590	0.399182	1
H	2.384905	-2.030880	-0.944458	1
H	3.137214	-1.172140	0.412342	1
H	2.621725	-0.079940	-2.155758	1
Es	0.026914	-0.927224	-0.407268	99
Es	2.927354	-0.527460	-1.059865	99
Es	3.457335	-0.360871	-1.488308	99
Es	-0.040302	-1.567422	-0.766028	99
Es	3.208687	-0.205808	-1.390248	99
Es	2.879028	-0.152330	-1.794362	99
Es	1.225832	-0.395868	-0.123447	99
Es	-1.300804	0.765267	0.630027	99
Es	-1.205331	0.009108	0.155196	99
Es	2.518706	-1.048050	-0.482204	99
Es	-0.717281	-0.585552	-0.207053	99
Es	-2.035423	0.931268	0.725098	99
Es	-3.119068	0.542700	1.158859	99
Es	1.283380	0.243534	0.228922	99
Es	-2.767867	1.102544	0.822904	99
Es	-1.323944	-0.662065	0.039115	99
Es	-0.956727	1.325655	0.262823	99
Es	0.669557	-0.483631	-0.557791	99
Es	2.936131	-1.129047	0.127855	99
Es	2.411764	-1.727331	-0.797664	99
Es	-2.836027	1.716216	1.237040	99
Es	-3.092854	1.217356	0.165602	99
Es	0.666461	-0.806732	0.034815	99
Es	1.847436	-0.732551	-0.299487	99
Es	3.226455	0.066497	-1.253276	99
Es	-1.218486	-0.443092	-0.125623	99
Es	-0.970386	0.670613	1.300132	99
Es	-1.312639	-0.390330	-0.396517	99
45
Properties=species:S:1:pos:R:3:Z:I:1 energy=-344.97771946160276 field_type=dipole dipole="0.000000 0.000000 0.000000" charge=0
C	-2.767905	1.102540	0.822902	6
C	-1.300785	0.765480	0.630162	6
O	-1.218835	-0.443290	-0.125758	8
C	0.027235	-0.927280	-0.407298	6
C	1.225805	-0.395880	-0.123468	6
C	2.518655	-1.048210	-0.482068	6
O	3.208965	-0.205700	-1.390218	8
H	-2.884135	2.003610	1.431212	1
H	-3.294215	0.275240	1.309952	1
H	-3.254665	1.264720	-0.144248	1
H	-0.829055	0.626210	1.610002	1
H	-0.808625	1.584500	0.093122	1
H	-0.080285	-1.869570	-0.935598	1
H	1.313995	0.550590	0.399182	1
H	2.384905	-2.030880	-0.944458	1
H	3.137214	-1.172140	0.412342	1
H	2.621725	-0.079940	-2.155758	1
Es	-3.119044	0.542679	1.158838	99
Es	2.879030	-0.152419	-1.794696	99
Es	-2.035416	0.931365	0.724861	99
Es	-0.040278	-1.567439	-0.766060	99
Es	-1.205445	0.008827	0.155899	99
Es	3.208649	-0.205836	-1.390267	99
Es	2.927364	-0.527306	-1.059576	99
Es	3.228852	0.067335	-1.253211	99
Es	-3.092959	1.217398	0.165758	99
Es	-0.956729	1.325528	0.262865	99
Es	1.847575	-0.732509	-0.299548	99
Es	0.026915	-0.927224	-0.407269	99
Es	-2.767865	1.102544	0.822905	99
Es	-0.717301	-0.584802	-0.208361	99
Es	-1.300805	0.765275	0.630032	99
Es	1.225833	-0.395864	-0.123454	99
Es	0.666631	-0.806709	0.034708	99
Es	-1.320813	-0.661554	0.039770	99
Es	-1.218494	-0.443107	-0.125659	99
Es	-1.315661	-0.391315	-0.396522	99
Es	2.518708	-1.048046	-0.482206	99
Es	2.936104	-1.128985	0.127820	99
Es	3.454949	-0.361736	-1.488330	99
Es	-0.970338	0.670652	1.300142	99
Es	-2.835978	1.716216	1.237101	99
Es	2.411712	-1.727434	-0.797661	99
Es	0.669392	-0.483692	-0.557601	99
Es	1.283316	0.243553	0.228969	99
45
Properties=species:S:1:pos:R:3:Z:I:1 energy=-344.97771946160276 field_type=dipole dipole="0.000000 0.000000 0.000000" charge=0
C	-2.767905	1.102540	0.822902	6
C	-1.300785	0.765480	0.630162	6
O	-1.218835	-0.443290	-0.125758	8
C	0.027235	-0.927280	-0.407298	6
C	1.225805	-0.395880	-0.123468	6
C	2.518655	-1.048210	-0.482068	6
O	3.208965	-0.205700	-1.390218	8
H	-2.884135	2.003610	1.431212	1
H	-3.294215	0.275240	1.309952	1
H	-3.254665	1.264720	-0.144248	1
H	-0.829055	0.626210	1.610002	1
H	-0.808625	1.584500	0.093122	1
H	-0.080285	-1.869570	-0.935598	1
H	1.313995	0.550590	0.399182	1
H	2.384905	-2.030880	-0.944458	1
H	3.137214	-1.172140	0.412342	1
H	2.621725	-0.079940	-2.155758	1
Es	0.669559	-0.483693	-0.557638	99
Es	1.225841	-0.395872	-0.123440	99
Es	-0.970427	0.670666	1.300048	99
Es	-1.205776	0.010073	0.154155	99
Es	-1.318295	-0.660762	0.041708	99
Es	2.936130	-1.129152	0.127812	99
Es	0.666468	-0.806486	0.034390	99
Es	2.879036	-0.152147	-1.794832	99
Es	-3.119014	0.542711	1.158886	99
Es	3.208663	-0.205866	-1.390280	99
Es	-1.317949	-0.393971	-0.395961	99
Es	-1.218492	-0.443144	-0.125580	99
Es	2.411744	-1.727259	-0.797659	99
Es	-2.835962	1.716133	1.237083	99
Es	2.518709	-1.048045	-0.482205	99
Es	3.229474	0.067114	-1.253416	99
Es	-0.717136	-0.584166	-0.209119	99
Es	1.847440	-0.732719	-0.299408	99
Es	-3.093025	1.217429	0.165698	99
Es	-2.767866	1.102544	0.822904	99
Es	-0.040272	-1.567498	-0.766039	99
Es	1.283331	0.243544	0.229126	99
Es	-0.956682	1.325626	0.262864	99
Es	-1.300804	0.765271	0.630029	99
Es	0.026909	-0.927223	-0.407269	99
Es	3.454201	-0.361398	-1.488397	99
Es	2.927523	-0.527629	-1.059164	99
Es	-2.035421	0.931313	0.724950	99
45
Properties=species:S:1:pos:R:3:Z:I:1 energy=-344.97771946160276 field_type=dipole dipole="0.000000 0.000000 0.000000" charge=0
C	-2.767905	1.102540	0.822902	6
C	-1.300785	0.765480	0.630162	6
O	-1.218835	-0.443290	-0.125758	8
C	0.027235	-0.927280	-0.407298	6
C	1.225805	-0.395880	-0.123468	6
C	2.518655	-1.048210	-0.482068	6
O	3.208965	-0.205700	-1.390218	8
H	-2.884135	2.003610	1.431212	1
H	-3.294215	0.275240	1.309952	1
H	-3.254665	1.264720	-0.144248	1
H	-0.829055	0.626210	1.610002	1
H	-0.808625	1.584500	0.093122	1
H	-0.080285	-1.869570	-0.935598	1
H	1.313995	0.550590	0.399182	1
H	2.384905	-2.030880	-0.944458	1
H	3.137214	-1.172140	0.412342	1
H	2.621725	-0.079940	-2.155758	1
Es	-2.767867	1.102544	0.822905	99
Es	-0.956695	1.325515	0.262956	99
Es	3.208617	-0.205858	-1.390289	99
Es	-1.323775	-0.662599	0.038231	99
Es	1.847555	-0.732601	-0.299415	99
Es	-1.218483	-0.443123	-0.125632	99
Es	2.518709	-1.048045	-0.482206	99
Es	-1.300804	0.765269	0.630027	99
Es	-0.970344	0.670660	1.300013	99
Es	3.227950	0.067137	-1.253623	99
Es	-0.717222	-0.585191	-0.208921	99
Es	1.283303	0.243457	0.229083	99
Es	-3.092971	1.217367	0.165790	99
Es	2.936155	-1.129184	0.127763	99
Es	2.879608	-0.152858	-1.795179	99
Es	-0.040176	-1.567567	-0.766066	99
Es	-2.035456	0.931282	0.724943	99
Es	3.455430	-0.360713	-1.487658	99
Es	0.669633	-0.483662	-0.557460	99
Es	-1.205200	0.008649	0.156492	99
Es	2.411661	-1.727240	-0.797594	99
Es	2.927309	-0.527666	-1.059426	99
Es	0.666297	-0.806458	0.034407	99
Es	-3.119039	0.542784	1.158728	99
Es	1.225843	-0.395868	-0.123451	99
Es	0.026912	-0.927226	-0.407263	99
Es	-2.836061	1.716228	1.237160	99
Es	-1.312985	-0.389643	-0.395068	99
45
Properties=species:S:1:pos:R:3:Z:I:1 energy=-344.97771946160276 field_type=dipole dipole="0.000000 0.000000 0.000000" charge=0
C	-2.767905	1.102540	0.822902	6
C	-1.300785	0.765480	0.630162	6
O	-1.218835	-0.443290	-0.125758	8
C	0.027235	-0.927280	-0.407298	6
C	1.225805	-0.395880	-0.123468	6
C	2.518655	-1.048210	-0.482068	6
O	3.208965	-0.205700	-1.390218	8
H	-2.884135	2.003610	1.431212	1
H	-3.294215	0.275240	1.309952	1
H	-3.254665	1.264720	-0.144248	1
H	-0.829055	0.626210	1.610002	1
H	-0.808625	1.584500	0.093122	1
H	-0.080285	-1.869570	-0.935598	1
H	1.313995	0.550590	0.399182	1
H	2.384905	-2.030880	-0.944458	1
H	3.137214	-1.172140	0.412342	1
H	2.621725	-0.079940	-2.155758	1
Es	3.453523	-0.361703	-1.489165	99
Es	2.518707	-1.048049	-0.482204	99
Es	0.666512	-0.806450	0.034412	99
Es	0.026915	-0.927225	-0.407268	99
Es	2.411755	-1.727271	-0.797592	99
Es	3.230202	0.066828	-1.252941	99
Es	3.208805	-0.205754	-1.390242	99
Es	-1.327658	-0.661991	0.034534	99
Es	-3.092976	1.217476	0.165741	99
Es	-2.835958	1.716128	1.237087	99
Es	-1.308041	-0.388154	-0.396604	99
Es	2.936110	-1.129117	0.127810	99
Es	2.927458	-0.528163	-1.059479	99
Es	-2.035460	0.931298	0.725037	99
Es	-1.218508	-0.443111	-0.125631	99
Es	1.847495	-0.732664	-0.299573	99
Es	-0.970358	0.670642	1.299949	99
Es	-2.767867	1.102544	0.822904	99
Es	-1.206432	0.008535	0.157484	99
Es	-0.956636	1.325517	0.262972	99
Es	-0.040149	-1.567597	-0.766086	99
Es	1.283335	0.243512	0.229034	99
Es	2.878905	-0.151116	-1.794330	99
Es	-0.717083	-0.587203	-0.204681	99
Es	1.225848	-0.395868	-0.123458	99
Es	-1.300804	0.765272	0.630029	99
Es	-3.119135	0.542795	1.158810	99
Es	0.669400	-0.483718	-0.557304	99
45
Properties=species:S:1:pos:R:3:Z:I:1 energy=-344.97771946160276 field_type=dipole dipole="0.000000 0.000000 0.000000" charge=0
C	-2.767905	1.102540	0.822902	6
C	-1.300785	0.765480	0.630162	6
O	-1.218835	-0.443290	-0.125758	8
C	0.027235	-0.927280	-0.407298	6
C	1.225805	-0.395880	-0.123468	6
C	2.518655	-1.048210	-0.482068	6
O	3.208965	-0.205700	-1.390218	8
H	-2.884135	2.003610	1.431212	1
H	-3.294215	0.275240	1.309952	1
H	-3.254665	1.264720	-0.144248	1
H	-0.829055	0.626210	1.610002	1
H	-0.808625	1.584500	0.093122	1
H	-0.080285	-1.869570	-0.935598	1
H	1.313995	0.550590	0.399182	1
H	2.384905	-2.030880	-0.944458	1
H	3.137214	-1.172140	0.412342	1
H	2.621725	-0.079940	-2.155758	1
Es	3.455544	-0.360073	-1.487786	99
Es	-3.119153	0.542746	1.158823	99
Es	-0.956598	1.325470	0.263015	99
Es	-1.206272	0.008950	0.156676	99
Es	0.669944	-0.483625	-0.557309	99
Es	1.847449	-0.732684	-0.299475	99
Es	3.227715	0.066423	-1.253757	99
Es	-3.092939	1.217460	0.165781	99
Es	-0.040081	-1.567721	-0.766029	99
Es	-0.970402	0.670680	1.299925	99
Es	-2.035388	0.931459	0.725034	99
Es	2.927635	-0.528059	-1.059168	99
Es	3.208660	-0.205833	-1.390267	99
Es	-0.717269	-0.585654	-0.206518	99
Es	2.936041	-1.129174	0.127759	99
Es	2.411768	-1.727230	-0.797507	99
Es	2.518707	-1.048047	-0.482203	99
Es	-1.311000	-0.389821	-0.396219	99
Es	1.283339	0.243451	0.229108	99
Es	1.225844	-0.395862	-0.123462	99
Es	-2.767867	1.102544	0.822904	99
Es	-1.218500	-0.443137	-0.125619	99
Es	-1.300804	0.765272	0.630029	99
Es	-1.324678	-0.662309	0.036808	99
Es	2.879436	-0.152364	-1.795230	99
Es	0.665927	-0.806335	0.034192	99
Es	-2.836072	1.716091	1.237007	99
Es	0.026920	-0.927226	-0.407265	99
45
Properties=species:S:1:pos:R:3:Z:I:1 energy=-344.97771946160276 field_type=dipole dipole="0.000000 0.000000 0.000000" charge=0
C	-2.767905	1.102540	0.822902	6
C	-1.300785	0.765480	0.630162	6
O	-1.218835	-0.443290	-0.125758	8
C	0.027235	-0.927280	-0.407298	6
C	1.225805	-0.395880	-0.123468	6
C	2.518655	-1.048210	-0.482068	6
O	3.208965	-0.205700	-1.390218	8
H	-2.884135	2.003610	1.431212	1
H	-3.294215	0.275240	1.309952	1
H	-3.254665	1.264720	-0.144248	1
H	-0.829055	0.626210	1.610002	1
H	-0.808625	1.584500	0.093122	1
H	-0.080285	-1.869570	-0.935598	1
H	1.313995	0.550590	0.399182	1
H	2.384905	-2.030880	-0.944458	1
H	3.137214	-1.172140	0.412342	1
H	2.621725	-0.079940	-2.155758	1
Es	-1.206483	0.008221	0.158354	99
Es	2.927357	-0.527884	-1.058884	99
Es	-3.119128	0.542782	1.158721	99
Es	0.669521	-0.483732	-0.557099	99
Es	-0.717129	-0.587274	-0.205003	99
Es	0.666342	-0.806359	0.034301	99
Es	-3.092950	1.217425	0.165872	99
Es	-0.970321	0.670722	1.299915	99
Es	3.453514	-0.361603	-1.489156	99
Es	1.225839	-0.395866	-0.123457	99
Es	-2.035445	0.931425	0.724945	99
Es	2.411773	-1.727231	-0.797514	99
Es	-0.956652	1.325380	0.263047	99
Es	-1.328728	-0.662530	0.033347	99
Es	-1.218521	-0.443116	-0.125641	99
Es	0.026917	-0.927225	-0.407268	99
Es	3.230721	0.065962	-1.253489	99
Es	2.878691	-0.150533	-1.794429	99
Es	2.936079	-1.129147	0.127782	99
Es	-2.836096	1.716167	1.237104	99
Es	-2.767873	1.102545	0.822899	99
Es	2.518707	-1.048049	-0.482202	99
Es	1.283263	0.243487	0.229003	99
Es	3.208641	-0.205826	-1.390274	99
Es	1.847560	-0.732669	-0.299605	99
Es	-1.306843	-0.387273	-0.395958	99
Es	-0.040050	-1.567675	-0.766089	99
Es	-1.300804	0.765269	0.630027	99
45
Properties=species:S:1:pos:R:3:Z:I:1 energy=-344.97771946160276 field_type=dipole dipole="0.000000 0.000000 0.000000" charge=0
C	-2.767905	1.102540	0.822902	6
C	-1.300785	0.765480	0.630162	6
O	-1.218835	-0.443290	-0.125758	8
C	0.027235	-0.927280	-0.407298	6
C	1.225805	-0.395880	-0.123468	6
C	2.518655	-1.048210	-0.482068	6
O	3.208965	-0.205700	-1.390218	8
H	-2.884135	2.003610	1.431212	1
H	-3.294215	0.275240	1.309952	1
H	-3.254665	1.264720	-0.144248	1
H	-0.829055	0.626210	1.610002	1
H	-0.808625	1.584500	0.093122	1
H	-0.080285	-1.869570	-0.935598	1
H	1.313995	0.550590	0.399182	1
H	2.384905	-2.030880	-0.944458	1
H	3.137214	-1.172140	0.412342	1
H	2.621725	-0.079940	-2.155758	1
Es	-3.093000	1.217378	0.165762	99
Es	1.225839	-0.395868	-0.123458	99
Es	-1.218572	-0.443177	-0.125680	99
Es	0.669464	-0.483821	-0.557014	99
Es	0.666402	-0.806324	0.034277	99
Es	-1.300804	0.765274	0.630030	99
Es	2.936023	-1.129176	0.127747	99
Es	-2.836092	1.716119	1.237004	99
Es	-1.306423	-0.387675	-0.395544	99
Es	3.208613	-0.205847	-1.390249	99
Es	-0.970434	0.670689	1.299853	99
Es	-0.956531	1.325383	0.263138	99
Es	-0.717270	-0.587065	-0.205128	99
Es	2.879439	-0.153254	-1.795181	99
Es	1.847513	-0.732689	-0.299608	99
Es	-3.119111	0.542866	1.158830	99
Es	-1.329199	-0.662867	0.034196	99
Es	-0.040042	-1.567688	-0.766100	99
Es	2.927613	-0.527358	-1.058007	99
Es	0.026915	-0.927227	-0.407263	99
Es	2.518707	-1.048049	-0.482204	99
Es	1.283326	0.243553	0.228968	99
Es	-2.035447	0.931488	0.725033	99
Es	-2.767868	1.102545	0.822903	99
Es	2.411754	-1.727242	-0.797526	99
Es	3.454763	-0.360345	-1.487835	99
Es	-1.206235	0.008825	0.157243	99
Es	3.228561	0.066946	-1.254942	99
