45
Properties=species:S:1:pos:R:3:Z:I:1 energy=-344.9832401370579 field_type=dipole dipole="0.000000 0.000000 0.000000" charge=0
C	-1.628084	-0.167327	0.044650	6
C	-0.096293	-0.144287	-0.003030	6
O	0.378956	-0.985617	1.058840	8
C	0.428396	-0.747427	-1.325350	6
O	0.046336	-2.120577	-1.437220	8
C	0.414716	1.269083	0.178030	6
C	1.294076	1.699313	1.094760	6
H	-2.067804	0.399563	-0.782230	1
H	-1.997214	0.257493	0.985560	1
H	-2.009194	-1.193987	0.003520	1
H	0.038677	-0.604017	1.887160	1
H	1.523096	-0.720087	-1.357880	1
H	0.043247	-0.210067	-2.197610	1
H	0.259937	-2.506197	-0.563710	1
H	0.024126	2.000503	-0.528920	1
H	1.751506	1.031243	1.817840	1
H	1.595516	2.742393	1.125590	1
Es	-0.096213	-0.144380	-0.002854	99
Es	-1.628057	-0.167302	0.044652	99
Es	-1.866606	0.127884	0.690285	99
Es	0.185317	-0.770328	1.492106	99
Es	-0.260793	-2.125328	-1.462259	99
Es	0.240257	-1.261998	1.015424	99
Es	0.428290	-0.747619	-1.325313	99
Es	-1.918951	0.224262	-0.519175	99
Es	1.294120	1.699340	1.094822	99
Es	1.600867	1.255475	1.588439	99
Es	0.414632	1.269038	0.177952	99
Es	0.234216	-2.242506	-1.645860	99
Es	0.378660	-0.985386	1.058821	99
Es	1.101625	1.420549	0.440691	99
Es	0.685859	-0.957731	1.067537	99
Es	1.498437	2.403972	1.120083	99
Es	0.168108	-2.312889	-0.972412	99
Es	0.604080	1.542456	0.853964	99
Es	0.141319	1.755666	-0.308284	99
Es	0.168501	0.572756	0.092883	99
Es	-1.877540	-0.856871	0.015355	99
Es	0.157972	-0.370917	-1.912180	99
Es	0.046445	-2.120416	-1.436947	99
Es	0.164037	-0.429103	-0.654097	99
Es	-0.865438	-0.142094	0.014688	99
Es	1.178765	-0.712741	-1.338121	99
Es	0.195368	-0.654052	0.675874	99
Es	0.191294	-1.596222	-1.373503	99
45
Properties=species:S:1:pos:R:3:Z:I:1 energy=-344.9832401370579 field_type=dipole dipole="0.000000 0.000000 0.000000" charge=0
C	-1.628084	-0.167327	0.044650	6
C	-0.096293	-0.144287	-0.003030	6
O	0.378956	-0.985617	1.058840	8
C	0.428396	-0.747427	-1.325350	6
O	0.046336	-2.120577	-1.437220	8
C	0.414716	1.269083	0.178030	6
C	1.294076	1.699313	1.094760	6
H	-2.067804	0.399563	-0.782230	1
H	-1.997214	0.257493	0.985560	1
H	-2.009194	-1.193987	0.003520	1
H	0.038677	-0.604017	1.887160	1
H	1.523096	-0.720087	-1.357880	1
H	0.043247	-0.210067	-2.197610	1
H	0.259937	-2.506197	-0.563710	1
H	0.024126	2.000503	-0.528920	1
H	1.751506	1.031243	1.817840	1
H	1.595516	2.742393	1.125590	1
Es	0.141357	1.755753	-0.308419	99
Es	0.234547	-2.242000	-1.646301	99
Es	1.178646	-0.712745	-1.338192	99
Es	-0.865401	-0.142035	0.014599	99
Es	0.157877	-0.370784	-1.912190	99
Es	-1.628058	-0.167301	0.044652	99
Es	0.195586	-0.654014	0.675453	99
Es	1.294122	1.699339	1.094819	99
Es	0.428290	-0.747621	-1.325312	99
Es	0.168682	0.572605	0.092896	99
Es	1.600948	1.255440	1.588394	99
Es	0.686647	-0.960937	1.066704	99
Es	0.046505	-2.120444	-1.436984	99
Es	-1.918889	0.224196	-0.519070	99
Es	-0.260134	-2.126112	-1.462087	99
Es	0.378742	-0.985346	1.058888	99
Es	0.604161	1.542498	0.853906	99
Es	-1.877613	-0.856899	0.015310	99
Es	-1.866609	0.127980	0.690318	99
Es	0.189950	-1.595783	-1.372970	99
Es	0.168403	-2.313079	-0.972617	99
Es	1.101188	1.420567	0.441043	99
Es	1.498553	2.404020	1.119904	99
Es	0.238376	-1.259333	1.016018	99
Es	-0.096212	-0.144379	-0.002854	99
Es	0.186098	-0.769884	1.492730	99
Es	0.164183	-0.429221	-0.654018	99
Es	0.414629	1.269036	0.177950	99
45
Properties=species:S:1:pos:R:3:Z:I:1 energy=-344.9832401370579 field_type=dipole dipole="0.000000 0.000000 0.000000" charge=0
C	-1.628084	-0.167327	0.044650	6
C	-0.096293	-0.144287	-0.003030	6
O	0.378956	-0.985617	1.058840	8
C	0.428396	-0.747427	-1.325350	6
O	0.046336	-2.120577	-1.437220	8
C	0.414716	1.269083	0.178030	6
C	1.294076	1.699313	1.094760	6
H	-2.067804	0.399563	-0.782230	1
H	-1.997214	0.257493	0.985560	1
H	-2.009194	-1.193987	0.003520	1
H	0.038677	-0.604017	1.887160	1
H	1.523096	-0.720087	-1.357880	1
H	0.043247	-0.210067	-2.197610	1
H	0.259937	-2.506197	-0.563710	1
H	0.024126	2.000503	-0.528920	1
H	1.751506	1.031243	1.817840	1
H	1.595516	2.742393	1.125590	1
Es	-0.260043	-2.125044	-1.460963	99
Es	0.241819	-1.261641	1.015826	99
Es	0.046539	-2.120429	-1.436946	99
Es	0.414628	1.269041	0.177958	99
Es	0.378820	-0.985265	1.058880	99
Es	-1.866672	0.127957	0.690395	99
Es	0.193967	-0.654882	0.675448	99
Es	1.600928	1.255368	1.588386	99
Es	-1.877501	-0.856872	0.015271	99
Es	-0.096212	-0.144379	-0.002855	99
Es	0.191489	-1.595833	-1.374073	99
Es	1.101232	1.420682	0.440962	99
Es	-1.628059	-0.167301	0.044651	99
Es	0.168576	0.572415	0.092982	99
Es	1.294120	1.699338	1.094822	99
Es	0.428292	-0.747615	-1.325314	99
Es	-1.918848	0.224207	-0.519184	99
Es	0.168621	-2.313103	-0.972450	99
Es	1.498521	2.404061	1.119965	99
Es	0.685639	-0.957000	1.066904	99
Es	1.178670	-0.712639	-1.338241	99
Es	0.185199	-0.770746	1.492766	99
Es	0.232773	-2.243021	-1.646568	99
Es	-0.865553	-0.142002	0.014634	99
Es	0.604294	1.542491	0.853782	99
Es	0.164296	-0.429205	-0.654030	99
Es	0.157766	-0.370789	-1.912129	99
Es	0.141272	1.755723	-0.308311	99
45
Properties=species:S:1:pos:R:3:Z:I:1 energy=-344.9832401370579 field_type=dipole dipole="0.000000 0.000000 0.000000" charge=0
C	-1.628084	-0.167327	0.044650	6
C	-0.096293	-0.144287	-0.003030	6
O	0.378956	-0.985617	1.058840	8
C	0.428396	-0.747427	-1.325350	6
O	0.046336	-2.120577	-1.437220	8
C	0.414716	1.269083	0.178030	6
C	1.294076	1.699313	1.094760	6
H	-2.067804	0.399563	-0.782230	1
H	-1.997214	0.257493	0.985560	1
H	-2.009194	-1.193987	0.003520	1
H	0.038677	-0.604017	1.887160	1
H	1.523096	-0.720087	-1.357880	1
H	0.043247	-0.210067	-2.197610	1
H	0.259937	-2.506197	-0.563710	1
H	0.024126	2.000503	-0.528920	1
H	1.751506	1.031243	1.817840	1
H	1.595516	2.742393	1.125590	1
Es	-0.260164	-2.127248	-1.463483	99
Es	0.414634	1.269039	0.177952	99
Es	0.193819	-0.655508	0.674798	99
Es	0.378808	-0.985421	1.058855	99
Es	0.604198	1.542608	0.853873	99
Es	1.600937	1.255361	1.588357	99
Es	1.294120	1.699341	1.094823	99
Es	0.185160	-0.770348	1.492757	99
Es	-1.877692	-0.856842	0.015276	99
Es	0.141419	1.755780	-0.308444	99
Es	-0.096213	-0.144378	-0.002856	99
Es	0.241529	-1.260492	1.016584	99
Es	0.686155	-0.957790	1.066835	99
Es	0.168659	0.572407	0.092895	99
Es	-1.918827	0.224174	-0.519037	99
Es	0.428290	-0.747617	-1.325315	99
Es	0.235171	-2.241279	-1.644833	99
Es	-0.865342	-0.141999	0.014645	99
Es	0.164188	-0.429049	-0.654046	99
Es	1.498581	2.403982	1.119980	99
Es	-1.628060	-0.167301	0.044652	99
Es	0.046450	-2.120480	-1.436974	99
Es	1.178639	-0.712721	-1.338212	99
Es	0.157972	-0.370831	-1.912121	99
Es	1.101061	1.420612	0.441066	99
Es	0.189430	-1.595436	-1.373377	99
Es	-1.866701	0.127981	0.690255	99
Es	0.168353	-2.313028	-0.972334	99
45
Properties=species:S:1:pos:R:3:Z:I:1 energy=-344.9832401370579 field_type=dipole dipole="0.000000 0.000000 0.000000" charge=0
C	-1.628084	-0.167327	0.044650	6
C	-0.096293	-0.144287	-0.003030	6
O	0.378956	-0.985617	1.058840	8
C	0.428396	-0.747427	-1.325350	6
O	0.046336	-2.120577	-1.437220	8
C	0.414716	1.269083	0.178030	6
C	1.294076	1.699313	1.094760	6
H	-2.067804	0.399563	-0.782230	1
H	-1.997214	0.257493	0.985560	1
H	-2.009194	-1.193987	0.003520	1
H	0.038677	-0.604017	1.887160	1
H	1.523096	-0.720087	-1.357880	1
H	0.043247	-0.210067	-2.197610	1
H	0.259937	-2.506197	-0.563710	1
H	0.024126	2.000503	-0.528920	1
H	1.751506	1.031243	1.817840	1
H	1.595516	2.742393	1.125590	1
Es	0.168621	0.572349	0.092987	99
Es	0.046458	-2.120371	-1.436945	99
Es	1.101162	1.420687	0.441007	99
Es	-1.628058	-0.167301	0.044652	99
Es	-1.866683	0.127870	0.690363	99
Es	0.157997	-0.370836	-1.912084	99
Es	0.194437	-0.654547	0.674791	99
Es	0.167274	-2.313019	-0.972228	99
Es	0.414632	1.269040	0.177954	99
Es	1.498504	2.404029	1.120099	99
Es	-0.260743	-2.127874	-1.465749	99
Es	-1.877570	-0.856777	0.015248	99
Es	0.164267	-0.428985	-0.653977	99
Es	0.235992	-2.240906	-1.642589	99
Es	0.141348	1.755841	-0.308427	99
Es	1.600862	1.255334	1.588375	99
Es	0.185765	-0.770453	1.492822	99
Es	0.378754	-0.985361	1.058898	99
Es	0.428290	-0.747618	-1.325314	99
Es	-0.096213	-0.144378	-0.002856	99
Es	0.604380	1.542472	0.853679	99
Es	0.190275	-1.595374	-1.373508	99
Es	1.294117	1.699340	1.094824	99
Es	0.684639	-0.957233	1.067105	99
Es	-1.918956	0.224187	-0.519042	99
Es	1.178570	-0.712673	-1.338259	99
Es	-0.865444	-0.141989	0.014557	99
Es	0.241896	-1.261938	1.016189	99
45
Properties=species:S:1:pos:R:3:Z:I:1 energy=-344.9832401370579 field_type=dipole dipole="0.000000 0.000000 0.000000" charge=0
C	-1.628084	-0.167327	0.044650	6
C	-0.096293	-0.144287	-0.003030	6
O	0.378956	-0.985617	1.058840	8
C	0.428396	-0.747427	-1.325350	6
O	0.046336	-2.120577	-1.437220	8
C	0.414716	1.269083	0.178030	6
C	1.294076	1.699313	1.094760	6
H	-2.067804	0.399563	-0.782230	1
H	-1.997214	0.257493	0.985560	1
H	-2.009194	-1.193987	0.003520	1
H	0.038677	-0.604017	1.887160	1
H	1.523096	-0.720087	-1.357880	1
H	0.043247	-0.210067	-2.197610	1
H	0.259937	-2.506197	-0.563710	1
H	0.024126	2.000503	-0.528920	1
H	1.751506	1.031243	1.817840	1
H	1.595516	2.742393	1.125590	1
Es	0.184995	-0.770666	1.492744	99
Es	0.244636	-1.263688	1.016444	99
Es	1.178545	-0.712645	-1.338318	99
Es	0.378770	-0.985358	1.058849	99
Es	0.604498	1.542394	0.853549	99
Es	-1.628059	-0.167301	0.044652	99
Es	0.191961	-1.595484	-1.374270	99
Es	0.157967	-0.370835	-1.912051	99
Es	1.101117	1.420745	0.441068	99
Es	-1.877647	-0.856809	0.015225	99
Es	0.428289	-0.747618	-1.325316	99
Es	0.167755	-2.313491	-0.972342	99
Es	-0.259361	-2.124895	-1.461494	99
Es	-0.096215	-0.144373	-0.002861	99
Es	-1.866682	0.127849	0.690284	99
Es	1.498450	2.404050	1.120031	99
Es	0.683648	-0.954209	1.067467	99
Es	0.141366	1.755905	-0.308340	99
Es	0.193447	-0.655661	0.674342	99
Es	-0.865398	-0.141955	0.014591	99
Es	1.294116	1.699341	1.094824	99
Es	0.168614	0.572233	0.092911	99
Es	0.414637	1.269039	0.177951	99
Es	1.600848	1.255366	1.588471	99
Es	0.232437	-2.243266	-1.645994	99
Es	-1.918910	0.224247	-0.519000	99
Es	0.046496	-2.120423	-1.436938	99
Es	0.164255	-0.428977	-0.653910	99
45
Properties=species:S:1:pos:R:3:Z:I:1 energy=-344.9832401370579 field_type=dipole dipole="0.000000 0.000000 0.000000" charge=0
C	-1.628084	-0.167327	0.044650	6
C	-0.096293	-0.144287	-0.003030	6
O	0.378956	-0.985617	1.058840	8
C	0.428396	-0.747427	-1.325350	6
O	0.046336	-2.120577	-1.437220	8
C	0.414716	1.269083	0.178030	6
C	1.294076	1.699313	1.094760	6
H	-2.067804	0.399563	-0.782230	1
H	-1.997214	0.257493	0.985560	1
H	-2.009194	-1.193987	0.003520	1
H	0.038677	-0.604017	1.887160	1
H	1.523096	-0.720087	-1.357880	1
H	0.043247	-0.210067	-2.197610	1
H	0.259937	-2.506197	-0.563710	1
H	0.024126	2.000503	-0.528920	1
H	1.751506	1.031243	1.817840	1
H	1.595516	2.742393	1.125590	1
Es	1.498523	2.404038	1.119981	99
Es	-0.096214	-0.144377	-0.002857	99
Es	-0.259390	-2.125942	-1.462724	99
Es	-1.628059	-0.167301	0.044652	99
Es	0.414635	1.269039	0.177953	99
Es	0.233198	-2.242387	-1.645023	99
Es	0.194302	-0.654725	0.674523	99
Es	1.178533	-0.712638	-1.338314	99
Es	0.242111	-1.261478	1.016446	99
Es	1.600869	1.255355	1.588438	99
Es	-1.877614	-0.856751	0.015291	99
Es	0.684562	-0.957514	1.067066	99
Es	0.378718	-0.985381	1.058862	99
Es	1.294119	1.699340	1.094822	99
Es	1.100984	1.420717	0.441154	99
Es	0.168576	0.572130	0.092933	99
Es	-0.865353	-0.141937	0.014630	99
Es	0.191189	-1.595210	-1.373999	99
Es	0.167690	-2.313631	-0.972325	99
Es	0.141398	1.755920	-0.308385	99
Es	0.158031	-0.370873	-1.912040	99
Es	0.185789	-0.770458	1.493007	99
Es	-1.866677	0.127803	0.690256	99
Es	0.604475	1.542470	0.853574	99
Es	0.164290	-0.428905	-0.654004	99
Es	0.428291	-0.747616	-1.325315	99
Es	0.046571	-2.120428	-1.436955	99
Es	-1.918973	0.224258	-0.519076	99
45
Properties=species:S:1:pos:R:3:Z:I:1 energy=-344.9832401370579 field_type=dipole dipole="0.000000 0.000000 0.000000" charge=0
C	-1.628084	-0.167327	0.044650	6
C	-0.096293	-0.144287	-0.003030	6
O	0.378956	-0.985617	1.058840	8
C	0.428396	-0.747427	-1.325350	6
O	0.046336	-2.120577	-1.437220	8
C	0.414716	1.269083	0.178030	6
C	1.294076	1.699313	1.094760	6
H	-2.067804	0.399563	-0.782230	1
H	-1.997214	0.257493	0.985560	1
H	-2.009194	-1.193987	0.003520	1
H	0.038677	-0.604017	1.887160	1
H	1.523096	-0.720087	-1.357880	1
H	0.043247	-0.210067	-2.197610	1
H	0.259937	-2.506197	-0.563710	1
H	0.024126	2.000503	-0.528920	1
H	1.751506	1.031243	1.817840	1
H	1.595516	2.742393	1.125590	1
Es	0.168638	0.572093	0.092883	99
Es	0.604479	1.542475	0.853561	99
Es	1.294121	1.699339	1.094822	99
Es	0.141424	1.755972	-0.308389	99
Es	1.600888	1.255353	1.588429	99
Es	-1.918930	0.224165	-0.519013	99
Es	1.100863	1.420720	0.441264	99
Es	0.046496	-2.120402	-1.436963	99
Es	0.168142	-2.313053	-0.972242	99
Es	0.428292	-0.747616	-1.325314	99
Es	-1.866746	0.127864	0.690274	99
Es	0.158095	-0.370880	-1.912037	99
Es	0.185845	-0.770488	1.493122	99
Es	-0.258953	-2.125866	-1.461363	99
Es	0.194424	-0.654620	0.674196	99
Es	-0.096214	-0.144377	-0.002859	99
Es	0.684295	-0.957856	1.067150	99
Es	0.232686	-2.243237	-1.645856	99
Es	-0.865332	-0.141993	0.014533	99
Es	0.164269	-0.428876	-0.653897	99
Es	0.414635	1.269040	0.177953	99
Es	-1.877668	-0.856692	0.015260	99
Es	1.178494	-0.712628	-1.338297	99
Es	0.242137	-1.261230	1.016561	99
Es	0.190888	-1.595070	-1.374634	99
Es	0.378779	-0.985347	1.058868	99
Es	1.498587	2.404030	1.119909	99
Es	-1.628060	-0.167301	0.044652	99
45
Properties=species:S:1:pos:R:3:Z:I:1 energy=-344.9832401370579 field_type=dipole dipole="0.000000 0.000000 0.000000" charge=0
C	-1.628084	-0.167327	0.044650	6
C	-0.096293	-0.144287	-0.003030	6
O	0.378956	-0.985617	1.058840	8
C	0.428396	-0.747427	-1.325350	6
O	0.046336	-2.120577	-1.437220	8
C	0.414716	1.269083	0.178030	6
C	1.294076	1.699313	1.094760	6
H	-2.067804	0.399563	-0.782230	1
H	-1.997214	0.257493	0.985560	1
H	-2.009194	-1.193987	0.003520	1
H	0.038677	-0.604017	1.887160	1
H	1.523096	-0.720087	-1.357880	1
H	0.043247	-0.210067	-2.197610	1
H	0.259937	-2.506197	-0.563710	1
H	0.024126	2.000503	-0.528920	1
H	1.751506	1.031243	1.817840	1
H	1.595516	2.742393	1.125590	1
Es	-0.096215	-0.144374	-0.002860	99
Es	1.294119	1.699339	1.094821	99
Es	0.231099	-2.242585	-1.645400	99
Es	1.498519	2.404090	1.119964	99
Es	1.600900	1.255308	1.588408	99
Es	-0.259555	-2.125248	-1.461179	99
Es	-1.866737	0.127940	0.690171	99
Es	-1.918965	0.224081	-0.519017	99
Es	0.604600	1.542446	0.853469	99
Es	0.192391	-1.595100	-1.374671	99
Es	0.168634	0.571994	0.092896	99
Es	0.158076	-0.370883	-1.912021	99
Es	0.414640	1.269041	0.177958	99
Es	0.195990	-0.653824	0.674455	99
Es	1.178451	-0.712613	-1.338356	99
Es	-1.877688	-0.856736	0.015377	99
Es	0.046436	-2.120453	-1.436979	99
Es	1.100811	1.420787	0.441258	99
Es	-0.865271	-0.141893	0.014587	99
Es	-1.628059	-0.167301	0.044652	99
Es	0.141395	1.755971	-0.308390	99
Es	0.186825	-0.769538	1.493017	99
Es	0.685294	-0.961672	1.066849	99
Es	0.164269	-0.428866	-0.653916	99
Es	0.238681	-1.259190	1.016751	99
Es	0.428292	-0.747614	-1.325315	99
Es	0.378746	-0.985323	1.058858	99
Es	0.168898	-2.314266	-0.972817	99
45
Properties=species:S:1:pos:R:3:Z:I:1 energy=-344.9832401370579 field_type=dipole dipole="0.000000 0.000000 0.000000" charge=0
C	-1.628084	-0.167327	0.044650	6
C	-0.096293	-0.144287	-0.003030	6
O	0.378956	-0.985617	1.058840	8
C	0.428396	-0.747427	-1.325350	6
O	0.046336	-2.120577	-1.437220	8
C	0.414716	1.269083	0.178030	6
C	1.294076	1.699313	1.094760	6
H	-2.067804	0.399563	-0.782230	1
H	-1.997214	0.257493	0.985560	1
H	-2.009194	-1.193987	0.003520	1
H	0.038677	-0.604017	1.887160	1
H	1.523096	-0.720087	-1.357880	1
H	0.043247	-0.210067	-2.197610	1
H	0.259937	-2.506197	-0.563710	1
H	0.024126	2.000503	-0.528920	1
H	1.751506	1.031243	1.817840	1
H	1.595516	2.742393	1.125590	1
Es	1.498530	2.404089	1.119973	99
Es	0.194401	-0.654578	0.673927	99
Es	0.684139	-0.958551	1.066969	99
Es	-0.096215	-0.144376	-0.002859	99
Es	0.168543	0.571849	0.092978	99
Es	0.231988	-2.243109	-1.645513	99
Es	-1.877643	-0.856576	0.015153	99
Es	1.100782	1.420789	0.441293	99
Es	1.600814	1.255292	1.588476	99
Es	-1.866808	0.127700	0.690307	99
Es	-0.258271	-2.125239	-1.461868	99
Es	0.191735	-1.594866	-1.374549	99
Es	-1.628071	-0.167298	0.044655	99
Es	1.178435	-0.712595	-1.338360	99
Es	0.604743	1.542423	0.853327	99
Es	1.294119	1.699340	1.094821	99
Es	0.046446	-2.120448	-1.436951	99
Es	0.428292	-0.747614	-1.325315	99
Es	0.378759	-0.985356	1.058853	99
Es	-1.918986	0.224214	-0.518959	99
Es	0.167358	-2.314031	-0.972187	99
Es	0.186202	-0.770502	1.493384	99
Es	0.414636	1.269039	0.177953	99
Es	0.141398	1.756062	-0.308340	99
Es	-0.865214	-0.141890	0.014581	99
Es	0.164344	-0.428741	-0.653991	99
Es	0.158115	-0.370889	-1.911989	99
Es	0.242003	-1.260622	1.016801	99
45
Properties=species:S:1:pos:R:3:Z:I:1 energy=-344.9832401370579 field_type=dipole dipole="0.000000 0.000000 0.000000" charge=0
C	-1.628084	-0.167327	0.044650	6
C	-0.096293	-0.144287	-0.003030	6
O	0.378956	-0.985617	1.058840	8
C	0.428396	-0.747427	-1.325350	6
O	0.046336	-2.120577	-1.437220	8
C	0.414716	1.269083	0.178030	6
C	1.294076	1.699313	1.094760	6
H	-2.067804	0.399563	-0.782230	1
H	-1.997214	0.257493	0.985560	1
H	-2.009194	-1.193987	0.003520	1
H	0.038677	-0.604017	1.887160	1
H	1.523096	-0.720087	-1.357880	1
H	0.043247	-0.210067	-2.197610	1
H	0.259937	-2.506197	-0.563710	1
H	0.024126	2.000503	-0.528920	1
H	1.751506	1.031243	1.817840	1
H	1.595516	2.742393	1.125590	1
Es	0.604706	1.542453	0.853351	99
Es	1.100738	1.420790	0.441319	99
Es	0.046505	-2.120404	-1.436923	99
Es	0.189785	-1.594314	-1.373504	99
Es	-0.096215	-0.144376	-0.002859	99
Es	0.167723	-2.314563	-0.972478	99
Es	0.234032	-2.240525	-1.643348	99
Es	0.164352	-0.428740	-0.653963	99
Es	1.294118	1.699339	1.094821	99
Es	0.683623	-0.957389	1.067375	99
Es	-0.258810	-2.127902	-1.464807	99
Es	-1.918969	0.224149	-0.518973	99
Es	0.194360	-0.654506	0.673889	99
Es	1.498495	2.404075	1.119972	99
Es	0.185246	-0.771405	1.493747	99
Es	1.178417	-0.712602	-1.338371	99
Es	0.428293	-0.747613	-1.325315	99
Es	-1.877677	-0.856679	0.015265	99
Es	0.414636	1.269040	0.177954	99
Es	1.600856	1.255310	1.588467	99
Es	0.168549	0.571807	0.092919	99
Es	-0.865283	-0.141857	0.014547	99
Es	0.158139	-0.370895	-1.911983	99
Es	0.243588	-1.260913	1.016122	99
Es	0.141453	1.756047	-0.308408	99
Es	-1.866749	0.127842	0.690243	99
Es	-1.628060	-0.167301	0.044652	99
Es	0.378722	-0.985353	1.058862	99
45
Properties=species:S:1:pos:R:3:Z:I:1 energy=-344.9832401370579 field_type=dipole dipole="0.000000 0.000000 0.000000" charge=0
C	-1.628084	-0.167327	0.044650	6
C	-0.096293	-0.144287	-0.003030	6
O	0.378956	-0.985617	1.058840	8
C	0.428396	-0.747427	-1.325350	6
O	0.046336	-2.120577	-1.437220	8
C	0.414716	1.269083	0.178030	6
C	1.294076	1.699313	1.094760	6
H	-2.067804	0.399563	-0.782230	1
H	-1.997214	0.257493	0.985560	1
H	-2.009194	-1.193987	0.003520	1
H	0.038677	-0.604017	1.887160	1
H	1.523096	-0.720087	-1.357880	1
H	0.043247	-0.210067	-2.197610	1
H	0.259937	-2.506197	-0.563710	1
H	0.024126	2.000503	-0.528920	1
H	1.751506	1.031243	1.817840	1
H	1.595516	2.742393	1.125590	1
Es	0.167283	-2.314255	-0.972230	99
Es	-0.865285	-0.141858	0.014526	99
Es	0.604814	1.542411	0.853264	99
Es	1.600833	1.255273	1.588443	99
Es	0.141457	1.756098	-0.308429	99
Es	1.294118	1.699339	1.094821	99
Es	0.428293	-0.747613	-1.325315	99
Es	0.168598	0.571710	0.092938	99
Es	0.164348	-0.428716	-0.653928	99
Es	-0.096215	-0.144375	-0.002860	99
Es	0.241951	-1.260234	1.016930	99
Es	-1.628060	-0.167301	0.044652	99
Es	-1.877676	-0.856624	0.015274	99
Es	0.046429	-2.120443	-1.436998	99
Es	0.190741	-1.594453	-1.374210	99
Es	1.100594	1.420812	0.441446	99
Es	-1.918990	0.224145	-0.518985	99
Es	0.186534	-0.770500	1.493637	99
Es	0.414636	1.269040	0.177953	99
Es	-1.866768	0.127818	0.690244	99
Es	0.683744	-0.959077	1.066870	99
Es	1.498535	2.404139	1.119951	99
Es	0.158154	-0.370920	-1.911934	99
Es	1.178402	-0.712544	-1.338394	99
Es	0.378748	-0.985411	1.058859	99
Es	0.233233	-2.241762	-1.643909	99
Es	-0.258414	-2.126835	-1.463752	99
Es	0.194541	-0.654345	0.673704	99
45
Properties=species:S:1:pos:R:3:Z:I:1 energy=-344.9832401370579 field_type=dipole dipole="0.000000 0.000000 0.000000" charge=0
C	-1.628084	-0.167327	0.044650	6
C	-0.096293	-0.144287	-0.003030	6
O	0.378956	-0.985617	1.058840	8
C	0.428396	-0.747427	-1.325350	6
O	0.046336	-2.120577	-1.437220	8
C	0.414716	1.269083	0.178030	6
C	1.294076	1.699313	1.094760	6
H	-2.067804	0.399563	-0.782230	1
H	-1.997214	0.257493	0.985560	1
H	-2.009194	-1.193987	0.003520	1
H	0.038677	-0.604017	1.887160	1
H	1.523096	-0.720087	-1.357880	1
H	0.043247	-0.210067	-2.197610	1
H	0.259937	-2.506197	-0.563710	1
H	0.024126	2.000503	-0.528920	1
H	1.751506	1.031243	1.817840	1
H	1.595516	2.742393	1.125590	1
Es	0.604885	1.542399	0.853181	99
Es	0.186169	-0.770507	1.493519	99
Es	1.294118	1.699340	1.094821	99
Es	-1.628061	-0.167300	0.044649	99
Es	0.191223	-1.594355	-1.374551	99
Es	-0.096217	-0.144373	-0.002864	99
Es	-0.865266	-0.141778	0.014501	99
Es	0.194855	-0.654427	0.673821	99
Es	0.141418	1.756122	-0.308384	99
Es	0.232025	-2.242222	-1.644518	99
Es	-0.258087	-2.126244	-1.462727	99
Es	0.683845	-0.958857	1.067063	99
Es	0.168560	0.571633	0.092948	99
Es	0.241905	-1.260381	1.016694	99
Es	0.378788	-0.985411	1.058909	99
Es	0.046475	-2.120442	-1.436971	99
Es	0.167610	-2.314516	-0.972317	99
Es	-1.918983	0.224117	-0.518885	99
Es	0.414636	1.269040	0.177954	99
Es	1.178396	-0.712537	-1.338424	99
Es	0.428292	-0.747615	-1.325315	99
Es	-1.877713	-0.856684	0.015250	99
Es	0.164331	-0.428637	-0.653963	99
Es	1.498478	2.404106	1.119995	99
Es	-1.866755	0.127850	0.690229	99
Es	1.100659	1.420853	0.441364	99
Es	0.158181	-0.370945	-1.911905	99
Es	1.600806	1.255287	1.588496	99
