44
Properties=species:S:1:pos:R:3:Z:I:1 energy=-307.94509688486596 field_type=dipole dipole="0.000000 0.000000 0.000000" charge=0
C	0.684433	-2.888406	0.693446	6
O	-0.655747	-2.615096	0.301076	8
C	-0.929877	-1.353746	-0.147444	6
C	-0.099977	-0.311356	-0.305224	6
C	-0.549487	1.029054	-0.811034	6
C	-0.274907	2.107204	0.196936	6
C	0.510333	3.169414	-0.025954	6
H	0.731363	-3.928486	1.029456	1
H	0.984553	-2.249326	1.530356	1
H	1.371663	-2.775036	-0.151224	1
H	-1.988627	-1.292216	-0.380044	1
H	0.957663	-0.398206	-0.077454	1
H	-1.623537	1.026224	-1.032304	1
H	-0.032407	1.236324	-1.755584	1
H	-0.762527	2.007054	1.165096	1
H	1.013023	3.319474	-0.976164	1
H	0.664053	3.917124	0.746056	1
Es	-0.823050	-2.619094	0.541022	99
Es	-0.551738	-0.704672	0.089036	99
Es	-0.140102	-2.678124	0.437369	99
Es	-0.610126	2.030062	0.851211	99
Es	0.616002	-0.370462	-0.150054	99
Es	0.892456	-2.445256	1.259663	99
Es	0.510404	3.169491	-0.025968	99
Es	-0.192676	1.171346	-1.446803	99
Es	-0.333227	0.355261	-0.549095	99
Es	-0.405993	1.565164	-0.304943	99
Es	0.619715	3.681267	0.493263	99
Es	-0.274974	2.107100	0.196933	99
Es	-1.277749	1.025886	-0.951681	99
Es	-0.099948	-0.311290	-0.305239	99
Es	0.684201	-2.888354	0.693376	99
Es	-0.655573	-2.614912	0.301059	99
Es	0.386804	2.481145	0.193456	99
Es	-0.704697	-2.118208	0.135025	99
Es	-0.128359	2.817484	-0.029010	99
Es	0.854489	3.274694	-0.670522	99
Es	-0.929882	-1.354057	-0.147343	99
Es	-0.427918	-0.899925	-0.544741	99
Es	-0.549467	1.029032	-0.810977	99
Es	1.155581	-2.802072	0.117566	99
Es	-1.648454	-1.307811	-0.306145	99
Es	0.713830	-3.594799	0.920899	99
Es	-0.716875	-2.770673	0.061461	99
44
Properties=species:S:1:pos:R:3:Z:I:1 energy=-307.94509688486596 field_type=dipole dipole="0.000000 0.000000 0.000000" charge=0
C	0.684433	-2.888406	0.693446	6
O	-0.655747	-2.615096	0.301076	8
C	-0.929877	-1.353746	-0.147444	6
C	-0.099977	-0.311356	-0.305224	6
C	-0.549487	1.029054	-0.811034	6
C	-0.274907	2.107204	0.196936	6
C	0.510333	3.169414	-0.025954	6
H	0.731363	-3.928486	1.029456	1
H	0.984553	-2.249326	1.530356	1
H	1.371663	-2.775036	-0.151224	1
H	-1.988627	-1.292216	-0.380044	1
H	0.957663	-0.398206	-0.077454	1
H	-1.623537	1.026224	-1.032304	1
H	-0.032407	1.236324	-1.755584	1
H	-0.762527	2.007054	1.165096	1
H	1.013023	3.319474	-0.976164	1
H	0.664053	3.917124	0.746056	1
Es	-1.277654	1.026022	-0.951812	99
Es	-0.823326	-2.620211	0.540521	99
Es	-0.099946	-0.311286	-0.305241	99
Es	-0.610022	2.030081	0.851259	99
Es	0.386634	2.481232	0.193442	99
Es	0.892486	-2.445178	1.259501	99
Es	-0.655462	-2.614800	0.301085	99
Es	-0.140189	-2.677785	0.437660	99
Es	0.854614	3.274632	-0.670449	99
Es	-0.427905	-0.900090	-0.544533	99
Es	-0.551565	-0.704683	0.088802	99
Es	-0.716304	-2.770305	0.060932	99
Es	-0.274973	2.107097	0.196935	99
Es	1.155607	-2.802225	0.117562	99
Es	0.684201	-2.888353	0.693374	99
Es	-0.705025	-2.117931	0.135680	99
Es	0.713838	-3.594716	0.921105	99
Es	0.615963	-0.370383	-0.149973	99
Es	-0.406060	1.565114	-0.305047	99
Es	0.619644	3.681304	0.493257	99
Es	-0.333428	0.355170	-0.548961	99
Es	-0.192587	1.171301	-1.446738	99
Es	-1.648595	-1.307730	-0.306234	99
Es	-0.128310	2.817467	-0.029012	99
Es	-0.549465	1.029033	-0.810976	99
Es	0.510383	3.169505	-0.025977	99
Es	-0.929882	-1.354057	-0.147347	99
44
Properties=species:S:1:pos:R:3:Z:I:1 energy=-307.94509688486596 field_type=dipole dipole="0.000000 0.000000 0.000000" charge=0
C	0.684433	-2.888406	0.693446	6
O	-0.655747	-2.615096	0.301076	8
C	-0.929877	-1.353746	-0.147444	6
C	-0.099977	-0.311356	-0.305224	6
C	-0.549487	1.029054	-0.811034	6
C	-0.274907	2.107204	0.196936	6
C	0.510333	3.169414	-0.025954	6
H	0.731363	-3.928486	1.029456	1
H	0.984553	-2.249326	1.530356	1
H	1.371663	-2.775036	-0.151224	1
H	-1.988627	-1.292216	-0.380044	1
H	0.957663	-0.398206	-0.077454	1
H	-1.623537	1.026224	-1.032304	1
H	-0.032407	1.236324	-1.755584	1
H	-0.762527	2.007054	1.165096	1
H	1.013023	3.319474	-0.976164	1
H	0.664053	3.917124	0.746056	1
Es	0.386567	2.481333	0.193447	99
Es	-0.705594	-2.117213	0.137623	99
Es	-0.099956	-0.311310	-0.305231	99
Es	-0.274976	2.107096	0.196934	99
Es	-0.333367	0.355226	-0.548899	99
Es	-0.551508	-0.704722	0.088785	99
Es	0.713894	-3.594805	0.920686	99
Es	0.510397	3.169498	-0.025972	99
Es	-0.549467	1.029031	-0.810977	99
Es	0.684202	-2.888354	0.693375	99
Es	-0.929883	-1.354059	-0.147343	99
Es	-0.823751	-2.622472	0.539806	99
Es	0.892527	-2.445380	1.259774	99
Es	0.854485	3.274652	-0.670584	99
Es	1.155535	-2.801997	0.117649	99
Es	-1.277702	1.025960	-0.951647	99
Es	-0.427893	-0.900065	-0.544534	99
Es	-0.655500	-2.614819	0.301065	99
Es	-0.128158	2.817317	-0.028887	99
Es	-0.192696	1.171325	-1.446835	99
Es	0.615981	-0.370368	-0.150079	99
Es	-0.139901	-2.678339	0.437404	99
Es	-1.648575	-1.307671	-0.306220	99
Es	-0.715630	-2.768163	0.060079	99
Es	0.619704	3.681300	0.493265	99
Es	-0.405966	1.565042	-0.305154	99
Es	-0.610096	2.030182	0.851286	99
44
Properties=species:S:1:pos:R:3:Z:I:1 energy=-307.94509688486596 field_type=dipole dipole="0.000000 0.000000 0.000000" charge=0
C	0.684433	-2.888406	0.693446	6
O	-0.655747	-2.615096	0.301076	8
C	-0.929877	-1.353746	-0.147444	6
C	-0.099977	-0.311356	-0.305224	6
C	-0.549487	1.029054	-0.811034	6
C	-0.274907	2.107204	0.196936	6
C	0.510333	3.169414	-0.025954	6
H	0.731363	-3.928486	1.029456	1
H	0.984553	-2.249326	1.530356	1
H	1.371663	-2.775036	-0.151224	1
H	-1.988627	-1.292216	-0.380044	1
H	0.957663	-0.398206	-0.077454	1
H	-1.623537	1.026224	-1.032304	1
H	-0.032407	1.236324	-1.755584	1
H	-0.762527	2.007054	1.165096	1
H	1.013023	3.319474	-0.976164	1
H	0.664053	3.917124	0.746056	1
Es	-1.277650	1.025996	-0.951694	99
Es	-0.610026	2.030202	0.851333	99
Es	0.713934	-3.594766	0.920948	99
Es	-0.140000	-2.678005	0.438080	99
Es	0.854537	3.274647	-0.670537	99
Es	1.155587	-2.802072	0.117657	99
Es	0.684205	-2.888356	0.693377	99
Es	-0.128124	2.817293	-0.028880	99
Es	-0.549468	1.029032	-0.810977	99
Es	-0.705611	-2.117369	0.137787	99
Es	-0.551562	-0.704810	0.088810	99
Es	-0.192674	1.171332	-1.446821	99
Es	-0.714646	-2.767601	0.059567	99
Es	-0.099949	-0.311289	-0.305237	99
Es	0.619679	3.681299	0.493297	99
Es	-0.333340	0.355229	-0.549073	99
Es	-0.655481	-2.614776	0.301067	99
Es	-0.427885	-0.899924	-0.544314	99
Es	0.615944	-0.370493	-0.150130	99
Es	-1.648609	-1.307649	-0.306245	99
Es	-0.274974	2.107098	0.196934	99
Es	-0.824657	-2.623340	0.539399	99
Es	0.510397	3.169496	-0.025970	99
Es	-0.929882	-1.354060	-0.147347	99
Es	-0.406045	1.565026	-0.305163	99
Es	0.892478	-2.445275	1.259573	99
Es	0.386494	2.481359	0.193374	99
44
Properties=species:S:1:pos:R:3:Z:I:1 energy=-307.94509688486596 field_type=dipole dipole="0.000000 0.000000 0.000000" charge=0
C	0.684433	-2.888406	0.693446	6
O	-0.655747	-2.615096	0.301076	8
C	-0.929877	-1.353746	-0.147444	6
C	-0.099977	-0.311356	-0.305224	6
C	-0.549487	1.029054	-0.811034	6
C	-0.274907	2.107204	0.196936	6
C	0.510333	3.169414	-0.025954	6
H	0.731363	-3.928486	1.029456	1
H	0.984553	-2.249326	1.530356	1
H	1.371663	-2.775036	-0.151224	1
H	-1.988627	-1.292216	-0.380044	1
H	0.957663	-0.398206	-0.077454	1
H	-1.623537	1.026224	-1.032304	1
H	-0.032407	1.236324	-1.755584	1
H	-0.762527	2.007054	1.165096	1
H	1.013023	3.319474	-0.976164	1
H	0.664053	3.917124	0.746056	1
Es	-0.139888	-2.678446	0.437534	99
Es	0.684205	-2.888356	0.693377	99
Es	-0.274973	2.107101	0.196934	99
Es	0.615919	-0.370512	-0.150080	99
Es	1.155575	-2.802079	0.117679	99
Es	-0.192709	1.171347	-1.446758	99
Es	0.854469	3.274671	-0.670583	99
Es	-0.128040	2.817182	-0.028832	99
Es	-0.823544	-2.620696	0.540098	99
Es	0.713933	-3.594758	0.920887	99
Es	0.386492	2.481418	0.193390	99
Es	-1.648635	-1.307579	-0.306158	99
Es	-0.655546	-2.614879	0.301056	99
Es	-0.333320	0.355289	-0.549022	99
Es	0.619672	3.681317	0.493297	99
Es	-0.705190	-2.117798	0.135767	99
Es	-0.551535	-0.705104	0.088651	99
Es	-1.277672	1.025980	-0.951725	99
Es	-0.406031	1.565009	-0.305203	99
Es	0.510400	3.169491	-0.025968	99
Es	-0.929881	-1.354063	-0.147353	99
Es	-0.610055	2.030256	0.851341	99
Es	-0.099950	-0.311291	-0.305237	99
Es	-0.427830	-0.899728	-0.544376	99
Es	0.892507	-2.445319	1.259612	99
Es	-0.716234	-2.769261	0.061464	99
Es	-0.549468	1.029032	-0.810978	99
44
Properties=species:S:1:pos:R:3:Z:I:1 energy=-307.94509688486596 field_type=dipole dipole="0.000000 0.000000 0.000000" charge=0
C	0.684433	-2.888406	0.693446	6
O	-0.655747	-2.615096	0.301076	8
C	-0.929877	-1.353746	-0.147444	6
C	-0.099977	-0.311356	-0.305224	6
C	-0.549487	1.029054	-0.811034	6
C	-0.274907	2.107204	0.196936	6
C	0.510333	3.169414	-0.025954	6
H	0.731363	-3.928486	1.029456	1
H	0.984553	-2.249326	1.530356	1
H	1.371663	-2.775036	-0.151224	1
H	-1.988627	-1.292216	-0.380044	1
H	0.957663	-0.398206	-0.077454	1
H	-1.623537	1.026224	-1.032304	1
H	-0.032407	1.236324	-1.755584	1
H	-0.762527	2.007054	1.165096	1
H	1.013023	3.319474	-0.976164	1
H	0.664053	3.917124	0.746056	1
Es	0.713971	-3.594760	0.920670	99
Es	0.386361	2.481421	0.193383	99
Es	-0.333243	0.355281	-0.549090	99
Es	-0.405989	1.565012	-0.305211	99
Es	-0.099947	-0.311298	-0.305264	99
Es	-0.929882	-1.354061	-0.147349	99
Es	-0.714068	-2.767140	0.060034	99
Es	0.615844	-0.370562	-0.150240	99
Es	1.155577	-2.801992	0.117781	99
Es	0.892511	-2.445428	1.259777	99
Es	-0.427959	-0.900054	-0.544172	99
Es	-0.610014	2.030293	0.851372	99
Es	0.684201	-2.888356	0.693376	99
Es	-0.127982	2.817212	-0.028834	99
Es	-0.705642	-2.117319	0.137230	99
Es	-1.648652	-1.307582	-0.306215	99
Es	-0.549468	1.029032	-0.810978	99
Es	-0.140023	-2.678218	0.438902	99
Es	0.619650	3.681342	0.493287	99
Es	0.510396	3.169495	-0.025971	99
Es	-0.655473	-2.614813	0.301057	99
Es	-0.825233	-2.623572	0.538632	99
Es	-1.277667	1.025991	-0.951813	99
Es	-0.192748	1.171308	-1.446663	99
Es	0.854502	3.274637	-0.670576	99
Es	-0.551381	-0.704745	0.088756	99
Es	-0.274969	2.107101	0.196933	99
44
Properties=species:S:1:pos:R:3:Z:I:1 energy=-307.94509688486596 field_type=dipole dipole="0.000000 0.000000 0.000000" charge=0
C	0.684433	-2.888406	0.693446	6
O	-0.655747	-2.615096	0.301076	8
C	-0.929877	-1.353746	-0.147444	6
C	-0.099977	-0.311356	-0.305224	6
C	-0.549487	1.029054	-0.811034	6
C	-0.274907	2.107204	0.196936	6
C	0.510333	3.169414	-0.025954	6
H	0.731363	-3.928486	1.029456	1
H	0.984553	-2.249326	1.530356	1
H	1.371663	-2.775036	-0.151224	1
H	-1.988627	-1.292216	-0.380044	1
H	0.957663	-0.398206	-0.077454	1
H	-1.623537	1.026224	-1.032304	1
H	-0.032407	1.236324	-1.755584	1
H	-0.762527	2.007054	1.165096	1
H	1.013023	3.319474	-0.976164	1
H	0.664053	3.917124	0.746056	1
Es	-0.192684	1.171336	-1.446780	99
Es	-0.428015	-0.900199	-0.543754	99
Es	-0.099950	-0.311291	-0.305236	99
Es	-0.549467	1.029033	-0.810978	99
Es	0.386365	2.481493	0.193366	99
Es	0.615955	-0.370453	-0.150314	99
Es	-1.648661	-1.307560	-0.306405	99
Es	1.155580	-2.802135	0.117706	99
Es	-0.705242	-2.117537	0.136445	99
Es	-1.277537	1.026062	-0.951767	99
Es	-0.822648	-2.620097	0.539161	99
Es	0.684212	-2.888358	0.693379	99
Es	-0.929882	-1.354062	-0.147349	99
Es	-0.655473	-2.614826	0.301035	99
Es	-0.717302	-2.769762	0.061398	99
Es	0.713923	-3.594719	0.920894	99
Es	-0.139752	-2.678879	0.437841	99
Es	-0.333557	0.355130	-0.549108	99
Es	-0.610079	2.030308	0.851468	99
Es	-0.274971	2.107103	0.196934	99
Es	-0.406111	1.565061	-0.305339	99
Es	-0.551253	-0.704607	0.088671	99
Es	-0.127786	2.816986	-0.028754	99
Es	0.510396	3.169493	-0.025971	99
Es	0.854492	3.274617	-0.670596	99
Es	0.892548	-2.445324	1.259602	99
Es	0.619570	3.681413	0.493266	99
