42
Properties=species:S:1:pos:R:3:Z:I:1 energy=-343.76611375176816 field_type=dipole dipole="0.000000 0.000000 0.000000" charge=0
O	-2.074251	-0.111285	-0.144864	8
C	-0.656321	0.029385	-0.075714	6
C	0.251099	-0.655245	-1.146434	6
C	1.297210	-0.288805	-0.029394	6
C	0.173929	-0.829405	0.931116	6
O	1.307609	1.160915	0.096836	8
C	-0.100881	1.459585	0.053796	6
H	-2.405941	0.178445	0.722646	1
H	0.368850	-0.125585	-2.095964	1
H	0.077569	-1.718855	-1.340954	1
H	2.279860	-0.758895	-0.031614	1
H	-0.007201	-1.909285	0.933546	1
H	0.217059	-0.463925	1.960926	1
H	-0.323880	2.083155	-0.816594	1
H	-0.404711	1.949795	0.982666	1
Es	-2.233833	0.050799	0.328029	99
Es	-0.319569	1.792598	0.690698	99
Es	-0.100663	1.459494	0.053812	99
Es	-2.169808	0.094454	-0.349045	99
Es	1.289400	0.606920	0.047950	99
Es	0.800846	-0.601490	0.533565	99
Es	0.135778	-1.375370	-1.255616	99
Es	0.330131	-0.290615	-1.798595	99
Es	0.845121	-0.498966	-0.667341	99
Es	0.198694	-0.576487	1.642378	99
Es	0.053066	-1.557431	0.912514	99
Es	1.297079	-0.288611	-0.029378	99
Es	0.251092	-0.655207	-1.146348	99
Es	-1.540872	-0.048171	-0.099291	99
Es	0.173942	-0.829359	0.931049	99
Es	1.406641	1.221307	0.381397	99
Es	-0.280005	-0.308055	-0.689411	99
Es	-0.260726	1.883651	-0.538092	99
Es	-0.412836	0.759036	-0.007384	99
Es	-0.656484	0.029327	-0.075724	99
Es	1.971559	-0.597174	-0.029951	99
Es	1.435128	1.270456	-0.161656	99
Es	-2.130031	-0.410087	-0.164457	99
Es	0.769134	1.269810	0.080650	99
Es	-2.074058	-0.111197	-0.144588	99
Es	1.307343	1.160706	0.096847	99
Es	-0.314945	-0.408798	0.507964	99
42
Properties=species:S:1:pos:R:3:Z:I:1 energy=-343.76611375176816 field_type=dipole dipole="0.000000 0.000000 0.000000" charge=0
O	-2.074251	-0.111285	-0.144864	8
C	-0.656321	0.029385	-0.075714	6
C	0.251099	-0.655245	-1.146434	6
C	1.297210	-0.288805	-0.029394	6
C	0.173929	-0.829405	0.931116	6
O	1.307609	1.160915	0.096836	8
C	-0.100881	1.459585	0.053796	6
H	-2.405941	0.178445	0.722646	1
H	0.368850	-0.125585	-2.095964	1
H	0.077569	-1.718855	-1.340954	1
H	2.279860	-0.758895	-0.031614	1
H	-0.007201	-1.909285	0.933546	1
H	0.217059	-0.463925	1.960926	1
H	-0.323880	2.083155	-0.816594	1
H	-0.404711	1.949795	0.982666	1
Es	0.173945	-0.829355	0.931050	99
Es	1.971433	-0.597030	-0.030045	99
Es	-2.126411	-0.408529	-0.159002	99
Es	-0.100664	1.459495	0.053810	99
Es	0.845193	-0.498872	-0.667206	99
Es	0.198542	-0.576612	1.642338	99
Es	1.307326	1.160693	0.096747	99
Es	1.297081	-0.288604	-0.029380	99
Es	-0.412901	0.758965	-0.007276	99
Es	-2.074064	-0.111171	-0.144595	99
Es	-1.540799	-0.047312	-0.099630	99
Es	-2.234255	0.051944	0.327663	99
Es	1.409656	1.223673	0.379983	99
Es	-0.319478	1.792517	0.690526	99
Es	0.135835	-1.375382	-1.255678	99
Es	1.289998	0.606348	0.048505	99
Es	0.052969	-1.557297	0.912503	99
Es	0.768727	1.270281	0.081690	99
Es	0.251098	-0.655205	-1.146344	99
Es	-0.314970	-0.408571	0.507871	99
Es	0.330242	-0.290658	-1.798515	99
Es	-0.280127	-0.308194	-0.689634	99
Es	-2.173077	0.090901	-0.353793	99
Es	-0.656486	0.029328	-0.075722	99
Es	1.431997	1.268237	-0.161680	99
Es	0.801117	-0.601800	0.533890	99
Es	-0.260798	1.883751	-0.538103	99
42
Properties=species:S:1:pos:R:3:Z:I:1 energy=-343.76611375176816 field_type=dipole dipole="0.000000 0.000000 0.000000" charge=0
O	-2.074251	-0.111285	-0.144864	8
C	-0.656321	0.029385	-0.075714	6
C	0.251099	-0.655245	-1.146434	6
C	1.297210	-0.288805	-0.029394	6
C	0.173929	-0.829405	0.931116	6
O	1.307609	1.160915	0.096836	8
C	-0.100881	1.459585	0.053796	6
H	-2.405941	0.178445	0.722646	1
H	0.368850	-0.125585	-2.095964	1
H	0.077569	-1.718855	-1.340954	1
H	2.279860	-0.758895	-0.031614	1
H	-0.007201	-1.909285	0.933546	1
H	0.217059	-0.463925	1.960926	1
H	-0.323880	2.083155	-0.816594	1
H	-0.404711	1.949795	0.982666	1
Es	0.198593	-0.576654	1.642286	99
Es	0.135754	-1.375302	-1.255696	99
Es	-2.170022	0.093831	-0.350155	99
Es	1.297077	-0.288609	-0.029374	99
Es	0.251101	-0.655207	-1.146346	99
Es	0.801114	-0.601700	0.533851	99
Es	-0.260704	1.883645	-0.538000	99
Es	-0.100666	1.459495	0.053812	99
Es	-0.315039	-0.408564	0.507936	99
Es	-0.656481	0.029325	-0.075718	99
Es	-2.130512	-0.409521	-0.162810	99
Es	0.173940	-0.829360	0.931050	99
Es	-2.074081	-0.111165	-0.144600	99
Es	0.845301	-0.499020	-0.667311	99
Es	1.971368	-0.597051	-0.029940	99
Es	-0.280151	-0.308120	-0.689598	99
Es	1.307387	1.160689	0.096806	99
Es	0.053040	-1.557300	0.912537	99
Es	0.330217	-0.290703	-1.798500	99
Es	-1.540543	-0.049364	-0.099407	99
Es	1.290018	0.606392	0.047813	99
Es	-0.319612	1.792589	0.690608	99
Es	1.433938	1.269651	-0.160733	99
Es	-0.412914	0.758991	-0.007503	99
Es	1.407799	1.221862	0.380033	99
Es	0.768649	1.270669	0.081295	99
Es	-2.233445	0.052043	0.327639	99
42
Properties=species:S:1:pos:R:3:Z:I:1 energy=-343.76611375176816 field_type=dipole dipole="0.000000 0.000000 0.000000" charge=0
O	-2.074251	-0.111285	-0.144864	8
C	-0.656321	0.029385	-0.075714	6
C	0.251099	-0.655245	-1.146434	6
C	1.297210	-0.288805	-0.029394	6
C	0.173929	-0.829405	0.931116	6
O	1.307609	1.160915	0.096836	8
C	-0.100881	1.459585	0.053796	6
H	-2.405941	0.178445	0.722646	1
H	0.368850	-0.125585	-2.095964	1
H	0.077569	-1.718855	-1.340954	1
H	2.279860	-0.758895	-0.031614	1
H	-0.007201	-1.909285	0.933546	1
H	0.217059	-0.463925	1.960926	1
H	-0.323880	2.083155	-0.816594	1
H	-0.404711	1.949795	0.982666	1
Es	0.053069	-1.557233	0.912633	99
Es	0.845450	-0.499007	-0.667365	99
Es	-2.233643	0.049351	0.328347	99
Es	-0.280284	-0.308070	-0.689623	99
Es	0.173944	-0.829363	0.931057	99
Es	0.135794	-1.375203	-1.255655	99
Es	0.198607	-0.576657	1.642219	99
Es	-1.540688	-0.048662	-0.099014	99
Es	1.408017	1.222756	0.379603	99
Es	-0.100664	1.459495	0.053812	99
Es	0.251101	-0.655206	-1.146348	99
Es	-0.412951	0.758947	-0.007520	99
Es	1.971297	-0.596964	-0.030011	99
Es	-0.315153	-0.408690	0.508029	99
Es	1.433360	1.269140	-0.160472	99
Es	-0.260705	1.883615	-0.537958	99
Es	-0.656488	0.029328	-0.075722	99
Es	-2.074135	-0.111176	-0.144624	99
Es	0.768519	1.270595	0.080951	99
Es	0.330187	-0.290836	-1.798507	99
Es	-2.169681	0.095861	-0.348319	99
Es	1.297078	-0.288608	-0.029377	99
Es	-2.130469	-0.409518	-0.165710	99
Es	0.801236	-0.601751	0.533821	99
Es	-0.319597	1.792629	0.690580	99
Es	1.307337	1.160702	0.096817	99
Es	1.290590	0.606065	0.048329	99
42
Properties=species:S:1:pos:R:3:Z:I:1 energy=-343.76611375176816 field_type=dipole dipole="0.000000 0.000000 0.000000" charge=0
O	-2.074251	-0.111285	-0.144864	8
C	-0.656321	0.029385	-0.075714	6
C	0.251099	-0.655245	-1.146434	6
C	1.297210	-0.288805	-0.029394	6
C	0.173929	-0.829405	0.931116	6
O	1.307609	1.160915	0.096836	8
C	-0.100881	1.459585	0.053796	6
H	-2.405941	0.178445	0.722646	1
H	0.368850	-0.125585	-2.095964	1
H	0.077569	-1.718855	-1.340954	1
H	2.279860	-0.758895	-0.031614	1
H	-0.007201	-1.909285	0.933546	1
H	0.217059	-0.463925	1.960926	1
H	-0.323880	2.083155	-0.816594	1
H	-0.404711	1.949795	0.982666	1
Es	-0.413035	0.758939	-0.007354	99
Es	0.768512	1.270797	0.078020	99
Es	-2.170419	0.092754	-0.349751	99
Es	-0.319582	1.792638	0.690520	99
Es	0.173944	-0.829354	0.931050	99
Es	1.297079	-0.288606	-0.029378	99
Es	-2.128981	-0.409218	-0.163480	99
Es	0.251099	-0.655200	-1.146338	99
Es	1.436151	1.270801	-0.157544	99
Es	-0.100664	1.459493	0.053813	99
Es	1.404767	1.220889	0.381190	99
Es	-0.656483	0.029327	-0.075724	99
Es	0.801379	-0.601762	0.533881	99
Es	1.307318	1.160691	0.096788	99
Es	0.053070	-1.557160	0.912612	99
Es	-1.540345	-0.047561	-0.099462	99
Es	0.845547	-0.498972	-0.667401	99
Es	-2.074066	-0.111168	-0.144606	99
Es	0.330124	-0.290932	-1.798559	99
Es	1.291158	0.606099	0.046773	99
Es	-2.234797	0.051025	0.327975	99
Es	-0.260736	1.883593	-0.537919	99
Es	-0.315140	-0.408813	0.507948	99
Es	0.135872	-1.375117	-1.255596	99
Es	1.971233	-0.596934	-0.029987	99
Es	-0.280360	-0.307993	-0.689733	99
Es	0.198482	-0.576715	1.642234	99
42
Properties=species:S:1:pos:R:3:Z:I:1 energy=-343.76611375176816 field_type=dipole dipole="0.000000 0.000000 0.000000" charge=0
O	-2.074251	-0.111285	-0.144864	8
C	-0.656321	0.029385	-0.075714	6
C	0.251099	-0.655245	-1.146434	6
C	1.297210	-0.288805	-0.029394	6
C	0.173929	-0.829405	0.931116	6
O	1.307609	1.160915	0.096836	8
C	-0.100881	1.459585	0.053796	6
H	-2.405941	0.178445	0.722646	1
H	0.368850	-0.125585	-2.095964	1
H	0.077569	-1.718855	-1.340954	1
H	2.279860	-0.758895	-0.031614	1
H	-0.007201	-1.909285	0.933546	1
H	0.217059	-0.463925	1.960926	1
H	-0.323880	2.083155	-0.816594	1
H	-0.404711	1.949795	0.982666	1
Es	-0.280342	-0.308231	-0.689732	99
Es	-2.074085	-0.111185	-0.144612	99
Es	-2.235093	0.049932	0.328384	99
Es	-2.130547	-0.409044	-0.166444	99
Es	-0.656482	0.029326	-0.075723	99
Es	0.198489	-0.576824	1.642175	99
Es	1.971159	-0.596905	-0.029994	99
Es	0.768230	1.271268	0.081535	99
Es	0.330057	-0.290885	-1.798411	99
Es	0.845639	-0.498959	-0.667411	99
Es	0.251098	-0.655207	-1.146348	99
Es	-1.539829	-0.047749	-0.099639	99
Es	1.297078	-0.288609	-0.029379	99
Es	1.307322	1.160695	0.096822	99
Es	1.290862	0.605814	0.048606	99
Es	0.173940	-0.829353	0.931049	99
Es	0.135883	-1.375140	-1.255741	99
Es	1.409544	1.223628	0.378536	99
Es	0.801519	-0.601883	0.533993	99
Es	0.052962	-1.557100	0.912600	99
Es	-0.413039	0.758904	-0.007466	99
Es	1.432027	1.267895	-0.160234	99
Es	-0.315195	-0.408477	0.508053	99
Es	-2.169067	0.093915	-0.347008	99
Es	-0.319600	1.792625	0.690469	99
Es	-0.260741	1.883592	-0.537918	99
Es	-0.100664	1.459494	0.053812	99
42
Properties=species:S:1:pos:R:3:Z:I:1 energy=-343.76611375176816 field_type=dipole dipole="0.000000 0.000000 0.000000" charge=0
O	-2.074251	-0.111285	-0.144864	8
C	-0.656321	0.029385	-0.075714	6
C	0.251099	-0.655245	-1.146434	6
C	1.297210	-0.288805	-0.029394	6
C	0.173929	-0.829405	0.931116	6
O	1.307609	1.160915	0.096836	8
C	-0.100881	1.459585	0.053796	6
H	-2.405941	0.178445	0.722646	1
H	0.368850	-0.125585	-2.095964	1
H	0.077569	-1.718855	-1.340954	1
H	2.279860	-0.758895	-0.031614	1
H	-0.007201	-1.909285	0.933546	1
H	0.217059	-0.463925	1.960926	1
H	-0.323880	2.083155	-0.816594	1
H	-0.404711	1.949795	0.982666	1
Es	1.297077	-0.288610	-0.029378	99
Es	-2.170589	0.092848	-0.349308	99
Es	0.173945	-0.829352	0.931049	99
Es	-0.100667	1.459496	0.053812	99
Es	0.801698	-0.601796	0.534043	99
Es	-1.539907	-0.047967	-0.099888	99
Es	1.408227	1.221909	0.379127	99
Es	1.307317	1.160716	0.096803	99
Es	0.330101	-0.290966	-1.798409	99
Es	-0.260753	1.883611	-0.537852	99
Es	-0.413086	0.758867	-0.007428	99
Es	0.768206	1.271358	0.081270	99
Es	0.135767	-1.375048	-1.255731	99
Es	-0.280399	-0.307848	-0.689644	99
Es	0.845655	-0.499216	-0.667590	99
Es	0.198491	-0.576907	1.642138	99
Es	0.251098	-0.655204	-1.146347	99
Es	1.433105	1.269509	-0.158723	99
Es	-2.074081	-0.111191	-0.144586	99
Es	1.291188	0.605820	0.046771	99
Es	-2.129411	-0.408442	-0.163797	99
Es	1.971069	-0.596816	-0.030060	99
Es	-0.656481	0.029325	-0.075722	99
Es	-0.319589	1.792598	0.690444	99
Es	-2.234636	0.050645	0.328247	99
Es	0.053097	-1.557047	0.912627	99
Es	-0.315314	-0.408754	0.508106	99
42
Properties=species:S:1:pos:R:3:Z:I:1 energy=-343.76611375176816 field_type=dipole dipole="0.000000 0.000000 0.000000" charge=0
O	-2.074251	-0.111285	-0.144864	8
C	-0.656321	0.029385	-0.075714	6
C	0.251099	-0.655245	-1.146434	6
C	1.297210	-0.288805	-0.029394	6
C	0.173929	-0.829405	0.931116	6
O	1.307609	1.160915	0.096836	8
C	-0.100881	1.459585	0.053796	6
H	-2.405941	0.178445	0.722646	1
H	0.368850	-0.125585	-2.095964	1
H	0.077569	-1.718855	-1.340954	1
H	2.279860	-0.758895	-0.031614	1
H	-0.007201	-1.909285	0.933546	1
H	0.217059	-0.463925	1.960926	1
H	-0.323880	2.083155	-0.816594	1
H	-0.404711	1.949795	0.982666	1
Es	0.845798	-0.499047	-0.667496	99
Es	0.801724	-0.601913	0.534063	99
Es	-0.319612	1.792559	0.690397	99
Es	1.307349	1.160712	0.096778	99
Es	0.053014	-1.556987	0.912634	99
Es	-0.260812	1.883596	-0.537790	99
Es	-2.170272	0.093258	-0.348303	99
Es	0.173944	-0.829350	0.931047	99
Es	0.198454	-0.576944	1.642123	99
Es	0.135893	-1.375041	-1.255771	99
Es	1.408947	1.222986	0.379294	99
Es	-2.129755	-0.407840	-0.165023	99
Es	-0.315328	-0.408535	0.508137	99
Es	-0.100665	1.459494	0.053812	99
Es	1.291172	0.605672	0.047116	99
Es	1.971031	-0.596785	-0.029997	99
Es	1.432350	1.268283	-0.158386	99
Es	-1.539568	-0.048124	-0.100064	99
Es	-2.074055	-0.111191	-0.144574	99
Es	0.251099	-0.655203	-1.146344	99
Es	-0.656480	0.029325	-0.075723	99
Es	-0.413091	0.758875	-0.007524	99
Es	1.297079	-0.288607	-0.029379	99
Es	0.768307	1.271720	0.080426	99
Es	-0.280508	-0.308157	-0.689781	99
Es	0.330083	-0.291009	-1.798355	99
Es	-2.234973	0.049792	0.328656	99
42
Properties=species:S:1:pos:R:3:Z:I:1 energy=-343.76611375176816 field_type=dipole dipole="0.000000 0.000000 0.000000" charge=0
O	-2.074251	-0.111285	-0.144864	8
C	-0.656321	0.029385	-0.075714	6
C	0.251099	-0.655245	-1.146434	6
C	1.297210	-0.288805	-0.029394	6
C	0.173929	-0.829405	0.931116	6
O	1.307609	1.160915	0.096836	8
C	-0.100881	1.459585	0.053796	6
H	-2.405941	0.178445	0.722646	1
H	0.368850	-0.125585	-2.095964	1
H	0.077569	-1.718855	-1.340954	1
H	2.279860	-0.758895	-0.031614	1
H	-0.007201	-1.909285	0.933546	1
H	0.217059	-0.463925	1.960926	1
H	-0.323880	2.083155	-0.816594	1
H	-0.404711	1.949795	0.982666	1
Es	-1.539566	-0.047855	-0.100084	99
Es	-2.130764	-0.408733	-0.165782	99
Es	1.291341	0.605469	0.047978	99
Es	-0.315441	-0.408631	0.508192	99
Es	0.330072	-0.291108	-1.798346	99
Es	1.433826	1.269398	-0.158669	99
Es	1.407534	1.221950	0.377992	99
Es	-0.280578	-0.308069	-0.689861	99
Es	-0.413142	0.758812	-0.007470	99
Es	-0.319589	1.792557	0.690379	99
Es	-0.100666	1.459494	0.053812	99
Es	-0.260766	1.883639	-0.537774	99
Es	-2.169352	0.093242	-0.347134	99
Es	1.307319	1.160694	0.096717	99
Es	0.053054	-1.556929	0.912655	99
Es	0.801860	-0.601890	0.534102	99
Es	0.768135	1.271816	0.081222	99
Es	1.970914	-0.596710	-0.029996	99
Es	-2.234898	0.050539	0.328280	99
Es	-2.074051	-0.111232	-0.144591	99
Es	1.297077	-0.288608	-0.029379	99
Es	-0.656478	0.029324	-0.075722	99
Es	0.845922	-0.499137	-0.667578	99
Es	0.251098	-0.655203	-1.146342	99
Es	0.198436	-0.576996	1.642093	99
Es	0.135881	-1.374943	-1.255765	99
Es	0.173946	-0.829348	0.931046	99
42
Properties=species:S:1:pos:R:3:Z:I:1 energy=-343.76611375176816 field_type=dipole dipole="0.000000 0.000000 0.000000" charge=0
O	-2.074251	-0.111285	-0.144864	8
C	-0.656321	0.029385	-0.075714	6
C	0.251099	-0.655245	-1.146434	6
C	1.297210	-0.288805	-0.029394	6
C	0.173929	-0.829405	0.931116	6
O	1.307609	1.160915	0.096836	8
C	-0.100881	1.459585	0.053796	6
H	-2.405941	0.178445	0.722646	1
H	0.368850	-0.125585	-2.095964	1
H	0.077569	-1.718855	-1.340954	1
H	2.279860	-0.758895	-0.031614	1
H	-0.007201	-1.909285	0.933546	1
H	0.217059	-0.463925	1.960926	1
H	-0.323880	2.083155	-0.816594	1
H	-0.404711	1.949795	0.982666	1
Es	0.198407	-0.577055	1.642064	99
Es	1.970853	-0.596674	-0.029991	99
Es	-2.169058	0.092989	-0.348606	99
Es	-0.260745	1.883597	-0.537724	99
Es	1.307444	1.160774	0.096817	99
Es	1.435043	1.270382	-0.157586	99
Es	-0.413201	0.758807	-0.007492	99
Es	-0.656483	0.029328	-0.075725	99
Es	1.297076	-0.288612	-0.029382	99
Es	-0.280612	-0.308107	-0.689891	99
Es	0.053003	-1.556839	0.912672	99
Es	0.330071	-0.291130	-1.798353	99
Es	1.291684	0.605743	0.047014	99
Es	-0.315463	-0.408615	0.508219	99
Es	-2.074050	-0.111154	-0.144604	99
Es	0.251100	-0.655200	-1.146341	99
Es	-1.539184	-0.049896	-0.099596	99
Es	0.801954	-0.601965	0.534093	99
Es	0.767970	1.271723	0.080258	99
Es	-0.319602	1.792600	0.690344	99
Es	-2.235363	0.051136	0.328302	99
Es	0.135888	-1.374878	-1.255768	99
Es	0.173945	-0.829353	0.931051	99
Es	0.846028	-0.499147	-0.667575	99
Es	-2.130979	-0.407139	-0.164792	99
Es	-0.100667	1.459495	0.053812	99
Es	1.406067	1.220732	0.378753	99
42
Properties=species:S:1:pos:R:3:Z:I:1 energy=-343.76611375176816 field_type=dipole dipole="0.000000 0.000000 0.000000" charge=0
O	-2.074251	-0.111285	-0.144864	8
C	-0.656321	0.029385	-0.075714	6
C	0.251099	-0.655245	-1.146434	6
C	1.297210	-0.288805	-0.029394	6
C	0.173929	-0.829405	0.931116	6
O	1.307609	1.160915	0.096836	8
C	-0.100881	1.459585	0.053796	6
H	-2.405941	0.178445	0.722646	1
H	0.368850	-0.125585	-2.095964	1
H	0.077569	-1.718855	-1.340954	1
H	2.279860	-0.758895	-0.031614	1
H	-0.007201	-1.909285	0.933546	1
H	0.217059	-0.463925	1.960926	1
H	-0.323880	2.083155	-0.816594	1
H	-0.404711	1.949795	0.982666	1
Es	-1.539312	-0.047601	-0.100129	99
Es	-0.280641	-0.308047	-0.689925	99
Es	0.053007	-1.556785	0.912716	99
Es	-0.260749	1.883592	-0.537693	99
Es	0.846165	-0.499094	-0.667677	99
Es	0.198380	-0.577100	1.642013	99
Es	1.970783	-0.596600	-0.030018	99
Es	-0.315509	-0.408622	0.508280	99
Es	0.767962	1.272161	0.080955	99
Es	0.251099	-0.655201	-1.146342	99
Es	-0.319606	1.792598	0.690308	99
Es	-2.129150	-0.407837	-0.163488	99
Es	1.433583	1.269108	-0.157953	99
Es	-2.074078	-0.111160	-0.144644	99
Es	0.329986	-0.291242	-1.798312	99
Es	1.297074	-0.288615	-0.029380	99
Es	0.802083	-0.601999	0.534159	99
Es	0.173946	-0.829347	0.931044	99
Es	-0.100667	1.459494	0.053812	99
Es	-2.235489	0.050968	0.328110	99
Es	1.307324	1.160711	0.096794	99
Es	-0.656476	0.029325	-0.075721	99
Es	1.407679	1.222053	0.377728	99
Es	0.135873	-1.374892	-1.255735	99
Es	-2.170608	0.091570	-0.349116	99
Es	-0.413238	0.758782	-0.007544	99
Es	1.291702	0.605320	0.047733	99
42
Properties=species:S:1:pos:R:3:Z:I:1 energy=-343.76611375176816 field_type=dipole dipole="0.000000 0.000000 0.000000" charge=0
O	-2.074251	-0.111285	-0.144864	8
C	-0.656321	0.029385	-0.075714	6
C	0.251099	-0.655245	-1.146434	6
C	1.297210	-0.288805	-0.029394	6
C	0.173929	-0.829405	0.931116	6
O	1.307609	1.160915	0.096836	8
C	-0.100881	1.459585	0.053796	6
H	-2.405941	0.178445	0.722646	1
H	0.368850	-0.125585	-2.095964	1
H	0.077569	-1.718855	-1.340954	1
H	2.279860	-0.758895	-0.031614	1
H	-0.007201	-1.909285	0.933546	1
H	0.217059	-0.463925	1.960926	1
H	-0.323880	2.083155	-0.816594	1
H	-0.404711	1.949795	0.982666	1
Es	0.330048	-0.291274	-1.798266	99
Es	1.432615	1.268060	-0.158037	99
Es	-2.127083	-0.407396	-0.163880	99
Es	0.173943	-0.829355	0.931052	99
Es	-0.260743	1.883645	-0.537608	99
Es	1.291592	0.605092	0.048156	99
Es	0.198477	-0.577190	1.642025	99
Es	-1.539474	-0.045796	-0.100143	99
Es	0.846192	-0.499116	-0.667632	99
Es	1.307344	1.160705	0.096792	99
Es	-2.236368	0.049237	0.328678	99
Es	1.408864	1.222751	0.376948	99
Es	-0.315638	-0.408704	0.508411	99
Es	0.053032	-1.556725	0.912688	99
Es	-0.319612	1.792537	0.690312	99
Es	-2.171568	0.091107	-0.349303	99
Es	1.970726	-0.596582	-0.030011	99
Es	-0.413275	0.758724	-0.007530	99
Es	-0.100667	1.459495	0.053812	99
Es	-0.656478	0.029327	-0.075722	99
Es	1.297075	-0.288613	-0.029379	99
Es	0.135950	-1.374794	-1.255802	99
Es	0.802105	-0.601949	0.534030	99
Es	0.251099	-0.655204	-1.146346	99
Es	-2.074138	-0.111184	-0.144646	99
Es	-0.280776	-0.308033	-0.690043	99
Es	0.767884	1.272775	0.081417	99
42
Properties=species:S:1:pos:R:3:Z:I:1 energy=-343.76611375176816 field_type=dipole dipole="0.000000 0.000000 0.000000" charge=0
O	-2.074251	-0.111285	-0.144864	8
C	-0.656321	0.029385	-0.075714	6
C	0.251099	-0.655245	-1.146434	6
C	1.297210	-0.288805	-0.029394	6
C	0.173929	-0.829405	0.931116	6
O	1.307609	1.160915	0.096836	8
C	-0.100881	1.459585	0.053796	6
H	-2.405941	0.178445	0.722646	1
H	0.368850	-0.125585	-2.095964	1
H	0.077569	-1.718855	-1.340954	1
H	2.279860	-0.758895	-0.031614	1
H	-0.007201	-1.909285	0.933546	1
H	0.217059	-0.463925	1.960926	1
H	-0.323880	2.083155	-0.816594	1
H	-0.404711	1.949795	0.982666	1
Es	-0.315590	-0.408729	0.508496	99
Es	0.135917	-1.374766	-1.255786	99
Es	-0.100669	1.459495	0.053812	99
Es	1.433664	1.269438	-0.157219	99
Es	1.970637	-0.596523	-0.029909	99
Es	0.846399	-0.499153	-0.667728	99
Es	-0.413361	0.758697	-0.007510	99
Es	-2.235520	0.050464	0.328489	99
Es	0.053002	-1.556679	0.912662	99
Es	-0.260741	1.883555	-0.537615	99
Es	1.407450	1.221657	0.377248	99
Es	-2.128943	-0.407195	-0.163656	99
Es	-1.538891	-0.047182	-0.100925	99
Es	0.767840	1.272481	0.081136	99
Es	-2.074109	-0.111205	-0.144640	99
Es	0.251100	-0.655199	-1.146341	99
Es	1.292086	0.605126	0.047242	99
Es	1.307320	1.160705	0.096835	99
Es	-2.171160	0.091079	-0.348557	99
Es	-0.280798	-0.308004	-0.690041	99
Es	1.297074	-0.288615	-0.029380	99
Es	0.198525	-0.577185	1.642094	99
Es	0.173942	-0.829350	0.931046	99
Es	-0.319590	1.792639	0.690200	99
Es	0.329981	-0.291335	-1.798254	99
Es	-0.656475	0.029325	-0.075722	99
Es	0.802034	-0.601998	0.533997	99
42
Properties=species:S:1:pos:R:3:Z:I:1 energy=-343.76611375176816 field_type=dipole dipole="0.000000 0.000000 0.000000" charge=0
O	-2.074251	-0.111285	-0.144864	8
C	-0.656321	0.029385	-0.075714	6
C	0.251099	-0.655245	-1.146434	6
C	1.297210	-0.288805	-0.029394	6
C	0.173929	-0.829405	0.931116	6
O	1.307609	1.160915	0.096836	8
C	-0.100881	1.459585	0.053796	6
H	-2.405941	0.178445	0.722646	1
H	0.368850	-0.125585	-2.095964	1
H	0.077569	-1.718855	-1.340954	1
H	2.279860	-0.758895	-0.031614	1
H	-0.007201	-1.909285	0.933546	1
H	0.217059	-0.463925	1.960926	1
H	-0.323880	2.083155	-0.816594	1
H	-0.404711	1.949795	0.982666	1
Es	-0.319604	1.792608	0.690210	99
Es	0.330018	-0.291393	-1.798230	99
Es	0.846370	-0.499178	-0.667729	99
Es	0.135929	-1.374716	-1.255794	99
Es	-1.538885	-0.047483	-0.100188	99
Es	-0.100664	1.459491	0.053813	99
Es	-0.260767	1.883566	-0.537593	99
Es	0.173945	-0.829352	0.931050	99
Es	1.291953	0.604956	0.047345	99
Es	1.970571	-0.596466	-0.030036	99
Es	1.307307	1.160684	0.096714	99
Es	-2.074033	-0.111207	-0.144583	99
Es	-0.656471	0.029324	-0.075720	99
Es	-2.129554	-0.407398	-0.164597	99
Es	-0.280889	-0.307929	-0.690085	99
Es	0.767876	1.272887	0.081305	99
Es	0.198386	-0.577261	1.641931	99
Es	0.053046	-1.556651	0.912744	99
Es	-0.413358	0.758679	-0.007528	99
Es	1.407793	1.221735	0.376898	99
Es	-2.235943	0.050491	0.328247	99
Es	0.802324	-0.602037	0.534222	99
Es	-2.170212	0.091574	-0.348159	99
Es	-0.315665	-0.408708	0.508459	99
Es	1.433480	1.269142	-0.157001	99
Es	0.251099	-0.655200	-1.146341	99
Es	1.297074	-0.288615	-0.029379	99
42
Properties=species:S:1:pos:R:3:Z:I:1 energy=-343.76611375176816 field_type=dipole dipole="0.000000 0.000000 0.000000" charge=0
O	-2.074251	-0.111285	-0.144864	8
C	-0.656321	0.029385	-0.075714	6
C	0.251099	-0.655245	-1.146434	6
C	1.297210	-0.288805	-0.029394	6
C	0.173929	-0.829405	0.931116	6
O	1.307609	1.160915	0.096836	8
C	-0.100881	1.459585	0.053796	6
H	-2.405941	0.178445	0.722646	1
H	0.368850	-0.125585	-2.095964	1
H	0.077569	-1.718855	-1.340954	1
H	2.279860	-0.758895	-0.031614	1
H	-0.007201	-1.909285	0.933546	1
H	0.217059	-0.463925	1.960926	1
H	-0.323880	2.083155	-0.816594	1
H	-0.404711	1.949795	0.982666	1
Es	-0.315797	-0.408657	0.508414	99
Es	-1.538689	-0.048197	-0.100301	99
Es	1.970483	-0.596414	-0.030020	99
Es	0.173945	-0.829344	0.931042	99
Es	-0.100668	1.459493	0.053812	99
Es	0.802354	-0.602072	0.534273	99
Es	1.434702	1.269968	-0.156034	99
Es	0.198375	-0.577321	1.641886	99
Es	0.053115	-1.556629	0.912759	99
Es	1.292157	0.604964	0.046786	99
Es	0.135928	-1.374632	-1.255819	99
Es	-0.413435	0.758670	-0.007424	99
Es	0.330003	-0.291405	-1.798228	99
Es	-2.128199	-0.405847	-0.162209	99
Es	-2.236066	0.050678	0.328364	99
Es	-0.260767	1.883586	-0.537551	99
Es	0.767799	1.273137	0.080652	99
Es	0.251099	-0.655198	-1.146338	99
Es	1.307331	1.160692	0.096845	99
Es	-0.280886	-0.307994	-0.690094	99
Es	-2.171514	0.090566	-0.350409	99
Es	1.406470	1.220653	0.377029	99
Es	1.297075	-0.288618	-0.029379	99
Es	-0.319559	1.792607	0.690141	99
Es	-2.074162	-0.111221	-0.144715	99
Es	-0.656470	0.029326	-0.075720	99
Es	0.846503	-0.499250	-0.667788	99
42
Properties=species:S:1:pos:R:3:Z:I:1 energy=-343.76611375176816 field_type=dipole dipole="0.000000 0.000000 0.000000" charge=0
O	-2.074251	-0.111285	-0.144864	8
C	-0.656321	0.029385	-0.075714	6
C	0.251099	-0.655245	-1.146434	6
C	1.297210	-0.288805	-0.029394	6
C	0.173929	-0.829405	0.931116	6
O	1.307609	1.160915	0.096836	8
C	-0.100881	1.459585	0.053796	6
H	-2.405941	0.178445	0.722646	1
H	0.368850	-0.125585	-2.095964	1
H	0.077569	-1.718855	-1.340954	1
H	2.279860	-0.758895	-0.031614	1
H	-0.007201	-1.909285	0.933546	1
H	0.217059	-0.463925	1.960926	1
H	-0.323880	2.083155	-0.816594	1
H	-0.404711	1.949795	0.982666	1
Es	-0.413398	0.758690	-0.007611	99
Es	1.292144	0.604789	0.048039	99
Es	1.297072	-0.288618	-0.029379	99
Es	-0.315810	-0.408477	0.508496	99
Es	-0.280914	-0.308126	-0.690110	99
Es	0.198346	-0.577392	1.641855	99
Es	-0.319600	1.792579	0.690179	99
Es	0.135937	-1.374632	-1.255839	99
Es	0.251100	-0.655200	-1.146342	99
Es	1.406329	1.221596	0.376905	99
Es	-0.260756	1.883588	-0.537506	99
Es	0.802541	-0.602129	0.534336	99
Es	-2.128691	-0.406249	-0.161832	99
Es	-0.100670	1.459495	0.053812	99
Es	-2.170723	0.089713	-0.350537	99
Es	0.329960	-0.291471	-1.798162	99
Es	1.970443	-0.596373	-0.030011	99
Es	-1.538607	-0.048401	-0.100082	99
Es	0.767763	1.273570	0.079225	99
Es	1.307321	1.160719	0.096819	99
Es	0.053001	-1.556560	0.912755	99
Es	-0.656471	0.029322	-0.075721	99
Es	-2.074093	-0.111188	-0.144648	99
Es	0.846552	-0.499231	-0.667797	99
Es	0.173946	-0.829349	0.931049	99
Es	1.434915	1.268752	-0.155735	99
Es	-2.236511	0.052124	0.327814	99
42
Properties=species:S:1:pos:R:3:Z:I:1 energy=-343.76611375176816 field_type=dipole dipole="0.000000 0.000000 0.000000" charge=0
O	-2.074251	-0.111285	-0.144864	8
C	-0.656321	0.029385	-0.075714	6
C	0.251099	-0.655245	-1.146434	6
C	1.297210	-0.288805	-0.029394	6
C	0.173929	-0.829405	0.931116	6
O	1.307609	1.160915	0.096836	8
C	-0.100881	1.459585	0.053796	6
H	-2.405941	0.178445	0.722646	1
H	0.368850	-0.125585	-2.095964	1
H	0.077569	-1.718855	-1.340954	1
H	2.279860	-0.758895	-0.031614	1
H	-0.007201	-1.909285	0.933546	1
H	0.217059	-0.463925	1.960926	1
H	-0.323880	2.083155	-0.816594	1
H	-0.404711	1.949795	0.982666	1
Es	0.802630	-0.602122	0.534403	99
Es	-0.100670	1.459494	0.053812	99
Es	0.330016	-0.291547	-1.798235	99
Es	-2.168549	0.092147	-0.346589	99
Es	0.251100	-0.655198	-1.146341	99
Es	-2.236599	0.050492	0.328283	99
Es	-0.315787	-0.408619	0.508482	99
Es	0.767652	1.273350	0.080958	99
Es	1.970353	-0.596345	-0.030044	99
Es	-0.260762	1.883596	-0.537490	99
Es	0.053049	-1.556521	0.912767	99
Es	-0.656471	0.029320	-0.075722	99
Es	0.173946	-0.829347	0.931046	99
Es	0.135979	-1.374544	-1.255772	99
Es	0.198268	-0.577395	1.641851	99
Es	-2.074022	-0.111207	-0.144602	99
Es	-1.538319	-0.048684	-0.099940	99
Es	1.433480	1.268733	-0.156341	99
Es	1.297072	-0.288618	-0.029380	99
Es	-0.413473	0.758662	-0.007559	99
Es	-2.131126	-0.406755	-0.166408	99
Es	1.307338	1.160702	0.096807	99
Es	-0.319588	1.792569	0.690106	99
Es	1.407593	1.221959	0.376101	99
Es	0.846552	-0.499215	-0.667733	99
Es	-0.281037	-0.308051	-0.690247	99
Es	1.292500	0.604683	0.047761	99
42
Properties=species:S:1:pos:R:3:Z:I:1 energy=-343.76611375176816 field_type=dipole dipole="0.000000 0.000000 0.000000" charge=0
O	-2.074251	-0.111285	-0.144864	8
C	-0.656321	0.029385	-0.075714	6
C	0.251099	-0.655245	-1.146434	6
C	1.297210	-0.288805	-0.029394	6
C	0.173929	-0.829405	0.931116	6
O	1.307609	1.160915	0.096836	8
C	-0.100881	1.459585	0.053796	6
H	-2.405941	0.178445	0.722646	1
H	0.368850	-0.125585	-2.095964	1
H	0.077569	-1.718855	-1.340954	1
H	2.279860	-0.758895	-0.031614	1
H	-0.007201	-1.909285	0.933546	1
H	0.217059	-0.463925	1.960926	1
H	-0.323880	2.083155	-0.816594	1
H	-0.404711	1.949795	0.982666	1
Es	-0.413500	0.758617	-0.007615	99
Es	0.846738	-0.499236	-0.667849	99
Es	-2.130905	-0.406158	-0.166173	99
Es	1.307347	1.160692	0.096881	99
Es	1.404797	1.219485	0.377297	99
Es	1.297072	-0.288618	-0.029380	99
Es	-1.538287	-0.048953	-0.100315	99
Es	0.767767	1.273585	0.079348	99
Es	-0.656468	0.029322	-0.075721	99
Es	1.436059	1.270871	-0.154067	99
Es	0.173945	-0.829347	0.931047	99
Es	1.292620	0.604800	0.045788	99
Es	-2.236243	0.050017	0.328709	99
Es	-0.315862	-0.408542	0.508499	99
Es	0.251100	-0.655199	-1.146341	99
Es	-2.074045	-0.111192	-0.144583	99
Es	0.135943	-1.374512	-1.255770	99
Es	1.970303	-0.596276	-0.030007	99
Es	0.802574	-0.602209	0.534427	99
Es	0.329964	-0.291584	-1.798216	99
Es	0.053071	-1.556452	0.912728	99
Es	-2.169147	0.092302	-0.346905	99
Es	-0.100669	1.459492	0.053813	99
Es	-0.260775	1.883628	-0.537396	99
Es	0.198304	-0.577460	1.641900	99
Es	-0.280990	-0.308055	-0.690238	99
Es	-0.319587	1.792520	0.690114	99
42
Properties=species:S:1:pos:R:3:Z:I:1 energy=-343.76611375176816 field_type=dipole dipole="0.000000 0.000000 0.000000" charge=0
O	-2.074251	-0.111285	-0.144864	8
C	-0.656321	0.029385	-0.075714	6
C	0.251099	-0.655245	-1.146434	6
C	1.297210	-0.288805	-0.029394	6
C	0.173929	-0.829405	0.931116	6
O	1.307609	1.160915	0.096836	8
C	-0.100881	1.459585	0.053796	6
H	-2.405941	0.178445	0.722646	1
H	0.368850	-0.125585	-2.095964	1
H	0.077569	-1.718855	-1.340954	1
H	2.279860	-0.758895	-0.031614	1
H	-0.007201	-1.909285	0.933546	1
H	0.217059	-0.463925	1.960926	1
H	-0.323880	2.083155	-0.816594	1
H	-0.404711	1.949795	0.982666	1
Es	-2.171228	0.088395	-0.350374	99
Es	-0.100668	1.459494	0.053812	99
Es	-1.538585	-0.046599	-0.100357	99
Es	-0.413520	0.758578	-0.007456	99
Es	0.135949	-1.374495	-1.255796	99
Es	1.405967	1.220877	0.376316	99
Es	0.329940	-0.291658	-1.798150	99
Es	1.970268	-0.596294	-0.029987	99
Es	-2.074098	-0.111178	-0.144634	99
Es	0.251100	-0.655197	-1.146338	99
Es	0.173944	-0.829353	0.931062	99
Es	1.435282	1.268967	-0.154631	99
Es	1.292372	0.604551	0.047502	99
Es	0.198261	-0.577553	1.641786	99
Es	-0.260791	1.883549	-0.537434	99
Es	0.767662	1.274365	0.079242	99
Es	0.802740	-0.602068	0.534442	99
Es	-0.319560	1.792611	0.690040	99
Es	1.307361	1.160701	0.096796	99
Es	-2.127801	-0.406984	-0.161357	99
Es	-0.281054	-0.307982	-0.690276	99
Es	0.053070	-1.556449	0.912732	99
Es	-2.236920	0.052407	0.327474	99
Es	0.846744	-0.499280	-0.667882	99
Es	-0.656464	0.029322	-0.075722	99
Es	-0.315917	-0.408567	0.508543	99
Es	1.297072	-0.288620	-0.029379	99
42
Properties=species:S:1:pos:R:3:Z:I:1 energy=-343.76611375176816 field_type=dipole dipole="0.000000 0.000000 0.000000" charge=0
O	-2.074251	-0.111285	-0.144864	8
C	-0.656321	0.029385	-0.075714	6
C	0.251099	-0.655245	-1.146434	6
C	1.297210	-0.288805	-0.029394	6
C	0.173929	-0.829405	0.931116	6
O	1.307609	1.160915	0.096836	8
C	-0.100881	1.459585	0.053796	6
H	-2.405941	0.178445	0.722646	1
H	0.368850	-0.125585	-2.095964	1
H	0.077569	-1.718855	-1.340954	1
H	2.279860	-0.758895	-0.031614	1