43
Properties=species:S:1:pos:R:3:Z:I:1 energy=-270.90576261977674 field_type=dipole dipole="0.000000 0.000000 0.000000" charge=0
C	-0.179096	-2.098002	-0.874025	6
C	-0.528826	-1.052022	0.179785	6
C	0.040444	0.342648	-0.139165	6
C	-0.446737	1.340458	0.885775	6
C	-1.201836	2.411808	0.605165	6
C	1.484443	0.342648	-0.139165	6
C	2.674604	0.342648	-0.139165	6
H	-0.675806	-3.045582	-0.641785	1
H	0.898054	-2.289083	-0.907795	1
H	-0.505006	-1.779042	-1.869045	1
H	-0.169766	-1.403592	1.156205	1
H	-1.622766	-0.991572	0.249575	1
H	-0.317906	0.640068	-1.133515	1
H	-0.156776	1.163178	1.920575	1
H	-1.517436	2.639708	-0.408105	1
H	-1.515726	3.089818	1.392795	1
H	3.740144	0.345918	-0.138105	1
Es	-0.564454	2.062731	0.697383	99
Es	1.484188	0.342648	-0.139166	99
Es	-1.274387	-1.001000	0.223353	99
Es	0.788296	0.340065	-0.136835	99
Es	-0.216779	-0.336801	0.022056	99
Es	0.040543	0.342652	-0.139111	99
Es	-1.201895	2.411884	0.605142	99
Es	2.094043	-0.015957	-0.163589	99
Es	3.371300	0.344215	-0.138508	99
Es	-1.418051	2.569409	-0.082196	99
Es	0.550754	-2.224236	-0.895836	99
Es	-0.188072	0.840854	0.369852	99
Es	-0.245261	1.207831	1.582696	99
Es	-0.528786	-1.051989	0.179742	99
Es	-1.419028	2.874163	1.133814	99
Es	-0.179113	-2.097975	-0.874002	99
Es	-0.521253	-2.741155	-0.712458	99
Es	-0.345618	-1.566283	-0.352785	99
Es	-0.446662	1.340337	0.885764	99
Es	2.674869	0.342650	-0.139160	99
Es	-0.187675	0.544103	-0.807310	99
Es	-1.105339	1.702773	0.783340	99
Es	-0.279049	-1.283832	0.847245	99
Es	2.090153	0.541979	-0.433030	99
Es	-0.403940	-1.874030	-1.552310	99
Es	2.088014	0.497417	0.184544	99
43
Properties=species:S:1:pos:R:3:Z:I:1 energy=-270.90576261977674 field_type=dipole dipole="0.000000 0.000000 0.000000" charge=0
C	-0.179096	-2.098002	-0.874025	6
C	-0.528826	-1.052022	0.179785	6
C	0.040444	0.342648	-0.139165	6
C	-0.446737	1.340458	0.885775	6
C	-1.201836	2.411808	0.605165	6
C	1.484443	0.342648	-0.139165	6
C	2.674604	0.342648	-0.139165	6
H	-0.675806	-3.045582	-0.641785	1
H	0.898054	-2.289083	-0.907795	1
H	-0.505006	-1.779042	-1.869045	1
H	-0.169766	-1.403592	1.156205	1
H	-1.622766	-0.991572	0.249575	1
H	-0.317906	0.640068	-1.133515	1
H	-0.156776	1.163178	1.920575	1
H	-1.517436	2.639708	-0.408105	1
H	-1.515726	3.089818	1.392795	1
H	3.740144	0.345918	-0.138105	1
Es	-1.201891	2.411885	0.605141	99
Es	-0.187795	0.544088	-0.807346	99
Es	-1.274364	-1.000998	0.223410	99
Es	-0.345509	-1.566262	-0.352729	99
Es	2.093976	-0.015344	-0.118679	99
Es	-1.105293	1.702838	0.783406	99
Es	2.088621	0.535909	0.162962	99
Es	-1.419021	2.874186	1.133818	99
Es	-0.216595	-0.336867	0.022172	99
Es	-0.245328	1.207864	1.582639	99
Es	-1.418133	2.569331	-0.082197	99
Es	-0.279127	-1.283758	0.847169	99
Es	0.550641	-2.224278	-0.895935	99
Es	-0.403966	-1.874124	-1.552331	99
Es	-0.564472	2.062707	0.697453	99
Es	2.089650	0.502595	-0.456383	99
Es	-0.187830	0.840864	0.369857	99
Es	-0.521200	-2.741150	-0.712393	99
Es	-0.528786	-1.051988	0.179741	99
Es	3.371297	0.344417	-0.138521	99
Es	1.484176	0.342651	-0.139163	99
Es	0.040545	0.342652	-0.139111	99
Es	0.788105	0.340241	-0.136950	99
Es	-0.446659	1.340342	0.885762	99
Es	-0.179115	-2.097977	-0.874002	99
Es	2.674871	0.342629	-0.139160	99
43
Properties=species:S:1:pos:R:3:Z:I:1 energy=-270.90576261977674 field_type=dipole dipole="0.000000 0.000000 0.000000" charge=0
C	-0.179096	-2.098002	-0.874025	6
C	-0.528826	-1.052022	0.179785	6
C	0.040444	0.342648	-0.139165	6
C	-0.446737	1.340458	0.885775	6
C	-1.201836	2.411808	0.605165	6
C	1.484443	0.342648	-0.139165	6
C	2.674604	0.342648	-0.139165	6
H	-0.675806	-3.045582	-0.641785	1
H	0.898054	-2.289083	-0.907795	1
H	-0.505006	-1.779042	-1.869045	1
H	-0.169766	-1.403592	1.156205	1
H	-1.622766	-0.991572	0.249575	1
H	-0.317906	0.640068	-1.133515	1
H	-0.156776	1.163178	1.920575	1
H	-1.517436	2.639708	-0.408105	1
H	-1.515726	3.089818	1.392795	1
H	3.740144	0.345918	-0.138105	1
Es	-0.528786	-1.051988	0.179742	99
Es	0.788107	0.340481	-0.136795	99
Es	-0.345538	-1.566195	-0.352715	99
Es	1.484177	0.342650	-0.139166	99
Es	2.674869	0.342647	-0.139155	99
Es	-0.446659	1.340342	0.885763	99
Es	-1.201893	2.411883	0.605140	99
Es	2.087238	0.253352	0.211187	99
Es	-1.418927	2.874286	1.133800	99
Es	-0.521189	-2.741168	-0.712485	99
Es	-0.179115	-2.097977	-0.874002	99
Es	-1.274315	-1.001042	0.223349	99
Es	-1.105324	1.702955	0.783417	99
Es	-0.564728	2.062391	0.697490	99
Es	-0.216756	-0.337088	0.022176	99
Es	-0.403951	-1.874124	-1.552251	99
Es	0.040545	0.342652	-0.139111	99
Es	-0.279113	-1.283787	0.847247	99
Es	2.092048	0.082934	-0.387349	99
Es	-1.417986	2.569373	-0.082255	99
Es	-0.187544	0.544139	-0.807435	99
Es	-0.245264	1.207873	1.582772	99
Es	-0.187874	0.841038	0.369733	99
Es	2.092861	0.686894	-0.235966	99
Es	3.371248	0.344201	-0.138521	99
Es	0.550667	-2.224267	-0.895979	99
43
Properties=species:S:1:pos:R:3:Z:I:1 energy=-270.90576261977674 field_type=dipole dipole="0.000000 0.000000 0.000000" charge=0
C	-0.179096	-2.098002	-0.874025	6
C	-0.528826	-1.052022	0.179785	6
C	0.040444	0.342648	-0.139165	6
C	-0.446737	1.340458	0.885775	6
C	-1.201836	2.411808	0.605165	6
C	1.484443	0.342648	-0.139165	6
C	2.674604	0.342648	-0.139165	6
H	-0.675806	-3.045582	-0.641785	1
H	0.898054	-2.289083	-0.907795	1
H	-0.505006	-1.779042	-1.869045	1
H	-0.169766	-1.403592	1.156205	1
H	-1.622766	-0.991572	0.249575	1
H	-0.317906	0.640068	-1.133515	1
H	-0.156776	1.163178	1.920575	1
H	-1.517436	2.639708	-0.408105	1
H	-1.515726	3.089818	1.392795	1
H	3.740144	0.345918	-0.138105	1
Es	-0.187527	0.544117	-0.807417	99
Es	-1.418114	2.569316	-0.082223	99
Es	3.371251	0.344167	-0.138367	99
Es	-0.404001	-1.874283	-1.552255	99
Es	-0.279219	-1.283752	0.847186	99
Es	-0.446644	1.340348	0.885760	99
Es	0.788002	0.340397	-0.136792	99
Es	-0.521073	-2.741181	-0.712415	99
Es	-1.419001	2.874224	1.133858	99
Es	-0.345576	-1.566188	-0.352706	99
Es	-0.528787	-1.051989	0.179742	99
Es	0.550625	-2.224212	-0.896054	99
Es	2.092434	0.665789	-0.290345	99
Es	2.674874	0.342645	-0.139166	99
Es	-1.274249	-1.001036	0.223389	99
Es	-0.564712	2.062524	0.697461	99
Es	-0.245377	1.207929	1.582797	99
Es	-0.187801	0.841007	0.369764	99
Es	-0.179115	-2.097978	-0.874003	99
Es	-0.216643	-0.337117	0.022232	99
Es	-1.201893	2.411884	0.605141	99
Es	2.086868	0.310909	0.221103	99
Es	2.092843	0.046663	-0.343095	99
Es	1.484174	0.342650	-0.139163	99
Es	-1.105082	1.702967	0.783309	99
Es	0.040543	0.342654	-0.139111	99
43
Properties=species:S:1:pos:R:3:Z:I:1 energy=-270.90576261977674 field_type=dipole dipole="0.000000 0.000000 0.000000" charge=0
C	-0.179096	-2.098002	-0.874025	6
C	-0.528826	-1.052022	0.179785	6
C	0.040444	0.342648	-0.139165	6
C	-0.446737	1.340458	0.885775	6
C	-1.201836	2.411808	0.605165	6
C	1.484443	0.342648	-0.139165	6
C	2.674604	0.342648	-0.139165	6
H	-0.675806	-3.045582	-0.641785	1
H	0.898054	-2.289083	-0.907795	1
H	-0.505006	-1.779042	-1.869045	1
H	-0.169766	-1.403592	1.156205	1
H	-1.622766	-0.991572	0.249575	1
H	-0.317906	0.640068	-1.133515	1
H	-0.156776	1.163178	1.920575	1
H	-1.517436	2.639708	-0.408105	1
H	-1.515726	3.089818	1.392795	1
H	3.740144	0.345918	-0.138105	1
Es	-0.187870	0.840958	0.369581	99
Es	2.092726	0.007588	-0.007155	99
Es	2.674870	0.342645	-0.139159	99
Es	-0.446657	1.340341	0.885761	99
Es	0.040541	0.342652	-0.139111	99
Es	-0.279231	-1.283704	0.847145	99
Es	-0.216746	-0.337095	0.022208	99
Es	0.787863	0.340272	-0.136648	99
Es	-0.564809	2.062482	0.697486	99
Es	-0.187448	0.544130	-0.807372	99
Es	-0.528787	-1.051989	0.179743	99
Es	1.484173	0.342652	-0.139163	99
Es	-1.201891	2.411880	0.605140	99
Es	-1.418071	2.569332	-0.082242	99
Es	-0.179116	-2.097978	-0.874001	99
Es	-0.245343	1.207968	1.582876	99
Es	2.090625	0.620780	0.085245	99
Es	-0.520940	-2.741133	-0.712504	99
Es	0.550693	-2.224172	-0.896044	99
Es	2.089044	0.395136	-0.490288	99
Es	-1.419052	2.874194	1.133868	99
Es	-1.104940	1.703000	0.783298	99
Es	-1.274228	-1.001030	0.223451	99
Es	-0.345686	-1.566375	-0.352623	99
Es	3.371177	0.344167	-0.138583	99
Es	-0.404097	-1.874249	-1.552279	99
43
Properties=species:S:1:pos:R:3:Z:I:1 energy=-270.90576261977674 field_type=dipole dipole="0.000000 0.000000 0.000000" charge=0
C	-0.179096	-2.098002	-0.874025	6
C	-0.528826	-1.052022	0.179785	6
C	0.040444	0.342648	-0.139165	6
C	-0.446737	1.340458	0.885775	6
C	-1.201836	2.411808	0.605165	6
C	1.484443	0.342648	-0.139165	6
C	2.674604	0.342648	-0.139165	6
H	-0.675806	-3.045582	-0.641785	1
H	0.898054	-2.289083	-0.907795	1
H	-0.505006	-1.779042	-1.869045	1
H	-0.169766	-1.403592	1.156205	1
H	-1.622766	-0.991572	0.249575	1
H	-0.317906	0.640068	-1.133515	1
H	-0.156776	1.163178	1.920575	1
H	-1.517436	2.639708	-0.408105	1
H	-1.515726	3.089818	1.392795	1
H	3.740144	0.345918	-0.138105	1
Es	2.087938	0.487983	0.189271	99
Es	0.787696	0.340348	-0.136860	99
Es	-0.187751	0.840997	0.369596	99
Es	3.371149	0.344277	-0.138507	99
Es	2.674868	0.342648	-0.139160	99
Es	-1.104829	1.703064	0.783319	99
Es	-0.279272	-1.283707	0.847127	99
Es	-1.418108	2.569312	-0.082263	99
Es	-1.274193	-1.001036	0.223464	99
Es	2.094122	-0.015181	-0.174256	99
Es	1.484175	0.342648	-0.139165	99
Es	-0.179115	-2.097978	-0.874003	99
Es	-1.419050	2.874186	1.133882	99
Es	-0.216688	-0.337199	0.022298	99
Es	-0.403931	-1.874248	-1.552279	99
Es	-0.528787	-1.051989	0.179743	99
Es	-0.446661	1.340344	0.885763	99
Es	0.040543	0.342652	-0.139112	99
Es	-0.345591	-1.566270	-0.352619	99
Es	-0.187430	0.544183	-0.807406	99
Es	0.550560	-2.224293	-0.896036	99
Es	2.090327	0.550526	-0.427155	99
Es	-1.201894	2.411881	0.605141	99
Es	-0.245405	1.207939	1.582848	99
Es	-0.564823	2.062508	0.697556	99
Es	-0.521050	-2.741143	-0.712556	99
43
Properties=species:S:1:pos:R:3:Z:I:1 energy=-270.90576261977674 field_type=dipole dipole="0.000000 0.000000 0.000000" charge=0
C	-0.179096	-2.098002	-0.874025	6
C	-0.528826	-1.052022	0.179785	6
C	0.040444	0.342648	-0.139165	6
C	-0.446737	1.340458	0.885775	6
C	-1.201836	2.411808	0.605165	6
C	1.484443	0.342648	-0.139165	6
C	2.674604	0.342648	-0.139165	6
H	-0.675806	-3.045582	-0.641785	1
H	0.898054	-2.289083	-0.907795	1
H	-0.505006	-1.779042	-1.869045	1
H	-0.169766	-1.403592	1.156205	1
H	-1.622766	-0.991572	0.249575	1
H	-0.317906	0.640068	-1.133515	1
H	-0.156776	1.163178	1.920575	1
H	-1.517436	2.639708	-0.408105	1
H	-1.515726	3.089818	1.392795	1
H	3.740144	0.345918	-0.138105	1
Es	-0.187324	0.544207	-0.807445	99
Es	-0.564909	2.062423	0.697640	99
Es	-0.245363	1.207968	1.582805	99
Es	3.371134	0.344101	-0.138414	99
Es	0.787733	0.340551	-0.136698	99
Es	-0.179115	-2.097976	-0.874001	99
Es	-1.104941	1.703040	0.783342	99
Es	-0.279338	-1.283698	0.847094	99
Es	-0.521014	-2.741181	-0.712632	99
Es	-0.187698	0.841074	0.369556	99
Es	2.674866	0.342648	-0.139166	99
Es	0.550577	-2.224255	-0.896097	99
Es	-1.274162	-1.001036	0.223462	99
Es	-0.216653	-0.337358	0.022328	99
Es	2.092974	0.690182	-0.224079	99
Es	-0.528785	-1.051988	0.179742	99
Es	-1.419005	2.874150	1.133898	99
Es	-0.403927	-1.874270	-1.552197	99
Es	-0.446661	1.340346	0.885762	99
Es	0.040542	0.342652	-0.139113	99
Es	2.087387	0.241692	0.208044	99
Es	2.091879	0.091507	-0.396343	99
Es	-1.201892	2.411884	0.605142	99
Es	-1.418028	2.569438	-0.082275	99
Es	-0.345649	-1.566298	-0.352559	99
Es	1.484170	0.342650	-0.139163	99
43
Properties=species:S:1:pos:R:3:Z:I:1 energy=-270.90576261977674 field_type=dipole dipole="0.000000 0.000000 0.000000" charge=0
C	-0.179096	-2.098002	-0.874025	6
C	-0.528826	-1.052022	0.179785	6
C	0.040444	0.342648	-0.139165	6
C	-0.446737	1.340458	0.885775	6
C	-1.201836	2.411808	0.605165	6
C	1.484443	0.342648	-0.139165	6
C	2.674604	0.342648	-0.139165	6
H	-0.675806	-3.045582	-0.641785	1
H	0.898054	-2.289083	-0.907795	1
H	-0.505006	-1.779042	-1.869045	1
H	-0.169766	-1.403592	1.156205	1
H	-1.622766	-0.991572	0.249575	1
H	-0.317906	0.640068	-1.133515	1
H	-0.156776	1.163178	1.920575	1
H	-1.517436	2.639708	-0.408105	1
H	-1.515726	3.089818	1.392795	1
H	3.740144	0.345918	-0.138105	1
Es	-0.403880	-1.874296	-1.552248	99
Es	-0.179114	-2.097978	-0.874002	99
Es	2.093429	-0.007254	-0.054983	99
Es	-0.521033	-2.741140	-0.712625	99
Es	-0.446664	1.340342	0.885763	99
Es	-0.245478	1.208012	1.582915	99
Es	-0.564916	2.062445	0.697587	99
Es	-1.104678	1.703136	0.783286	99
Es	-1.419064	2.874172	1.133889	99
Es	-0.187310	0.544235	-0.807392	99
Es	2.089824	0.586926	0.122237	99
Es	-0.216662	-0.337387	0.022326	99
Es	3.371069	0.344262	-0.138635	99
Es	0.787408	0.340400	-0.136784	99
Es	0.040541	0.342654	-0.139117	99
Es	0.550504	-2.224333	-0.896076	99
Es	2.089252	0.443731	-0.479395	99
Es	2.674865	0.342642	-0.139161	99
Es	-1.201891	2.411881	0.605141	99
Es	-1.418116	2.569304	-0.082276	99
Es	-0.279334	-1.283674	0.847084	99
Es	-1.274120	-1.001052	0.223513	99
Es	-0.187616	0.841025	0.369587	99
Es	-0.345606	-1.566262	-0.352582	99
Es	1.484176	0.342650	-0.139164	99
Es	-0.528786	-1.051988	0.179743	99
43
Properties=species:S:1:pos:R:3:Z:I:1 energy=-270.90576261977674 field_type=dipole dipole="0.000000 0.000000 0.000000" charge=0
C	-0.179096	-2.098002	-0.874025	6
C	-0.528826	-1.052022	0.179785	6
C	0.040444	0.342648	-0.139165	6
C	-0.446737	1.340458	0.885775	6
C	-1.201836	2.411808	0.605165	6
C	1.484443	0.342648	-0.139165	6
C	2.674604	0.342648	-0.139165	6
H	-0.675806	-3.045582	-0.641785	1
H	0.898054	-2.289083	-0.907795	1
H	-0.505006	-1.779042	-1.869045	1
H	-0.169766	-1.403592	1.156205	1
H	-1.622766	-0.991572	0.249575	1
H	-0.317906	0.640068	-1.133515	1
H	-0.156776	1.163178	1.920575	1
H	-1.517436	2.639708	-0.408105	1
H	-1.515726	3.089818	1.392795	1
H	3.740144	0.345918	-0.138105	1
Es	1.484176	0.342651	-0.139164	99
Es	-0.520945	-2.741155	-0.712603	99
Es	-1.419157	2.874122	1.133915	99
Es	-0.216647	-0.337387	0.022485	99
Es	0.787342	0.340475	-0.136587	99
Es	2.674868	0.342646	-0.139159	99
Es	2.092020	0.667574	0.009530	99
Es	-0.245581	1.207956	1.582968	99
Es	-0.446659	1.340349	0.885761	99
Es	0.040542	0.342651	-0.139113	99
Es	-0.279392	-1.283663	0.847003	99
Es	-0.564894	2.062550	0.697646	99
Es	-0.345545	-1.566247	-0.352588	99
Es	-0.403939	-1.874356	-1.552239	99
Es	-0.187665	0.841024	0.369496	99
Es	3.371051	0.344120	-0.138637	99
Es	2.091279	0.049399	0.071533	99
Es	-1.274092	-1.001086	0.223555	99
Es	-1.201891	2.411871	0.605146	99
Es	-0.179114	-2.097979	-0.874003	99
Es	-1.418216	2.569207	-0.082309	99
Es	-1.104359	1.703275	0.783249	99
Es	2.089190	0.306545	-0.493305	99
Es	-0.187245	0.544205	-0.807531	99
Es	-0.528788	-1.051989	0.179743	99
Es	0.550462	-2.224306	-0.896160	99
43
Properties=species:S:1:pos:R:3:Z:I:1 energy=-270.90576261977674 field_type=dipole dipole="0.000000 0.000000 0.000000" charge=0
C	-0.179096	-2.098002	-0.874025	6
C	-0.528826	-1.052022	0.179785	6
C	0.040444	0.342648	-0.139165	6
C	-0.446737	1.340458	0.885775	6
C	-1.201836	2.411808	0.605165	6
C	1.484443	0.342648	-0.139165	6
C	2.674604	0.342648	-0.139165	6
H	-0.675806	-3.045582	-0.641785	1
H	0.898054	-2.289083	-0.907795	1
H	-0.505006	-1.779042	-1.869045	1
H	-0.169766	-1.403592	1.156205	1
H	-1.622766	-0.991572	0.249575	1
H	-0.317906	0.640068	-1.133515	1
H	-0.156776	1.163178	1.920575	1
H	-1.517436	2.639708	-0.408105	1
H	-1.515726	3.089818	1.392795	1
H	3.740144	0.345918	-0.138105	1
Es	-0.520933	-2.741162	-0.712645	99
Es	-0.245523	1.207937	1.582946	99
Es	0.040537	0.342653	-0.139110	99
Es	2.093887	0.002075	-0.254902	99
Es	-0.403854	-1.874373	-1.552283	99
Es	0.550415	-2.224307	-0.896093	99
Es	-0.565007	2.062408	0.697688	99
Es	-0.179114	-2.097979	-0.874003	99
Es	0.787200	0.340677	-0.136814	99
Es	2.674865	0.342648	-0.139158	99
Es	-1.104464	1.703279	0.783276	99
Es	-1.201891	2.411880	0.605142	99
Es	-0.216543	-0.337532	0.022371	99
Es	3.371052	0.344237	-0.138485	99
Es	-0.528788	-1.051990	0.179742	99
Es	-0.187144	0.544207	-0.807553	99
Es	-0.187656	0.841169	0.369457	99
Es	1.484175	0.342649	-0.139164	99
Es	-1.418157	2.569299	-0.082318	99
Es	2.091378	0.611579	-0.372365	99
Es	2.087167	0.409603	0.215068	99
Es	-1.419072	2.874140	1.133949	99
Es	-0.446662	1.340346	0.885762	99
Es	-0.279422	-1.283554	0.847055	99
Es	-0.345584	-1.566317	-0.352450	99
Es	-1.274064	-1.001118	0.223520	99
43
Properties=species:S:1:pos:R:3:Z:I:1 energy=-270.90576261977674 field_type=dipole dipole="0.000000 0.000000 0.000000" charge=0
C	-0.179096	-2.098002	-0.874025	6
C	-0.528826	-1.052022	0.179785	6
C	0.040444	0.342648	-0.139165	6
C	-0.446737	1.340458	0.885775	6
C	-1.201836	2.411808	0.605165	6
C	1.484443	0.342648	-0.139165	6
C	2.674604	0.342648	-0.139165	6
H	-0.675806	-3.045582	-0.641785	1
H	0.898054	-2.289083	-0.907795	1
H	-0.505006	-1.779042	-1.869045	1
H	-0.169766	-1.403592	1.156205	1
H	-1.622766	-0.991572	0.249575	1
H	-0.317906	0.640068	-1.133515	1
H	-0.156776	1.163178	1.920575	1
H	-1.517436	2.639708	-0.408105	1
H	-1.515726	3.089818	1.392795	1
H	3.740144	0.345918	-0.138105	1
Es	-1.419000	2.874273	1.133951	99
Es	-0.446665	1.340347	0.885763	99
Es	-0.521094	-2.741073	-0.712719	99
Es	-0.528788	-1.051991	0.179744	99
Es	-0.179116	-2.097984	-0.874005	99
Es	-0.565245	2.062173	0.697651	99
Es	-0.216511	-0.337725	0.022469	99
Es	0.040542	0.342652	-0.139112	99
Es	0.787264	0.340740	-0.136766	99
Es	1.484185	0.342655	-0.139159	99
Es	2.087586	0.219944	0.202191	99
Es	2.093127	0.694415	-0.202901	99
Es	-1.418124	2.569217	-0.082333	99
Es	-0.403734	-1.874335	-1.552254	99
Es	-0.245474	1.208106	1.582985	99
Es	-0.187145	0.544274	-0.807520	99
Es	-1.104443	1.703345	0.783340	99
Es	-0.187420	0.841166	0.369435	99
Es	-0.279447	-1.283624	0.847014	99
Es	2.674869	0.342646	-0.139159	99
Es	0.550410	-2.224487	-0.896053	99
Es	2.091554	0.109018	-0.411623	99
Es	-1.201894	2.411893	0.605137	99
Es	-0.345701	-1.566318	-0.352565	99
Es	-1.273984	-1.000942	0.223620	99
Es	3.371048	0.344068	-0.138495	99
43
Properties=species:S:1:pos:R:3:Z:I:1 energy=-270.90576261977674 field_type=dipole dipole="0.000000 0.000000 0.000000" charge=0
C	-0.179096	-2.098002	-0.874025	6
C	-0.528826	-1.052022	0.179785	6
C	0.040444	0.342648	-0.139165	6
C	-0.446737	1.340458	0.885775	6
C	-1.201836	2.411808	0.605165	6
C	1.484443	0.342648	-0.139165	6
C	2.674604	0.342648	-0.139165	6
H	-0.675806	-3.045582	-0.641785	1
H	0.898054	-2.289083	-0.907795	1
H	-0.505006	-1.779042	-1.869045	1
H	-0.169766	-1.403592	1.156205	1
H	-1.622766	-0.991572	0.249575	1
H	-0.317906	0.640068	-1.133515	1
H	-0.156776	1.163178	1.920575	1
H	-1.517436	2.639708	-0.408105	1
H	-1.515726	3.089818	1.392795	1
H	3.740144	0.345918	-0.138105	1
Es	2.674866	0.342655	-0.139155	99
Es	2.089114	0.343494	-0.494806	99
Es	-1.273980	-1.001031	0.223588	99
Es	-1.201886	2.411870	0.605139	99
Es	-0.187328	0.841146	0.369364	99
Es	-0.245486	1.208117	1.582997	99
Es	-1.418979	2.874222	1.133967	99
Es	-0.446663	1.340346	0.885764	99
Es	0.040542	0.342652	-0.139112	99
Es	0.787002	0.340652	-0.136644	99
Es	2.092039	0.029375	0.039172	99
Es	1.484182	0.342645	-0.139159	99
Es	-0.528788	-1.051991	0.179743	99
Es	-1.418096	2.569318	-0.082313	99
Es	0.550383	-2.224397	-0.896161	99
Es	-0.565292	2.062169	0.697683	99
Es	2.091483	0.650426	0.043288	99
Es	-0.179114	-2.097978	-0.874003	99
Es	3.370920	0.344261	-0.138588	99
Es	-0.279487	-1.283580	0.847012	99
Es	-0.403797	-1.874390	-1.552204	99
Es	-1.104487	1.703272	0.783295	99
Es	-0.216621	-0.337682	0.022528	99
Es	-0.345613	-1.566291	-0.352507	99
Es	-0.187140	0.544311	-0.807512	99
Es	-0.520973	-2.741141	-0.712744	99
43
Properties=species:S:1:pos:R:3:Z:I:1 energy=-270.90576261977674 field_type=dipole dipole="0.000000 0.000000 0.000000" charge=0
C	-0.179096	-2.098002	-0.874025	6
C	-0.528826	-1.052022	0.179785	6
C	0.040444	0.342648	-0.139165	6
C	-0.446737	1.340458	0.885775	6
C	-1.201836	2.411808	0.605165	6
C	1.484443	0.342648	-0.139165	6
C	2.674604	0.342648	-0.139165	6
H	-0.675806	-3.045582	-0.641785	1
H	0.898054	-2.289083	-0.907795	1
H	-0.505006	-1.779042	-1.869045	1
H	-0.169766	-1.403592	1.156205	1
H	-1.622766	-0.991572	0.249575	1
H	-0.317906	0.640068	-1.133515	1
H	-0.156776	1.163178	1.920575	1
H	-1.517436	2.639708	-0.408105	1
H	-1.515726	3.089818	1.392795	1
H	3.740144	0.345918	-0.138105	1
Es	2.093375	-0.005149	-0.045726	99
Es	3.370900	0.344255	-0.138663	99
Es	-0.520869	-2.741157	-0.712640	99
Es	0.550387	-2.224320	-0.896289	99
Es	-0.187351	0.841227	0.369265	99
Es	-0.216567	-0.337587	0.022650	99
Es	-0.403969	-1.874423	-1.552189	99
Es	-0.528789	-1.051991	0.179743	99
Es	-0.187206	0.544208	-0.807426	99
Es	-0.446664	1.340345	0.885763	99
Es	2.674863	0.342648	-0.139163	99
Es	0.787000	0.340572	-0.136955	99
Es	-0.345562	-1.566359	-0.352498	99
Es	-1.104262	1.703408	0.783268	99
Es	-0.565295	2.062162	0.697741	99
Es	-0.245557	1.208067	1.583052	99
Es	-0.279637	-1.283618	0.847042	99
Es	0.040540	0.342646	-0.139111	99
Es	-0.179112	-2.097984	-0.874008	99
Es	-1.273847	-1.001041	0.223521	99
Es	-1.419078	2.874221	1.133977	99
Es	-1.201889	2.411880	0.605142	99
Es	-1.418093	2.569246	-0.082336	99
Es	2.090042	0.593876	0.115677	99
Es	1.484173	0.342649	-0.139164	99
Es	2.089265	0.434671	-0.482041	99
43
Properties=species:S:1:pos:R:3:Z:I:1 energy=-270.90576261977674 field_type=dipole dipole="0.000000 0.000000 0.000000" charge=0
C	-0.179096	-2.098002	-0.874025	6
C	-0.528826	-1.052022	0.179785	6
C	0.040444	0.342648	-0.139165	6
C	-0.446737	1.340458	0.885775	6
C	-1.201836	2.411808	0.605165	6
C	1.484443	0.342648	-0.139165	6
C	2.674604	0.342648	-0.139165	6
H	-0.675806	-3.045582	-0.641785	1
H	0.898054	-2.289083	-0.907795	1
H	-0.505006	-1.779042	-1.869045	1
H	-0.169766	-1.403592	1.156205	1
H	-1.622766	-0.991572	0.249575	1
H	-0.317906	0.640068	-1.133515	1
H	-0.156776	1.163178	1.920575	1
H	-1.517436	2.639708	-0.408105	1
H	-1.515726	3.089818	1.392795	1
H	3.740144	0.345918	-0.138105	1
Es	-1.419008	2.874241	1.133956	99
Es	-0.187233	0.841143	0.369224	99
Es	2.674862	0.342649	-0.139159	99
Es	-1.104248	1.703418	0.783312	99
Es	3.370895	0.344262	-0.138540	99
Es	2.094182	-0.016500	-0.160075	99
Es	0.550324	-2.224453	-0.896164	99
Es	-0.345635	-1.566298	-0.352456	99
Es	0.786856	0.340588	-0.136853	99
Es	-0.446661	1.340347	0.885762	99
Es	0.040540	0.342651	-0.139113	99
Es	-0.279519	-1.283541	0.846943	99
Es	-0.245559	1.208169	1.583066	99
Es	1.484179	0.342648	-0.139160	99
Es	2.090247	0.538970	-0.435295	99
Es	-0.520952	-2.741103	-0.712782	99
Es	-1.201890	2.411879	0.605142	99
Es	-1.418115	2.569246	-0.082360	99
Es	-0.528788	-1.051991	0.179747	99
Es	2.088231	0.500883	0.183199	99
Es	-0.216637	-0.337738	0.022606	99
Es	-0.403751	-1.874442	-1.552222	99
Es	-0.179111	-2.097981	-0.874004	99
Es	-0.565415	2.062085	0.697750	99
Es	-1.273940	-1.001035	0.223661	99
Es	-0.187052	0.544354	-0.807552	99
