45
Properties=species:S:1:pos:R:3:Z:I:1 energy=-344.9997816954858 field_type=dipole dipole="0.000000 0.000000 0.000000" charge=0
O	-1.614156	0.289305	1.337518	8
C	-0.187876	0.301505	1.211328	6
C	0.247854	-1.058535	0.673728	6
C	-0.125266	-1.208935	-0.800232	6
C	0.363984	-0.013205	-1.605662	6
O	-0.148646	1.208975	-1.070692	8
C	0.282324	1.426195	0.278738	6
H	-1.938756	1.195795	1.202838	1
H	0.218644	0.459595	2.214668	1
H	-0.220636	-1.867595	1.246328	1
H	1.334374	-1.161225	0.780388	1
H	0.296084	-2.136185	-1.204532	1
H	-1.216206	-1.278175	-0.886182	1
H	1.459894	0.031395	-1.625542	1
H	0.019074	-0.093425	-2.640782	1
H	1.373724	1.520525	0.293988	1
H	-0.144416	2.383995	0.594098	1
Es	0.247852	-1.058497	0.673703	99
Es	0.282248	1.426135	0.278543	99
Es	0.063831	0.741085	-1.240112	99
Es	-0.862491	-1.254003	-0.863012	99
Es	0.031761	-0.376088	0.939247	99
Es	-1.077038	0.322955	1.279018	99
Es	-0.016650	2.077846	0.503023	99
Es	0.065250	-1.127678	-0.062761	99
Es	-0.188100	0.301515	1.211291	99
Es	1.126579	0.013196	-1.608247	99
Es	-0.125222	-1.208911	-0.800208	99
Es	-0.021656	1.435363	-1.232716	99
Es	1.036054	1.479978	0.297835	99
Es	-1.721119	0.124520	1.105448	99
Es	0.049001	0.864596	0.742475	99
Es	0.128087	-0.068087	-2.312846	99
Es	-1.668815	0.216080	1.627152	99
Es	0.107514	0.417911	1.899242	99
Es	-1.768524	0.785727	1.265136	99
Es	-1.613943	0.289625	1.337533	99
Es	0.171344	-1.839842	-1.078847	99
Es	-0.453282	1.170369	-1.052952	99
Es	0.996391	-1.118105	0.746134	99
Es	-0.148420	1.208742	-1.070513	99
Es	-0.068782	-1.604334	1.067535	99
Es	0.363896	-0.013025	-1.605549	99
Es	0.033571	1.257596	-0.556043	99
Es	0.127596	-0.615310	-1.198691	99
45
Properties=species:S:1:pos:R:3:Z:I:1 energy=-344.9997816954858 field_type=dipole dipole="0.000000 0.000000 0.000000" charge=0
O	-1.614156	0.289305	1.337518	8
C	-0.187876	0.301505	1.211328	6
C	0.247854	-1.058535	0.673728	6
C	-0.125266	-1.208935	-0.800232	6
C	0.363984	-0.013205	-1.605662	6
O	-0.148646	1.208975	-1.070692	8
C	0.282324	1.426195	0.278738	6
H	-1.938756	1.195795	1.202838	1
H	0.218644	0.459595	2.214668	1
H	-0.220636	-1.867595	1.246328	1
H	1.334374	-1.161225	0.780388	1
H	0.296084	-2.136185	-1.204532	1
H	-1.216206	-1.278175	-0.886182	1
H	1.459894	0.031395	-1.625542	1
H	0.019074	-0.093425	-2.640782	1
H	1.373724	1.520525	0.293988	1
H	-0.144416	2.383995	0.594098	1
Es	-1.077067	0.323695	1.281111	99
Es	-0.024370	1.438728	-1.235619	99
Es	0.048975	0.864495	0.742377	99
Es	0.996322	-1.118088	0.746079	99
Es	-1.673276	0.208893	1.626824	99
Es	-0.016549	2.077923	0.503041	99
Es	0.065334	-1.127665	-0.062571	99
Es	-0.148433	1.208736	-1.070501	99
Es	0.282247	1.426134	0.278542	99
Es	-1.768019	0.785983	1.267959	99
Es	0.031841	-0.376159	0.939302	99
Es	0.107557	0.418132	1.899095	99
Es	0.363901	-0.013030	-1.605550	99
Es	0.063391	0.740986	-1.239795	99
Es	1.035964	1.479894	0.297824	99
Es	-0.862363	-1.254037	-0.863027	99
Es	-0.188096	0.301514	1.211290	99
Es	0.033276	1.257406	-0.555896	99
Es	-0.068825	-1.604376	1.067659	99
Es	-1.717146	0.130787	1.101103	99
Es	0.127540	-0.615377	-1.198857	99
Es	0.247854	-1.058497	0.673702	99
Es	-0.125224	-1.208912	-0.800208	99
Es	0.128120	-0.068079	-2.312841	99
Es	-0.449848	1.167324	-1.050543	99
Es	-1.613955	0.289593	1.337409	99
Es	1.126539	0.013172	-1.608254	99
Es	0.171244	-1.839819	-1.078836	99
45
Properties=species:S:1:pos:R:3:Z:I:1 energy=-344.9997816954858 field_type=dipole dipole="0.000000 0.000000 0.000000" charge=0
O	-1.614156	0.289305	1.337518	8
C	-0.187876	0.301505	1.211328	6
C	0.247854	-1.058535	0.673728	6
C	-0.125266	-1.208935	-0.800232	6
C	0.363984	-0.013205	-1.605662	6
O	-0.148646	1.208975	-1.070692	8
C	0.282324	1.426195	0.278738	6
H	-1.938756	1.195795	1.202838	1
H	0.218644	0.459595	2.214668	1
H	-0.220636	-1.867595	1.246328	1
H	1.334374	-1.161225	0.780388	1
H	0.296084	-2.136185	-1.204532	1
H	-1.216206	-1.278175	-0.886182	1
H	1.459894	0.031395	-1.625542	1
H	0.019074	-0.093425	-2.640782	1
H	1.373724	1.520525	0.293988	1
H	-0.144416	2.383995	0.594098	1
Es	0.031736	-0.376166	0.939379	99
Es	0.282244	1.426135	0.278538	99
Es	0.065403	-1.127845	-0.062791	99
Es	-0.125225	-1.208910	-0.800208	99
Es	1.126468	0.013245	-1.608274	99
Es	0.127729	-0.615499	-1.198789	99
Es	0.107505	0.417995	1.899129	99
Es	-0.451421	1.170494	-1.053100	99
Es	-0.016697	2.077769	0.503080	99
Es	0.032723	1.257202	-0.555335	99
Es	-0.862452	-1.253923	-0.863022	99
Es	0.128177	-0.068083	-2.312852	99
Es	-1.613961	0.289580	1.337435	99
Es	0.996276	-1.118052	0.746252	99
Es	1.036051	1.480039	0.297889	99
Es	-0.188093	0.301514	1.211291	99
Es	0.049083	0.864582	0.742401	99
Es	0.062966	0.740627	-1.240360	99
Es	-0.148574	1.208885	-1.070568	99
Es	-0.068657	-1.604267	1.067553	99
Es	0.363898	-0.013025	-1.605547	99
Es	-1.717949	0.128669	1.102524	99
Es	-1.076720	0.323409	1.281392	99
Es	0.171128	-1.839786	-1.078858	99
Es	-0.021705	1.435979	-1.233032	99
Es	-1.673052	0.211938	1.627402	99
Es	0.247854	-1.058497	0.673702	99
Es	-1.767800	0.785351	1.265588	99
45
Properties=species:S:1:pos:R:3:Z:I:1 energy=-344.9997816954858 field_type=dipole dipole="0.000000 0.000000 0.000000" charge=0
O	-1.614156	0.289305	1.337518	8
C	-0.187876	0.301505	1.211328	6
C	0.247854	-1.058535	0.673728	6
C	-0.125266	-1.208935	-0.800232	6
C	0.363984	-0.013205	-1.605662	6
O	-0.148646	1.208975	-1.070692	8
C	0.282324	1.426195	0.278738	6
H	-1.938756	1.195795	1.202838	1
H	0.218644	0.459595	2.214668	1
H	-0.220636	-1.867595	1.246328	1
H	1.334374	-1.161225	0.780388	1
H	0.296084	-2.136185	-1.204532	1
H	-1.216206	-1.278175	-0.886182	1
H	1.459894	0.031395	-1.625542	1
H	0.019074	-0.093425	-2.640782	1
H	1.373724	1.520525	0.293988	1
H	-0.144416	2.383995	0.594098	1
Es	-0.068640	-1.604258	1.067569	99
Es	-1.675110	0.207654	1.625341	99
Es	0.063618	0.740989	-1.239861	99
Es	-0.188094	0.301514	1.211291	99
Es	0.128187	-0.068061	-2.312797	99
Es	1.035962	1.479992	0.297868	99
Es	0.032768	1.257649	-0.555512	99
Es	-1.715782	0.131759	1.099657	99
Es	0.065242	-1.127769	-0.062734	99
Es	-0.862353	-1.254055	-0.863087	99
Es	-0.016555	2.077824	0.503026	99
Es	0.049020	0.864607	0.742582	99
Es	-0.148429	1.208737	-1.070468	99
Es	0.107512	0.417991	1.899074	99
Es	-0.023450	1.437370	-1.234551	99
Es	-1.076557	0.323986	1.283538	99
Es	1.126480	0.013201	-1.608307	99
Es	0.171256	-1.839772	-1.078865	99
Es	0.363899	-0.013027	-1.605548	99
Es	-0.450522	1.168471	-1.052027	99
Es	0.127560	-0.615456	-1.198813	99
Es	-1.768103	0.785937	1.268536	99
Es	0.282248	1.426135	0.278544	99
Es	-1.613953	0.289612	1.337311	99
Es	0.996259	-1.118093	0.746195	99
Es	0.031838	-0.376169	0.939363	99
Es	0.247854	-1.058497	0.673702	99
Es	-0.125224	-1.208911	-0.800208	99
45
Properties=species:S:1:pos:R:3:Z:I:1 energy=-344.9997816954858 field_type=dipole dipole="0.000000 0.000000 0.000000" charge=0
O	-1.614156	0.289305	1.337518	8
C	-0.187876	0.301505	1.211328	6
C	0.247854	-1.058535	0.673728	6
C	-0.125266	-1.208935	-0.800232	6
C	0.363984	-0.013205	-1.605662	6
O	-0.148646	1.208975	-1.070692	8
C	0.282324	1.426195	0.278738	6
H	-1.938756	1.195795	1.202838	1
H	0.218644	0.459595	2.214668	1
H	-0.220636	-1.867595	1.246328	1
H	1.334374	-1.161225	0.780388	1
H	0.296084	-2.136185	-1.204532	1
H	-1.216206	-1.278175	-0.886182	1
H	1.459894	0.031395	-1.625542	1
H	0.019074	-0.093425	-2.640782	1
H	1.373724	1.520525	0.293988	1
H	-0.144416	2.383995	0.594098	1
Es	-0.862312	-1.254013	-0.863054	99
Es	-0.451794	1.170751	-1.053122	99
Es	-1.076471	0.323519	1.281963	99
Es	0.063461	0.740822	-1.241047	99
Es	-1.671963	0.211409	1.624981	99
Es	0.065326	-1.127697	-0.062749	99
Es	0.171185	-1.839797	-1.078893	99
Es	0.127539	-0.615509	-1.198834	99
Es	0.996238	-1.118146	0.746257	99
Es	-0.016482	2.077824	0.502984	99
Es	-1.768164	0.785962	1.268574	99
Es	-0.148383	1.208721	-1.070474	99
Es	1.126473	0.013219	-1.608330	99
Es	0.128232	-0.068075	-2.312752	99
Es	-0.188091	0.301514	1.211291	99
Es	-0.068659	-1.604260	1.067466	99
Es	0.363900	-0.013029	-1.605549	99
Es	-0.125224	-1.208911	-0.800207	99
Es	-1.719000	0.128392	1.101394	99
Es	1.035946	1.479955	0.297905	99
Es	-1.613930	0.289642	1.337522	99
Es	0.282250	1.426136	0.278547	99
Es	0.031863	-0.376200	0.939487	99
Es	0.247854	-1.058497	0.673701	99
Es	0.107523	0.418024	1.899000	99
Es	0.048940	0.864651	0.742613	99
Es	0.032923	1.257105	-0.555540	99
Es	-0.022244	1.435846	-1.232315	99
45
Properties=species:S:1:pos:R:3:Z:I:1 energy=-344.9997816954858 field_type=dipole dipole="0.000000 0.000000 0.000000" charge=0
O	-1.614156	0.289305	1.337518	8
C	-0.187876	0.301505	1.211328	6
C	0.247854	-1.058535	0.673728	6
C	-0.125266	-1.208935	-0.800232	6
C	0.363984	-0.013205	-1.605662	6
O	-0.148646	1.208975	-1.070692	8
C	0.282324	1.426195	0.278738	6
H	-1.938756	1.195795	1.202838	1
H	0.218644	0.459595	2.214668	1
H	-0.220636	-1.867595	1.246328	1
H	1.334374	-1.161225	0.780388	1
H	0.296084	-2.136185	-1.204532	1
H	-1.216206	-1.278175	-0.886182	1
H	1.459894	0.031395	-1.625542	1
H	0.019074	-0.093425	-2.640782	1
H	1.373724	1.520525	0.293988	1
H	-0.144416	2.383995	0.594098	1
Es	-0.016486	2.077774	0.502995	99
Es	-1.672235	0.210217	1.626129	99
Es	0.363899	-0.013028	-1.605549	99
Es	0.282249	1.426135	0.278544	99
Es	0.034081	1.258122	-0.555744	99
Es	0.247854	-1.058498	0.673702	99
Es	-1.768636	0.785852	1.267904	99
Es	-0.125224	-1.208911	-0.800207	99
Es	0.063586	0.740736	-1.241320	99
Es	1.126426	0.013178	-1.608400	99
Es	-0.148428	1.208732	-1.070496	99
Es	-1.613944	0.289619	1.337484	99
Es	-0.450728	1.169539	-1.051591	99
Es	-0.024466	1.436119	-1.233337	99
Es	-0.068625	-1.604226	1.067543	99
Es	0.107480	0.418010	1.899007	99
Es	0.048998	0.864672	0.742686	99
Es	1.035929	1.480002	0.297935	99
Es	-1.718259	0.129859	1.102617	99
Es	0.170993	-1.839673	-1.078991	99
Es	-0.862299	-1.253990	-0.862991	99
Es	0.996180	-1.118137	0.746254	99
Es	-0.188093	0.301514	1.211291	99
Es	0.031933	-0.376188	0.939438	99
Es	0.128169	-0.068050	-2.312762	99
Es	0.127636	-0.615415	-1.198828	99
Es	0.065419	-1.128007	-0.062745	99
Es	-1.076475	0.323401	1.280252	99
45
Properties=species:S:1:pos:R:3:Z:I:1 energy=-344.9997816954858 field_type=dipole dipole="0.000000 0.000000 0.000000" charge=0
O	-1.614156	0.289305	1.337518	8
C	-0.187876	0.301505	1.211328	6
C	0.247854	-1.058535	0.673728	6
C	-0.125266	-1.208935	-0.800232	6
C	0.363984	-0.013205	-1.605662	6
O	-0.148646	1.208975	-1.070692	8
C	0.282324	1.426195	0.278738	6
H	-1.938756	1.195795	1.202838	1
H	0.218644	0.459595	2.214668	1
H	-0.220636	-1.867595	1.246328	1
H	1.334374	-1.161225	0.780388	1
H	0.296084	-2.136185	-1.204532	1
H	-1.216206	-1.278175	-0.886182	1
H	1.459894	0.031395	-1.625542	1
H	0.019074	-0.093425	-2.640782	1
H	1.373724	1.520525	0.293988	1
H	-0.144416	2.383995	0.594098	1
Es	0.065227	-1.127952	-0.062725	99
Es	0.171158	-1.839703	-1.078941	99
Es	0.031849	-0.376201	0.939418	99
Es	0.363903	-0.013038	-1.605556	99
Es	-1.671936	0.211733	1.625636	99
Es	-0.125222	-1.208911	-0.800208	99
Es	0.049107	0.864675	0.742681	99
Es	0.247854	-1.058496	0.673700	99
Es	0.063251	0.740523	-1.241201	99
Es	0.996152	-1.118005	0.746234	99
Es	-0.068471	-1.604213	1.067637	99
Es	-1.076226	0.322674	1.280591	99
Es	-1.768083	0.785958	1.267816	99
Es	-1.613936	0.289570	1.337482	99
Es	-0.023442	1.435616	-1.232822	99
Es	-0.016513	2.077769	0.503034	99
Es	0.107488	0.417943	1.898945	99
Es	0.033318	1.257939	-0.555341	99
Es	1.126436	0.013254	-1.608452	99
Es	0.282253	1.426138	0.278553	99
Es	0.127622	-0.615530	-1.198798	99
Es	-0.148440	1.208764	-1.070543	99
Es	0.128197	-0.068093	-2.312683	99
Es	-0.862250	-1.254059	-0.863142	99
Es	-1.719400	0.129020	1.102913	99
Es	1.035888	1.480045	0.297905	99
Es	-0.450764	1.170426	-1.052607	99
Es	-0.188084	0.301514	1.211291	99
45
Properties=species:S:1:pos:R:3:Z:I:1 energy=-344.9997816954858 field_type=dipole dipole="0.000000 0.000000 0.000000" charge=0
O	-1.614156	0.289305	1.337518	8
C	-0.187876	0.301505	1.211328	6
C	0.247854	-1.058535	0.673728	6
C	-0.125266	-1.208935	-0.800232	6
C	0.363984	-0.013205	-1.605662	6
O	-0.148646	1.208975	-1.070692	8
C	0.282324	1.426195	0.278738	6
H	-1.938756	1.195795	1.202838	1
H	0.218644	0.459595	2.214668	1
H	-0.220636	-1.867595	1.246328	1
H	1.334374	-1.161225	0.780388	1
H	0.296084	-2.136185	-1.204532	1
H	-1.216206	-1.278175	-0.886182	1
H	1.459894	0.031395	-1.625542	1
H	0.019074	-0.093425	-2.640782	1
H	1.373724	1.520525	0.293988	1
H	-0.144416	2.383995	0.594098	1
Es	-0.148501	1.208818	-1.070558	99
Es	0.171055	-1.839685	-1.078941	99
Es	0.996092	-1.118182	0.746328	99
Es	0.282249	1.426136	0.278546	99
Es	0.049046	0.864612	0.742772	99
Es	-1.613982	0.289533	1.337437	99
Es	1.126336	0.013205	-1.608333	99
Es	-1.670983	0.212810	1.625659	99
Es	0.063381	0.740544	-1.241103	99
Es	0.363899	-0.013027	-1.605548	99
Es	0.247854	-1.058496	0.673701	99
Es	-0.188092	0.301514	1.211292	99
Es	-1.769102	0.785707	1.266977	99
Es	1.035855	1.479972	0.297929	99
Es	-0.016443	2.077818	0.503020	99
Es	0.128363	-0.068007	-2.312768	99
Es	-0.450150	1.169788	-1.052299	99
Es	-0.125224	-1.208911	-0.800208	99
Es	-0.862199	-1.254067	-0.863084	99
Es	0.065339	-1.127965	-0.062762	99
Es	0.107455	0.418035	1.899004	99
Es	-0.068589	-1.604102	1.067612	99
Es	-0.024098	1.435853	-1.233322	99
Es	0.033338	1.258295	-0.555249	99
Es	-1.719394	0.127748	1.104098	99
Es	0.032049	-0.376167	0.939407	99
Es	0.127513	-0.615596	-1.198945	99
Es	-1.076133	0.323174	1.280155	99
45
Properties=species:S:1:pos:R:3:Z:I:1 energy=-344.9997816954858 field_type=dipole dipole="0.000000 0.000000 0.000000" charge=0
O	-1.614156	0.289305	1.337518	8
C	-0.187876	0.301505	1.211328	6
C	0.247854	-1.058535	0.673728	6
C	-0.125266	-1.208935	-0.800232	6
C	0.363984	-0.013205	-1.605662	6
O	-0.148646	1.208975	-1.070692	8
C	0.282324	1.426195	0.278738	6
H	-1.938756	1.195795	1.202838	1
H	0.218644	0.459595	2.214668	1
H	-0.220636	-1.867595	1.246328	1
H	1.334374	-1.161225	0.780388	1
H	0.296084	-2.136185	-1.204532	1
H	-1.216206	-1.278175	-0.886182	1
H	1.459894	0.031395	-1.625542	1
H	0.019074	-0.093425	-2.640782	1
H	1.373724	1.520525	0.293988	1
H	-0.144416	2.383995	0.594098	1
Es	-0.027123	1.436659	-1.234451	99
Es	-0.125224	-1.208911	-0.800207	99
Es	0.128297	-0.068050	-2.312729	99
Es	0.363902	-0.013035	-1.605552	99
Es	1.035843	1.480049	0.297930	99
Es	0.065365	-1.127951	-0.062749	99
Es	0.034380	1.259369	-0.555554	99
Es	0.996119	-1.118145	0.746345	99
Es	-0.068536	-1.604131	1.067529	99
Es	0.127610	-0.615620	-1.198897	99
Es	-0.862207	-1.253972	-0.863089	99
Es	-0.148501	1.208798	-1.070561	99
Es	-1.613965	0.289642	1.337508	99
Es	0.107478	0.418022	1.898887	99
Es	-0.448891	1.167681	-1.050439	99
Es	0.247854	-1.058498	0.673700	99
Es	1.126329	0.013205	-1.608414	99
Es	-1.075761	0.322667	1.281154	99
Es	-0.016398	2.077736	0.502994	99
Es	-1.672160	0.212216	1.624969	99
Es	-0.188099	0.301515	1.211292	99
Es	0.171025	-1.839739	-1.078966	99
Es	-1.768704	0.785888	1.267061	99
Es	0.031948	-0.376214	0.939479	99
Es	0.049055	0.864649	0.742830	99
Es	0.064071	0.740828	-1.241542	99
Es	-1.719022	0.128570	1.103744	99
Es	0.282249	1.426136	0.278546	99
45
Properties=species:S:1:pos:R:3:Z:I:1 energy=-344.9997816954858 field_type=dipole dipole="0.000000 0.000000 0.000000" charge=0
O	-1.614156	0.289305	1.337518	8
C	-0.187876	0.301505	1.211328	6
C	0.247854	-1.058535	0.673728	6
C	-0.125266	-1.208935	-0.800232	6
C	0.363984	-0.013205	-1.605662	6
O	-0.148646	1.208975	-1.070692	8
C	0.282324	1.426195	0.278738	6
H	-1.938756	1.195795	1.202838	1
H	0.218644	0.459595	2.214668	1
H	-0.220636	-1.867595	1.246328	1
H	1.334374	-1.161225	0.780388	1
H	0.296084	-2.136185	-1.204532	1
H	-1.216206	-1.278175	-0.886182	1
H	1.459894	0.031395	-1.625542	1
H	0.019074	-0.093425	-2.640782	1
H	1.373724	1.520525	0.293988	1
H	-0.144416	2.383995	0.594098	1
Es	0.363901	-0.013030	-1.605550	99
Es	-0.148442	1.208759	-1.070508	99
Es	-0.449258	1.168769	-1.051737	99
Es	0.282250	1.426136	0.278548	99
Es	0.171023	-1.839665	-1.078961	99
Es	0.032034	-0.376294	0.939586	99
Es	-0.068501	-1.604082	1.067515	99
Es	0.996080	-1.118180	0.746373	99
Es	-0.025895	1.436037	-1.233764	99
Es	-1.075823	0.323866	1.282376	99
Es	-1.674311	0.207848	1.624485	99
Es	-1.769563	0.785888	1.268424	99
Es	1.035794	1.480026	0.297932	99
Es	0.063945	0.740725	-1.241417	99
Es	0.049073	0.864607	0.742820	99
Es	-0.016401	2.077779	0.503020	99
Es	1.126261	0.013213	-1.608442	99
Es	0.128355	-0.068034	-2.312718	99
Es	-0.862154	-1.254056	-0.863137	99
Es	-1.715948	0.131839	1.101786	99
Es	0.033608	1.259086	-0.555137	99
Es	-0.125224	-1.208911	-0.800208	99
Es	0.127575	-0.615682	-1.198917	99
Es	0.107461	0.418082	1.898828	99
Es	-0.188090	0.301514	1.211291	99
Es	-1.613989	0.289550	1.337383	99
Es	0.247854	-1.058498	0.673701	99
Es	0.065320	-1.127933	-0.062751	99
45
Properties=species:S:1:pos:R:3:Z:I:1 energy=-344.9997816954858 field_type=dipole dipole="0.000000 0.000000 0.000000" charge=0
O	-1.614156	0.289305	1.337518	8
C	-0.187876	0.301505	1.211328	6
C	0.247854	-1.058535	0.673728	6
C	-0.125266	-1.208935	-0.800232	6
C	0.363984	-0.013205	-1.605662	6
O	-0.148646	1.208975	-1.070692	8
C	0.282324	1.426195	0.278738	6
H	-1.938756	1.195795	1.202838	1
H	0.218644	0.459595	2.214668	1
H	-0.220636	-1.867595	1.246328	1
H	1.334374	-1.161225	0.780388	1
H	0.296084	-2.136185	-1.204532	1
H	-1.216206	-1.278175	-0.886182	1
H	1.459894	0.031395	-1.625542	1
H	0.019074	-0.093425	-2.640782	1
H	1.373724	1.520525	0.293988	1
H	-0.144416	2.383995	0.594098	1
Es	-1.075627	0.322717	1.280741	99
Es	1.126272	0.013202	-1.608439	99
Es	0.363902	-0.013032	-1.605551	99
Es	0.049064	0.864624	0.742818	99
Es	-0.449693	1.170258	-1.052623	99
Es	0.063435	0.740503	-1.241817	99
Es	0.170977	-1.839669	-1.079002	99
Es	1.035806	1.480030	0.297948	99
Es	-0.125224	-1.208911	-0.800208	99
Es	0.247852	-1.058498	0.673701	99
Es	0.128386	-0.068026	-2.312689	99
Es	0.107488	0.418069	1.898835	99
Es	0.282249	1.426137	0.278546	99
Es	-1.718883	0.128815	1.104283	99
Es	0.065319	-1.128035	-0.062791	99
Es	-0.862144	-1.254004	-0.863139	99
Es	-1.769259	0.785835	1.267146	99
Es	-1.614119	0.289364	1.337445	99
Es	-0.068418	-1.604134	1.067562	99
Es	-1.671770	0.212245	1.624847	99
Es	0.127598	-0.615663	-1.198914	99
Es	0.033456	1.258751	-0.554896	99
Es	-0.024839	1.435122	-1.232745	99
Es	-0.016389	2.077751	0.503018	99
Es	0.995991	-1.118109	0.746347	99
Es	-0.148429	1.208747	-1.070502	99
Es	0.032022	-0.376243	0.939608	99
Es	-0.188090	0.301514	1.211291	99
45
Properties=species:S:1:pos:R:3:Z:I:1 energy=-344.9997816954858 field_type=dipole dipole="0.000000 0.000000 0.000000" charge=0
O	-1.614156	0.289305	1.337518	8
C	-0.187876	0.301505	1.211328	6
C	0.247854	-1.058535	0.673728	6
C	-0.125266	-1.208935	-0.800232	6
C	0.363984	-0.013205	-1.605662	6
O	-0.148646	1.208975	-1.070692	8
C	0.282324	1.426195	0.278738	6
H	-1.938756	1.195795	1.202838	1
H	0.218644	0.459595	2.214668	1
H	-0.220636	-1.867595	1.246328	1
H	1.334374	-1.161225	0.780388	1
H	0.296084	-2.136185	-1.204532	1
H	-1.216206	-1.278175	-0.886182	1
H	1.459894	0.031395	-1.625542	1
H	0.019074	-0.093425	-2.640782	1
H	1.373724	1.520525	0.293988	1
H	-0.144416	2.383995	0.594098	1
Es	0.127527	-0.615767	-1.198977	99
Es	0.063659	0.740516	-1.242266	99
Es	-0.016328	2.077733	0.502996	99
Es	-0.448758	1.169573	-1.051956	99
Es	0.128463	-0.067992	-2.312676	99
Es	0.282250	1.426136	0.278548	99
Es	-1.613981	0.289567	1.337469	99
Es	-0.125225	-1.208911	-0.800208	99
Es	-1.670889	0.213594	1.625124	99
Es	0.065119	-1.128043	-0.062714	99
Es	-0.068309	-1.604035	1.067609	99
Es	0.247854	-1.058500	0.673699	99
Es	-1.719512	0.127375	1.105616	99
Es	0.995977	-1.118171	0.746262	99
Es	1.126246	0.013208	-1.608426	99
Es	0.107448	0.418154	1.898793	99
Es	-0.862156	-1.254165	-0.863279	99
Es	-0.026100	1.435714	-1.233044	99
Es	0.032130	-0.376228	0.939699	99
Es	0.363899	-0.013029	-1.605550	99
Es	-0.188089	0.301514	1.211292	99
Es	-0.148505	1.208684	-1.070460	99
Es	0.049042	0.864587	0.742886	99
Es	0.171084	-1.839556	-1.078891	99
Es	0.033601	1.258921	-0.554902	99
Es	1.035781	1.480042	0.297948	99
Es	-1.769681	0.785693	1.266136	99
Es	-1.075611	0.322741	1.280091	99
45
Properties=species:S:1:pos:R:3:Z:I:1 energy=-344.9997816954858 field_type=dipole dipole="0.000000 0.000000 0.000000" charge=0
O	-1.614156	0.289305	1.337518	8
C	-0.187876	0.301505	1.211328	6
C	0.247854	-1.058535	0.673728	6
C	-0.125266	-1.208935	-0.800232	6
C	0.363984	-0.013205	-1.605662	6
O	-0.148646	1.208975	-1.070692	8
C	0.282324	1.426195	0.278738	6
H	-1.938756	1.195795	1.202838	1
H	0.218644	0.459595	2.214668	1
H	-0.220636	-1.867595	1.246328	1
H	1.334374	-1.161225	0.780388	1
H	0.296084	-2.136185	-1.204532	1
H	-1.216206	-1.278175	-0.886182	1
H	1.459894	0.031395	-1.625542	1
H	0.019074	-0.093425	-2.640782	1
H	1.373724	1.520525	0.293988	1
H	-0.144416	2.383995	0.594098	1
Es	0.049055	0.864678	0.742946	99
Es	0.995980	-1.118156	0.746425	99
Es	1.126197	0.013218	-1.608451	99
Es	-0.025928	1.435717	-1.232478	99
Es	0.363901	-0.013030	-1.605549	99
Es	-1.670596	0.213082	1.624742	99
Es	0.107455	0.418095	1.898734	99
Es	-0.148463	1.208766	-1.070479	99
Es	-0.016339	2.077756	0.503011	99
Es	0.282252	1.426138	0.278550	99
Es	0.065318	-1.128034	-0.062740	99
Es	-1.075653	0.322286	1.279575	99
Es	-1.613955	0.289561	1.337430	99
Es	-0.188090	0.301512	1.211292	99
Es	-1.720065	0.127963	1.105470	99
Es	1.035746	1.480018	0.297982	99
Es	-0.862080	-1.254122	-0.863204	99
Es	0.127487	-0.615770	-1.198945	99
Es	0.032083	-0.376278	0.939628	99
Es	0.171031	-1.839581	-1.079019	99
Es	-0.125225	-1.208914	-0.800211	99
Es	-1.769432	0.786082	1.267268	99
Es	0.064542	0.741147	-1.242350	99
Es	0.128460	-0.068000	-2.312689	99
Es	0.247855	-1.058497	0.673701	99
Es	-0.449989	1.169169	-1.051986	99
Es	0.033764	1.258591	-0.555350	99
Es	-0.068378	-1.604038	1.067517	99
45
Properties=species:S:1:pos:R:3:Z:I:1 energy=-344.9997816954858 field_type=dipole dipole="0.000000 0.000000 0.000000" charge=0
O	-1.614156	0.289305	1.337518	8
C	-0.187876	0.301505	1.211328	6
C	0.247854	-1.058535	0.673728	6
C	-0.125266	-1.208935	-0.800232	6
C	0.363984	-0.013205	-1.605662	6
O	-0.148646	1.208975	-1.070692	8
C	0.282324	1.426195	0.278738	6
H	-1.938756	1.195795	1.202838	1
H	0.218644	0.459595	2.214668	1
H	-0.220636	-1.867595	1.246328	1
H	1.334374	-1.161225	0.780388	1
H	0.296084	-2.136185	-1.204532	1
H	-1.216206	-1.278175	-0.886182	1
H	1.459894	0.031395	-1.625542	1
H	0.019074	-0.093425	-2.640782	1
H	1.373724	1.520525	0.293988	1
H	-0.144416	2.383995	0.594098	1
Es	0.032108	-0.376247	0.939691	99
Es	-0.448633	1.169635	-1.052032	99
Es	-1.719144	0.128506	1.104805	99
Es	1.126171	0.013222	-1.608505	99
Es	-0.068379	-1.604037	1.067506	99
Es	-0.016291	2.077723	0.502981	99
Es	0.127466	-0.615765	-1.199023	99
Es	-1.075361	0.322670	1.280771	99
Es	1.035730	1.480052	0.297970	99
Es	-0.862030	-1.254191	-0.863182	99
Es	-0.148566	1.208879	-1.070606	99
Es	-1.613961	0.289586	1.337383	99
Es	0.063463	0.740384	-1.242033	99
Es	-0.188085	0.301512	1.211290	99
Es	0.033577	1.259243	-0.554840	99
Es	0.282251	1.426137	0.278547	99
Es	0.995926	-1.118204	0.746415	99
Es	0.171011	-1.839549	-1.079003	99
Es	0.363902	-0.013032	-1.605551	99
Es	0.247854	-1.058496	0.673700	99
Es	0.049070	0.864636	0.742990	99
Es	0.065342	-1.128034	-0.062727	99
Es	-1.671758	0.212446	1.624452	99
Es	0.128470	-0.067994	-2.312646	99
Es	-0.125227	-1.208912	-0.800208	99
Es	0.107450	0.418086	1.898718	99
Es	-0.025928	1.435302	-1.233119	99
Es	-1.769493	0.785800	1.267074	99
45
Properties=species:S:1:pos:R:3:Z:I:1 energy=-344.9997816954858 field_type=dipole dipole="0.000000 0.000000 0.000000" charge=0
O	-1.614156	0.289305	1.337518	8
C	-0.187876	0.301505	1.211328	6
C	0.247854	-1.058535	0.673728	6
C	-0.125266	-1.208935	-0.800232	6
C	0.363984	-0.013205	-1.605662	6
O	-0.148646	1.208975	-1.070692	8
C	0.282324	1.426195	0.278738	6
H	-1.938756	1.195795	1.202838	1
H	0.218644	0.459595	2.214668	1
H	-0.220636	-1.867595	1.246328	1
H	1.334374	-1.161225	0.780388	1
H	0.296084	-2.136185	-1.204532	1
H	-1.216206	-1.278175	-0.886182	1
H	1.459894	0.031395	-1.625542	1
H	0.019074	-0.093425	-2.640782	1
H	1.373724	1.520525	0.293988	1
H	-0.144416	2.383995	0.594098	1
Es	-0.016306	2.077683	0.502983	99
Es	-1.613997	0.289596	1.337460	99
Es	-0.148534	1.208922	-1.070617	99
Es	0.049043	0.864634	0.742990	99
Es	0.127475	-0.615823	-1.199008	99
Es	-1.769522	0.786003	1.267826	99
Es	-0.861977	-1.254146	-0.863261	99
Es	-1.075250	0.322259	1.280071	99
Es	0.995929	-1.118168	0.746437	99
Es	0.107435	0.418155	1.898695	99
Es	0.282251	1.426137	0.278550	99
Es	-0.125224	-1.208910	-0.800207	99
Es	-0.068335	-1.603986	1.067551	99
Es	-0.188086	0.301514	1.211291	99
Es	0.247857	-1.058498	0.673702	99
Es	0.032160	-0.376328	0.939700	99
Es	0.128499	-0.067981	-2.312623	99
Es	0.171009	-1.839598	-1.078993	99
Es	0.065210	-1.128036	-0.062732	99
Es	1.126154	0.013212	-1.608519	99
Es	-1.671025	0.212692	1.624019	99
Es	-1.719926	0.128441	1.105104	99
Es	-0.024676	1.433814	-1.230917	99
Es	1.035708	1.480086	0.298036	99
Es	0.363903	-0.013035	-1.605553	99
Es	0.063580	0.740667	-1.243101	99
Es	-0.450218	1.171528	-1.053193	99
Es	0.033799	1.258525	-0.554871	99
45
Properties=species:S:1:pos:R:3:Z:I:1 energy=-344.9997816954858 field_type=dipole dipole="0.000000 0.000000 0.000000" charge=0
O	-1.614156	0.289305	1.337518	8
C	-0.187876	0.301505	1.211328	6
C	0.247854	-1.058535	0.673728	6
C	-0.125266	-1.208935	-0.800232	6
C	0.363984	-0.013205	-1.605662	6
O	-0.148646	1.208975	-1.070692	8
C	0.282324	1.426195	0.278738	6
H	-1.938756	1.195795	1.202838	1
H	0.218644	0.459595	2.214668	1
H	-0.220636	-1.867595	1.246328	1
H	1.334374	-1.161225	0.780388	1
H	0.296084	-2.136185	-1.204532	1
H	-1.216206	-1.278175	-0.886182	1
H	1.459894	0.031395	-1.625542	1
H	0.019074	-0.093425	-2.640782	1
H	1.373724	1.520525	0.293988	1
H	-0.144416	2.383995	0.594098	1
Es	0.282258	1.426146	0.278561	99
Es	0.363902	-0.013035	-1.605552	99
Es	0.107414	0.418016	1.898660	99
Es	-0.016267	2.077704	0.502982	99
Es	1.126161	0.013215	-1.608503	99
Es	0.031922	1.258347	-0.553937	99
Es	-0.862036	-1.254276	-0.863251	99
Es	-0.188086	0.301518	1.211292	99
Es	-0.449970	1.173476	-1.055499	99
Es	-1.671844	0.212469	1.624114	99
Es	-0.022714	1.432881	-1.230198	99
Es	0.065352	-1.128109	-0.062790	99
Es	0.128519	-0.067990	-2.312620	99
Es	0.062991	0.739957	-1.242521	99
Es	0.995876	-1.118230	0.746527	99
Es	-0.125225	-1.208912	-0.800208	99
Es	0.032105	-0.376251	0.939757	99
Es	-0.068333	-1.603970	1.067437	99
Es	1.035700	1.480051	0.297988	99
Es	0.127423	-0.615766	-1.198996	99
Es	0.247854	-1.058499	0.673699	99
Es	-1.075077	0.322395	1.280662	99
Es	-1.613986	0.289565	1.337473	99
Es	-1.719000	0.128752	1.105378	99
Es	-0.148359	1.208784	-1.070534	99
Es	0.049126	0.864730	0.743055	99
Es	-1.769836	0.785835	1.266869	99
Es	0.171067	-1.839447	-1.079025	99
45
Properties=species:S:1:pos:R:3:Z:I:1 energy=-344.9997816954858 field_type=dipole dipole="0.000000 0.000000 0.000000" charge=0
O	-1.614156	0.289305	1.337518	8
C	-0.187876	0.301505	1.211328	6
C	0.247854	-1.058535	0.673728	6
C	-0.125266	-1.208935	-0.800232	6
C	0.363984	-0.013205	-1.605662	6
O	-0.148646	1.208975	-1.070692	8
C	0.282324	1.426195	0.278738	6
H	-1.938756	1.195795	1.202838	1
H	0.218644	0.459595	2.214668	1
H	-0.220636	-1.867595	1.246328	1
H	1.334374	-1.161225	0.780388	1
H	0.296084	-2.136185	-1.204532	1
H	-1.216206	-1.278175	-0.886182	1
H	1.459894	0.031395	-1.625542	1
H	0.019074	-0.093425	-2.640782	1
H	1.373724	1.520525	0.293988	1
H	-0.144416	2.383995	0.594098	1
Es	-0.020976	1.431766	-1.230506	99
Es	0.171003	-1.839481	-1.079021	99
Es	-0.148528	1.208855	-1.070581	99
Es	-1.769747	0.785780	1.266906	99
Es	-1.717490	0.130791	1.104776	99
Es	0.127452	-0.615791	-1.199063	99
Es	-0.449692	1.175257	-1.056223	99
Es	1.035659	1.480010	0.298006	99
Es	-0.188087	0.301513	1.211291	99
Es	0.049032	0.864675	0.743080	99
Es	0.032137	-0.376373	0.939777	99
Es	-0.068255	-1.603963	1.067507	99
Es	-1.673718	0.210439	1.624089	99
Es	0.031768	1.258708	-0.553742	99
Es	0.995877	-1.118139	0.746503	99
Es	0.065268	-1.128141	-0.062788	99
Es	1.126117	0.013223	-1.608497	99
Es	0.247851	-1.058504	0.673704	99
Es	0.363902	-0.013036	-1.605553	99
Es	-0.125225	-1.208908	-0.800208	99
Es	0.282250	1.426136	0.278549	99
Es	0.128547	-0.067962	-2.312640	99
Es	-0.861964	-1.254250	-0.863252	99
Es	0.107430	0.418138	1.898612	99
Es	-1.613952	0.289599	1.337315	99
Es	-1.074845	0.322398	1.281439	99
Es	0.061295	0.738892	-1.241633	99
Es	-0.016176	2.077725	0.502973	99
45
Properties=species:S:1:pos:R:3:Z:I:1 energy=-344.9997816954858 field_type=dipole dipole="0.000000 0.000000 0.000000" charge=0
O	-1.614156	0.289305	1.337518	8
C	-0.187876	0.301505	1.211328	6
C	0.247854	-1.058535	0.673728	6
C	-0.125266	-1.208935	-0.800232	6
C	0.363984	-0.013205	-1.605662	6
O	-0.148646	1.208975	-1.070692	8
C	0.282324	1.426195	0.278738	6
H	-1.938756	1.195795	1.202838	1
H	0.218644	0.459595	2.214668	1
H	-0.220636	-1.867595	1.246328	1
H	1.334374	-1.161225	0.780388	1
H	0.296084	-2.136185	-1.204532	1
H	-1.216206	-1.278175	-0.886182	1
H	1.459894	0.031395	-1.625542	1
H	0.019074	-0.093425	-2.640782	1
H	1.373724	1.520525	0.293988	1
H	-0.144416	2.383995	0.594098	1
Es	-1.074857	0.322067	1.279892	99
Es	-0.148476	1.208729	-1.070495	99
Es	0.034291	1.260244	-0.554748	99
Es	-0.027645	1.434533	-1.232828	99
Es	-0.125227	-1.208912	-0.800213	99
Es	0.127472	-0.615882	-1.199050	99
Es	0.247854	-1.058499	0.673701	99
Es	1.035661	1.480035	0.298041	99
Es	-1.770259	0.785683	1.265795	99
Es	0.063684	0.740221	-1.242859	99
Es	0.107429	0.418144	1.898571	99
Es	-1.720437	0.126601	1.107416	99
Es	-1.670199	0.215189	1.623991	99
Es	0.049013	0.864686	0.743111	99
Es	-0.016239	2.077717	0.502964	99
Es	-1.614000	0.289487	1.337463	99
Es	0.363900	-0.013029	-1.605549	99
Es	1.126069	0.013226	-1.608561	99
Es	-0.861911	-1.254179	-0.863261	99
Es	0.128566	-0.067952	-2.312606	99
Es	-0.447904	1.169765	-1.051769	99
Es	0.170893	-1.839476	-1.079071	99
Es	-0.188086	0.301507	1.211290	99
Es	0.282253	1.426139	0.278557	99
Es	-0.068253	-1.603959	1.067460	99
Es	0.032180	-0.376401	0.939792	99
Es	0.065321	-1.128144	-0.062750	99
Es	0.995841	-1.118181	0.746532	99
45
Properties=species:S:1:pos:R:3:Z:I:1 energy=-344.9997816954858 field_type=dipole dipole="0.000000 0.000000 0.000000" charge=0
O	-1.614156	0.289305	1.337518	8
C	-0.187876	0.301505	1.211328	6
C	0.247854	-1.058535	0.673728	6
C	-0.125266	-1.208935	-0.800232	6
C	0.363984	-0.013205	-1.605662	6
O	-0.148646	1.208975	-1.070692	8
C	0.282324	1.426195	0.278738	6
H	-1.938756	1.195795	1.202838	1
H	0.218644	0.459595	2.214668	1
H	-0.220636	-1.867595	1.246328	1