36
Properties=species:S:1:pos:R:3:Z:I:1 energy=-341.3794150892761 field_type=dipole dipole="0.000000 0.000000 0.000000" charge=0
O	-2.294478	-1.640951	-0.119330	8
C	-1.124958	-1.749261	-0.464200	6
C	-0.086618	-0.871341	0.095380	6
O	0.968342	-0.546171	-0.821500	8
C	0.082472	0.521589	-0.447100	6
C	0.719352	1.519919	0.356010	6
C	1.251552	2.358849	1.029360	6
H	-0.794238	-2.508981	-1.191750	1
H	0.176022	-1.055681	1.129190	1
H	-0.625008	0.868919	-1.191620	1
H	1.727562	3.103109	1.625560	1
Es	1.234689	-0.510479	-0.673594	99
Es	-2.481147	-1.849103	-0.257297	99
Es	-1.124947	-1.749234	-0.464181	99
Es	1.560269	2.841913	1.416680	99
Es	-0.591054	-1.308754	-0.191265	99
Es	-1.818023	-1.842424	-0.058773	99
Es	-0.192243	-0.098848	-0.046024	99
Es	1.251655	2.359010	1.029489	99
Es	-2.335413	-1.412036	0.087975	99
Es	0.719224	1.519730	0.355861	99
Es	0.087278	-1.010297	0.777825	99
Es	-0.379413	0.758706	-0.945360	99
Es	-0.086412	-0.871246	0.095152	99
Es	0.082705	0.521390	-0.447080	99
Es	1.129924	1.679061	0.894817	99
Es	0.968102	-0.546096	-0.821334	99
Es	1.152891	2.057075	0.400483	99
Es	0.877253	-0.652932	-1.098578	99
Es	0.405079	1.036923	-0.030488	99
Es	-1.901426	-1.516188	-0.436290	99
Es	0.680330	-0.066681	-0.740019	99
Es	-2.294136	-1.640953	-0.119403	99
Es	0.657349	2.064267	0.771619	99
Es	-0.888414	-2.258346	-0.955393	99
Es	0.609496	-0.773879	-0.461311	99
36
Properties=species:S:1:pos:R:3:Z:I:1 energy=-341.3794150892761 field_type=dipole dipole="0.000000 0.000000 0.000000" charge=0
O	-2.294478	-1.640951	-0.119330	8
C	-1.124958	-1.749261	-0.464200	6
C	-0.086618	-0.871341	0.095380	6
O	0.968342	-0.546171	-0.821500	8
C	0.082472	0.521589	-0.447100	6
C	0.719352	1.519919	0.356010	6
C	1.251552	2.358849	1.029360	6
H	-0.794238	-2.508981	-1.191750	1
H	0.176022	-1.055681	1.129190	1
H	-0.625008	0.868919	-1.191620	1
H	1.727562	3.103109	1.625560	1
Es	0.719229	1.519734	0.355860	99
Es	-2.329872	-1.409368	0.088355	99
Es	-0.888456	-2.258319	-0.955466	99
Es	0.877091	-0.652932	-1.097159	99
Es	0.968037	-0.546110	-0.821359	99
Es	0.610089	-0.774685	-0.460936	99
Es	0.660792	2.087780	0.740486	99
Es	-0.379277	0.758740	-0.945304	99
Es	0.087232	-1.010291	0.777730	99
Es	-1.819524	-1.844907	-0.060467	99
Es	-0.192464	-0.098607	-0.045909	99
Es	1.180602	2.030416	0.408636	99
Es	1.098847	1.682185	0.917853	99
Es	0.082709	0.521393	-0.447086	99
Es	-2.294202	-1.640969	-0.119400	99
Es	1.251662	2.359003	1.029491	99
Es	0.405062	1.036874	-0.030590	99
Es	-1.901379	-1.519477	-0.437613	99
Es	-0.591027	-1.308616	-0.191210	99
Es	1.560226	2.841960	1.416593	99
Es	-2.485143	-1.846110	-0.254560	99
Es	-0.086404	-0.871246	0.095148	99
Es	0.679590	-0.066521	-0.740799	99
Es	-1.124947	-1.749233	-0.464182	99
Es	1.235141	-0.510114	-0.674601	99
36
Properties=species:S:1:pos:R:3:Z:I:1 energy=-341.3794150892761 field_type=dipole dipole="0.000000 0.000000 0.000000" charge=0
O	-2.294478	-1.640951	-0.119330	8
C	-1.124958	-1.749261	-0.464200	6
C	-0.086618	-0.871341	0.095380	6
O	0.968342	-0.546171	-0.821500	8
C	0.082472	0.521589	-0.447100	6
C	0.719352	1.519919	0.356010	6
C	1.251552	2.358849	1.029360	6
H	-0.794238	-2.508981	-1.191750	1
H	0.176022	-1.055681	1.129190	1
H	-0.625008	0.868919	-1.191620	1
H	1.727562	3.103109	1.625560	1
Es	-2.483821	-1.847246	-0.255325	99
Es	-1.901691	-1.517931	-0.437174	99
Es	-1.124948	-1.749237	-0.464177	99
Es	-0.086407	-0.871244	0.095149	99
Es	1.560549	2.841751	1.416619	99
Es	-0.192635	-0.098448	-0.045681	99
Es	0.679779	-0.066078	-0.740829	99
Es	1.251656	2.359009	1.029489	99
Es	0.880046	-0.653133	-1.098648	99
Es	-2.294173	-1.640996	-0.119429	99
Es	-0.379289	0.758716	-0.945246	99
Es	0.968040	-0.546078	-0.821325	99
Es	-1.818619	-1.843961	-0.059868	99
Es	1.232228	-0.509415	-0.673081	99
Es	0.404778	1.037114	-0.031029	99
Es	0.719226	1.519733	0.355859	99
Es	-0.590914	-1.308519	-0.191291	99
Es	0.087153	-1.010444	0.777615	99
Es	1.284953	1.754123	0.657048	99
Es	0.894619	2.187652	0.452742	99
Es	-0.888472	-2.258327	-0.955481	99
Es	0.609852	-0.775559	-0.461095	99
Es	0.082705	0.521396	-0.447083	99
Es	-2.331793	-1.410733	0.088194	99
Es	0.760792	1.858436	0.957557	99
36
Properties=species:S:1:pos:R:3:Z:I:1 energy=-341.3794150892761 field_type=dipole dipole="0.000000 0.000000 0.000000" charge=0
O	-2.294478	-1.640951	-0.119330	8
C	-1.124958	-1.749261	-0.464200	6
C	-0.086618	-0.871341	0.095380	6
O	0.968342	-0.546171	-0.821500	8
C	0.082472	0.521589	-0.447100	6
C	0.719352	1.519919	0.356010	6
C	1.251552	2.358849	1.029360	6
H	-0.794238	-2.508981	-1.191750	1
H	0.176022	-1.055681	1.129190	1
H	-0.625008	0.868919	-1.191620	1
H	1.727562	3.103109	1.625560	1
Es	-0.192859	-0.098435	-0.045559	99
Es	-0.086404	-0.871244	0.095146	99
Es	-2.485025	-1.845901	-0.254954	99
Es	-0.379175	0.758834	-0.945195	99
Es	0.082706	0.521391	-0.447082	99
Es	1.062208	1.688957	0.940432	99
Es	0.087154	-1.010419	0.777533	99
Es	1.208570	1.998976	0.422036	99
Es	0.680377	-0.065675	-0.740688	99
Es	0.609680	-0.775915	-0.461346	99
Es	-1.124947	-1.749232	-0.464183	99
Es	0.669595	2.112446	0.704454	99
Es	-0.590865	-1.308610	-0.191133	99
Es	1.560218	2.841955	1.416520	99
Es	-1.901418	-1.518391	-0.437318	99
Es	1.251656	2.359016	1.029487	99
Es	0.404890	1.036713	-0.030617	99
Es	0.968083	-0.546064	-0.821277	99
Es	1.234011	-0.510737	-0.674738	99
Es	-1.819181	-1.845096	-0.060143	99
Es	-2.330332	-1.410419	0.088195	99
Es	0.719229	1.519736	0.355862	99
Es	-2.294166	-1.641015	-0.119450	99
Es	-0.888471	-2.258328	-0.955488	99
Es	0.878081	-0.651963	-1.096985	99
36
Properties=species:S:1:pos:R:3:Z:I:1 energy=-341.3794150892761 field_type=dipole dipole="0.000000 0.000000 0.000000" charge=0
O	-2.294478	-1.640951	-0.119330	8
C	-1.124958	-1.749261	-0.464200	6
C	-0.086618	-0.871341	0.095380	6
O	0.968342	-0.546171	-0.821500	8
C	0.082472	0.521589	-0.447100	6
C	0.719352	1.519919	0.356010	6
C	1.251552	2.358849	1.029360	6
H	-0.794238	-2.508981	-1.191750	1
H	0.176022	-1.055681	1.129190	1
H	-0.625008	0.868919	-1.191620	1
H	1.727562	3.103109	1.625560	1
Es	0.719228	1.519735	0.355860	99
Es	-2.294111	-1.640919	-0.119380	99
Es	0.680422	-0.065298	-0.741007	99
Es	-0.888499	-2.258354	-0.955515	99
Es	1.172527	1.680209	0.855565	99
Es	0.609722	-0.776536	-0.461282	99
Es	-2.331515	-1.410788	0.087619	99
Es	1.251662	2.359005	1.029485	99
Es	-0.379169	0.758879	-0.945174	99
Es	0.405097	1.036750	-0.030915	99
Es	0.659691	2.026165	0.817000	99
Es	1.107824	2.094028	0.394453	99
Es	-0.590819	-1.308470	-0.191070	99
Es	-2.484271	-1.846976	-0.255228	99
Es	1.232885	-0.510365	-0.674418	99
Es	0.087158	-1.010379	0.777555	99
Es	0.879248	-0.652096	-1.097103	99
Es	0.082704	0.521390	-0.447081	99
Es	-1.901380	-1.518116	-0.437175	99
Es	1.560197	2.841882	1.416662	99
Es	-0.086409	-0.871248	0.095151	99
Es	0.968080	-0.546068	-0.821334	99
Es	-1.818818	-1.844081	-0.059456	99
Es	-0.192889	-0.098528	-0.045532	99
Es	-1.124950	-1.749242	-0.464170	99
36
Properties=species:S:1:pos:R:3:Z:I:1 energy=-341.3794150892761 field_type=dipole dipole="0.000000 0.000000 0.000000" charge=0
O	-2.294478	-1.640951	-0.119330	8
C	-1.124958	-1.749261	-0.464200	6
C	-0.086618	-0.871341	0.095380	6
O	0.968342	-0.546171	-0.821500	8
C	0.082472	0.521589	-0.447100	6
C	0.719352	1.519919	0.356010	6
C	1.251552	2.358849	1.029360	6
H	-0.794238	-2.508981	-1.191750	1
H	0.176022	-1.055681	1.129190	1
H	-0.625008	0.868919	-1.191620	1
H	1.727562	3.103109	1.625560	1
Es	-0.193274	-0.098330	-0.045218	99
Es	0.680772	-0.064575	-0.741159	99
Es	1.251660	2.359009	1.029489	99
Es	1.185553	2.025187	0.410552	99
Es	-1.124948	-1.749233	-0.464182	99
Es	-0.888510	-2.258343	-0.955530	99
Es	1.232507	-0.510909	-0.675160	99
Es	-2.482182	-1.846659	-0.256999	99
Es	0.082708	0.521385	-0.447080	99
Es	1.560120	2.842038	1.416478	99
Es	0.405007	1.036619	-0.030850	99
Es	0.661468	2.092093	0.734750	99
Es	0.968107	-0.546110	-0.821346	99
Es	-1.900690	-1.516968	-0.436430	99
Es	-0.590645	-1.308506	-0.190998	99
Es	-0.379040	0.758925	-0.945120	99
Es	0.087074	-1.010529	0.777402	99
Es	-2.294144	-1.640976	-0.119427	99
Es	0.879003	-0.652137	-1.096517	99
Es	-2.333975	-1.411631	0.088283	99
Es	-1.819119	-1.844614	-0.059081	99
Es	0.719226	1.519742	0.355862	99
Es	-0.086410	-0.871246	0.095150	99
Es	1.093250	1.683025	0.921647	99
Es	0.610099	-0.776678	-0.461008	99
36
Properties=species:S:1:pos:R:3:Z:I:1 energy=-341.3794150892761 field_type=dipole dipole="0.000000 0.000000 0.000000" charge=0
O	-2.294478	-1.640951	-0.119330	8
C	-1.124958	-1.749261	-0.464200	6
C	-0.086618	-0.871341	0.095380	6
O	0.968342	-0.546171	-0.821500	8
C	0.082472	0.521589	-0.447100	6
C	0.719352	1.519919	0.356010	6
C	1.251552	2.358849	1.029360	6
H	-0.794238	-2.508981	-1.191750	1
H	0.176022	-1.055681	1.129190	1
H	-0.625008	0.868919	-1.191620	1
H	1.727562	3.103109	1.625560	1
Es	0.610330	-0.777048	-0.461079	99
Es	0.674901	1.977158	0.867719	99
Es	-1.901730	-1.518968	-0.438064	99
Es	0.404976	1.036780	-0.031184	99
Es	-2.328844	-1.410173	0.087582	99
Es	1.560270	2.841770	1.416687	99
Es	0.879494	-0.651935	-1.096477	99
Es	0.968059	-0.546077	-0.821320	99
Es	-0.378899	0.758930	-0.945089	99
Es	-2.486159	-1.845561	-0.253626	99
Es	-0.086407	-0.871245	0.095149	99
Es	-2.294227	-1.640970	-0.119399	99
Es	1.046719	2.132781	0.398650	99
Es	-0.888511	-2.258373	-0.955528	99
Es	-1.819145	-1.845176	-0.060171	99
Es	-0.193634	-0.098367	-0.044899	99
Es	1.218455	1.690472	0.800629	99
Es	-1.124948	-1.749233	-0.464181	99
Es	1.251655	2.359007	1.029489	99
Es	1.232180	-0.510513	-0.675271	99
Es	0.087122	-1.010622	0.777277	99
Es	0.719228	1.519735	0.355861	99
Es	0.680582	-0.064654	-0.741234	99
Es	-0.590556	-1.308528	-0.190929	99
Es	0.082705	0.521389	-0.447081	99
