41
Properties=species:S:1:pos:R:3:Z:I:1 energy=-359.74981800367345 field_type=dipole dipole="0.000000 0.000000 0.000000" charge=0
C	0.811076	-0.755544	0.641461	6
C	-0.447014	-1.153924	-0.100979	6
C	-1.532324	-0.109944	-0.169749	6
N	-1.468014	1.164116	0.079241	7
O	-0.226684	1.619256	0.564481	8
C	0.838036	1.395336	-0.361719	6
O	1.580326	0.208326	-0.074349	8
H	1.450556	-1.637173	0.757541	1
H	0.598036	-0.389524	1.652891	1
H	-0.890634	-2.034034	0.378191	1
H	-0.210914	-1.427854	-1.135859	1
H	-2.505474	-0.476394	-0.541769	1
H	1.529296	2.241117	-0.293289	1
H	0.473726	1.356236	-1.396089	1
Es	0.652647	-0.512223	1.326907	99
Es	1.579962	0.208376	-0.074265	99
Es	0.158617	-0.940259	0.261507	99
Es	0.147274	1.502081	0.192109	99
Es	-1.397295	0.668319	-0.302104	99
Es	-1.737591	1.426107	0.053898	99
Es	1.643130	0.086380	-0.348817	99
Es	-0.447076	-1.153864	-0.100973	99
Es	1.263887	0.639992	-0.164730	99
Es	1.255243	-0.131848	0.188654	99
Es	-0.226708	1.619102	0.564199	99
Es	-0.979020	-0.605235	-0.120523	99
Es	-1.467522	1.163708	0.079307	99
Es	-0.751025	-1.738296	0.225092	99
Es	-0.164501	1.437585	0.798752	99
Es	-0.742758	1.387766	0.323413	99
Es	0.837949	1.395129	-0.361484	99
Es	1.307108	1.969962	-0.308485	99
Es	-1.532308	-0.109984	-0.169767	99
Es	-1.564001	0.550979	0.247926	99
Es	1.241152	-1.361180	0.712312	99
Es	1.799738	0.293932	0.118957	99
Es	-0.249644	1.927174	0.579894	99
Es	-2.181751	-0.359497	-0.418637	99
Es	0.573214	1.360633	-1.066422	99
Es	0.811139	-0.755391	0.641291	99
Es	-0.297078	-1.325746	-0.794942	99
41
Properties=species:S:1:pos:R:3:Z:I:1 energy=-359.74981800367345 field_type=dipole dipole="0.000000 0.000000 0.000000" charge=0
C	0.811076	-0.755544	0.641461	6
C	-0.447014	-1.153924	-0.100979	6
C	-1.532324	-0.109944	-0.169749	6
N	-1.468014	1.164116	0.079241	7
O	-0.226684	1.619256	0.564481	8
C	0.838036	1.395336	-0.361719	6
O	1.580326	0.208326	-0.074349	8
H	1.450556	-1.637173	0.757541	1
H	0.598036	-0.389524	1.652891	1
H	-0.890634	-2.034034	0.378191	1
H	-0.210914	-1.427854	-1.135859	1
H	-2.505474	-0.476394	-0.541769	1
H	1.529296	2.241117	-0.293289	1
H	0.473726	1.356236	-1.396089	1
Es	-0.743037	1.387654	0.323844	99
Es	-2.181796	-0.359540	-0.418571	99
Es	1.580005	0.208395	-0.074290	99
Es	1.254979	-0.132332	0.189208	99
Es	0.652671	-0.512235	1.326800	99
Es	1.264393	0.640226	-0.164825	99
Es	-0.226692	1.619077	0.564209	99
Es	-1.737491	1.425637	0.054323	99
Es	1.800203	0.293680	0.117890	99
Es	0.811143	-0.755401	0.641285	99
Es	-1.397482	0.668517	-0.302537	99
Es	-0.297040	-1.325632	-0.795066	99
Es	-0.447076	-1.153863	-0.100973	99
Es	-1.467522	1.163666	0.079298	99
Es	0.837955	1.395135	-0.361482	99
Es	-1.532306	-0.109979	-0.169769	99
Es	0.158507	-0.940398	0.261620	99
Es	-0.751048	-1.738303	0.224998	99
Es	-0.978938	-0.605280	-0.120350	99
Es	1.241207	-1.361112	0.712434	99
Es	-0.249631	1.926352	0.578186	99
Es	-1.563969	0.551000	0.247620	99
Es	0.573251	1.360735	-1.066465	99
Es	0.147429	1.501948	0.192269	99
Es	1.307080	1.969899	-0.308404	99
Es	-0.164361	1.438988	0.800049	99
Es	1.642347	0.086865	-0.348236	99
41
Properties=species:S:1:pos:R:3:Z:I:1 energy=-359.74981800367345 field_type=dipole dipole="0.000000 0.000000 0.000000" charge=0
C	0.811076	-0.755544	0.641461	6
C	-0.447014	-1.153924	-0.100979	6
C	-1.532324	-0.109944	-0.169749	6
N	-1.468014	1.164116	0.079241	7
O	-0.226684	1.619256	0.564481	8
C	0.838036	1.395336	-0.361719	6
O	1.580326	0.208326	-0.074349	8
H	1.450556	-1.637173	0.757541	1
H	0.598036	-0.389524	1.652891	1
H	-0.890634	-2.034034	0.378191	1
H	-0.210914	-1.427854	-1.135859	1
H	-2.505474	-0.476394	-0.541769	1
H	1.529296	2.241117	-0.293289	1
H	0.473726	1.356236	-1.396089	1
Es	0.652750	-0.512258	1.326768	99
Es	-0.226688	1.619053	0.564181	99
Es	-1.532307	-0.109984	-0.169769	99
Es	-0.249405	1.926317	0.579800	99
Es	-1.397490	0.668443	-0.302185	99
Es	0.158491	-0.940231	0.261615	99
Es	-1.737337	1.425544	0.053921	99
Es	-0.751122	-1.738321	0.225153	99
Es	1.579982	0.208359	-0.074267	99
Es	-2.181857	-0.359427	-0.418640	99
Es	0.147066	1.502546	0.191614	99
Es	1.648083	0.087472	-0.348169	99
Es	-0.978826	-0.605399	-0.120426	99
Es	1.241162	-1.361166	0.712424	99
Es	1.254399	-0.133266	0.186400	99
Es	-0.743714	1.387532	0.324555	99
Es	1.263765	0.639628	-0.165876	99
Es	0.573227	1.360623	-1.066336	99
Es	1.307063	1.970001	-0.308575	99
Es	1.795790	0.294661	0.121656	99
Es	-1.467511	1.163695	0.079308	99
Es	-0.297102	-1.325677	-0.795025	99
Es	-0.447075	-1.153863	-0.100973	99
Es	0.837953	1.395132	-0.361478	99
Es	0.811143	-0.755395	0.641283	99
Es	-0.163537	1.438687	0.798334	99
Es	-1.564121	0.550998	0.247773	99
41
Properties=species:S:1:pos:R:3:Z:I:1 energy=-359.74981800367345 field_type=dipole dipole="0.000000 0.000000 0.000000" charge=0
C	0.811076	-0.755544	0.641461	6
C	-0.447014	-1.153924	-0.100979	6
C	-1.532324	-0.109944	-0.169749	6
N	-1.468014	1.164116	0.079241	7
O	-0.226684	1.619256	0.564481	8
C	0.838036	1.395336	-0.361719	6
O	1.580326	0.208326	-0.074349	8
H	1.450556	-1.637173	0.757541	1
H	0.598036	-0.389524	1.652891	1
H	-0.890634	-2.034034	0.378191	1
H	-0.210914	-1.427854	-1.135859	1
H	-2.505474	-0.476394	-0.541769	1
H	1.529296	2.241117	-0.293289	1
H	0.473726	1.356236	-1.396089	1
Es	-1.564205	0.551164	0.247657	99
Es	-0.226684	1.619081	0.564214	99
Es	1.263926	0.639902	-0.166289	99
Es	-2.181841	-0.359458	-0.418744	99
Es	0.837952	1.395130	-0.361479	99
Es	-0.249463	1.926250	0.582906	99
Es	-1.467562	1.163657	0.079279	99
Es	-0.447075	-1.153863	-0.100973	99
Es	-1.737321	1.425594	0.054072	99
Es	0.158501	-0.940334	0.261604	99
Es	0.147395	1.503658	0.191270	99
Es	-1.397637	0.668328	-0.302003	99
Es	0.811143	-0.755401	0.641286	99
Es	1.255072	-0.132343	0.189082	99
Es	-0.751138	-1.738189	0.225197	99
Es	0.652690	-0.512267	1.326725	99
Es	-0.163845	1.436796	0.796329	99
Es	1.579938	0.208374	-0.074251	99
Es	0.573225	1.360651	-1.066264	99
Es	-0.743500	1.388256	0.323751	99
Es	1.643573	0.086569	-0.347285	99
Es	-1.532306	-0.109979	-0.169770	99
Es	1.241183	-1.361102	0.712508	99
Es	-0.297073	-1.325820	-0.795056	99
Es	1.307111	1.970011	-0.308619	99
Es	-0.978760	-0.605312	-0.120506	99
Es	1.799482	0.294349	0.118426	99
41
Properties=species:S:1:pos:R:3:Z:I:1 energy=-359.74981800367345 field_type=dipole dipole="0.000000 0.000000 0.000000" charge=0
C	0.811076	-0.755544	0.641461	6
C	-0.447014	-1.153924	-0.100979	6
C	-1.532324	-0.109944	-0.169749	6
N	-1.468014	1.164116	0.079241	7
O	-0.226684	1.619256	0.564481	8
C	0.838036	1.395336	-0.361719	6
O	1.580326	0.208326	-0.074349	8
H	1.450556	-1.637173	0.757541	1
H	0.598036	-0.389524	1.652891	1
H	-0.890634	-2.034034	0.378191	1
H	-0.210914	-1.427854	-1.135859	1
H	-2.505474	-0.476394	-0.541769	1
H	1.529296	2.241117	-0.293289	1
H	0.473726	1.356236	-1.396089	1
Es	1.264566	0.641115	-0.164075	99
Es	-0.226662	1.619094	0.564231	99
Es	-1.467510	1.163682	0.079305	99
Es	1.801296	0.292627	0.116683	99
Es	-1.736902	1.425303	0.053529	99
Es	0.147246	1.504325	0.191012	99
Es	-0.751058	-1.738401	0.225040	99
Es	1.307043	1.969989	-0.308615	99
Es	-1.564749	0.551467	0.247997	99
Es	-0.163395	1.436769	0.796174	99
Es	-2.181904	-0.359481	-0.418659	99
Es	-0.249542	1.925807	0.583175	99
Es	1.580008	0.208390	-0.074271	99
Es	1.640845	0.087423	-0.347807	99
Es	0.837954	1.395135	-0.361485	99
Es	-0.447077	-1.153865	-0.100971	99
Es	0.811145	-0.755396	0.641282	99
Es	-0.978756	-0.605337	-0.120439	99
Es	0.158556	-0.940290	0.261545	99
Es	-0.297156	-1.325576	-0.794963	99
Es	-0.743748	1.388267	0.323941	99
Es	1.241177	-1.361101	0.712487	99
Es	-1.532305	-0.109973	-0.169771	99
Es	1.255342	-0.132707	0.189233	99
Es	0.652716	-0.512303	1.326732	99
Es	-1.397608	0.668079	-0.301969	99
Es	0.573259	1.360660	-1.066272	99
41
Properties=species:S:1:pos:R:3:Z:I:1 energy=-359.74981800367345 field_type=dipole dipole="0.000000 0.000000 0.000000" charge=0
C	0.811076	-0.755544	0.641461	6
C	-0.447014	-1.153924	-0.100979	6
C	-1.532324	-0.109944	-0.169749	6
N	-1.468014	1.164116	0.079241	7
O	-0.226684	1.619256	0.564481	8
C	0.838036	1.395336	-0.361719	6
O	1.580326	0.208326	-0.074349	8
H	1.450556	-1.637173	0.757541	1
H	0.598036	-0.389524	1.652891	1
H	-0.890634	-2.034034	0.378191	1
H	-0.210914	-1.427854	-1.135859	1
H	-2.505474	-0.476394	-0.541769	1
H	1.529296	2.241117	-0.293289	1
H	0.473726	1.356236	-1.396089	1
Es	0.811142	-0.755403	0.641287	99
Es	1.797766	0.294204	0.118791	99
Es	-0.751132	-1.738194	0.225301	99
Es	-0.164078	1.438151	0.796595	99
Es	-0.978637	-0.605385	-0.120508	99
Es	1.645178	0.087024	-0.347874	99
Es	-0.297174	-1.325852	-0.795024	99
Es	-0.226702	1.619069	0.564139	99
Es	1.264198	0.640124	-0.165644	99
Es	1.307040	1.969976	-0.308673	99
Es	0.158565	-0.940247	0.261493	99
Es	1.579952	0.208354	-0.074286	99
Es	0.573266	1.360661	-1.066233	99
Es	-0.447080	-1.153865	-0.100976	99
Es	-1.737004	1.425090	0.053595	99
Es	-1.564436	0.551281	0.247675	99
Es	0.652689	-0.512327	1.326704	99
Es	0.147849	1.503213	0.191741	99
Es	-0.743937	1.388351	0.324004	99
Es	-1.532306	-0.109978	-0.169772	99
Es	-0.249222	1.925730	0.582114	99
Es	-1.397731	0.668262	-0.301859	99
Es	0.837959	1.395141	-0.361483	99
Es	1.254988	-0.132833	0.188748	99
Es	-2.182009	-0.359381	-0.418575	99
Es	-1.467516	1.163673	0.079298	99
Es	1.241150	-1.361140	0.712490	99
41
Properties=species:S:1:pos:R:3:Z:I:1 energy=-359.74981800367345 field_type=dipole dipole="0.000000 0.000000 0.000000" charge=0
C	0.811076	-0.755544	0.641461	6
C	-0.447014	-1.153924	-0.100979	6
C	-1.532324	-0.109944	-0.169749	6
N	-1.468014	1.164116	0.079241	7
O	-0.226684	1.619256	0.564481	8
C	0.838036	1.395336	-0.361719	6
O	1.580326	0.208326	-0.074349	8
H	1.450556	-1.637173	0.757541	1
H	0.598036	-0.389524	1.652891	1
H	-0.890634	-2.034034	0.378191	1
H	-0.210914	-1.427854	-1.135859	1
H	-2.505474	-0.476394	-0.541769	1
H	1.529296	2.241117	-0.293289	1
H	0.473726	1.356236	-1.396089	1
Es	-0.226642	1.619018	0.564226	99
Es	-0.164682	1.439407	0.798166	99
Es	-0.978578	-0.605413	-0.120426	99
Es	0.158591	-0.940295	0.261550	99
Es	0.573258	1.360712	-1.066242	99
Es	-0.249182	1.924752	0.580282	99
Es	-1.397796	0.668262	-0.301750	99
Es	1.799662	0.292981	0.116364	99
Es	-0.447077	-1.153865	-0.100978	99
Es	-0.297210	-1.325710	-0.795020	99
Es	0.652698	-0.512356	1.326650	99
Es	1.264524	0.641105	-0.164274	99
Es	-1.532306	-0.109976	-0.169774	99
Es	1.241146	-1.361120	0.712541	99
Es	-0.743990	1.388757	0.323799	99
Es	1.255683	-0.132731	0.189966	99
Es	-2.182019	-0.359388	-0.418587	99
Es	-0.751168	-1.738264	0.225170	99
Es	-1.564423	0.551300	0.247524	99
Es	1.642316	0.087156	-0.348012	99
Es	1.307000	1.969913	-0.308711	99
Es	0.811142	-0.755403	0.641288	99
Es	0.148466	1.502764	0.192214	99
Es	-1.467522	1.163668	0.079301	99
Es	-1.737028	1.424936	0.053588	99
Es	1.579961	0.208362	-0.074303	99
Es	0.837955	1.395133	-0.361484	99
41
Properties=species:S:1:pos:R:3:Z:I:1 energy=-359.74981800367345 field_type=dipole dipole="0.000000 0.000000 0.000000" charge=0
C	0.811076	-0.755544	0.641461	6
C	-0.447014	-1.153924	-0.100979	6
C	-1.532324	-0.109944	-0.169749	6
N	-1.468014	1.164116	0.079241	7
O	-0.226684	1.619256	0.564481	8
C	0.838036	1.395336	-0.361719	6
O	1.580326	0.208326	-0.074349	8
H	1.450556	-1.637173	0.757541	1
H	0.598036	-0.389524	1.652891	1
H	-0.890634	-2.034034	0.378191	1
H	-0.210914	-1.427854	-1.135859	1
H	-2.505474	-0.476394	-0.541769	1
H	1.529296	2.241117	-0.293289	1
H	0.473726	1.356236	-1.396089	1
Es	-0.164095	1.437649	0.794621	99
Es	1.579929	0.208356	-0.074350	99
Es	1.643643	0.087971	-0.346700	99
Es	-1.736713	1.424607	0.053739	99
Es	0.652713	-0.512361	1.326638	99
Es	1.241135	-1.361105	0.712554	99
Es	0.148151	1.503821	0.191497	99
Es	-2.182070	-0.359374	-0.418546	99
Es	1.306955	1.970004	-0.308766	99
Es	1.798951	0.293186	0.117431	99
Es	-0.978562	-0.605469	-0.120423	99
Es	-1.532307	-0.109980	-0.169767	99
Es	-1.564559	0.551270	0.247542	99
Es	0.837954	1.395137	-0.361489	99
Es	-0.248850	1.925187	0.584482	99
Es	-0.226755	1.619167	0.564033	99
Es	-0.744501	1.388955	0.324057	99
Es	1.255278	-0.133707	0.188684	99
Es	0.158555	-0.940258	0.261602	99
Es	0.811140	-0.755406	0.641289	99
Es	-0.447075	-1.153865	-0.100973	99
Es	-0.751163	-1.738378	0.225124	99
Es	0.573292	1.360639	-1.066166	99
Es	-0.297164	-1.325606	-0.794976	99
Es	-1.398007	0.668479	-0.302065	99
Es	1.264425	0.641104	-0.165308	99
Es	-1.467518	1.163678	0.079301	99
41
Properties=species:S:1:pos:R:3:Z:I:1 energy=-359.74981800367345 field_type=dipole dipole="0.000000 0.000000 0.000000" charge=0
C	0.811076	-0.755544	0.641461	6
C	-0.447014	-1.153924	-0.100979	6
C	-1.532324	-0.109944	-0.169749	6
N	-1.468014	1.164116	0.079241	7
O	-0.226684	1.619256	0.564481	8
C	0.838036	1.395336	-0.361719	6
O	1.580326	0.208326	-0.074349	8
H	1.450556	-1.637173	0.757541	1
H	0.598036	-0.389524	1.652891	1
H	-0.890634	-2.034034	0.378191	1
H	-0.210914	-1.427854	-1.135859	1
H	-2.505474	-0.476394	-0.541769	1
H	1.529296	2.241117	-0.293289	1
H	0.473726	1.356236	-1.396089	1
Es	0.652735	-0.512385	1.326624	99
Es	-0.164248	1.438291	0.795064	99
Es	0.837957	1.395139	-0.361487	99
Es	-0.226721	1.619042	0.564171	99
Es	1.255828	-0.133106	0.190226	99
Es	-0.751128	-1.738313	0.225238	99
Es	1.580087	0.208341	-0.074304	99
Es	-0.248914	1.925015	0.583627	99
Es	1.264679	0.641521	-0.164647	99
Es	0.148410	1.503574	0.191718	99
Es	1.241136	-1.361055	0.712583	99
Es	-1.564139	0.551204	0.247129	99
Es	1.306940	1.969974	-0.308700	99
Es	-1.467518	1.163692	0.079304	99
Es	-0.978516	-0.605439	-0.120470	99
Es	-0.447075	-1.153867	-0.100972	99
Es	-1.532306	-0.109978	-0.169769	99
Es	0.811141	-0.755403	0.641288	99
Es	1.800060	0.292710	0.115580	99
Es	-0.744553	1.388997	0.324067	99
Es	0.573332	1.360720	-1.066181	99
Es	-0.297277	-1.325719	-0.794949	99
Es	-2.182168	-0.359387	-0.418449	99
Es	-1.398166	0.668580	-0.302057	99
Es	-1.736972	1.424388	0.054109	99
Es	1.641574	0.087423	-0.347138	99
Es	0.158602	-0.940258	0.261462	99
41
Properties=species:S:1:pos:R:3:Z:I:1 energy=-359.74981800367345 field_type=dipole dipole="0.000000 0.000000 0.000000" charge=0
C	0.811076	-0.755544	0.641461	6
C	-0.447014	-1.153924	-0.100979	6
C	-1.532324	-0.109944	-0.169749	6
N	-1.468014	1.164116	0.079241	7
O	-0.226684	1.619256	0.564481	8
C	0.838036	1.395336	-0.361719	6
O	1.580326	0.208326	-0.074349	8
H	1.450556	-1.637173	0.757541	1
H	0.598036	-0.389524	1.652891	1
H	-0.890634	-2.034034	0.378191	1
H	-0.210914	-1.427854	-1.135859	1
H	-2.505474	-0.476394	-0.541769	1
H	1.529296	2.241117	-0.293289	1
H	0.473726	1.356236	-1.396089	1
Es	1.264935	0.641844	-0.164645	99
Es	0.158476	-0.940127	0.261540	99
Es	-0.978490	-0.605568	-0.120345	99
Es	-1.398101	0.668439	-0.301821	99
Es	-1.532307	-0.109984	-0.169765	99
Es	-0.447076	-1.153863	-0.100973	99
Es	-0.226708	1.619093	0.564189	99
Es	0.811141	-0.755404	0.641288	99
Es	-2.182175	-0.359372	-0.418453	99
Es	-1.467520	1.163671	0.079298	99
Es	1.241106	-1.361104	0.712606	99
Es	1.639996	0.087432	-0.346599	99
Es	-0.751126	-1.738425	0.225219	99
Es	1.255848	-0.132959	0.190609	99
Es	0.148460	1.502782	0.192100	99
Es	0.652763	-0.512423	1.326560	99
Es	-0.248724	1.924891	0.581935	99
Es	-0.744647	1.388722	0.324450	99
Es	-0.297217	-1.325577	-0.795022	99
Es	-1.736630	1.424404	0.053505	99
Es	1.306961	1.969992	-0.308744	99
Es	-1.564584	0.551352	0.247327	99
Es	0.837955	1.395139	-0.361487	99
Es	-0.164353	1.439470	0.796080	99
Es	1.801386	0.292196	0.114649	99
Es	1.580090	0.208387	-0.074296	99
Es	0.573319	1.360694	-1.066139	99
41
Properties=species:S:1:pos:R:3:Z:I:1 energy=-359.74981800367345 field_type=dipole dipole="0.000000 0.000000 0.000000" charge=0
C	0.811076	-0.755544	0.641461	6
C	-0.447014	-1.153924	-0.100979	6
C	-1.532324	-0.109944	-0.169749	6
N	-1.468014	1.164116	0.079241	7
O	-0.226684	1.619256	0.564481	8
C	0.838036	1.395336	-0.361719	6
O	1.580326	0.208326	-0.074349	8
H	1.450556	-1.637173	0.757541	1
H	0.598036	-0.389524	1.652891	1
H	-0.890634	-2.034034	0.378191	1
H	-0.210914	-1.427854	-1.135859	1
H	-2.505474	-0.476394	-0.541769	1
H	1.529296	2.241117	-0.293289	1
H	0.473726	1.356236	-1.396089	1
Es	-0.297241	-1.325563	-0.795021	99
Es	-2.182206	-0.359307	-0.418545	99
Es	-0.163867	1.436870	0.792402	99
Es	-0.751208	-1.738389	0.225163	99
Es	-0.226705	1.619051	0.564133	99
Es	-1.467513	1.163692	0.079304	99
Es	0.158500	-0.940252	0.261612	99
Es	-1.398116	0.668288	-0.301641	99
Es	1.645095	0.087887	-0.346533	99
Es	1.263743	0.640217	-0.166256	99
Es	1.797518	0.294531	0.117145	99
Es	-1.532307	-0.109985	-0.169767	99
Es	0.148341	1.504826	0.191132	99
Es	1.241093	-1.361054	0.712563	99
Es	1.579984	0.208433	-0.074254	99
Es	-0.248743	1.924887	0.586928	99
Es	0.573340	1.360720	-1.066103	99
Es	1.306955	1.969980	-0.308794	99
Es	0.811142	-0.755404	0.641290	99
Es	0.652824	-0.512452	1.326602	99
Es	-0.744971	1.389461	0.324220	99
Es	-0.447075	-1.153865	-0.100974	99
Es	-1.564717	0.551513	0.247299	99
Es	-1.736558	1.424206	0.053432	99
Es	0.837954	1.395136	-0.361486	99
Es	-0.978370	-0.605542	-0.120368	99
Es	1.255889	-0.134184	0.189585	99
41
Properties=species:S:1:pos:R:3:Z:I:1 energy=-359.74981800367345 field_type=dipole dipole="0.000000 0.000000 0.000000" charge=0
C	0.811076	-0.755544	0.641461	6
C	-0.447014	-1.153924	-0.100979	6
C	-1.532324	-0.109944	-0.169749	6
N	-1.468014	1.164116	0.079241	7
O	-0.226684	1.619256	0.564481	8
C	0.838036	1.395336	-0.361719	6
O	1.580326	0.208326	-0.074349	8
H	1.450556	-1.637173	0.757541	1
H	0.598036	-0.389524	1.652891	1
H	-0.890634	-2.034034	0.378191	1
H	-0.210914	-1.427854	-1.135859	1
H	-2.505474	-0.476394	-0.541769	1
H	1.529296	2.241117	-0.293289	1
H	0.473726	1.356236	-1.396089	1
Es	-0.248548	1.924640	0.587040	99
Es	0.811143	-0.755405	0.641289	99
Es	-1.467533	1.163665	0.079293	99
Es	1.264910	0.641804	-0.164952	99
Es	-1.564192	0.551140	0.246790	99
Es	-1.736636	1.423964	0.054300	99
Es	0.158490	-0.940215	0.261682	99
Es	-1.532305	-0.109981	-0.169769	99
Es	1.799520	0.292461	0.115400	99
Es	1.579989	0.208413	-0.074182	99
Es	1.642224	0.087545	-0.346726	99
Es	-0.226698	1.619064	0.564167	99
Es	-0.751249	-1.738443	0.225110	99
Es	-0.163852	1.437138	0.792088	99
Es	0.837953	1.395138	-0.361486	99
Es	1.255650	-0.133300	0.190181	99
Es	-0.978352	-0.605623	-0.120290	99
Es	-0.297213	-1.325470	-0.795046	99
Es	-0.745242	1.389557	0.324446	99
Es	-2.182292	-0.359332	-0.418374	99
Es	-1.398486	0.668925	-0.302248	99
Es	-0.447075	-1.153865	-0.100973	99
Es	1.306907	1.969996	-0.308865	99
Es	0.573327	1.360686	-1.066065	99
Es	0.148430	1.504745	0.191109	99
Es	0.652797	-0.512469	1.326553	99
Es	1.241111	-1.361076	0.712592	99
41
Properties=species:S:1:pos:R:3:Z:I:1 energy=-359.74981800367345 field_type=dipole dipole="0.000000 0.000000 0.000000" charge=0
C	0.811076	-0.755544	0.641461	6
C	-0.447014	-1.153924	-0.100979	6
C	-1.532324	-0.109944	-0.169749	6
N	-1.468014	1.164116	0.079241	7
O	-0.226684	1.619256	0.564481	8
C	0.838036	1.395336	-0.361719	6
O	1.580326	0.208326	-0.074349	8
H	1.450556	-1.637173	0.757541	1
H	0.598036	-0.389524	1.652891	1
H	-0.890634	-2.034034	0.378191	1
H	-0.210914	-1.427854	-1.135859	1
H	-2.505474	-0.476394	-0.541769	1
H	1.529296	2.241117	-0.293289	1
H	0.473726	1.356236	-1.396089	1
Es	-0.978332	-0.605549	-0.120222	99
Es	0.149082	1.504063	0.191717	99
Es	-0.297269	-1.325466	-0.794986	99
Es	0.573345	1.360741	-1.066102	99
Es	1.241120	-1.361073	0.712693	99
Es	1.255710	-0.133800	0.189876	99
Es	-0.164506	1.438505	0.793620	99
Es	1.306876	1.969949	-0.308820	99
Es	-0.745168	1.389729	0.324222	99
Es	1.579995	0.208414	-0.074186	99
Es	1.643508	0.087894	-0.346657	99
Es	-0.751193	-1.738447	0.225073	99
Es	-0.226691	1.619057	0.564148	99
Es	-0.248631	1.924097	0.585156	99
Es	1.798329	0.292648	0.115711	99
Es	-2.182271	-0.359320	-0.418479	99
Es	-1.398436	0.668589	-0.301842	99
Es	0.158558	-0.940305	0.261638	99
Es	-0.447076	-1.153866	-0.100975	99
Es	0.652759	-0.512470	1.326461	99
Es	-1.467501	1.163667	0.079291	99
Es	0.811141	-0.755408	0.641293	99
Es	0.837956	1.395141	-0.361491	99
Es	-1.564468	0.551366	0.246887	99
Es	1.264787	0.641788	-0.165047	99
Es	-1.532303	-0.109986	-0.169768	99
Es	-1.736540	1.423745	0.053854	99
41
Properties=species:S:1:pos:R:3:Z:I:1 energy=-359.74981800367345 field_type=dipole dipole="0.000000 0.000000 0.000000" charge=0
C	0.811076	-0.755544	0.641461	6
C	-0.447014	-1.153924	-0.100979	6
C	-1.532324	-0.109944	-0.169749	6
N	-1.468014	1.164116	0.079241	7
O	-0.226684	1.619256	0.564481	8
C	0.838036	1.395336	-0.361719	6
O	1.580326	0.208326	-0.074349	8
H	1.450556	-1.637173	0.757541	1
H	0.598036	-0.389524	1.652891	1
H	-0.890634	-2.034034	0.378191	1
H	-0.210914	-1.427854	-1.135859	1
H	-2.505474	-0.476394	-0.541769	1
H	1.529296	2.241117	-0.293289	1
H	0.473726	1.356236	-1.396089	1
Es	0.652829	-0.512522	1.326507	99
Es	0.837956	1.395138	-0.361488	99
Es	-2.182358	-0.359283	-0.418354	99
Es	-1.532306	-0.109979	-0.169769	99
Es	-0.978363	-0.605655	-0.120253	99
Es	-1.467529	1.163669	0.079300	99
Es	1.306904	1.970003	-0.308822	99
Es	-0.165074	1.440081	0.794863	99
Es	1.642335	0.087938	-0.346040	99
Es	0.811139	-0.755408	0.641291	99
Es	0.158471	-0.940216	0.261581	99
Es	-0.297247	-1.325578	-0.795004	99
Es	-0.751164	-1.738394	0.225199	99
Es	0.149359	1.502467	0.192382	99
Es	1.799431	0.292328	0.115328	99
Es	1.255623	-0.133749	0.189957	99
Es	1.241080	-1.360998	0.712658	99
Es	-0.248295	1.924163	0.582908	99
Es	-1.398760	0.669189	-0.302373	99
Es	-1.736650	1.423575	0.054714	99
Es	-0.745197	1.389553	0.324492	99
Es	-1.563975	0.551034	0.246365	99
Es	1.579984	0.208388	-0.074256	99
Es	-0.226675	1.619062	0.564197	99
Es	1.264961	0.642008	-0.165325	99
Es	0.573380	1.360755	-1.066023	99
Es	-0.447078	-1.153870	-0.100971	99
41
Properties=species:S:1:pos:R:3:Z:I:1 energy=-359.74981800367345 field_type=dipole dipole="0.000000 0.000000 0.000000" charge=0
C	0.811076	-0.755544	0.641461	6
C	-0.447014	-1.153924	-0.100979	6
C	-1.532324	-0.109944	-0.169749	6
N	-1.468014	1.164116	0.079241	7
O	-0.226684	1.619256	0.564481	8
C	0.838036	1.395336	-0.361719	6
O	1.580326	0.208326	-0.074349	8
H	1.450556	-1.637173	0.757541	1
H	0.598036	-0.389524	1.652891	1
H	-0.890634	-2.034034	0.378191	1
H	-0.210914	-1.427854	-1.135859	1
H	-2.505474	-0.476394	-0.541769	1
H	1.529296	2.241117	-0.293289	1
H	0.473726	1.356236	-1.396089	1
Es	-0.297273	-1.325493	-0.795012	99
Es	-0.447073	-1.153864	-0.100972	99
Es	1.255426	-0.134211	0.189777	99
Es	1.580073	0.208380	-0.074301	99
Es	0.573397	1.360766	-1.066004	99
Es	0.837956	1.395137	-0.361488	99
Es	-0.226666	1.619065	0.564241	99
Es	-1.736210	1.423637	0.053429	99
Es	-1.532303	-0.109978	-0.169773	99
Es	0.149127	1.503651	0.191822	99
Es	1.643346	0.088190	-0.345517	99
Es	-1.467528	1.163675	0.079296	99
Es	-1.398536	0.668500	-0.301567	99
Es	1.241097	-1.361042	0.712696	99
Es	-0.751222	-1.738435	0.225132	99
Es	-2.182352	-0.359265	-0.418436	99
Es	-1.564787	0.551496	0.247005	99
Es	1.265027	0.641994	-0.165918	99
Es	-0.164300	1.439928	0.794121	99
Es	-0.248532	1.923626	0.583775	99
Es	0.652797	-0.512503	1.326459	99
Es	1.798467	0.292557	0.115609	99
Es	-0.978190	-0.605631	-0.120341	99
Es	0.158519	-0.940239	0.261648	99
Es	0.811139	-0.755409	0.641293	99
Es	1.306884	1.969984	-0.308852	99
Es	-0.745500	1.389186	0.324946	99
41
Properties=species:S:1:pos:R:3:Z:I:1 energy=-359.74981800367345 field_type=dipole dipole="0.000000 0.000000 0.000000" charge=0
C	0.811076	-0.755544	0.641461	6
C	-0.447014	-1.153924	-0.100979	6
C	-1.532324	-0.109944	-0.169749	6
N	-1.468014	1.164116	0.079241	7
O	-0.226684	1.619256	0.564481	8
C	0.838036	1.395336	-0.361719	6
O	1.580326	0.208326	-0.074349	8
H	1.450556	-1.637173	0.757541	1
H	0.598036	-0.389524	1.652891	1
H	-0.890634	-2.034034	0.378191	1
H	-0.210914	-1.427854	-1.135859	1
H	-2.505474	-0.476394	-0.541769	1
H	1.529296	2.241117	-0.293289	1
H	0.473726	1.356236	-1.396089	1
Es	-1.398571	0.668527	-0.301541	99
Es	1.306864	1.969950	-0.308822	99
Es	0.811139	-0.755409	0.641292	99
Es	0.158528	-0.940260	0.261593	99
Es	-0.978178	-0.605736	-0.120251	99
Es	1.264761	0.641915	-0.166399	99
Es	1.797768	0.292658	0.116082	99
Es	-0.745730	1.390040	0.324693	99
Es	-0.447081	-1.153864	-0.100972	99
Es	0.652773	-0.512527	1.326410	99
Es	1.579979	0.208451	-0.074102	99
Es	0.837957	1.395140	-0.361491	99
Es	-1.564823	0.551542	0.246882	99
Es	0.148971	1.504788	0.191210	99
Es	1.255367	-0.134330	0.189278	99
Es	-0.248304	1.923697	0.587280	99
Es	-0.297306	-1.325525	-0.795066	99
Es	-1.467524	1.163674	0.079298	99
Es	-1.736099	1.423427	0.053417	99
Es	-2.182421	-0.359199	-0.418440	99
Es	-0.751204	-1.738396	0.225198	99
Es	-1.532309	-0.109982	-0.169769	99
Es	1.241140	-1.360996	0.712752	99
Es	-0.226714	1.619068	0.564107	99
Es	-0.164078	1.437983	0.791660	99
Es	0.573432	1.360824	-1.066013	99
Es	1.644445	0.088240	-0.345218	99
41
Properties=species:S:1:pos:R:3:Z:I:1 energy=-359.74981800367345 field_type=dipole dipole="0.000000 0.000000 0.000000" charge=0
C	0.811076	-0.755544	0.641461	6
C	-0.447014	-1.153924	-0.100979	6
C	-1.532324	-0.109944	-0.169749	6
N	-1.468014	1.164116	0.079241	7
O	-0.226684	1.619256	0.564481	8
C	0.838036	1.395336	-0.361719	6
O	1.580326	0.208326	-0.074349	8
H	1.450556	-1.637173	0.757541	1
H	0.598036	-0.389524	1.652891	1
H	-0.890634	-2.034034	0.378191	1
H	-0.210914	-1.427854	-1.135859	1
H	-2.505474	-0.476394	-0.541769	1
H	1.529296	2.241117	-0.293289	1
H	0.473726	1.356236	-1.396089	1
Es	-0.164467	1.439694	0.793088	99
Es	0.652836	-0.512548	1.326416	99
Es	-1.467529	1.163668	0.079293	99
Es	-0.297289	-1.325445	-0.795040	99
Es	1.241073	-1.361010	0.712731	99
Es	1.265179	0.642444	-0.165342	99
Es	1.579995	0.208404	-0.074213	99
Es	-1.564821	0.551534	0.246782	99
Es	-0.447076	-1.153866	-0.100975	99
Es	-0.745807	1.389713	0.324994	99
Es	-1.736049	1.423296	0.053424	99
Es	-1.532306	-0.109980	-0.169771	99
Es	-1.398647	0.668569	-0.301506	99
Es	-0.751290	-1.738476	0.225199	99
Es	-0.978072	-0.605721	-0.120254	99
Es	-0.226702	1.619111	0.564178	99
Es	-2.182434	-0.359196	-0.418433	99
Es	1.306838	1.969948	-0.308908	99
Es	1.255532	-0.134310	0.189616	99
Es	0.811139	-0.755410	0.641292	99
Es	0.149398	1.503824	0.191835	99
Es	-0.248258	1.923366	0.584926	99
Es	1.643433	0.088376	-0.345721	99
Es	0.837956	1.395139	-0.361489	99
Es	1.798276	0.292037	0.115323	99
Es	0.158466	-0.940223	0.261630	99
Es	0.573407	1.360763	-1.066006	99
41
Properties=species:S:1:pos:R:3:Z:I:1 energy=-359.74981800367345 field_type=dipole dipole="0.000000 0.000000 0.000000" charge=0
C	0.811076	-0.755544	0.641461	6
C	-0.447014	-1.153924	-0.100979	6
C	-1.532324	-0.109944	-0.169749	6
N	-1.468014	1.164116	0.079241	7
O	-0.226684	1.619256	0.564481	8
C	0.838036	1.395336	-0.361719	6
O	1.580326	0.208326	-0.074349	8
H	1.450556	-1.637173	0.757541	1
H	0.598036	-0.389524	1.652891	1
H	-0.890634	-2.034034	0.378191	1
H	-0.210914	-1.427854	-1.135859	1
H	-2.505474	-0.476394	-0.541769	1
H	1.529296	2.241117	-0.293289	1
H	0.473726	1.356236	-1.396089	1
Es	1.241077	-1.361007	0.712762	99
Es	-1.532307	-0.109978	-0.169767	99
Es	0.811140	-0.755409	0.641293	99
Es	0.158491	-0.940155	0.261670	99
Es	-1.735998	1.423030	0.053638	99
Es	-1.398803	0.668832	-0.301686	99
Es	1.643996	0.087597	-0.345116	99
Es	-0.746122	1.390111	0.325117	99
Es	0.652819	-0.512563	1.326380	99
Es	1.579983	0.208391	-0.074256	99
Es	-0.226662	1.619084	0.564194	99
Es	-0.978137	-0.605822	-0.120210	99
Es	-0.447076	-1.153864	-0.100974	99
Es	-0.297287	-1.325374	-0.795004	99
Es	0.573442	1.360783	-1.065931	99
Es	1.797623	0.292623	0.114914	99
Es	-0.247944	1.923714	0.586391	99
Es	-2.182498	-0.359185	-0.418378	99
Es	-0.751223	-1.738542	0.225129	99
Es	-0.164140	1.438863	0.791728	99
Es	1.306840	1.969984	-0.308927	99
Es	1.264966	0.642258	-0.166606	99
Es	1.255852	-0.133933	0.190695	99
Es	0.148983	1.504051	0.191572	99
Es	-1.467525	1.163707	0.079308	99
Es	0.837956	1.395140	-0.361490	99
Es	-1.564665	0.551367	0.246616	99
41
Properties=species:S:1:pos:R:3:Z:I:1 energy=-359.74981800367345 field_type=dipole dipole="0.000000 0.000000 0.000000" charge=0
C	0.811076	-0.755544	0.641461	6
C	-0.447014	-1.153924	-0.100979	6
C	-1.532324	-0.109944	-0.169749	6
N	-1.468014	1.164116	0.079241	7
O	-0.226684	1.619256	0.564481	8
C	0.838036	1.395336	-0.361719	6
O	1.580326	0.208326	-0.074349	8
H	1.450556	-1.637173	0.757541	1
H	0.598036	-0.389524	1.652891	1
H	-0.890634	-2.034034	0.378191	1
H	-0.210914	-1.427854	-1.135859	1
H	-2.505474	-0.476394	-0.541769	1
H	1.529296	2.241117	-0.293289	1
H	0.473726	1.356236	-1.396089	1
Es	-0.447074	-1.153866	-0.100973	99
Es	-0.751319	-1.738489	0.225194	99
Es	-2.182533	-0.359123	-0.418408	99
Es	0.811141	-0.755419	0.641306	99
Es	0.837961	1.395137	-0.361492	99
Es	-0.248036	1.923160	0.585077	99
Es	0.158456	-0.940255	0.261659	99
Es	1.265279	0.642684	-0.165438	99
Es	1.255989	-0.134051	0.190667	99
Es	-1.398859	0.668624	-0.301640	99
Es	-0.297287	-1.325424	-0.795029	99
Es	1.799552	0.291819	0.113942	99
Es	1.306795	1.969999	-0.308972	99
Es	1.241049	-1.360981	0.712808	99
Es	-1.564934	0.551648	0.246707	99
Es	-0.226720	1.619118	0.564082	99
Es	0.573439	1.360757	-1.065904	99
Es	-1.735770	1.422997	0.053615	99
Es	1.579984	0.208366	-0.074293	99
Es	-0.978014	-0.605769	-0.120273	99
Es	0.652835	-0.512587	1.326323	99
Es	-0.746003	1.389758	0.325053	99
Es	-1.467525	1.163664	0.079291	99
Es	1.641699	0.088155	-0.345232	99
Es	-1.532303	-0.109976	-0.169767	99
Es	0.149882	1.503310	0.192179	99
Es	-0.164906	1.440445	0.792586	99
41
Properties=species:S:1:pos:R:3:Z:I:1 energy=-359.74981800367345 field_type=dipole dipole="0.000000 0.000000 0.000000" charge=0
C	0.811076	-0.755544	0.641461	6
C	-0.447014	-1.153924	-0.100979	6
C	-1.532324	-0.109944	-0.169749	6
N	-1.468014	1.164116	0.079241	7
O	-0.226684	1.619256	0.564481	8
C	0.838036	1.395336	-0.361719	6
O	1.580326	0.208326	-0.074349	8
H	1.450556	-1.637173	0.757541	1
H	0.598036	-0.389524	1.652891	1
H	-0.890634	-2.034034	0.378191	1
H	-0.210914	-1.427854	-1.135859	1
H	-2.505474	-0.476394	-0.541769	1
H	1.529296	2.241117	-0.293289	1
H	0.473726	1.356236	-1.396089	1
Es	-0.164558	1.440608	0.792820	99
Es	1.241059	-1.360997	0.712793	99
Es	-1.467529	1.163673	0.079296	99
Es	0.149533	1.503227	0.192189	99
Es	-0.248066	1.923394	0.584383	99
Es	-1.564952	0.551627	0.246618	99
Es	-0.297341	-1.325413	-0.795041	99
Es	-1.532286	-0.110004	-0.169771	99
Es	-0.751307	-1.738477	0.225182	99
Es	-0.977981	-0.605785	-0.120221	99
Es	1.798922	0.291909	0.114007	99
Es	0.837958	1.395140	-0.361490	99
Es	-0.447075	-1.153868	-0.100973	99
Es	1.265261	0.642696	-0.165804	99
Es	1.579970	0.208367	-0.074281	99
Es	-2.182539	-0.359138	-0.418406	99
Es	0.158489	-0.940202	0.261667	99
Es	-0.746066	1.389614	0.325391	99