43
Properties=species:S:1:pos:R:3:Z:I:1 energy=-270.9185478666586 field_type=dipole dipole="0.000000 0.000000 0.000000" charge=0
C	-3.038112	-1.039376	0.010482	6
C	-1.517762	-1.035126	0.010292	6
C	-0.960562	0.388254	-0.007328	6
C	0.483438	0.388254	-0.007328	6
C	1.673598	0.388254	-0.007328	6
C	3.079597	0.388254	-0.007328	6
C	3.781477	1.526264	-0.007298	6
H	-3.414302	-2.067186	0.023172	1
H	-3.432392	-0.544566	-0.883208	1
H	-3.432222	-0.522706	0.891792	1
H	-1.156732	-1.591236	-0.863408	1
H	-1.156572	-1.569506	0.897392	1
H	-1.332212	0.938044	0.865482	1
H	-1.332232	0.916274	-0.893468	1
H	3.593838	-0.568116	-0.007348	1
H	3.295017	2.497004	-0.007278	1
H	4.866138	1.507214	-0.007298	1
Es	-1.271802	-1.409183	-0.589685	99
Es	3.781525	1.526330	-0.007283	99
Es	-1.517784	-1.035065	0.010291	99
Es	-3.303425	-0.683267	0.613356	99
Es	1.110771	0.271975	0.329686	99
Es	3.407160	0.948117	-0.327248	99
Es	-1.271775	-1.394351	0.619379	99
Es	-0.960450	0.388237	-0.007327	99
Es	3.459584	2.183435	-0.007226	99
Es	-3.292713	-1.740348	0.019110	99
Es	-1.196025	0.741722	-0.605877	99
Es	-3.303457	-0.698247	-0.600928	99
Es	3.079454	0.388163	-0.007328	99
Es	-3.038091	-1.039374	0.010482	99
Es	-1.195970	0.756248	0.582577	99
Es	3.407206	0.948107	0.312591	99
Es	1.673865	0.388255	-0.007327	99
Es	1.099219	0.151941	-0.278173	99
Es	-2.282680	-1.028366	0.010190	99
Es	-0.211420	0.389913	-0.007363	99
Es	0.483177	0.388256	-0.007326	99
Es	1.086948	0.744106	-0.073205	99
Es	4.516537	1.518976	-0.007445	99
Es	3.410350	-0.257446	-0.007288	99
Es	-1.218408	-0.309274	0.001165	99
Es	2.357648	0.380952	-0.007620	99
43
Properties=species:S:1:pos:R:3:Z:I:1 energy=-270.9185478666586 field_type=dipole dipole="0.000000 0.000000 0.000000" charge=0
C	-3.038112	-1.039376	0.010482	6
C	-1.517762	-1.035126	0.010292	6
C	-0.960562	0.388254	-0.007328	6
C	0.483438	0.388254	-0.007328	6
C	1.673598	0.388254	-0.007328	6
C	3.079597	0.388254	-0.007328	6
C	3.781477	1.526264	-0.007298	6
H	-3.414302	-2.067186	0.023172	1
H	-3.432392	-0.544566	-0.883208	1
H	-3.432222	-0.522706	0.891792	1
H	-1.156732	-1.591236	-0.863408	1
H	-1.156572	-1.569506	0.897392	1
H	-1.332212	0.938044	0.865482	1
H	-1.332232	0.916274	-0.893468	1
H	3.593838	-0.568116	-0.007348	1
H	3.295017	2.497004	-0.007278	1
H	4.866138	1.507214	-0.007298	1
Es	-3.292846	-1.740235	0.019085	99
Es	-1.271731	-1.394181	0.619296	99
Es	-1.218446	-0.309467	0.001264	99
Es	-1.271710	-1.409253	-0.589623	99
Es	-0.211553	0.389973	-0.007407	99
Es	3.079451	0.388163	-0.007327	99
Es	3.459607	2.183375	-0.007263	99
Es	1.085895	0.750543	-0.012581	99
Es	1.105145	0.204039	-0.314458	99
Es	-1.517781	-1.035069	0.010290	99
Es	-3.303388	-0.683299	0.613349	99
Es	3.410344	-0.257488	-0.007309	99
Es	-2.282683	-1.028576	0.010219	99
Es	-0.960449	0.388236	-0.007328	99
Es	1.105952	0.213276	0.305065	99
Es	1.673851	0.388243	-0.007327	99
Es	0.483179	0.388255	-0.007327	99
Es	-1.195928	0.741668	-0.605956	99
Es	-1.195907	0.756411	0.582468	99
Es	3.407098	0.948213	0.312531	99
Es	2.357658	0.381052	-0.007274	99
Es	4.516610	1.518973	-0.007269	99
Es	3.781528	1.526335	-0.007298	99
Es	3.407118	0.948212	-0.327262	99
Es	-3.303483	-0.698208	-0.600862	99
Es	-3.038090	-1.039374	0.010482	99
43
Properties=species:S:1:pos:R:3:Z:I:1 energy=-270.9185478666586 field_type=dipole dipole="0.000000 0.000000 0.000000" charge=0
C	-3.038112	-1.039376	0.010482	6
C	-1.517762	-1.035126	0.010292	6
C	-0.960562	0.388254	-0.007328	6
C	0.483438	0.388254	-0.007328	6
C	1.673598	0.388254	-0.007328	6
C	3.079597	0.388254	-0.007328	6
C	3.781477	1.526264	-0.007298	6
H	-3.414302	-2.067186	0.023172	1
H	-3.432392	-0.544566	-0.883208	1
H	-3.432222	-0.522706	0.891792	1
H	-1.156732	-1.591236	-0.863408	1
H	-1.156572	-1.569506	0.897392	1
H	-1.332212	0.938044	0.865482	1
H	-1.332232	0.916274	-0.893468	1
H	3.593838	-0.568116	-0.007348	1
H	3.295017	2.497004	-0.007278	1
H	4.866138	1.507214	-0.007298	1
Es	-1.195883	0.756416	0.582458	99
Es	2.357675	0.381181	-0.007267	99
Es	-1.195838	0.741743	-0.606065	99
Es	0.483178	0.388260	-0.007329	99
Es	4.516624	1.518801	-0.007060	99
Es	-0.211688	0.389900	-0.007269	99
Es	-3.038089	-1.039375	0.010481	99
Es	3.410410	-0.257582	-0.007393	99
Es	-1.218372	-0.309495	0.001337	99
Es	-1.271634	-1.394320	0.619156	99
Es	-0.960450	0.388238	-0.007328	99
Es	1.105519	0.207445	-0.316278	99
Es	1.673851	0.388245	-0.007329	99
Es	1.085875	0.750683	-0.008780	99
Es	3.781529	1.526337	-0.007289	99
Es	-1.271827	-1.409134	-0.589634	99
Es	-1.517784	-1.035065	0.010292	99
Es	-2.282698	-1.028539	0.010361	99
Es	3.407027	0.948321	0.312276	99
Es	3.459619	2.183502	-0.007295	99
Es	3.079454	0.388164	-0.007326	99
Es	-3.303449	-0.698284	-0.600872	99
Es	1.105643	0.209664	0.303064	99
Es	3.407047	0.948224	-0.327124	99
Es	-3.303477	-0.683265	0.613291	99
Es	-3.292821	-1.740248	0.019101	99
43
Properties=species:S:1:pos:R:3:Z:I:1 energy=-270.9185478666586 field_type=dipole dipole="0.000000 0.000000 0.000000" charge=0
C	-3.038112	-1.039376	0.010482	6
C	-1.517762	-1.035126	0.010292	6
C	-0.960562	0.388254	-0.007328	6
C	0.483438	0.388254	-0.007328	6
C	1.673598	0.388254	-0.007328	6
C	3.079597	0.388254	-0.007328	6
C	3.781477	1.526264	-0.007298	6
H	-3.414302	-2.067186	0.023172	1
H	-3.432392	-0.544566	-0.883208	1
H	-3.432222	-0.522706	0.891792	1
H	-1.156732	-1.591236	-0.863408	1
H	-1.156572	-1.569506	0.897392	1
H	-1.332212	0.938044	0.865482	1
H	-1.332232	0.916274	-0.893468	1
H	3.593838	-0.568116	-0.007348	1
H	3.295017	2.497004	-0.007278	1
H	4.866138	1.507214	-0.007298	1
Es	4.516650	1.518898	-0.007299	99
Es	3.781524	1.526329	-0.007298	99
Es	2.357768	0.381042	-0.006978	99
Es	3.407121	0.948296	-0.326938	99
Es	0.483178	0.388258	-0.007326	99
Es	-3.038090	-1.039374	0.010482	99
Es	3.459477	2.183476	-0.007291	99
Es	-1.517784	-1.035065	0.010291	99
Es	1.673848	0.388240	-0.007322	99
Es	-1.195795	0.741736	-0.606014	99
Es	-1.195875	0.756452	0.582491	99
Es	1.112079	0.291441	-0.350234	99
Es	-0.211811	0.389915	-0.007483	99
Es	1.097337	0.137509	0.251119	99
Es	-2.282635	-1.028520	0.010264	99
Es	3.079459	0.388167	-0.007330	99
Es	-0.960450	0.388237	-0.007328	99
Es	-3.292820	-1.740217	0.019174	99
Es	-1.218347	-0.309604	0.001201	99
Es	-3.303591	-0.698317	-0.600826	99
Es	3.407051	0.948176	0.312501	99
Es	-1.271820	-1.409191	-0.589586	99
Es	3.410326	-0.257657	-0.007371	99
Es	1.087673	0.739122	0.076818	99
Es	-3.303416	-0.683290	0.613272	99
Es	-1.271617	-1.394241	0.619192	99
43
Properties=species:S:1:pos:R:3:Z:I:1 energy=-270.9185478666586 field_type=dipole dipole="0.000000 0.000000 0.000000" charge=0
C	-3.038112	-1.039376	0.010482	6
C	-1.517762	-1.035126	0.010292	6
C	-0.960562	0.388254	-0.007328	6
C	0.483438	0.388254	-0.007328	6
C	1.673598	0.388254	-0.007328	6
C	3.079597	0.388254	-0.007328	6
C	3.781477	1.526264	-0.007298	6
H	-3.414302	-2.067186	0.023172	1
H	-3.432392	-0.544566	-0.883208	1
H	-3.432222	-0.522706	0.891792	1
H	-1.156732	-1.591236	-0.863408	1
H	-1.156572	-1.569506	0.897392	1
H	-1.332212	0.938044	0.865482	1
H	-1.332232	0.916274	-0.893468	1
H	3.593838	-0.568116	-0.007348	1
H	3.295017	2.497004	-0.007278	1
H	4.866138	1.507214	-0.007298	1
Es	-0.212003	0.390368	-0.007466	99
Es	-3.038093	-1.039373	0.010481	99
Es	3.407024	0.948017	0.312471	99
Es	3.407112	0.948080	-0.326904	99
Es	3.079454	0.388163	-0.007328	99
Es	-3.303474	-0.683308	0.613168	99
Es	-1.517780	-1.035071	0.010290	99
Es	-3.292921	-1.740164	0.019165	99
Es	-1.195798	0.756504	0.582423	99
Es	1.673854	0.388240	-0.007323	99
Es	-1.195731	0.741747	-0.605970	99
Es	3.781524	1.526330	-0.007288	99
Es	-2.282594	-1.028652	0.010224	99
Es	1.112537	0.512029	-0.338335	99
Es	1.103362	0.623641	0.259112	99
Es	4.516646	1.518872	-0.007324	99
Es	-1.271678	-1.394214	0.619131	99
Es	-3.303558	-0.698324	-0.600784	99
Es	1.081055	0.033195	0.056905	99
Es	3.459507	2.183503	-0.007293	99
Es	0.483180	0.388260	-0.007328	99
Es	2.357900	0.380086	-0.007009	99
Es	-1.218421	-0.309616	0.001324	99
Es	3.410452	-0.257590	-0.007332	99
Es	-0.960451	0.388237	-0.007328	99
Es	-1.271664	-1.409144	-0.589502	99
43
Properties=species:S:1:pos:R:3:Z:I:1 energy=-270.9185478666586 field_type=dipole dipole="0.000000 0.000000 0.000000" charge=0
C	-3.038112	-1.039376	0.010482	6
C	-1.517762	-1.035126	0.010292	6
C	-0.960562	0.388254	-0.007328	6
C	0.483438	0.388254	-0.007328	6
C	1.673598	0.388254	-0.007328	6
C	3.079597	0.388254	-0.007328	6
C	3.781477	1.526264	-0.007298	6
H	-3.414302	-2.067186	0.023172	1
H	-3.432392	-0.544566	-0.883208	1
H	-3.432222	-0.522706	0.891792	1
H	-1.156732	-1.591236	-0.863408	1
H	-1.156572	-1.569506	0.897392	1
H	-1.332212	0.938044	0.865482	1
H	-1.332232	0.916274	-0.893468	1
H	3.593838	-0.568116	-0.007348	1
H	3.295017	2.497004	-0.007278	1
H	4.866138	1.507214	-0.007298	1
Es	-3.303555	-0.698273	-0.600743	99
Es	1.108263	0.237122	0.316712	99
Es	4.516694	1.518844	-0.007302	99
Es	-1.517783	-1.035066	0.010291	99
Es	-0.960452	0.388234	-0.007332	99
Es	0.483195	0.388274	-0.007316	99
Es	3.406987	0.948379	0.312308	99
Es	-3.038092	-1.039374	0.010482	99
Es	1.673848	0.388245	-0.007324	99
Es	-1.195647	0.741852	-0.606009	99
Es	1.102828	0.181266	-0.300268	99
Es	-1.218307	-0.309759	0.001249	99
Es	-1.271663	-1.394262	0.619051	99
Es	1.086120	0.749300	-0.038255	99
Es	3.459491	2.183480	-0.007295	99
Es	-0.212049	0.389854	-0.007306	99
Es	3.406972	0.948369	-0.326953	99
Es	3.079455	0.388165	-0.007332	99
Es	-1.195723	0.756540	0.582560	99
Es	3.410404	-0.257705	-0.007358	99
Es	-3.292960	-1.740152	0.019114	99
Es	3.781527	1.526334	-0.007298	99
Es	-3.303453	-0.683338	0.613194	99
Es	-1.271749	-1.409144	-0.589464	99
Es	-2.282612	-1.028658	0.010259	99
Es	2.357700	0.381291	-0.007488	99
