42
Properties=species:S:1:pos:R:3:Z:I:1 energy=-339.99948197154833 field_type=dipole dipole="0.000000 0.000000 0.000000" charge=0
C	-1.997833	-0.908656	-0.119026	6
C	-0.739403	-0.269156	0.354044	6
N	0.504637	-1.031886	0.380774	7
C	0.369287	0.061414	-0.613596	6
C	1.203567	1.274544	-0.394956	6
N	2.077687	1.211564	0.645554	7
O	1.096197	2.254244	-1.118226	8
H	-2.728613	-0.140246	-0.389906	1
H	-2.431103	-1.523506	0.676274	1
H	-1.837033	-1.546876	-0.994446	1
H	-0.906953	0.396674	1.193654	1
H	0.397577	-1.933926	-0.087956	1
H	0.274066	-0.248396	-1.647966	1
H	2.073756	0.389234	1.238524	1
H	2.644167	2.014974	0.877254	1
Es	2.108320	1.113758	0.293218	99
Es	1.203636	1.274478	-0.394824	99
Es	-2.486020	-0.387258	-0.298688	99
Es	2.400507	1.687087	0.795985	99
Es	2.073878	0.748541	1.005817	99
Es	1.307261	1.836210	-1.027311	99
Es	1.096232	2.253983	-1.118021	99
Es	-0.084781	-0.801756	0.469977	99
Es	-2.283230	-1.323631	0.423392	99
Es	0.798430	0.647657	-0.488664	99
Es	1.620850	1.309899	0.418698	99
Es	0.303916	-0.145444	-1.306444	99
Es	-1.875689	-1.343112	-0.713228	99
Es	0.423250	-1.564599	0.088922	99
Es	-1.356642	-0.596986	0.104611	99
Es	0.563759	-0.591605	-0.106475	99
Es	0.884556	2.210810	-1.345096	99
Es	-1.997803	-0.908648	-0.119017	99
Es	-0.844941	0.182054	0.923814	99
Es	0.952478	2.016091	-0.730587	99
Es	0.743453	-0.985979	0.653053	99
Es	0.504249	-1.031855	0.380327	99
Es	2.077436	1.211677	0.645669	99
Es	0.369306	0.061256	-0.613381	99
Es	1.289643	2.484603	-1.026895	99
Es	-0.274205	0.086176	-0.229636	99
Es	-0.739183	-0.269257	0.353970	99
42
Properties=species:S:1:pos:R:3:Z:I:1 energy=-339.99948197154833 field_type=dipole dipole="0.000000 0.000000 0.000000" charge=0
C	-1.997833	-0.908656	-0.119026	6
C	-0.739403	-0.269156	0.354044	6
N	0.504637	-1.031886	0.380774	7
C	0.369287	0.061414	-0.613596	6
C	1.203567	1.274544	-0.394956	6
N	2.077687	1.211564	0.645554	7
O	1.096197	2.254244	-1.118226	8
H	-2.728613	-0.140246	-0.389906	1
H	-2.431103	-1.523506	0.676274	1
H	-1.837033	-1.546876	-0.994446	1
H	-0.906953	0.396674	1.193654	1
H	0.397577	-1.933926	-0.087956	1
H	0.274066	-0.248396	-1.647966	1
H	2.073756	0.389234	1.238524	1
H	2.644167	2.014974	0.877254	1
Es	-1.875654	-1.343140	-0.713208	99
Es	1.307540	1.835670	-1.026033	99
Es	1.096221	2.254002	-1.118042	99
Es	0.884148	2.209742	-1.345120	99
Es	2.107545	1.113950	0.291549	99
Es	1.621070	1.310247	0.420730	99
Es	0.504229	-1.031845	0.380305	99
Es	2.074380	0.748232	1.005613	99
Es	-0.739185	-0.269259	0.353963	99
Es	0.741962	-0.986427	0.653938	99
Es	1.289334	2.485303	-1.027228	99
Es	1.203627	1.274489	-0.394827	99
Es	0.423445	-1.564565	0.089068	99
Es	-0.274356	0.086338	-0.229552	99
Es	2.400510	1.686896	0.795908	99
Es	-0.844955	0.181929	0.923851	99
Es	-1.997803	-0.908647	-0.119017	99
Es	0.952927	2.016984	-0.731466	99
Es	-2.485993	-0.387312	-0.298745	99
Es	-2.283288	-1.323601	0.423388	99
Es	0.303888	-0.145351	-1.306413	99
Es	-1.356645	-0.596939	0.104639	99
Es	0.369305	0.061250	-0.613375	99
Es	0.798286	0.647625	-0.488749	99
Es	0.565579	-0.591512	-0.106276	99
Es	-0.084932	-0.801557	0.468671	99
Es	2.077479	1.211647	0.645611	99
42
Properties=species:S:1:pos:R:3:Z:I:1 energy=-339.99948197154833 field_type=dipole dipole="0.000000 0.000000 0.000000" charge=0
C	-1.997833	-0.908656	-0.119026	6
C	-0.739403	-0.269156	0.354044	6
N	0.504637	-1.031886	0.380774	7
C	0.369287	0.061414	-0.613596	6
C	1.203567	1.274544	-0.394956	6
N	2.077687	1.211564	0.645554	7
O	1.096197	2.254244	-1.118226	8
H	-2.728613	-0.140246	-0.389906	1
H	-2.431103	-1.523506	0.676274	1
H	-1.837033	-1.546876	-0.994446	1
H	-0.906953	0.396674	1.193654	1
H	0.397577	-1.933926	-0.087956	1
H	0.274066	-0.248396	-1.647966	1
H	2.073756	0.389234	1.238524	1
H	2.644167	2.014974	0.877254	1
Es	-0.085027	-0.801844	0.470256	99
Es	2.400828	1.686726	0.795683	99
Es	-1.997804	-0.908648	-0.119017	99
Es	0.565784	-0.591025	-0.106370	99
Es	1.096234	2.253985	-1.118036	99
Es	-2.283290	-1.323595	0.423392	99
Es	0.798244	0.647411	-0.488833	99
Es	-1.356669	-0.596816	0.104668	99
Es	-0.739177	-0.269263	0.353960	99
Es	-1.875649	-1.343148	-0.713231	99
Es	1.203639	1.274477	-0.394827	99
Es	0.303984	-0.145300	-1.306356	99
Es	0.884831	2.208569	-1.343849	99
Es	1.621411	1.310566	0.422335	99
Es	2.077431	1.211674	0.645659	99
Es	-0.274324	0.086621	-0.229713	99
Es	0.504249	-1.031856	0.380328	99
Es	-2.485980	-0.387319	-0.298734	99
Es	1.288459	2.486409	-1.028602	99
Es	0.369303	0.061251	-0.613375	99
Es	2.074281	0.748474	1.005698	99
Es	2.107027	1.113563	0.290036	99
Es	-0.844935	0.181892	0.923777	99
Es	1.308231	1.836048	-1.026775	99
Es	0.741551	-0.986668	0.652519	99
Es	0.952446	2.016711	-0.730611	99
Es	0.423589	-1.564746	0.089203	99
42
Properties=species:S:1:pos:R:3:Z:I:1 energy=-339.99948197154833 field_type=dipole dipole="0.000000 0.000000 0.000000" charge=0
C	-1.997833	-0.908656	-0.119026	6
C	-0.739403	-0.269156	0.354044	6
N	0.504637	-1.031886	0.380774	7
C	0.369287	0.061414	-0.613596	6
C	1.203567	1.274544	-0.394956	6
N	2.077687	1.211564	0.645554	7
O	1.096197	2.254244	-1.118226	8
H	-2.728613	-0.140246	-0.389906	1
H	-2.431103	-1.523506	0.676274	1
H	-1.837033	-1.546876	-0.994446	1
H	-0.906953	0.396674	1.193654	1
H	0.397577	-1.933926	-0.087956	1
H	0.274066	-0.248396	-1.647966	1
H	2.073756	0.389234	1.238524	1
H	2.644167	2.014974	0.877254	1
Es	0.566035	-0.591510	-0.106385	99
Es	2.077425	1.211671	0.645634	99
Es	0.798272	0.647339	-0.488925	99
Es	1.306774	1.835485	-1.027575	99
Es	0.303980	-0.145270	-1.306231	99
Es	0.952175	2.016312	-0.730854	99
Es	1.203640	1.274476	-0.394827	99
Es	-0.085115	-0.801603	0.470196	99
Es	-1.997804	-0.908648	-0.119018	99
Es	0.423657	-1.564674	0.089486	99
Es	2.073445	0.749039	1.006121	99
Es	1.290159	2.485080	-1.027244	99
Es	0.504249	-1.031852	0.380325	99
Es	-2.486000	-0.387259	-0.298767	99
Es	-1.875699	-1.343159	-0.713162	99
Es	-1.356625	-0.596971	0.104854	99
Es	1.096213	2.253955	-1.118036	99
Es	2.399469	1.687130	0.796563	99
Es	-0.274559	0.086806	-0.229877	99
Es	2.110098	1.113521	0.293851	99
Es	0.741530	-0.986621	0.652408	99
Es	-0.844889	0.181911	0.923633	99
Es	-0.739187	-0.269260	0.353968	99
Es	0.884918	2.210867	-1.344181	99
Es	1.620509	1.309707	0.417271	99
Es	0.369296	0.061252	-0.613372	99
Es	-2.283301	-1.323575	0.423330	99
42
Properties=species:S:1:pos:R:3:Z:I:1 energy=-339.99948197154833 field_type=dipole dipole="0.000000 0.000000 0.000000" charge=0
C	-1.997833	-0.908656	-0.119026	6
C	-0.739403	-0.269156	0.354044	6
N	0.504637	-1.031886	0.380774	7
C	0.369287	0.061414	-0.613596	6
C	1.203567	1.274544	-0.394956	6
N	2.077687	1.211564	0.645554	7
O	1.096197	2.254244	-1.118226	8
H	-2.728613	-0.140246	-0.389906	1
H	-2.431103	-1.523506	0.676274	1
H	-1.837033	-1.546876	-0.994446	1
H	-0.906953	0.396674	1.193654	1
H	0.397577	-1.933926	-0.087956	1
H	0.274066	-0.248396	-1.647966	1
H	2.073756	0.389234	1.238524	1
H	2.644167	2.014974	0.877254	1
Es	0.798087	0.647229	-0.488905	99
Es	-0.845036	0.181690	0.923730	99
Es	0.883136	2.210190	-1.341953	99
Es	0.423593	-1.564640	0.089985	99
Es	-0.739177	-0.269259	0.353962	99
Es	0.369303	0.061255	-0.613377	99
Es	1.307845	1.836247	-1.029911	99
Es	0.504241	-1.031853	0.380319	99
Es	-0.274571	0.087177	-0.230001	99
Es	-1.356534	-0.596913	0.104788	99
Es	0.740727	-0.986855	0.652587	99
Es	2.110662	1.113104	0.293483	99
Es	0.954247	2.015068	-0.729623	99
Es	2.077380	1.211691	0.645660	99
Es	2.399271	1.687136	0.796685	99
Es	-1.875664	-1.343143	-0.713198	99
Es	-1.997806	-0.908647	-0.119018	99
Es	1.096224	2.254003	-1.118043	99
Es	1.620876	1.309754	0.417099	99
Es	0.304087	-0.145240	-1.306228	99
Es	-2.485970	-0.387282	-0.298759	99
Es	1.203636	1.274476	-0.394821	99
Es	0.567035	-0.591546	-0.106593	99
Es	1.288890	2.486151	-1.028405	99
Es	-2.283308	-1.323602	0.423380	99
Es	2.072757	0.749421	1.006511	99
Es	-0.085266	-0.801463	0.469832	99
42
Properties=species:S:1:pos:R:3:Z:I:1 energy=-339.99948197154833 field_type=dipole dipole="0.000000 0.000000 0.000000" charge=0
C	-1.997833	-0.908656	-0.119026	6
C	-0.739403	-0.269156	0.354044	6
N	0.504637	-1.031886	0.380774	7
C	0.369287	0.061414	-0.613596	6
C	1.203567	1.274544	-0.394956	6
N	2.077687	1.211564	0.645554	7
O	1.096197	2.254244	-1.118226	8
H	-2.728613	-0.140246	-0.389906	1
H	-2.431103	-1.523506	0.676274	1
H	-1.837033	-1.546876	-0.994446	1
H	-0.906953	0.396674	1.193654	1
H	0.397577	-1.933926	-0.087956	1
H	0.274066	-0.248396	-1.647966	1
H	2.073756	0.389234	1.238524	1
H	2.644167	2.014974	0.877254	1
Es	-2.283233	-1.323689	0.423352	99
Es	1.096221	2.253971	-1.118031	99
Es	0.567126	-0.591336	-0.106487	99
Es	2.077307	1.211720	0.645687	99
Es	0.953947	2.017599	-0.729031	99
Es	-0.739186	-0.269256	0.353963	99
Es	-2.486033	-0.387288	-0.298682	99
Es	-0.274542	0.087211	-0.230152	99
Es	0.504252	-1.031843	0.380333	99
Es	1.622548	1.311057	0.427805	99
Es	0.883235	2.209295	-1.342240	99
Es	1.203638	1.274477	-0.394826	99
Es	0.798144	0.647200	-0.489087	99
Es	-1.875688	-1.343058	-0.713230	99
Es	-0.844929	0.181724	0.923562	99
Es	-0.085248	-0.801667	0.470659	99
Es	0.304006	-0.145138	-1.306061	99
Es	0.740678	-0.987138	0.652030	99
Es	0.369299	0.061261	-0.613382	99
Es	1.307169	1.835353	-1.028122	99
Es	0.423577	-1.564609	0.089731	99
Es	-1.356616	-0.596854	0.104879	99
Es	-1.997805	-0.908648	-0.119018	99
Es	2.106082	1.113044	0.284492	99
Es	2.400261	1.686575	0.796054	99
Es	1.289708	2.485512	-1.030427	99
Es	2.074750	0.748677	1.005416	99
42
Properties=species:S:1:pos:R:3:Z:I:1 energy=-339.99948197154833 field_type=dipole dipole="0.000000 0.000000 0.000000" charge=0
C	-1.997833	-0.908656	-0.119026	6
C	-0.739403	-0.269156	0.354044	6
N	0.504637	-1.031886	0.380774	7
C	0.369287	0.061414	-0.613596	6
C	1.203567	1.274544	-0.394956	6
N	2.077687	1.211564	0.645554	7
O	1.096197	2.254244	-1.118226	8
H	-2.728613	-0.140246	-0.389906	1
H	-2.431103	-1.523506	0.676274	1
H	-1.837033	-1.546876	-0.994446	1
H	-0.906953	0.396674	1.193654	1
H	0.397577	-1.933926	-0.087956	1
H	0.274066	-0.248396	-1.647966	1
H	2.073756	0.389234	1.238524	1
H	2.644167	2.014974	0.877254	1
Es	-2.485975	-0.387283	-0.298757	99
Es	-0.844955	0.181618	0.923581	99
Es	-1.356570	-0.596857	0.104938	99
Es	-2.283313	-1.323628	0.423361	99
Es	0.740429	-0.986817	0.651753	99
Es	-0.085522	-0.801925	0.470853	99
Es	0.567209	-0.591251	-0.106751	99
Es	0.304052	-0.145091	-1.305996	99
Es	1.621542	1.310918	0.424193	99
Es	0.798108	0.647030	-0.489134	99
Es	1.203638	1.274479	-0.394829	99
Es	0.953014	2.015692	-0.730030	99
Es	1.096247	2.253974	-1.118024	99
Es	2.400078	1.686488	0.796139	99
Es	1.307182	1.835189	-1.029847	99
Es	2.107744	1.113029	0.287691	99
Es	0.883968	2.213470	-1.343534	99
Es	-0.274613	0.087407	-0.230158	99
Es	-0.739184	-0.269256	0.353963	99
Es	1.289909	2.483359	-1.026451	99
Es	2.074160	0.749035	1.005792	99
Es	-1.875675	-1.343109	-0.713192	99
Es	0.369301	0.061245	-0.613368	99
Es	-1.997803	-0.908648	-0.119018	99
Es	2.077415	1.211680	0.645645	99
Es	0.424033	-1.564752	0.090039	99
Es	0.504247	-1.031845	0.380328	99
42
Properties=species:S:1:pos:R:3:Z:I:1 energy=-339.99948197154833 field_type=dipole dipole="0.000000 0.000000 0.000000" charge=0
C	-1.997833	-0.908656	-0.119026	6
C	-0.739403	-0.269156	0.354044	6
N	0.504637	-1.031886	0.380774	7
C	0.369287	0.061414	-0.613596	6
C	1.203567	1.274544	-0.394956	6
N	2.077687	1.211564	0.645554	7
O	1.096197	2.254244	-1.118226	8
H	-2.728613	-0.140246	-0.389906	1
H	-2.431103	-1.523506	0.676274	1
H	-1.837033	-1.546876	-0.994446	1
H	-0.906953	0.396674	1.193654	1
H	0.397577	-1.933926	-0.087956	1
H	0.274066	-0.248396	-1.647966	1
H	2.073756	0.389234	1.238524	1
H	2.644167	2.014974	0.877254	1
Es	0.567337	-0.591348	-0.106615	99
Es	1.307126	1.835291	-1.027992	99
Es	-1.356560	-0.596808	0.104866	99
Es	1.203641	1.274475	-0.394829	99
Es	1.289820	2.484280	-1.028071	99
Es	-0.274810	0.087787	-0.230326	99
Es	0.304297	-0.145095	-1.305912	99
Es	-0.844984	0.181529	0.923576	99
Es	0.884876	2.211115	-1.343745	99
Es	-2.283260	-1.323579	0.423352	99
Es	-0.739187	-0.269256	0.353964	99
Es	1.622122	1.311204	0.427769	99
Es	0.740315	-0.987014	0.651470	99
Es	0.369295	0.061252	-0.613371	99
Es	2.077299	1.211712	0.645640	99
Es	2.106519	1.113344	0.284601	99
Es	0.424021	-1.564623	0.090140	99
Es	1.096217	2.254121	-1.118132	99
Es	2.075046	0.748531	1.005076	99
Es	-1.997806	-0.908648	-0.119017	99
Es	-0.085536	-0.801976	0.471086	99
Es	-2.486050	-0.387247	-0.298832	99
Es	-1.875650	-1.343182	-0.713098	99
Es	0.798135	0.646846	-0.489234	99
Es	2.399953	1.686395	0.796405	99
Es	0.504246	-1.031842	0.380328	99
Es	0.952242	2.016885	-0.729914	99
42
Properties=species:S:1:pos:R:3:Z:I:1 energy=-339.99948197154833 field_type=dipole dipole="0.000000 0.000000 0.000000" charge=0
C	-1.997833	-0.908656	-0.119026	6
C	-0.739403	-0.269156	0.354044	6
N	0.504637	-1.031886	0.380774	7
C	0.369287	0.061414	-0.613596	6
C	1.203567	1.274544	-0.394956	6
N	2.077687	1.211564	0.645554	7
O	1.096197	2.254244	-1.118226	8
H	-2.728613	-0.140246	-0.389906	1
H	-2.431103	-1.523506	0.676274	1
H	-1.837033	-1.546876	-0.994446	1
H	-0.906953	0.396674	1.193654	1
H	0.397577	-1.933926	-0.087956	1
H	0.274066	-0.248396	-1.647966	1
H	2.073756	0.389234	1.238524	1
H	2.644167	2.014974	0.877254	1
Es	-2.283344	-1.323657	0.423218	99
Es	-1.997806	-0.908649	-0.119018	99
Es	-1.875588	-1.343083	-0.713130	99
Es	-0.274735	0.087976	-0.230402	99
Es	0.798111	0.646751	-0.489249	99
Es	1.096227	2.253999	-1.118040	99
Es	-2.486036	-0.387235	-0.298823	99
Es	0.885693	2.210756	-1.344745	99
Es	1.622595	1.311504	0.429453	99
Es	0.424425	-1.564784	0.090433	99
Es	0.739754	-0.986840	0.651165	99
Es	2.074659	0.749000	1.005385	99
Es	-0.085596	-0.802272	0.471321	99
Es	-1.356566	-0.596824	0.105120	99
Es	0.567544	-0.591209	-0.106757	99
Es	1.307971	1.836012	-1.027353	99
Es	0.504267	-1.031858	0.380341	99
Es	2.400304	1.686292	0.796116	99
Es	-0.844955	0.181467	0.923481	99
Es	2.077440	1.211655	0.645599	99
Es	0.369299	0.061250	-0.613372	99
Es	0.951599	2.016378	-0.730321	99
Es	1.203640	1.274476	-0.394829	99
Es	1.288857	2.484566	-1.027389	99
Es	2.105911	1.112735	0.282930	99
Es	-0.739190	-0.269255	0.353964	99
Es	0.304185	-0.145001	-1.305912	99
42
Properties=species:S:1:pos:R:3:Z:I:1 energy=-339.99948197154833 field_type=dipole dipole="0.000000 0.000000 0.000000" charge=0
C	-1.997833	-0.908656	-0.119026	6
C	-0.739403	-0.269156	0.354044	6
N	0.504637	-1.031886	0.380774	7
C	0.369287	0.061414	-0.613596	6
C	1.203567	1.274544	-0.394956	6
N	2.077687	1.211564	0.645554	7
O	1.096197	2.254244	-1.118226	8
H	-2.728613	-0.140246	-0.389906	1
H	-2.431103	-1.523506	0.676274	1
H	-1.837033	-1.546876	-0.994446	1
H	-0.906953	0.396674	1.193654	1
H	0.397577	-1.933926	-0.087956	1
H	0.274066	-0.248396	-1.647966	1
H	2.073756	0.389234	1.238524	1
H	2.644167	2.014974	0.877254	1
Es	-0.274985	0.088239	-0.230553	99
Es	-0.739173	-0.269261	0.353961	99
Es	-2.486046	-0.387316	-0.298768	99
Es	1.203639	1.274476	-0.394828	99
Es	1.306887	1.834772	-1.028643	99
Es	2.077527	1.211622	0.645549	99
Es	2.073553	0.749660	1.006083	99
Es	0.953004	2.017285	-0.729515	99
Es	-1.356551	-0.596756	0.105004	99
Es	0.798029	0.646595	-0.489336	99
Es	0.424147	-1.564605	0.090178	99
Es	0.739401	-0.987518	0.650824	99
Es	-0.085631	-0.802002	0.471719	99
Es	-2.283254	-1.323665	0.423344	99
Es	1.290164	2.484293	-1.028895	99
Es	-1.997807	-0.908644	-0.119019	99
Es	2.400103	1.686483	0.796171	99
Es	1.096222	2.253988	-1.118028	99
Es	1.621831	1.311079	0.424942	99
Es	0.568363	-0.591058	-0.106427	99
Es	-0.844996	0.181422	0.923444	99
Es	0.369295	0.061249	-0.613366	99
Es	0.884099	2.211362	-1.342769	99
Es	-1.875646	-1.343095	-0.713161	99
Es	0.304354	-0.145005	-1.305776	99
Es	0.504239	-1.031839	0.380322	99
Es	2.107900	1.112392	0.286730	99
42
Properties=species:S:1:pos:R:3:Z:I:1 energy=-339.99948197154833 field_type=dipole dipole="0.000000 0.000000 0.000000" charge=0
C	-1.997833	-0.908656	-0.119026	6
C	-0.739403	-0.269156	0.354044	6
N	0.504637	-1.031886	0.380774	7
C	0.369287	0.061414	-0.613596	6
C	1.203567	1.274544	-0.394956	6
N	2.077687	1.211564	0.645554	7
O	1.096197	2.254244	-1.118226	8
H	-2.728613	-0.140246	-0.389906	1
H	-2.431103	-1.523506	0.676274	1
H	-1.837033	-1.546876	-0.994446	1
H	-0.906953	0.396674	1.193654	1
H	0.397577	-1.933926	-0.087956	1
H	0.274066	-0.248396	-1.647966	1
H	2.073756	0.389234	1.238524	1
H	2.644167	2.014974	0.877254	1
Es	0.369307	0.061243	-0.613369	99
Es	2.077460	1.211647	0.645603	99
Es	0.304404	-0.144936	-1.305716	99
Es	-2.283296	-1.323655	0.423291	99
Es	-1.356525	-0.596794	0.105116	99
Es	-0.844996	0.181409	0.923374	99
Es	2.074551	0.749412	1.005471	99
Es	0.798057	0.646457	-0.489391	99
Es	0.953076	2.017288	-0.729484	99
Es	1.289842	2.483908	-1.028625	99
Es	1.203638	1.274474	-0.394827	99
Es	-0.739190	-0.269251	0.353960	99
Es	0.739308	-0.987205	0.650443	99
Es	2.400796	1.685812	0.795786	99
Es	1.307185	1.834928	-1.028523	99
Es	-1.875616	-1.343101	-0.713115	99
Es	1.096232	2.254003	-1.118031	99
Es	1.623571	1.312321	0.433674	99
Es	0.568240	-0.591327	-0.106677	99
Es	0.884068	2.211606	-1.343167	99
Es	0.424392	-1.564703	0.090655	99
Es	-0.085766	-0.802093	0.472023	99
Es	-0.274980	0.088451	-0.230721	99
Es	-1.997805	-0.908648	-0.119018	99
Es	2.104512	1.112042	0.278942	99
Es	0.504254	-1.031850	0.380336	99
Es	-2.486053	-0.387288	-0.298827	99
42
Properties=species:S:1:pos:R:3:Z:I:1 energy=-339.99948197154833 field_type=dipole dipole="0.000000 0.000000 0.000000" charge=0
C	-1.997833	-0.908656	-0.119026	6
C	-0.739403	-0.269156	0.354044	6
N	0.504637	-1.031886	0.380774	7
C	0.369287	0.061414	-0.613596	6
C	1.203567	1.274544	-0.394956	6
N	2.077687	1.211564	0.645554	7
O	1.096197	2.254244	-1.118226	8
H	-2.728613	-0.140246	-0.389906	1
H	-2.431103	-1.523506	0.676274	1
H	-1.837033	-1.546876	-0.994446	1
H	-0.906953	0.396674	1.193654	1
H	0.397577	-1.933926	-0.087956	1
H	0.274066	-0.248396	-1.647966	1
H	2.073756	0.389234	1.238524	1
H	2.644167	2.014974	0.877254	1
Es	0.739017	-0.987120	0.650078	99
Es	-0.085761	-0.802230	0.472304	99
Es	-2.485980	-0.387287	-0.298802	99
Es	2.401357	1.685694	0.795416	99
Es	-0.274904	0.088541	-0.230805	99
Es	0.304304	-0.144953	-1.305651	99
Es	0.369302	0.061249	-0.613372	99
Es	-1.356527	-0.596764	0.105073	99
Es	0.424558	-1.564795	0.090987	99
Es	-0.844993	0.181357	0.923351	99
Es	-0.739179	-0.269255	0.353959	99
Es	0.953074	2.016261	-0.729597	99
Es	0.797978	0.646522	-0.489526	99
Es	-2.283319	-1.323627	0.423354	99
Es	-1.875670	-1.343119	-0.713150	99
Es	1.203639	1.274475	-0.394828	99
Es	0.504248	-1.031852	0.380329	99
Es	-1.997805	-0.908649	-0.119018	99
Es	2.077500	1.211635	0.645599	99
Es	0.884372	2.210378	-1.343652	99
Es	1.623746	1.312530	0.435740	99
Es	0.568488	-0.591304	-0.106780	99
Es	2.075407	0.748872	1.004999	99
Es	1.308163	1.836221	-1.028215	99
Es	2.102853	1.112511	0.277770	99
Es	1.288594	2.484683	-1.028240	99
Es	1.096205	2.254177	-1.118137	99
42
Properties=species:S:1:pos:R:3:Z:I:1 energy=-339.99948197154833 field_type=dipole dipole="0.000000 0.000000 0.000000" charge=0
C	-1.997833	-0.908656	-0.119026	6
C	-0.739403	-0.269156	0.354044	6
N	0.504637	-1.031886	0.380774	7
C	0.369287	0.061414	-0.613596	6
C	1.203567	1.274544	-0.394956	6
N	2.077687	1.211564	0.645554	7
O	1.096197	2.254244	-1.118226	8
H	-2.728613	-0.140246	-0.389906	1
H	-2.431103	-1.523506	0.676274	1
H	-1.837033	-1.546876	-0.994446	1
H	-0.906953	0.396674	1.193654	1
H	0.397577	-1.933926	-0.087956	1
H	0.274066	-0.248396	-1.647966	1
H	2.073756	0.389234	1.238524	1
H	2.644167	2.014974	0.877254	1
Es	-1.997805	-0.908648	-0.119017	99
Es	0.369293	0.061241	-0.613359	99
Es	2.077318	1.211702	0.645642	99
Es	2.399977	1.686202	0.796331	99
Es	0.797972	0.646324	-0.489518	99
Es	-0.085878	-0.802464	0.472557	99
Es	1.306204	1.834597	-1.029830	99
Es	1.290926	2.483112	-1.028586	99
Es	2.107322	1.112093	0.283453	99
Es	-1.356493	-0.596679	0.105182	99
Es	1.096203	2.253960	-1.118045	99
Es	0.953245	2.016998	-0.728879	99
Es	1.203640	1.274475	-0.394827	99
Es	0.504253	-1.031847	0.380335	99
Es	-1.875670	-1.343106	-0.713098	99
Es	-0.844952	0.181350	0.923293	99
Es	0.738689	-0.987201	0.649862	99
Es	0.568689	-0.591141	-0.106843	99
Es	1.622506	1.311554	0.428208	99
Es	2.073768	0.749789	1.005872	99
Es	0.424735	-1.564779	0.091041	99
Es	0.304396	-0.144873	-1.305578	99
Es	-0.739185	-0.269257	0.353963	99
Es	0.883845	2.213006	-1.342513	99
Es	-0.274981	0.088701	-0.230913	99
Es	-2.485969	-0.387333	-0.298861	99
Es	-2.283383	-1.323627	0.423313	99
42
Properties=species:S:1:pos:R:3:Z:I:1 energy=-339.99948197154833 field_type=dipole dipole="0.000000 0.000000 0.000000" charge=0
C	-1.997833	-0.908656	-0.119026	6
C	-0.739403	-0.269156	0.354044	6
N	0.504637	-1.031886	0.380774	7
C	0.369287	0.061414	-0.613596	6
C	1.203567	1.274544	-0.394956	6
N	2.077687	1.211564	0.645554	7
O	1.096197	2.254244	-1.118226	8
H	-2.728613	-0.140246	-0.389906	1
H	-2.431103	-1.523506	0.676274	1
H	-1.837033	-1.546876	-0.994446	1
H	-0.906953	0.396674	1.193654	1
H	0.397577	-1.933926	-0.087956	1
H	0.274066	-0.248396	-1.647966	1
H	2.073756	0.389234	1.238524	1
H	2.644167	2.014974	0.877254	1
Es	1.623196	1.312044	0.432436	99
Es	-0.844978	0.181179	0.923286	99
Es	-0.739184	-0.269257	0.353960	99
Es	1.289909	2.484230	-1.029287	99
Es	0.569147	-0.590842	-0.106838	99
Es	-1.356544	-0.596696	0.105215	99
Es	1.203637	1.274477	-0.394825	99
Es	0.953474	2.017117	-0.729018	99
Es	2.077457	1.211656	0.645610	99
Es	-2.486002	-0.387276	-0.298827	99
Es	-1.875609	-1.343128	-0.713143	99
Es	1.307067	1.834845	-1.029354	99
Es	2.074407	0.749645	1.005466	99
Es	0.304494	-0.144828	-1.305500	99
Es	0.738063	-0.987358	0.649803	99
Es	1.096232	2.253977	-1.118015	99
Es	-0.085775	-0.802689	0.472552	99
Es	0.369300	0.061243	-0.613365	99
Es	0.424868	-1.564804	0.091126	99
Es	0.504256	-1.031848	0.380329	99
Es	-0.275153	0.089052	-0.230953	99
Es	2.105643	1.111989	0.279735	99
Es	2.400172	1.685952	0.796246	99
Es	0.797930	0.646163	-0.489630	99
Es	-2.283335	-1.323624	0.423290	99
Es	0.883802	2.211579	-1.342095	99
Es	-1.997805	-0.908647	-0.119018	99
