42
Properties=species:S:1:pos:R:3:Z:I:1 energy=-339.9306462312177 field_type=dipole dipole="0.000000 0.000000 0.000000" charge=0
C	-2.288335	-0.128800	0.124957	6
C	-0.781785	-0.051510	0.013507	6
N	-0.264045	1.133520	0.040327	7
C	1.199595	1.182890	-0.117613	6
C	1.868615	-0.156620	0.157387	6
O	1.193595	-1.156090	-0.613503	8
N	-0.101165	-1.252330	-0.085903	7
H	-2.631065	-1.166520	0.149687	1
H	-2.738544	0.375360	-0.735153	1
H	-2.611105	0.374470	1.041027	1
H	1.411085	1.499050	-1.145693	1
H	1.608425	1.944580	0.554217	1
H	2.917085	-0.131240	-0.155173	1
H	1.839625	-0.421000	1.221817	1
H	-0.621985	-2.045760	-0.449893	1
Es	1.348350	1.388945	-0.818468	99
Es	1.324083	-1.433301	-0.553368	99
Es	-0.394782	-0.738627	-0.147396	99
Es	-1.528878	-0.121905	0.073525	99
Es	1.193531	-1.155943	-0.613265	99
Es	-0.418466	0.635765	0.317307	99
Es	2.579233	-0.142507	-0.062002	99
Es	1.537353	0.508097	0.029301	99
Es	-0.460526	1.439578	0.074186	99
Es	-2.288268	-0.128831	0.124947	99
Es	-0.408046	-1.704522	-0.330216	99
Es	1.199476	1.182834	-0.117580	99
Es	1.868491	-0.156785	0.157239	99
Es	-2.514060	-0.843098	0.138452	99
Es	-0.472960	0.667802	-0.255755	99
Es	1.161569	-1.032717	-0.903777	99
Es	-0.263782	1.133105	0.040290	99
Es	1.423044	-0.786046	-0.306494	99
Es	0.601674	-1.180632	-0.369250	99
Es	-0.129518	-1.233704	0.255935	99
Es	1.485248	1.695642	0.345378	99
Es	1.841640	-0.334889	0.885769	99
Es	-2.498262	0.202302	0.735822	99
Es	-0.781769	-0.051704	0.013524	99
Es	0.382921	1.121099	-0.024324	99
Es	-0.101192	-1.252095	-0.086435	99
Es	-2.578174	0.202417	-0.452608	99
42
Properties=species:S:1:pos:R:3:Z:I:1 energy=-339.9306462312177 field_type=dipole dipole="0.000000 0.000000 0.000000" charge=0
C	-2.288335	-0.128800	0.124957	6
C	-0.781785	-0.051510	0.013507	6
N	-0.264045	1.133520	0.040327	7
C	1.199595	1.182890	-0.117613	6
C	1.868615	-0.156620	0.157387	6
O	1.193595	-1.156090	-0.613503	8
N	-0.101165	-1.252330	-0.085903	7
H	-2.631065	-1.166520	0.149687	1
H	-2.738544	0.375360	-0.735153	1
H	-2.611105	0.374470	1.041027	1
H	1.411085	1.499050	-1.145693	1
H	1.608425	1.944580	0.554217	1
H	2.917085	-0.131240	-0.155173	1
H	1.839625	-0.421000	1.221817	1
H	-0.621985	-2.045760	-0.449893	1
Es	1.324506	-1.433672	-0.555669	99
Es	0.382919	1.121454	-0.024530	99
Es	2.579221	-0.142474	-0.062009	99
Es	-0.418304	0.636351	0.317752	99
Es	1.423466	-0.786149	-0.306324	99
Es	-0.460526	1.439174	0.073798	99
Es	-0.101195	-1.252092	-0.086468	99
Es	-2.288268	-0.128831	0.124947	99
Es	1.485180	1.695589	0.345325	99
Es	1.199476	1.182835	-0.117577	99
Es	0.601943	-1.181417	-0.368487	99
Es	1.160698	-1.031584	-0.902358	99
Es	1.348455	1.388964	-0.818461	99
Es	-2.514034	-0.843078	0.138459	99
Es	-2.578153	0.202373	-0.452642	99
Es	-0.473090	0.667186	-0.255545	99
Es	1.868490	-0.156786	0.157239	99
Es	1.537450	0.508107	0.029330	99
Es	-0.263769	1.133059	0.040273	99
Es	-0.129632	-1.234067	0.255704	99
Es	-1.529028	-0.121883	0.073414	99
Es	-0.781770	-0.051704	0.013523	99
Es	1.193458	-1.155895	-0.613153	99
Es	-0.394916	-0.738422	-0.147149	99
Es	-0.407982	-1.704292	-0.330360	99
Es	1.841609	-0.334829	0.885832	99
Es	-2.498276	0.202362	0.735872	99
42
Properties=species:S:1:pos:R:3:Z:I:1 energy=-339.9306462312177 field_type=dipole dipole="0.000000 0.000000 0.000000" charge=0
C	-2.288335	-0.128800	0.124957	6
C	-0.781785	-0.051510	0.013507	6
N	-0.264045	1.133520	0.040327	7
C	1.199595	1.182890	-0.117613	6
C	1.868615	-0.156620	0.157387	6
O	1.193595	-1.156090	-0.613503	8
N	-0.101165	-1.252330	-0.085903	7
H	-2.631065	-1.166520	0.149687	1
H	-2.738544	0.375360	-0.735153	1
H	-2.611105	0.374470	1.041027	1
H	1.411085	1.499050	-1.145693	1
H	1.608425	1.944580	0.554217	1
H	2.917085	-0.131240	-0.155173	1
H	1.839625	-0.421000	1.221817	1
H	-0.621985	-2.045760	-0.449893	1
Es	1.868491	-0.156786	0.157240	99
Es	1.161713	-1.032780	-0.903455	99
Es	0.601561	-1.181211	-0.368937	99
Es	1.423843	-0.786422	-0.306059	99
Es	-2.578158	0.202408	-0.452642	99
Es	1.841659	-0.334868	0.885712	99
Es	1.193480	-1.155922	-0.613244	99
Es	-2.288267	-0.128830	0.124947	99
Es	-0.129545	-1.234087	0.255455	99
Es	-2.514087	-0.843103	0.138500	99
Es	-0.101295	-1.251997	-0.086542	99
Es	2.579233	-0.142524	-0.061960	99
Es	1.323524	-1.432405	-0.554344	99
Es	1.199475	1.182835	-0.117577	99
Es	-0.473256	0.667675	-0.255340	99
Es	-0.418516	0.636065	0.317269	99
Es	-0.408236	-1.704333	-0.330415	99
Es	1.348450	1.389024	-0.818447	99
Es	-2.498240	0.202354	0.735796	99
Es	-0.781769	-0.051702	0.013527	99
Es	1.485188	1.695512	0.345258	99
Es	0.383172	1.121436	-0.024538	99
Es	-0.263763	1.133086	0.040286	99
Es	1.537451	0.508164	0.029409	99
Es	-1.529129	-0.121873	0.073445	99
Es	-0.394609	-0.738412	-0.146792	99
Es	-0.460443	1.438977	0.074185	99
42
Properties=species:S:1:pos:R:3:Z:I:1 energy=-339.9306462312177 field_type=dipole dipole="0.000000 0.000000 0.000000" charge=0
C	-2.288335	-0.128800	0.124957	6
C	-0.781785	-0.051510	0.013507	6
N	-0.264045	1.133520	0.040327	7
C	1.199595	1.182890	-0.117613	6
C	1.868615	-0.156620	0.157387	6
O	1.193595	-1.156090	-0.613503	8
N	-0.101165	-1.252330	-0.085903	7
H	-2.631065	-1.166520	0.149687	1
H	-2.738544	0.375360	-0.735153	1
H	-2.611105	0.374470	1.041027	1
H	1.411085	1.499050	-1.145693	1
H	1.608425	1.944580	0.554217	1
H	2.917085	-0.131240	-0.155173	1
H	1.839625	-0.421000	1.221817	1
H	-0.621985	-2.045760	-0.449893	1
Es	-0.101298	-1.251996	-0.086558	99
Es	-0.408062	-1.705040	-0.329457	99
Es	-0.460187	1.438706	0.074959	99
Es	1.199475	1.182836	-0.117577	99
Es	1.324116	-1.433713	-0.557803	99
Es	1.537470	0.508253	0.029388	99
Es	2.579222	-0.142574	-0.061908	99
Es	-2.288268	-0.128831	0.124948	99
Es	1.485224	1.695528	0.345259	99
Es	1.841657	-0.334853	0.885677	99
Es	-2.578166	0.202365	-0.452652	99
Es	1.868495	-0.156784	0.157238	99
Es	0.383002	1.121702	-0.024535	99
Es	0.601658	-1.181748	-0.368693	99
Es	-2.514063	-0.843102	0.138528	99
Es	-0.473404	0.668384	-0.256050	99
Es	1.160701	-1.030482	-0.900875	99
Es	-0.394746	-0.738969	-0.147747	99
Es	-0.129769	-1.232823	0.255503	99
Es	1.424278	-0.786960	-0.305478	99
Es	-1.529098	-0.121772	0.073536	99
Es	-0.781768	-0.051709	0.013526	99
Es	-0.263746	1.133029	0.040268	99
Es	-0.418492	0.635399	0.317024	99
Es	1.193474	-1.155916	-0.613165	99
Es	-2.498278	0.202374	0.735769	99
Es	1.348500	1.388975	-0.818387	99
42
Properties=species:S:1:pos:R:3:Z:I:1 energy=-339.9306462312177 field_type=dipole dipole="0.000000 0.000000 0.000000" charge=0
C	-2.288335	-0.128800	0.124957	6
C	-0.781785	-0.051510	0.013507	6
N	-0.264045	1.133520	0.040327	7
C	1.199595	1.182890	-0.117613	6
C	1.868615	-0.156620	0.157387	6
O	1.193595	-1.156090	-0.613503	8
N	-0.101165	-1.252330	-0.085903	7
H	-2.631065	-1.166520	0.149687	1
H	-2.738544	0.375360	-0.735153	1
H	-2.611105	0.374470	1.041027	1
H	1.411085	1.499050	-1.145693	1
H	1.608425	1.944580	0.554217	1
H	2.917085	-0.131240	-0.155173	1
H	1.839625	-0.421000	1.221817	1
H	-0.621985	-2.045760	-0.449893	1
Es	-2.514049	-0.843102	0.138454	99
Es	0.601752	-1.181827	-0.368536	99
Es	-0.408093	-1.704568	-0.329851	99
Es	-1.529192	-0.121790	0.073626	99
Es	1.485174	1.695404	0.345280	99
Es	-2.288266	-0.128832	0.124947	99
Es	-0.418752	0.635582	0.316963	99
Es	2.579236	-0.142574	-0.061894	99
Es	-2.578232	0.202499	-0.452616	99
Es	-0.394686	-0.738869	-0.147447	99
Es	-0.473360	0.668309	-0.255818	99
Es	-0.781768	-0.051704	0.013522	99
Es	1.324139	-1.433698	-0.558059	99
Es	1.160651	-1.030547	-0.900581	99
Es	1.424412	-0.786939	-0.305542	99
Es	-0.129915	-1.233330	0.255480	99
Es	1.537445	0.508183	0.029375	99
Es	-0.263739	1.133019	0.040264	99
Es	1.868491	-0.156783	0.157241	99
Es	-0.101262	-1.252031	-0.086521	99
Es	0.383292	1.121912	-0.024370	99
Es	-2.498192	0.202251	0.735840	99
Es	1.348507	1.389139	-0.818384	99
Es	-0.460263	1.438427	0.074541	99
Es	1.193440	-1.155853	-0.613220	99
Es	1.199474	1.182837	-0.117575	99
Es	1.841683	-0.334833	0.885617	99
42
Properties=species:S:1:pos:R:3:Z:I:1 energy=-339.9306462312177 field_type=dipole dipole="0.000000 0.000000 0.000000" charge=0
C	-2.288335	-0.128800	0.124957	6
C	-0.781785	-0.051510	0.013507	6
N	-0.264045	1.133520	0.040327	7
C	1.199595	1.182890	-0.117613	6
C	1.868615	-0.156620	0.157387	6
O	1.193595	-1.156090	-0.613503	8
N	-0.101165	-1.252330	-0.085903	7
H	-2.631065	-1.166520	0.149687	1
H	-2.738544	0.375360	-0.735153	1
H	-2.611105	0.374470	1.041027	1
H	1.411085	1.499050	-1.145693	1
H	1.608425	1.944580	0.554217	1
H	2.917085	-0.131240	-0.155173	1
H	1.839625	-0.421000	1.221817	1
H	-0.621985	-2.045760	-0.449893	1
Es	-2.498312	0.202437	0.735774	99
Es	-2.514074	-0.843058	0.138549	99
Es	-2.288268	-0.128831	0.124948	99
Es	-0.394657	-0.738642	-0.147058	99
Es	-2.578137	0.202312	-0.452682	99
Es	-0.408167	-1.704753	-0.329691	99
Es	-0.129892	-1.233341	0.254869	99
Es	-1.529259	-0.121756	0.073558	99
Es	2.579197	-0.142506	-0.061912	99
Es	1.868493	-0.156783	0.157241	99
Es	-0.460493	1.438173	0.073869	99
Es	-0.418645	0.636373	0.317218	99
Es	1.161680	-1.031587	-0.901564	99
Es	1.348463	1.389009	-0.818323	99
Es	1.485253	1.695517	0.345236	99
Es	0.601334	-1.181908	-0.369028	99
Es	-0.473332	0.667436	-0.255127	99
Es	-0.781770	-0.051699	0.013521	99
Es	1.199475	1.182835	-0.117577	99
Es	1.323512	-1.432439	-0.556819	99
Es	0.383418	1.122066	-0.024497	99
Es	1.537454	0.508254	0.029403	99
Es	-0.101272	-1.252026	-0.086545	99
Es	1.424513	-0.787080	-0.305331	99
Es	1.841739	-0.334877	0.885623	99
Es	-0.263767	1.133047	0.040277	99
Es	1.193444	-1.155893	-0.613197	99
42
Properties=species:S:1:pos:R:3:Z:I:1 energy=-339.9306462312177 field_type=dipole dipole="0.000000 0.000000 0.000000" charge=0
C	-2.288335	-0.128800	0.124957	6
C	-0.781785	-0.051510	0.013507	6
N	-0.264045	1.133520	0.040327	7
C	1.199595	1.182890	-0.117613	6
C	1.868615	-0.156620	0.157387	6
O	1.193595	-1.156090	-0.613503	8
N	-0.101165	-1.252330	-0.085903	7
H	-2.631065	-1.166520	0.149687	1
H	-2.738544	0.375360	-0.735153	1
H	-2.611105	0.374470	1.041027	1
H	1.411085	1.499050	-1.145693	1
H	1.608425	1.944580	0.554217	1
H	2.917085	-0.131240	-0.155173	1
H	1.839625	-0.421000	1.221817	1
H	-0.621985	-2.045760	-0.449893	1
Es	-0.781769	-0.051707	0.013534	99
Es	1.160461	-1.030413	-0.899577	99
Es	-0.460296	1.437858	0.074885	99
Es	-0.263765	1.133044	0.040272	99
Es	2.579176	-0.142594	-0.061909	99
Es	1.348498	1.388963	-0.818355	99
Es	-1.529277	-0.121783	0.073576	99
Es	-0.130381	-1.231551	0.255341	99
Es	-0.473465	0.668491	-0.255769	99
Es	-0.394677	-0.739508	-0.148833	99
Es	1.424791	-0.786782	-0.305432	99
Es	1.485249	1.695529	0.345231	99
Es	-2.578164	0.202390	-0.452649	99
Es	1.193443	-1.155846	-0.613262	99
Es	1.868493	-0.156782	0.157242	99
Es	-0.418688	0.635411	0.316744	99
Es	-0.407931	-1.705528	-0.328689	99
Es	0.383423	1.122261	-0.024440	99
Es	1.841740	-0.334865	0.885637	99
Es	0.601772	-1.182775	-0.368118	99
Es	1.324173	-1.433180	-0.559286	99
Es	-2.514063	-0.843031	0.138466	99
Es	1.537524	0.508357	0.029424	99
Es	-0.101260	-1.252036	-0.086512	99
Es	1.199477	1.182835	-0.117577	99
Es	-2.288271	-0.128829	0.124948	99
Es	-2.498286	0.202352	0.735843	99
42
Properties=species:S:1:pos:R:3:Z:I:1 energy=-339.9306462312177 field_type=dipole dipole="0.000000 0.000000 0.000000" charge=0
C	-2.288335	-0.128800	0.124957	6
C	-0.781785	-0.051510	0.013507	6
N	-0.264045	1.133520	0.040327	7
C	1.199595	1.182890	-0.117613	6
C	1.868615	-0.156620	0.157387	6
O	1.193595	-1.156090	-0.613503	8
N	-0.101165	-1.252330	-0.085903	7
H	-2.631065	-1.166520	0.149687	1
H	-2.738544	0.375360	-0.735153	1
H	-2.611105	0.374470	1.041027	1
H	1.411085	1.499050	-1.145693	1
H	1.608425	1.944580	0.554217	1
H	2.917085	-0.131240	-0.155173	1
H	1.839625	-0.421000	1.221817	1
H	-0.621985	-2.045760	-0.449893	1
Es	-0.781771	-0.051703	0.013523	99
Es	-0.263757	1.133051	0.040277	99
Es	-1.529327	-0.121823	0.073532	99
Es	-0.408055	-1.705050	-0.329205	99
Es	1.348502	1.388974	-0.818243	99
Es	-0.101284	-1.252014	-0.086528	99
Es	2.579167	-0.142528	-0.061867	99
Es	-2.288269	-0.128831	0.124947	99
Es	-2.498287	0.202316	0.735819	99
Es	0.383441	1.122373	-0.024676	99
Es	0.601736	-1.182710	-0.368054	99
Es	1.841754	-0.334880	0.885589	99
Es	1.868499	-0.156778	0.157247	99
Es	1.537527	0.508327	0.029445	99
Es	-2.578183	0.202430	-0.452628	99
Es	1.160982	-1.032099	-0.900715	99
Es	-0.460315	1.437694	0.074350	99
Es	-0.130383	-1.232457	0.254850	99
Es	1.485242	1.695544	0.345184	99
Es	-2.514088	-0.843024	0.138453	99
Es	1.199476	1.182836	-0.117577	99
Es	-0.394605	-0.739011	-0.147894	99
Es	-0.418657	0.636020	0.317108	99
Es	1.323951	-1.432167	-0.557505	99
Es	1.193485	-1.155934	-0.613192	99
Es	-0.473540	0.667894	-0.255377	99
Es	1.424684	-0.786171	-0.306127	99
42
Properties=species:S:1:pos:R:3:Z:I:1 energy=-339.9306462312177 field_type=dipole dipole="0.000000 0.000000 0.000000" charge=0
C	-2.288335	-0.128800	0.124957	6
C	-0.781785	-0.051510	0.013507	6
N	-0.264045	1.133520	0.040327	7
C	1.199595	1.182890	-0.117613	6
C	1.868615	-0.156620	0.157387	6
O	1.193595	-1.156090	-0.613503	8
N	-0.101165	-1.252330	-0.085903	7
H	-2.631065	-1.166520	0.149687	1
H	-2.738544	0.375360	-0.735153	1
H	-2.611105	0.374470	1.041027	1
H	1.411085	1.499050	-1.145693	1
H	1.608425	1.944580	0.554217	1
H	2.917085	-0.131240	-0.155173	1
H	1.839625	-0.421000	1.221817	1
H	-0.621985	-2.045760	-0.449893	1
Es	0.383593	1.122694	-0.024575	99
Es	1.868491	-0.156785	0.157240	99
Es	-0.101283	-1.252016	-0.086519	99
Es	1.841769	-0.334817	0.885556	99
Es	1.323386	-1.433046	-0.559368	99
Es	-0.130381	-1.232304	0.254682	99
Es	1.485245	1.695449	0.345150	99
Es	2.579163	-0.142567	-0.061825	99
Es	-0.394610	-0.739080	-0.147869	99
Es	1.193498	-1.155930	-0.613263	99
Es	-2.578180	0.202390	-0.452598	99
Es	-0.460617	1.437496	0.073824	99
Es	-2.288272	-0.128831	0.124949	99
Es	1.199478	1.182835	-0.117578	99
Es	-2.498344	0.202314	0.735825	99
Es	1.425547	-0.787269	-0.305203	99
Es	1.161005	-1.030814	-0.899249	99
Es	-2.514076	-0.842998	0.138424	99
Es	0.601456	-1.182057	-0.368533	99
Es	-0.781770	-0.051698	0.013522	99
Es	-0.263768	1.133052	0.040275	99
Es	-1.529355	-0.121732	0.073495	99
Es	-0.408071	-1.705166	-0.329027	99
Es	1.348465	1.389081	-0.818255	99
Es	1.537548	0.508311	0.029364	99
Es	-0.473407	0.667235	-0.254887	99
Es	-0.418582	0.636533	0.317178	99
42
Properties=species:S:1:pos:R:3:Z:I:1 energy=-339.9306462312177 field_type=dipole dipole="0.000000 0.000000 0.000000" charge=0
C	-2.288335	-0.128800	0.124957	6
C	-0.781785	-0.051510	0.013507	6
N	-0.264045	1.133520	0.040327	7
C	1.199595	1.182890	-0.117613	6
C	1.868615	-0.156620	0.157387	6
O	1.193595	-1.156090	-0.613503	8
N	-0.101165	-1.252330	-0.085903	7
H	-2.631065	-1.166520	0.149687	1
H	-2.738544	0.375360	-0.735153	1
H	-2.611105	0.374470	1.041027	1
H	1.411085	1.499050	-1.145693	1
H	1.608425	1.944580	0.554217	1
H	2.917085	-0.131240	-0.155173	1
H	1.839625	-0.421000	1.221817	1
H	-0.621985	-2.045760	-0.449893	1
Es	-0.418735	0.635725	0.316860	99
Es	-0.460268	1.437100	0.074657	99
Es	1.868494	-0.156780	0.157243	99
Es	2.579184	-0.142566	-0.061818	99
Es	1.199478	1.182836	-0.117577	99
Es	1.841764	-0.334842	0.885524	99
Es	-1.529452	-0.121755	0.073555	99
Es	-0.408069	-1.705288	-0.328802	99
Es	-0.473637	0.668247	-0.255464	99
Es	-2.288269	-0.128831	0.124948	99
Es	1.324267	-1.431798	-0.558446	99
Es	-2.514099	-0.843025	0.138454	99
Es	-2.498297	0.202348	0.735821	99
Es	-0.263748	1.133052	0.040271	99
Es	-0.394578	-0.739228	-0.148162	99
Es	-2.578164	0.202410	-0.452621	99
Es	0.383596	1.122838	-0.024598	99
Es	-0.781768	-0.051703	0.013530	99
Es	1.537550	0.508372	0.029423	99
Es	1.193433	-1.155852	-0.613178	99
Es	0.601400	-1.183381	-0.368281	99
Es	-0.130479	-1.231966	0.254670	99
Es	1.485316	1.695530	0.345128	99
Es	-0.101330	-1.251974	-0.086522	99
Es	1.424683	-0.785933	-0.306147	99
Es	1.161182	-1.032210	-0.899529	99
Es	1.348476	1.388954	-0.818203	99
42
Properties=species:S:1:pos:R:3:Z:I:1 energy=-339.9306462312177 field_type=dipole dipole="0.000000 0.000000 0.000000" charge=0
C	-2.288335	-0.128800	0.124957	6
C	-0.781785	-0.051510	0.013507	6
N	-0.264045	1.133520	0.040327	7
C	1.199595	1.182890	-0.117613	6
C	1.868615	-0.156620	0.157387	6
O	1.193595	-1.156090	-0.613503	8
N	-0.101165	-1.252330	-0.085903	7
H	-2.631065	-1.166520	0.149687	1
H	-2.738544	0.375360	-0.735153	1
H	-2.611105	0.374470	1.041027	1
H	1.411085	1.499050	-1.145693	1
H	1.608425	1.944580	0.554217	1
H	2.917085	-0.131240	-0.155173	1
H	1.839625	-0.421000	1.221817	1
H	-0.621985	-2.045760	-0.449893	1
Es	2.579227	-0.142585	-0.061715	99
Es	1.425474	-0.786212	-0.306023	99
Es	-1.529521	-0.121710	0.073471	99
Es	1.537586	0.508393	0.029406	99
Es	1.323557	-1.431839	-0.558635	99
Es	1.161095	-1.032210	-0.899272	99
Es	1.193525	-1.155992	-0.613364	99
Es	1.348484	1.389008	-0.818173	99
Es	1.868494	-0.156781	0.157243	99
Es	-0.781770	-0.051700	0.013521	99
Es	-2.514090	-0.843022	0.138465	99
Es	1.485309	1.695477	0.345110	99
Es	-0.418765	0.636001	0.316988	99
Es	0.383630	1.123050	-0.024585	99
Es	1.199479	1.182836	-0.117578	99
Es	-0.130653	-1.231765	0.254447	99
Es	-0.394544	-0.739266	-0.148207	99
Es	-0.460320	1.436888	0.074317	99
Es	-2.288269	-0.128831	0.124947	99
Es	-0.263766	1.133046	0.040270	99
Es	1.841693	-0.334829	0.885463	99
Es	-0.408054	-1.705379	-0.328649	99
Es	-2.578213	0.202401	-0.452589	99
Es	-2.498255	0.202355	0.735850	99
Es	0.601480	-1.182993	-0.368199	99
Es	-0.101295	-1.252003	-0.086522	99
Es	-0.473590	0.667942	-0.255253	99
42
Properties=species:S:1:pos:R:3:Z:I:1 energy=-339.9306462312177 field_type=dipole dipole="0.000000 0.000000 0.000000" charge=0
C	-2.288335	-0.128800	0.124957	6
C	-0.781785	-0.051510	0.013507	6
N	-0.264045	1.133520	0.040327	7
C	1.199595	1.182890	-0.117613	6
C	1.868615	-0.156620	0.157387	6
O	1.193595	-1.156090	-0.613503	8
N	-0.101165	-1.252330	-0.085903	7
H	-2.631065	-1.166520	0.149687	1
H	-2.738544	0.375360	-0.735153	1
H	-2.611105	0.374470	1.041027	1
H	1.411085	1.499050	-1.145693	1
H	1.608425	1.944580	0.554217	1
H	2.917085	-0.131240	-0.155173	1
H	1.839625	-0.421000	1.221817	1
H	-0.621985	-2.045760	-0.449893	1
Es	-0.418805	0.635393	0.316318	99
Es	-0.408040	-1.705897	-0.328032	99
Es	1.193479	-1.155920	-0.613122	99
Es	1.485315	1.695471	0.345065	99
Es	1.161750	-1.033896	-0.899931	99
Es	-0.394596	-0.739182	-0.148107	99
Es	2.579232	-0.142629	-0.061688	99
Es	1.425612	-0.785683	-0.306313	99
Es	-2.498279	0.202325	0.735826	99
Es	1.348516	1.388980	-0.818135	99
Es	-0.473599	0.668552	-0.255412	99
Es	-0.101274	-1.252015	-0.086539	99
Es	-0.130640	-1.231273	0.253797	99
Es	-0.263766	1.133043	0.040270	99
Es	-2.578189	0.202442	-0.452638	99
Es	1.841679	-0.334812	0.885441	99
Es	-0.781770	-0.051699	0.013524	99
Es	0.601278	-1.182571	-0.368611	99
Es	1.199487	1.182840	-0.117578	99
Es	-2.288269	-0.128832	0.124945	99
Es	1.868496	-0.156781	0.157244	99
Es	-0.460399	1.436748	0.074990	99
Es	0.383719	1.123191	-0.024541	99
Es	1.537613	0.508410	0.029430	99
Es	1.323054	-1.431191	-0.557541	99
Es	-1.529575	-0.121740	0.073615	99
Es	-2.514101	-0.842995	0.138461	99
42
Properties=species:S:1:pos:R:3:Z:I:1 energy=-339.9306462312177 field_type=dipole dipole="0.000000 0.000000 0.000000" charge=0
C	-2.288335	-0.128800	0.124957	6
C	-0.781785	-0.051510	0.013507	6
N	-0.264045	1.133520	0.040327	7
C	1.199595	1.182890	-0.117613	6
C	1.868615	-0.156620	0.157387	6
O	1.193595	-1.156090	-0.613503	8
N	-0.101165	-1.252330	-0.085903	7
H	-2.631065	-1.166520	0.149687	1
H	-2.738544	0.375360	-0.735153	1
H	-2.611105	0.374470	1.041027	1
H	1.411085	1.499050	-1.145693	1
H	1.608425	1.944580	0.554217	1
H	2.917085	-0.131240	-0.155173	1
H	1.839625	-0.421000	1.221817	1
H	-0.621985	-2.045760	-0.449893	1
Es	-0.263769	1.133044	0.040273	99
Es	1.348498	1.388927	-0.818107	99
Es	1.868496	-0.156779	0.157244	99
Es	-0.408110	-1.705037	-0.328932	99
Es	1.193493	-1.155934	-0.613195	99
Es	1.485365	1.695521	0.345062	99
Es	-0.394440	-0.739267	-0.148027	99
Es	2.579192	-0.142607	-0.061752	99
Es	1.425559	-0.785581	-0.306541	99
Es	-2.288270	-0.128831	0.124947	99
Es	1.841768	-0.334822	0.885444	99
Es	-0.418883	0.635784	0.316614	99
Es	-1.529617	-0.121699	0.073572	99
Es	-0.460316	1.436456	0.074600	99
Es	-2.498312	0.202348	0.735829	99
Es	0.601230	-1.182193	-0.368681	99
Es	-0.130959	-1.231934	0.254293	99
Es	1.162028	-1.034353	-0.899989	99
Es	1.537605	0.508424	0.029441	99
Es	-2.578156	0.202420	-0.452616	99
Es	-0.101195	-1.252105	-0.086376	99
Es	1.322961	-1.431225	-0.556931	99
Es	-0.781770	-0.051701	0.013521	99
Es	0.383819	1.123350	-0.024566	99
Es	-2.514110	-0.843004	0.138434	99
Es	-0.473655	0.668242	-0.255245	99
Es	1.199479	1.182836	-0.117577	99
