41
Properties=species:S:1:pos:R:3:Z:I:1 energy=-359.77003211635446 field_type=dipole dipole="0.000000 0.000000 0.000000" charge=0
C	-1.492610	0.141516	-0.299919	6
C	0.027360	0.113396	-0.332519	6
O	0.473760	0.302946	-1.662979	8
C	0.625320	-1.118464	0.323661	6
O	0.913750	-0.735734	1.675671	8
N	1.070800	0.672266	1.710211	7
C	0.575080	1.131026	0.613021	6
H	-1.885140	0.033066	0.717121	1
H	-1.908190	-0.659134	-0.921189	1
H	-1.870410	1.086396	-0.706949	1
H	1.445990	0.237716	-1.671378	1
H	1.560150	-1.436354	-0.151229	1
H	-0.059770	-1.971624	0.333021	1
H	0.523910	2.202986	0.373451	1
Es	0.303725	0.651318	0.132384	99
Es	0.980084	-0.118126	1.646679	99
Es	0.593520	0.906670	1.332746	99
Es	1.223562	0.815492	2.020487	99
Es	-1.492561	0.141519	-0.299912	99
Es	0.913720	-0.735527	1.675334	99
Es	1.184731	-0.859310	1.757458	99
Es	0.804583	-0.857446	1.148915	99
Es	0.317692	-0.522260	-0.022502	99
Es	-1.762576	-0.404641	-0.715883	99
Es	0.654510	-0.764149	1.824076	99
Es	0.625361	-1.118384	0.323873	99
Es	-1.737866	0.785277	-0.570509	99
Es	0.027441	0.113447	-0.332699	99
Es	1.070533	0.671986	1.709686	99
Es	0.332498	0.235025	-1.144115	99
Es	-1.742386	0.065896	0.389849	99
Es	0.370144	0.058896	-1.811783	99
Es	0.543693	1.843622	0.454494	99
Es	0.473977	0.302879	-1.662697	99
Es	1.266527	-1.319532	-0.015735	99
Es	0.159533	-1.694259	0.330671	99
Es	-0.724849	0.127258	-0.310965	99
Es	0.400089	0.590664	-1.740728	99
Es	1.121567	0.862442	1.085920	99
Es	0.575081	1.131048	0.613018	99
Es	0.995210	0.265329	-1.642327	99
41
Properties=species:S:1:pos:R:3:Z:I:1 energy=-359.77003211635446 field_type=dipole dipole="0.000000 0.000000 0.000000" charge=0
C	-1.492610	0.141516	-0.299919	6
C	0.027360	0.113396	-0.332519	6
O	0.473760	0.302946	-1.662979	8
C	0.625320	-1.118464	0.323661	6
O	0.913750	-0.735734	1.675671	8
N	1.070800	0.672266	1.710211	7
C	0.575080	1.131026	0.613021	6
H	-1.885140	0.033066	0.717121	1
H	-1.908190	-0.659134	-0.921189	1
H	-1.870410	1.086396	-0.706949	1
H	1.445990	0.237716	-1.671378	1
H	1.560150	-1.436354	-0.151229	1
H	-0.059770	-1.971624	0.333021	1
H	0.523910	2.202986	0.373451	1
Es	0.473999	0.302886	-1.662709	99
Es	0.995610	0.266080	-1.642864	99
Es	0.655349	-0.764968	1.825076	99
Es	1.070530	0.672001	1.709686	99
Es	1.184795	-0.858536	1.756315	99
Es	0.159516	-1.694268	0.330576	99
Es	0.979788	-0.117976	1.646915	99
Es	0.370337	0.062203	-1.814719	99
Es	0.913725	-0.735521	1.675326	99
Es	-1.492560	0.141519	-0.299912	99
Es	1.266484	-1.319554	-0.015621	99
Es	-1.737954	0.785260	-0.570390	99
Es	1.223388	0.815509	2.020365	99
Es	0.543750	1.843682	0.454533	99
Es	0.625360	-1.118387	0.323870	99
Es	-1.742367	0.065769	0.389841	99
Es	1.121533	0.862455	1.085998	99
Es	0.803931	-0.857674	1.148995	99
Es	-1.762593	-0.404532	-0.715914	99
Es	0.303762	0.651272	0.132358	99
Es	0.317746	-0.522137	-0.022568	99
Es	0.593699	0.906738	1.332672	99
Es	-0.724776	0.127307	-0.311001	99
Es	0.331674	0.230348	-1.144265	99
Es	0.575094	1.131046	0.613015	99
Es	0.027443	0.113451	-0.332705	99
Es	0.400285	0.591158	-1.737135	99
41
Properties=species:S:1:pos:R:3:Z:I:1 energy=-359.77003211635446 field_type=dipole dipole="0.000000 0.000000 0.000000" charge=0
C	-1.492610	0.141516	-0.299919	6
C	0.027360	0.113396	-0.332519	6
O	0.473760	0.302946	-1.662979	8
C	0.625320	-1.118464	0.323661	6
O	0.913750	-0.735734	1.675671	8
N	1.070800	0.672266	1.710211	7
C	0.575080	1.131026	0.613021	6
H	-1.885140	0.033066	0.717121	1
H	-1.908190	-0.659134	-0.921189	1
H	-1.870410	1.086396	-0.706949	1
H	1.445990	0.237716	-1.671378	1
H	1.560150	-1.436354	-0.151229	1
H	-0.059770	-1.971624	0.333021	1
H	0.523910	2.202986	0.373451	1
Es	0.543764	1.843698	0.454576	99
Es	0.656233	-0.765742	1.825406	99
Es	0.913665	-0.735499	1.675319	99
Es	0.027441	0.113447	-0.332700	99
Es	-1.762662	-0.404590	-0.715809	99
Es	0.473955	0.302843	-1.662694	99
Es	0.397878	0.589544	-1.741065	99
Es	0.575089	1.131048	0.613013	99
Es	1.121553	0.862571	1.086067	99
Es	0.979248	-0.117740	1.647308	99
Es	0.625361	-1.118386	0.323871	99
Es	0.159531	-1.694244	0.330589	99
Es	1.223185	0.815550	2.020284	99
Es	1.266438	-1.319594	-0.015622	99
Es	0.593832	0.906721	1.332648	99
Es	-1.492567	0.141519	-0.299904	99
Es	0.317807	-0.522099	-0.022598	99
Es	1.184965	-0.858219	1.755530	99
Es	-1.742322	0.065895	0.389814	99
Es	-0.724809	0.127306	-0.311042	99
Es	0.372310	0.060411	-1.811010	99
Es	0.803517	-0.857637	1.149119	99
Es	-1.737974	0.785200	-0.570442	99
Es	0.331757	0.232779	-1.143766	99
Es	0.996086	0.267195	-1.643135	99
Es	1.070533	0.671978	1.709697	99
Es	0.303732	0.651178	0.132282	99
41
Properties=species:S:1:pos:R:3:Z:I:1 energy=-359.77003211635446 field_type=dipole dipole="0.000000 0.000000 0.000000" charge=0
C	-1.492610	0.141516	-0.299919	6
C	0.027360	0.113396	-0.332519	6
O	0.473760	0.302946	-1.662979	8
C	0.625320	-1.118464	0.323661	6
O	0.913750	-0.735734	1.675671	8
N	1.070800	0.672266	1.710211	7
C	0.575080	1.131026	0.613021	6
H	-1.885140	0.033066	0.717121	1
H	-1.908190	-0.659134	-0.921189	1
H	-1.870410	1.086396	-0.706949	1
H	1.445990	0.237716	-1.671378	1
H	1.560150	-1.436354	-0.151229	1
H	-0.059770	-1.971624	0.333021	1
H	0.523910	2.202986	0.373451	1
Es	1.266460	-1.319485	-0.015649	99
Es	1.121512	0.862653	1.086163	99
Es	0.803689	-0.858095	1.148825	99
Es	-0.724794	0.127361	-0.310816	99
Es	1.183697	-0.859297	1.757265	99
Es	0.159639	-1.694286	0.330549	99
Es	-1.737940	0.785271	-0.570453	99
Es	0.980269	-0.117729	1.647569	99
Es	0.027441	0.113448	-0.332699	99
Es	0.303682	0.651062	0.132141	99
Es	1.070535	0.671960	1.709706	99
Es	0.399588	0.590474	-1.738957	99
Es	-1.762651	-0.404618	-0.715830	99
Es	-1.492561	0.141519	-0.299912	99
Es	0.575096	1.131051	0.613007	99
Es	-1.742367	0.065901	0.389728	99
Es	0.331693	0.231929	-1.144104	99
Es	0.625360	-1.118386	0.323871	99
Es	0.913713	-0.735531	1.675348	99
Es	0.656350	-0.764349	1.823868	99
Es	0.473985	0.302911	-1.662676	99
Es	1.223099	0.815599	2.020032	99
Es	0.317766	-0.522181	-0.022503	99
Es	0.543768	1.843682	0.454613	99
Es	0.593867	0.906810	1.332651	99
Es	0.995663	0.266415	-1.642730	99
Es	0.370987	0.061045	-1.813268	99
41
Properties=species:S:1:pos:R:3:Z:I:1 energy=-359.77003211635446 field_type=dipole dipole="0.000000 0.000000 0.000000" charge=0
C	-1.492610	0.141516	-0.299919	6
C	0.027360	0.113396	-0.332519	6
O	0.473760	0.302946	-1.662979	8
C	0.625320	-1.118464	0.323661	6
O	0.913750	-0.735734	1.675671	8
N	1.070800	0.672266	1.710211	7
C	0.575080	1.131026	0.613021	6
H	-1.885140	0.033066	0.717121	1
H	-1.908190	-0.659134	-0.921189	1
H	-1.870410	1.086396	-0.706949	1
H	1.445990	0.237716	-1.671378	1
H	1.560150	-1.436354	-0.151229	1
H	-0.059770	-1.971624	0.333021	1
H	0.523910	2.202986	0.373451	1
Es	0.996028	0.266644	-1.643214	99
Es	0.399417	0.590626	-1.737505	99
Es	-1.737940	0.785183	-0.570498	99
Es	0.656309	-0.764391	1.824503	99
Es	0.332060	0.230648	-1.144332	99
Es	0.317858	-0.522067	-0.022526	99
Es	-0.724869	0.127308	-0.310988	99
Es	-1.492562	0.141519	-0.299913	99
Es	1.070511	0.671976	1.709679	99
Es	0.027440	0.113448	-0.332697	99
Es	-1.742326	0.065985	0.389828	99
Es	0.543774	1.843770	0.454627	99
Es	0.159579	-1.694228	0.330552	99
Es	1.183433	-0.858991	1.756920	99
Es	-1.762689	-0.404636	-0.715770	99
Es	1.222940	0.815637	2.019957	99
Es	0.370513	0.061901	-1.814005	99
Es	0.913739	-0.735491	1.675324	99
Es	1.121471	0.862651	1.086228	99
Es	0.303658	0.651058	0.132171	99
Es	0.473977	0.302923	-1.662646	99
Es	0.575090	1.131048	0.613014	99
Es	0.594122	0.906825	1.332561	99
Es	0.980613	-0.117923	1.647368	99
Es	1.266389	-1.319579	-0.015638	99
Es	0.625360	-1.118387	0.323871	99
Es	0.803649	-0.858324	1.148863	99
41
Properties=species:S:1:pos:R:3:Z:I:1 energy=-359.77003211635446 field_type=dipole dipole="0.000000 0.000000 0.000000" charge=0
C	-1.492610	0.141516	-0.299919	6
C	0.027360	0.113396	-0.332519	6
O	0.473760	0.302946	-1.662979	8
C	0.625320	-1.118464	0.323661	6
O	0.913750	-0.735734	1.675671	8
N	1.070800	0.672266	1.710211	7
C	0.575080	1.131026	0.613021	6
H	-1.885140	0.033066	0.717121	1
H	-1.908190	-0.659134	-0.921189	1
H	-1.870410	1.086396	-0.706949	1
H	1.445990	0.237716	-1.671378	1
H	1.560150	-1.436354	-0.151229	1
H	-0.059770	-1.971624	0.333021	1
H	0.523910	2.202986	0.373451	1
Es	1.266367	-1.319617	-0.015582	99
Es	-1.742279	0.065899	0.389787	99
Es	1.070534	0.671970	1.709695	99
Es	0.995744	0.265759	-1.643009	99
Es	0.331345	0.231332	-1.143934	99
Es	0.980280	-0.117831	1.647807	99
Es	-0.724793	0.127399	-0.311006	99
Es	0.594015	0.906954	1.332755	99
Es	0.543837	1.843796	0.454589	99
Es	0.473989	0.302723	-1.662674	99
Es	0.159583	-1.694189	0.330482	99
Es	-1.738044	0.785186	-0.570420	99
Es	-1.492562	0.141519	-0.299913	99
Es	0.803245	-0.858679	1.148725	99
Es	0.317920	-0.522038	-0.022562	99
Es	1.121484	0.862737	1.086256	99
Es	0.401047	0.590348	-1.737209	99
Es	0.657300	-0.763135	1.822502	99
Es	0.625362	-1.118385	0.323872	99
Es	0.913678	-0.735521	1.675342	99
Es	-1.762698	-0.404594	-0.715759	99
Es	1.183227	-0.860157	1.758843	99
Es	0.575087	1.131052	0.613007	99
Es	0.369871	0.062618	-1.814899	99
Es	1.222893	0.815552	2.019571	99
Es	0.303672	0.650988	0.132166	99
Es	0.027441	0.113448	-0.332695	99
41
Properties=species:S:1:pos:R:3:Z:I:1 energy=-359.77003211635446 field_type=dipole dipole="0.000000 0.000000 0.000000" charge=0
C	-1.492610	0.141516	-0.299919	6
C	0.027360	0.113396	-0.332519	6
O	0.473760	0.302946	-1.662979	8
C	0.625320	-1.118464	0.323661	6
O	0.913750	-0.735734	1.675671	8
N	1.070800	0.672266	1.710211	7
C	0.575080	1.131026	0.613021	6
H	-1.885140	0.033066	0.717121	1
H	-1.908190	-0.659134	-0.921189	1
H	-1.870410	1.086396	-0.706949	1
H	1.445990	0.237716	-1.671378	1
H	1.560150	-1.436354	-0.151229	1
H	-0.059770	-1.971624	0.333021	1
H	0.523910	2.202986	0.373451	1
Es	0.159636	-1.694175	0.330535	99
Es	0.575090	1.131048	0.613013	99
Es	0.371814	0.061407	-1.812615	99
Es	0.659292	-0.767446	1.828407	99
Es	0.593964	0.907005	1.332826	99
Es	0.543863	1.843814	0.454659	99
Es	0.473943	0.302896	-1.662734	99
Es	0.399128	0.589606	-1.739666	99
Es	-0.724690	0.127412	-0.310963	99
Es	-1.742329	0.065852	0.389722	99
Es	1.070534	0.672015	1.709690	99
Es	0.331236	0.231938	-1.143633	99
Es	0.625360	-1.118388	0.323868	99
Es	1.184019	-0.856004	1.752431	99
Es	-1.492561	0.141519	-0.299912	99
Es	0.303723	0.650988	0.132063	99
Es	-1.762669	-0.404560	-0.715757	99
Es	0.027441	0.113447	-0.332699	99
Es	-1.738079	0.785204	-0.570412	99
Es	0.979405	-0.117485	1.648058	99
Es	1.266342	-1.319630	-0.015625	99
Es	1.223287	0.815598	2.019356	99
Es	0.317809	-0.522104	-0.022544	99
Es	1.120994	0.862690	1.086366	99
Es	0.995874	0.266902	-1.643090	99
Es	0.801409	-0.858891	1.149037	99
Es	0.913711	-0.735525	1.675355	99
41
Properties=species:S:1:pos:R:3:Z:I:1 energy=-359.77003211635446 field_type=dipole dipole="0.000000 0.000000 0.000000" charge=0
C	-1.492610	0.141516	-0.299919	6
C	0.027360	0.113396	-0.332519	6
O	0.473760	0.302946	-1.662979	8
C	0.625320	-1.118464	0.323661	6
O	0.913750	-0.735734	1.675671	8
N	1.070800	0.672266	1.710211	7
C	0.575080	1.131026	0.613021	6
H	-1.885140	0.033066	0.717121	1
H	-1.908190	-0.659134	-0.921189	1
H	-1.870410	1.086396	-0.706949	1
H	1.445990	0.237716	-1.671378	1
H	1.560150	-1.436354	-0.151229	1
H	-0.059770	-1.971624	0.333021	1
H	0.523910	2.202986	0.373451	1
Es	0.400552	0.590421	-1.738124	99
Es	0.594141	0.906992	1.332718	99
Es	0.625360	-1.118386	0.323871	99
Es	0.913633	-0.735508	1.675381	99
Es	0.331100	0.231128	-1.143848	99
Es	0.027441	0.113448	-0.332697	99
Es	0.303710	0.650817	0.132006	99
Es	-1.762691	-0.404607	-0.715753	99
Es	-0.724871	0.127424	-0.310907	99
Es	0.159675	-1.694163	0.330539	99
Es	0.317865	-0.522047	-0.022563	99
Es	0.474012	0.302941	-1.662686	99
Es	0.802712	-0.858780	1.148962	99
Es	1.070533	0.671980	1.709695	99
Es	0.657597	-0.764076	1.824416	99
Es	0.543904	1.843848	0.454658	99
Es	1.121224	0.862852	1.086442	99
Es	0.995779	0.265494	-1.643140	99
Es	1.222796	0.815614	2.019286	99
Es	-1.742289	0.065912	0.389765	99
Es	-1.738046	0.785189	-0.570434	99
Es	0.575098	1.131047	0.613010	99
Es	0.370585	0.062803	-1.813962	99
Es	1.266325	-1.319630	-0.015641	99
Es	1.182458	-0.859284	1.756768	99
Es	0.981503	-0.117815	1.647889	99
Es	-1.492563	0.141519	-0.299913	99
41
Properties=species:S:1:pos:R:3:Z:I:1 energy=-359.77003211635446 field_type=dipole dipole="0.000000 0.000000 0.000000" charge=0
C	-1.492610	0.141516	-0.299919	6
C	0.027360	0.113396	-0.332519	6
O	0.473760	0.302946	-1.662979	8
C	0.625320	-1.118464	0.323661	6
O	0.913750	-0.735734	1.675671	8
N	1.070800	0.672266	1.710211	7
C	0.575080	1.131026	0.613021	6
H	-1.885140	0.033066	0.717121	1
H	-1.908190	-0.659134	-0.921189	1
H	-1.870410	1.086396	-0.706949	1
H	1.445990	0.237716	-1.671378	1
H	1.560150	-1.436354	-0.151229	1
H	-0.059770	-1.971624	0.333021	1
H	0.523910	2.202986	0.373451	1
Es	0.159642	-1.694242	0.330530	99
Es	0.657971	-0.766298	1.825642	99
Es	1.182521	-0.857219	1.755298	99
Es	-1.738109	0.785174	-0.570355	99
Es	0.543830	1.843861	0.454670	99
Es	0.594345	0.906945	1.332574	99
Es	0.995894	0.264891	-1.643659	99
Es	-1.762859	-0.404623	-0.715661	99
Es	-1.742134	0.065966	0.389740	99
Es	1.121453	0.862965	1.086476	99
Es	0.027440	0.113447	-0.332696	99
Es	0.317965	-0.521978	-0.022628	99
Es	0.473912	0.302908	-1.662777	99
Es	1.222384	0.815694	2.019237	99
Es	0.402414	0.590104	-1.735630	99
Es	1.070534	0.671952	1.709719	99
Es	0.303648	0.650746	0.132012	99
Es	-1.492563	0.141519	-0.299911	99
Es	0.368916	0.064270	-1.816049	99
Es	0.803820	-0.858967	1.148642	99
Es	0.330923	0.230623	-1.143671	99
Es	1.266236	-1.319636	-0.015524	99
Es	0.625360	-1.118387	0.323871	99
Es	0.913764	-0.735557	1.675354	99
Es	0.575091	1.131046	0.613014	99
Es	-0.724775	0.127389	-0.311053	99
Es	0.979920	-0.117459	1.648569	99
41
Properties=species:S:1:pos:R:3:Z:I:1 energy=-359.77003211635446 field_type=dipole dipole="0.000000 0.000000 0.000000" charge=0
C	-1.492610	0.141516	-0.299919	6
C	0.027360	0.113396	-0.332519	6
O	0.473760	0.302946	-1.662979	8
C	0.625320	-1.118464	0.323661	6
O	0.913750	-0.735734	1.675671	8
N	1.070800	0.672266	1.710211	7
C	0.575080	1.131026	0.613021	6
H	-1.885140	0.033066	0.717121	1
H	-1.908190	-0.659134	-0.921189	1
H	-1.870410	1.086396	-0.706949	1
H	1.445990	0.237716	-1.671378	1
H	1.560150	-1.436354	-0.151229	1
H	-0.059770	-1.971624	0.333021	1
H	0.523910	2.202986	0.373451	1
Es	0.396293	0.588463	-1.745856	99
Es	0.375267	0.059913	-1.807253	99
Es	1.121140	0.862942	1.086578	99
Es	-1.492562	0.141519	-0.299912	99
Es	-1.738123	0.785116	-0.570412	99
Es	1.181283	-0.859322	1.758829	99
Es	0.625360	-1.118388	0.323867	99
Es	1.266224	-1.319641	-0.015621	99
Es	-1.742318	0.065911	0.389715	99
Es	0.804997	-0.859275	1.148425	99
Es	0.027441	0.113447	-0.332693	99
Es	0.473949	0.302916	-1.662694	99
Es	1.222653	0.815644	2.018997	99
Es	0.317922	-0.522017	-0.022599	99
Es	0.657134	-0.763873	1.822544	99
Es	0.575092	1.131042	0.613017	99
Es	1.070532	0.671976	1.709693	99
Es	0.980896	-0.117628	1.648469	99
Es	0.913741	-0.735539	1.675345	99
Es	0.303676	0.650672	0.131947	99
Es	0.330591	0.234477	-1.143043	99
Es	0.594284	0.907051	1.332701	99
Es	-1.762659	-0.404629	-0.715761	99
Es	-0.724820	0.127567	-0.310851	99
Es	0.159665	-1.694178	0.330528	99
Es	0.543928	1.843897	0.454699	99
Es	0.995960	0.267069	-1.642925	99
41
Properties=species:S:1:pos:R:3:Z:I:1 energy=-359.77003211635446 field_type=dipole dipole="0.000000 0.000000 0.000000" charge=0
C	-1.492610	0.141516	-0.299919	6
C	0.027360	0.113396	-0.332519	6
O	0.473760	0.302946	-1.662979	8
C	0.625320	-1.118464	0.323661	6
O	0.913750	-0.735734	1.675671	8
N	1.070800	0.672266	1.710211	7
C	0.575080	1.131026	0.613021	6
H	-1.885140	0.033066	0.717121	1
H	-1.908190	-0.659134	-0.921189	1
H	-1.870410	1.086396	-0.706949	1
H	1.445990	0.237716	-1.671378	1
H	1.560150	-1.436354	-0.151229	1
H	-0.059770	-1.971624	0.333021	1
H	0.523910	2.202986	0.373451	1
Es	0.594360	0.907090	1.332749	99
Es	0.401768	0.588783	-1.738382	99
Es	1.121069	0.862998	1.086632	99
Es	0.657481	-0.763635	1.821018	99
Es	-1.492563	0.141519	-0.299913	99
Es	1.181072	-0.859848	1.760026	99
Es	-1.738106	0.785173	-0.570164	99
Es	0.980161	-0.117388	1.649028	99
Es	-0.724781	0.127558	-0.310888	99
Es	0.805568	-0.859327	1.148315	99
Es	1.222615	0.815667	2.018797	99
Es	0.303718	0.650608	0.131900	99
Es	0.913753	-0.735519	1.675353	99
Es	0.575092	1.131044	0.613016	99
Es	1.070536	0.671970	1.709690	99
Es	0.159702	-1.694185	0.330525	99
Es	0.027439	0.113447	-0.332692	99
Es	-1.762742	-0.404469	-0.715925	99
Es	0.317890	-0.522019	-0.022588	99
Es	0.370130	0.062894	-1.814381	99
Es	0.995952	0.265440	-1.643065	99
Es	0.330249	0.232854	-1.143278	99
Es	0.625359	-1.118385	0.323869	99
Es	-1.742315	0.065716	0.389674	99
Es	1.266216	-1.319628	-0.015624	99
Es	0.473999	0.302860	-1.662677	99
Es	0.543923	1.843915	0.454721	99
41
Properties=species:S:1:pos:R:3:Z:I:1 energy=-359.77003211635446 field_type=dipole dipole="0.000000 0.000000 0.000000" charge=0
C	-1.492610	0.141516	-0.299919	6
C	0.027360	0.113396	-0.332519	6
O	0.473760	0.302946	-1.662979	8
C	0.625320	-1.118464	0.323661	6
O	0.913750	-0.735734	1.675671	8
N	1.070800	0.672266	1.710211	7
C	0.575080	1.131026	0.613021	6
H	-1.885140	0.033066	0.717121	1
H	-1.908190	-0.659134	-0.921189	1
H	-1.870410	1.086396	-0.706949	1
H	1.445990	0.237716	-1.671378	1
H	1.560150	-1.436354	-0.151229	1
H	-0.059770	-1.971624	0.333021	1
H	0.523910	2.202986	0.373451	1
Es	0.317838	-0.521946	-0.022614	99
Es	0.027440	0.113447	-0.332692	99
Es	0.303805	0.650586	0.131803	99
Es	1.181588	-0.857561	1.756004	99
Es	1.120730	0.863030	1.086749	99
Es	0.625359	-1.118394	0.323860	99
Es	1.070536	0.671965	1.709703	99
Es	0.980433	-0.117451	1.648887	99
Es	0.575079	1.131042	0.613034	99
Es	0.913766	-0.735521	1.675322	99
Es	-0.724816	0.127504	-0.310842	99
Es	0.159828	-1.694180	0.330514	99
Es	0.803550	-0.859628	1.148637	99
Es	-1.492567	0.141519	-0.299913	99
Es	0.400114	0.589037	-1.738540	99
Es	1.266183	-1.319600	-0.015613	99
Es	0.473971	0.302884	-1.662696	99
Es	0.996294	0.266136	-1.643813	99
Es	0.331006	0.231891	-1.143446	99
Es	0.594135	0.907206	1.332969	99
Es	0.370692	0.062859	-1.813317	99
Es	-1.762734	-0.404597	-0.715734	99
Es	0.658837	-0.765701	1.825090	99
Es	-1.738112	0.785128	-0.570382	99
Es	0.544033	1.843902	0.454671	99
Es	-1.742293	0.065916	0.389696	99
Es	1.222850	0.815662	2.018398	99
41
Properties=species:S:1:pos:R:3:Z:I:1 energy=-359.77003211635446 field_type=dipole dipole="0.000000 0.000000 0.000000" charge=0
C	-1.492610	0.141516	-0.299919	6
C	0.027360	0.113396	-0.332519	6
O	0.473760	0.302946	-1.662979	8
C	0.625320	-1.118464	0.323661	6
O	0.913750	-0.735734	1.675671	8
N	1.070800	0.672266	1.710211	7
C	0.575080	1.131026	0.613021	6
H	-1.885140	0.033066	0.717121	1
H	-1.908190	-0.659134	-0.921189	1
H	-1.870410	1.086396	-0.706949	1
H	1.445990	0.237716	-1.671378	1
H	1.560150	-1.436354	-0.151229	1
H	-0.059770	-1.971624	0.333021	1
H	0.523910	2.202986	0.373451	1
Es	0.474006	0.303049	-1.662625	99
Es	0.317866	-0.521886	-0.022561	99
Es	1.180669	-0.858245	1.757773	99
Es	0.575093	1.131035	0.613027	99
Es	0.804678	-0.859916	1.148317	99
Es	0.594504	0.907152	1.332701	99
Es	0.658340	-0.764742	1.823521	99
Es	0.401472	0.589066	-1.736648	99
Es	-1.738153	0.785136	-0.570385	99
Es	0.625357	-1.118389	0.323862	99
Es	-1.492562	0.141519	-0.299913	99
Es	0.544006	1.843983	0.454781	99
Es	0.330647	0.230567	-1.143292	99
Es	1.222447	0.815672	2.018500	99
Es	0.980716	-0.117472	1.649031	99
Es	0.996297	0.265281	-1.644282	99
Es	1.120974	0.863012	1.086722	99
Es	0.159847	-1.694223	0.330511	99
Es	1.070533	0.671995	1.709690	99
Es	0.913739	-0.735547	1.675360	99
Es	0.027438	0.113447	-0.332692	99
Es	-1.742329	0.065880	0.389645	99
Es	1.266164	-1.319563	-0.015612	99
Es	-1.762733	-0.404535	-0.715694	99
Es	0.303661	0.650548	0.131774	99
Es	-0.724796	0.127491	-0.310787	99
Es	0.369664	0.064816	-1.814987	99
41
Properties=species:S:1:pos:R:3:Z:I:1 energy=-359.77003211635446 field_type=dipole dipole="0.000000 0.000000 0.000000" charge=0
C	-1.492610	0.141516	-0.299919	6
C	0.027360	0.113396	-0.332519	6
O	0.473760	0.302946	-1.662979	8
C	0.625320	-1.118464	0.323661	6
O	0.913750	-0.735734	1.675671	8
N	1.070800	0.672266	1.710211	7
C	0.575080	1.131026	0.613021	6
H	-1.885140	0.033066	0.717121	1
H	-1.908190	-0.659134	-0.921189	1
H	-1.870410	1.086396	-0.706949	1
H	1.445990	0.237716	-1.671378	1
H	1.560150	-1.436354	-0.151229	1
H	-0.059770	-1.971624	0.333021	1
H	0.523910	2.202986	0.373451	1
Es	-1.738163	0.785084	-0.570385	99
Es	0.625359	-1.118388	0.323866	99
Es	0.473997	0.302870	-1.662718	99
Es	0.370611	0.063855	-1.813928	99
Es	0.980996	-0.117452	1.649018	99
Es	0.913730	-0.735545	1.675358	99
Es	-1.492563	0.141519	-0.299913	99
Es	0.159779	-1.694183	0.330488	99
Es	1.180381	-0.858335	1.757794	99
Es	-1.762763	-0.404526	-0.715666	99
Es	0.996140	0.265559	-1.643769	99
Es	0.804480	-0.860027	1.148376	99
Es	0.544015	1.844014	0.454812	99
Es	0.575091	1.131046	0.613015	99
Es	0.027439	0.113447	-0.332690	99
Es	1.266114	-1.319627	-0.015590	99
Es	0.658602	-0.764595	1.823495	99
Es	-0.724765	0.127528	-0.310841	99
Es	1.120909	0.863108	1.086829	99
Es	0.594566	0.907154	1.332710	99
Es	0.400878	0.589121	-1.738151	99
Es	0.317965	-0.521930	-0.022612	99
Es	0.303685	0.650463	0.131733	99
Es	1.222368	0.815657	2.018403	99
Es	-1.742319	0.065914	0.389672	99
Es	1.070533	0.671976	1.709694	99
Es	0.330483	0.231426	-1.143263	99
41
Properties=species:S:1:pos:R:3:Z:I:1 energy=-359.77003211635446 field_type=dipole dipole="0.000000 0.000000 0.000000" charge=0
C	-1.492610	0.141516	-0.299919	6
C	0.027360	0.113396	-0.332519	6
O	0.473760	0.302946	-1.662979	8
C	0.625320	-1.118464	0.323661	6
O	0.913750	-0.735734	1.675671	8
N	1.070800	0.672266	1.710211	7
C	0.575080	1.131026	0.613021	6
H	-1.885140	0.033066	0.717121	1
H	-1.908190	-0.659134	-0.921189	1
H	-1.870410	1.086396	-0.706949	1
H	1.445990	0.237716	-1.671378	1
H	1.560150	-1.436354	-0.151229	1
H	-0.059770	-1.971624	0.333021	1
H	0.523910	2.202986	0.373451	1
Es	0.659035	-0.765009	1.823915	99
Es	0.804165	-0.859946	1.148341	99
Es	1.070534	0.671969	1.709697	99
Es	0.303706	0.650404	0.131717	99
Es	1.266099	-1.319599	-0.015609	99
Es	0.473944	0.302830	-1.662712	99
Es	0.399038	0.588128	-1.740397	99
Es	0.027439	0.113447	-0.332692	99
Es	-1.738135	0.785064	-0.570372	99
Es	0.625358	-1.118388	0.323863	99
Es	-1.742283	0.065972	0.389677	99
Es	0.980947	-0.117457	1.649356	99
Es	1.180396	-0.858106	1.757252	99
Es	0.330424	0.232265	-1.143014	99
Es	-1.762801	-0.404584	-0.715679	99
Es	0.594585	0.907210	1.332728	99
Es	0.159817	-1.694193	0.330481	99
Es	0.317935	-0.521913	-0.022654	99
Es	1.222321	0.815633	2.018172	99
Es	-1.492567	0.141519	-0.299913	99
Es	0.913713	-0.735507	1.675318	99
Es	-0.724846	0.127528	-0.310832	99
Es	0.544027	1.844031	0.454876	99
Es	0.575090	1.131045	0.613015	99
Es	0.372445	0.062503	-1.812027	99
Es	0.996276	0.267125	-1.643669	99
Es	1.120880	0.863161	1.086899	99
41
Properties=species:S:1:pos:R:3:Z:I:1 energy=-359.77003211635446 field_type=dipole dipole="0.000000 0.000000 0.000000" charge=0
C	-1.492610	0.141516	-0.299919	6
C	0.027360	0.113396	-0.332519	6
O	0.473760	0.302946	-1.662979	8
C	0.625320	-1.118464	0.323661	6
O	0.913750	-0.735734	1.675671	8
N	1.070800	0.672266	1.710211	7
C	0.575080	1.131026	0.613021	6
H	-1.885140	0.033066	0.717121	1
H	-1.908190	-0.659134	-0.921189	1
H	-1.870410	1.086396	-0.706949	1
H	1.445990	0.237716	-1.671378	1
H	1.560150	-1.436354	-0.151229	1
H	-0.059770	-1.971624	0.333021	1
H	0.523910	2.202986	0.373451	1
Es	0.625361	-1.118388	0.323871	99
Es	0.369259	0.064767	-1.815132	99
Es	-1.738218	0.785073	-0.570373	99
Es	-1.762763	-0.404613	-0.715654	99
Es	0.594840	0.907180	1.332645	99
Es	0.402364	0.588656	-1.736841	99
Es	0.659579	-0.765347	1.823978	99
Es	0.804291	-0.860375	1.148315	99
Es	0.473984	0.302962	-1.662667	99
Es	-1.492566	0.141519	-0.299913	99
Es	0.159871	-1.694159	0.330504	99
Es	1.222245	0.815702	2.018219	99
Es	1.266076	-1.319634	-0.015607	99
Es	-0.724810	0.127554	-0.310795	99
Es	0.913712	-0.735615	1.675457	99
Es	0.027436	0.113447	-0.332684	99
Es	0.303643	0.650348	0.131691	99
Es	-1.742269	0.065942	0.389618	99
Es	0.575087	1.131050	0.613011	99
Es	1.120803	0.863168	1.086929	99
Es	1.180090	-0.857543	1.756936	99
Es	0.544010	1.844063	0.454885	99
Es	0.980507	-0.117215	1.649487	99
Es	1.070537	0.671967	1.709706	99
Es	0.317935	-0.521875	-0.022649	99
Es	0.996014	0.264838	-1.644428	99
Es	0.330527	0.231659	-1.142772	99
41
Properties=species:S:1:pos:R:3:Z:I:1 energy=-359.77003211635446 field_type=dipole dipole="0.000000 0.000000 0.000000" charge=0
C	-1.492610	0.141516	-0.299919	6
C	0.027360	0.113396	-0.332519	6
O	0.473760	0.302946	-1.662979	8
C	0.625320	-1.118464	0.323661	6
O	0.913750	-0.735734	1.675671	8
N	1.070800	0.672266	1.710211	7
C	0.575080	1.131026	0.613021	6
H	-1.885140	0.033066	0.717121	1
H	-1.908190	-0.659134	-0.921189	1
H	-1.870410	1.086396	-0.706949	1
H	1.445990	0.237716	-1.671378	1
H	1.560150	-1.436354	-0.151229	1
H	-0.059770	-1.971624	0.333021	1
H	0.523910	2.202986	0.373451	1
Es	0.369462	0.064674	-1.815015	99
Es	-1.762792	-0.404570	-0.715742	99
Es	0.980851	-0.117356	1.649566	99
Es	0.625358	-1.118388	0.323864	99
Es	1.222170	0.815709	2.017957	99
Es	-1.492565	0.141520	-0.299912	99
Es	-1.742332	0.065935	0.389595	99
Es	1.266033	-1.319630	-0.015595	99
Es	0.330218	0.231762	-1.143035	99
Es	0.159860	-1.694170	0.330484	99
Es	0.575091	1.131045	0.613015	99
Es	0.402198	0.588447	-1.736980	99
Es	0.913704	-0.735540	1.675335	99
Es	0.303673	0.650307	0.131623	99
Es	0.027438	0.113447	-0.332687	99
Es	1.179733	-0.857929	1.757817	99
Es	1.120704	0.863195	1.087006	99
Es	-0.724821	0.127540	-0.310717	99
Es	1.070537	0.671976	1.709705	99
Es	0.544087	1.844087	0.454901	99
Es	0.804784	-0.860436	1.148239	99
Es	0.473975	0.302900	-1.662655	99
Es	0.317963	-0.521846	-0.022650	99
Es	0.594771	0.907208	1.332683	99
Es	0.996314	0.265066	-1.644170	99
Es	-1.738138	0.785077	-0.570320	99
Es	0.659271	-0.764895	1.823426	99
41
Properties=species:S:1:pos:R:3:Z:I:1 energy=-359.77003211635446 field_type=dipole dipole="0.000000 0.000000 0.000000" charge=0
C	-1.492610	0.141516	-0.299919	6
C	0.027360	0.113396	-0.332519	6
O	0.473760	0.302946	-1.662979	8
C	0.625320	-1.118464	0.323661	6
O	0.913750	-0.735734	1.675671	8
N	1.070800	0.672266	1.710211	7
C	0.575080	1.131026	0.613021	6
H	-1.885140	0.033066	0.717121	1
H	-1.908190	-0.659134	-0.921189	1
H	-1.870410	1.086396	-0.706949	1
H	1.445990	0.237716	-1.671378	1
H	1.560150	-1.436354	-0.151229	1
H	-0.059770	-1.971624	0.333021	1
H	0.523910	2.202986	0.373451	1
Es	1.265984	-1.319674	-0.015588	99
Es	0.544090	1.844047	0.454815	99
Es	0.027438	0.113447	-0.332683	99
Es	1.120766	0.863312	1.087078	99
Es	0.594686	0.907342	1.332821	99
Es	0.913659	-0.735580	1.675397	99
Es	0.982413	-0.117423	1.649623	99
Es	0.658213	-0.762584	1.820343	99
Es	0.329932	0.230879	-1.143047	99
Es	0.806435	-0.860836	1.147927	99
Es	-1.762822	-0.404499	-0.715774	99
Es	0.473960	0.302925	-1.662692	99
Es	1.070535	0.672006	1.709695	99
Es	-1.738213	0.785133	-0.570196	99
Es	0.625354	-1.118389	0.323855	99
Es	0.370150	0.065239	-1.814752	99
Es	0.159848	-1.694127	0.330483	99
Es	-1.742242	0.065795	0.389594	99
Es	-1.492563	0.141521	-0.299913	99
Es	-0.724826	0.127513	-0.310795	99
Es	0.575090	1.131048	0.613011	99
Es	0.303721	0.650246	0.131613	99
Es	1.177682	-0.859822	1.761198	99
Es	0.318031	-0.521780	-0.022657	99
Es	0.401877	0.588875	-1.737228	99
Es	1.222095	0.815586	2.017750	99
Es	0.996250	0.264934	-1.644144	99
41
Properties=species:S:1:pos:R:3:Z:I:1 energy=-359.77003211635446 field_type=dipole dipole="0.000000 0.000000 0.000000" charge=0
C	-1.492610	0.141516	-0.299919	6
C	0.027360	0.113396	-0.332519	6
O	0.473760	0.302946	-1.662979	8
C	0.625320	-1.118464	0.323661	6
O	0.913750	-0.735734	1.675671	8
N	1.070800	0.672266	1.710211	7
C	0.575080	1.131026	0.613021	6
H	-1.885140	0.033066	0.717121	1
H	-1.908190	-0.659134	-0.921189	1
H	-1.870410	1.086396	-0.706949	1
H	1.445990	0.237716	-1.671378	1
H	1.560150	-1.436354	-0.151229	1
H	-0.059770	-1.971624	0.333021	1
H	0.523910	2.202986	0.373451	1
Es	0.159865	-1.694130	0.330419	99
Es	0.803430	-0.860914	1.148439	99
Es	0.660647	-0.765323	1.824500	99
Es	1.222491	0.815616	2.017508	99
Es	0.594668	0.907394	1.332921	99
Es	-1.738231	0.785129	-0.570313	99
Es	-1.742238	0.065901	0.389554	99
Es	0.980895	-0.117242	1.649679	99
Es	0.330776	0.232301	-1.142529	99
Es	0.371216	0.063356	-1.812882	99
Es	-0.724888	0.127543	-0.310746	99
Es	-1.492565	0.141520	-0.299913	99
Es	0.027438	0.113447	-0.332687	99
Es	0.544217	1.844140	0.454915	99
Es	0.473912	0.302885	-1.662731	99
Es	0.996818	0.267650	-1.644992	99
Es	1.070533	0.671978	1.709697	99
Es	0.303766	0.650131	0.131437	99
Es	0.575088	1.131046	0.613015	99
Es	0.913741	-0.735559	1.675382	99
Es	1.265973	-1.319656	-0.015558	99
Es	0.625357	-1.118390	0.323859	99
Es	1.120205	0.863225	1.087228	99
Es	0.399501	0.586680	-1.738720	99
Es	0.318093	-0.521745	-0.022644	99
Es	-1.762831	-0.404559	-0.715643	99
Es	1.179667	-0.857294	1.756540	99
41
Properties=species:S:1:pos:R:3:Z:I:1 energy=-359.77003211635446 field_type=dipole dipole="0.000000 0.000000 0.000000" charge=0
C	-1.492610	0.141516	-0.299919	6
C	0.027360	0.113396	-0.332519	6
O	0.473760	0.302946	-1.662979	8
C	0.625320	-1.118464	0.323661	6
O	0.913750	-0.735734	1.675671	8
N	1.070800	0.672266	1.710211	7
C	0.575080	1.131026	0.613021	6
H	-1.885140	0.033066	0.717121	1
H	-1.908190	-0.659134	-0.921189	1
H	-1.870410	1.086396	-0.706949	1
H	1.445990	0.237716	-1.671378	1
H	1.560150	-1.436354	-0.151229	1
H	-0.059770	-1.971624	0.333021	1
H	0.523910	2.202986	0.373451	1
Es	1.222083	0.815631	2.017563	99
Es	-1.738245	0.785065	-0.570343	99
Es	0.625357	-1.118390	0.323860	99
Es	0.996618	0.266852	-1.644475	99
Es	-1.492561	0.141522	-0.299910	99
Es	0.913689	-0.735551	1.675362	99
Es	0.330112	0.231580	-1.142731	99
Es	-1.762785	-0.404610	-0.715662	99
Es	-0.724836	0.127628	-0.310657	99
Es	0.594909	0.907340	1.332742	99
Es	0.575092	1.131044	0.613015	99
Es	0.027438	0.113447	-0.332687	99
Es	-1.742285	0.065945	0.389536	99
Es	0.303699	0.650113	0.131521	99
Es	1.265982	-1.319739	-0.015550	99
Es	0.544152	1.844156	0.454937	99
Es	1.179400	-0.857047	1.756308	99
Es	0.473946	0.302878	-1.662698	99
Es	0.318082	-0.521775	-0.022708	99
Es	0.660574	-0.765738	1.824668	99
Es	0.980925	-0.117219	1.649946	99
Es	0.803810	-0.860789	1.148317	99
Es	0.159860	-1.694069	0.330446	99
Es	0.400350	0.587387	-1.738263	99
Es	0.371152	0.064183	-1.813707	99
Es	1.070534	0.671979	1.709696	99
Es	1.120497	0.863312	1.087209	99
41