45
Properties=species:S:1:pos:R:3:Z:I:1 energy=-288.0396373729513 field_type=dipole dipole="0.000000 0.000000 0.000000" charge=0
C	-1.293548	0.795191	-0.077897	6
C	-1.294988	-0.758189	0.004893	6
C	0.044702	-1.365939	0.507153	6
C	1.113262	-0.724339	-0.290827	6
N	2.317101	0.020311	-0.079937	7
C	1.114272	0.742511	0.181433	6
C	0.040852	1.397461	-0.598957	6
H	-2.126818	1.136770	-0.701867	1
H	-1.475558	1.182791	0.933263	1
H	-1.492688	-1.145239	-1.003407	1
H	-2.120398	-1.097049	0.640753	1
H	0.163942	-1.196910	1.584173	1
H	0.040612	-2.449059	0.344483	1
H	0.982992	-0.970109	-1.342737	1
H	2.787542	-0.276189	0.776413	1
H	1.009262	0.998461	1.233513	1
H	0.047152	2.479841	-0.432707	1
H	0.142312	1.229690	-1.677747	1
Es	0.128577	-1.243945	1.245570	99
Es	-1.294945	-0.758154	0.004902	99
Es	1.113433	-0.724171	-0.290713	99
Es	0.952283	0.001875	-0.058192	99
Es	0.031389	2.145236	-0.483526	99
Es	1.027218	0.896444	0.911953	99
Es	1.863899	0.498065	0.047859	99
Es	-1.857106	-0.986758	0.442802	99
Es	0.029083	-2.115087	0.396179	99
Es	-1.859678	1.025947	-0.507521	99
Es	2.316660	0.020234	-0.079467	99
Es	0.044701	-1.365900	0.507123	99
Es	-0.615546	-1.047417	0.258002	99
Es	0.109001	1.276758	-1.333807	99
Es	0.040853	1.397422	-0.598915	99
Es	1.114446	0.742341	0.181344	99
Es	1.847853	-0.473083	-0.141822	99
Es	-1.279178	0.018877	-0.036524	99
Es	-1.424266	-1.025046	-0.689019	99
Es	0.665652	1.128053	-0.239703	99
Es	-0.613591	1.080909	-0.336939	99
Es	0.666471	-1.099978	0.142243	99
Es	2.577669	-0.131956	0.449512	99
Es	2.508036	0.062025	-0.372803	99
Es	-1.293502	0.795159	-0.077905	99
Es	-1.412293	1.062531	0.619015	99
Es	1.009129	-0.876750	-1.014441	99
45
Properties=species:S:1:pos:R:3:Z:I:1 energy=-288.0396373729513 field_type=dipole dipole="0.000000 0.000000 0.000000" charge=0
C	-1.293548	0.795191	-0.077897	6
C	-1.294988	-0.758189	0.004893	6
C	0.044702	-1.365939	0.507153	6
C	1.113262	-0.724339	-0.290827	6
N	2.317101	0.020311	-0.079937	7
C	1.114272	0.742511	0.181433	6
C	0.040852	1.397461	-0.598957	6
H	-2.126818	1.136770	-0.701867	1
H	-1.475558	1.182791	0.933263	1
H	-1.492688	-1.145239	-1.003407	1
H	-2.120398	-1.097049	0.640753	1
H	0.163942	-1.196910	1.584173	1
H	0.040612	-2.449059	0.344483	1
H	0.982992	-0.970109	-1.342737	1
H	2.787542	-0.276189	0.776413	1
H	1.009262	0.998461	1.233513	1
H	0.047152	2.479841	-0.432707	1
H	0.142312	1.229690	-1.677747	1
Es	-0.615519	-1.047558	0.258071	99
Es	-1.294946	-0.758156	0.004901	99
Es	2.507877	0.062124	-0.372438	99
Es	-1.859747	1.025976	-0.507376	99
Es	0.040852	1.397421	-0.598915	99
Es	1.847433	-0.473596	-0.142174	99
Es	-1.424133	-1.025005	-0.689106	99
Es	0.665802	1.128182	-0.239658	99
Es	-1.412211	1.062548	0.618829	99
Es	0.029052	-2.115084	0.396223	99
Es	1.027266	0.896536	0.911827	99
Es	0.031333	2.145258	-0.483533	99
Es	-1.293503	0.795159	-0.077905	99
Es	0.128430	-1.243860	1.245638	99
Es	0.044702	-1.365901	0.507124	99
Es	0.951979	0.002011	-0.058065	99
Es	0.109111	1.276787	-1.333743	99
Es	-1.279252	0.018829	-0.036255	99
Es	1.864021	0.498560	0.048209	99
Es	-0.613599	1.080850	-0.337091	99
Es	1.009229	-0.876914	-1.014387	99
Es	1.114453	0.742354	0.181337	99
Es	0.666890	-1.100031	0.142041	99
Es	-1.857133	-0.986787	0.442575	99
Es	1.113435	-0.724169	-0.290711	99
Es	2.316642	0.020237	-0.079450	99
Es	2.577783	-0.132143	0.449236	99
45
Properties=species:S:1:pos:R:3:Z:I:1 energy=-288.0396373729513 field_type=dipole dipole="0.000000 0.000000 0.000000" charge=0
C	-1.293548	0.795191	-0.077897	6
C	-1.294988	-0.758189	0.004893	6
C	0.044702	-1.365939	0.507153	6
C	1.113262	-0.724339	-0.290827	6
N	2.317101	0.020311	-0.079937	7
C	1.114272	0.742511	0.181433	6
C	0.040852	1.397461	-0.598957	6
H	-2.126818	1.136770	-0.701867	1
H	-1.475558	1.182791	0.933263	1
H	-1.492688	-1.145239	-1.003407	1
H	-2.120398	-1.097049	0.640753	1
H	0.163942	-1.196910	1.584173	1
H	0.040612	-2.449059	0.344483	1
H	0.982992	-0.970109	-1.342737	1
H	2.787542	-0.276189	0.776413	1
H	1.009262	0.998461	1.233513	1
H	0.047152	2.479841	-0.432707	1
H	0.142312	1.229690	-1.677747	1
Es	-1.859745	1.025896	-0.507393	99
Es	0.667247	-1.100281	0.141907	99
Es	2.316689	0.020226	-0.079432	99
Es	0.040851	1.397419	-0.598914	99
Es	-1.412250	1.062614	0.618767	99
Es	0.044701	-1.365900	0.507123	99
Es	1.863962	0.498818	0.048465	99
Es	0.128553	-1.243924	1.245589	99
Es	0.666074	1.128294	-0.239494	99
Es	-1.857096	-0.986776	0.442716	99
Es	0.031328	2.145221	-0.483514	99
Es	1.009295	-0.877006	-1.014191	99
Es	1.847245	-0.473888	-0.142170	99
Es	0.109228	1.276855	-1.333722	99
Es	-1.293503	0.795159	-0.077905	99
Es	-0.613685	1.080794	-0.337147	99
Es	-1.279244	0.018857	-0.036379	99
Es	1.027355	0.896672	0.911704	99
Es	0.951355	0.002045	-0.058101	99
Es	1.113446	-0.724161	-0.290700	99
Es	-1.424263	-1.025075	-0.688876	99
Es	-0.615549	-1.047456	0.257892	99
Es	2.577911	-0.132124	0.449093	99
Es	0.029111	-2.115027	0.396244	99
Es	-1.294945	-0.758155	0.004901	99
Es	2.507722	0.062175	-0.372593	99
Es	1.114453	0.742355	0.181336	99
45
Properties=species:S:1:pos:R:3:Z:I:1 energy=-288.0396373729513 field_type=dipole dipole="0.000000 0.000000 0.000000" charge=0
C	-1.293548	0.795191	-0.077897	6
C	-1.294988	-0.758189	0.004893	6
C	0.044702	-1.365939	0.507153	6
C	1.113262	-0.724339	-0.290827	6
N	2.317101	0.020311	-0.079937	7
C	1.114272	0.742511	0.181433	6
C	0.040852	1.397461	-0.598957	6
H	-2.126818	1.136770	-0.701867	1
H	-1.475558	1.182791	0.933263	1
H	-1.492688	-1.145239	-1.003407	1
H	-2.120398	-1.097049	0.640753	1
H	0.163942	-1.196910	1.584173	1
H	0.040612	-2.449059	0.344483	1
H	0.982992	-0.970109	-1.342737	1
H	2.787542	-0.276189	0.776413	1
H	1.009262	0.998461	1.233513	1
H	0.047152	2.479841	-0.432707	1
H	0.142312	1.229690	-1.677747	1
Es	-1.859677	1.025948	-0.507313	99
Es	0.044702	-1.365901	0.507125	99
Es	0.031328	2.145214	-0.483589	99
Es	0.029097	-2.114999	0.396259	99
Es	-1.293503	0.795159	-0.077904	99
Es	0.666414	1.128548	-0.239288	99
Es	2.507275	0.062081	-0.371829	99
Es	-1.412290	1.062559	0.618765	99
Es	-0.615531	-1.047498	0.257836	99
Es	1.114456	0.742357	0.181334	99
Es	1.027396	0.896629	0.911569	99
Es	1.113433	-0.724169	-0.290711	99
Es	0.950955	0.002232	-0.058183	99
Es	0.109195	1.276785	-1.333723	99
Es	0.667297	-1.100318	0.141775	99
Es	2.578280	-0.131988	0.448884	99
Es	1.009397	-0.877141	-1.014096	99
Es	2.316650	0.020241	-0.079477	99
Es	-0.613638	1.080856	-0.337063	99
Es	1.864114	0.499287	0.048356	99
Es	1.847069	-0.474652	-0.142531	99
Es	-1.424315	-1.025035	-0.688757	99
Es	0.128646	-1.243915	1.245609	99
Es	-1.279342	0.018891	-0.036484	99
Es	-1.857069	-0.986809	0.442656	99
Es	-1.294945	-0.758155	0.004900	99
Es	0.040852	1.397421	-0.598915	99
45
Properties=species:S:1:pos:R:3:Z:I:1 energy=-288.0396373729513 field_type=dipole dipole="0.000000 0.000000 0.000000" charge=0
C	-1.293548	0.795191	-0.077897	6
C	-1.294988	-0.758189	0.004893	6
C	0.044702	-1.365939	0.507153	6
C	1.113262	-0.724339	-0.290827	6
N	2.317101	0.020311	-0.079937	7
C	1.114272	0.742511	0.181433	6
C	0.040852	1.397461	-0.598957	6
H	-2.126818	1.136770	-0.701867	1
H	-1.475558	1.182791	0.933263	1
H	-1.492688	-1.145239	-1.003407	1
H	-2.120398	-1.097049	0.640753	1
H	0.163942	-1.196910	1.584173	1
H	0.040612	-2.449059	0.344483	1
H	0.982992	-0.970109	-1.342737	1
H	2.787542	-0.276189	0.776413	1
H	1.009262	0.998461	1.233513	1
H	0.047152	2.479841	-0.432707	1
H	0.142312	1.229690	-1.677747	1
Es	0.666601	1.128659	-0.239269	99
Es	1.113432	-0.724168	-0.290711	99
Es	0.950315	0.002397	-0.058083	99
Es	2.506816	0.061851	-0.370924	99
Es	-1.293503	0.795160	-0.077904	99
Es	-1.859674	1.025985	-0.507233	99
Es	0.128700	-1.243942	1.245564	99
Es	2.578501	-0.131871	0.448913	99
Es	1.114455	0.742355	0.181334	99
Es	0.044702	-1.365902	0.507125	99
Es	-1.412270	1.062545	0.618708	99
Es	1.027543	0.896788	0.911452	99
Es	1.864122	0.499794	0.047984	99
Es	0.031332	2.145205	-0.483602	99
Es	0.667797	-1.100551	0.141627	99
Es	-1.294945	-0.758155	0.004901	99
Es	0.029158	-2.114967	0.396292	99
Es	0.040853	1.397423	-0.598916	99
Es	1.009439	-0.877248	-1.013912	99
Es	2.316728	0.020241	-0.079600	99
Es	-0.613675	1.080808	-0.337065	99
Es	1.846981	-0.475116	-0.143037	99
Es	-0.615648	-1.047464	0.257840	99
Es	-1.424321	-1.025069	-0.688774	99
Es	0.109242	1.276818	-1.333679	99
Es	-1.857015	-0.986822	0.442630	99
Es	-1.279421	0.018872	-0.036457	99
45
Properties=species:S:1:pos:R:3:Z:I:1 energy=-288.0396373729513 field_type=dipole dipole="0.000000 0.000000 0.000000" charge=0
C	-1.293548	0.795191	-0.077897	6
C	-1.294988	-0.758189	0.004893	6
C	0.044702	-1.365939	0.507153	6
C	1.113262	-0.724339	-0.290827	6
N	2.317101	0.020311	-0.079937	7
C	1.114272	0.742511	0.181433	6
C	0.040852	1.397461	-0.598957	6
H	-2.126818	1.136770	-0.701867	1
H	-1.475558	1.182791	0.933263	1
H	-1.492688	-1.145239	-1.003407	1
H	-2.120398	-1.097049	0.640753	1
H	0.163942	-1.196910	1.584173	1
H	0.040612	-2.449059	0.344483	1
H	0.982992	-0.970109	-1.342737	1
H	2.787542	-0.276189	0.776413	1
H	1.009262	0.998461	1.233513	1
H	0.047152	2.479841	-0.432707	1
H	0.142312	1.229690	-1.677747	1
Es	-1.424210	-1.025029	-0.688735	99
Es	1.009501	-0.877315	-1.013815	99
Es	-1.857126	-0.986839	0.442545	99
Es	1.114449	0.742338	0.181341	99
Es	0.040852	1.397421	-0.598914	99
Es	0.109284	1.276820	-1.333677	99
Es	-1.412274	1.062524	0.618637	99
Es	2.578385	-0.131762	0.448722	99
Es	0.949618	0.002598	-0.057879	99
Es	0.044701	-1.365902	0.507126	99
Es	-1.859680	1.025982	-0.507148	99
Es	0.031277	2.145183	-0.483627	99
Es	1.027655	0.896989	0.911304	99
Es	1.847039	-0.475539	-0.143076	99
Es	1.863830	0.499589	0.048280	99
Es	0.666904	1.128740	-0.239110	99
Es	-1.294944	-0.758158	0.004900	99
Es	-1.293500	0.795161	-0.077905	99
Es	-1.279418	0.018867	-0.036444	99
Es	0.029090	-2.114957	0.396260	99
Es	-0.615670	-1.047389	0.257869	99
Es	0.668237	-1.100779	0.141491	99
Es	2.316661	0.020236	-0.079450	99
Es	2.507068	0.062168	-0.371214	99
Es	-0.613626	1.080831	-0.337137	99
Es	0.128705	-1.243982	1.245568	99
Es	1.113438	-0.724167	-0.290708	99
45
Properties=species:S:1:pos:R:3:Z:I:1 energy=-288.0396373729513 field_type=dipole dipole="0.000000 0.000000 0.000000" charge=0
C	-1.293548	0.795191	-0.077897	6
C	-1.294988	-0.758189	0.004893	6
C	0.044702	-1.365939	0.507153	6
C	1.113262	-0.724339	-0.290827	6
N	2.317101	0.020311	-0.079937	7
C	1.114272	0.742511	0.181433	6
C	0.040852	1.397461	-0.598957	6
H	-2.126818	1.136770	-0.701867	1
H	-1.475558	1.182791	0.933263	1
H	-1.492688	-1.145239	-1.003407	1
H	-2.120398	-1.097049	0.640753	1
H	0.163942	-1.196910	1.584173	1
H	0.040612	-2.449059	0.344483	1
H	0.982992	-0.970109	-1.342737	1
H	2.787542	-0.276189	0.776413	1
H	1.009262	0.998461	1.233513	1
H	0.047152	2.479841	-0.432707	1
H	0.142312	1.229690	-1.677747	1
Es	0.109268	1.276844	-1.333631	99
Es	-1.856976	-0.986814	0.442529	99
Es	-1.293503	0.795160	-0.077904	99
Es	0.949371	0.002405	-0.058164	99
Es	2.316712	0.020244	-0.079498	99
Es	0.667156	1.128822	-0.239045	99
Es	2.506620	0.062047	-0.370757	99
Es	0.031323	2.145196	-0.483627	99
Es	0.044702	-1.365902	0.507126	99
Es	0.029103	-2.114960	0.396293	99
Es	-1.279501	0.018861	-0.036457	99
Es	-1.859621	1.025997	-0.507160	99
Es	-1.412308	1.062560	0.618616	99
Es	2.578697	-0.131829	0.448621	99
Es	1.863920	0.500228	0.048317	99
Es	1.027711	0.897026	0.911217	99
Es	1.113434	-0.724162	-0.290710	99
Es	0.668331	-1.100767	0.141430	99
Es	0.128722	-1.243986	1.245523	99
Es	1.009655	-0.877492	-1.013667	99
Es	-0.615621	-1.047419	0.257843	99
Es	1.846748	-0.475770	-0.143282	99
Es	-1.424363	-1.025069	-0.688678	99
Es	0.040852	1.397423	-0.598917	99
Es	1.114455	0.742350	0.181335	99
Es	-1.294946	-0.758155	0.004900	99
Es	-0.613697	1.080791	-0.337049	99
45
Properties=species:S:1:pos:R:3:Z:I:1 energy=-288.0396373729513 field_type=dipole dipole="0.000000 0.000000 0.000000" charge=0
C	-1.293548	0.795191	-0.077897	6
C	-1.294988	-0.758189	0.004893	6
C	0.044702	-1.365939	0.507153	6
C	1.113262	-0.724339	-0.290827	6
N	2.317101	0.020311	-0.079937	7
C	1.114272	0.742511	0.181433	6
C	0.040852	1.397461	-0.598957	6
H	-2.126818	1.136770	-0.701867	1
H	-1.475558	1.182791	0.933263	1
H	-1.492688	-1.145239	-1.003407	1
H	-2.120398	-1.097049	0.640753	1
H	0.163942	-1.196910	1.584173	1
H	0.040612	-2.449059	0.344483	1
H	0.982992	-0.970109	-1.342737	1
H	2.787542	-0.276189	0.776413	1
H	1.009262	0.998461	1.233513	1
H	0.047152	2.479841	-0.432707	1
H	0.142312	1.229690	-1.677747	1
Es	0.040852	1.397423	-0.598917	99
Es	1.027793	0.897062	0.911099	99
Es	2.579184	-0.131745	0.448365	99
Es	0.044701	-1.365903	0.507125	99
Es	-1.293503	0.795160	-0.077903	99
Es	0.667381	1.128965	-0.238948	99
Es	-1.412283	1.062561	0.618583	99
Es	0.668616	-1.100825	0.141306	99
Es	-0.613722	1.080742	-0.337082	99
Es	1.863930	0.500353	0.048448	99
Es	-1.279560	0.018876	-0.036466	99
Es	1.114456	0.742351	0.181334	99
Es	0.029151	-2.114889	0.396345	99
Es	-1.424424	-1.025066	-0.688611	99
Es	-1.294946	-0.758156	0.004900	99
Es	0.948878	0.002608	-0.058118	99
Es	-1.859616	1.026020	-0.507093	99
Es	-1.856935	-0.986818	0.442524	99
Es	1.846643	-0.476207	-0.143294	99
Es	0.031329	2.145186	-0.483629	99
Es	1.009723	-0.877578	-1.013543	99
Es	2.506152	0.062058	-0.370692	99
Es	2.316676	0.020236	-0.079462	99
Es	0.128677	-1.243999	1.245527	99
Es	0.109303	1.276875	-1.333599	99
Es	1.113430	-0.724161	-0.290712	99
Es	-0.615640	-1.047499	0.257718	99
45
Properties=species:S:1:pos:R:3:Z:I:1 energy=-288.0396373729513 field_type=dipole dipole="0.000000 0.000000 0.000000" charge=0
C	-1.293548	0.795191	-0.077897	6
C	-1.294988	-0.758189	0.004893	6
C	0.044702	-1.365939	0.507153	6
C	1.113262	-0.724339	-0.290827	6
N	2.317101	0.020311	-0.079937	7
C	1.114272	0.742511	0.181433	6
C	0.040852	1.397461	-0.598957	6
H	-2.126818	1.136770	-0.701867	1
H	-1.475558	1.182791	0.933263	1
H	-1.492688	-1.145239	-1.003407	1
H	-2.120398	-1.097049	0.640753	1
H	0.163942	-1.196910	1.584173	1
H	0.040612	-2.449059	0.344483	1
H	0.982992	-0.970109	-1.342737	1
H	2.787542	-0.276189	0.776413	1
H	1.009262	0.998461	1.233513	1
H	0.047152	2.479841	-0.432707	1
H	0.142312	1.229690	-1.677747	1
Es	-1.412358	1.062544	0.618496	99
Es	1.864038	0.501044	0.048369	99
Es	0.948536	0.002462	-0.058334	99
Es	-1.293504	0.795161	-0.077903	99
Es	0.040854	1.397423	-0.598916	99
Es	2.579598	-0.131650	0.448168	99
Es	1.114454	0.742345	0.181332	99
Es	-0.613760	1.080811	-0.336965	99
Es	0.029124	-2.114945	0.396329	99
Es	0.044704	-1.365905	0.507127	99
Es	2.316677	0.020241	-0.079474	99
Es	1.846273	-0.476424	-0.143211	99
Es	1.027850	0.897186	0.911013	99
Es	0.031359	2.145176	-0.483684	99
Es	0.128765	-1.244015	1.245458	99
Es	1.113436	-0.724160	-0.290707	99
Es	-1.424400	-1.025078	-0.688583	99
Es	0.668792	-1.100903	0.141278	99
Es	0.667636	1.129052	-0.238842	99
Es	-1.859575	1.026020	-0.507076	99
Es	2.505665	0.061713	-0.370393	99
Es	-1.279567	0.018841	-0.036465	99
Es	-1.856928	-0.986827	0.442450	99
Es	-1.294946	-0.758156	0.004900	99
Es	1.009853	-0.877770	-1.013387	99
Es	0.109343	1.276842	-1.333584	99
Es	-0.615672	-1.047400	0.257812	99
45
Properties=species:S:1:pos:R:3:Z:I:1 energy=-288.0396373729513 field_type=dipole dipole="0.000000 0.000000 0.000000" charge=0
C	-1.293548	0.795191	-0.077897	6
C	-1.294988	-0.758189	0.004893	6
C	0.044702	-1.365939	0.507153	6
C	1.113262	-0.724339	-0.290827	6
N	2.317101	0.020311	-0.079937	7
C	1.114272	0.742511	0.181433	6
C	0.040852	1.397461	-0.598957	6
H	-2.126818	1.136770	-0.701867	1
H	-1.475558	1.182791	0.933263	1
H	-1.492688	-1.145239	-1.003407	1
H	-2.120398	-1.097049	0.640753	1
H	0.163942	-1.196910	1.584173	1
H	0.040612	-2.449059	0.344483	1
H	0.982992	-0.970109	-1.342737	1
H	2.787542	-0.276189	0.776413	1
H	1.009262	0.998461	1.233513	1
H	0.047152	2.479841	-0.432707	1
H	0.142312	1.229690	-1.677747	1
Es	2.579337	-0.131602	0.448211	99
Es	1.114455	0.742346	0.181333	99
Es	-1.293504	0.795160	-0.077903	99
Es	1.846306	-0.476976	-0.143691	99
Es	0.667820	1.129096	-0.238763	99
Es	1.113434	-0.724159	-0.290708	99
Es	-0.613739	1.080750	-0.337006	99
Es	0.948245	0.002595	-0.058210	99
Es	0.669077	-1.101036	0.141106	99
Es	1.863832	0.501210	0.048367	99
Es	0.128795	-1.244021	1.245463	99
Es	2.316747	0.020256	-0.079557	99
Es	-1.856909	-0.986820	0.442414	99
Es	-0.615671	-1.047395	0.257815	99
Es	1.027931	0.897264	0.910908	99
Es	-1.424417	-1.025085	-0.688546	99
Es	-1.859549	1.026002	-0.507049	99
Es	-1.294946	-0.758156	0.004900	99
Es	1.009881	-0.877781	-1.013319	99
Es	0.109338	1.276874	-1.333574	99
Es	0.029097	-2.114923	0.396340	99
Es	0.044702	-1.365903	0.507126	99
Es	-1.279610	0.018859	-0.036457	99
Es	0.031323	2.145173	-0.483666	99
Es	-1.412366	1.062580	0.618486	99
Es	2.505786	0.061899	-0.369898	99
Es	0.040852	1.397423	-0.598916	99
45
Properties=species:S:1:pos:R:3:Z:I:1 energy=-288.0396373729513 field_type=dipole dipole="0.000000 0.000000 0.000000" charge=0
C	-1.293548	0.795191	-0.077897	6
C	-1.294988	-0.758189	0.004893	6
C	0.044702	-1.365939	0.507153	6
C	1.113262	-0.724339	-0.290827	6
N	2.317101	0.020311	-0.079937	7
C	1.114272	0.742511	0.181433	6
C	0.040852	1.397461	-0.598957	6
H	-2.126818	1.136770	-0.701867	1
H	-1.475558	1.182791	0.933263	1
H	-1.492688	-1.145239	-1.003407	1
H	-2.120398	-1.097049	0.640753	1
H	0.163942	-1.196910	1.584173	1
H	0.040612	-2.449059	0.344483	1
H	0.982992	-0.970109	-1.342737	1
H	2.787542	-0.276189	0.776413	1
H	1.009262	0.998461	1.233513	1
H	0.047152	2.479841	-0.432707	1
H	0.142312	1.229690	-1.677747	1
Es	1.113434	-0.724158	-0.290708	99
Es	-1.859636	1.026032	-0.507131	99
Es	1.114455	0.742345	0.181332	99
Es	0.044702	-1.365903	0.507126	99
Es	0.668033	1.129145	-0.238667	99
Es	0.029089	-2.114913	0.396357	99
Es	-1.293504	0.795160	-0.077903	99
Es	-1.856910	-0.986828	0.442400	99
Es	-1.412311	1.062551	0.618484	99
Es	2.505806	0.061912	-0.369868	99
Es	2.579356	-0.131540	0.448100	99
Es	-1.294946	-0.758156	0.004899	99
Es	-1.279578	0.018939	-0.036447	99
Es	-0.615663	-1.047382	0.257786	99
Es	0.947920	0.002652	-0.058206	99
Es	0.109349	1.276873	-1.333541	99
Es	1.846164	-0.477333	-0.143757	99
Es	2.316682	0.020236	-0.079511	99
Es	1.009936	-0.877861	-1.013226	99
Es	-1.424429	-1.025077	-0.688494	99
Es	1.027990	0.897337	0.910826	99
Es	0.031308	2.145197	-0.483675	99
Es	-0.613755	1.080652	-0.336958	99
Es	0.669299	-1.101110	0.140997	99
Es	0.128816	-1.244018	1.245457	99
Es	1.863786	0.501453	0.048452	99
Es	0.040852	1.397423	-0.598917	99
45
Properties=species:S:1:pos:R:3:Z:I:1 energy=-288.0396373729513 field_type=dipole dipole="0.000000 0.000000 0.000000" charge=0
C	-1.293548	0.795191	-0.077897	6
C	-1.294988	-0.758189	0.004893	6
C	0.044702	-1.365939	0.507153	6
C	1.113262	-0.724339	-0.290827	6
N	2.317101	0.020311	-0.079937	7
C	1.114272	0.742511	0.181433	6
C	0.040852	1.397461	-0.598957	6
H	-2.126818	1.136770	-0.701867	1
H	-1.475558	1.182791	0.933263	1
H	-1.492688	-1.145239	-1.003407	1
H	-2.120398	-1.097049	0.640753	1
H	0.163942	-1.196910	1.584173	1
H	0.040612	-2.449059	0.344483	1
H	0.982992	-0.970109	-1.342737	1
H	2.787542	-0.276189	0.776413	1
H	1.009262	0.998461	1.233513	1
H	0.047152	2.479841	-0.432707	1
H	0.142312	1.229690	-1.677747	1
Es	-0.615738	-1.047362	0.257824	99
Es	0.128893	-1.244027	1.245435	99
Es	1.113430	-0.724154	-0.290709	99
Es	-1.412407	1.062600	0.618398	99
Es	1.845933	-0.477724	-0.143965	99
Es	-1.279654	0.018849	-0.036432	99
Es	0.040853	1.397423	-0.598916	99
Es	-1.294947	-0.758154	0.004899	99
Es	1.114488	0.742373	0.181313	99
Es	0.044698	-1.365902	0.507126	99
Es	-0.613809	1.080735	-0.336971	99
Es	-1.859501	1.025994	-0.506984	99
Es	0.947527	0.002867	-0.058192	99
Es	2.579604	-0.131509	0.447993	99
Es	0.029080	-2.114884	0.396388	99
Es	-1.293504	0.795160	-0.077903	99
Es	1.009988	-0.878018	-1.013106	99
Es	2.316663	0.020239	-0.079459	99
Es	1.863867	0.501751	0.048354	99
Es	0.668216	1.129289	-0.238583	99
Es	0.669557	-1.101185	0.140893	99
Es	0.109388	1.276884	-1.333501	99
Es	2.505487	0.061757	-0.369532	99
Es	0.031341	2.145169	-0.483721	99
Es	-1.424472	-1.025128	-0.688507	99
Es	1.028091	0.897386	0.910711	99
Es	-1.856827	-0.986798	0.442350	99
45
Properties=species:S:1:pos:R:3:Z:I:1 energy=-288.0396373729513 field_type=dipole dipole="0.000000 0.000000 0.000000" charge=0
C	-1.293548	0.795191	-0.077897	6
C	-1.294988	-0.758189	0.004893	6
C	0.044702	-1.365939	0.507153	6
C	1.113262	-0.724339	-0.290827	6
N	2.317101	0.020311	-0.079937	7
C	1.114272	0.742511	0.181433	6
C	0.040852	1.397461	-0.598957	6
H	-2.126818	1.136770	-0.701867	1
H	-1.475558	1.182791	0.933263	1
H	-1.492688	-1.145239	-1.003407	1
H	-2.120398	-1.097049	0.640753	1
H	0.163942	-1.196910	1.584173	1
H	0.040612	-2.449059	0.344483	1
H	0.982992	-0.970109	-1.342737	1
H	2.787542	-0.276189	0.776413	1
H	1.009262	0.998461	1.233513	1
H	0.047152	2.479841	-0.432707	1
H	0.142312	1.229690	-1.677747	1
Es	0.040853	1.397424	-0.598917	99
Es	-1.279675	0.018856	-0.036396	99
Es	1.114451	0.742344	0.181334	99
Es	0.031298	2.145173	-0.483719	99
Es	-1.294945	-0.758157	0.004900	99
Es	2.579698	-0.131451	0.447895	99
Es	0.029087	-2.114883	0.396424	99
Es	2.316673	0.020238	-0.079469	99
Es	0.668469	1.129326	-0.238482	99
Es	1.010083	-0.878011	-1.012997	99
Es	-1.424476	-1.025088	-0.688429	99
Es	-1.859482	1.025974	-0.506989	99
Es	1.113435	-0.724138	-0.290714	99
Es	-1.412438	1.062637	0.618346	99
Es	0.109388	1.276889	-1.333496	99
Es	0.128865	-1.244028	1.245397	99
Es	-1.856849	-0.986821	0.442314	99
Es	-0.615715	-1.047387	0.257772	99
Es	1.845877	-0.478075	-0.144101	99
Es	0.669780	-1.101324	0.140781	99
Es	2.505346	0.061804	-0.369340	99
Es	-0.613770	1.080702	-0.336975	99
Es	0.947294	0.002805	-0.058265	99
Es	1.028114	0.897453	0.910656	99
Es	-1.293504	0.795160	-0.077904	99
Es	1.863686	0.502110	0.048453	99
Es	0.044703	-1.365904	0.507127	99
45
Properties=species:S:1:pos:R:3:Z:I:1 energy=-288.0396373729513 field_type=dipole dipole="0.000000 0.000000 0.000000" charge=0
C	-1.293548	0.795191	-0.077897	6
C	-1.294988	-0.758189	0.004893	6
C	0.044702	-1.365939	0.507153	6
C	1.113262	-0.724339	-0.290827	6
N	2.317101	0.020311	-0.079937	7
C	1.114272	0.742511	0.181433	6
C	0.040852	1.397461	-0.598957	6
H	-2.126818	1.136770	-0.701867	1
H	-1.475558	1.182791	0.933263	1
H	-1.492688	-1.145239	-1.003407	1
H	-2.120398	-1.097049	0.640753	1
H	0.163942	-1.196910	1.584173	1
H	0.040612	-2.449059	0.344483	1
H	0.982992	-0.970109	-1.342737	1
H	2.787542	-0.276189	0.776413	1
H	1.009262	0.998461	1.233513	1
H	0.047152	2.479841	-0.432707	1
H	0.142312	1.229690	-1.677747	1
Es	1.010095	-0.878164	-1.012911	99
Es	0.029078	-2.114882	0.396390	99
Es	-1.859451	1.025996	-0.506920	99
Es	0.128877	-1.244054	1.245403	99
Es	0.668638	1.129416	-0.238437	99
Es	2.504858	0.061780	-0.369270	99
Es	1.114456	0.742340	0.181331	99
Es	0.044696	-1.365903	0.507126	99
Es	2.316683	0.020234	-0.079498	99
Es	0.040852	1.397424	-0.598916	99
Es	-0.615655	-1.047415	0.257783	99
Es	-1.293504	0.795159	-0.077902	99
Es	-1.294948	-0.758155	0.004899	99
Es	0.109424	1.276951	-1.333561	99
Es	-1.856784	-0.986790	0.442273	99
Es	1.113447	-0.724169	-0.290697	99
Es	1.845804	-0.478166	-0.143986	99
Es	0.669970	-1.101243	0.140725	99
Es	-0.613796	1.080714	-0.336947	99
Es	2.580173	-0.131352	0.447668	99
Es	-1.424557	-1.025088	-0.688390	99
Es	0.946665	0.002714	-0.058217	99
Es	-1.412442	1.062616	0.618340	99
Es	0.031341	2.145103	-0.483654	99
Es	1.028260	0.897598	0.910486	99
Es	-1.279747	0.018842	-0.036442	99
Es	1.863813	0.502124	0.048532	99
45
Properties=species:S:1:pos:R:3:Z:I:1 energy=-288.0396373729513 field_type=dipole dipole="0.000000 0.000000 0.000000" charge=0
C	-1.293548	0.795191	-0.077897	6
C	-1.294988	-0.758189	0.004893	6
C	0.044702	-1.365939	0.507153	6
C	1.113262	-0.724339	-0.290827	6
N	2.317101	0.020311	-0.079937	7
C	1.114272	0.742511	0.181433	6
C	0.040852	1.397461	-0.598957	6
H	-2.126818	1.136770	-0.701867	1
H	-1.475558	1.182791	0.933263	1
H	-1.492688	-1.145239	-1.003407	1
H	-2.120398	-1.097049	0.640753	1
H	0.163942	-1.196910	1.584173	1
H	0.040612	-2.449059	0.344483	1
H	0.982992	-0.970109	-1.342737	1
H	2.787542	-0.276189	0.776413	1
H	1.009262	0.998461	1.233513	1
H	0.047152	2.479841	-0.432707	1
H	0.142312	1.229690	-1.677747	1
Es	2.316684	0.020249	-0.079486	99
Es	2.580006	-0.131214	0.447605	99
Es	-1.856753	-0.986816	0.442240	99
Es	0.668742	1.129437	-0.238367	99
Es	0.044702	-1.365904	0.507127	99
Es	-1.424549	-1.025111	-0.688356	99
Es	1.010244	-0.878199	-1.012780	99
Es	0.946717	0.002712	-0.058361	99
Es	0.670219	-1.101418	0.140610	99
Es	-1.294947	-0.758155	0.004893	99
Es	1.114462	0.742354	0.181322	99
Es	-1.859419	1.026020	-0.506893	99
Es	0.128880	-1.244076	1.245387	99
Es	-0.615688	-1.047371	0.257783	99
Es	1.863559	0.502663	0.048599	99
Es	0.040857	1.397424	-0.598915	99
Es	-1.412478	1.062593	0.618290	99
Es	0.109477	1.276878	-1.333459	99
Es	-1.293505	0.795161	-0.077903	99
Es	0.031307	2.145161	-0.483771	99
Es	0.029056	-2.114870	0.396395	99
Es	2.504939	0.061887	-0.368820	99
Es	-0.613799	1.080672	-0.336909	99
Es	1.113442	-0.724149	-0.290702	99
Es	1.028169	0.897588	0.910482	99
Es	1.845719	-0.478735	-0.144358	99
Es	-1.279796	0.018850	-0.036447	99
45
Properties=species:S:1:pos:R:3:Z:I:1 energy=-288.0396373729513 field_type=dipole dipole="0.000000 0.000000 0.000000" charge=0
C	-1.293548	0.795191	-0.077897	6
C	-1.294988	-0.758189	0.004893	6
C	0.044702	-1.365939	0.507153	6
C	1.113262	-0.724339	-0.290827	6
N	2.317101	0.020311	-0.079937	7
C	1.114272	0.742511	0.181433	6
C	0.040852	1.397461	-0.598957	6
H	-2.126818	1.136770	-0.701867	1
H	-1.475558	1.182791	0.933263	1
H	-1.492688	-1.145239	-1.003407	1
H	-2.120398	-1.097049	0.640753	1
H	0.163942	-1.196910	1.584173	1
H	0.040612	-2.449059	0.344483	1
H	0.982992	-0.970109	-1.342737	1
H	2.787542	-0.276189	0.776413	1
H	1.009262	0.998461	1.233513	1
H	0.047152	2.479841	-0.432707	1
H	0.142312	1.229690	-1.677747	1
Es	0.029059	-2.114893	0.396513	99
Es	1.010225	-0.878203	-1.012734	99
Es	-1.424519	-1.025120	-0.688329	99
Es	0.129010	-1.244034	1.245274	99
Es	0.668990	1.129513	-0.238263	99
Es	-0.615811	-1.047329	0.257837	99
Es	0.044709	-1.365904	0.507124	99
Es	0.031307	2.145102	-0.483743	99
Es	2.504818	0.061725	-0.368754	99
Es	1.028297	0.897646	0.910370	99
Es	-1.856771	-0.986823	0.442219	99
Es	-1.279793	0.018867	-0.036456	99
Es	-1.412472	1.062599	0.618262	99
Es	2.580106	-0.131280	0.447586	99
Es	-1.859418	1.026010	-0.506858	99
Es	-0.613806	1.080699	-0.336916	99
Es	0.946546	0.002981	-0.058243	99
Es	-1.294950	-0.758158	0.004898	99
Es	0.040852	1.397425	-0.598917	99
Es	1.845473	-0.479116	-0.144426	99
Es	-1.293506	0.795162	-0.077901	99
Es	1.113435	-0.724152	-0.290704	99
Es	2.316653	0.020229	-0.079469	99
Es	1.863617	0.502870	0.048522	99
Es	0.109434	1.276937	-1.333481	99
Es	1.114456	0.742337	0.181329	99
Es	0.670304	-1.101462	0.140465	99
