44
Properties=species:S:1:pos:R:3:Z:I:1 energy=-360.963165975262 field_type=dipole dipole="0.000000 0.000000 0.000000" charge=0
C	-0.345892	-0.580164	1.312754	6
C	0.685458	-0.055864	0.319164	6
C	1.833728	-1.046304	0.167004	6
O	0.089858	0.102396	-0.977396	8
N	-0.653052	1.306436	-1.002426	7
C	-1.977892	1.138676	-1.292586	6
O	-2.707892	2.039696	-1.681376	8
H	-1.139822	0.156636	1.473554	1
H	0.112038	-0.801304	2.281664	1
H	-0.829582	-1.487034	0.933744	1
H	1.093288	0.903296	0.663154	1
H	1.475418	-2.006484	-0.220906	1
H	2.339968	-1.219904	1.121484	1
H	2.568138	-0.670794	-0.553836	1
H	-0.205712	2.108566	-1.433036	1
H	-2.338052	0.112146	-1.110956	1
Es	-0.820963	1.382426	-0.711544	99
Es	-2.996563	1.945210	-1.709763	99
Es	-0.664931	-1.198307	1.050665	99
Es	-0.025911	-0.727153	1.966332	99
Es	-2.414471	1.669707	-1.788163	99
Es	1.833705	-1.046283	0.167016	99
Es	-2.501228	1.792860	-1.311002	99
Es	1.257689	-0.556732	0.238423	99
Es	-0.243726	0.658254	-0.976128	99
Es	-0.881802	-0.077683	1.419403	99
Es	0.162332	-0.319089	0.822386	99
Es	2.168244	-1.156376	0.819769	99
Es	0.961542	0.604689	0.552345	99
Es	1.582826	-1.695667	-0.089867	99
Es	-1.977739	1.138697	-1.292533	99
Es	-0.345876	-0.580154	1.312747	99
Es	0.685350	-0.055887	0.318957	99
Es	0.321695	0.144042	-1.184340	99
Es	-2.707699	2.039478	-1.681281	99
Es	-0.381616	1.762172	-1.271712	99
Es	-0.653217	1.306169	-1.003083	99
Es	0.089771	0.102587	-0.977070	99
Es	-0.126782	-0.120354	-1.005342	99
Es	-2.546263	2.304501	-1.720780	99
Es	0.295972	0.072876	-0.485844	99
Es	-1.168949	1.207835	-1.235985	99
Es	2.332157	-0.785390	-0.318108	99
Es	-2.210327	0.440592	-1.165535	99
44
Properties=species:S:1:pos:R:3:Z:I:1 energy=-360.963165975262 field_type=dipole dipole="0.000000 0.000000 0.000000" charge=0
C	-0.345892	-0.580164	1.312754	6
C	0.685458	-0.055864	0.319164	6
C	1.833728	-1.046304	0.167004	6
O	0.089858	0.102396	-0.977396	8
N	-0.653052	1.306436	-1.002426	7
C	-1.977892	1.138676	-1.292586	6
O	-2.707892	2.039696	-1.681376	8
H	-1.139822	0.156636	1.473554	1
H	0.112038	-0.801304	2.281664	1
H	-0.829582	-1.487034	0.933744	1
H	1.093288	0.903296	0.663154	1
H	1.475418	-2.006484	-0.220906	1
H	2.339968	-1.219904	1.121484	1
H	2.568138	-0.670794	-0.553836	1
H	-0.205712	2.108566	-1.433036	1
H	-2.338052	0.112146	-1.110956	1
Es	0.961727	0.604659	0.552293	99
Es	-1.169816	1.207858	-1.235290	99
Es	-0.345876	-0.580154	1.312747	99
Es	2.168180	-1.156118	0.819714	99
Es	1.833707	-1.046284	0.167015	99
Es	-2.546720	2.303894	-1.719996	99
Es	1.257451	-0.556958	0.238392	99
Es	-0.881751	-0.077812	1.419429	99
Es	0.089840	0.102580	-0.977163	99
Es	-0.820162	1.382536	-0.712283	99
Es	-1.977736	1.138694	-1.292543	99
Es	2.332215	-0.785422	-0.318240	99
Es	-2.707687	2.039459	-1.681257	99
Es	-0.026062	-0.727311	1.966417	99
Es	-2.502411	1.793543	-1.310718	99
Es	-2.210363	0.440577	-1.165570	99
Es	-2.413131	1.669140	-1.788480	99
Es	-0.653100	1.306179	-1.002972	99
Es	-0.127120	-0.120413	-1.005323	99
Es	1.582918	-1.695805	-0.089591	99
Es	-0.243261	0.658458	-0.976059	99
Es	-0.664988	-1.198123	1.050633	99
Es	0.685351	-0.055885	0.318957	99
Es	-2.996259	1.945762	-1.710477	99
Es	0.321423	0.143844	-1.184117	99
Es	0.162471	-0.318809	0.822332	99
Es	0.296124	0.072855	-0.485940	99
Es	-0.381740	1.762074	-1.271948	99
44
Properties=species:S:1:pos:R:3:Z:I:1 energy=-360.963165975262 field_type=dipole dipole="0.000000 0.000000 0.000000" charge=0
C	-0.345892	-0.580164	1.312754	6
C	0.685458	-0.055864	0.319164	6
C	1.833728	-1.046304	0.167004	6
O	0.089858	0.102396	-0.977396	8
N	-0.653052	1.306436	-1.002426	7
C	-1.977892	1.138676	-1.292586	6
O	-2.707892	2.039696	-1.681376	8
H	-1.139822	0.156636	1.473554	1
H	0.112038	-0.801304	2.281664	1
H	-0.829582	-1.487034	0.933744	1
H	1.093288	0.903296	0.663154	1
H	1.475418	-2.006484	-0.220906	1
H	2.339968	-1.219904	1.121484	1
H	2.568138	-0.670794	-0.553836	1
H	-0.205712	2.108566	-1.433036	1
H	-2.338052	0.112146	-1.110956	1
Es	-1.169041	1.207930	-1.235940	99
Es	-2.210366	0.440562	-1.165578	99
Es	2.332174	-0.785461	-0.318151	99
Es	-0.381673	1.762212	-1.271544	99
Es	1.257620	-0.556828	0.238394	99
Es	-2.544136	2.303051	-1.720575	99
Es	-2.707713	2.039498	-1.681284	99
Es	-0.345876	-0.580153	1.312747	99
Es	0.089835	0.102661	-0.977074	99
Es	-0.664946	-1.198160	1.050673	99
Es	-2.997207	1.947377	-1.710995	99
Es	2.168224	-1.156268	0.819799	99
Es	-1.977738	1.138696	-1.292535	99
Es	-2.502460	1.793099	-1.310740	99
Es	-0.243343	0.658490	-0.976033	99
Es	-0.026014	-0.727281	1.966361	99
Es	1.582900	-1.695687	-0.089742	99
Es	0.320815	0.143089	-1.184760	99
Es	0.961601	0.604573	0.552214	99
Es	0.296883	0.073260	-0.486250	99
Es	-0.127059	-0.120246	-1.004366	99
Es	-2.414692	1.668763	-1.787327	99
Es	0.162397	-0.318847	0.822408	99
Es	-0.653212	1.306188	-1.003047	99
Es	0.685352	-0.055885	0.318958	99
Es	-0.820997	1.382407	-0.712099	99
Es	-0.881808	-0.077735	1.419435	99
Es	1.833705	-1.046283	0.167016	99
44
Properties=species:S:1:pos:R:3:Z:I:1 energy=-360.963165975262 field_type=dipole dipole="0.000000 0.000000 0.000000" charge=0
C	-0.345892	-0.580164	1.312754	6
C	0.685458	-0.055864	0.319164	6
C	1.833728	-1.046304	0.167004	6
O	0.089858	0.102396	-0.977396	8
N	-0.653052	1.306436	-1.002426	7
C	-1.977892	1.138676	-1.292586	6
O	-2.707892	2.039696	-1.681376	8
H	-1.139822	0.156636	1.473554	1
H	0.112038	-0.801304	2.281664	1
H	-0.829582	-1.487034	0.933744	1
H	1.093288	0.903296	0.663154	1
H	1.475418	-2.006484	-0.220906	1
H	2.339968	-1.219904	1.121484	1
H	2.568138	-0.670794	-0.553836	1
H	-0.205712	2.108566	-1.433036	1
H	-2.338052	0.112146	-1.110956	1
Es	-2.542894	2.302071	-1.719760	99
Es	0.089772	0.102597	-0.977073	99
Es	-0.653120	1.306182	-1.002965	99
Es	-1.977738	1.138696	-1.292533	99
Es	1.582881	-1.695527	-0.089794	99
Es	-0.126289	-0.119848	-1.005593	99
Es	-2.502577	1.792277	-1.310620	99
Es	-2.707678	2.039449	-1.681266	99
Es	-0.881701	-0.077691	1.419585	99
Es	-2.415668	1.668293	-1.788421	99
Es	0.961544	0.604544	0.552188	99
Es	0.162450	-0.318792	0.822444	99
Es	2.168211	-1.156417	0.819870	99
Es	-0.026035	-0.727466	1.966298	99
Es	-1.168121	1.207939	-1.236567	99
Es	-0.665082	-1.198057	1.050572	99
Es	-0.345876	-0.580153	1.312747	99
Es	1.257689	-0.556798	0.238371	99
Es	0.296346	0.072382	-0.485679	99
Es	0.320649	0.143199	-1.183744	99
Es	1.833709	-1.046283	0.167014	99
Es	2.332204	-0.785499	-0.318154	99
Es	-0.821980	1.382586	-0.711654	99
Es	0.685352	-0.055885	0.318959	99
Es	-0.243292	0.658881	-0.976221	99
Es	-2.210390	0.440560	-1.165548	99
Es	-0.381758	1.762093	-1.271620	99
Es	-2.997385	1.949688	-1.710874	99
44
Properties=species:S:1:pos:R:3:Z:I:1 energy=-360.963165975262 field_type=dipole dipole="0.000000 0.000000 0.000000" charge=0
C	-0.345892	-0.580164	1.312754	6
C	0.685458	-0.055864	0.319164	6
C	1.833728	-1.046304	0.167004	6
O	0.089858	0.102396	-0.977396	8
N	-0.653052	1.306436	-1.002426	7
C	-1.977892	1.138676	-1.292586	6
O	-2.707892	2.039696	-1.681376	8
H	-1.139822	0.156636	1.473554	1
H	0.112038	-0.801304	2.281664	1
H	-0.829582	-1.487034	0.933744	1
H	1.093288	0.903296	0.663154	1
H	1.475418	-2.006484	-0.220906	1
H	2.339968	-1.219904	1.121484	1
H	2.568138	-0.670794	-0.553836	1
H	-0.205712	2.108566	-1.433036	1
H	-2.338052	0.112146	-1.110956	1
Es	-2.414753	1.669236	-1.788460	99
Es	1.257581	-0.556765	0.238362	99
Es	0.162364	-0.318732	0.822392	99
Es	-2.996670	1.948399	-1.711606	99
Es	-2.210408	0.440544	-1.165612	99
Es	1.833704	-1.046283	0.167016	99
Es	-0.025999	-0.727303	1.966377	99
Es	2.332230	-0.785551	-0.318142	99
Es	-0.821009	1.382696	-0.712134	99
Es	-2.544025	2.303032	-1.719047	99
Es	-0.664960	-1.198112	1.050704	99
Es	1.582993	-1.695688	-0.089651	99
Es	2.168187	-1.156235	0.819746	99
Es	-0.653132	1.306179	-1.003025	99
Es	-1.168961	1.208055	-1.235728	99
Es	-0.345875	-0.580153	1.312747	99
Es	-2.707697	2.039435	-1.681267	99
Es	0.089620	0.102583	-0.976978	99
Es	0.961565	0.604494	0.552149	99
Es	-0.244205	0.658542	-0.976272	99
Es	-0.125487	-0.120498	-1.005490	99
Es	-0.381931	1.761979	-1.271867	99
Es	-1.977736	1.138691	-1.292536	99
Es	0.685352	-0.055885	0.318959	99
Es	-0.881805	-0.077811	1.419466	99
Es	0.319404	0.143424	-1.183508	99
Es	0.297930	0.073071	-0.486104	99
Es	-2.503056	1.791678	-1.310531	99
44
Properties=species:S:1:pos:R:3:Z:I:1 energy=-360.963165975262 field_type=dipole dipole="0.000000 0.000000 0.000000" charge=0
C	-0.345892	-0.580164	1.312754	6
C	0.685458	-0.055864	0.319164	6
C	1.833728	-1.046304	0.167004	6
O	0.089858	0.102396	-0.977396	8
N	-0.653052	1.306436	-1.002426	7
C	-1.977892	1.138676	-1.292586	6
O	-2.707892	2.039696	-1.681376	8
H	-1.139822	0.156636	1.473554	1
H	0.112038	-0.801304	2.281664	1
H	-0.829582	-1.487034	0.933744	1
H	1.093288	0.903296	0.663154	1
H	1.475418	-2.006484	-0.220906	1
H	2.339968	-1.219904	1.121484	1
H	2.568138	-0.670794	-0.553836	1
H	-0.205712	2.108566	-1.433036	1
H	-2.338052	0.112146	-1.110956	1
Es	-0.026004	-0.727318	1.966323	99
Es	-0.653162	1.306162	-1.003057	99
Es	-0.244001	0.658678	-0.975957	99
Es	-0.664874	-1.198104	1.050742	99
Es	0.961518	0.604462	0.552147	99
Es	0.297791	0.072663	-0.485970	99
Es	2.332246	-0.785551	-0.318215	99
Es	-0.821575	1.382358	-0.712637	99
Es	1.582903	-1.695624	-0.089637	99
Es	-1.168701	1.208103	-1.236238	99
Es	0.089839	0.102571	-0.977169	99
Es	0.685355	-0.055885	0.318961	99
Es	-0.125665	-0.119055	-1.004146	99
Es	1.833703	-1.046284	0.167016	99
Es	-2.996708	1.948820	-1.709613	99
Es	-2.501415	1.792478	-1.310315	99
Es	0.319400	0.142248	-1.184843	99
Es	-0.345873	-0.580152	1.312747	99
Es	-0.381707	1.762321	-1.271102	99
Es	-2.416226	1.668444	-1.789010	99
Es	-2.210434	0.440543	-1.165544	99
Es	1.257681	-0.556750	0.238453	99
Es	-1.977736	1.138696	-1.292535	99
Es	2.168209	-1.156318	0.819713	99
Es	-2.707716	2.039505	-1.681293	99
Es	0.162386	-0.318727	0.822384	99
Es	-2.544105	2.302532	-1.720734	99
Es	-0.881904	-0.077792	1.419489	99
44
Properties=species:S:1:pos:R:3:Z:I:1 energy=-360.963165975262 field_type=dipole dipole="0.000000 0.000000 0.000000" charge=0
C	-0.345892	-0.580164	1.312754	6
C	0.685458	-0.055864	0.319164	6
C	1.833728	-1.046304	0.167004	6
O	0.089858	0.102396	-0.977396	8
N	-0.653052	1.306436	-1.002426	7
C	-1.977892	1.138676	-1.292586	6
O	-2.707892	2.039696	-1.681376	8
H	-1.139822	0.156636	1.473554	1
H	0.112038	-0.801304	2.281664	1
H	-0.829582	-1.487034	0.933744	1
H	1.093288	0.903296	0.663154	1
H	1.475418	-2.006484	-0.220906	1
H	2.339968	-1.219904	1.121484	1
H	2.568138	-0.670794	-0.553836	1
H	-0.205712	2.108566	-1.433036	1
H	-2.338052	0.112146	-1.110956	1
Es	2.332309	-0.785525	-0.318086	99
Es	-0.881801	-0.077799	1.419492	99
Es	-2.501627	1.793090	-1.310059	99
Es	1.583031	-1.695634	-0.089708	99
Es	0.296697	0.072005	-0.485476	99
Es	0.685354	-0.055886	0.318961	99
Es	-0.664963	-1.198171	1.050724	99
Es	-2.416380	1.667977	-1.788232	99
Es	0.089797	0.102640	-0.977057	99
Es	-2.210485	0.440547	-1.165586	99
Es	-1.977738	1.138696	-1.292535	99
Es	-1.167655	1.208034	-1.237122	99
Es	-0.243873	0.658822	-0.975994	99
Es	2.168110	-1.156327	0.819740	99
Es	-2.996370	1.948543	-1.709612	99
Es	-0.124945	-0.120378	-1.007213	99
Es	-0.822769	1.382382	-0.712267	99
Es	1.833705	-1.046283	0.167016	99
Es	-2.707656	2.039453	-1.681263	99
Es	0.961463	0.604412	0.552119	99
Es	-2.544114	2.302752	-1.721741	99
Es	1.257662	-0.556731	0.238361	99
Es	-0.381787	1.762289	-1.270904	99
Es	-0.026073	-0.727269	1.966312	99
Es	0.162443	-0.318698	0.822448	99
Es	-0.345876	-0.580153	1.312747	99
Es	0.319863	0.144046	-1.182175	99
Es	-0.653098	1.306188	-1.002926	99
44
Properties=species:S:1:pos:R:3:Z:I:1 energy=-360.963165975262 field_type=dipole dipole="0.000000 0.000000 0.000000" charge=0
C	-0.345892	-0.580164	1.312754	6
C	0.685458	-0.055864	0.319164	6
C	1.833728	-1.046304	0.167004	6
O	0.089858	0.102396	-0.977396	8
N	-0.653052	1.306436	-1.002426	7
C	-1.977892	1.138676	-1.292586	6
O	-2.707892	2.039696	-1.681376	8
H	-1.139822	0.156636	1.473554	1
H	0.112038	-0.801304	2.281664	1
H	-0.829582	-1.487034	0.933744	1
H	1.093288	0.903296	0.663154	1
H	1.475418	-2.006484	-0.220906	1
H	2.339968	-1.219904	1.121484	1
H	2.568138	-0.670794	-0.553836	1
H	-0.205712	2.108566	-1.433036	1
H	-2.338052	0.112146	-1.110956	1
Es	-2.414779	1.669259	-1.788575	99
Es	1.833707	-1.046285	0.167016	99
Es	-2.996680	1.948569	-1.711535	99
Es	-0.123192	-0.121487	-1.011449	99
Es	0.685353	-0.055886	0.318960	99
Es	1.582988	-1.695629	-0.089635	99
Es	-1.977738	1.138696	-1.292536	99
Es	-2.544285	2.302560	-1.719325	99
Es	-1.167327	1.208274	-1.237469	99
Es	0.961454	0.604403	0.552122	99
Es	-0.244895	0.658405	-0.975795	99
Es	-2.707670	2.039447	-1.681259	99
Es	0.294788	0.070536	-0.484625	99
Es	0.089792	0.102596	-0.977133	99
Es	0.320943	0.146937	-1.178815	99
Es	-0.026022	-0.727355	1.966258	99
Es	2.168213	-1.156287	0.819735	99
Es	-0.665027	-1.198104	1.050736	99
Es	-2.210485	0.440519	-1.165579	99
Es	-0.881775	-0.077716	1.419569	99
Es	-0.823199	1.382173	-0.712418	99
Es	-0.345876	-0.580153	1.312747	99
Es	0.162430	-0.318779	0.822420	99
Es	-0.653161	1.306166	-1.003039	99
Es	-2.502735	1.791974	-1.310215	99
Es	-0.381515	1.762466	-1.270408	99
Es	1.257688	-0.556682	0.238374	99
Es	2.332228	-0.785596	-0.318164	99
44
Properties=species:S:1:pos:R:3:Z:I:1 energy=-360.963165975262 field_type=dipole dipole="0.000000 0.000000 0.000000" charge=0
C	-0.345892	-0.580164	1.312754	6
C	0.685458	-0.055864	0.319164	6
C	1.833728	-1.046304	0.167004	6
O	0.089858	0.102396	-0.977396	8
N	-0.653052	1.306436	-1.002426	7
C	-1.977892	1.138676	-1.292586	6
O	-2.707892	2.039696	-1.681376	8
H	-1.139822	0.156636	1.473554	1
H	0.112038	-0.801304	2.281664	1
H	-0.829582	-1.487034	0.933744	1
H	1.093288	0.903296	0.663154	1
H	1.475418	-2.006484	-0.220906	1
H	2.339968	-1.219904	1.121484	1
H	2.568138	-0.670794	-0.553836	1
H	-0.205712	2.108566	-1.433036	1
H	-2.338052	0.112146	-1.110956	1
Es	2.168215	-1.156287	0.819685	99
Es	-0.345877	-0.580153	1.312747	99
Es	-1.167940	1.208156	-1.236671	99
Es	-0.881819	-0.077851	1.419496	99
Es	0.295836	0.071453	-0.485325	99
Es	1.582995	-1.695678	-0.089677	99
Es	-0.653127	1.306156	-1.003054	99
Es	-2.210503	0.440513	-1.165599	99
Es	2.332223	-0.785599	-0.318095	99
Es	-2.707740	2.039541	-1.681304	99
Es	-0.664958	-1.198132	1.050806	99
Es	0.685356	-0.055886	0.318963	99
Es	-2.502562	1.791976	-1.310301	99
Es	-0.243633	0.659173	-0.975854	99
Es	0.320172	0.144415	-1.180936	99
Es	0.089831	0.102536	-0.977138	99
Es	-1.977737	1.138695	-1.292536	99
Es	1.257663	-0.556630	0.238374	99
Es	-2.996311	1.948598	-1.710850	99
Es	-0.124616	-0.120525	-1.008288	99
Es	-2.414948	1.668981	-1.789135	99
Es	-2.544577	2.302715	-1.719316	99
Es	0.162425	-0.318681	0.822420	99
Es	0.961510	0.604341	0.552076	99
Es	-0.026058	-0.727258	1.966326	99
Es	-0.822466	1.382477	-0.712783	99
Es	1.833705	-1.046283	0.167016	99
Es	-0.381834	1.762258	-1.271086	99
