44
Properties=species:S:1:pos:R:3:Z:I:1 energy=-304.062548621726 field_type=dipole dipole="0.000000 0.000000 0.000000" charge=0
C	-0.177872	-0.464752	-0.344247	6
C	-0.605632	-0.403262	1.094623	6
C	-1.937842	0.192518	1.468853	6
N	-1.711352	-1.248082	1.558843	7
N	0.613118	0.739778	-0.630237	7
C	2.042048	0.483128	-0.800277	6
C	1.156728	0.748798	-1.987047	6
H	0.374898	-1.398012	-0.511857	1
H	-1.054572	-0.486682	-1.003777	1
H	0.227708	-0.295262	1.778783	1
H	-2.601613	0.521338	0.678513	1
H	-2.016442	0.736748	2.401343	1
H	-1.564542	-1.528742	2.530313	1
H	2.420778	-0.520752	-0.651027	1
H	2.705117	1.275628	-0.474067	1
H	1.217588	1.721097	-2.460607	1
H	0.911888	-0.073482	-2.648127	1
Es	1.195601	1.407611	-2.312856	99
Es	-0.605849	-0.403374	1.094687	99
Es	-1.143939	-0.999534	1.357413	99
Es	-0.776411	-0.475892	-0.792541	99
Es	-1.711056	-1.247642	1.559164	99
Es	-1.936329	-0.638025	1.583598	99
Es	-1.874529	-1.469277	1.327590	99
Es	-1.993389	0.561736	2.107142	99
Es	1.250109	0.586749	-0.558213	99
Es	-2.389712	0.415366	0.932150	99
Es	-1.612539	-1.398124	2.147769	99
Es	2.041814	0.483169	-0.800324	99
Es	-0.402434	-0.446999	0.376412	99
Es	0.511142	1.046874	-0.485657	99
Es	1.156706	0.748768	-1.986793	99
Es	0.613352	0.739241	-0.630533	99
Es	0.214676	-1.101999	-0.463534	99
Es	-1.937755	0.192283	1.468867	99
Es	0.298035	0.196648	-0.524161	99
Es	2.291558	-0.203596	-0.693439	99
Es	-0.177794	-0.464635	-0.344238	99
Es	-0.037925	-0.328965	1.565884	99
Es	2.495207	1.019134	-0.575122	99
Es	1.776229	0.597733	-1.530702	99
Es	0.984574	0.185404	-2.432083	99
Es	0.719839	0.751567	-1.280396	99
Es	-1.198004	0.103870	1.232503	99
44
Properties=species:S:1:pos:R:3:Z:I:1 energy=-304.062548621726 field_type=dipole dipole="0.000000 0.000000 0.000000" charge=0
C	-0.177872	-0.464752	-0.344247	6
C	-0.605632	-0.403262	1.094623	6
C	-1.937842	0.192518	1.468853	6
N	-1.711352	-1.248082	1.558843	7
N	0.613118	0.739778	-0.630237	7
C	2.042048	0.483128	-0.800277	6
C	1.156728	0.748798	-1.987047	6
H	0.374898	-1.398012	-0.511857	1
H	-1.054572	-0.486682	-1.003777	1
H	0.227708	-0.295262	1.778783	1
H	-2.601613	0.521338	0.678513	1
H	-2.016442	0.736748	2.401343	1
H	-1.564542	-1.528742	2.530313	1
H	2.420778	-0.520752	-0.651027	1
H	2.705117	1.275628	-0.474067	1
H	1.217588	1.721097	-2.460607	1
H	0.911888	-0.073482	-2.648127	1
Es	-0.605855	-0.403371	1.094690	99
Es	-0.177793	-0.464632	-0.344238	99
Es	2.495167	1.018955	-0.574995	99
Es	-1.874438	-1.469059	1.328261	99
Es	0.984634	0.185538	-2.432044	99
Es	-1.711057	-1.247648	1.559168	99
Es	-1.612398	-1.398111	2.147654	99
Es	1.250466	0.586926	-0.557766	99
Es	-0.776371	-0.475870	-0.792432	99
Es	2.291490	-0.203550	-0.693413	99
Es	-0.402432	-0.447118	0.376478	99
Es	1.156709	0.748769	-1.986800	99
Es	0.297825	0.196977	-0.523890	99
Es	-0.037954	-0.329092	1.565744	99
Es	0.511363	1.046201	-0.486051	99
Es	1.776419	0.597791	-1.530812	99
Es	0.214627	-1.102025	-0.463649	99
Es	-2.389591	0.415416	0.932310	99
Es	-1.144079	-1.000181	1.357113	99
Es	0.613371	0.739245	-0.630545	99
Es	1.195596	1.407541	-2.312861	99
Es	-1.197775	0.104220	1.232398	99
Es	-1.936742	-0.637800	1.583451	99
Es	-1.993378	0.561743	2.107094	99
Es	-1.937747	0.192273	1.468864	99
Es	0.719311	0.751788	-1.280818	99
Es	2.041812	0.483169	-0.800322	99
44
Properties=species:S:1:pos:R:3:Z:I:1 energy=-304.062548621726 field_type=dipole dipole="0.000000 0.000000 0.000000" charge=0
C	-0.177872	-0.464752	-0.344247	6
C	-0.605632	-0.403262	1.094623	6
C	-1.937842	0.192518	1.468853	6
N	-1.711352	-1.248082	1.558843	7
N	0.613118	0.739778	-0.630237	7
C	2.042048	0.483128	-0.800277	6
C	1.156728	0.748798	-1.987047	6
H	0.374898	-1.398012	-0.511857	1
H	-1.054572	-0.486682	-1.003777	1
H	0.227708	-0.295262	1.778783	1
H	-2.601613	0.521338	0.678513	1
H	-2.016442	0.736748	2.401343	1
H	-1.564542	-1.528742	2.530313	1
H	2.420778	-0.520752	-0.651027	1
H	2.705117	1.275628	-0.474067	1
H	1.217588	1.721097	-2.460607	1
H	0.911888	-0.073482	-2.648127	1
Es	-2.389634	0.415387	0.932328	99
Es	2.041815	0.483167	-0.800314	99
Es	0.613370	0.739258	-0.630542	99
Es	1.250453	0.586911	-0.557613	99
Es	-0.605854	-0.403371	1.094690	99
Es	0.984586	0.185664	-2.431985	99
Es	-1.711059	-1.247654	1.559165	99
Es	0.719156	0.751884	-1.280787	99
Es	-1.937751	0.192281	1.468866	99
Es	0.511610	1.045989	-0.486149	99
Es	1.156702	0.748770	-1.986798	99
Es	-0.776401	-0.475947	-0.792427	99
Es	0.214599	-1.101989	-0.463578	99
Es	-1.873955	-1.468998	1.328632	99
Es	0.297674	0.197088	-0.523791	99
Es	-0.402367	-0.446994	0.376495	99
Es	1.195535	1.407429	-2.312872	99
Es	2.495141	1.018877	-0.575010	99
Es	-1.937492	-0.637956	1.583479	99
Es	-0.177792	-0.464633	-0.344238	99
Es	-1.993472	0.561644	2.106986	99
Es	-1.612474	-1.398165	2.147454	99
Es	-1.143662	-1.000070	1.356950	99
Es	-0.038017	-0.329111	1.565685	99
Es	-1.197670	0.104331	1.232507	99
Es	2.291490	-0.203475	-0.693408	99
Es	1.776647	0.597773	-1.531136	99
44
Properties=species:S:1:pos:R:3:Z:I:1 energy=-304.062548621726 field_type=dipole dipole="0.000000 0.000000 0.000000" charge=0
C	-0.177872	-0.464752	-0.344247	6
C	-0.605632	-0.403262	1.094623	6
C	-1.937842	0.192518	1.468853	6
N	-1.711352	-1.248082	1.558843	7
N	0.613118	0.739778	-0.630237	7
C	2.042048	0.483128	-0.800277	6
C	1.156728	0.748798	-1.987047	6
H	0.374898	-1.398012	-0.511857	1
H	-1.054572	-0.486682	-1.003777	1
H	0.227708	-0.295262	1.778783	1
H	-2.601613	0.521338	0.678513	1
H	-2.016442	0.736748	2.401343	1
H	-1.564542	-1.528742	2.530313	1
H	2.420778	-0.520752	-0.651027	1
H	2.705117	1.275628	-0.474067	1
H	1.217588	1.721097	-2.460607	1
H	0.911888	-0.073482	-2.648127	1
Es	0.984571	0.185735	-2.431927	99
Es	2.041809	0.483169	-0.800320	99
Es	-1.937429	-0.637955	1.583259	99
Es	2.495093	1.018772	-0.574940	99
Es	-0.402459	-0.447043	0.376513	99
Es	-0.038045	-0.329074	1.565627	99
Es	-1.993625	0.561566	2.106989	99
Es	-1.711059	-1.247646	1.559164	99
Es	-0.177793	-0.464633	-0.344238	99
Es	1.776978	0.597718	-1.531335	99
Es	0.297459	0.197293	-0.523477	99
Es	1.250561	0.586873	-0.557660	99
Es	1.156708	0.748770	-1.986805	99
Es	0.613354	0.739271	-0.630535	99
Es	-0.605852	-0.403369	1.094689	99
Es	0.512136	1.045369	-0.486181	99
Es	-1.612813	-1.398423	2.147432	99
Es	2.291456	-0.203328	-0.693349	99
Es	-2.389633	0.415295	0.932490	99
Es	0.214587	-1.102010	-0.463548	99
Es	-1.143392	-1.000601	1.356804	99
Es	-1.937752	0.192276	1.468868	99
Es	1.195515	1.407335	-2.312902	99
Es	-0.776333	-0.475941	-0.792460	99
Es	-1.873842	-1.468475	1.328980	99
Es	-1.197607	0.104746	1.232367	99
Es	0.718586	0.752401	-1.280919	99
44
Properties=species:S:1:pos:R:3:Z:I:1 energy=-304.062548621726 field_type=dipole dipole="0.000000 0.000000 0.000000" charge=0
C	-0.177872	-0.464752	-0.344247	6
C	-0.605632	-0.403262	1.094623	6
C	-1.937842	0.192518	1.468853	6
N	-1.711352	-1.248082	1.558843	7
N	0.613118	0.739778	-0.630237	7
C	2.042048	0.483128	-0.800277	6
C	1.156728	0.748798	-1.987047	6
H	0.374898	-1.398012	-0.511857	1
H	-1.054572	-0.486682	-1.003777	1
H	0.227708	-0.295262	1.778783	1
H	-2.601613	0.521338	0.678513	1
H	-2.016442	0.736748	2.401343	1
H	-1.564542	-1.528742	2.530313	1
H	2.420778	-0.520752	-0.651027	1
H	2.705117	1.275628	-0.474067	1
H	1.217588	1.721097	-2.460607	1
H	0.911888	-0.073482	-2.648127	1
Es	1.250579	0.587366	-0.556897	99
Es	-1.993579	0.561502	2.106871	99
Es	1.156704	0.748770	-1.986799	99
Es	-1.937751	0.192279	1.468867	99
Es	-0.038129	-0.329042	1.565559	99
Es	-0.177793	-0.464634	-0.344238	99
Es	-0.776359	-0.476001	-0.792400	99
Es	-1.197593	0.104787	1.232407	99
Es	-1.938101	-0.637694	1.583214	99
Es	-0.402359	-0.447040	0.376522	99
Es	-1.873253	-1.468330	1.329159	99
Es	0.613361	0.739256	-0.630536	99
Es	2.041813	0.483169	-0.800322	99
Es	-1.612981	-1.398655	2.147215	99
Es	2.291491	-0.203221	-0.693265	99
Es	1.195454	1.407240	-2.312855	99
Es	0.297532	0.197265	-0.523622	99
Es	-2.389630	0.415382	0.932528	99
Es	0.984535	0.185864	-2.431925	99
Es	0.214624	-1.102003	-0.463550	99
Es	0.718677	0.752605	-1.281037	99
Es	-1.143166	-1.000882	1.356990	99
Es	-0.605856	-0.403366	1.094690	99
Es	0.511777	1.044739	-0.486529	99
Es	-1.711062	-1.247646	1.559152	99
Es	1.777240	0.597663	-1.531651	99
Es	2.495006	1.018718	-0.574960	99
44
Properties=species:S:1:pos:R:3:Z:I:1 energy=-304.062548621726 field_type=dipole dipole="0.000000 0.000000 0.000000" charge=0
C	-0.177872	-0.464752	-0.344247	6
C	-0.605632	-0.403262	1.094623	6
C	-1.937842	0.192518	1.468853	6
N	-1.711352	-1.248082	1.558843	7
N	0.613118	0.739778	-0.630237	7
C	2.042048	0.483128	-0.800277	6
C	1.156728	0.748798	-1.987047	6
H	0.374898	-1.398012	-0.511857	1
H	-1.054572	-0.486682	-1.003777	1
H	0.227708	-0.295262	1.778783	1
H	-2.601613	0.521338	0.678513	1
H	-2.016442	0.736748	2.401343	1
H	-1.564542	-1.528742	2.530313	1
H	2.420778	-0.520752	-0.651027	1
H	2.705117	1.275628	-0.474067	1
H	1.217588	1.721097	-2.460607	1
H	0.911888	-0.073482	-2.648127	1
Es	-0.605858	-0.403375	1.094692	99
Es	0.214526	-1.101977	-0.463599	99
Es	-1.143027	-1.001052	1.356343	99
Es	-0.776366	-0.475956	-0.792389	99
Es	-1.711076	-1.247693	1.559158	99
Es	2.495022	1.018607	-0.574919	99
Es	1.250589	0.587211	-0.556917	99
Es	-1.873406	-1.468017	1.329813	99
Es	-0.177794	-0.464633	-0.344239	99
Es	1.195419	1.407142	-2.312902	99
Es	-0.402306	-0.447112	0.376578	99
Es	-1.938460	-0.637932	1.583362	99
Es	0.613332	0.739425	-0.630476	99
Es	-1.612814	-1.398601	2.147157	99
Es	2.041807	0.483171	-0.800320	99
Es	0.512070	1.044414	-0.486486	99
Es	0.297495	0.197388	-0.523564	99
Es	-2.389598	0.415368	0.932611	99
Es	1.156698	0.748770	-1.986790	99
Es	2.291420	-0.203123	-0.693240	99
Es	1.777490	0.597646	-1.531824	99
Es	0.718350	0.752840	-1.281082	99
Es	-1.937751	0.192280	1.468867	99
Es	-1.197380	0.104988	1.232344	99
Es	-0.038183	-0.329118	1.565499	99
Es	0.984565	0.185936	-2.431854	99
Es	-1.993590	0.561495	2.106765	99
44
Properties=species:S:1:pos:R:3:Z:I:1 energy=-304.062548621726 field_type=dipole dipole="0.000000 0.000000 0.000000" charge=0
C	-0.177872	-0.464752	-0.344247	6
C	-0.605632	-0.403262	1.094623	6
C	-1.937842	0.192518	1.468853	6
N	-1.711352	-1.248082	1.558843	7
N	0.613118	0.739778	-0.630237	7
C	2.042048	0.483128	-0.800277	6
C	1.156728	0.748798	-1.987047	6
H	0.374898	-1.398012	-0.511857	1
H	-1.054572	-0.486682	-1.003777	1
H	0.227708	-0.295262	1.778783	1
H	-2.601613	0.521338	0.678513	1
H	-2.016442	0.736748	2.401343	1
H	-1.564542	-1.528742	2.530313	1
H	2.420778	-0.520752	-0.651027	1
H	2.705117	1.275628	-0.474067	1
H	1.217588	1.721097	-2.460607	1
H	0.911888	-0.073482	-2.648127	1
Es	0.512298	1.044267	-0.486780	99
Es	-1.142839	-1.001330	1.356216	99
Es	-0.402200	-0.447125	0.376604	99
Es	0.984550	0.186030	-2.431813	99
Es	-1.993688	0.561355	2.106659	99
Es	0.297144	0.197690	-0.523339	99
Es	-0.177795	-0.464634	-0.344238	99
Es	0.214540	-1.102015	-0.463675	99
Es	0.613370	0.739252	-0.630543	99
Es	-1.873392	-1.467813	1.330076	99
Es	2.041807	0.483171	-0.800321	99
Es	-1.197184	0.105215	1.232340	99
Es	-0.038265	-0.329128	1.565468	99
Es	1.195374	1.407050	-2.312903	99
Es	-2.389573	0.415405	0.932703	99
Es	-0.605842	-0.403368	1.094682	99
Es	-0.776364	-0.475964	-0.792259	99
Es	2.494967	1.018538	-0.574890	99
Es	-1.612968	-1.398683	2.147056	99
Es	1.777740	0.597585	-1.532035	99
Es	1.156706	0.748770	-1.986798	99
Es	2.291392	-0.203024	-0.693123	99
Es	-1.711063	-1.247651	1.559157	99
Es	1.250770	0.587253	-0.556743	99
Es	-1.937748	0.192278	1.468865	99
Es	-1.938643	-0.637935	1.583363	99
Es	0.718082	0.752902	-1.281140	99
44
Properties=species:S:1:pos:R:3:Z:I:1 energy=-304.062548621726 field_type=dipole dipole="0.000000 0.000000 0.000000" charge=0
C	-0.177872	-0.464752	-0.344247	6
C	-0.605632	-0.403262	1.094623	6
C	-1.937842	0.192518	1.468853	6
N	-1.711352	-1.248082	1.558843	7
N	0.613118	0.739778	-0.630237	7
C	2.042048	0.483128	-0.800277	6
C	1.156728	0.748798	-1.987047	6
H	0.374898	-1.398012	-0.511857	1
H	-1.054572	-0.486682	-1.003777	1
H	0.227708	-0.295262	1.778783	1
H	-2.601613	0.521338	0.678513	1
H	-2.016442	0.736748	2.401343	1
H	-1.564542	-1.528742	2.530313	1
H	2.420778	-0.520752	-0.651027	1
H	2.705117	1.275628	-0.474067	1
H	1.217588	1.721097	-2.460607	1
H	0.911888	-0.073482	-2.648127	1
Es	2.041812	0.483169	-0.800323	99
Es	-0.402257	-0.447147	0.376664	99
Es	1.250807	0.587621	-0.556358	99
Es	0.297295	0.197494	-0.523355	99
Es	0.512169	1.043789	-0.486934	99
Es	-1.613141	-1.399211	2.146908	99
Es	-1.937743	0.192266	1.468865	99
Es	1.156703	0.748771	-1.986806	99
Es	0.984553	0.186117	-2.431755	99
Es	2.291382	-0.202943	-0.693172	99
Es	-0.776334	-0.475988	-0.792360	99
Es	-1.872842	-1.467398	1.330111	99
Es	-0.605855	-0.403373	1.094690	99
Es	0.717969	0.753206	-1.281196	99
Es	2.494934	1.018415	-0.574862	99
Es	-1.197137	0.105365	1.232248	99
Es	-1.993648	0.561390	2.106613	99
Es	0.214469	-1.101959	-0.463599	99
Es	-0.038298	-0.329152	1.565376	99
Es	-1.711060	-1.247642	1.559159	99
Es	0.613376	0.739238	-0.630551	99
Es	-1.939184	-0.637874	1.583442	99
Es	-0.177795	-0.464635	-0.344238	99
Es	1.777978	0.597632	-1.532173	99
Es	-1.142737	-1.001394	1.356312	99
Es	1.195325	1.406954	-2.312918	99
Es	-2.389566	0.415381	0.932801	99
44
Properties=species:S:1:pos:R:3:Z:I:1 energy=-304.062548621726 field_type=dipole dipole="0.000000 0.000000 0.000000" charge=0
C	-0.177872	-0.464752	-0.344247	6
C	-0.605632	-0.403262	1.094623	6
C	-1.937842	0.192518	1.468853	6
N	-1.711352	-1.248082	1.558843	7
N	0.613118	0.739778	-0.630237	7
C	2.042048	0.483128	-0.800277	6
C	1.156728	0.748798	-1.987047	6
H	0.374898	-1.398012	-0.511857	1
H	-1.054572	-0.486682	-1.003777	1
H	0.227708	-0.295262	1.778783	1
H	-2.601613	0.521338	0.678513	1
H	-2.016442	0.736748	2.401343	1
H	-1.564542	-1.528742	2.530313	1
H	2.420778	-0.520752	-0.651027	1
H	2.705117	1.275628	-0.474067	1
H	1.217588	1.721097	-2.460607	1
H	0.911888	-0.073482	-2.648127	1
Es	2.041810	0.483169	-0.800322	99
Es	-1.711066	-1.247649	1.559153	99
Es	-0.177796	-0.464636	-0.344238	99
Es	1.195286	1.406849	-2.312900	99
Es	-2.389508	0.415385	0.932843	99
Es	-1.993679	0.561380	2.106543	99
Es	-1.613458	-1.399362	2.146929	99
Es	1.156707	0.748770	-1.986797	99
Es	1.778098	0.597633	-1.532500	99
Es	0.984503	0.186210	-2.431734	99
Es	-0.776324	-0.475991	-0.792295	99
Es	0.613389	0.739243	-0.630552	99
Es	-1.937748	0.192273	1.468867	99
Es	-1.197167	0.105476	1.232267	99
Es	0.717929	0.753628	-1.281399	99
Es	2.494922	1.018330	-0.574872	99
Es	0.296802	0.197857	-0.523184	99
Es	-1.872893	-1.466722	1.330779	99
Es	0.512685	1.043173	-0.487186	99
Es	-1.142330	-1.002277	1.355861	99
Es	0.214467	-1.101958	-0.463662	99
Es	-0.402213	-0.447174	0.376694	99
Es	2.291364	-0.202855	-0.693159	99
Es	-1.939187	-0.637667	1.583240	99
Es	1.250783	0.587500	-0.555814	99
Es	-0.605853	-0.403368	1.094689	99
Es	-0.038347	-0.329128	1.565335	99
44
Properties=species:S:1:pos:R:3:Z:I:1 energy=-304.062548621726 field_type=dipole dipole="0.000000 0.000000 0.000000" charge=0
C	-0.177872	-0.464752	-0.344247	6
C	-0.605632	-0.403262	1.094623	6
C	-1.937842	0.192518	1.468853	6
N	-1.711352	-1.248082	1.558843	7
N	0.613118	0.739778	-0.630237	7
C	2.042048	0.483128	-0.800277	6
C	1.156728	0.748798	-1.987047	6
H	0.374898	-1.398012	-0.511857	1
H	-1.054572	-0.486682	-1.003777	1
H	0.227708	-0.295262	1.778783	1
H	-2.601613	0.521338	0.678513	1
H	-2.016442	0.736748	2.401343	1
H	-1.564542	-1.528742	2.530313	1
H	2.420778	-0.520752	-0.651027	1
H	2.705117	1.275628	-0.474067	1
H	1.217588	1.721097	-2.460607	1
H	0.911888	-0.073482	-2.648127	1
Es	2.041808	0.483170	-0.800323	99
Es	-0.776315	-0.476011	-0.792347	99
Es	1.250792	0.587625	-0.555950	99
Es	2.494899	1.018261	-0.574856	99
Es	-0.038404	-0.329172	1.565252	99
Es	-1.872695	-1.466832	1.330700	99
Es	-1.613333	-1.399459	2.146749	99
Es	-1.939492	-0.637951	1.583466	99
Es	1.195222	1.406816	-2.312868	99
Es	-0.177795	-0.464636	-0.344238	99
Es	0.297056	0.197840	-0.523057	99
Es	0.512603	1.043208	-0.487163	99
Es	0.214420	-1.101911	-0.463628	99
Es	-0.605859	-0.403372	1.094692	99
Es	0.984526	0.186310	-2.431725	99
Es	-1.711066	-1.247648	1.559144	99
Es	0.613368	0.739251	-0.630542	99
Es	-1.197030	0.105797	1.232209	99
Es	-1.937748	0.192275	1.468867	99
Es	1.156707	0.748770	-1.986795	99
Es	-0.402205	-0.447208	0.376737	99
Es	1.778387	0.597549	-1.532620	99
Es	-2.389509	0.415326	0.932946	99
Es	-1.142402	-1.001968	1.355990	99
Es	2.291329	-0.202752	-0.693094	99
Es	-1.993723	0.561360	2.106455	99
Es	0.717640	0.753454	-1.281412	99
44
Properties=species:S:1:pos:R:3:Z:I:1 energy=-304.062548621726 field_type=dipole dipole="0.000000 0.000000 0.000000" charge=0
C	-0.177872	-0.464752	-0.344247	6
C	-0.605632	-0.403262	1.094623	6
C	-1.937842	0.192518	1.468853	6
N	-1.711352	-1.248082	1.558843	7
N	0.613118	0.739778	-0.630237	7
C	2.042048	0.483128	-0.800277	6
C	1.156728	0.748798	-1.987047	6
H	0.374898	-1.398012	-0.511857	1
H	-1.054572	-0.486682	-1.003777	1
H	0.227708	-0.295262	1.778783	1
H	-2.601613	0.521338	0.678513	1
H	-2.016442	0.736748	2.401343	1
H	-1.564542	-1.528742	2.530313	1
H	2.420778	-0.520752	-0.651027	1
H	2.705117	1.275628	-0.474067	1
H	1.217588	1.721097	-2.460607	1
H	0.911888	-0.073482	-2.648127	1
Es	-1.196950	0.105942	1.232188	99
Es	2.291339	-0.202675	-0.693044	99
Es	-1.711063	-1.247662	1.559157	99
Es	-1.613295	-1.399438	2.146612	99
Es	1.195235	1.406723	-2.312881	99
Es	2.494837	1.018185	-0.574852	99
Es	-1.872578	-1.466700	1.331099	99
Es	1.250843	0.587751	-0.555680	99
Es	-0.605863	-0.403375	1.094694	99
Es	-2.389484	0.415346	0.933007	99
Es	0.214414	-1.101817	-0.463690	99
Es	1.778562	0.597525	-1.532811	99
Es	-0.038441	-0.329197	1.565203	99
Es	0.297036	0.197931	-0.523040	99
Es	0.613372	0.739257	-0.630543	99
Es	0.717470	0.753664	-1.281489	99
Es	-1.142238	-1.002240	1.355745	99
Es	-1.937750	0.192277	1.468868	99
Es	-0.402156	-0.447299	0.376832	99
Es	-0.776313	-0.476060	-0.792328	99
Es	0.512601	1.042870	-0.487264	99
Es	2.041806	0.483170	-0.800323	99
Es	-0.177795	-0.464639	-0.344239	99
Es	0.984507	0.186388	-2.431681	99
Es	-1.993743	0.561309	2.106375	99
Es	-1.939878	-0.637913	1.583469	99
Es	1.156705	0.748769	-1.986795	99
44
Properties=species:S:1:pos:R:3:Z:I:1 energy=-304.062548621726 field_type=dipole dipole="0.000000 0.000000 0.000000" charge=0
C	-0.177872	-0.464752	-0.344247	6
C	-0.605632	-0.403262	1.094623	6
C	-1.937842	0.192518	1.468853	6
N	-1.711352	-1.248082	1.558843	7
N	0.613118	0.739778	-0.630237	7
C	2.042048	0.483128	-0.800277	6
C	1.156728	0.748798	-1.987047	6
H	0.374898	-1.398012	-0.511857	1
H	-1.054572	-0.486682	-1.003777	1
H	0.227708	-0.295262	1.778783	1
H	-2.601613	0.521338	0.678513	1
H	-2.016442	0.736748	2.401343	1
H	-1.564542	-1.528742	2.530313	1
H	2.420778	-0.520752	-0.651027	1
H	2.705117	1.275628	-0.474067	1
H	1.217588	1.721097	-2.460607	1
H	0.911888	-0.073482	-2.648127	1
Es	1.156707	0.748770	-1.986793	99
Es	-1.142073	-1.002301	1.355855	99
Es	0.984430	0.186515	-2.431655	99
Es	-2.389508	0.415321	0.933125	99
Es	-1.196896	0.106192	1.232095	99
Es	0.297241	0.197852	-0.523252	99
Es	-0.605861	-0.403371	1.094693	99
Es	2.494806	1.018139	-0.574860	99
Es	-0.177795	-0.464636	-0.344238	99
Es	-0.038500	-0.329200	1.565136	99
Es	1.251038	0.587953	-0.555459	99
Es	-0.402156	-0.447291	0.376810	99
Es	-1.939885	-0.638027	1.583615	99
Es	-0.776295	-0.476055	-0.792310	99
Es	0.717105	0.754289	-1.281573	99
Es	-1.937747	0.192274	1.468867	99
Es	2.291311	-0.202572	-0.692953	99
Es	0.512638	1.042047	-0.487242	99
Es	-1.613513	-1.399661	2.146473	99
Es	-1.993730	0.561284	2.106314	99
Es	0.613283	0.739380	-0.630451	99
Es	0.214356	-1.101880	-0.463627	99
Es	2.041810	0.483170	-0.800325	99
Es	-1.711072	-1.247653	1.559132	99
Es	1.778752	0.597379	-1.533016	99
Es	-1.872530	-1.466460	1.331086	99
Es	1.195263	1.406634	-2.312859	99
