43
Properties=species:S:1:pos:R:3:Z:I:1 energy=-323.99704699078984 field_type=dipole dipole="0.000000 0.000000 0.000000" charge=0
C	-2.313909	0.115812	0.329616	6
C	-0.848809	-0.090738	0.008616	6
N	-0.504129	-1.380708	-0.344474	7
C	-0.022459	0.968592	0.069256	6
C	1.449301	1.008183	-0.137974	6
C	2.289281	-0.215468	0.118606	6
O	1.962431	2.069362	-0.495094	8
H	-2.540668	1.148232	0.616976	1
H	-2.612589	-0.532337	1.160656	1
H	-2.930689	-0.130128	-0.541324	1
H	-1.297409	-1.952148	-0.632204	1
H	0.253811	-1.442558	-1.019614	1
H	-0.420079	1.954232	0.298926	1
H	1.867061	-0.821338	0.923416	1
H	3.285421	0.102112	0.442676	1
H	2.383431	-0.801107	-0.798064	1
Es	-2.717803	-0.059916	-0.262880	99
Es	-0.982684	-1.702996	-0.529968	99
Es	2.280032	2.052781	-0.521432	99
Es	1.962325	2.069126	-0.495019	99
Es	-0.665265	-0.811300	-0.250422	99
Es	-2.458723	0.810662	0.521173	99
Es	-1.578515	0.007015	0.166062	99
Es	2.289248	-0.215454	0.118578	99
Es	-0.415306	-1.432534	-0.059564	99
Es	-0.848899	-0.090969	0.008583	99
Es	-0.504375	-1.380316	-0.344938	99
Es	-0.295684	1.625277	0.228714	99
Es	1.802727	1.755760	-0.128583	99
Es	1.860419	0.376296	-0.006451	99
Es	-2.502325	-0.328187	0.882729	99
Es	1.449286	1.008138	-0.137962	99
Es	-2.313857	0.115787	0.329599	99
Es	2.953672	-0.001604	0.328969	99
Es	-0.022393	0.968585	0.069251	99
Es	-0.388550	0.569230	-0.273666	99
Es	1.749091	2.299230	-0.536632	99
Es	2.332851	-0.602554	-0.502619	99
Es	1.754629	1.623873	-0.609137	99
Es	0.707057	0.949155	-0.038903	99
Es	1.996296	-0.622986	0.652368	99
Es	-0.063768	-1.404325	-0.754460	99
Es	-0.307727	0.433494	0.354338	99
43
Properties=species:S:1:pos:R:3:Z:I:1 energy=-323.99704699078984 field_type=dipole dipole="0.000000 0.000000 0.000000" charge=0
C	-2.313909	0.115812	0.329616	6
C	-0.848809	-0.090738	0.008616	6
N	-0.504129	-1.380708	-0.344474	7
C	-0.022459	0.968592	0.069256	6
C	1.449301	1.008183	-0.137974	6
C	2.289281	-0.215468	0.118606	6
O	1.962431	2.069362	-0.495094	8
H	-2.540668	1.148232	0.616976	1
H	-2.612589	-0.532337	1.160656	1
H	-2.930689	-0.130128	-0.541324	1
H	-1.297409	-1.952148	-0.632204	1
H	0.253811	-1.442558	-1.019614	1
H	-0.420079	1.954232	0.298926	1
H	1.867061	-0.821338	0.923416	1
H	3.285421	0.102112	0.442676	1
H	2.383431	-0.801107	-0.798064	1
Es	-0.063822	-1.404251	-0.754172	99
Es	-2.458571	0.810577	0.521350	99
Es	-1.578542	0.007029	0.166082	99
Es	1.804883	1.756939	-0.127141	99
Es	-2.717905	-0.059733	-0.262992	99
Es	2.332903	-0.602633	-0.502733	99
Es	-0.982656	-1.703173	-0.530196	99
Es	0.706938	0.949247	-0.038871	99
Es	1.996282	-0.622908	0.652412	99
Es	-2.313858	0.115787	0.329599	99
Es	1.753798	1.623205	-0.607221	99
Es	2.289248	-0.215453	0.118576	99
Es	-0.295659	1.625251	0.228804	99
Es	1.748424	2.298531	-0.536961	99
Es	1.962281	2.069096	-0.495012	99
Es	-0.415168	-1.432154	-0.058472	99
Es	-0.307677	0.433518	0.354244	99
Es	2.953553	-0.001607	0.329005	99
Es	2.279465	2.052999	-0.524415	99
Es	-0.388561	0.569137	-0.273717	99
Es	-2.502368	-0.328215	0.882646	99
Es	1.449287	1.008142	-0.137955	99
Es	-0.022392	0.968589	0.069246	99
Es	1.860505	0.376270	-0.006423	99
Es	-0.848899	-0.090968	0.008588	99
Es	-0.665374	-0.811609	-0.251662	99
Es	-0.504356	-1.380346	-0.344882	99
43
Properties=species:S:1:pos:R:3:Z:I:1 energy=-323.99704699078984 field_type=dipole dipole="0.000000 0.000000 0.000000" charge=0
C	-2.313909	0.115812	0.329616	6
C	-0.848809	-0.090738	0.008616	6
N	-0.504129	-1.380708	-0.344474	7
C	-0.022459	0.968592	0.069256	6
C	1.449301	1.008183	-0.137974	6
C	2.289281	-0.215468	0.118606	6
O	1.962431	2.069362	-0.495094	8
H	-2.540668	1.148232	0.616976	1
H	-2.612589	-0.532337	1.160656	1
H	-2.930689	-0.130128	-0.541324	1
H	-1.297409	-1.952148	-0.632204	1
H	0.253811	-1.442558	-1.019614	1
H	-0.420079	1.954232	0.298926	1
H	1.867061	-0.821338	0.923416	1
H	3.285421	0.102112	0.442676	1
H	2.383431	-0.801107	-0.798064	1
Es	-0.982647	-1.703657	-0.529736	99
Es	1.753967	1.623275	-0.608085	99
Es	1.996278	-0.622994	0.652341	99
Es	0.706865	0.949289	-0.038706	99
Es	-0.848900	-0.090969	0.008573	99
Es	2.289247	-0.215454	0.118578	99
Es	1.749698	2.299883	-0.537453	99
Es	-0.022388	0.968593	0.069246	99
Es	2.279546	2.051622	-0.522206	99
Es	-2.458689	0.810725	0.521222	99
Es	-0.307771	0.433334	0.354180	99
Es	-2.717820	-0.059854	-0.262784	99
Es	-0.295581	1.625240	0.228770	99
Es	-1.578603	0.007089	0.166072	99
Es	1.449287	1.008139	-0.137960	99
Es	-2.502321	-0.328240	0.882699	99
Es	1.962267	2.069083	-0.494999	99
Es	-2.313858	0.115786	0.329599	99
Es	1.803373	1.756911	-0.128015	99
Es	2.953651	-0.001589	0.329018	99
Es	-0.064094	-1.403970	-0.754454	99
Es	-0.388446	0.569235	-0.273836	99
Es	-0.665461	-0.811638	-0.251466	99
Es	2.332925	-0.602556	-0.502589	99
Es	-0.414789	-1.431986	-0.058870	99
Es	-0.504365	-1.380284	-0.344891	99
Es	1.860388	0.376252	-0.006522	99
43
Properties=species:S:1:pos:R:3:Z:I:1 energy=-323.99704699078984 field_type=dipole dipole="0.000000 0.000000 0.000000" charge=0
C	-2.313909	0.115812	0.329616	6
C	-0.848809	-0.090738	0.008616	6
N	-0.504129	-1.380708	-0.344474	7
C	-0.022459	0.968592	0.069256	6
C	1.449301	1.008183	-0.137974	6
C	2.289281	-0.215468	0.118606	6
O	1.962431	2.069362	-0.495094	8
H	-2.540668	1.148232	0.616976	1
H	-2.612589	-0.532337	1.160656	1
H	-2.930689	-0.130128	-0.541324	1
H	-1.297409	-1.952148	-0.632204	1
H	0.253811	-1.442558	-1.019614	1
H	-0.420079	1.954232	0.298926	1
H	1.867061	-0.821338	0.923416	1
H	3.285421	0.102112	0.442676	1
H	2.383431	-0.801107	-0.798064	1
Es	0.706916	0.949301	-0.038785	99
Es	2.953827	-0.001669	0.328912	99
Es	-1.578640	0.007131	0.165996	99
Es	-2.717983	-0.059789	-0.262870	99
Es	1.860487	0.376235	-0.006290	99
Es	1.996327	-0.622864	0.652341	99
Es	1.754080	1.623365	-0.608619	99
Es	-0.665342	-0.811869	-0.252593	99
Es	-0.414573	-1.432356	-0.057240	99
Es	-0.064391	-1.403983	-0.754501	99
Es	-2.458647	0.810595	0.521381	99
Es	1.749774	2.300852	-0.536855	99
Es	-2.313857	0.115786	0.329599	99
Es	2.332628	-0.602591	-0.502659	99
Es	-0.295530	1.625162	0.229035	99
Es	2.278551	2.051172	-0.522206	99
Es	1.962338	2.069164	-0.495027	99
Es	-0.504362	-1.380326	-0.344909	99
Es	-0.308085	0.433053	0.353886	99
Es	-0.982546	-1.703016	-0.530205	99
Es	-0.022394	0.968589	0.069239	99
Es	-2.502259	-0.328187	0.882616	99
Es	-0.848898	-0.090966	0.008581	99
Es	2.289248	-0.215454	0.118581	99
Es	-0.388295	0.569566	-0.273676	99
Es	1.804095	1.756230	-0.128047	99
Es	1.449287	1.008140	-0.137957	99
43
Properties=species:S:1:pos:R:3:Z:I:1 energy=-323.99704699078984 field_type=dipole dipole="0.000000 0.000000 0.000000" charge=0
C	-2.313909	0.115812	0.329616	6
C	-0.848809	-0.090738	0.008616	6
N	-0.504129	-1.380708	-0.344474	7
C	-0.022459	0.968592	0.069256	6
C	1.449301	1.008183	-0.137974	6
C	2.289281	-0.215468	0.118606	6
O	1.962431	2.069362	-0.495094	8
H	-2.540668	1.148232	0.616976	1
H	-2.612589	-0.532337	1.160656	1
H	-2.930689	-0.130128	-0.541324	1
H	-1.297409	-1.952148	-0.632204	1
H	0.253811	-1.442558	-1.019614	1
H	-0.420079	1.954232	0.298926	1
H	1.867061	-0.821338	0.923416	1
H	3.285421	0.102112	0.442676	1
H	2.383431	-0.801107	-0.798064	1
Es	-0.414625	-1.432575	-0.058110	99
Es	-0.982615	-1.703058	-0.530020	99
Es	-0.388550	0.568992	-0.273729	99
Es	-0.665265	-0.811642	-0.251815	99
Es	1.753530	1.624233	-0.608852	99
Es	1.750036	2.300292	-0.536126	99
Es	-2.458794	0.810606	0.521356	99
Es	-2.313853	0.115784	0.329596	99
Es	-0.064373	-1.404041	-0.754596	99
Es	2.953707	-0.001560	0.329015	99
Es	-1.578699	0.007368	0.166101	99
Es	1.996272	-0.623047	0.652317	99
Es	-0.848898	-0.090967	0.008582	99
Es	2.332818	-0.602444	-0.502721	99
Es	-2.502183	-0.328230	0.882622	99
Es	-0.022397	0.968583	0.069243	99
Es	1.860531	0.376137	-0.006308	99
Es	-0.307667	0.433471	0.354021	99
Es	0.706840	0.949347	-0.038740	99
Es	-0.295538	1.625197	0.228868	99
Es	2.289247	-0.215454	0.118579	99
Es	-2.717898	-0.059895	-0.262895	99
Es	1.803755	1.755667	-0.128215	99
Es	1.449287	1.008140	-0.137959	99
Es	1.962224	2.069099	-0.494998	99
Es	2.279245	2.051502	-0.522614	99
Es	-0.504380	-1.380237	-0.344874	99
43
Properties=species:S:1:pos:R:3:Z:I:1 energy=-323.99704699078984 field_type=dipole dipole="0.000000 0.000000 0.000000" charge=0
C	-2.313909	0.115812	0.329616	6
C	-0.848809	-0.090738	0.008616	6
N	-0.504129	-1.380708	-0.344474	7
C	-0.022459	0.968592	0.069256	6
C	1.449301	1.008183	-0.137974	6
C	2.289281	-0.215468	0.118606	6
O	1.962431	2.069362	-0.495094	8
H	-2.540668	1.148232	0.616976	1
H	-2.612589	-0.532337	1.160656	1
H	-2.930689	-0.130128	-0.541324	1
H	-1.297409	-1.952148	-0.632204	1
H	0.253811	-1.442558	-1.019614	1
H	-0.420079	1.954232	0.298926	1
H	1.867061	-0.821338	0.923416	1
H	3.285421	0.102112	0.442676	1
H	2.383431	-0.801107	-0.798064	1
Es	-0.022402	0.968573	0.069253	99
Es	-2.458675	0.810590	0.521280	99
Es	-0.295505	1.625106	0.228838	99
Es	2.289248	-0.215454	0.118578	99
Es	1.449286	1.008139	-0.137959	99
Es	-1.578788	0.007373	0.166101	99
Es	1.755025	1.622661	-0.608155	99
Es	-0.848899	-0.090969	0.008578	99
Es	1.804098	1.756771	-0.127739	99
Es	-2.717890	-0.059790	-0.262883	99
Es	-0.504370	-1.380304	-0.344907	99
Es	-0.982508	-1.703330	-0.529879	99
Es	0.706880	0.949414	-0.038687	99
Es	2.953668	-0.001628	0.329026	99
Es	1.860658	0.376141	-0.006332	99
Es	-2.502327	-0.328213	0.882690	99
Es	-0.063815	-1.404632	-0.754092	99
Es	-0.415117	-1.431516	-0.057349	99
Es	1.748548	2.298991	-0.537451	99
Es	1.996225	-0.622920	0.652362	99
Es	-0.665402	-0.811774	-0.253214	99
Es	-0.307682	0.433476	0.353952	99
Es	2.278766	2.053258	-0.522402	99
Es	-0.388525	0.568912	-0.273703	99
Es	2.332799	-0.602543	-0.502756	99
Es	1.962320	2.069150	-0.495022	99
Es	-2.313857	0.115787	0.329600	99
43
Properties=species:S:1:pos:R:3:Z:I:1 energy=-323.99704699078984 field_type=dipole dipole="0.000000 0.000000 0.000000" charge=0
C	-2.313909	0.115812	0.329616	6
C	-0.848809	-0.090738	0.008616	6
N	-0.504129	-1.380708	-0.344474	7
C	-0.022459	0.968592	0.069256	6
C	1.449301	1.008183	-0.137974	6
C	2.289281	-0.215468	0.118606	6
O	1.962431	2.069362	-0.495094	8
H	-2.540668	1.148232	0.616976	1
H	-2.612589	-0.532337	1.160656	1
H	-2.930689	-0.130128	-0.541324	1
H	-1.297409	-1.952148	-0.632204	1
H	0.253811	-1.442558	-1.019614	1
H	-0.420079	1.954232	0.298926	1
H	1.867061	-0.821338	0.923416	1
H	3.285421	0.102112	0.442676	1
H	2.383431	-0.801107	-0.798064	1
Es	-0.982575	-1.703806	-0.529479	99
Es	-0.665453	-0.812037	-0.254400	99
Es	2.289248	-0.215454	0.118578	99
Es	-0.414835	-1.430697	-0.056595	99
Es	1.754193	1.622964	-0.608361	99
Es	-2.717882	-0.059688	-0.262952	99
Es	1.860622	0.376168	-0.006296	99
Es	-0.848899	-0.090967	0.008578	99
Es	-0.388282	0.569162	-0.273771	99
Es	-0.504364	-1.380335	-0.344953	99
Es	1.996226	-0.623100	0.652295	99
Es	-2.458625	0.810537	0.521335	99
Es	1.803889	1.756847	-0.127800	99
Es	-1.578756	0.007382	0.166182	99
Es	-2.502417	-0.328226	0.882642	99
Es	2.953660	-0.001640	0.329046	99
Es	1.749522	2.299464	-0.537134	99
Es	-0.307820	0.433095	0.353663	99
Es	1.449288	1.008138	-0.137957	99
Es	-0.022396	0.968590	0.069230	99
Es	2.278849	2.052460	-0.522420	99
Es	-0.063995	-1.404698	-0.754058	99
Es	-0.295464	1.625193	0.229127	99
Es	1.962320	2.069094	-0.495006	99
Es	-2.313860	0.115787	0.329599	99
Es	0.706700	0.949406	-0.038610	99
Es	2.332866	-0.602373	-0.502756	99
43
Properties=species:S:1:pos:R:3:Z:I:1 energy=-323.99704699078984 field_type=dipole dipole="0.000000 0.000000 0.000000" charge=0
C	-2.313909	0.115812	0.329616	6
C	-0.848809	-0.090738	0.008616	6
N	-0.504129	-1.380708	-0.344474	7
C	-0.022459	0.968592	0.069256	6
C	1.449301	1.008183	-0.137974	6
C	2.289281	-0.215468	0.118606	6
O	1.962431	2.069362	-0.495094	8
H	-2.540668	1.148232	0.616976	1
H	-2.612589	-0.532337	1.160656	1
H	-2.930689	-0.130128	-0.541324	1
H	-1.297409	-1.952148	-0.632204	1
H	0.253811	-1.442558	-1.019614	1
H	-0.420079	1.954232	0.298926	1
H	1.867061	-0.821338	0.923416	1
H	3.285421	0.102112	0.442676	1
H	2.383431	-0.801107	-0.798064	1
Es	1.753930	1.623264	-0.608494	99
Es	-0.295348	1.625129	0.229139	99
Es	2.332809	-0.602550	-0.502874	99
Es	1.750379	2.300298	-0.537420	99
Es	1.962305	2.069104	-0.495005	99
Es	-2.313859	0.115787	0.329599	99
Es	-0.848897	-0.090965	0.008583	99
Es	-0.064360	-1.404400	-0.754568	99
Es	-2.502340	-0.328349	0.882635	99
Es	1.449287	1.008141	-0.137958	99
Es	-0.022396	0.968586	0.069238	99
Es	0.706715	0.949438	-0.038836	99
Es	-2.458676	0.810524	0.521409	99
Es	-0.388540	0.569013	-0.273695	99
Es	-2.717872	-0.059638	-0.262924	99
Es	-0.414360	-1.430585	-0.057168	99
Es	2.289248	-0.215454	0.118585	99
Es	-0.504342	-1.380352	-0.344879	99
Es	-1.578815	0.007552	0.166120	99
Es	-0.307674	0.433264	0.353731	99
Es	1.996334	-0.622928	0.652300	99
Es	1.803292	1.756861	-0.128004	99
Es	1.860643	0.376117	-0.006101	99
Es	2.278821	2.051301	-0.521868	99
Es	-0.982483	-1.704279	-0.528822	99
Es	-0.665659	-0.812000	-0.254041	99
Es	2.953616	-0.001610	0.329044	99
43
Properties=species:S:1:pos:R:3:Z:I:1 energy=-323.99704699078984 field_type=dipole dipole="0.000000 0.000000 0.000000" charge=0
C	-2.313909	0.115812	0.329616	6
C	-0.848809	-0.090738	0.008616	6
N	-0.504129	-1.380708	-0.344474	7
C	-0.022459	0.968592	0.069256	6
C	1.449301	1.008183	-0.137974	6
C	2.289281	-0.215468	0.118606	6
O	1.962431	2.069362	-0.495094	8
H	-2.540668	1.148232	0.616976	1
H	-2.612589	-0.532337	1.160656	1
H	-2.930689	-0.130128	-0.541324	1
H	-1.297409	-1.952148	-0.632204	1
H	0.253811	-1.442558	-1.019614	1
H	-0.420079	1.954232	0.298926	1
H	1.867061	-0.821338	0.923416	1
H	3.285421	0.102112	0.442676	1
H	2.383431	-0.801107	-0.798064	1
Es	1.754296	1.622868	-0.608523	99
Es	-1.578904	0.007576	0.166113	99
Es	1.996215	-0.622949	0.652294	99
Es	-0.307600	0.433398	0.353658	99
Es	-0.064230	-1.404446	-0.754358	99
Es	1.860723	0.376098	-0.006261	99
Es	1.750306	2.299778	-0.537506	99
Es	-2.313859	0.115786	0.329599	99
Es	2.332826	-0.602498	-0.502814	99
Es	-0.022397	0.968583	0.069245	99
Es	2.953665	-0.001619	0.329093	99
Es	-0.504365	-1.380308	-0.344894	99
Es	1.803633	1.757001	-0.127729	99
Es	-0.982426	-1.704001	-0.529224	99
Es	1.449287	1.008140	-0.137958	99
Es	-0.414541	-1.430875	-0.056913	99
Es	2.289248	-0.215454	0.118579	99
Es	-0.388493	0.568758	-0.273715	99
Es	-0.848897	-0.090966	0.008583	99
Es	-2.458678	0.810579	0.521294	99
Es	2.278318	2.052128	-0.521987	99
Es	0.706694	0.949480	-0.038631	99
Es	-0.295449	1.625136	0.229040	99
Es	-0.665602	-0.811981	-0.254108	99
Es	-2.502259	-0.328239	0.882725	99
Es	1.962167	2.069081	-0.494989	99
Es	-2.717917	-0.059789	-0.262888	99
43
Properties=species:S:1:pos:R:3:Z:I:1 energy=-323.99704699078984 field_type=dipole dipole="0.000000 0.000000 0.000000" charge=0
C	-2.313909	0.115812	0.329616	6
C	-0.848809	-0.090738	0.008616	6
N	-0.504129	-1.380708	-0.344474	7
C	-0.022459	0.968592	0.069256	6
C	1.449301	1.008183	-0.137974	6
C	2.289281	-0.215468	0.118606	6
O	1.962431	2.069362	-0.495094	8
H	-2.540668	1.148232	0.616976	1
H	-2.612589	-0.532337	1.160656	1
H	-2.930689	-0.130128	-0.541324	1
H	-1.297409	-1.952148	-0.632204	1
H	0.253811	-1.442558	-1.019614	1
H	-0.420079	1.954232	0.298926	1
H	1.867061	-0.821338	0.923416	1
H	3.285421	0.102112	0.442676	1
H	2.383431	-0.801107	-0.798064	1
Es	-0.295462	1.625161	0.228952	99
Es	-0.848898	-0.090964	0.008580	99
Es	2.289247	-0.215454	0.118576	99
Es	-0.414157	-1.431125	-0.056432	99
Es	-2.313858	0.115786	0.329599	99
Es	1.962290	2.069077	-0.494998	99
Es	1.996223	-0.622923	0.652326	99
Es	-0.307303	0.433719	0.353704	99
Es	1.860745	0.376003	-0.006218	99
Es	1.449290	1.008144	-0.137959	99
Es	2.278524	2.050984	-0.521570	99
Es	2.953685	-0.001601	0.329063	99
Es	-2.502345	-0.328230	0.882735	99
Es	-0.665607	-0.812049	-0.254329	99
Es	0.706662	0.949570	-0.038766	99
Es	-2.717848	-0.059781	-0.262947	99
Es	1.750803	2.300715	-0.537358	99
Es	1.753850	1.623307	-0.608723	99
Es	-0.064639	-1.404197	-0.754614	99
Es	-1.578970	0.007613	0.166215	99
Es	2.332785	-0.602507	-0.502840	99
Es	-0.388729	0.568325	-0.273554	99
Es	1.803232	1.756763	-0.128091	99
Es	-0.022391	0.968584	0.069269	99
Es	-0.504333	-1.380366	-0.344878	99
Es	-0.982374	-1.703872	-0.529264	99
Es	-2.458663	0.810585	0.521247	99
43
Properties=species:S:1:pos:R:3:Z:I:1 energy=-323.99704699078984 field_type=dipole dipole="0.000000 0.000000 0.000000" charge=0
C	-2.313909	0.115812	0.329616	6
C	-0.848809	-0.090738	0.008616	6
N	-0.504129	-1.380708	-0.344474	7
C	-0.022459	0.968592	0.069256	6
C	1.449301	1.008183	-0.137974	6
C	2.289281	-0.215468	0.118606	6
O	1.962431	2.069362	-0.495094	8
H	-2.540668	1.148232	0.616976	1
H	-2.612589	-0.532337	1.160656	1
H	-2.930689	-0.130128	-0.541324	1
H	-1.297409	-1.952148	-0.632204	1
H	0.253811	-1.442558	-1.019614	1
H	-0.420079	1.954232	0.298926	1
H	1.867061	-0.821338	0.923416	1
H	3.285421	0.102112	0.442676	1
H	2.383431	-0.801107	-0.798064	1
Es	1.803270	1.757194	-0.127765	99
Es	-0.414201	-1.429739	-0.055648	99
Es	-0.665972	-0.812353	-0.256058	99
Es	1.449287	1.008141	-0.137959	99
Es	2.289249	-0.215453	0.118581	99
Es	-0.504360	-1.380274	-0.344882	99
Es	1.996208	-0.623045	0.652242	99
Es	-2.458722	0.810578	0.521228	99
Es	-0.848897	-0.090967	0.008584	99
Es	-0.022397	0.968574	0.069267	99
Es	-2.717832	-0.059776	-0.262862	99
Es	2.332867	-0.602394	-0.502823	99
Es	-2.313860	0.115786	0.329600	99
Es	-0.387839	0.569459	-0.273881	99
Es	1.860718	0.376042	-0.006202	99
Es	-0.295398	1.625108	0.229266	99
Es	-2.502321	-0.328275	0.882761	99
Es	-1.578947	0.007711	0.166206	99
Es	1.962264	2.069096	-0.495001	99
Es	-0.308274	0.432647	0.353057	99
Es	-0.982191	-1.704665	-0.528523	99
Es	-0.064392	-1.404619	-0.754386	99
Es	2.278594	2.051764	-0.521815	99
Es	1.754014	1.622945	-0.608555	99
Es	0.706672	0.949525	-0.038226	99
Es	2.953673	-0.001598	0.329126	99
Es	1.750545	2.299856	-0.537603	99
43
Properties=species:S:1:pos:R:3:Z:I:1 energy=-323.99704699078984 field_type=dipole dipole="0.000000 0.000000 0.000000" charge=0
C	-2.313909	0.115812	0.329616	6
C	-0.848809	-0.090738	0.008616	6
N	-0.504129	-1.380708	-0.344474	7
C	-0.022459	0.968592	0.069256	6
C	1.449301	1.008183	-0.137974	6
C	2.289281	-0.215468	0.118606	6
O	1.962431	2.069362	-0.495094	8
H	-2.540668	1.148232	0.616976	1
H	-2.612589	-0.532337	1.160656	1
H	-2.930689	-0.130128	-0.541324	1
H	-1.297409	-1.952148	-0.632204	1
H	0.253811	-1.442558	-1.019614	1
H	-0.420079	1.954232	0.298926	1
H	1.867061	-0.821338	0.923416	1
H	3.285421	0.102112	0.442676	1
H	2.383431	-0.801107	-0.798064	1
Es	-0.295366	1.625036	0.229201	99
Es	-0.504343	-1.380359	-0.344890	99
Es	-2.458717	0.810540	0.521246	99
Es	-1.579008	0.007828	0.166196	99
Es	-2.313861	0.115787	0.329599	99
Es	1.750860	2.300014	-0.538375	99
Es	1.803722	1.758355	-0.127178	99
Es	-0.064300	-1.404520	-0.754271	99
Es	-0.665735	-0.812206	-0.255259	99
Es	2.289248	-0.215454	0.118579	99
Es	2.278215	2.051135	-0.522482	99
Es	-0.022399	0.968577	0.069254	99
Es	-2.717919	-0.059828	-0.262899	99
Es	-0.414386	-1.430091	-0.056234	99
Es	-0.982352	-1.704480	-0.528879	99
Es	-2.502230	-0.328221	0.882782	99
Es	0.706610	0.949558	-0.038444	99
Es	1.962303	2.069092	-0.495003	99
Es	-0.307796	0.433065	0.353319	99
Es	2.332807	-0.602498	-0.502795	99
Es	1.996180	-0.622912	0.652287	99
Es	-0.848898	-0.090965	0.008583	99
Es	2.953705	-0.001640	0.329102	99
Es	1.449288	1.008140	-0.137959	99
Es	1.860852	0.376071	-0.006313	99
Es	1.753507	1.622331	-0.607602	99
Es	-0.388230	0.568913	-0.273837	99
43
Properties=species:S:1:pos:R:3:Z:I:1 energy=-323.99704699078984 field_type=dipole dipole="0.000000 0.000000 0.000000" charge=0
C	-2.313909	0.115812	0.329616	6
C	-0.848809	-0.090738	0.008616	6
N	-0.504129	-1.380708	-0.344474	7
C	-0.022459	0.968592	0.069256	6
C	1.449301	1.008183	-0.137974	6
C	2.289281	-0.215468	0.118606	6
O	1.962431	2.069362	-0.495094	8
H	-2.540668	1.148232	0.616976	1
H	-2.612589	-0.532337	1.160656	1
H	-2.930689	-0.130128	-0.541324	1
H	-1.297409	-1.952148	-0.632204	1
H	0.253811	-1.442558	-1.019614	1
H	-0.420079	1.954232	0.298926	1
H	1.867061	-0.821338	0.923416	1
H	3.285421	0.102112	0.442676	1
H	2.383431	-0.801107	-0.798064	1
Es	1.860806	0.375889	-0.006270	99
Es	-0.982301	-1.704453	-0.528659	99
Es	-1.579042	0.007819	0.166250	99
Es	2.953785	-0.001559	0.329102	99
Es	1.754416	1.622316	-0.608188	99
Es	2.289248	-0.215453	0.118581	99
Es	-0.022398	0.968590	0.069239	99
Es	2.332767	-0.602391	-0.502788	99
Es	-0.388446	0.568618	-0.273713	99
Es	-0.665698	-0.812296	-0.255717	99
Es	-0.414133	-1.430033	-0.055816	99
Es	0.706543	0.949573	-0.038508	99
Es	-0.848897	-0.090965	0.008586	99
Es	2.278443	2.052879	-0.522068	99
Es	-2.313861	0.115787	0.329601	99
Es	1.962280	2.069063	-0.494994	99
Es	-0.295293	1.625131	0.229232	99
Es	-2.502376	-0.328349	0.882693	99
Es	-2.717791	-0.059672	-0.262914	99
Es	1.749769	2.299094	-0.537696	99
Es	-2.458712	0.810558	0.521312	99
Es	-0.307641	0.433326	0.353236	99
Es	1.449284	1.008138	-0.137959	99
Es	-0.064536	-1.404530	-0.754501	99
Es	1.803715	1.757556	-0.127712	99
Es	-0.504342	-1.380366	-0.344859	99
Es	1.996168	-0.623001	0.652259	99
43
Properties=species:S:1:pos:R:3:Z:I:1 energy=-323.99704699078984 field_type=dipole dipole="0.000000 0.000000 0.000000" charge=0
C	-2.313909	0.115812	0.329616	6
C	-0.848809	-0.090738	0.008616	6
N	-0.504129	-1.380708	-0.344474	7
C	-0.022459	0.968592	0.069256	6
C	1.449301	1.008183	-0.137974	6
C	2.289281	-0.215468	0.118606	6
O	1.962431	2.069362	-0.495094	8
H	-2.540668	1.148232	0.616976	1
H	-2.612589	-0.532337	1.160656	1
H	-2.930689	-0.130128	-0.541324	1
H	-1.297409	-1.952148	-0.632204	1
H	0.253811	-1.442558	-1.019614	1
H	-0.420079	1.954232	0.298926	1
H	1.867061	-0.821338	0.923416	1
H	3.285421	0.102112	0.442676	1
H	2.383431	-0.801107	-0.798064	1
Es	-0.848897	-0.090965	0.008584	99
Es	1.748738	2.297950	-0.536898	99
Es	2.953742	-0.001618	0.329173	99
Es	0.706553	0.949723	-0.038423	99
Es	-0.307355	0.433621	0.353309	99
Es	-2.502290	-0.328243	0.882716	99
Es	-0.388593	0.568207	-0.273656	99
Es	-0.665810	-0.812471	-0.256658	99
Es	2.289249	-0.215456	0.118577	99
Es	-0.982251	-1.704794	-0.528621	99
Es	1.449288	1.008139	-0.137957	99
Es	1.962313	2.069099	-0.495003	99
Es	-1.579109	0.007852	0.166199	99
Es	-2.313860	0.115785	0.329600	99
Es	1.996165	-0.622910	0.652215	99
Es	-0.414583	-1.429287	-0.055473	99
Es	-0.022409	0.968562	0.069258	99
Es	-0.063978	-1.404911	-0.753961	99
Es	1.755591	1.622645	-0.609395	99
Es	-0.504386	-1.380209	-0.344869	99
Es	2.278725	2.054851	-0.521236	99
Es	-2.717877	-0.059781	-0.262895	99
Es	-0.295392	1.625074	0.229143	99
Es	-2.458696	0.810595	0.521282	99
Es	1.860879	0.375959	-0.006124	99
Es	1.803235	1.756313	-0.128287	99
Es	2.332769	-0.602461	-0.502873	99
43
Properties=species:S:1:pos:R:3:Z:I:1 energy=-323.99704699078984 field_type=dipole dipole="0.000000 0.000000 0.000000" charge=0
C	-2.313909	0.115812	0.329616	6
C	-0.848809	-0.090738	0.008616	6
N	-0.504129	-1.380708	-0.344474	7
C	-0.022459	0.968592	0.069256	6
C	1.449301	1.008183	-0.137974	6
C	2.289281	-0.215468	0.118606	6
O	1.962431	2.069362	-0.495094	8
H	-2.540668	1.148232	0.616976	1
H	-2.612589	-0.532337	1.160656	1
H	-2.930689	-0.130128	-0.541324	1
H	-1.297409	-1.952148	-0.632204	1
H	0.253811	-1.442558	-1.019614	1
H	-0.420079	1.954232	0.298926	1
H	1.867061	-0.821338	0.923416	1
H	3.285421	0.102112	0.442676	1
H	2.383431	-0.801107	-0.798064	1
Es	-0.665635	-0.812129	-0.255357	99
Es	-0.414144	-1.430150	-0.056196	99
Es	1.996212	-0.623040	0.652210	99
Es	1.962312	2.069043	-0.494990	99
Es	-2.717948	-0.059726	-0.262930	99
Es	-0.064534	-1.404480	-0.754401	99
Es	-0.504352	-1.380332	-0.344879	99
Es	-0.388299	0.568622	-0.273731	99
Es	1.753577	1.622473	-0.608101	99
Es	-0.295277	1.625061	0.229293	99
Es	1.751289	2.300393	-0.538196	99
Es	1.860858	0.375952	-0.006136	99
Es	1.803284	1.758037	-0.127717	99
Es	-0.307693	0.433158	0.353124	99
Es	-2.458669	0.810520	0.521342	99
Es	-2.313860	0.115786	0.329601	99
Es	-0.022399	0.968579	0.069249	99
Es	2.278082	2.050965	-0.521736	99
Es	-2.502239	-0.328274	0.882731	99
Es	2.289247	-0.215455	0.118574	99
Es	-1.579171	0.007951	0.166175	99
Es	2.332810	-0.602353	-0.502845	99
Es	-0.982318	-1.704571	-0.528706	99
Es	2.953725	-0.001613	0.329134	99
Es	1.449286	1.008137	-0.137955	99
Es	0.706511	0.949677	-0.038414	99
Es	-0.848897	-0.090964	0.008584	99
