45
Properties=species:S:1:pos:R:3:Z:I:1 energy=-341.2036980298435 field_type=dipole dipole="0.000000 0.000000 0.000000" charge=0
C	-0.553877	-1.655852	1.205143	6
C	-0.520497	-1.202992	-0.247097	6
N	-0.051957	0.173118	-0.398827	7
C	-1.026977	1.223058	-0.131037	6
C	1.308763	0.376148	-0.473297	6
N	1.716863	1.661718	-0.602567	7
O	2.152053	-0.513602	-0.430487	8
H	-0.880018	-2.698592	1.268793	1
H	-1.248007	-1.048312	1.794163	1
H	0.434833	-1.577412	1.668293	1
H	-1.517327	-1.282442	-0.695007	1
H	0.138443	-1.871052	-0.813837	1
H	-1.920447	1.041038	-0.735527	1
H	-0.650597	2.221117	-0.361237	1
H	-1.292057	1.195428	0.929923	1
H	1.191483	2.230768	-1.248217	1
H	2.719323	1.727867	-0.729177	1
Es	-0.541045	-1.421982	0.486710	99
Es	-1.211832	1.206171	0.590180	99
Es	1.900727	-0.195968	-0.200665	99
Es	-0.520462	-1.202801	-0.247069	99
Es	2.034142	-0.800154	-0.371833	99
Es	2.151899	-0.513455	-0.430500	99
Es	-0.452515	0.632043	-0.271099	99
Es	2.303185	1.696212	-0.699642	99
Es	-0.248363	-0.401651	-0.309614	99
Es	-0.763929	1.893205	-0.294700	99
Es	-0.081996	-1.648343	-0.629418	99
Es	1.631320	1.705878	-0.312482	99
Es	-1.210088	-1.245847	-0.547864	99
Es	0.481216	0.263640	-0.253934	99
Es	-0.553901	-1.655843	1.205119	99
Es	0.111645	-1.600232	1.514738	99
Es	2.434107	-0.387011	-0.479926	99
Es	-1.026843	1.222928	-0.131082	99
Es	1.402314	1.985938	-0.997585	99
Es	-1.032350	-1.235540	1.603037	99
Es	-1.635299	1.095747	-0.540909	99
Es	0.106013	0.210972	-0.692337	99
Es	-0.780158	-2.365127	1.242319	99
Es	1.849622	-0.272614	-0.685695	99
Es	1.716914	1.661369	-0.603049	99
Es	-0.051768	0.173140	-0.398387	99
Es	1.308613	0.376277	-0.473294	99
Es	1.537547	1.110877	-0.617739	99
45
Properties=species:S:1:pos:R:3:Z:I:1 energy=-341.2036980298435 field_type=dipole dipole="0.000000 0.000000 0.000000" charge=0
C	-0.553877	-1.655852	1.205143	6
C	-0.520497	-1.202992	-0.247097	6
N	-0.051957	0.173118	-0.398827	7
C	-1.026977	1.223058	-0.131037	6
C	1.308763	0.376148	-0.473297	6
N	1.716863	1.661718	-0.602567	7
O	2.152053	-0.513602	-0.430487	8
H	-0.880018	-2.698592	1.268793	1
H	-1.248007	-1.048312	1.794163	1
H	0.434833	-1.577412	1.668293	1
H	-1.517327	-1.282442	-0.695007	1
H	0.138443	-1.871052	-0.813837	1
H	-1.920447	1.041038	-0.735527	1
H	-0.650597	2.221117	-0.361237	1
H	-1.292057	1.195428	0.929923	1
H	1.191483	2.230768	-1.248217	1
H	2.719323	1.727867	-0.729177	1
Es	0.111550	-1.600157	1.514914	99
Es	-0.540811	-1.422043	0.486691	99
Es	-0.248491	-0.401519	-0.309915	99
Es	2.302952	1.695616	-0.700764	99
Es	-0.452565	0.632191	-0.271356	99
Es	1.632252	1.706159	-0.312437	99
Es	-0.520463	-1.202804	-0.247069	99
Es	1.537387	1.111014	-0.616835	99
Es	-1.210112	-1.245860	-0.547847	99
Es	1.308612	0.376279	-0.473286	99
Es	-0.763935	1.893157	-0.294682	99
Es	2.435384	-0.386256	-0.475085	99
Es	-1.026846	1.222932	-0.131081	99
Es	-0.082107	-1.648303	-0.629408	99
Es	0.479100	0.263052	-0.251796	99
Es	2.033832	-0.799665	-0.370423	99
Es	-0.553903	-1.655841	1.205119	99
Es	-0.780082	-2.365133	1.242297	99
Es	-1.032485	-1.235600	1.602919	99
Es	-1.211830	1.206208	0.590176	99
Es	1.894562	-0.193409	-0.204225	99
Es	1.854842	-0.276521	-0.688495	99
Es	1.401797	1.986149	-0.997328	99
Es	0.108465	0.211304	-0.693843	99
Es	-0.051834	0.173133	-0.398437	99
Es	2.151840	-0.513387	-0.430515	99
Es	-1.635317	1.095768	-0.540935	99
Es	1.716924	1.661364	-0.603074	99
45
Properties=species:S:1:pos:R:3:Z:I:1 energy=-341.2036980298435 field_type=dipole dipole="0.000000 0.000000 0.000000" charge=0
C	-0.553877	-1.655852	1.205143	6
C	-0.520497	-1.202992	-0.247097	6
N	-0.051957	0.173118	-0.398827	7
C	-1.026977	1.223058	-0.131037	6
C	1.308763	0.376148	-0.473297	6
N	1.716863	1.661718	-0.602567	7
O	2.152053	-0.513602	-0.430487	8
H	-0.880018	-2.698592	1.268793	1
H	-1.248007	-1.048312	1.794163	1
H	0.434833	-1.577412	1.668293	1
H	-1.517327	-1.282442	-0.695007	1
H	0.138443	-1.871052	-0.813837	1
H	-1.920447	1.041038	-0.735527	1
H	-0.650597	2.221117	-0.361237	1
H	-1.292057	1.195428	0.929923	1
H	1.191483	2.230768	-1.248217	1
H	2.719323	1.727867	-0.729177	1
Es	-0.452533	0.632094	-0.271321	99
Es	1.895926	-0.192954	-0.202324	99
Es	-1.211788	1.206258	0.590175	99
Es	1.716900	1.661359	-0.603013	99
Es	1.537453	1.110891	-0.617557	99
Es	-1.635352	1.095774	-0.540898	99
Es	0.480471	0.263531	-0.253330	99
Es	1.854040	-0.276166	-0.687405	99
Es	-0.051719	0.173141	-0.398330	99
Es	-0.763960	1.893132	-0.294702	99
Es	2.302761	1.695714	-0.700858	99
Es	1.632060	1.706405	-0.311775	99
Es	-1.026842	1.222928	-0.131081	99
Es	-1.210089	-1.245856	-0.547810	99
Es	-1.032525	-1.235629	1.602796	99
Es	-0.553898	-1.655843	1.205123	99
Es	1.402138	1.985958	-0.997278	99
Es	-0.540763	-1.422201	0.486669	99
Es	0.111514	-1.599986	1.514956	99
Es	2.033547	-0.799250	-0.371214	99
Es	2.435078	-0.387439	-0.477274	99
Es	0.106736	0.210900	-0.692964	99
Es	-0.520463	-1.202802	-0.247069	99
Es	-0.082193	-1.648265	-0.629461	99
Es	1.308614	0.376276	-0.473294	99
Es	-0.780005	-2.365174	1.242439	99
Es	-0.248253	-0.401558	-0.309410	99
Es	2.151860	-0.513409	-0.430509	99
45
Properties=species:S:1:pos:R:3:Z:I:1 energy=-341.2036980298435 field_type=dipole dipole="0.000000 0.000000 0.000000" charge=0
C	-0.553877	-1.655852	1.205143	6
C	-0.520497	-1.202992	-0.247097	6
N	-0.051957	0.173118	-0.398827	7
C	-1.026977	1.223058	-0.131037	6
C	1.308763	0.376148	-0.473297	6
N	1.716863	1.661718	-0.602567	7
O	2.152053	-0.513602	-0.430487	8
H	-0.880018	-2.698592	1.268793	1
H	-1.248007	-1.048312	1.794163	1
H	0.434833	-1.577412	1.668293	1
H	-1.517327	-1.282442	-0.695007	1
H	0.138443	-1.871052	-0.813837	1
H	-1.920447	1.041038	-0.735527	1
H	-0.650597	2.221117	-0.361237	1
H	-1.292057	1.195428	0.929923	1
H	1.191483	2.230768	-1.248217	1
H	2.719323	1.727867	-0.729177	1
Es	-0.520462	-1.202800	-0.247069	99
Es	-0.553902	-1.655842	1.205119	99
Es	-0.780194	-2.365110	1.242329	99
Es	-0.763956	1.893161	-0.294635	99
Es	2.032254	-0.797684	-0.369432	99
Es	0.480375	0.263508	-0.253352	99
Es	-1.211920	1.206202	0.590149	99
Es	2.151848	-0.513395	-0.430505	99
Es	1.538516	1.111786	-0.620286	99
Es	-0.082166	-1.648240	-0.629379	99
Es	1.716910	1.661370	-0.603023	99
Es	0.106652	0.210857	-0.693410	99
Es	-0.452397	0.632044	-0.271051	99
Es	1.308612	0.376278	-0.473288	99
Es	-0.540815	-1.422047	0.486666	99
Es	-1.032342	-1.235562	1.602976	99
Es	1.893149	-0.191956	-0.205234	99
Es	2.303155	1.696402	-0.699679	99
Es	1.630904	1.703793	-0.310801	99
Es	0.111508	-1.600286	1.514887	99
Es	1.856327	-0.278051	-0.689851	99
Es	1.401849	1.987000	-0.996688	99
Es	2.436853	-0.388136	-0.473778	99
Es	-0.248169	-0.401470	-0.309129	99
Es	-1.210071	-1.245881	-0.547910	99
Es	-1.635253	1.095809	-0.540973	99
Es	-1.026843	1.222929	-0.131081	99
Es	-0.051708	0.173148	-0.398294	99
45
Properties=species:S:1:pos:R:3:Z:I:1 energy=-341.2036980298435 field_type=dipole dipole="0.000000 0.000000 0.000000" charge=0
C	-0.553877	-1.655852	1.205143	6
C	-0.520497	-1.202992	-0.247097	6
N	-0.051957	0.173118	-0.398827	7
C	-1.026977	1.223058	-0.131037	6
C	1.308763	0.376148	-0.473297	6
N	1.716863	1.661718	-0.602567	7
O	2.152053	-0.513602	-0.430487	8
H	-0.880018	-2.698592	1.268793	1
H	-1.248007	-1.048312	1.794163	1
H	0.434833	-1.577412	1.668293	1
H	-1.517327	-1.282442	-0.695007	1
H	0.138443	-1.871052	-0.813837	1
H	-1.920447	1.041038	-0.735527	1
H	-0.650597	2.221117	-0.361237	1
H	-1.292057	1.195428	0.929923	1
H	1.191483	2.230768	-1.248217	1
H	2.719323	1.727867	-0.729177	1
Es	-0.540737	-1.422106	0.486690	99
Es	2.302901	1.695913	-0.700320	99
Es	1.308610	0.376278	-0.473297	99
Es	1.894826	-0.191954	-0.203746	99
Es	2.435322	-0.388198	-0.475392	99
Es	2.032950	-0.798733	-0.370111	99
Es	1.716903	1.661319	-0.603049	99
Es	-0.248292	-0.401534	-0.309340	99
Es	-0.763879	1.893158	-0.294499	99
Es	-0.780070	-2.365137	1.242364	99
Es	2.151819	-0.513359	-0.430497	99
Es	-1.026853	1.222941	-0.131080	99
Es	-1.032410	-1.235655	1.602956	99
Es	-0.553901	-1.655843	1.205120	99
Es	-1.210046	-1.245911	-0.547909	99
Es	-1.635219	1.095916	-0.541067	99
Es	0.479622	0.263356	-0.252509	99
Es	-0.452528	0.632021	-0.271303	99
Es	-1.212020	1.206134	0.590076	99
Es	1.402080	1.986304	-0.997218	99
Es	1.855514	-0.276954	-0.689053	99
Es	1.631263	1.705186	-0.310642	99
Es	1.538200	1.111661	-0.619273	99
Es	-0.051802	0.173137	-0.398424	99
Es	-0.520462	-1.202801	-0.247069	99
Es	-0.082191	-1.648130	-0.629448	99
Es	0.107670	0.210990	-0.693613	99
Es	0.111449	-1.600170	1.514931	99
45
Properties=species:S:1:pos:R:3:Z:I:1 energy=-341.2036980298435 field_type=dipole dipole="0.000000 0.000000 0.000000" charge=0
C	-0.553877	-1.655852	1.205143	6
C	-0.520497	-1.202992	-0.247097	6
N	-0.051957	0.173118	-0.398827	7
C	-1.026977	1.223058	-0.131037	6
C	1.308763	0.376148	-0.473297	6
N	1.716863	1.661718	-0.602567	7
O	2.152053	-0.513602	-0.430487	8
H	-0.880018	-2.698592	1.268793	1
H	-1.248007	-1.048312	1.794163	1
H	0.434833	-1.577412	1.668293	1
H	-1.517327	-1.282442	-0.695007	1
H	0.138443	-1.871052	-0.813837	1
H	-1.920447	1.041038	-0.735527	1
H	-0.650597	2.221117	-0.361237	1
H	-1.292057	1.195428	0.929923	1
H	1.191483	2.230768	-1.248217	1
H	2.719323	1.727867	-0.729177	1
Es	1.852663	-0.275141	-0.688410	99
Es	-1.209962	-1.245935	-0.547912	99
Es	1.896929	-0.194416	-0.203010	99
Es	-1.635335	1.095805	-0.540879	99
Es	-1.032387	-1.235651	1.602954	99
Es	2.303024	1.696115	-0.700025	99
Es	-0.763992	1.893136	-0.294674	99
Es	-0.780062	-2.365130	1.242425	99
Es	-0.452810	0.632173	-0.271814	99
Es	-1.211818	1.206282	0.590123	99
Es	1.402178	1.986207	-0.997256	99
Es	-0.051689	0.173145	-0.398210	99
Es	1.716903	1.661358	-0.603031	99
Es	-0.082185	-1.648176	-0.629423	99
Es	-0.520465	-1.202810	-0.247070	99
Es	1.308615	0.376280	-0.473296	99
Es	-1.026848	1.222934	-0.131080	99
Es	2.151856	-0.513402	-0.430497	99
Es	1.538424	1.111812	-0.619923	99
Es	1.630818	1.704876	-0.310320	99
Es	0.111428	-1.600159	1.514923	99
Es	-0.553901	-1.655843	1.205120	99
Es	0.106828	0.210511	-0.692769	99
Es	2.034267	-0.799421	-0.370498	99
Es	-0.540830	-1.422104	0.486636	99
Es	-0.247958	-0.401520	-0.308843	99
Es	0.480315	0.263731	-0.253617	99
Es	2.434709	-0.386829	-0.476346	99
45
Properties=species:S:1:pos:R:3:Z:I:1 energy=-341.2036980298435 field_type=dipole dipole="0.000000 0.000000 0.000000" charge=0
C	-0.553877	-1.655852	1.205143	6
C	-0.520497	-1.202992	-0.247097	6
N	-0.051957	0.173118	-0.398827	7
C	-1.026977	1.223058	-0.131037	6
C	1.308763	0.376148	-0.473297	6
N	1.716863	1.661718	-0.602567	7
O	2.152053	-0.513602	-0.430487	8
H	-0.880018	-2.698592	1.268793	1
H	-1.248007	-1.048312	1.794163	1
H	0.434833	-1.577412	1.668293	1
H	-1.517327	-1.282442	-0.695007	1
H	0.138443	-1.871052	-0.813837	1
H	-1.920447	1.041038	-0.735527	1
H	-0.650597	2.221117	-0.361237	1
H	-1.292057	1.195428	0.929923	1
H	1.191483	2.230768	-1.248217	1
H	2.719323	1.727867	-0.729177	1
Es	1.630618	1.705018	-0.309865	99
Es	-0.780093	-2.365138	1.242381	99
Es	2.037501	-0.800640	-0.371902	99
Es	-0.082251	-1.648115	-0.629437	99
Es	-0.540765	-1.422096	0.486667	99
Es	-0.051733	0.173142	-0.398334	99
Es	2.151817	-0.513390	-0.430496	99
Es	2.302940	1.696065	-0.700051	99
Es	-1.211809	1.206297	0.590108	99
Es	-0.452440	0.632125	-0.271268	99
Es	-1.026846	1.222931	-0.131080	99
Es	2.432529	-0.384705	-0.477392	99
Es	0.111394	-1.600201	1.514952	99
Es	-0.248233	-0.401548	-0.309218	99
Es	-1.209958	-1.245932	-0.547936	99
Es	1.538572	1.111930	-0.620179	99
Es	1.308614	0.376277	-0.473294	99
Es	0.106669	0.210784	-0.692786	99
Es	-0.764001	1.893134	-0.294669	99
Es	-0.553901	-1.655843	1.205120	99
Es	-1.635350	1.095806	-0.540873	99
Es	-0.520462	-1.202804	-0.247069	99
Es	1.402318	1.985962	-0.997482	99
Es	1.896644	-0.195090	-0.200997	99
Es	0.480468	0.263497	-0.253636	99
Es	1.851921	-0.275373	-0.687960	99
Es	-1.032353	-1.235681	1.602974	99
Es	1.716908	1.661415	-0.603000	99
45
Properties=species:S:1:pos:R:3:Z:I:1 energy=-341.2036980298435 field_type=dipole dipole="0.000000 0.000000 0.000000" charge=0
C	-0.553877	-1.655852	1.205143	6
C	-0.520497	-1.202992	-0.247097	6
N	-0.051957	0.173118	-0.398827	7
C	-1.026977	1.223058	-0.131037	6
C	1.308763	0.376148	-0.473297	6
N	1.716863	1.661718	-0.602567	7
O	2.152053	-0.513602	-0.430487	8
H	-0.880018	-2.698592	1.268793	1
H	-1.248007	-1.048312	1.794163	1
H	0.434833	-1.577412	1.668293	1
H	-1.517327	-1.282442	-0.695007	1
H	0.138443	-1.871052	-0.813837	1
H	-1.920447	1.041038	-0.735527	1
H	-0.650597	2.221117	-0.361237	1
H	-1.292057	1.195428	0.929923	1
H	1.191483	2.230768	-1.248217	1
H	2.719323	1.727867	-0.729177	1
Es	1.630728	1.705026	-0.309685	99
Es	-1.032366	-1.235735	1.602918	99
Es	1.716906	1.661369	-0.603015	99
Es	-0.452246	0.632091	-0.270851	99
Es	-0.540835	-1.422143	0.486760	99
Es	0.111476	-1.600143	1.514987	99
Es	-0.520463	-1.202804	-0.247069	99
Es	-1.026848	1.222934	-0.131080	99
Es	-0.780097	-2.365128	1.242381	99
Es	2.151829	-0.513372	-0.430495	99
Es	-0.082371	-1.648123	-0.629465	99
Es	2.302912	1.695968	-0.700289	99
Es	-1.209882	-1.245912	-0.547908	99
Es	0.106298	0.210638	-0.693341	99
Es	0.480487	0.263473	-0.253906	99
Es	1.538574	1.112035	-0.620217	99
Es	1.894818	-0.193680	-0.201461	99
Es	-0.248037	-0.401397	-0.308759	99
Es	-1.635342	1.095807	-0.540876	99
Es	-0.553901	-1.655843	1.205120	99
Es	1.402234	1.986011	-0.997366	99
Es	1.308614	0.376277	-0.473295	99
Es	-1.211827	1.206309	0.590081	99
Es	2.434640	-0.387766	-0.475213	99
Es	-0.764010	1.893140	-0.294657	99
Es	2.033609	-0.799349	-0.373380	99
Es	1.855513	-0.275006	-0.688249	99
Es	-0.051697	0.173149	-0.398391	99
45
Properties=species:S:1:pos:R:3:Z:I:1 energy=-341.2036980298435 field_type=dipole dipole="0.000000 0.000000 0.000000" charge=0
C	-0.553877	-1.655852	1.205143	6
C	-0.520497	-1.202992	-0.247097	6
N	-0.051957	0.173118	-0.398827	7
C	-1.026977	1.223058	-0.131037	6
C	1.308763	0.376148	-0.473297	6
N	1.716863	1.661718	-0.602567	7
O	2.152053	-0.513602	-0.430487	8
H	-0.880018	-2.698592	1.268793	1
H	-1.248007	-1.048312	1.794163	1
H	0.434833	-1.577412	1.668293	1
H	-1.517327	-1.282442	-0.695007	1
H	0.138443	-1.871052	-0.813837	1
H	-1.920447	1.041038	-0.735527	1
H	-0.650597	2.221117	-0.361237	1
H	-1.292057	1.195428	0.929923	1
H	1.191483	2.230768	-1.248217	1
H	2.719323	1.727867	-0.729177	1
Es	2.151860	-0.513377	-0.430500	99
Es	-0.553901	-1.655843	1.205120	99
Es	-0.780048	-2.365103	1.242425	99
Es	1.852545	-0.274533	-0.687724	99
Es	2.033605	-0.798724	-0.371825	99
Es	1.308613	0.376276	-0.473295	99
Es	2.434760	-0.388294	-0.477439	99
Es	-0.248100	-0.401428	-0.308837	99
Es	-0.082338	-1.648125	-0.629482	99
Es	-0.764021	1.893127	-0.294650	99
Es	0.107345	0.210801	-0.693757	99
Es	-1.032350	-1.235740	1.602990	99
Es	-1.635349	1.095824	-0.540868	99
Es	-0.452312	0.632074	-0.271084	99
Es	-1.211822	1.206320	0.590075	99
Es	0.111368	-1.600189	1.514974	99
Es	-1.026849	1.222935	-0.131080	99
Es	2.303019	1.696223	-0.699915	99
Es	0.479684	0.263335	-0.253078	99
Es	1.716775	1.661095	-0.602869	99
Es	-0.520463	-1.202805	-0.247069	99
Es	1.630642	1.704643	-0.309963	99
Es	-0.540797	-1.422125	0.486627	99
Es	-1.209903	-1.245891	-0.547908	99
Es	1.402167	1.986277	-0.997167	99
Es	1.897614	-0.194254	-0.201290	99
Es	1.538779	1.112194	-0.620686	99
Es	-0.051807	0.173136	-0.398445	99
45
Properties=species:S:1:pos:R:3:Z:I:1 energy=-341.2036980298435 field_type=dipole dipole="0.000000 0.000000 0.000000" charge=0
C	-0.553877	-1.655852	1.205143	6
C	-0.520497	-1.202992	-0.247097	6
N	-0.051957	0.173118	-0.398827	7
C	-1.026977	1.223058	-0.131037	6
C	1.308763	0.376148	-0.473297	6
N	1.716863	1.661718	-0.602567	7
O	2.152053	-0.513602	-0.430487	8
H	-0.880018	-2.698592	1.268793	1
H	-1.248007	-1.048312	1.794163	1
H	0.434833	-1.577412	1.668293	1
H	-1.517327	-1.282442	-0.695007	1
H	0.138443	-1.871052	-0.813837	1
H	-1.920447	1.041038	-0.735527	1
H	-0.650597	2.221117	-0.361237	1
H	-1.292057	1.195428	0.929923	1
H	1.191483	2.230768	-1.248217	1
H	2.719323	1.727867	-0.729177	1
Es	-0.248146	-0.401443	-0.308880	99
Es	2.434760	-0.388264	-0.477679	99
Es	1.716898	1.661355	-0.603010	99
Es	1.402147	1.986543	-0.996832	99
Es	1.897946	-0.194945	-0.200549	99
Es	-1.032270	-1.235805	1.602955	99
Es	-0.520464	-1.202806	-0.247070	99
Es	-0.051833	0.173134	-0.398443	99
Es	0.480150	0.263360	-0.253637	99
Es	0.106989	0.210626	-0.692974	99
Es	1.851907	-0.274112	-0.687567	99
Es	2.151792	-0.513323	-0.430496	99
Es	1.539121	1.112569	-0.622133	99
Es	-1.211825	1.206346	0.590088	99
Es	2.034003	-0.798489	-0.372426	99
Es	0.111435	-1.600209	1.515023	99
Es	-0.764002	1.893120	-0.294682	99
Es	-0.082356	-1.648143	-0.629467	99
Es	-0.540858	-1.422077	0.486579	99
Es	-0.780126	-2.365053	1.242449	99
Es	-1.209887	-1.245931	-0.547878	99
Es	2.303144	1.696409	-0.699787	99
Es	1.308615	0.376275	-0.473305	99
Es	-0.452388	0.632175	-0.271290	99
Es	-1.635332	1.095847	-0.540843	99
Es	-1.026851	1.222936	-0.131081	99
Es	1.630044	1.703576	-0.308907	99
Es	-0.553902	-1.655843	1.205121	99
45
Properties=species:S:1:pos:R:3:Z:I:1 energy=-341.2036980298435 field_type=dipole dipole="0.000000 0.000000 0.000000" charge=0
C	-0.553877	-1.655852	1.205143	6
C	-0.520497	-1.202992	-0.247097	6
N	-0.051957	0.173118	-0.398827	7
C	-1.026977	1.223058	-0.131037	6
C	1.308763	0.376148	-0.473297	6
N	1.716863	1.661718	-0.602567	7
O	2.152053	-0.513602	-0.430487	8
H	-0.880018	-2.698592	1.268793	1
H	-1.248007	-1.048312	1.794163	1
H	0.434833	-1.577412	1.668293	1
H	-1.517327	-1.282442	-0.695007	1
H	0.138443	-1.871052	-0.813837	1
H	-1.920447	1.041038	-0.735527	1
H	-0.650597	2.221117	-0.361237	1
H	-1.292057	1.195428	0.929923	1
H	1.191483	2.230768	-1.248217	1
H	2.719323	1.727867	-0.729177	1
Es	-0.764042	1.893120	-0.294644	99
Es	2.302547	1.695742	-0.701250	99
Es	-0.553901	-1.655843	1.205121	99
Es	-1.032313	-1.235776	1.603000	99
Es	-1.211822	1.206350	0.590049	99
Es	-0.051706	0.173146	-0.398322	99
Es	1.716895	1.661337	-0.603022	99
Es	-1.026850	1.222935	-0.131080	99
Es	0.111329	-1.600194	1.514989	99
Es	-0.247946	-0.401374	-0.308391	99
Es	-1.209849	-1.245895	-0.547924	99
Es	2.151847	-0.513395	-0.430495	99
Es	1.308614	0.376277	-0.473295	99
Es	-0.780051	-2.365102	1.242450	99
Es	1.630894	1.703094	-0.307314	99
Es	0.105991	0.210495	-0.693286	99
Es	2.033497	-0.798451	-0.371528	99
Es	-1.635354	1.095838	-0.540852	99
Es	1.539288	1.112963	-0.623067	99
Es	-0.082392	-1.648086	-0.629498	99
Es	-0.520463	-1.202806	-0.247069	99
Es	2.434822	-0.388543	-0.476828	99
Es	-0.452141	0.632082	-0.270741	99
Es	1.853168	-0.275001	-0.688332	99
Es	1.401765	1.987318	-0.995985	99
Es	-0.540803	-1.422141	0.486618	99
Es	1.897041	-0.193767	-0.201621	99
Es	0.480650	0.263507	-0.254404	99
