41
Properties=species:S:1:pos:R:3:Z:I:1 energy=-359.8575284792324 field_type=dipole dipole="0.000000 0.000000 0.000000" charge=0
C	-0.451188	-1.991179	0.034695	6
C	0.683562	-1.018909	0.291545	6
N	0.189602	0.332071	0.427305	7
C	0.284842	1.272481	-0.571035	6
O	0.831532	1.137161	-1.653895	8
C	-0.365848	2.599651	-0.228985	6
O	-1.051648	2.721591	0.777295	8
H	-0.067438	-3.011049	-0.063345	1
H	-0.990868	-1.735309	-0.884245	1
H	-1.173278	-1.975029	0.859165	1
H	1.411202	-1.067769	-0.523785	1
H	1.193752	-1.272879	1.224665	1
H	-0.337828	0.600042	1.256115	1
H	-0.156398	3.409122	-0.945495	1
Es	1.026275	-1.192319	0.931156	99
Es	-0.121061	0.473205	0.909742	99
Es	0.951630	0.852537	-1.696639	99
Es	-0.939191	-1.974836	0.601915	99
Es	-0.223828	3.140099	-0.712681	99
Es	0.831384	1.137209	-1.653619	99
Es	0.857917	1.262496	-1.184565	99
Es	0.427398	1.110656	-1.379407	99
Es	-0.998286	2.605776	0.269724	99
Es	0.683446	-1.018730	0.291573	99
Es	0.111319	-1.500608	0.162530	99
Es	0.811890	1.400982	-1.815111	99
Es	-0.451168	-1.991169	0.034708	99
Es	-0.041433	1.936313	-0.390632	99
Es	-0.183904	-2.682581	-0.029490	99
Es	-1.065250	2.451012	0.937508	99
Es	0.452621	0.647799	0.311863	99
Es	0.390236	-0.231991	0.364630	99
Es	1.169353	-1.046854	-0.252779	99
Es	0.008141	0.557976	0.006967	99
Es	-1.051456	2.721548	0.777034	99
Es	-0.591914	2.739916	0.534213	99
Es	-1.170655	3.005365	0.818022	99
Es	0.284800	1.272442	-0.570899	99
Es	-0.365859	2.599595	-0.228966	99
Es	0.189550	0.332101	0.427191	99
Es	-0.812885	-1.813245	-0.588300	99
41
Properties=species:S:1:pos:R:3:Z:I:1 energy=-359.8575284792324 field_type=dipole dipole="0.000000 0.000000 0.000000" charge=0
C	-0.451188	-1.991179	0.034695	6
C	0.683562	-1.018909	0.291545	6
N	0.189602	0.332071	0.427305	7
C	0.284842	1.272481	-0.571035	6
O	0.831532	1.137161	-1.653895	8
C	-0.365848	2.599651	-0.228985	6
O	-1.051648	2.721591	0.777295	8
H	-0.067438	-3.011049	-0.063345	1
H	-0.990868	-1.735309	-0.884245	1
H	-1.173278	-1.975029	0.859165	1
H	1.411202	-1.067769	-0.523785	1
H	1.193752	-1.272879	1.224665	1
H	-0.337828	0.600042	1.256115	1
H	-0.156398	3.409122	-0.945495	1
Es	0.189555	0.332116	0.427189	99
Es	0.857997	1.263046	-1.184068	99
Es	0.390889	-0.231991	0.364608	99
Es	0.831413	1.137183	-1.653656	99
Es	-0.184021	-2.682671	-0.029511	99
Es	0.007387	0.555968	0.008893	99
Es	-0.041395	1.936354	-0.390570	99
Es	0.952102	0.851882	-1.698246	99
Es	0.427652	1.111280	-1.379887	99
Es	0.452820	0.649876	0.309867	99
Es	-1.051501	2.721544	0.777094	99
Es	-1.066386	2.452066	0.939475	99
Es	-0.939386	-1.974685	0.601887	99
Es	0.683446	-1.018728	0.291573	99
Es	-0.365855	2.599596	-0.228958	99
Es	-0.591870	2.739734	0.534565	99
Es	-0.451166	-1.991168	0.034708	99
Es	0.811060	1.400458	-1.813480	99
Es	1.026449	-1.192316	0.931106	99
Es	-0.223895	3.140105	-0.712746	99
Es	0.284799	1.272440	-0.570900	99
Es	-1.170108	3.005788	0.815360	99
Es	-0.121094	0.473175	0.909786	99
Es	0.111290	-1.500825	0.162599	99
Es	1.169185	-1.046858	-0.252708	99
Es	-0.997678	2.604473	0.270018	99
Es	-0.812621	-1.813149	-0.588310	99
41
Properties=species:S:1:pos:R:3:Z:I:1 energy=-359.8575284792324 field_type=dipole dipole="0.000000 0.000000 0.000000" charge=0
C	-0.451188	-1.991179	0.034695	6
C	0.683562	-1.018909	0.291545	6
N	0.189602	0.332071	0.427305	7
C	0.284842	1.272481	-0.571035	6
O	0.831532	1.137161	-1.653895	8
C	-0.365848	2.599651	-0.228985	6
O	-1.051648	2.721591	0.777295	8
H	-0.067438	-3.011049	-0.063345	1
H	-0.990868	-1.735309	-0.884245	1
H	-1.173278	-1.975029	0.859165	1
H	1.411202	-1.067769	-0.523785	1
H	1.193752	-1.272879	1.224665	1
H	-0.337828	0.600042	1.256115	1
H	-0.156398	3.409122	-0.945495	1
Es	-0.041540	1.936343	-0.390611	99
Es	-1.051444	2.721586	0.776983	99
Es	-0.939238	-1.974724	0.601840	99
Es	0.950821	0.852311	-1.696560	99
Es	0.010866	0.561971	0.003992	99
Es	-0.223871	3.140112	-0.712720	99
Es	0.284803	1.272442	-0.570901	99
Es	-0.997941	2.605440	0.269704	99
Es	0.858626	1.262799	-1.184334	99
Es	1.026433	-1.192293	0.931091	99
Es	0.811765	1.400402	-1.815634	99
Es	-1.171553	3.004658	0.817869	99
Es	-0.365856	2.599598	-0.228950	99
Es	0.452042	0.644657	0.316187	99
Es	0.683452	-1.018736	0.291574	99
Es	-0.812787	-1.813190	-0.588325	99
Es	0.427724	1.111097	-1.379198	99
Es	-0.591838	2.740933	0.534407	99
Es	0.831367	1.137199	-1.653566	99
Es	0.189555	0.332105	0.427200	99
Es	1.169232	-1.046755	-0.252664	99
Es	0.389673	-0.232229	0.364283	99
Es	-1.064749	2.451025	0.937540	99
Es	-0.184040	-2.682662	-0.029448	99
Es	0.111334	-1.500826	0.162519	99
Es	-0.122600	0.472599	0.908703	99
Es	-0.451167	-1.991168	0.034708	99
41
Properties=species:S:1:pos:R:3:Z:I:1 energy=-359.8575284792324 field_type=dipole dipole="0.000000 0.000000 0.000000" charge=0
C	-0.451188	-1.991179	0.034695	6
C	0.683562	-1.018909	0.291545	6
N	0.189602	0.332071	0.427305	7
C	0.284842	1.272481	-0.571035	6
O	0.831532	1.137161	-1.653895	8
C	-0.365848	2.599651	-0.228985	6
O	-1.051648	2.721591	0.777295	8
H	-0.067438	-3.011049	-0.063345	1
H	-0.990868	-1.735309	-0.884245	1
H	-1.173278	-1.975029	0.859165	1
H	1.411202	-1.067769	-0.523785	1
H	1.193752	-1.272879	1.224665	1
H	-0.337828	0.600042	1.256115	1
H	-0.156398	3.409122	-0.945495	1
Es	-1.064973	2.451054	0.937829	99
Es	0.189518	0.332116	0.427168	99
Es	0.427344	1.111720	-1.378018	99
Es	-0.041510	1.936265	-0.390609	99
Es	0.452835	0.648858	0.311621	99
Es	-1.051448	2.721540	0.777011	99
Es	0.390685	-0.232010	0.364808	99
Es	0.831376	1.137175	-1.653568	99
Es	1.169285	-1.046911	-0.252663	99
Es	-0.121629	0.472962	0.909110	99
Es	0.008091	0.557265	0.007560	99
Es	0.859516	1.263341	-1.185434	99
Es	-0.939221	-1.974872	0.601812	99
Es	-0.592132	2.740470	0.534204	99
Es	0.950604	0.851749	-1.696913	99
Es	0.111363	-1.500685	0.162664	99
Es	-0.223856	3.140168	-0.712693	99
Es	-0.812847	-1.813199	-0.588257	99
Es	-0.184003	-2.682616	-0.029536	99
Es	-0.365853	2.599597	-0.228957	99
Es	0.683448	-1.018727	0.291572	99
Es	1.026352	-1.192249	0.931087	99
Es	-1.170900	3.004944	0.817808	99
Es	0.811533	1.399871	-1.815361	99
Es	-0.998142	2.605591	0.269630	99
Es	-0.451168	-1.991168	0.034708	99
Es	0.284802	1.272441	-0.570895	99
41
Properties=species:S:1:pos:R:3:Z:I:1 energy=-359.8575284792324 field_type=dipole dipole="0.000000 0.000000 0.000000" charge=0
C	-0.451188	-1.991179	0.034695	6
C	0.683562	-1.018909	0.291545	6
N	0.189602	0.332071	0.427305	7
C	0.284842	1.272481	-0.571035	6
O	0.831532	1.137161	-1.653895	8
C	-0.365848	2.599651	-0.228985	6
O	-1.051648	2.721591	0.777295	8
H	-0.067438	-3.011049	-0.063345	1
H	-0.990868	-1.735309	-0.884245	1
H	-1.173278	-1.975029	0.859165	1
H	1.411202	-1.067769	-0.523785	1
H	1.193752	-1.272879	1.224665	1
H	-0.337828	0.600042	1.256115	1
H	-0.156398	3.409122	-0.945495	1
Es	0.427356	1.111419	-1.380304	99
Es	0.389797	-0.232244	0.364407	99
Es	0.452550	0.646503	0.313869	99
Es	-0.041456	1.936347	-0.390543	99
Es	0.831373	1.137191	-1.653573	99
Es	0.812129	1.400045	-1.814565	99
Es	1.169242	-1.046767	-0.252550	99
Es	-0.592320	2.739936	0.533965	99
Es	-1.065237	2.449772	0.936691	99
Es	0.683449	-1.018733	0.291574	99
Es	0.009371	0.559837	0.005771	99
Es	0.284791	1.272437	-0.570901	99
Es	-0.812800	-1.813214	-0.588276	99
Es	0.111292	-1.500772	0.162548	99
Es	0.951379	0.852192	-1.697114	99
Es	0.189548	0.332103	0.427199	99
Es	-0.451167	-1.991168	0.034708	99
Es	-0.223859	3.140186	-0.712712	99
Es	-0.939268	-1.974873	0.601791	99
Es	-1.169389	3.004361	0.819953	99
Es	-0.365849	2.599598	-0.228955	99
Es	1.026426	-1.192273	0.931048	99
Es	-0.999171	2.608008	0.268852	99
Es	-1.051457	2.721548	0.777023	99
Es	-0.183986	-2.682610	-0.029518	99
Es	-0.121731	0.472906	0.909047	99
Es	0.858054	1.262957	-1.183744	99
41
Properties=species:S:1:pos:R:3:Z:I:1 energy=-359.8575284792324 field_type=dipole dipole="0.000000 0.000000 0.000000" charge=0
C	-0.451188	-1.991179	0.034695	6
C	0.683562	-1.018909	0.291545	6
N	0.189602	0.332071	0.427305	7
C	0.284842	1.272481	-0.571035	6
O	0.831532	1.137161	-1.653895	8
C	-0.365848	2.599651	-0.228985	6
O	-1.051648	2.721591	0.777295	8
H	-0.067438	-3.011049	-0.063345	1
H	-0.990868	-1.735309	-0.884245	1
H	-1.173278	-1.975029	0.859165	1
H	1.411202	-1.067769	-0.523785	1
H	1.193752	-1.272879	1.224665	1
H	-0.337828	0.600042	1.256115	1
H	-0.156398	3.409122	-0.945495	1
Es	1.169227	-1.046761	-0.252540	99
Es	0.452937	0.648080	0.312097	99
Es	0.189619	0.332111	0.427249	99
Es	0.427281	1.111670	-1.380579	99
Es	0.831361	1.137221	-1.653584	99
Es	-0.041466	1.936375	-0.390538	99
Es	-1.172040	3.003994	0.819444	99
Es	-0.591912	2.741351	0.534591	99
Es	-1.064096	2.450471	0.936200	99
Es	-0.939293	-1.974840	0.601749	99
Es	0.858366	1.262162	-1.183314	99
Es	-1.051438	2.721490	0.777022	99
Es	1.026453	-1.192254	0.931012	99
Es	-0.998020	2.606332	0.269263	99
Es	0.812702	1.400347	-1.814422	99
Es	0.111326	-1.500783	0.162558	99
Es	0.683449	-1.018733	0.291573	99
Es	0.284800	1.272441	-0.570899	99
Es	0.389997	-0.232165	0.364578	99
Es	-0.223903	3.140186	-0.712733	99
Es	-0.451167	-1.991168	0.034708	99
Es	0.950576	0.852373	-1.697398	99
Es	-0.184030	-2.682606	-0.029461	99
Es	0.008247	0.558072	0.007120	99
Es	-0.121277	0.473003	0.909225	99
Es	-0.365852	2.599600	-0.228944	99
Es	-0.812779	-1.813275	-0.588288	99
41
Properties=species:S:1:pos:R:3:Z:I:1 energy=-359.8575284792324 field_type=dipole dipole="0.000000 0.000000 0.000000" charge=0
C	-0.451188	-1.991179	0.034695	6
C	0.683562	-1.018909	0.291545	6
N	0.189602	0.332071	0.427305	7
C	0.284842	1.272481	-0.571035	6
O	0.831532	1.137161	-1.653895	8
C	-0.365848	2.599651	-0.228985	6
O	-1.051648	2.721591	0.777295	8
H	-0.067438	-3.011049	-0.063345	1
H	-0.990868	-1.735309	-0.884245	1
H	-1.173278	-1.975029	0.859165	1
H	1.411202	-1.067769	-0.523785	1
H	1.193752	-1.272879	1.224665	1
H	-0.337828	0.600042	1.256115	1
H	-0.156398	3.409122	-0.945495	1
Es	-0.223973	3.140213	-0.712768	99
Es	0.683449	-1.018733	0.291573	99
Es	-0.812749	-1.813222	-0.588225	99
Es	0.810583	1.400381	-1.814901	99
Es	0.389226	-0.232410	0.364203	99
Es	-0.041572	1.936392	-0.390588	99
Es	0.951581	0.853268	-1.697585	99
Es	0.111362	-1.500825	0.162562	99
Es	-0.184103	-2.682679	-0.029504	99
Es	-1.169888	3.005061	0.817266	99
Es	0.010571	0.561902	0.004288	99
Es	0.189571	0.332109	0.427211	99
Es	-1.067043	2.451090	0.937473	99
Es	0.831382	1.137200	-1.653603	99
Es	0.427652	1.109927	-1.378723	99
Es	0.859150	1.262982	-1.184456	99
Es	-0.365854	2.599597	-0.228956	99
Es	-0.997558	2.606598	0.269516	99
Es	0.452297	0.644739	0.315879	99
Es	-0.939302	-1.974806	0.601704	99
Es	1.026482	-1.192259	0.930982	99
Es	-0.591379	2.739340	0.535229	99
Es	1.169203	-1.046734	-0.252509	99
Es	-1.051524	2.721530	0.777114	99
Es	0.284801	1.272441	-0.570899	99
Es	-0.122130	0.472761	0.908700	99
Es	-0.451167	-1.991169	0.034708	99
41
Properties=species:S:1:pos:R:3:Z:I:1 energy=-359.8575284792324 field_type=dipole dipole="0.000000 0.000000 0.000000" charge=0
C	-0.451188	-1.991179	0.034695	6
C	0.683562	-1.018909	0.291545	6
N	0.189602	0.332071	0.427305	7
C	0.284842	1.272481	-0.571035	6
O	0.831532	1.137161	-1.653895	8
C	-0.365848	2.599651	-0.228985	6
O	-1.051648	2.721591	0.777295	8
H	-0.067438	-3.011049	-0.063345	1
H	-0.990868	-1.735309	-0.884245	1
H	-1.173278	-1.975029	0.859165	1
H	1.411202	-1.067769	-0.523785	1
H	1.193752	-1.272879	1.224665	1
H	-0.337828	0.600042	1.256115	1
H	-0.156398	3.409122	-0.945495	1
Es	-0.812809	-1.813282	-0.588313	99
Es	-0.223858	3.140220	-0.712749	99
Es	-0.041603	1.936360	-0.390493	99
Es	0.859227	1.263278	-1.184625	99
Es	-0.365850	2.599598	-0.228959	99
Es	-0.122085	0.472595	0.908505	99
Es	0.812101	1.399555	-1.815701	99
Es	0.950650	0.852644	-1.696292	99
Es	-1.051455	2.721546	0.777020	99
Es	0.831393	1.137200	-1.653626	99
Es	-0.998211	2.604830	0.269657	99
Es	0.189433	0.332065	0.427151	99
Es	-0.939260	-1.974844	0.601703	99
Es	-1.066450	2.452268	0.939886	99
Es	0.389914	-0.232246	0.364538	99
Es	-0.591771	2.740228	0.534457	99
Es	1.169174	-1.046728	-0.252445	99
Es	-0.451167	-1.991169	0.034708	99
Es	0.683451	-1.018735	0.291573	99
Es	0.010148	0.561351	0.004431	99
Es	0.426982	1.111138	-1.379024	99
Es	0.284797	1.272438	-0.570898	99
Es	-1.169622	3.004758	0.815511	99
Es	0.111276	-1.500842	0.162550	99
Es	-0.184042	-2.682611	-0.029421	99
Es	1.026517	-1.192244	0.930942	99
Es	0.452190	0.645322	0.315603	99
41
Properties=species:S:1:pos:R:3:Z:I:1 energy=-359.8575284792324 field_type=dipole dipole="0.000000 0.000000 0.000000" charge=0
C	-0.451188	-1.991179	0.034695	6
C	0.683562	-1.018909	0.291545	6
N	0.189602	0.332071	0.427305	7
C	0.284842	1.272481	-0.571035	6
O	0.831532	1.137161	-1.653895	8
C	-0.365848	2.599651	-0.228985	6
O	-1.051648	2.721591	0.777295	8
H	-0.067438	-3.011049	-0.063345	1
H	-0.990868	-1.735309	-0.884245	1
H	-1.173278	-1.975029	0.859165	1
H	1.411202	-1.067769	-0.523785	1
H	1.193752	-1.272879	1.224665	1
H	-0.337828	0.600042	1.256115	1
H	-0.156398	3.409122	-0.945495	1
Es	-0.591673	2.741125	0.533729	99
Es	1.026467	-1.192184	0.930922	99
Es	0.683449	-1.018732	0.291573	99
Es	1.169245	-1.046732	-0.252446	99
Es	-1.170963	3.004196	0.817461	99
Es	0.859698	1.262491	-1.184639	99
Es	0.010320	0.561737	0.004206	99
Es	-0.998768	2.605012	0.269939	99
Es	0.427026	1.111029	-1.378638	99
Es	0.831363	1.137203	-1.653557	99
Es	-0.939332	-1.974844	0.601615	99
Es	-0.041492	1.936419	-0.390470	99
Es	0.389550	-0.232374	0.364425	99
Es	0.950740	0.852878	-1.698092	99
Es	-0.812736	-1.813285	-0.588221	99
Es	0.284803	1.272441	-0.570898	99
Es	0.811547	1.400146	-1.814321	99
Es	-0.122120	0.472657	0.908462	99
Es	0.111275	-1.500808	0.162618	99
Es	-1.064709	2.451754	0.938321	99
Es	-0.365855	2.599596	-0.228951	99
Es	0.452188	0.644933	0.315890	99
Es	-1.051452	2.721525	0.777028	99
Es	-0.184052	-2.682682	-0.029463	99
Es	-0.451169	-1.991168	0.034708	99
Es	0.189604	0.332116	0.427228	99
Es	-0.223887	3.140243	-0.712738	99
41
Properties=species:S:1:pos:R:3:Z:I:1 energy=-359.8575284792324 field_type=dipole dipole="0.000000 0.000000 0.000000" charge=0
C	-0.451188	-1.991179	0.034695	6
C	0.683562	-1.018909	0.291545	6
N	0.189602	0.332071	0.427305	7
C	0.284842	1.272481	-0.571035	6
O	0.831532	1.137161	-1.653895	8
C	-0.365848	2.599651	-0.228985	6
O	-1.051648	2.721591	0.777295	8
H	-0.067438	-3.011049	-0.063345	1
H	-0.990868	-1.735309	-0.884245	1
H	-1.173278	-1.975029	0.859165	1
H	1.411202	-1.067769	-0.523785	1
H	1.193752	-1.272879	1.224665	1
H	-0.337828	0.600042	1.256115	1
H	-0.156398	3.409122	-0.945495	1
Es	0.284801	1.272441	-0.570899	99
Es	-0.939335	-1.974892	0.601690	99
Es	-0.184072	-2.682613	-0.029520	99
Es	-1.051449	2.721493	0.777035	99
Es	0.189475	0.332115	0.427124	99
Es	-0.812762	-1.813320	-0.588186	99
Es	1.026527	-1.192214	0.930933	99
Es	-1.170618	3.004248	0.818351	99
Es	0.452770	0.648676	0.311635	99
Es	0.007813	0.557475	0.007504	99
Es	0.427854	1.108905	-1.376655	99
Es	0.111329	-1.500820	0.162491	99
Es	0.683451	-1.018735	0.291573	99
Es	-0.365851	2.599598	-0.228958	99
Es	0.860635	1.262685	-1.185562	99
Es	0.952100	0.853974	-1.700091	99
Es	-1.065664	2.450783	0.937118	99
Es	0.831378	1.137197	-1.653600	99
Es	-0.997925	2.606645	0.269221	99
Es	-0.041510	1.936442	-0.390516	99
Es	0.808474	1.400952	-1.813309	99
Es	-0.223971	3.140269	-0.712751	99
Es	-0.591843	2.740428	0.534815	99
Es	1.169177	-1.046694	-0.252374	99
Es	-0.121201	0.472824	0.909215	99
Es	-0.451167	-1.991168	0.034708	99
Es	0.390650	-0.232002	0.364698	99
