41
Properties=species:S:1:pos:R:3:Z:I:1 energy=-359.7993028903527 field_type=dipole dipole="0.000000 0.000000 0.000000" charge=0
C	-0.846187	2.331046	1.690656	6
C	-0.743497	0.966436	1.086306	6
N	0.122113	0.718126	0.162306	7
O	0.004033	-0.629434	-0.227064	8
C	0.902353	-0.916214	-1.227464	6
C	0.755083	-2.359684	-1.609964	6
O	1.717503	-0.158984	-1.739364	8
H	-0.684347	2.253606	2.769116	1
H	-1.852657	2.720296	1.515406	1
H	-0.108627	3.010256	1.255996	1
H	-1.438567	0.197626	1.465176	1
H	1.103143	-2.994654	-0.792504	1
H	1.358343	-2.561234	-2.499163	1
H	-0.288687	-2.577184	-1.849444	1
Es	0.103935	-0.802079	-0.014130	99
Es	0.121644	0.717689	0.162571	99
Es	1.717084	0.125221	-1.629089	99
Es	-0.787710	1.640634	1.379262	99
Es	0.902161	-0.916160	-1.227261	99
Es	1.603546	-0.483832	-1.383141	99
Es	-1.522734	2.577921	1.569014	99
Es	0.755076	-2.359621	-1.609931	99
Es	-0.445260	0.892247	0.353897	99
Es	0.356431	-0.698099	-0.604066	99
Es	-0.743514	0.966471	1.086324	99
Es	0.984144	-2.768027	-1.057322	99
Es	0.004281	-0.629186	-0.227254	99
Es	-0.250942	-0.669382	-0.366540	99
Es	-1.211402	0.451034	1.342265	99
Es	0.057298	-0.058324	-0.064705	99
Es	0.817479	-1.637956	-1.412394	99
Es	-0.846200	2.330963	1.690637	99
Es	0.374982	0.920476	-0.005306	99
Es	1.258427	-0.349887	-1.731494	99
Es	0.055828	-2.495539	-1.760571	99
Es	-0.738805	2.265077	2.410390	99
Es	-0.054836	0.740714	0.759880	99
Es	1.867970	-0.320117	-1.950153	99
Es	1.159193	-2.492724	-2.202036	99
Es	-0.354861	2.782508	1.400753	99
Es	1.717303	-0.159170	-1.739242	99
41
Properties=species:S:1:pos:R:3:Z:I:1 energy=-359.7993028903527 field_type=dipole dipole="0.000000 0.000000 0.000000" charge=0
C	-0.846187	2.331046	1.690656	6
C	-0.743497	0.966436	1.086306	6
N	0.122113	0.718126	0.162306	7
O	0.004033	-0.629434	-0.227064	8
C	0.902353	-0.916214	-1.227464	6
C	0.755083	-2.359684	-1.609964	6
O	1.717503	-0.158984	-1.739364	8
H	-0.684347	2.253606	2.769116	1
H	-1.852657	2.720296	1.515406	1
H	-0.108627	3.010256	1.255996	1
H	-1.438567	0.197626	1.465176	1
H	1.103143	-2.994654	-0.792504	1
H	1.358343	-2.561234	-2.499163	1
H	-0.288687	-2.577184	-1.849444	1
Es	1.717240	-0.159177	-1.739181	99
Es	0.902161	-0.916160	-1.227261	99
Es	0.755075	-2.359620	-1.609929	99
Es	-0.743509	0.966469	1.086331	99
Es	0.057106	-0.058133	-0.065074	99
Es	0.055799	-2.495142	-1.760413	99
Es	-0.787689	1.640723	1.379271	99
Es	-0.055420	0.740578	0.759748	99
Es	-0.738853	2.265123	2.410473	99
Es	0.121662	0.717706	0.162581	99
Es	-0.354894	2.782500	1.400752	99
Es	0.356060	-0.697746	-0.603995	99
Es	0.004271	-0.629207	-0.227233	99
Es	0.817789	-1.638087	-1.412297	99
Es	0.104792	-0.802049	-0.014278	99
Es	1.868124	-0.319463	-1.951186	99
Es	1.715807	0.124852	-1.629558	99
Es	-1.522631	2.577915	1.568970	99
Es	-0.251072	-0.669952	-0.366363	99
Es	-1.211339	0.451020	1.342267	99
Es	1.604646	-0.483461	-1.382775	99
Es	-0.846200	2.330962	1.690637	99
Es	1.159104	-2.492893	-2.202250	99
Es	-0.445120	0.892271	0.353709	99
Es	1.258516	-0.350528	-1.730406	99
Es	0.375151	0.920504	-0.004789	99
Es	0.983943	-2.768156	-1.057392	99
41
Properties=species:S:1:pos:R:3:Z:I:1 energy=-359.7993028903527 field_type=dipole dipole="0.000000 0.000000 0.000000" charge=0
C	-0.846187	2.331046	1.690656	6
C	-0.743497	0.966436	1.086306	6
N	0.122113	0.718126	0.162306	7
O	0.004033	-0.629434	-0.227064	8
C	0.902353	-0.916214	-1.227464	6
C	0.755083	-2.359684	-1.609964	6
O	1.717503	-0.158984	-1.739364	8
H	-0.684347	2.253606	2.769116	1
H	-1.852657	2.720296	1.515406	1
H	-0.108627	3.010256	1.255996	1
H	-1.438567	0.197626	1.465176	1
H	1.103143	-2.994654	-0.792504	1
H	1.358343	-2.561234	-2.499163	1
H	-0.288687	-2.577184	-1.849444	1
Es	1.715236	0.124751	-1.629986	99
Es	1.159157	-2.492772	-2.202001	99
Es	0.057469	-0.058229	-0.064456	99
Es	0.755077	-2.359621	-1.609929	99
Es	1.869646	-0.320044	-1.950051	99
Es	1.258781	-0.350829	-1.731693	99
Es	0.984020	-2.768144	-1.057478	99
Es	-0.846200	2.330963	1.690637	99
Es	0.902165	-0.916161	-1.227260	99
Es	-1.211361	0.451019	1.342255	99
Es	1.717283	-0.159181	-1.739230	99
Es	-0.055240	0.740720	0.759742	99
Es	-0.445064	0.892261	0.353787	99
Es	0.004294	-0.629216	-0.227236	99
Es	0.121659	0.717707	0.162586	99
Es	-0.738818	2.265148	2.410447	99
Es	-1.522671	2.577974	1.568963	99
Es	1.603350	-0.482442	-1.382157	99
Es	-0.787640	1.640746	1.379275	99
Es	-0.247940	-0.667090	-0.369793	99
Es	-0.354904	2.782440	1.400778	99
Es	0.055706	-2.495349	-1.760616	99
Es	0.817812	-1.638057	-1.412229	99
Es	-0.743507	0.966468	1.086327	99
Es	0.374827	0.920461	-0.004813	99
Es	0.357391	-0.698304	-0.602704	99
Es	0.099993	-0.804368	-0.012805	99
41
Properties=species:S:1:pos:R:3:Z:I:1 energy=-359.7993028903527 field_type=dipole dipole="0.000000 0.000000 0.000000" charge=0
C	-0.846187	2.331046	1.690656	6
C	-0.743497	0.966436	1.086306	6
N	0.122113	0.718126	0.162306	7
O	0.004033	-0.629434	-0.227064	8
C	0.902353	-0.916214	-1.227464	6
C	0.755083	-2.359684	-1.609964	6
O	1.717503	-0.158984	-1.739364	8
H	-0.684347	2.253606	2.769116	1
H	-1.852657	2.720296	1.515406	1
H	-0.108627	3.010256	1.255996	1
H	-1.438567	0.197626	1.465176	1
H	1.103143	-2.994654	-0.792504	1
H	1.358343	-2.561234	-2.499163	1
H	-0.288687	-2.577184	-1.849444	1
Es	0.817624	-1.638147	-1.412503	99
Es	-0.055248	0.740778	0.759669	99
Es	0.355637	-0.697811	-0.604537	99
Es	-1.211342	0.451013	1.342270	99
Es	0.056578	-0.057819	-0.065021	99
Es	1.717271	-0.159163	-1.739208	99
Es	1.604838	-0.483554	-1.383034	99
Es	1.159212	-2.492721	-2.201985	99
Es	0.984134	-2.768029	-1.057315	99
Es	0.055688	-2.495434	-1.760630	99
Es	0.374651	0.920405	-0.004676	99
Es	0.004262	-0.629241	-0.227214	99
Es	-0.846199	2.330960	1.690643	99
Es	1.869383	-0.317995	-1.951832	99
Es	0.121687	0.717694	0.162563	99
Es	-0.354879	2.782504	1.400769	99
Es	1.258071	-0.350416	-1.730514	99
Es	0.755077	-2.359619	-1.609929	99
Es	-0.250398	-0.670582	-0.365453	99
Es	-0.444999	0.892291	0.353793	99
Es	-0.787562	1.640917	1.379286	99
Es	0.105124	-0.801886	-0.014849	99
Es	-0.743508	0.966469	1.086332	99
Es	0.902165	-0.916160	-1.227262	99
Es	1.714789	0.123422	-1.628411	99
Es	-0.738822	2.265068	2.410438	99
Es	-1.522714	2.577906	1.568969	99
41
Properties=species:S:1:pos:R:3:Z:I:1 energy=-359.7993028903527 field_type=dipole dipole="0.000000 0.000000 0.000000" charge=0
C	-0.846187	2.331046	1.690656	6
C	-0.743497	0.966436	1.086306	6
N	0.122113	0.718126	0.162306	7
O	0.004033	-0.629434	-0.227064	8
C	0.902353	-0.916214	-1.227464	6
C	0.755083	-2.359684	-1.609964	6
O	1.717503	-0.158984	-1.739364	8
H	-0.684347	2.253606	2.769116	1
H	-1.852657	2.720296	1.515406	1
H	-0.108627	3.010256	1.255996	1
H	-1.438567	0.197626	1.465176	1
H	1.103143	-2.994654	-0.792504	1
H	1.358343	-2.561234	-2.499163	1
H	-0.288687	-2.577184	-1.849444	1
Es	0.055684	-2.495348	-1.760598	99
Es	-0.055451	0.740896	0.759627	99
Es	0.004357	-0.629198	-0.227203	99
Es	-0.743506	0.966468	1.086330	99
Es	-0.354891	2.782519	1.400779	99
Es	-0.787563	1.640908	1.379356	99
Es	0.902164	-0.916160	-1.227262	99
Es	1.602351	-0.484719	-1.383749	99
Es	0.121652	0.717687	0.162582	99
Es	0.056644	-0.057742	-0.064805	99
Es	1.869718	-0.318374	-1.950862	99
Es	0.374647	0.920182	-0.004302	99
Es	0.103746	-0.802488	-0.014718	99
Es	1.716288	0.123615	-1.626892	99
Es	1.717240	-0.159215	-1.739205	99
Es	-1.522676	2.577886	1.568940	99
Es	-0.444944	0.892556	0.353508	99
Es	0.755075	-2.359621	-1.609931	99
Es	0.817689	-1.638282	-1.412528	99
Es	-1.211296	0.450922	1.342231	99
Es	1.159219	-2.492736	-2.202048	99
Es	0.984141	-2.768012	-1.057205	99
Es	-0.846201	2.330962	1.690637	99
Es	-0.738864	2.265109	2.410460	99
Es	0.355951	-0.698011	-0.604361	99
Es	1.258654	-0.348966	-1.732384	99
Es	-0.249310	-0.669987	-0.366038	99
41
Properties=species:S:1:pos:R:3:Z:I:1 energy=-359.7993028903527 field_type=dipole dipole="0.000000 0.000000 0.000000" charge=0
C	-0.846187	2.331046	1.690656	6
C	-0.743497	0.966436	1.086306	6
N	0.122113	0.718126	0.162306	7
O	0.004033	-0.629434	-0.227064	8
C	0.902353	-0.916214	-1.227464	6
C	0.755083	-2.359684	-1.609964	6
O	1.717503	-0.158984	-1.739364	8
H	-0.684347	2.253606	2.769116	1
H	-1.852657	2.720296	1.515406	1
H	-0.108627	3.010256	1.255996	1
H	-1.438567	0.197626	1.465176	1
H	1.103143	-2.994654	-0.792504	1
H	1.358343	-2.561234	-2.499163	1
H	-0.288687	-2.577184	-1.849444	1
Es	0.817600	-1.638321	-1.412718	99
Es	-0.444975	0.892376	0.353961	99
Es	-0.743503	0.966467	1.086327	99
Es	1.715836	0.124069	-1.629427	99
Es	-0.738835	2.265163	2.410436	99
Es	-0.251970	-0.672517	-0.362453	99
Es	0.108425	-0.800637	-0.016623	99
Es	1.868561	-0.319126	-1.951048	99
Es	1.258350	-0.350030	-1.730766	99
Es	0.121651	0.717683	0.162569	99
Es	-1.522696	2.577903	1.568954	99
Es	0.755077	-2.359621	-1.609930	99
Es	-0.787584	1.640932	1.379353	99
Es	-0.054969	0.740951	0.759584	99
Es	1.604290	-0.483408	-1.382501	99
Es	1.159242	-2.492761	-2.202014	99
Es	0.354014	-0.697306	-0.605997	99
Es	0.055566	-2.495439	-1.760561	99
Es	1.717295	-0.159174	-1.739236	99
Es	-0.354937	2.782499	1.400785	99
Es	0.902173	-0.916165	-1.227260	99
Es	0.056740	-0.057695	-0.064962	99
Es	0.984240	-2.767855	-1.057189	99
Es	0.004217	-0.629304	-0.227199	99
Es	0.374208	0.920277	-0.004516	99
Es	-0.846200	2.330962	1.690637	99
Es	-1.211297	0.450927	1.342154	99
41
Properties=species:S:1:pos:R:3:Z:I:1 energy=-359.7993028903527 field_type=dipole dipole="0.000000 0.000000 0.000000" charge=0
C	-0.846187	2.331046	1.690656	6
C	-0.743497	0.966436	1.086306	6
N	0.122113	0.718126	0.162306	7
O	0.004033	-0.629434	-0.227064	8
C	0.902353	-0.916214	-1.227464	6
C	0.755083	-2.359684	-1.609964	6
O	1.717503	-0.158984	-1.739364	8
H	-0.684347	2.253606	2.769116	1
H	-1.852657	2.720296	1.515406	1
H	-0.108627	3.010256	1.255996	1
H	-1.438567	0.197626	1.465176	1
H	1.103143	-2.994654	-0.792504	1
H	1.358343	-2.561234	-2.499163	1
H	-0.288687	-2.577184	-1.849444	1
Es	1.716631	0.124163	-1.630708	99
Es	-0.787668	1.641068	1.379293	99
Es	0.004256	-0.629238	-0.227227	99
Es	-0.055220	0.740971	0.759614	99
Es	0.984319	-2.767833	-1.057262	99
Es	0.354428	-0.697761	-0.605267	99
Es	-0.354902	2.782485	1.400772	99
Es	-0.743505	0.966468	1.086330	99
Es	0.902172	-0.916163	-1.227254	99
Es	0.056932	-0.057448	-0.064588	99
Es	-1.211268	0.450896	1.342152	99
Es	0.107724	-0.800380	-0.017308	99
Es	1.717306	-0.159160	-1.739238	99
Es	-0.444712	0.892382	0.353884	99
Es	-0.251990	-0.672697	-0.362912	99
Es	-0.738790	2.265065	2.410450	99
Es	1.258296	-0.349660	-1.731799	99
Es	0.055557	-2.495501	-1.760446	99
Es	0.121660	0.717709	0.162587	99
Es	0.755077	-2.359621	-1.609930	99
Es	0.374213	0.920245	-0.004419	99
Es	1.603161	-0.482463	-1.381558	99
Es	0.817645	-1.638331	-1.412652	99
Es	1.159185	-2.492740	-2.202087	99
Es	-1.522678	2.577956	1.569009	99
Es	1.868891	-0.320526	-1.949711	99
Es	-0.846200	2.330964	1.690637	99
