38
Properties=species:S:1:pos:R:3:Z:I:1 energy=-358.603855999804 field_type=dipole dipole="0.000000 0.000000 0.000000" charge=0
C	-0.010653	-2.143522	0.296027	6
O	-0.877163	-1.049752	0.016777	8
C	-0.298963	0.147458	-0.064433	6
C	-0.799163	1.399567	-0.311843	6
C	0.330057	2.234278	-0.261673	6
N	1.449737	1.554328	-0.002593	7
O	1.049237	0.230188	0.122357	8
H	-0.616092	-3.053482	0.333377	1
H	0.476057	-2.019252	1.269647	1
H	0.735748	-2.264512	-0.496723	1
H	-1.829023	1.661008	-0.499603	1
H	0.390217	3.303698	-0.401313	1
Es	0.318881	-2.053835	0.953167	99
Es	-0.526002	-1.419839	0.119796	99
Es	-0.799153	1.399529	-0.311826	99
Es	-0.876738	-1.049601	0.016979	99
Es	0.945126	1.857887	0.169830	99
Es	1.814429	1.619306	0.042397	99
Es	0.494400	-2.219568	-0.240312	99
Es	1.048827	0.230502	0.122347	99
Es	0.359266	2.949896	-0.356530	99
Es	1.449122	1.554124	-0.002656	99
Es	-0.010836	-2.143300	0.295969	99
Es	-1.047072	-0.994479	0.239741	99
Es	-1.486072	1.579495	-0.437759	99
Es	1.026109	1.780713	-0.386206	99
Es	0.523523	0.217009	0.110564	99
Es	-0.427614	-2.754121	0.319544	99
Es	1.165511	0.066458	0.343234	99
Es	-0.298758	0.147103	-0.064352	99
Es	1.014148	0.176774	-0.132850	99
Es	-0.976353	-1.062691	-0.252577	99
Es	0.330093	2.234285	-0.261667	99
Es	-0.606450	-0.598209	-0.005229	99
Es	-0.515877	0.885069	-0.512575	99
Es	1.175439	0.781232	0.077582	99
Es	-0.271175	1.859405	-0.297097	99
Es	-0.605819	0.964590	0.089612	99
38
Properties=species:S:1:pos:R:3:Z:I:1 energy=-358.603855999804 field_type=dipole dipole="0.000000 0.000000 0.000000" charge=0
C	-0.010653	-2.143522	0.296027	6
O	-0.877163	-1.049752	0.016777	8
C	-0.298963	0.147458	-0.064433	6
C	-0.799163	1.399567	-0.311843	6
C	0.330057	2.234278	-0.261673	6
N	1.449737	1.554328	-0.002593	7
O	1.049237	0.230188	0.122357	8
H	-0.616092	-3.053482	0.333377	1
H	0.476057	-2.019252	1.269647	1
H	0.735748	-2.264512	-0.496723	1
H	-1.829023	1.661008	-0.499603	1
H	0.390217	3.303698	-0.401313	1
Es	-0.606041	0.962408	0.089578	99
Es	0.945197	1.858123	0.170055	99
Es	-0.515243	0.887221	-0.513336	99
Es	1.175652	0.781139	0.077129	99
Es	-0.010834	-2.143306	0.295970	99
Es	-0.427577	-2.754125	0.319546	99
Es	0.494389	-2.219558	-0.240311	99
Es	-0.876789	-1.049665	0.016823	99
Es	-0.298759	0.147105	-0.064350	99
Es	1.814339	1.619290	0.041926	99
Es	1.048905	0.230494	0.122189	99
Es	0.524555	0.218063	0.112141	99
Es	0.330093	2.234282	-0.261668	99
Es	-1.054018	-0.997617	0.236136	99
Es	-1.486026	1.579518	-0.437554	99
Es	1.449119	1.554120	-0.002656	99
Es	0.318891	-2.053870	0.953136	99
Es	-0.607292	-0.597584	-0.000950	99
Es	1.018004	0.170403	-0.136720	99
Es	-0.526253	-1.419934	0.121081	99
Es	-0.968384	-1.059964	-0.254351	99
Es	-0.271506	1.859507	-0.296423	99
Es	1.160509	0.071591	0.346264	99
Es	1.025820	1.780706	-0.386031	99
Es	0.359356	2.949855	-0.356669	99
Es	-0.799152	1.399527	-0.311830	99
38
Properties=species:S:1:pos:R:3:Z:I:1 energy=-358.603855999804 field_type=dipole dipole="0.000000 0.000000 0.000000" charge=0
C	-0.010653	-2.143522	0.296027	6
O	-0.877163	-1.049752	0.016777	8
C	-0.298963	0.147458	-0.064433	6
C	-0.799163	1.399567	-0.311843	6
C	0.330057	2.234278	-0.261673	6
N	1.449737	1.554328	-0.002593	7
O	1.049237	0.230188	0.122357	8
H	-0.616092	-3.053482	0.333377	1
H	0.476057	-2.019252	1.269647	1
H	0.735748	-2.264512	-0.496723	1
H	-1.829023	1.661008	-0.499603	1
H	0.390217	3.303698	-0.401313	1
Es	-0.517736	0.879350	-0.510602	99
Es	1.026885	1.781108	-0.385000	99
Es	-1.044794	-0.993169	0.241055	99
Es	0.330093	2.234284	-0.261663	99
Es	-0.525824	-1.420080	0.119353	99
Es	0.494397	-2.219545	-0.240244	99
Es	-0.298759	0.147106	-0.064362	99
Es	-0.604018	0.970940	0.091056	99
Es	0.546406	0.198723	-0.021195	99
Es	1.814265	1.619333	0.041738	99
Es	-1.485878	1.579486	-0.438149	99
Es	1.449139	1.554113	-0.002652	99
Es	0.927605	0.252974	0.355905	99
Es	0.944218	1.857963	0.170650	99
Es	-0.978921	-1.063579	-0.251151	99
Es	-0.427573	-2.754147	0.319484	99
Es	-0.606427	-0.598352	-0.007728	99
Es	-0.271176	1.858902	-0.299802	99
Es	-0.876740	-1.049620	0.016898	99
Es	-0.799151	1.399528	-0.311845	99
Es	1.224037	0.011843	0.011699	99
Es	-0.010833	-2.143303	0.295970	99
Es	1.048907	0.230482	0.122242	99
Es	1.180536	0.777371	0.051105	99
Es	0.359416	2.949896	-0.356806	99
Es	0.318882	-2.053878	0.953167	99
38
Properties=species:S:1:pos:R:3:Z:I:1 energy=-358.603855999804 field_type=dipole dipole="0.000000 0.000000 0.000000" charge=0
C	-0.010653	-2.143522	0.296027	6
O	-0.877163	-1.049752	0.016777	8
C	-0.298963	0.147458	-0.064433	6
C	-0.799163	1.399567	-0.311843	6
C	0.330057	2.234278	-0.261673	6
N	1.449737	1.554328	-0.002593	7
O	1.049237	0.230188	0.122357	8
H	-0.616092	-3.053482	0.333377	1
H	0.476057	-2.019252	1.269647	1
H	0.735748	-2.264512	-0.496723	1
H	-1.829023	1.661008	-0.499603	1
H	0.390217	3.303698	-0.401313	1
Es	-0.799152	1.399529	-0.311832	99
Es	-0.975169	-1.062521	-0.251313	99
Es	1.180721	0.777405	0.051471	99
Es	0.318909	-2.053871	0.953131	99
Es	0.549006	0.198147	-0.025555	99
Es	1.449120	1.554127	-0.002656	99
Es	0.359486	2.949929	-0.356827	99
Es	1.048915	0.230460	0.122234	99
Es	-0.427567	-2.754150	0.319525	99
Es	-0.606546	-0.598255	-0.006756	99
Es	1.225306	0.011752	0.014986	99
Es	1.026742	1.781378	-0.384775	99
Es	0.923530	0.253379	0.356607	99
Es	-0.518108	0.877562	-0.510141	99
Es	-1.485860	1.579471	-0.438065	99
Es	-0.271203	1.858779	-0.300628	99
Es	-0.298759	0.147109	-0.064357	99
Es	-0.603455	0.972827	0.091201	99
Es	0.944345	1.857933	0.170798	99
Es	-0.010832	-2.143305	0.295971	99
Es	0.494377	-2.219571	-0.240246	99
Es	-0.876707	-1.049631	0.016709	99
Es	-0.526107	-1.420389	0.120299	99
Es	-1.048262	-0.993981	0.239498	99
Es	0.330093	2.234284	-0.261669	99
Es	1.814134	1.619335	0.041516	99
38
Properties=species:S:1:pos:R:3:Z:I:1 energy=-358.603855999804 field_type=dipole dipole="0.000000 0.000000 0.000000" charge=0
C	-0.010653	-2.143522	0.296027	6
O	-0.877163	-1.049752	0.016777	8
C	-0.298963	0.147458	-0.064433	6
C	-0.799163	1.399567	-0.311843	6
C	0.330057	2.234278	-0.261673	6
N	1.449737	1.554328	-0.002593	7
O	1.049237	0.230188	0.122357	8
H	-0.616092	-3.053482	0.333377	1
H	0.476057	-2.019252	1.269647	1
H	0.735748	-2.264512	-0.496723	1
H	-1.829023	1.661008	-0.499603	1
H	0.390217	3.303698	-0.401313	1
Es	-0.427553	-2.754151	0.319507	99
Es	-0.972778	-1.061721	-0.252086	99
Es	1.449118	1.554138	-0.002658	99
Es	0.359510	2.949930	-0.356843	99
Es	-0.606706	-0.598260	-0.005523	99
Es	-0.876828	-1.049652	0.016824	99
Es	0.494382	-2.219570	-0.240216	99
Es	-0.271508	1.858874	-0.299702	99
Es	-0.526197	-1.420416	0.120722	99
Es	1.048868	0.230474	0.122167	99
Es	0.318893	-2.053902	0.953121	99
Es	0.330095	2.234282	-0.261670	99
Es	-0.799151	1.399526	-0.311838	99
Es	0.927941	0.252376	0.356766	99
Es	0.944298	1.858104	0.170974	99
Es	0.546759	0.198314	-0.021816	99
Es	1.813905	1.619300	0.041261	99
Es	-0.010831	-2.143307	0.295971	99
Es	1.180889	0.777332	0.051056	99
Es	-1.050284	-0.994689	0.238521	99
Es	1.026386	1.781576	-0.384949	99
Es	-1.485826	1.579494	-0.437928	99
Es	-0.517351	0.879727	-0.511126	99
Es	1.223542	0.012632	0.011675	99
Es	-0.298758	0.147111	-0.064359	99
Es	-0.603862	0.970208	0.091275	99
38
Properties=species:S:1:pos:R:3:Z:I:1 energy=-358.603855999804 field_type=dipole dipole="0.000000 0.000000 0.000000" charge=0
C	-0.010653	-2.143522	0.296027	6
O	-0.877163	-1.049752	0.016777	8
C	-0.298963	0.147458	-0.064433	6
C	-0.799163	1.399567	-0.311843	6
C	0.330057	2.234278	-0.261673	6
N	1.449737	1.554328	-0.002593	7
O	1.049237	0.230188	0.122357	8
H	-0.616092	-3.053482	0.333377	1
H	0.476057	-2.019252	1.269647	1
H	0.735748	-2.264512	-0.496723	1
H	-1.829023	1.661008	-0.499603	1
H	0.390217	3.303698	-0.401313	1
Es	-0.876776	-1.049649	0.016849	99
Es	1.449117	1.554124	-0.002656	99
Es	-0.271822	1.858895	-0.298840	99
Es	-0.516608	0.882286	-0.511797	99
Es	-0.606263	-0.598696	-0.009428	99
Es	-1.485834	1.579507	-0.437856	99
Es	1.813725	1.619375	0.041704	99
Es	0.915391	0.258292	0.351477	99
Es	0.359605	2.949993	-0.356825	99
Es	-0.427538	-2.754169	0.319528	99
Es	-0.525914	-1.421085	0.118355	99
Es	0.944243	1.858270	0.170475	99
Es	1.229437	0.007967	0.026358	99
Es	0.330095	2.234282	-0.261669	99
Es	-0.010831	-2.143307	0.295971	99
Es	-0.298760	0.147109	-0.064356	99
Es	-0.799154	1.399532	-0.311836	99
Es	0.494370	-2.219580	-0.240199	99
Es	0.318917	-2.053879	0.953106	99
Es	-0.604218	0.967733	0.091166	99
Es	-1.042111	-0.991640	0.242128	99
Es	1.048906	0.230449	0.122231	99
Es	1.181811	0.777094	0.050610	99
Es	1.026934	1.781448	-0.384888	99
Es	-0.981854	-1.063660	-0.249479	99
Es	0.552086	0.197041	-0.031001	99
38
Properties=species:S:1:pos:R:3:Z:I:1 energy=-358.603855999804 field_type=dipole dipole="0.000000 0.000000 0.000000" charge=0
C	-0.010653	-2.143522	0.296027	6
O	-0.877163	-1.049752	0.016777	8
C	-0.298963	0.147458	-0.064433	6
C	-0.799163	1.399567	-0.311843	6
C	0.330057	2.234278	-0.261673	6
N	1.449737	1.554328	-0.002593	7
O	1.049237	0.230188	0.122357	8
H	-0.616092	-3.053482	0.333377	1
H	0.476057	-2.019252	1.269647	1
H	0.735748	-2.264512	-0.496723	1
H	-1.829023	1.661008	-0.499603	1
H	0.390217	3.303698	-0.401313	1
Es	1.025485	1.781098	-0.385883	99
Es	-0.272152	1.859134	-0.296740	99
Es	1.176277	0.781267	0.076373	99
Es	-0.970783	-1.060448	-0.252164	99
Es	-1.485842	1.579536	-0.437660	99
Es	-0.607146	-0.597834	-0.003664	99
Es	-0.876762	-1.049647	0.016851	99
Es	1.813656	1.619562	0.042175	99
Es	-0.514845	0.885656	-0.513495	99
Es	0.359561	2.950100	-0.356622	99
Es	1.148713	0.080325	0.354055	99
Es	0.330094	2.234282	-0.261667	99
Es	0.318936	-2.053882	0.953036	99
Es	-0.427560	-2.754239	0.319528	99
Es	-0.526283	-1.421049	0.120787	99
Es	0.494349	-2.219538	-0.240160	99
Es	-0.605328	0.963727	0.090448	99
Es	1.031802	0.162692	-0.133145	99
Es	0.944452	1.858544	0.169315	99
Es	-0.799151	1.399525	-0.311833	99
Es	-0.298760	0.147110	-0.064353	99
Es	0.523082	0.216176	0.101482	99
Es	-0.010831	-2.143307	0.295971	99
Es	1.449119	1.554132	-0.002656	99
Es	1.048888	0.230489	0.122322	99
Es	-1.052015	-0.995680	0.236828	99
38
Properties=species:S:1:pos:R:3:Z:I:1 energy=-358.603855999804 field_type=dipole dipole="0.000000 0.000000 0.000000" charge=0
C	-0.010653	-2.143522	0.296027	6
O	-0.877163	-1.049752	0.016777	8
C	-0.298963	0.147458	-0.064433	6
C	-0.799163	1.399567	-0.311843	6
C	0.330057	2.234278	-0.261673	6
N	1.449737	1.554328	-0.002593	7
O	1.049237	0.230188	0.122357	8
H	-0.616092	-3.053482	0.333377	1
H	0.476057	-2.019252	1.269647	1
H	0.735748	-2.264512	-0.496723	1
H	-1.829023	1.661008	-0.499603	1
H	0.390217	3.303698	-0.401313	1
Es	-0.298760	0.147110	-0.064354	99
Es	1.188666	0.046099	0.317560	99
Es	0.945176	1.858653	0.169160	99
Es	1.026201	1.780945	-0.386032	99
Es	-1.053976	-0.996118	0.235443	99
Es	-0.427524	-2.754193	0.319531	99
Es	-0.010830	-2.143309	0.295971	99
Es	-0.526452	-1.421059	0.121865	99
Es	-0.272432	1.859064	-0.296680	99
Es	0.527861	0.219042	0.132336	99
Es	-0.799150	1.399524	-0.311834	99
Es	-0.607375	-0.597665	-0.003158	99
Es	1.813383	1.619635	0.042291	99
Es	0.359648	2.950072	-0.356518	99
Es	-0.968544	-1.060215	-0.252466	99
Es	1.048914	0.230470	0.122286	99
Es	-0.605311	0.964071	0.090348	99
Es	1.449127	1.554120	-0.002653	99
Es	0.984486	0.194004	-0.132053	99
Es	0.318953	-2.053901	0.953065	99
Es	1.177683	0.781205	0.081243	99
Es	-0.876724	-1.049612	0.016951	99
Es	0.494348	-2.219563	-0.240192	99
Es	-1.485792	1.579576	-0.437706	99
Es	-0.514715	0.885492	-0.513609	99
Es	0.330094	2.234283	-0.261667	99
38
Properties=species:S:1:pos:R:3:Z:I:1 energy=-358.603855999804 field_type=dipole dipole="0.000000 0.000000 0.000000" charge=0
C	-0.010653	-2.143522	0.296027	6
O	-0.877163	-1.049752	0.016777	8
C	-0.298963	0.147458	-0.064433	6
C	-0.799163	1.399567	-0.311843	6
C	0.330057	2.234278	-0.261673	6
N	1.449737	1.554328	-0.002593	7
O	1.049237	0.230188	0.122357	8
H	-0.616092	-3.053482	0.333377	1
H	0.476057	-2.019252	1.269647	1
H	0.735748	-2.264512	-0.496723	1
H	-1.829023	1.661008	-0.499603	1
H	0.390217	3.303698	-0.401313	1
Es	0.359703	2.950079	-0.356841	99
Es	-0.603331	0.970957	0.091752	99
Es	-0.517050	0.879128	-0.511074	99
Es	0.330095	2.234282	-0.261669	99
Es	1.813428	1.619521	0.041487	99
Es	-0.298760	0.147110	-0.064356	99
Es	-1.052480	-0.996004	0.236054	99
Es	0.910272	0.263170	0.343862	99
Es	0.553367	0.195492	-0.033876	99
Es	-0.970011	-1.059891	-0.251910	99
Es	-0.526434	-1.421481	0.120945	99
Es	-1.485735	1.579487	-0.438018	99
Es	1.026752	1.781763	-0.384620	99
Es	-0.799149	1.399523	-0.311837	99
Es	1.048163	0.230740	0.121737	99
Es	1.233135	0.004242	0.038421	99
Es	-0.607363	-0.597645	-0.003441	99
Es	-0.272022	1.858582	-0.300028	99
Es	0.944243	1.858317	0.170451	99
Es	-0.010830	-2.143309	0.295971	99
Es	1.182874	0.776859	0.049558	99
Es	0.494362	-2.219587	-0.240154	99
Es	0.318933	-2.053911	0.953046	99
Es	-0.876815	-1.049631	0.016781	99
Es	1.449120	1.554133	-0.002657	99
Es	-0.427511	-2.754196	0.319542	99
38
Properties=species:S:1:pos:R:3:Z:I:1 energy=-358.603855999804 field_type=dipole dipole="0.000000 0.000000 0.000000" charge=0
C	-0.010653	-2.143522	0.296027	6
O	-0.877163	-1.049752	0.016777	8
C	-0.298963	0.147458	-0.064433	6
C	-0.799163	1.399567	-0.311843	6
C	0.330057	2.234278	-0.261673	6
N	1.449737	1.554328	-0.002593	7
O	1.049237	0.230188	0.122357	8
H	-0.616092	-3.053482	0.333377	1
H	0.476057	-2.019252	1.269647	1
H	0.735748	-2.264512	-0.496723	1
H	-1.829023	1.661008	-0.499603	1
H	0.390217	3.303698	-0.401313	1
Es	-0.799149	1.399522	-0.311837	99
Es	-0.010830	-2.143309	0.295972	99
Es	0.944261	1.858322	0.170442	99
Es	-1.485716	1.579475	-0.438033	99
Es	-1.031271	-0.987034	0.245019	99
Es	-0.605886	-0.599296	-0.014868	99
Es	0.359741	2.950111	-0.356837	99
Es	1.026762	1.781883	-0.384525	99
Es	-0.298760	0.147109	-0.064357	99
Es	-0.876693	-1.049594	0.016689	99
Es	0.494368	-2.219595	-0.240118	99
Es	-0.427505	-2.754208	0.319541	99
Es	-0.603194	0.971269	0.091966	99
Es	-0.993365	-1.066468	-0.245508	99
Es	0.906071	0.265037	0.342145	99
Es	-0.517017	0.878883	-0.510906	99
Es	1.234688	0.003011	0.043672	99
Es	1.183341	0.776702	0.049203	99
Es	0.318925	-2.053903	0.953044	99
Es	1.813303	1.619561	0.041460	99
Es	0.330095	2.234282	-0.261669	99
Es	-0.272093	1.858481	-0.300383	99
Es	0.555399	0.194916	-0.037123	99
Es	-0.525930	-1.422249	0.117019	99
Es	1.048292	0.230687	0.121779	99
Es	1.449120	1.554135	-0.002657	99
38
Properties=species:S:1:pos:R:3:Z:I:1 energy=-358.603855999804 field_type=dipole dipole="0.000000 0.000000 0.000000" charge=0
C	-0.010653	-2.143522	0.296027	6
O	-0.877163	-1.049752	0.016777	8
C	-0.298963	0.147458	-0.064433	6
C	-0.799163	1.399567	-0.311843	6
C	0.330057	2.234278	-0.261673	6
N	1.449737	1.554328	-0.002593	7
O	1.049237	0.230188	0.122357	8
H	-0.616092	-3.053482	0.333377	1
H	0.476057	-2.019252	1.269647	1
H	0.735748	-2.264512	-0.496723	1
H	-1.829023	1.661008	-0.499603	1
H	0.390217	3.303698	-0.401313	1
Es	-0.876868	-1.049660	0.016806	99
Es	-0.526646	-1.421745	0.121778	99
Es	-0.964931	-1.058142	-0.252630	99
Es	0.359726	2.950166	-0.356857	99
Es	-0.799149	1.399522	-0.311837	99
Es	-1.485692	1.579476	-0.438026	99
Es	-0.603131	0.970959	0.091943	99
Es	0.330095	2.234282	-0.261669	99
Es	1.449128	1.554173	-0.002661	99
Es	-0.607854	-0.597358	-0.001108	99
Es	-1.056912	-0.997690	0.233585	99
Es	-0.427502	-2.754208	0.319550	99
Es	-0.298760	0.147110	-0.064356	99
Es	1.026521	1.781904	-0.384192	99
Es	1.813497	1.619713	0.041474	99
Es	-0.010829	-2.143310	0.295972	99
Es	0.494359	-2.219598	-0.240125	99
Es	0.318937	-2.053933	0.953009	99
Es	-0.516812	0.879099	-0.511155	99
Es	0.944105	1.858304	0.169993	99
Es	1.048882	0.230487	0.122139	99
Es	1.183303	0.776706	0.049204	99
Es	-0.272211	1.858413	-0.300080	99
Es	0.907233	0.263435	0.345066	99
Es	0.555223	0.195324	-0.036488	99
Es	1.233244	0.004301	0.039793	99
