42
Properties=species:S:1:pos:R:3:Z:I:1 energy=-339.8735163336439 field_type=dipole dipole="0.000000 0.000000 0.000000" charge=0
C	-2.486228	-1.501564	-0.546853	6
O	-1.853688	-0.264134	-0.849063	8
N	-0.609148	-0.232605	-0.201023	7
C	-0.032698	0.895696	-0.460083	6
N	1.203272	1.366426	-0.042173	7
C	1.646592	0.955056	1.299757	6
C	2.278792	0.369356	0.084497	6
H	-3.440168	-1.541634	-1.079273	1
H	-2.678248	-1.574775	0.528027	1
H	-1.862948	-2.338574	-0.877063	1
H	-0.526058	1.650596	-1.098593	1
H	0.939202	0.364356	1.865567	1
H	2.163742	1.742795	1.828887	1
H	3.238032	0.746546	-0.238653	1
H	2.019552	-0.637534	-0.213953	1
Es	-0.233248	0.122499	-0.545226	99
Es	-2.061785	-2.077340	-0.770299	99
Es	2.104694	0.540005	0.824743	99
Es	-0.504446	-0.534247	0.005752	99
Es	-0.369796	1.397328	-0.889617	99
Es	-0.032551	0.895721	-0.460020	99
Es	1.175098	0.557877	1.680989	99
Es	-2.070543	-0.741365	-0.717887	99
Es	-1.782216	-0.263511	-1.150010	99
Es	1.260884	1.251940	0.569266	99
Es	-2.618163	-1.556849	0.189392	99
Es	-1.302731	-0.256030	-0.558177	99
Es	2.278587	0.369547	0.084528	99
Es	-0.609338	-0.232128	-0.201360	99
Es	-0.486731	0.362299	-0.067381	99
Es	1.288524	1.693654	-0.155886	99
Es	0.663496	1.107089	-0.197892	99
Es	1.203149	1.365785	-0.041930	99
Es	-3.134289	-1.522863	-0.911216	99
Es	2.930906	0.619893	-0.132072	99
Es	2.107751	-0.306883	-0.113530	99
Es	1.624093	0.914156	-0.131477	99
Es	1.646546	0.955102	1.299482	99
Es	-2.016884	-0.035839	-0.716375	99
Es	-1.853581	-0.264409	-0.848777	99
Es	-2.486133	-1.501360	-0.546910	99
Es	1.998163	1.484470	1.662039	99
42
Properties=species:S:1:pos:R:3:Z:I:1 energy=-339.8735163336439 field_type=dipole dipole="0.000000 0.000000 0.000000" charge=0
C	-2.486228	-1.501564	-0.546853	6
O	-1.853688	-0.264134	-0.849063	8
N	-0.609148	-0.232605	-0.201023	7
C	-0.032698	0.895696	-0.460083	6
N	1.203272	1.366426	-0.042173	7
C	1.646592	0.955056	1.299757	6
C	2.278792	0.369356	0.084497	6
H	-3.440168	-1.541634	-1.079273	1
H	-2.678248	-1.574775	0.528027	1
H	-1.862948	-2.338574	-0.877063	1
H	-0.526058	1.650596	-1.098593	1
H	0.939202	0.364356	1.865567	1
H	2.163742	1.742795	1.828887	1
H	3.238032	0.746546	-0.238653	1
H	2.019552	-0.637534	-0.213953	1
Es	1.624339	0.914469	-0.132158	99
Es	-2.070888	-0.741374	-0.717919	99
Es	2.104781	0.539691	0.824949	99
Es	-0.609335	-0.232137	-0.201357	99
Es	-0.486720	0.362300	-0.067323	99
Es	2.107777	-0.306686	-0.113677	99
Es	2.930846	0.619786	-0.132026	99
Es	1.175115	0.558003	1.680959	99
Es	-1.853542	-0.264443	-0.848890	99
Es	1.260866	1.251924	0.569595	99
Es	-2.061789	-2.077330	-0.770268	99
Es	-2.486134	-1.501359	-0.546910	99
Es	1.646552	0.955098	1.299483	99
Es	1.998145	1.484406	1.662038	99
Es	1.203153	1.365790	-0.041927	99
Es	1.288135	1.693358	-0.155481	99
Es	-2.618198	-1.556836	0.189424	99
Es	-1.782343	-0.263406	-1.149711	99
Es	-3.134235	-1.522917	-0.911221	99
Es	-0.504334	-0.533939	0.005590	99
Es	0.663625	1.107199	-0.197998	99
Es	-0.233252	0.122505	-0.545338	99
Es	-0.032553	0.895731	-0.460013	99
Es	-2.016630	-0.036021	-0.716729	99
Es	2.278594	0.369542	0.084534	99
Es	-0.369785	1.397323	-0.889603	99
Es	-1.302737	-0.256137	-0.557876	99
42
Properties=species:S:1:pos:R:3:Z:I:1 energy=-339.8735163336439 field_type=dipole dipole="0.000000 0.000000 0.000000" charge=0
C	-2.486228	-1.501564	-0.546853	6
O	-1.853688	-0.264134	-0.849063	8
N	-0.609148	-0.232605	-0.201023	7
C	-0.032698	0.895696	-0.460083	6
N	1.203272	1.366426	-0.042173	7
C	1.646592	0.955056	1.299757	6
C	2.278792	0.369356	0.084497	6
H	-3.440168	-1.541634	-1.079273	1
H	-2.678248	-1.574775	0.528027	1
H	-1.862948	-2.338574	-0.877063	1
H	-0.526058	1.650596	-1.098593	1
H	0.939202	0.364356	1.865567	1
H	2.163742	1.742795	1.828887	1
H	3.238032	0.746546	-0.238653	1
H	2.019552	-0.637534	-0.213953	1
Es	1.175240	0.558060	1.680973	99
Es	-1.853550	-0.264432	-0.848863	99
Es	1.646553	0.955097	1.299485	99
Es	0.663783	1.107218	-0.198177	99
Es	-0.609287	-0.232112	-0.201347	99
Es	-0.504643	-0.533670	0.005862	99
Es	-2.071042	-0.741335	-0.717977	99
Es	-1.302717	-0.255966	-0.557735	99
Es	-3.134230	-1.522927	-0.911247	99
Es	2.107767	-0.306692	-0.113658	99
Es	1.998124	1.484353	1.662003	99
Es	-1.782284	-0.263512	-1.149434	99
Es	2.930762	0.619725	-0.132055	99
Es	-0.369830	1.397397	-0.889531	99
Es	-2.618237	-1.556838	0.189380	99
Es	-2.016589	-0.036043	-0.717173	99
Es	-2.061792	-2.077337	-0.770220	99
Es	2.278598	0.369539	0.084533	99
Es	2.104980	0.539590	0.825117	99
Es	-2.486136	-1.501359	-0.546909	99
Es	-0.233174	0.121950	-0.545320	99
Es	-0.032542	0.895724	-0.460029	99
Es	-0.486465	0.362491	-0.067698	99
Es	1.203162	1.365801	-0.041928	99
Es	1.624865	0.914566	-0.132160	99
Es	1.260316	1.252546	0.569601	99
Es	1.287822	1.692705	-0.155343	99
42
Properties=species:S:1:pos:R:3:Z:I:1 energy=-339.8735163336439 field_type=dipole dipole="0.000000 0.000000 0.000000" charge=0
C	-2.486228	-1.501564	-0.546853	6
O	-1.853688	-0.264134	-0.849063	8
N	-0.609148	-0.232605	-0.201023	7
C	-0.032698	0.895696	-0.460083	6
N	1.203272	1.366426	-0.042173	7
C	1.646592	0.955056	1.299757	6
C	2.278792	0.369356	0.084497	6
H	-3.440168	-1.541634	-1.079273	1
H	-2.678248	-1.574775	0.528027	1
H	-1.862948	-2.338574	-0.877063	1
H	-0.526058	1.650596	-1.098593	1
H	0.939202	0.364356	1.865567	1
H	2.163742	1.742795	1.828887	1
H	3.238032	0.746546	-0.238653	1
H	2.019552	-0.637534	-0.213953	1
Es	-1.853553	-0.264427	-0.848892	99
Es	-0.369809	1.397310	-0.889672	99
Es	2.930717	0.619698	-0.132081	99
Es	-3.134290	-1.522937	-0.911228	99
Es	1.624503	0.914145	-0.132125	99
Es	-2.015633	-0.038911	-0.714472	99
Es	1.646561	0.955090	1.299488	99
Es	0.663687	1.107604	-0.198029	99
Es	-2.486137	-1.501362	-0.546909	99
Es	1.288120	1.692084	-0.155882	99
Es	-2.618157	-1.556876	0.189371	99
Es	-0.233308	0.122604	-0.545064	99
Es	1.260374	1.253281	0.569816	99
Es	-2.070615	-0.741989	-0.719041	99
Es	-0.609339	-0.232138	-0.201363	99
Es	-1.784257	-0.259974	-1.150448	99
Es	1.203151	1.365793	-0.041930	99
Es	2.278591	0.369543	0.084538	99
Es	1.175262	0.558178	1.680883	99
Es	-0.032549	0.895721	-0.460028	99
Es	-0.486619	0.362204	-0.067296	99
Es	-2.061822	-2.077300	-0.770229	99
Es	-0.504201	-0.533679	0.005393	99
Es	-1.302264	-0.256191	-0.558321	99
Es	2.105201	0.539385	0.825240	99
Es	2.107833	-0.306629	-0.113619	99
Es	1.998005	1.484316	1.662048	99
42
Properties=species:S:1:pos:R:3:Z:I:1 energy=-339.8735163336439 field_type=dipole dipole="0.000000 0.000000 0.000000" charge=0
C	-2.486228	-1.501564	-0.546853	6
O	-1.853688	-0.264134	-0.849063	8
N	-0.609148	-0.232605	-0.201023	7
C	-0.032698	0.895696	-0.460083	6
N	1.203272	1.366426	-0.042173	7
C	1.646592	0.955056	1.299757	6
C	2.278792	0.369356	0.084497	6
H	-3.440168	-1.541634	-1.079273	1
H	-2.678248	-1.574775	0.528027	1
H	-1.862948	-2.338574	-0.877063	1
H	-0.526058	1.650596	-1.098593	1
H	0.939202	0.364356	1.865567	1
H	2.163742	1.742795	1.828887	1
H	3.238032	0.746546	-0.238653	1
H	2.019552	-0.637534	-0.213953	1
Es	-2.618096	-1.556930	0.189374	99
Es	-2.071038	-0.742005	-0.718959	99
Es	-0.233132	0.122430	-0.545167	99
Es	2.930610	0.619609	-0.132079	99
Es	-0.609338	-0.232127	-0.201364	99
Es	-0.504358	-0.533357	0.005271	99
Es	2.107887	-0.306544	-0.113612	99
Es	2.278590	0.369546	0.084534	99
Es	-2.015551	-0.038497	-0.715964	99
Es	-1.302329	-0.255949	-0.557899	99
Es	1.260304	1.253105	0.570180	99
Es	-0.032551	0.895729	-0.460016	99
Es	-2.486131	-1.501352	-0.546911	99
Es	-1.784158	-0.260470	-1.149224	99
Es	2.105431	0.539395	0.825451	99
Es	0.663899	1.107832	-0.198209	99
Es	-0.369880	1.397308	-0.889641	99
Es	-2.061889	-2.077307	-0.770302	99
Es	1.646552	0.955098	1.299485	99
Es	1.203154	1.365795	-0.041929	99
Es	-0.486468	0.362098	-0.067257	99
Es	-1.853385	-0.264599	-0.849058	99
Es	-3.134307	-1.522916	-0.911145	99
Es	1.175383	0.558101	1.680843	99
Es	1.624875	0.914623	-0.133190	99
Es	1.997860	1.484279	1.662076	99
Es	1.287518	1.691645	-0.155141	99
42
Properties=species:S:1:pos:R:3:Z:I:1 energy=-339.8735163336439 field_type=dipole dipole="0.000000 0.000000 0.000000" charge=0
C	-2.486228	-1.501564	-0.546853	6
O	-1.853688	-0.264134	-0.849063	8
N	-0.609148	-0.232605	-0.201023	7
C	-0.032698	0.895696	-0.460083	6
N	1.203272	1.366426	-0.042173	7
C	1.646592	0.955056	1.299757	6
C	2.278792	0.369356	0.084497	6
H	-3.440168	-1.541634	-1.079273	1
H	-2.678248	-1.574775	0.528027	1
H	-1.862948	-2.338574	-0.877063	1
H	-0.526058	1.650596	-1.098593	1
H	0.939202	0.364356	1.865567	1
H	2.163742	1.742795	1.828887	1
H	3.238032	0.746546	-0.238653	1
H	2.019552	-0.637534	-0.213953	1
Es	-2.061866	-2.077301	-0.770233	99
Es	1.287832	1.691214	-0.154864	99
Es	-1.853588	-0.264396	-0.848774	99
Es	-2.015886	-0.037336	-0.717361	99
Es	-2.618175	-1.556910	0.189358	99
Es	-1.783323	-0.262357	-1.148896	99
Es	1.624843	0.914485	-0.133102	99
Es	1.997793	1.484229	1.662088	99
Es	-0.032551	0.895726	-0.460020	99
Es	1.175401	0.558260	1.680781	99
Es	1.646554	0.955097	1.299485	99
Es	-2.071431	-0.741583	-0.718316	99
Es	2.278592	0.369545	0.084534	99
Es	2.105648	0.539064	0.825538	99
Es	-0.609316	-0.232124	-0.201360	99
Es	2.930571	0.619597	-0.132125	99
Es	2.107905	-0.306448	-0.113663	99
Es	-1.302313	-0.255980	-0.557868	99
Es	1.203155	1.365791	-0.041927	99
Es	-3.134258	-1.522957	-0.911195	99
Es	-0.486415	0.362053	-0.067408	99
Es	0.663795	1.108410	-0.198555	99
Es	-0.369969	1.397269	-0.889623	99
Es	-0.504298	-0.533174	0.005289	99
Es	1.260010	1.253279	0.570248	99
Es	-2.486137	-1.501360	-0.546909	99
Es	-0.233120	0.122449	-0.544974	99
42
Properties=species:S:1:pos:R:3:Z:I:1 energy=-339.8735163336439 field_type=dipole dipole="0.000000 0.000000 0.000000" charge=0
C	-2.486228	-1.501564	-0.546853	6
O	-1.853688	-0.264134	-0.849063	8
N	-0.609148	-0.232605	-0.201023	7
C	-0.032698	0.895696	-0.460083	6
N	1.203272	1.366426	-0.042173	7
C	1.646592	0.955056	1.299757	6
C	2.278792	0.369356	0.084497	6
H	-3.440168	-1.541634	-1.079273	1
H	-2.678248	-1.574775	0.528027	1
H	-1.862948	-2.338574	-0.877063	1
H	-0.526058	1.650596	-1.098593	1
H	0.939202	0.364356	1.865567	1
H	2.163742	1.742795	1.828887	1
H	3.238032	0.746546	-0.238653	1
H	2.019552	-0.637534	-0.213953	1
Es	1.287346	1.691022	-0.154962	99
Es	-1.783885	-0.260847	-1.148873	99
Es	-2.618243	-1.556896	0.189328	99
Es	1.646553	0.955100	1.299477	99
Es	1.203157	1.365796	-0.041929	99
Es	-0.609310	-0.232127	-0.201349	99
Es	-2.071385	-0.741992	-0.719107	99
Es	-2.061873	-2.077330	-0.770184	99
Es	-0.504307	-0.533138	0.005362	99
Es	1.259981	1.253594	0.570293	99
Es	-1.302196	-0.255918	-0.557896	99
Es	-0.369967	1.397275	-0.889680	99
Es	2.105759	0.539071	0.825753	99
Es	2.278590	0.369547	0.084534	99
Es	1.175460	0.558291	1.680833	99
Es	-0.233192	0.122469	-0.544804	99
Es	-1.853542	-0.264448	-0.848866	99
Es	2.107918	-0.306393	-0.113564	99
Es	1.625052	0.914662	-0.133564	99
Es	0.664032	1.108169	-0.198308	99
Es	-0.032552	0.895725	-0.460020	99
Es	-0.486342	0.362028	-0.067548	99
Es	-3.134217	-1.522963	-0.911221	99
Es	-2.486137	-1.501363	-0.546909	99
Es	2.930494	0.619447	-0.132127	99
Es	-2.015547	-0.038378	-0.716552	99
Es	1.997807	1.484140	1.662030	99
42
Properties=species:S:1:pos:R:3:Z:I:1 energy=-339.8735163336439 field_type=dipole dipole="0.000000 0.000000 0.000000" charge=0
C	-2.486228	-1.501564	-0.546853	6
O	-1.853688	-0.264134	-0.849063	8
N	-0.609148	-0.232605	-0.201023	7
C	-0.032698	0.895696	-0.460083	6
N	1.203272	1.366426	-0.042173	7
C	1.646592	0.955056	1.299757	6
C	2.278792	0.369356	0.084497	6
H	-3.440168	-1.541634	-1.079273	1
H	-2.678248	-1.574775	0.528027	1
H	-1.862948	-2.338574	-0.877063	1
H	-0.526058	1.650596	-1.098593	1
H	0.939202	0.364356	1.865567	1
H	2.163742	1.742795	1.828887	1
H	3.238032	0.746546	-0.238653	1
H	2.019552	-0.637534	-0.213953	1
Es	-2.071376	-0.742061	-0.719258	99
Es	-2.618194	-1.556902	0.189313	99
Es	-0.609319	-0.232122	-0.201356	99
Es	-2.486138	-1.501363	-0.546909	99
Es	-0.032545	0.895727	-0.460028	99
Es	-1.302134	-0.256221	-0.557929	99
Es	2.105744	0.538981	0.825927	99
Es	2.278590	0.369547	0.084533	99
Es	-2.015499	-0.038675	-0.716539	99
Es	-0.486376	0.362048	-0.067228	99
Es	1.203157	1.365796	-0.041929	99
Es	1.286823	1.691462	-0.154311	99
Es	1.624636	0.915343	-0.134978	99
Es	1.260790	1.252463	0.570622	99
Es	-0.233238	0.122561	-0.544657	99
Es	-0.369969	1.397264	-0.889700	99
Es	2.107988	-0.306316	-0.113633	99
Es	-0.504080	-0.532756	0.004872	99
Es	-1.784200	-0.260595	-1.148650	99
Es	0.664185	1.108206	-0.198025	99
Es	1.997800	1.484085	1.662037	99
Es	-3.134261	-1.523005	-0.911226	99
Es	1.175465	0.558301	1.680823	99
Es	-2.061868	-2.077297	-0.770152	99
Es	1.646554	0.955096	1.299480	99
Es	2.930450	0.619434	-0.132044	99
Es	-1.853534	-0.264458	-0.848905	99
42
Properties=species:S:1:pos:R:3:Z:I:1 energy=-339.8735163336439 field_type=dipole dipole="0.000000 0.000000 0.000000" charge=0
C	-2.486228	-1.501564	-0.546853	6
O	-1.853688	-0.264134	-0.849063	8
N	-0.609148	-0.232605	-0.201023	7
C	-0.032698	0.895696	-0.460083	6
N	1.203272	1.366426	-0.042173	7
C	1.646592	0.955056	1.299757	6
C	2.278792	0.369356	0.084497	6
H	-3.440168	-1.541634	-1.079273	1
H	-2.678248	-1.574775	0.528027	1
H	-1.862948	-2.338574	-0.877063	1
H	-0.526058	1.650596	-1.098593	1
H	0.939202	0.364356	1.865567	1
H	2.163742	1.742795	1.828887	1
H	3.238032	0.746546	-0.238653	1
H	2.019552	-0.637534	-0.213953	1
Es	2.106128	0.538622	0.825964	99
Es	0.664211	1.108486	-0.198491	99
Es	-0.233042	0.122703	-0.544644	99
Es	-0.369978	1.397203	-0.889790	99
Es	-1.853584	-0.264383	-0.848870	99
Es	1.259315	1.254769	0.570440	99
Es	2.107998	-0.306199	-0.113627	99
Es	-3.134244	-1.522979	-0.911204	99
Es	1.646554	0.955097	1.299486	99
Es	-2.618179	-1.556963	0.189342	99
Es	1.203154	1.365796	-0.041930	99
Es	1.625280	0.914442	-0.133338	99
Es	-2.072126	-0.741698	-0.718499	99
Es	-1.783717	-0.261951	-1.148032	99
Es	-0.486419	0.361802	-0.067073	99
Es	1.287336	1.690008	-0.155187	99
Es	2.930371	0.619363	-0.132146	99
Es	-0.504215	-0.532665	0.004803	99
Es	1.175563	0.558425	1.680781	99
Es	1.997740	1.484017	1.662027	99
Es	-2.015276	-0.037907	-0.718095	99
Es	-2.061912	-2.077277	-0.770221	99
Es	-2.486137	-1.501362	-0.546909	99
Es	2.278592	0.369544	0.084536	99
Es	-0.032555	0.895721	-0.460020	99
Es	-1.302077	-0.255940	-0.557794	99
Es	-0.609326	-0.232132	-0.201359	99
