42
Properties=species:S:1:pos:R:3:Z:I:1 energy=-286.9238161024564 field_type=dipole dipole="0.000000 0.000000 0.000000" charge=0
C	-2.257806	-0.090453	0.253479	6
C	-0.816856	0.067397	-0.048931	6
C	-0.068146	1.178158	0.003779	6
C	1.313594	0.916887	-0.367971	6
C	2.131944	-0.055623	0.438249	6
N	1.408194	-0.523322	-0.743771	7
C	0.055414	-1.083693	-0.461101	6
H	-2.430576	-0.995872	0.841349	1
H	-2.834946	-0.164913	-0.670881	1
H	-2.642226	0.756598	0.830629	1
H	-0.427356	2.160928	0.272259	1
H	1.806243	1.602237	-1.046821	1
H	3.209414	-0.008413	0.340479	1
H	1.780804	-0.367772	1.413419	1
H	0.105934	-1.848012	0.320279	1
H	-0.333626	-1.544132	-1.374451	1
Es	-0.375300	0.586332	0.296478	99
Es	-1.535785	-0.015031	0.105689	99
Es	1.294571	0.123815	-0.682963	99
Es	-0.068068	1.178251	0.003782	99
Es	0.085583	-1.596351	0.077828	99
Es	-2.513786	0.485670	0.640956	99
Es	2.864451	-0.027799	0.372031	99
Es	1.313637	0.916649	-0.367975	99
Es	1.595237	-0.630468	-1.032776	99
Es	-0.304322	1.849870	0.185600	99
Es	1.407913	-0.523075	-0.743236	99
Es	-0.515548	0.709576	-0.331367	99
Es	-0.409681	-0.524284	-0.252255	99
Es	0.826403	-0.764040	-0.585412	99
Es	1.766229	0.611260	0.181671	99
Es	2.131800	-0.055638	0.438054	99
Es	-0.215949	-1.395558	-1.079660	99
Es	1.886741	-0.269650	1.101013	99
Es	0.636331	1.082753	-0.161652	99
Es	1.649618	1.390977	-0.820332	99
Es	1.742911	-0.463135	-0.187162	99
Es	-0.816927	0.067273	-0.048915	99
Es	-2.365412	-0.705323	0.648437	99
Es	0.055522	-1.083613	-0.461110	99
Es	-2.634442	-0.142429	-0.373322	99
Es	-2.257761	-0.090456	0.253470	99
42
Properties=species:S:1:pos:R:3:Z:I:1 energy=-286.9238161024564 field_type=dipole dipole="0.000000 0.000000 0.000000" charge=0
C	-2.257806	-0.090453	0.253479	6
C	-0.816856	0.067397	-0.048931	6
C	-0.068146	1.178158	0.003779	6
C	1.313594	0.916887	-0.367971	6
C	2.131944	-0.055623	0.438249	6
N	1.408194	-0.523322	-0.743771	7
C	0.055414	-1.083693	-0.461101	6
H	-2.430576	-0.995872	0.841349	1
H	-2.834946	-0.164913	-0.670881	1
H	-2.642226	0.756598	0.830629	1
H	-0.427356	2.160928	0.272259	1
H	1.806243	1.602237	-1.046821	1
H	3.209414	-0.008413	0.340479	1
H	1.780804	-0.367772	1.413419	1
H	0.105934	-1.848012	0.320279	1
H	-0.333626	-1.544132	-1.374451	1
Es	-0.375185	0.586307	0.296344	99
Es	-0.304454	1.849858	0.185620	99
Es	1.294493	0.124088	-0.683628	99
Es	-0.409660	-0.524347	-0.252394	99
Es	-1.535923	-0.014813	0.105535	99
Es	-2.365397	-0.705393	0.648598	99
Es	-2.634396	-0.142485	-0.373238	99
Es	1.649548	1.390945	-0.820250	99
Es	0.055520	-1.083613	-0.461110	99
Es	-2.257761	-0.090456	0.253470	99
Es	-0.816925	0.067276	-0.048914	99
Es	-0.068064	1.178245	0.003804	99
Es	1.766292	0.611348	0.181792	99
Es	1.743057	-0.463481	-0.187015	99
Es	-2.513809	0.485724	0.640794	99
Es	1.407910	-0.523081	-0.743238	99
Es	1.886802	-0.269612	1.100920	99
Es	-0.215989	-1.395694	-1.079620	99
Es	2.131802	-0.055634	0.438056	99
Es	0.085540	-1.596202	0.077893	99
Es	1.313634	0.916650	-0.367979	99
Es	1.595082	-0.630384	-1.032028	99
Es	0.636504	1.082869	-0.161737	99
Es	2.864398	-0.027812	0.372088	99
Es	-0.515458	0.709479	-0.331075	99
Es	0.826403	-0.764208	-0.585815	99
42
Properties=species:S:1:pos:R:3:Z:I:1 energy=-286.9238161024564 field_type=dipole dipole="0.000000 0.000000 0.000000" charge=0
C	-2.257806	-0.090453	0.253479	6
C	-0.816856	0.067397	-0.048931	6
C	-0.068146	1.178158	0.003779	6
C	1.313594	0.916887	-0.367971	6
C	2.131944	-0.055623	0.438249	6
N	1.408194	-0.523322	-0.743771	7
C	0.055414	-1.083693	-0.461101	6
H	-2.430576	-0.995872	0.841349	1
H	-2.834946	-0.164913	-0.670881	1
H	-2.642226	0.756598	0.830629	1
H	-0.427356	2.160928	0.272259	1
H	1.806243	1.602237	-1.046821	1
H	3.209414	-0.008413	0.340479	1
H	1.780804	-0.367772	1.413419	1
H	0.105934	-1.848012	0.320279	1
H	-0.333626	-1.544132	-1.374451	1
Es	1.886863	-0.269660	1.100834	99
Es	-1.536009	-0.014745	0.105639	99
Es	-0.304401	1.849893	0.185635	99
Es	1.594692	-0.630089	-1.031713	99
Es	-2.257761	-0.090456	0.253470	99
Es	-2.365391	-0.705421	0.648569	99
Es	0.055519	-1.083614	-0.461109	99
Es	-2.634370	-0.142454	-0.373271	99
Es	1.407932	-0.523076	-0.743258	99
Es	1.294406	0.124214	-0.683920	99
Es	1.313638	0.916644	-0.367974	99
Es	0.636569	1.082868	-0.161549	99
Es	-0.515366	0.709445	-0.331098	99
Es	2.864319	-0.027878	0.372134	99
Es	0.085531	-1.596275	0.077804	99
Es	-2.513802	0.485735	0.640832	99
Es	1.649617	1.390983	-0.820044	99
Es	-0.068070	1.178247	0.003782	99
Es	1.766348	0.611493	0.182010	99
Es	-0.409591	-0.524412	-0.252324	99
Es	-0.216027	-1.395607	-1.079605	99
Es	0.826494	-0.764450	-0.585919	99
Es	-0.375297	0.586349	0.296165	99
Es	2.131799	-0.055636	0.438052	99
Es	-0.816928	0.067274	-0.048916	99
Es	1.743253	-0.463797	-0.187353	99
42
Properties=species:S:1:pos:R:3:Z:I:1 energy=-286.9238161024564 field_type=dipole dipole="0.000000 0.000000 0.000000" charge=0
C	-2.257806	-0.090453	0.253479	6
C	-0.816856	0.067397	-0.048931	6
C	-0.068146	1.178158	0.003779	6
C	1.313594	0.916887	-0.367971	6
C	2.131944	-0.055623	0.438249	6
N	1.408194	-0.523322	-0.743771	7
C	0.055414	-1.083693	-0.461101	6
H	-2.430576	-0.995872	0.841349	1
H	-2.834946	-0.164913	-0.670881	1
H	-2.642226	0.756598	0.830629	1
H	-0.427356	2.160928	0.272259	1
H	1.806243	1.602237	-1.046821	1
H	3.209414	-0.008413	0.340479	1
H	1.780804	-0.367772	1.413419	1
H	0.105934	-1.848012	0.320279	1
H	-0.333626	-1.544132	-1.374451	1
Es	0.636620	1.082783	-0.161710	99
Es	-1.536032	-0.014717	0.105718	99
Es	-0.216020	-1.395599	-1.079573	99
Es	1.886906	-0.269546	1.100833	99
Es	0.085519	-1.596283	0.077750	99
Es	2.131801	-0.055635	0.438055	99
Es	-0.515350	0.709437	-0.330983	99
Es	-2.257761	-0.090456	0.253470	99
Es	1.649428	1.390893	-0.820126	99
Es	-2.513839	0.485700	0.640835	99
Es	1.743586	-0.464233	-0.187175	99
Es	-2.634366	-0.142457	-0.373289	99
Es	-0.304414	1.849904	0.185740	99
Es	-0.375405	0.586390	0.295865	99
Es	-0.068069	1.178249	0.003783	99
Es	1.313637	0.916647	-0.367975	99
Es	1.294488	0.124467	-0.684330	99
Es	2.864247	-0.027831	0.372177	99
Es	1.407955	-0.523086	-0.743289	99
Es	1.766322	0.611779	0.181963	99
Es	1.594466	-0.629985	-1.030988	99
Es	-0.409485	-0.524489	-0.252233	99
Es	-2.365399	-0.705400	0.648544	99
Es	-0.816927	0.067274	-0.048915	99
Es	0.055518	-1.083614	-0.461110	99
Es	0.826540	-0.764617	-0.586165	99
42
Properties=species:S:1:pos:R:3:Z:I:1 energy=-286.9238161024564 field_type=dipole dipole="0.000000 0.000000 0.000000" charge=0
C	-2.257806	-0.090453	0.253479	6
C	-0.816856	0.067397	-0.048931	6
C	-0.068146	1.178158	0.003779	6
C	1.313594	0.916887	-0.367971	6
C	2.131944	-0.055623	0.438249	6
N	1.408194	-0.523322	-0.743771	7
C	0.055414	-1.083693	-0.461101	6
H	-2.430576	-0.995872	0.841349	1
H	-2.834946	-0.164913	-0.670881	1
H	-2.642226	0.756598	0.830629	1
H	-0.427356	2.160928	0.272259	1
H	1.806243	1.602237	-1.046821	1
H	3.209414	-0.008413	0.340479	1
H	1.780804	-0.367772	1.413419	1
H	0.105934	-1.848012	0.320279	1
H	-0.333626	-1.544132	-1.374451	1
Es	-2.365419	-0.705422	0.648546	99
Es	-1.536114	-0.014630	0.105626	99
Es	2.131800	-0.055635	0.438053	99
Es	1.594186	-0.629801	-1.030669	99
Es	0.636701	1.082805	-0.161768	99
Es	1.649431	1.390948	-0.820003	99
Es	1.886956	-0.269560	1.100764	99
Es	-0.375250	0.586376	0.295961	99
Es	-2.257761	-0.090456	0.253471	99
Es	1.743780	-0.464426	-0.187319	99
Es	-2.513832	0.485705	0.640826	99
Es	-2.634351	-0.142433	-0.373276	99
Es	-0.216028	-1.395638	-1.079523	99
Es	1.766343	0.611922	0.182109	99
Es	0.826602	-0.764765	-0.586300	99
Es	-0.816927	0.067277	-0.048916	99
Es	0.085505	-1.596253	0.077733	99
Es	2.864202	-0.027869	0.372208	99
Es	-0.068070	1.178252	0.003780	99
Es	-0.304480	1.849938	0.185569	99
Es	1.313637	0.916646	-0.367975	99
Es	1.407932	-0.523070	-0.743247	99
Es	0.055518	-1.083615	-0.461110	99
Es	1.294450	0.124477	-0.684688	99
Es	-0.409519	-0.524512	-0.252341	99
Es	-0.515326	0.709314	-0.330641	99
42
Properties=species:S:1:pos:R:3:Z:I:1 energy=-286.9238161024564 field_type=dipole dipole="0.000000 0.000000 0.000000" charge=0
C	-2.257806	-0.090453	0.253479	6
C	-0.816856	0.067397	-0.048931	6
C	-0.068146	1.178158	0.003779	6
C	1.313594	0.916887	-0.367971	6
C	2.131944	-0.055623	0.438249	6
N	1.408194	-0.523322	-0.743771	7
C	0.055414	-1.083693	-0.461101	6
H	-2.430576	-0.995872	0.841349	1
H	-2.834946	-0.164913	-0.670881	1
H	-2.642226	0.756598	0.830629	1
H	-0.427356	2.160928	0.272259	1
H	1.806243	1.602237	-1.046821	1
H	3.209414	-0.008413	0.340479	1
H	1.780804	-0.367772	1.413419	1
H	0.105934	-1.848012	0.320279	1
H	-0.333626	-1.544132	-1.374451	1
Es	-0.304511	1.849940	0.185625	99
Es	-0.409479	-0.524525	-0.252314	99
Es	-1.536166	-0.014595	0.105692	99
Es	-0.216034	-1.395639	-1.079487	99
Es	1.886993	-0.269523	1.100705	99
Es	-0.816926	0.067277	-0.048915	99
Es	1.766231	0.612283	0.182160	99
Es	1.744072	-0.464831	-0.187383	99
Es	-0.068070	1.178249	0.003778	99
Es	-0.375438	0.586432	0.295722	99
Es	1.593875	-0.629416	-1.030091	99
Es	0.055518	-1.083615	-0.461110	99
Es	2.864152	-0.027881	0.372252	99
Es	-2.365408	-0.705438	0.648557	99
Es	1.294645	0.124339	-0.684899	99
Es	2.131799	-0.055634	0.438054	99
Es	-0.515165	0.709320	-0.330714	99
Es	1.407928	-0.523085	-0.743269	99
Es	0.826568	-0.765011	-0.586662	99
Es	-2.513836	0.485699	0.640822	99
Es	0.085472	-1.596243	0.077708	99
Es	-2.257762	-0.090456	0.253470	99
Es	-2.634345	-0.142428	-0.373295	99
Es	1.649366	1.390984	-0.819943	99
Es	0.636845	1.082725	-0.161617	99
Es	1.313638	0.916645	-0.367974	99
42
Properties=species:S:1:pos:R:3:Z:I:1 energy=-286.9238161024564 field_type=dipole dipole="0.000000 0.000000 0.000000" charge=0
C	-2.257806	-0.090453	0.253479	6
C	-0.816856	0.067397	-0.048931	6
C	-0.068146	1.178158	0.003779	6
C	1.313594	0.916887	-0.367971	6
C	2.131944	-0.055623	0.438249	6
N	1.408194	-0.523322	-0.743771	7
C	0.055414	-1.083693	-0.461101	6
H	-2.430576	-0.995872	0.841349	1
H	-2.834946	-0.164913	-0.670881	1
H	-2.642226	0.756598	0.830629	1
H	-0.427356	2.160928	0.272259	1
H	1.806243	1.602237	-1.046821	1
H	3.209414	-0.008413	0.340479	1
H	1.780804	-0.367772	1.413419	1
H	0.105934	-1.848012	0.320279	1
H	-0.333626	-1.544132	-1.374451	1
Es	-2.634333	-0.142393	-0.373334	99
Es	-0.375394	0.586404	0.295609	99
Es	-0.515151	0.709282	-0.330599	99
Es	1.744090	-0.464490	-0.187197	99
Es	0.636882	1.082834	-0.161757	99
Es	2.131801	-0.055623	0.438059	99
Es	-0.068071	1.178246	0.003780	99
Es	-0.304602	1.849926	0.185654	99
Es	1.593807	-0.629697	-1.029406	99
Es	0.826773	-0.765204	-0.586648	99
Es	0.085460	-1.596277	0.077687	99
Es	-0.816927	0.067275	-0.048913	99
Es	-2.257762	-0.090457	0.253469	99
Es	-2.365411	-0.705472	0.648598	99
Es	2.864139	-0.028017	0.372303	99
Es	1.407920	-0.523073	-0.743241	99
Es	1.313636	0.916646	-0.367976	99
Es	1.649318	1.390910	-0.819863	99
Es	1.294285	0.124635	-0.685990	99
Es	-1.536195	-0.014534	0.105771	99
Es	-0.409444	-0.524548	-0.252394	99
Es	-2.513835	0.485650	0.640777	99
Es	-0.216003	-1.395626	-1.079446	99
Es	0.055517	-1.083615	-0.461110	99
Es	1.766447	0.612317	0.182465	99
Es	1.887018	-0.269525	1.100578	99
42
Properties=species:S:1:pos:R:3:Z:I:1 energy=-286.9238161024564 field_type=dipole dipole="0.000000 0.000000 0.000000" charge=0
C	-2.257806	-0.090453	0.253479	6
C	-0.816856	0.067397	-0.048931	6
C	-0.068146	1.178158	0.003779	6
C	1.313594	0.916887	-0.367971	6
C	2.131944	-0.055623	0.438249	6
N	1.408194	-0.523322	-0.743771	7
C	0.055414	-1.083693	-0.461101	6
H	-2.430576	-0.995872	0.841349	1
H	-2.834946	-0.164913	-0.670881	1
H	-2.642226	0.756598	0.830629	1
H	-0.427356	2.160928	0.272259	1
H	1.806243	1.602237	-1.046821	1
H	3.209414	-0.008413	0.340479	1
H	1.780804	-0.367772	1.413419	1
H	0.105934	-1.848012	0.320279	1
H	-0.333626	-1.544132	-1.374451	1
Es	-2.634252	-0.142423	-0.373333	99
Es	1.766335	0.612409	0.182509	99
Es	-0.816927	0.067276	-0.048916	99
Es	1.593481	-0.629217	-1.029156	99
Es	-2.365372	-0.705504	0.648540	99
Es	0.826721	-0.765372	-0.586910	99
Es	2.864203	-0.027882	0.372293	99
Es	1.649250	1.390908	-0.819828	99
Es	1.407902	-0.523093	-0.743251	99
Es	-0.068070	1.178251	0.003770	99
Es	1.744310	-0.465162	-0.187512	99
Es	0.085430	-1.596220	0.077674	99
Es	-0.375276	0.586440	0.295583	99
Es	-1.536384	-0.014497	0.105671	99
Es	1.887052	-0.269512	1.100553	99
Es	0.055516	-1.083615	-0.461110	99
Es	0.636976	1.082794	-0.161824	99
Es	-0.216046	-1.395666	-1.079423	99
Es	1.313638	0.916644	-0.367973	99
Es	-2.257761	-0.090456	0.253470	99
Es	1.294499	0.124797	-0.685741	99
Es	-2.513865	0.485770	0.640846	99
Es	-0.515202	0.709155	-0.330214	99
Es	-0.409384	-0.524593	-0.252448	99
Es	2.131796	-0.055635	0.438050	99
Es	-0.304607	1.849977	0.185551	99
42
Properties=species:S:1:pos:R:3:Z:I:1 energy=-286.9238161024564 field_type=dipole dipole="0.000000 0.000000 0.000000" charge=0
C	-2.257806	-0.090453	0.253479	6
C	-0.816856	0.067397	-0.048931	6
C	-0.068146	1.178158	0.003779	6
C	1.313594	0.916887	-0.367971	6
C	2.131944	-0.055623	0.438249	6
N	1.408194	-0.523322	-0.743771	7
C	0.055414	-1.083693	-0.461101	6
H	-2.430576	-0.995872	0.841349	1
H	-2.834946	-0.164913	-0.670881	1
H	-2.642226	0.756598	0.830629	1
H	-0.427356	2.160928	0.272259	1
H	1.806243	1.602237	-1.046821	1
H	3.209414	-0.008413	0.340479	1
H	1.780804	-0.367772	1.413419	1
H	0.105934	-1.848012	0.320279	1
H	-0.333626	-1.544132	-1.374451	1
Es	1.744604	-0.465498	-0.187585	99
Es	-1.536367	-0.014458	0.105715	99
Es	-0.068074	1.178235	0.003776	99
Es	0.637051	1.082763	-0.161760	99
Es	2.864008	-0.027889	0.372349	99
Es	1.294590	0.124937	-0.686239	99
Es	1.593163	-0.628970	-1.028364	99
Es	-2.634279	-0.142444	-0.373305	99
Es	0.085420	-1.596212	0.077634	99
Es	-0.515000	0.709159	-0.330255	99
Es	-2.365376	-0.705457	0.648488	99
Es	-0.409323	-0.524610	-0.252358	99
Es	0.826702	-0.765635	-0.587266	99
Es	-0.216074	-1.395668	-1.079356	99
Es	-0.816926	0.067281	-0.048914	99
Es	1.313639	0.916645	-0.367973	99
Es	-0.375481	0.586491	0.295310	99
Es	0.055517	-1.083615	-0.461111	99
Es	-0.304655	1.849989	0.185627	99
Es	-2.513902	0.485746	0.640878	99
Es	1.766359	0.612642	0.182608	99
Es	-2.257762	-0.090456	0.253470	99
Es	2.131797	-0.055633	0.438052	99
Es	1.649242	1.390892	-0.819760	99
Es	1.887146	-0.269542	1.100520	99
Es	1.407944	-0.523116	-0.743309	99
42
Properties=species:S:1:pos:R:3:Z:I:1 energy=-286.9238161024564 field_type=dipole dipole="0.000000 0.000000 0.000000" charge=0
C	-2.257806	-0.090453	0.253479	6
C	-0.816856	0.067397	-0.048931	6
C	-0.068146	1.178158	0.003779	6
C	1.313594	0.916887	-0.367971	6
C	2.131944	-0.055623	0.438249	6
N	1.408194	-0.523322	-0.743771	7
C	0.055414	-1.083693	-0.461101	6
H	-2.430576	-0.995872	0.841349	1
H	-2.834946	-0.164913	-0.670881	1
H	-2.642226	0.756598	0.830629	1
H	-0.427356	2.160928	0.272259	1
H	1.806243	1.602237	-1.046821	1
H	3.209414	-0.008413	0.340479	1
H	1.780804	-0.367772	1.413419	1
H	0.105934	-1.848012	0.320279	1
H	-0.333626	-1.544132	-1.374451	1
Es	1.313640	0.916646	-0.367971	99
Es	1.744677	-0.465904	-0.187771	99
Es	1.407931	-0.523069	-0.743245	99
Es	-0.375627	0.586475	0.295141	99
Es	1.294573	0.125003	-0.686138	99
Es	-0.514905	0.709161	-0.330236	99
Es	-2.257763	-0.090456	0.253469	99
Es	1.649195	1.390868	-0.819693	99
Es	0.085398	-1.596196	0.077629	99
Es	-1.536387	-0.014397	0.105784	99
Es	0.826784	-0.765664	-0.587302	99
Es	-0.816923	0.067280	-0.048915	99
Es	-0.304662	1.849967	0.185690	99
Es	-0.216067	-1.395683	-1.079364	99
Es	1.593023	-0.628819	-1.028408	99
Es	2.863954	-0.027919	0.372381	99
Es	1.887171	-0.269505	1.100485	99
Es	-2.634315	-0.142396	-0.373327	99
Es	-0.068074	1.178246	0.003777	99
Es	1.766378	0.612850	0.182676	99
Es	0.055513	-1.083616	-0.461110	99
Es	2.131804	-0.055632	0.438059	99
Es	-2.365398	-0.705471	0.648543	99
Es	-2.513854	0.485687	0.640833	99
Es	0.637151	1.082795	-0.161743	99
Es	-0.409251	-0.524677	-0.252372	99
