39
Properties=species:S:1:pos:R:3:Z:I:1 energy=-338.7687433164367 field_type=dipole dipole="0.000000 0.000000 0.000000" charge=0
N	-0.436966	-1.743425	-1.015956	7
C	-0.899356	-1.024285	0.174134	6
C	-0.275166	0.329715	0.261754	6
N	-0.990046	1.366065	0.726104	7
O	-0.139466	2.456305	0.698154	8
C	1.073895	2.069315	0.237794	6
C	1.049425	0.730345	-0.045876	6
H	-0.956836	-2.616635	-1.087696	1
H	0.538274	-2.006005	-0.890686	1
H	-0.652476	-1.603105	1.071174	1
H	-1.990556	-0.934025	0.126364	1
H	1.820844	2.845845	0.175314	1
H	1.858425	0.129895	-0.430576	1
Es	0.150872	-1.908018	-0.918572	99
Es	-0.275204	0.329717	0.261773	99
Es	-0.750211	1.007264	0.265333	99
Es	0.404810	0.471696	0.087822	99
Es	-0.899246	-1.024282	0.174014	99
Es	-0.254960	2.739049	0.667309	99
Es	0.275818	2.318312	0.431918	99
Es	1.588711	0.320182	-0.301756	99
Es	-1.340096	1.424049	0.849224	99
Es	-0.989431	1.366025	0.725903	99
Es	-0.473349	1.986958	0.684040	99
Es	-0.745005	-2.274248	-1.034601	99
Es	-0.572349	-0.334998	0.212349	99
Es	-0.583937	0.884819	0.791440	99
Es	1.125594	1.238035	0.378337	99
Es	1.049423	0.730327	-0.045890	99
Es	-0.139308	2.455886	0.697890	99
Es	0.953759	1.369947	-0.203917	99
Es	1.073688	2.069477	0.237888	99
Es	-0.625554	-1.441298	-0.481027	99
Es	-1.630690	-0.959078	0.142609	99
Es	0.033798	2.345775	0.872678	99
Es	-0.436912	-1.743736	-1.015454	99
Es	-0.722653	-1.403600	0.792992	99
Es	1.573843	2.584266	0.194318	99
Es	-0.477098	-1.550278	-1.306943	99
39
Properties=species:S:1:pos:R:3:Z:I:1 energy=-338.7687433164367 field_type=dipole dipole="0.000000 0.000000 0.000000" charge=0
N	-0.436966	-1.743425	-1.015956	7
C	-0.899356	-1.024285	0.174134	6
C	-0.275166	0.329715	0.261754	6
N	-0.990046	1.366065	0.726104	7
O	-0.139466	2.456305	0.698154	8
C	1.073895	2.069315	0.237794	6
C	1.049425	0.730345	-0.045876	6
H	-0.956836	-2.616635	-1.087696	1
H	0.538274	-2.006005	-0.890686	1
H	-0.652476	-1.603105	1.071174	1
H	-1.990556	-0.934025	0.126364	1
H	1.820844	2.845845	0.175314	1
H	1.858425	0.129895	-0.430576	1
Es	-0.899246	-1.024281	0.174018	99
Es	-0.436888	-1.743761	-1.015446	99
Es	-0.181841	2.688447	0.894484	99
Es	-0.107446	2.443176	0.432141	99
Es	-1.340164	1.423999	0.848980	99
Es	-1.630746	-0.959122	0.142618	99
Es	-0.463325	1.980104	0.715902	99
Es	-0.139287	2.455882	0.698039	99
Es	1.128429	1.242472	0.375875	99
Es	-0.476719	-1.550104	-1.306445	99
Es	1.049436	0.730315	-0.045842	99
Es	1.588920	0.320124	-0.301259	99
Es	-0.572313	-0.335083	0.212451	99
Es	-0.275204	0.329718	0.261774	99
Es	-0.748732	1.007269	0.263915	99
Es	0.150791	-1.908054	-0.918515	99
Es	-0.722682	-1.403469	0.792938	99
Es	-0.989430	1.366024	0.725907	99
Es	-0.625501	-1.441443	-0.480926	99
Es	0.334194	2.278123	0.615201	99
Es	-0.745307	-2.274322	-1.035225	99
Es	-0.585839	0.884903	0.790659	99
Es	0.405819	0.471084	0.090703	99
Es	1.574330	2.584015	0.195514	99
Es	0.949372	1.366761	-0.205674	99
Es	1.073692	2.069474	0.237891	99
39
Properties=species:S:1:pos:R:3:Z:I:1 energy=-338.7687433164367 field_type=dipole dipole="0.000000 0.000000 0.000000" charge=0
N	-0.436966	-1.743425	-1.015956	7
C	-0.899356	-1.024285	0.174134	6
C	-0.275166	0.329715	0.261754	6
N	-0.990046	1.366065	0.726104	7
O	-0.139466	2.456305	0.698154	8
C	1.073895	2.069315	0.237794	6
C	1.049425	0.730345	-0.045876	6
H	-0.956836	-2.616635	-1.087696	1
H	0.538274	-2.006005	-0.890686	1
H	-0.652476	-1.603105	1.071174	1
H	-1.990556	-0.934025	0.126364	1
H	1.820844	2.845845	0.175314	1
H	1.858425	0.129895	-0.430576	1
Es	-0.749711	1.006930	0.265854	99
Es	-0.476396	-1.550180	-1.306216	99
Es	0.036574	2.343374	0.869600	99
Es	1.588809	0.320173	-0.301527	99
Es	-0.572444	-0.335104	0.212312	99
Es	0.952960	1.369520	-0.204041	99
Es	-0.436894	-1.743752	-1.015442	99
Es	-1.630673	-0.959078	0.142665	99
Es	-0.254291	2.740361	0.672740	99
Es	-0.722741	-1.403457	0.792939	99
Es	-0.139297	2.455880	0.697869	99
Es	-0.745481	-2.274206	-1.035581	99
Es	-0.625619	-1.441374	-0.480984	99
Es	-0.989425	1.366032	0.725899	99
Es	-0.584087	0.884729	0.791434	99
Es	1.574077	2.584243	0.194292	99
Es	0.273128	2.319537	0.429337	99
Es	-0.474160	1.987463	0.684451	99
Es	-0.275203	0.329712	0.261773	99
Es	-0.899247	-1.024280	0.174016	99
Es	1.125605	1.238685	0.377973	99
Es	0.405131	0.471664	0.088324	99
Es	1.049425	0.730337	-0.045880	99
Es	-1.340190	1.423796	0.848407	99
Es	0.150765	-1.908221	-0.918422	99
Es	1.073697	2.069464	0.237887	99
39
Properties=species:S:1:pos:R:3:Z:I:1 energy=-338.7687433164367 field_type=dipole dipole="0.000000 0.000000 0.000000" charge=0
N	-0.436966	-1.743425	-1.015956	7
C	-0.899356	-1.024285	0.174134	6
C	-0.275166	0.329715	0.261754	6
N	-0.990046	1.366065	0.726104	7
O	-0.139466	2.456305	0.698154	8
C	1.073895	2.069315	0.237794	6
C	1.049425	0.730345	-0.045876	6
H	-0.956836	-2.616635	-1.087696	1
H	0.538274	-2.006005	-0.890686	1
H	-0.652476	-1.603105	1.071174	1
H	-1.990556	-0.934025	0.126364	1
H	1.820844	2.845845	0.175314	1
H	1.858425	0.129895	-0.430576	1
Es	-0.899247	-1.024281	0.174016	99
Es	0.275208	2.318710	0.431323	99
Es	-0.584080	0.884891	0.790944	99
Es	-0.749702	1.006695	0.265622	99
Es	-0.254107	2.738870	0.668550	99
Es	0.151035	-1.907987	-0.918867	99
Es	-0.275204	0.329718	0.261772	99
Es	1.125930	1.239455	0.377770	99
Es	-0.572493	-0.335266	0.212409	99
Es	-0.745302	-2.274220	-1.035397	99
Es	-0.989416	1.366039	0.725908	99
Es	1.073690	2.069473	0.237887	99
Es	-0.476798	-1.550571	-1.306002	99
Es	-0.474134	1.987157	0.684607	99
Es	-0.436908	-1.743720	-1.015473	99
Es	0.034394	2.345930	0.871840	99
Es	-1.340180	1.423843	0.848856	99
Es	-0.139295	2.455891	0.697895	99
Es	1.049430	0.730319	-0.045863	99
Es	0.405247	0.471630	0.088524	99
Es	-1.630728	-0.959026	0.142807	99
Es	1.574162	2.584231	0.194295	99
Es	1.588865	0.320178	-0.301449	99
Es	-0.722719	-1.403337	0.792839	99
Es	-0.625629	-1.441325	-0.481013	99
Es	0.952296	1.368952	-0.204121	99
39
Properties=species:S:1:pos:R:3:Z:I:1 energy=-338.7687433164367 field_type=dipole dipole="0.000000 0.000000 0.000000" charge=0
N	-0.436966	-1.743425	-1.015956	7
C	-0.899356	-1.024285	0.174134	6
C	-0.275166	0.329715	0.261754	6
N	-0.990046	1.366065	0.726104	7
O	-0.139466	2.456305	0.698154	8
C	1.073895	2.069315	0.237794	6
C	1.049425	0.730345	-0.045876	6
H	-0.956836	-2.616635	-1.087696	1
H	0.538274	-2.006005	-0.890686	1
H	-0.652476	-1.603105	1.071174	1
H	-1.990556	-0.934025	0.126364	1
H	1.820844	2.845845	0.175314	1
H	1.858425	0.129895	-0.430576	1
Es	1.588864	0.320104	-0.301227	99
Es	-0.586117	0.885123	0.790498	99
Es	-0.099295	2.433955	0.432555	99
Es	-0.463940	1.980545	0.717913	99
Es	-0.275203	0.329717	0.261775	99
Es	-0.572532	-0.335209	0.212456	99
Es	-0.989423	1.366039	0.725918	99
Es	0.948245	1.366166	-0.205709	99
Es	-0.188837	2.697359	0.883433	99
Es	0.151013	-1.907975	-0.919039	99
Es	1.574576	2.583975	0.195248	99
Es	1.128609	1.243225	0.375588	99
Es	-0.139289	2.455865	0.698047	99
Es	1.073690	2.069472	0.237894	99
Es	-0.748703	1.006786	0.263983	99
Es	-1.339853	1.423663	0.848820	99
Es	0.406331	0.470983	0.091338	99
Es	-0.476672	-1.550470	-1.305589	99
Es	0.334035	2.278662	0.624060	99
Es	-0.745444	-2.274226	-1.035834	99
Es	-0.625591	-1.441433	-0.480768	99
Es	-0.899245	-1.024282	0.174018	99
Es	-1.630673	-0.959031	0.142725	99
Es	1.049429	0.730319	-0.045870	99
Es	-0.722756	-1.403372	0.792925	99
Es	-0.436908	-1.743708	-1.015479	99
39
Properties=species:S:1:pos:R:3:Z:I:1 energy=-338.7687433164367 field_type=dipole dipole="0.000000 0.000000 0.000000" charge=0
N	-0.436966	-1.743425	-1.015956	7
C	-0.899356	-1.024285	0.174134	6
C	-0.275166	0.329715	0.261754	6
N	-0.990046	1.366065	0.726104	7
O	-0.139466	2.456305	0.698154	8
C	1.073895	2.069315	0.237794	6
C	1.049425	0.730345	-0.045876	6
H	-0.956836	-2.616635	-1.087696	1
H	0.538274	-2.006005	-0.890686	1
H	-0.652476	-1.603105	1.071174	1
H	-1.990556	-0.934025	0.126364	1
H	1.820844	2.845845	0.175314	1
H	1.858425	0.129895	-0.430576	1
Es	0.044288	2.338986	0.867118	99
Es	-0.476427	-1.550845	-1.305876	99
Es	-0.275205	0.329719	0.261772	99
Es	-0.253288	2.741184	0.681777	99
Es	-0.625712	-1.440968	-0.481006	99
Es	-0.722705	-1.403313	0.792915	99
Es	1.125434	1.239056	0.377817	99
Es	1.049421	0.730333	-0.045896	99
Es	-0.139359	2.455945	0.697973	99
Es	-0.899248	-1.024281	0.174018	99
Es	0.405337	0.471693	0.088329	99
Es	-0.989433	1.366019	0.725903	99
Es	-0.475069	1.988077	0.684335	99
Es	-0.745399	-2.274200	-1.035611	99
Es	-1.339988	1.423791	0.848047	99
Es	-0.749700	1.006135	0.266073	99
Es	0.952352	1.369181	-0.203752	99
Es	-0.436902	-1.743707	-1.015481	99
Es	1.073691	2.069474	0.237890	99
Es	1.588838	0.320207	-0.301497	99
Es	-1.630679	-0.959118	0.142762	99
Es	0.265887	2.322934	0.422705	99
Es	-0.572741	-0.335234	0.212292	99
Es	0.150890	-1.908101	-0.918759	99
Es	1.574342	2.584163	0.194218	99
Es	-0.584312	0.885123	0.791616	99
39
Properties=species:S:1:pos:R:3:Z:I:1 energy=-338.7687433164367 field_type=dipole dipole="0.000000 0.000000 0.000000" charge=0
N	-0.436966	-1.743425	-1.015956	7
C	-0.899356	-1.024285	0.174134	6
C	-0.275166	0.329715	0.261754	6
N	-0.990046	1.366065	0.726104	7
O	-0.139466	2.456305	0.698154	8
C	1.073895	2.069315	0.237794	6
C	1.049425	0.730345	-0.045876	6
H	-0.956836	-2.616635	-1.087696	1
H	0.538274	-2.006005	-0.890686	1
H	-0.652476	-1.603105	1.071174	1
H	-1.990556	-0.934025	0.126364	1
H	1.820844	2.845845	0.175314	1
H	1.858425	0.129895	-0.430576	1
Es	-0.275203	0.329717	0.261774	99
Es	-0.139284	2.455883	0.698040	99
Es	-0.476719	-1.550912	-1.305737	99
Es	0.331743	2.278303	0.634902	99
Es	-0.464983	1.980937	0.717169	99
Es	-0.572696	-0.335365	0.212550	99
Es	-0.436895	-1.743759	-1.015442	99
Es	1.073692	2.069472	0.237892	99
Es	-0.091036	2.430003	0.428965	99
Es	0.406326	0.471074	0.091123	99
Es	0.948412	1.366446	-0.205375	99
Es	0.151011	-1.907872	-0.919097	99
Es	-0.899248	-1.024280	0.174020	99
Es	1.127929	1.242696	0.375528	99
Es	-0.989457	1.366008	0.725912	99
Es	-1.339452	1.423476	0.849264	99
Es	-0.745282	-2.274281	-1.035539	99
Es	-0.586251	0.884959	0.790045	99
Es	-0.625648	-1.441066	-0.480988	99
Es	1.049428	0.730321	-0.045868	99
Es	1.574742	2.583916	0.195181	99
Es	-1.630614	-0.959018	0.142763	99
Es	1.588913	0.320177	-0.301260	99
Es	-0.749103	1.007037	0.264045	99
Es	-0.193211	2.701669	0.876873	99
Es	-0.722802	-1.403291	0.792941	99
39
Properties=species:S:1:pos:R:3:Z:I:1 energy=-338.7687433164367 field_type=dipole dipole="0.000000 0.000000 0.000000" charge=0
N	-0.436966	-1.743425	-1.015956	7
C	-0.899356	-1.024285	0.174134	6
C	-0.275166	0.329715	0.261754	6
N	-0.990046	1.366065	0.726104	7
O	-0.139466	2.456305	0.698154	8
C	1.073895	2.069315	0.237794	6
C	1.049425	0.730345	-0.045876	6
H	-0.956836	-2.616635	-1.087696	1
H	0.538274	-2.006005	-0.890686	1
H	-0.652476	-1.603105	1.071174	1
H	-1.990556	-0.934025	0.126364	1
H	1.820844	2.845845	0.175314	1
H	1.858425	0.129895	-0.430576	1
Es	1.124711	1.238463	0.377980	99
Es	1.073691	2.069473	0.237890	99
Es	0.150919	-1.908316	-0.918919	99
Es	-0.749606	1.006012	0.265997	99
Es	-1.630605	-0.958993	0.142796	99
Es	-0.722808	-1.403231	0.792950	99
Es	-0.253168	2.740523	0.676553	99
Es	0.036041	2.342476	0.866876	99
Es	-0.572818	-0.335389	0.212342	99
Es	-0.275204	0.329718	0.261770	99
Es	-0.899248	-1.024281	0.174018	99
Es	-0.139304	2.455896	0.697987	99
Es	-1.339694	1.423592	0.848245	99
Es	-0.584100	0.884686	0.791121	99
Es	1.588875	0.320265	-0.301545	99
Es	-0.625589	-1.441254	-0.480899	99
Es	1.049425	0.730325	-0.045884	99
Es	-0.476502	-1.550673	-1.305828	99
Es	0.952830	1.370157	-0.203550	99
Es	0.405335	0.471785	0.088014	99
Es	-0.475191	1.987943	0.683935	99
Es	-0.989429	1.366028	0.725907	99
Es	1.574498	2.584126	0.194212	99
Es	0.273604	2.320629	0.428897	99
Es	-0.745452	-2.273960	-1.035730	99
Es	-0.436902	-1.743748	-1.015457	99
39
Properties=species:S:1:pos:R:3:Z:I:1 energy=-338.7687433164367 field_type=dipole dipole="0.000000 0.000000 0.000000" charge=0
N	-0.436966	-1.743425	-1.015956	7
C	-0.899356	-1.024285	0.174134	6
C	-0.275166	0.329715	0.261754	6
N	-0.990046	1.366065	0.726104	7
O	-0.139466	2.456305	0.698154	8
C	1.073895	2.069315	0.237794	6
C	1.049425	0.730345	-0.045876	6
H	-0.956836	-2.616635	-1.087696	1
H	0.538274	-2.006005	-0.890686	1
H	-0.652476	-1.603105	1.071174	1
H	-1.990556	-0.934025	0.126364	1
H	1.820844	2.845845	0.175314	1
H	1.858425	0.129895	-0.430576	1
Es	1.588916	0.320205	-0.301263	99
Es	1.049426	0.730325	-0.045880	99
Es	-1.339435	1.423312	0.849031	99
Es	1.574896	2.583911	0.195093	99
Es	-0.091561	2.429401	0.430965	99
Es	1.127632	1.242657	0.375522	99
Es	0.150950	-1.908031	-0.919054	99
Es	-0.625752	-1.440882	-0.480994	99
Es	-0.989428	1.366033	0.725909	99
Es	-1.630589	-0.958990	0.142797	99
Es	-0.465273	1.981074	0.717514	99
Es	-0.275204	0.329717	0.261772	99
Es	0.406478	0.471085	0.091207	99
Es	-0.745402	-2.274172	-1.035861	99
Es	-0.572834	-0.335466	0.212557	99
Es	1.073691	2.069472	0.237891	99
Es	-0.436897	-1.743745	-1.015469	99
Es	-0.748839	1.006755	0.264250	99
Es	-0.139249	2.455854	0.698094	99
Es	-0.476393	-1.551130	-1.305485	99
Es	0.948337	1.366711	-0.205243	99
Es	0.332420	2.278613	0.633439	99
Es	-0.193262	2.702192	0.876055	99
Es	-0.586235	0.884850	0.789865	99
Es	-0.899248	-1.024282	0.174018	99
Es	-0.722832	-1.403219	0.792948	99
39
Properties=species:S:1:pos:R:3:Z:I:1 energy=-338.7687433164367 field_type=dipole dipole="0.000000 0.000000 0.000000" charge=0
N	-0.436966	-1.743425	-1.015956	7
C	-0.899356	-1.024285	0.174134	6
C	-0.275166	0.329715	0.261754	6
N	-0.990046	1.366065	0.726104	7
O	-0.139466	2.456305	0.698154	8
C	1.073895	2.069315	0.237794	6
C	1.049425	0.730345	-0.045876	6
H	-0.956836	-2.616635	-1.087696	1
H	0.538274	-2.006005	-0.890686	1
H	-0.652476	-1.603105	1.071174	1
H	-1.990556	-0.934025	0.126364	1
H	1.820844	2.845845	0.175314	1
H	1.858425	0.129895	-0.430576	1
Es	0.044582	2.335847	0.859725	99
Es	-0.749799	1.006185	0.266172	99
Es	-0.139262	2.455880	0.698078	99
Es	0.150889	-1.908054	-0.919079	99
Es	-0.625753	-1.440900	-0.480949	99
Es	-0.572950	-0.335488	0.212424	99
Es	-0.989429	1.366033	0.725909	99
Es	-0.722857	-1.403171	0.792940	99
Es	-0.584312	0.884594	0.790822	99
Es	-1.339507	1.423360	0.848355	99
Es	1.073691	2.069473	0.237890	99
Es	-0.475939	1.988365	0.684575	99
Es	1.049425	0.730326	-0.045882	99
Es	-0.745357	-2.274147	-1.035915	99
Es	-0.476354	-1.551165	-1.305490	99
Es	-0.252132	2.743191	0.690612	99
Es	1.588838	0.320291	-0.301478	99
Es	0.405511	0.471803	0.088013	99
Es	-1.630571	-0.958972	0.142827	99
Es	0.265147	2.324517	0.421035	99
Es	-0.899249	-1.024281	0.174019	99
Es	-0.275204	0.329718	0.261772	99
Es	0.952579	1.369955	-0.203433	99
Es	-0.436892	-1.743742	-1.015472	99
Es	1.574687	2.584084	0.194240	99
Es	1.124527	1.238547	0.377970	99
39
Properties=species:S:1:pos:R:3:Z:I:1 energy=-338.7687433164367 field_type=dipole dipole="0.000000 0.000000 0.000000" charge=0
N	-0.436966	-1.743425	-1.015956	7
C	-0.899356	-1.024285	0.174134	6
C	-0.275166	0.329715	0.261754	6
N	-0.990046	1.366065	0.726104	7
O	-0.139466	2.456305	0.698154	8
C	1.073895	2.069315	0.237794	6
C	1.049425	0.730345	-0.045876	6
H	-0.956836	-2.616635	-1.087696	1
H	0.538274	-2.006005	-0.890686	1
H	-0.652476	-1.603105	1.071174	1
H	-1.990556	-0.934025	0.126364	1
H	1.820844	2.845845	0.175314	1
H	1.858425	0.129895	-0.430576	1
Es	-1.339210	1.423161	0.848923	99
Es	-0.745258	-2.274351	-1.035695	99
Es	-0.139162	2.455758	0.698198	99
Es	0.948629	1.367275	-0.204889	99
Es	1.049426	0.730327	-0.045880	99
Es	-0.573028	-0.335553	0.212628	99
Es	1.575023	2.583924	0.194966	99
Es	-0.899251	-1.024281	0.174021	99
Es	-0.476632	-1.551439	-1.305359	99
Es	-0.989427	1.366033	0.725908	99
Es	-0.722864	-1.403120	0.792909	99
Es	-0.625648	-1.440774	-0.480985	99
Es	-0.436898	-1.743741	-1.015462	99
Es	-0.466113	1.981438	0.717082	99
Es	0.151005	-1.907738	-0.919427	99
Es	-0.192916	2.701674	0.875792	99
Es	0.406499	0.471149	0.090902	99
Es	-0.748733	1.006306	0.264351	99
Es	1.588936	0.320243	-0.301304	99
Es	-0.275204	0.329721	0.261773	99
Es	1.073688	2.069476	0.237893	99
Es	-1.630590	-0.958968	0.142851	99
Es	-0.091509	2.430034	0.431577	99
Es	0.332663	2.278587	0.633504	99
Es	-0.586181	0.884911	0.789779	99
Es	1.127067	1.242199	0.375623	99
