42
Properties=species:S:1:pos:R:3:Z:I:1 energy=-339.9512952230672 field_type=dipole dipole="0.000000 0.000000 0.000000" charge=0
N	-0.441741	0.717506	2.815599	7
C	-0.866951	0.452446	1.632739	6
N	-0.275402	-0.469974	0.835309	7
C	-0.305261	-0.218334	-0.575281	6
C	0.809669	0.711096	-1.071361	6
O	1.305509	-0.301514	-1.981531	8
C	0.419029	-1.288774	-1.400451	6
H	-1.040271	1.433146	3.243778	1
H	-1.746261	0.958476	1.196179	1
H	0.613789	-0.785624	1.216199	1
H	-1.305311	0.019116	-0.953411	1
H	1.577689	0.993516	-0.344101	1
H	0.465809	1.601046	-1.606491	1
H	-0.193892	-1.778234	-2.162721	1
H	0.983599	-2.043894	-0.844451	1
Es	0.419145	-1.288598	-1.400523	99
Es	-0.001458	-0.812079	-0.953366	99
Es	-0.458475	0.833927	2.244936	99
Es	-0.791295	0.422630	2.444110	99
Es	-0.305226	-0.218371	-0.575128	99
Es	1.325170	0.898695	-0.561857	99
Es	0.809728	0.710939	-1.071504	99
Es	0.261225	-0.638536	1.041810	99
Es	0.217694	0.318210	-0.773569	99
Es	1.137779	0.101228	-1.644696	99
Es	-0.151582	0.565605	2.978825	99
Es	0.981274	-0.697830	-1.774962	99
Es	1.305250	-0.301495	-1.981272	99
Es	1.599508	-0.370562	-1.913601	99
Es	0.573133	1.325193	-1.435048	99
Es	-0.866940	0.452351	1.632598	99
Es	-0.812574	1.147360	3.063943	99
Es	-0.473507	-0.017588	1.145843	99
Es	0.798789	-1.800879	-1.005241	99
Es	-0.442130	0.717675	2.815325	99
Es	1.195452	-0.235147	-2.259072	99
Es	-1.463456	0.793123	1.320278	99
Es	-0.287125	-0.344025	0.236801	99
Es	-0.002690	-1.627087	-1.919478	99
Es	-0.986466	-0.050341	-0.819899	99
Es	-0.275102	-0.469330	0.835312	99
Es	-0.516292	-0.642364	0.937918	99
42
Properties=species:S:1:pos:R:3:Z:I:1 energy=-339.9512952230672 field_type=dipole dipole="0.000000 0.000000 0.000000" charge=0
N	-0.441741	0.717506	2.815599	7
C	-0.866951	0.452446	1.632739	6
N	-0.275402	-0.469974	0.835309	7
C	-0.305261	-0.218334	-0.575281	6
C	0.809669	0.711096	-1.071361	6
O	1.305509	-0.301514	-1.981531	8
C	0.419029	-1.288774	-1.400451	6
H	-1.040271	1.433146	3.243778	1
H	-1.746261	0.958476	1.196179	1
H	0.613789	-0.785624	1.216199	1
H	-1.305311	0.019116	-0.953411	1
H	1.577689	0.993516	-0.344101	1
H	0.465809	1.601046	-1.606491	1
H	-0.193892	-1.778234	-2.162721	1
H	0.983599	-2.043894	-0.844451	1
Es	-0.515821	-0.641346	0.938356	99
Es	-0.287489	-0.344919	0.236333	99
Es	-0.458987	0.833873	2.245033	99
Es	0.261099	-0.638816	1.041985	99
Es	-0.442118	0.717673	2.815346	99
Es	0.798760	-1.800889	-1.005283	99
Es	0.573200	1.325118	-1.434972	99
Es	1.138253	0.101691	-1.644532	99
Es	-0.791122	0.421890	2.444313	99
Es	-0.305225	-0.218370	-0.575129	99
Es	-0.002638	-1.627082	-1.919405	99
Es	0.217612	0.318300	-0.773515	99
Es	1.325152	0.898760	-0.561907	99
Es	-0.812630	1.147270	3.064355	99
Es	-0.473356	-0.017327	1.145668	99
Es	0.809728	0.710934	-1.071508	99
Es	1.196866	-0.235090	-2.259408	99
Es	-0.866943	0.452346	1.632600	99
Es	-0.001528	-0.812056	-0.953360	99
Es	0.419144	-1.288599	-1.400525	99
Es	-0.275185	-0.469495	0.835311	99
Es	-1.463472	0.793151	1.320315	99
Es	0.981050	-0.698484	-1.775233	99
Es	-0.986446	-0.050381	-0.819889	99
Es	-0.151242	0.566480	2.978083	99
Es	1.597940	-0.370415	-1.913310	99
Es	1.305227	-0.301509	-1.981236	99
42
Properties=species:S:1:pos:R:3:Z:I:1 energy=-339.9512952230672 field_type=dipole dipole="0.000000 0.000000 0.000000" charge=0
N	-0.441741	0.717506	2.815599	7
C	-0.866951	0.452446	1.632739	6
N	-0.275402	-0.469974	0.835309	7
C	-0.305261	-0.218334	-0.575281	6
C	0.809669	0.711096	-1.071361	6
O	1.305509	-0.301514	-1.981531	8
C	0.419029	-1.288774	-1.400451	6
H	-1.040271	1.433146	3.243778	1
H	-1.746261	0.958476	1.196179	1
H	0.613789	-0.785624	1.216199	1
H	-1.305311	0.019116	-0.953411	1
H	1.577689	0.993516	-0.344101	1
H	0.465809	1.601046	-1.606491	1
H	-0.193892	-1.778234	-2.162721	1
H	0.983599	-2.043894	-0.844451	1
Es	0.217568	0.318414	-0.773554	99
Es	0.261029	-0.639630	1.042058	99
Es	-0.812526	1.147411	3.064399	99
Es	-0.442126	0.717658	2.815306	99
Es	1.196000	-0.235292	-2.257774	99
Es	-0.275173	-0.469395	0.835333	99
Es	1.598596	-0.369857	-1.914957	99
Es	-0.002641	-1.627118	-1.919365	99
Es	-0.472351	-0.017035	1.145082	99
Es	1.325103	0.898785	-0.561927	99
Es	-0.986429	-0.050452	-0.819807	99
Es	-0.151858	0.565950	2.978310	99
Es	0.419144	-1.288599	-1.400525	99
Es	0.798720	-1.800853	-1.005344	99
Es	-0.305225	-0.218368	-0.575130	99
Es	-1.463495	0.793197	1.320329	99
Es	1.305302	-0.301506	-1.981223	99
Es	0.809728	0.710937	-1.071506	99
Es	-0.287595	-0.344993	0.236311	99
Es	-0.516662	-0.640773	0.938808	99
Es	1.138289	0.101970	-1.644819	99
Es	-0.001505	-0.812198	-0.953257	99
Es	-0.458361	0.834004	2.245321	99
Es	-0.866943	0.452346	1.632597	99
Es	-0.791214	0.422155	2.443788	99
Es	0.981226	-0.699151	-1.775025	99
Es	0.573226	1.325100	-1.434945	99
42
Properties=species:S:1:pos:R:3:Z:I:1 energy=-339.9512952230672 field_type=dipole dipole="0.000000 0.000000 0.000000" charge=0
N	-0.441741	0.717506	2.815599	7
C	-0.866951	0.452446	1.632739	6
N	-0.275402	-0.469974	0.835309	7
C	-0.305261	-0.218334	-0.575281	6
C	0.809669	0.711096	-1.071361	6
O	1.305509	-0.301514	-1.981531	8
C	0.419029	-1.288774	-1.400451	6
H	-1.040271	1.433146	3.243778	1
H	-1.746261	0.958476	1.196179	1
H	0.613789	-0.785624	1.216199	1
H	-1.305311	0.019116	-0.953411	1
H	1.577689	0.993516	-0.344101	1
H	0.465809	1.601046	-1.606491	1
H	-0.193892	-1.778234	-2.162721	1
H	0.983599	-2.043894	-0.844451	1
Es	-0.152021	0.566107	2.978034	99
Es	1.325077	0.898850	-0.562005	99
Es	0.217703	0.318280	-0.773441	99
Es	-0.002610	-1.627074	-1.919312	99
Es	1.305232	-0.301499	-1.981288	99
Es	-0.287800	-0.345400	0.236269	99
Es	1.138875	0.102250	-1.644517	99
Es	0.260993	-0.639759	1.041989	99
Es	-0.470952	-0.016680	1.144162	99
Es	-0.791538	0.421864	2.443952	99
Es	-0.305226	-0.218370	-0.575129	99
Es	1.597796	-0.370090	-1.914946	99
Es	-0.866944	0.452344	1.632596	99
Es	-0.275147	-0.469384	0.835324	99
Es	-0.986345	-0.050256	-0.819767	99
Es	0.809729	0.710935	-1.071508	99
Es	-0.442129	0.717669	2.815319	99
Es	0.419144	-1.288598	-1.400527	99
Es	0.798701	-1.800896	-1.005438	99
Es	0.981149	-0.699204	-1.775036	99
Es	-1.463515	0.793227	1.320345	99
Es	1.196426	-0.235278	-2.258056	99
Es	-0.458323	0.834050	2.245254	99
Es	-0.001707	-0.812223	-0.953297	99
Es	-0.517844	-0.640683	0.939864	99
Es	0.573181	1.325070	-1.434931	99
Es	-0.812075	1.147453	3.064574	99
42
Properties=species:S:1:pos:R:3:Z:I:1 energy=-339.9512952230672 field_type=dipole dipole="0.000000 0.000000 0.000000" charge=0
N	-0.441741	0.717506	2.815599	7
C	-0.866951	0.452446	1.632739	6
N	-0.275402	-0.469974	0.835309	7
C	-0.305261	-0.218334	-0.575281	6
C	0.809669	0.711096	-1.071361	6
O	1.305509	-0.301514	-1.981531	8
C	0.419029	-1.288774	-1.400451	6
H	-1.040271	1.433146	3.243778	1
H	-1.746261	0.958476	1.196179	1
H	0.613789	-0.785624	1.216199	1
H	-1.305311	0.019116	-0.953411	1
H	1.577689	0.993516	-0.344101	1
H	0.465809	1.601046	-1.606491	1
H	-0.193892	-1.778234	-2.162721	1
H	0.983599	-2.043894	-0.844451	1
Es	-0.287848	-0.345506	0.236221	99
Es	1.138347	0.102587	-1.644730	99
Es	0.419144	-1.288598	-1.400528	99
Es	-0.305226	-0.218370	-0.575128	99
Es	0.217530	0.318387	-0.773431	99
Es	0.798643	-1.800819	-1.005439	99
Es	0.981586	-0.699516	-1.775101	99
Es	0.573262	1.325098	-1.434884	99
Es	-0.866945	0.452347	1.632600	99
Es	-0.518017	-0.640493	0.940133	99
Es	1.597301	-0.369697	-1.914598	99
Es	-0.442136	0.717672	2.815314	99
Es	0.260927	-0.639815	1.041946	99
Es	-1.463583	0.793254	1.320355	99
Es	-0.986328	-0.050341	-0.819751	99
Es	-0.001631	-0.812228	-0.953313	99
Es	0.809728	0.710935	-1.071506	99
Es	-0.002573	-1.627149	-1.919291	99
Es	-0.458042	0.834033	2.245271	99
Es	1.325031	0.898804	-0.562019	99
Es	-0.152254	0.566420	2.978222	99
Es	-0.470613	-0.016539	1.144041	99
Es	-0.812869	1.147278	3.064551	99
Es	1.196990	-0.235691	-2.258275	99
Es	-0.790740	0.421732	2.443746	99
Es	-0.275185	-0.469542	0.835283	99
Es	1.305327	-0.301537	-1.981202	99
42
Properties=species:S:1:pos:R:3:Z:I:1 energy=-339.9512952230672 field_type=dipole dipole="0.000000 0.000000 0.000000" charge=0
N	-0.441741	0.717506	2.815599	7
C	-0.866951	0.452446	1.632739	6
N	-0.275402	-0.469974	0.835309	7
C	-0.305261	-0.218334	-0.575281	6
C	0.809669	0.711096	-1.071361	6
O	1.305509	-0.301514	-1.981531	8
C	0.419029	-1.288774	-1.400451	6
H	-1.040271	1.433146	3.243778	1
H	-1.746261	0.958476	1.196179	1
H	0.613789	-0.785624	1.216199	1
H	-1.305311	0.019116	-0.953411	1
H	1.577689	0.993516	-0.344101	1
H	0.465809	1.601046	-1.606491	1
H	-0.193892	-1.778234	-2.162721	1
H	0.983599	-2.043894	-0.844451	1
Es	-0.517360	-0.640765	0.939615	99
Es	1.305360	-0.301519	-1.981380	99
Es	0.261017	-0.639538	1.041952	99
Es	0.798595	-1.800880	-1.005523	99
Es	1.596552	-0.369685	-1.914568	99
Es	-0.275163	-0.469396	0.835335	99
Es	-0.866942	0.452347	1.632598	99
Es	0.419143	-1.288599	-1.400524	99
Es	1.197385	-0.235756	-2.258303	99
Es	-0.986282	-0.050350	-0.819704	99
Es	-0.442122	0.717661	2.815337	99
Es	-0.812676	1.147227	3.064633	99
Es	1.138695	0.102872	-1.644627	99
Es	-0.305224	-0.218370	-0.575131	99
Es	-0.287869	-0.345359	0.236202	99
Es	-0.151889	0.567206	2.977767	99
Es	-0.790949	0.420978	2.444001	99
Es	1.325031	0.898877	-0.562085	99
Es	-1.463539	0.793294	1.320347	99
Es	-0.002550	-1.627080	-1.919281	99
Es	0.217544	0.318446	-0.773363	99
Es	0.573241	1.325037	-1.434848	99
Es	-0.458469	0.834027	2.245390	99
Es	-0.001695	-0.812303	-0.953299	99
Es	-0.471359	-0.016862	1.144503	99
Es	0.809727	0.710938	-1.071505	99
Es	0.981627	-0.699740	-1.775054	99
42
Properties=species:S:1:pos:R:3:Z:I:1 energy=-339.9512952230672 field_type=dipole dipole="0.000000 0.000000 0.000000" charge=0
N	-0.441741	0.717506	2.815599	7
C	-0.866951	0.452446	1.632739	6
N	-0.275402	-0.469974	0.835309	7
C	-0.305261	-0.218334	-0.575281	6
C	0.809669	0.711096	-1.071361	6
O	1.305509	-0.301514	-1.981531	8
C	0.419029	-1.288774	-1.400451	6
H	-1.040271	1.433146	3.243778	1
H	-1.746261	0.958476	1.196179	1
H	0.613789	-0.785624	1.216199	1
H	-1.305311	0.019116	-0.953411	1
H	1.577689	0.993516	-0.344101	1
H	0.465809	1.601046	-1.606491	1
H	-0.193892	-1.778234	-2.162721	1
H	0.983599	-2.043894	-0.844451	1
Es	-0.517474	-0.640740	0.940171	99
Es	-0.791069	0.421614	2.444254	99
Es	0.980998	-0.699755	-1.775394	99
Es	-0.986237	-0.050406	-0.819699	99
Es	0.798537	-1.800867	-1.005579	99
Es	-0.471034	-0.016728	1.144156	99
Es	-0.275160	-0.469389	0.835333	99
Es	0.573346	1.325065	-1.434813	99
Es	-0.288182	-0.345801	0.236068	99
Es	0.419141	-1.288601	-1.400523	99
Es	1.198221	-0.235746	-2.258141	99
Es	1.305303	-0.301522	-1.981252	99
Es	-0.442128	0.717674	2.815333	99
Es	0.261086	-0.639252	1.041873	99
Es	-0.812214	1.147366	3.065237	99
Es	-0.001696	-0.812362	-0.953254	99
Es	-1.463562	0.793350	1.320377	99
Es	0.217436	0.318522	-0.773410	99
Es	1.596001	-0.370059	-1.914530	99
Es	-0.458290	0.833925	2.244911	99
Es	-0.002532	-1.627082	-1.919240	99
Es	0.809726	0.710937	-1.071506	99
Es	-0.152385	0.566487	2.977381	99
Es	-0.866943	0.452347	1.632600	99
Es	1.139196	0.103271	-1.644658	99
Es	-0.305224	-0.218369	-0.575134	99
Es	1.324968	0.898829	-0.562078	99
42
Properties=species:S:1:pos:R:3:Z:I:1 energy=-339.9512952230672 field_type=dipole dipole="0.000000 0.000000 0.000000" charge=0
N	-0.441741	0.717506	2.815599	7
C	-0.866951	0.452446	1.632739	6
N	-0.275402	-0.469974	0.835309	7
C	-0.305261	-0.218334	-0.575281	6
C	0.809669	0.711096	-1.071361	6
O	1.305509	-0.301514	-1.981531	8
C	0.419029	-1.288774	-1.400451	6
H	-1.040271	1.433146	3.243778	1
H	-1.746261	0.958476	1.196179	1
H	0.613789	-0.785624	1.216199	1
H	-1.305311	0.019116	-0.953411	1
H	1.577689	0.993516	-0.344101	1
H	0.465809	1.601046	-1.606491	1
H	-0.193892	-1.778234	-2.162721	1
H	0.983599	-2.043894	-0.844451	1
Es	1.593250	-0.369798	-1.909815	99
Es	1.137779	0.103699	-1.645571	99
Es	-0.275162	-0.469398	0.835328	99
Es	-0.001703	-0.812416	-0.953267	99
Es	0.217385	0.318590	-0.773355	99
Es	-0.986183	-0.050434	-0.819663	99
Es	0.980598	-0.699819	-1.776259	99
Es	-0.791073	0.421580	2.443792	99
Es	-0.002488	-1.627104	-1.919201	99
Es	1.202760	-0.236387	-2.261026	99
Es	0.798563	-1.800861	-1.005620	99
Es	-0.152594	0.566368	2.977459	99
Es	-1.463589	0.793348	1.320463	99
Es	1.324947	0.898880	-0.562130	99
Es	0.419144	-1.288598	-1.400524	99
Es	-0.305225	-0.218370	-0.575130	99
Es	-0.517767	-0.640515	0.940047	99
Es	-0.866943	0.452346	1.632598	99
Es	0.809727	0.710936	-1.071506	99
Es	-0.458052	0.834268	2.245199	99
Es	1.305328	-0.301514	-1.981355	99
Es	-0.442131	0.717673	2.815323	99
Es	-0.470745	-0.016759	1.144112	99
Es	0.260952	-0.639755	1.041937	99
Es	-0.812228	1.147185	3.065325	99
Es	0.573324	1.325031	-1.434795	99
Es	-0.288046	-0.345468	0.236119	99
42
Properties=species:S:1:pos:R:3:Z:I:1 energy=-339.9512952230672 field_type=dipole dipole="0.000000 0.000000 0.000000" charge=0
N	-0.441741	0.717506	2.815599	7
C	-0.866951	0.452446	1.632739	6
N	-0.275402	-0.469974	0.835309	7
C	-0.305261	-0.218334	-0.575281	6
C	0.809669	0.711096	-1.071361	6
O	1.305509	-0.301514	-1.981531	8
C	0.419029	-1.288774	-1.400451	6
H	-1.040271	1.433146	3.243778	1
H	-1.746261	0.958476	1.196179	1
H	0.613789	-0.785624	1.216199	1
H	-1.305311	0.019116	-0.953411	1
H	1.577689	0.993516	-0.344101	1
H	0.465809	1.601046	-1.606491	1
H	-0.193892	-1.778234	-2.162721	1
H	0.983599	-2.043894	-0.844451	1
Es	0.261114	-0.639142	1.041763	99
Es	-0.457990	0.834014	2.245045	99
Es	1.138866	0.103044	-1.644597	99
Es	0.798503	-1.800769	-1.005617	99
Es	-1.463621	0.793409	1.320425	99
Es	1.597377	-0.368503	-1.917564	99
Es	0.982584	-0.701047	-1.774652	99
Es	-0.470351	-0.016672	1.143731	99
Es	-0.812027	1.147401	3.065475	99
Es	-0.866947	0.452340	1.632595	99
Es	-0.275138	-0.469363	0.835314	99
Es	-0.986154	-0.050450	-0.819635	99
Es	-0.002410	-1.627198	-1.919181	99
Es	1.305295	-0.301507	-1.981307	99
Es	-0.152826	0.566292	2.977245	99
Es	-0.305224	-0.218369	-0.575133	99
Es	0.809727	0.710938	-1.071505	99
Es	-0.791095	0.421657	2.443992	99
Es	-0.517869	-0.640660	0.940879	99
Es	-0.288523	-0.346074	0.235898	99
Es	-0.001780	-0.812408	-0.953293	99
Es	0.419144	-1.288599	-1.400523	99
Es	0.573439	1.325045	-1.434743	99
Es	-0.442113	0.717663	2.815342	99
Es	1.195675	-0.235832	-2.255972	99
Es	0.217281	0.318653	-0.773314	99
Es	1.324893	0.898846	-0.562184	99
42
Properties=species:S:1:pos:R:3:Z:I:1 energy=-339.9512952230672 field_type=dipole dipole="0.000000 0.000000 0.000000" charge=0
N	-0.441741	0.717506	2.815599	7
C	-0.866951	0.452446	1.632739	6
N	-0.275402	-0.469974	0.835309	7
C	-0.305261	-0.218334	-0.575281	6
C	0.809669	0.711096	-1.071361	6
O	1.305509	-0.301514	-1.981531	8
C	0.419029	-1.288774	-1.400451	6
H	-1.040271	1.433146	3.243778	1
H	-1.746261	0.958476	1.196179	1
H	0.613789	-0.785624	1.216199	1
H	-1.305311	0.019116	-0.953411	1
H	1.577689	0.993516	-0.344101	1
H	0.465809	1.601046	-1.606491	1
H	-0.193892	-1.778234	-2.162721	1
H	0.983599	-2.043894	-0.844451	1
Es	1.139995	0.103548	-1.643893	99
Es	-0.288447	-0.346023	0.235882	99
Es	1.595875	-0.369529	-1.917170	99
Es	-0.442129	0.717668	2.815306	99
Es	-0.518072	-0.640474	0.940870	99
Es	-0.986100	-0.050397	-0.819590	99
Es	0.798460	-1.800756	-1.005631	99
Es	0.981580	-0.700846	-1.775562	99
Es	0.573447	1.325011	-1.434707	99
Es	0.419143	-1.288599	-1.400523	99
Es	1.305305	-0.301541	-1.981197	99
Es	-0.275181	-0.469355	0.835355	99
Es	-0.790910	0.421709	2.443285	99
Es	-0.812315	1.147049	3.065569	99
Es	1.324849	0.898871	-0.562160	99
Es	-0.002313	-1.627218	-1.919172	99
Es	-1.463656	0.793366	1.320430	99
Es	-0.457617	0.834559	2.245431	99
Es	0.809726	0.710938	-1.071504	99
Es	0.217278	0.318643	-0.773350	99
Es	0.260988	-0.639447	1.041832	99
Es	1.197138	-0.235468	-2.256293	99
Es	-0.305223	-0.218370	-0.575136	99
Es	-0.153078	0.566109	2.977482	99
Es	-0.866944	0.452344	1.632597	99
Es	-0.001922	-0.812475	-0.953332	99
Es	-0.470047	-0.016612	1.143668	99
42
Properties=species:S:1:pos:R:3:Z:I:1 energy=-339.9512952230672 field_type=dipole dipole="0.000000 0.000000 0.000000" charge=0
N	-0.441741	0.717506	2.815599	7
C	-0.866951	0.452446	1.632739	6
N	-0.275402	-0.469974	0.835309	7
C	-0.305261	-0.218334	-0.575281	6
C	0.809669	0.711096	-1.071361	6
O	1.305509	-0.301514	-1.981531	8
C	0.419029	-1.288774	-1.400451	6
H	-1.040271	1.433146	3.243778	1
H	-1.746261	0.958476	1.196179	1
H	0.613789	-0.785624	1.216199	1
H	-1.305311	0.019116	-0.953411	1
H	1.577689	0.993516	-0.344101	1
H	0.465809	1.601046	-1.606491	1
H	-0.193892	-1.778234	-2.162721	1
H	0.983599	-2.043894	-0.844451	1
Es	1.139657	0.103899	-1.644174	99
Es	-0.458039	0.833794	2.244988	99
Es	0.981376	-0.701151	-1.775954	99
Es	-0.442128	0.717667	2.815315	99
Es	-0.001916	-0.812498	-0.953249	99
Es	1.595291	-0.369370	-1.916518	99
Es	0.573499	1.325018	-1.434695	99
Es	-0.275167	-0.469418	0.835325	99
Es	-0.002361	-1.627176	-1.919103	99
Es	-0.812089	1.147447	3.065620	99
Es	0.809727	0.710936	-1.071507	99
Es	-0.305223	-0.218370	-0.575134	99
Es	1.324831	0.898865	-0.562207	99
Es	-0.986065	-0.050450	-0.819559	99
Es	1.305248	-0.301511	-1.981232	99
Es	-1.463643	0.793500	1.320421	99
Es	-0.152893	0.566657	2.977025	99
Es	0.217256	0.318737	-0.773356	99
Es	-0.470021	-0.016667	1.143742	99
Es	-0.866944	0.452345	1.632598	99
Es	-0.288145	-0.345621	0.236016	99
Es	-0.518294	-0.640318	0.940540	99
Es	-0.790935	0.421392	2.444147	99
Es	0.260881	-0.639885	1.041976	99
Es	0.419142	-1.288600	-1.400524	99
Es	1.198326	-0.235728	-2.256302	99
Es	0.798456	-1.800788	-1.005714	99
42
Properties=species:S:1:pos:R:3:Z:I:1 energy=-339.9512952230672 field_type=dipole dipole="0.000000 0.000000 0.000000" charge=0
N	-0.441741	0.717506	2.815599	7
C	-0.866951	0.452446	1.632739	6
N	-0.275402	-0.469974	0.835309	7
C	-0.305261	-0.218334	-0.575281	6
C	0.809669	0.711096	-1.071361	6
O	1.305509	-0.301514	-1.981531	8
C	0.419029	-1.288774	-1.400451	6
H	-1.040271	1.433146	3.243778	1
H	-1.746261	0.958476	1.196179	1
H	0.613789	-0.785624	1.216199	1
H	-1.305311	0.019116	-0.953411	1
H	1.577689	0.993516	-0.344101	1
H	0.465809	1.601046	-1.606491	1
H	-0.193892	-1.778234	-2.162721	1
H	0.983599	-2.043894	-0.844451	1
Es	0.798399	-1.800733	-1.005772	99
Es	-0.153270	0.566400	2.977013	99
Es	0.260956	-0.639853	1.042079	99
Es	-0.002269	-1.627228	-1.919101	99
Es	-0.002215	-0.812620	-0.953250	99
Es	1.596404	-0.369065	-1.918517	99
Es	-0.275170	-0.469375	0.835345	99
Es	-0.442131	0.717676	2.815322	99
Es	0.809726	0.710933	-1.071508	99
Es	-0.288153	-0.345702	0.236012	99
Es	1.324819	0.898902	-0.562217	99
Es	-0.790973	0.421446	2.443737	99
Es	-0.305220	-0.218370	-0.575136	99
Es	0.573445	1.324990	-1.434655	99
Es	0.217474	0.318586	-0.773349	99
Es	0.419139	-1.288600	-1.400522	99
Es	-1.463690	0.793477	1.320495	99
Es	-0.469739	-0.016658	1.143340	99
Es	-0.457690	0.834120	2.245178	99
Es	0.982005	-0.701245	-1.775254	99
Es	-0.518611	-0.640314	0.940771	99
Es	1.305336	-0.301527	-1.981216	99
Es	-0.986020	-0.050216	-0.819487	99
Es	-0.866944	0.452345	1.632599	99
Es	-0.811989	1.147345	3.065816	99
Es	1.139744	0.104097	-1.644359	99
Es	1.196464	-0.236105	-2.254880	99
42
Properties=species:S:1:pos:R:3:Z:I:1 energy=-339.9512952230672 field_type=dipole dipole="0.000000 0.000000 0.000000" charge=0
N	-0.441741	0.717506	2.815599	7
C	-0.866951	0.452446	1.632739	6
N	-0.275402	-0.469974	0.835309	7
C	-0.305261	-0.218334	-0.575281	6
C	0.809669	0.711096	-1.071361	6
O	1.305509	-0.301514	-1.981531	8
C	0.419029	-1.288774	-1.400451	6
H	-1.040271	1.433146	3.243778	1
H	-1.746261	0.958476	1.196179	1
H	0.613789	-0.785624	1.216199	1
H	-1.305311	0.019116	-0.953411	1
H	1.577689	0.993516	-0.344101	1
H	0.465809	1.601046	-1.606491	1
H	-0.193892	-1.778234	-2.162721	1
H	0.983599	-2.043894	-0.844451	1
Es	1.595061	-0.369138	-1.916994	99
Es	1.305223	-0.301498	-1.981286	99
Es	0.260822	-0.640184	1.041965	99
Es	-0.790932	0.421386	2.443925	99
Es	-0.457782	0.833960	2.245069	99
Es	0.798421	-1.800769	-1.005749	99
Es	-0.518861	-0.639896	0.941207	99
Es	0.809721	0.710932	-1.071505	99
Es	-0.153320	0.566495	2.976767	99
Es	-0.288392	-0.345994	0.235882	99
Es	-0.811903	1.147413	3.066001	99
Es	-1.463695	0.793530	1.320474	99
Es	0.217149	0.318789	-0.773320	99
Es	-0.275157	-0.469385	0.835336	99
Es	-0.866944	0.452346	1.632597	99
Es	-0.469131	-0.016415	1.143180	99
Es	-0.985989	-0.050435	-0.819477	99
Es	1.324803	0.898925	-0.562271	99
Es	-0.002051	-0.812608	-0.953310	99
Es	-0.442129	0.717667	2.815320	99
Es	0.981627	-0.701420	-1.775688	99
Es	0.573564	1.324953	-1.434647	99
Es	-0.002252	-1.627198	-1.919048	99
Es	-0.305221	-0.218370	-0.575142	99
Es	1.198306	-0.236144	-2.255856	99
Es	0.419137	-1.288604	-1.400522	99
Es	1.139750	0.104366	-1.644421	99
42
Properties=species:S:1:pos:R:3:Z:I:1 energy=-339.9512952230672 field_type=dipole dipole="0.000000 0.000000 0.000000" charge=0
N	-0.441741	0.717506	2.815599	7
C	-0.866951	0.452446	1.632739	6
N	-0.275402	-0.469974	0.835309	7
C	-0.305261	-0.218334	-0.575281	6
C	0.809669	0.711096	-1.071361	6
O	1.305509	-0.301514	-1.981531	8
C	0.419029	-1.288774	-1.400451	6
H	-1.040271	1.433146	3.243778	1
H	-1.746261	0.958476	1.196179	1
H	0.613789	-0.785624	1.216199	1
H	-1.305311	0.019116	-0.953411	1
H	1.577689	0.993516	-0.344101	1
H	0.465809	1.601046	-1.606491	1
H	-0.193892	-1.778234	-2.162721	1
H	0.983599	-2.043894	-0.844451	1
Es	-0.442129	0.717677	2.815331	99
Es	-0.866942	0.452347	1.632598	99
Es	0.798387	-1.800801	-1.005800	99
Es	-0.153443	0.566664	2.976704	99
Es	-0.305220	-0.218371	-0.575136	99
Es	-0.790769	0.421225	2.443841	99
Es	-0.468734	-0.016312	1.142908	99
Es	-0.002140	-0.812649	-0.953312	99
Es	0.217216	0.318864	-0.773306	99
Es	-0.985945	-0.050449	-0.819428	99
Es	0.573521	1.324970	-1.434612	99
Es	-0.002200	-1.627166	-1.918981	99
Es	0.981960	-0.701926	-1.775735	99
Es	0.809726	0.710939	-1.071504	99
Es	-0.288473	-0.346145	0.235787	99
Es	-0.457678	0.833933	2.245117	99
Es	1.594174	-0.368622	-1.916384	99
Es	0.260762	-0.640279	1.041974	99
Es	1.139384	0.104586	-1.644700	99
Es	-0.811969	1.147388	3.066051	99
Es	1.324762	0.898909	-0.562294	99
Es	0.419141	-1.288603	-1.400523	99
Es	-0.519116	-0.639753	0.941531	99
Es	-1.463763	0.793579	1.320539	99
Es	1.199200	-0.236397	-2.256307	99
Es	1.305295	-0.301506	-1.981216	99
Es	-0.275177	-0.469396	0.835340	99
42
Properties=species:S:1:pos:R:3:Z:I:1 energy=-339.9512952230672 field_type=dipole dipole="0.000000 0.000000 0.000000" charge=0
N	-0.441741	0.717506	2.815599	7
C	-0.866951	0.452446	1.632739	6
N	-0.275402	-0.469974	0.835309	7
C	-0.305261	-0.218334	-0.575281	6
C	0.809669	0.711096	-1.071361	6
O	1.305509	-0.301514	-1.981531	8
C	0.419029	-1.288774	-1.400451	6
H	-1.040271	1.433146	3.243778	1
H	-1.746261	0.958476	1.196179	1
H	0.613789	-0.785624	1.216199	1
H	-1.305311	0.019116	-0.953411	1
H	1.577689	0.993516	-0.344101	1
H	0.465809	1.601046	-1.606491	1
H	-0.193892	-1.778234	-2.162721	1
H	0.983599	-2.043894	-0.844451	1
Es	-0.811865	1.147401	3.066182	99
Es	1.139637	0.104976	-1.645158	99
Es	-0.288796	-0.346487	0.235550	99
Es	-0.469100	-0.016529	1.143129	99
Es	0.809726	0.710935	-1.071507	99
Es	0.981013	-0.701697	-1.776126	99
Es	1.324732	0.898957	-0.562345	99
Es	-1.463735	0.793573	1.320503	99
Es	-0.442127	0.717671	2.815323	99
Es	-0.305219	-0.218370	-0.575138	99
Es	1.305387	-0.301505	-1.981391	99
Es	0.260845	-0.640440	1.042093	99
Es	-0.275209	-0.469258	0.835431	99
Es	-0.866945	0.452343	1.632600	99
Es	-0.153590	0.566547	2.976625	99
Es	-0.790867	0.421311	2.443816	99
Es	0.798353	-1.800744	-1.005826	99
Es	-0.002097	-0.812634	-0.953305	99
Es	-0.002189	-1.627214	-1.918954	99
Es	0.573549	1.324936	-1.434588	99
Es	0.419136	-1.288604	-1.400523	99
Es	1.200688	-0.236522	-2.256742	99
Es	-0.985952	-0.050443	-0.819420	99
Es	-0.518429	-0.639205	0.941346	99
Es	1.593365	-0.369158	-1.914968	99
Es	-0.457616	0.833989	2.245102	99
Es	0.217136	0.318874	-0.773224	99
42
Properties=species:S:1:pos:R:3:Z:I:1 energy=-339.9512952230672 field_type=dipole dipole="0.000000 0.000000 0.000000" charge=0
N	-0.441741	0.717506	2.815599	7
C	-0.866951	0.452446	1.632739	6
N	-0.275402	-0.469974	0.835309	7
C	-0.305261	-0.218334	-0.575281	6
C	0.809669	0.711096	-1.071361	6
O	1.305509	-0.301514	-1.981531	8
C	0.419029	-1.288774	-1.400451	6
H	-1.040271	1.433146	3.243778	1
H	-1.746261	0.958476	1.196179	1
H	0.613789	-0.785624	1.216199	1
H	-1.305311	0.019116	-0.953411	1
H	1.577689	0.993516	-0.344101	1
H	0.465809	1.601046	-1.606491	1
H	-0.193892	-1.778234	-2.162721	1
H	0.983599	-2.043894	-0.844451	1
Es	0.798338	-1.800657	-1.005822	99
Es	0.981136	-0.701908	-1.776687	99
Es	1.199687	-0.236011	-2.255381	99
Es	-0.866943	0.452345	1.632598	99
Es	1.140046	0.104869	-1.644282	99
Es	0.217133	0.318931	-0.773304	99
Es	-0.985936	-0.050489	-0.819381	99
Es	-0.442129	0.717675	2.815331	99
Es	1.305261	-0.301531	-1.981292	99
Es	-0.002109	-1.627313	-1.918955	99
Es	-0.153923	0.566533	2.976420	99
Es	1.324672	0.898850	-0.562335	99
Es	0.419140	-1.288602	-1.400523	99
Es	0.260737	-0.640276	1.041957	99
Es	-1.463754	0.793600	1.320520	99
Es	-0.811842	1.147166	3.066539	99
Es	0.809724	0.710939	-1.071504	99
Es	-0.519157	-0.639546	0.941848	99
Es	-0.457381	0.834279	2.245008	99
Es	-0.002245	-0.812691	-0.953299	99
Es	-0.275183	-0.469351	0.835367	99
Es	-0.468423	-0.016226	1.142734	99
Es	-0.790772	0.421220	2.443759	99
Es	1.593991	-0.369220	-1.916779	99
Es	-0.305220	-0.218370	-0.575140	99
Es	0.573640	1.325007	-1.434527	99
Es	-0.288660	-0.346516	0.235613	99
42
Properties=species:S:1:pos:R:3:Z:I:1 energy=-339.9512952230672 field_type=dipole dipole="0.000000 0.000000 0.000000" charge=0
N	-0.441741	0.717506	2.815599	7
C	-0.866951	0.452446	1.632739	6
N	-0.275402	-0.469974	0.835309	7
C	-0.305261	-0.218334	-0.575281	6
C	0.809669	0.711096	-1.071361	6
O	1.305509	-0.301514	-1.981531	8
C	0.419029	-1.288774	-1.400451	6
H	-1.040271	1.433146	3.243778	1
H	-1.746261	0.958476	1.196179	1
H	0.613789	-0.785624	1.216199	1
H	-1.305311	0.019116	-0.953411	1
H	1.577689	0.993516	-0.344101	1
H	0.465809	1.601046	-1.606491	1
H	-0.193892	-1.778234	-2.162721	1
H	0.983599	-2.043894	-0.844451	1
Es	0.798298	-1.800690	-1.005869	99
Es	0.981958	-0.702043	-1.775587	99
Es	1.141238	0.104937	-1.643723	99
Es	1.324631	0.898843	-0.562319	99
Es	-0.866944	0.452344	1.632599	99
Es	-0.467661	-0.016066	1.142261	99
Es	0.419136	-1.288605	-1.400520	99
Es	1.196441	-0.236086	-2.253337	99
Es	-0.457771	0.833678	2.244825	99
Es	0.809724	0.710940	-1.071503	99
Es	-0.288769	-0.346619	0.235595	99
Es	1.305332	-0.301514	-1.981358	99
Es	-0.519802	-0.639356	0.942389	99
Es	-0.790842	0.420987	2.444304	99
Es	-0.002225	-0.812727	-0.953329	99
Es	-0.811636	1.147554	3.066533	99
Es	-0.985834	-0.050512	-0.819350	99
Es	-0.275174	-0.469425	0.835350	99
Es	-0.002109	-1.627265	-1.918933	99
Es	1.595202	-0.369163	-1.920427	99
Es	0.217014	0.319050	-0.773334	99
Es	-0.305221	-0.218370	-0.575136	99
Es	0.260689	-0.640433	1.041944	99
Es	-0.153711	0.566947	2.976072	99
Es	0.573719	1.324992	-1.434520	99
Es	-0.442109	0.717663	2.815329	99
Es	-1.463745	0.793645	1.320530	99
