39
Properties=species:S:1:pos:R:3:Z:I:1 energy=-338.81955366471726 field_type=dipole dipole="0.000000 0.000000 0.000000" charge=0
N	-1.964310	-1.667801	0.834747	7
C	-2.039630	-0.414362	0.553017	6
N	-1.024260	0.395938	0.132637	7
C	0.286980	0.037868	-0.076853	6
C	1.282830	0.831518	-0.480883	6
C	2.638690	0.278478	-0.655063	6
O	3.567100	0.987358	-1.021433	8
H	-2.885790	-2.013132	1.124237	1
H	-2.999300	0.124818	0.640097	1
H	-1.245760	1.369569	-0.044833	1
H	0.457600	-1.019682	0.128767	1
H	1.159730	1.884778	-0.694873	1
H	2.766120	-0.795352	-0.439563	1
Es	1.189004	1.539220	-0.621968	99
Es	-1.165734	0.972769	0.020750	99
Es	2.711857	-0.459988	-0.503617	99
Es	-1.944328	-1.095778	0.993639	99
Es	-0.461490	0.231601	0.023407	99
Es	0.799049	0.391685	-0.606655	99
Es	0.286700	0.037854	-0.076787	99
Es	-2.521874	-1.856648	1.004929	99
Es	-1.665943	-1.874581	0.817094	99
Es	2.638642	0.278484	-0.655055	99
Es	-1.004636	0.342235	0.203413	99
Es	0.934625	0.531150	-0.000388	99
Es	-2.039492	-0.414184	0.552943	99
Es	3.470839	1.281028	-1.065671	99
Es	-1.964713	-1.667425	0.834750	99
Es	1.282859	0.831519	-0.480858	99
Es	1.940119	0.548576	-0.562018	99
Es	3.566878	0.987164	-1.021344	99
Es	3.284545	0.781687	-0.648901	99
Es	-1.452313	0.022723	0.287538	99
Es	3.841063	0.836850	-1.049108	99
Es	0.402685	-0.658339	0.057545	99
Es	3.176763	0.674114	-1.127153	99
Es	-2.684398	-0.031630	0.606528	99
Es	-1.024647	0.393986	0.130494	99
Es	-2.065975	-1.224417	0.452313	99
39
Properties=species:S:1:pos:R:3:Z:I:1 energy=-338.81955366471726 field_type=dipole dipole="0.000000 0.000000 0.000000" charge=0
N	-1.964310	-1.667801	0.834747	7
C	-2.039630	-0.414362	0.553017	6
N	-1.024260	0.395938	0.132637	7
C	0.286980	0.037868	-0.076853	6
C	1.282830	0.831518	-0.480883	6
C	2.638690	0.278478	-0.655063	6
O	3.567100	0.987358	-1.021433	8
H	-2.885790	-2.013132	1.124237	1
H	-2.999300	0.124818	0.640097	1
H	-1.245760	1.369569	-0.044833	1
H	0.457600	-1.019682	0.128767	1
H	1.159730	1.884778	-0.694873	1
H	2.766120	-0.795352	-0.439563	1
Es	3.473059	1.281673	-1.067901	99
Es	0.402808	-0.658341	0.057853	99
Es	-1.666116	-1.874383	0.816449	99
Es	3.566854	0.987142	-1.021331	99
Es	-1.035201	0.307896	0.068570	99
Es	0.286700	0.037853	-0.076793	99
Es	0.934702	0.530775	-0.000441	99
Es	2.638645	0.278487	-0.655053	99
Es	3.177417	0.674252	-1.127045	99
Es	3.282456	0.783255	-0.649259	99
Es	3.840269	0.834568	-1.046641	99
Es	-1.964687	-1.667446	0.834746	99
Es	-2.521991	-1.856913	1.005085	99
Es	1.282851	0.831513	-0.480889	99
Es	-2.684384	-0.031492	0.606926	99
Es	-1.024223	0.395939	0.132730	99
Es	-2.039493	-0.414188	0.552945	99
Es	1.940032	0.548765	-0.562090	99
Es	-1.944375	-1.095975	0.993602	99
Es	-2.065765	-1.224176	0.452433	99
Es	-1.160940	0.977072	0.041148	99
Es	1.188773	1.539297	-0.621964	99
Es	-0.452162	0.243324	0.071909	99
Es	2.711928	-0.460007	-0.503626	99
Es	0.799152	0.391753	-0.606669	99
Es	-1.436227	0.039011	0.351128	99
39
Properties=species:S:1:pos:R:3:Z:I:1 energy=-338.81955366471726 field_type=dipole dipole="0.000000 0.000000 0.000000" charge=0
N	-1.964310	-1.667801	0.834747	7
C	-2.039630	-0.414362	0.553017	6
N	-1.024260	0.395938	0.132637	7
C	0.286980	0.037868	-0.076853	6
C	1.282830	0.831518	-0.480883	6
C	2.638690	0.278478	-0.655063	6
O	3.567100	0.987358	-1.021433	8
H	-2.885790	-2.013132	1.124237	1
H	-2.999300	0.124818	0.640097	1
H	-1.245760	1.369569	-0.044833	1
H	0.457600	-1.019682	0.128767	1
H	1.159730	1.884778	-0.694873	1
H	2.766120	-0.795352	-0.439563	1
Es	1.188841	1.539136	-0.622247	99
Es	0.286702	0.037853	-0.076791	99
Es	-1.450732	0.024547	0.299672	99
Es	0.799001	0.391575	-0.606474	99
Es	-1.009751	0.342365	0.180022	99
Es	2.638641	0.278483	-0.655054	99
Es	3.566882	0.987189	-1.021348	99
Es	3.177087	0.674292	-1.126462	99
Es	3.473208	1.282002	-1.067966	99
Es	-0.458554	0.233417	0.032215	99
Es	-1.164821	0.974097	0.024975	99
Es	-2.684508	-0.031599	0.606496	99
Es	2.711880	-0.460036	-0.503596	99
Es	3.839872	0.834150	-1.047184	99
Es	0.934875	0.531131	-0.000052	99
Es	-2.521853	-1.856875	1.005153	99
Es	-2.039490	-0.414183	0.552941	99
Es	-1.964680	-1.667437	0.834743	99
Es	1.939993	0.548797	-0.562262	99
Es	3.283046	0.783233	-0.649194	99
Es	-1.666292	-1.874282	0.817019	99
Es	-2.065876	-1.224395	0.452153	99
Es	1.282847	0.831511	-0.480893	99
Es	-1.024780	0.388864	0.128653	99
Es	-1.944167	-1.095779	0.993697	99
Es	0.402710	-0.658403	0.057608	99
39
Properties=species:S:1:pos:R:3:Z:I:1 energy=-338.81955366471726 field_type=dipole dipole="0.000000 0.000000 0.000000" charge=0
N	-1.964310	-1.667801	0.834747	7
C	-2.039630	-0.414362	0.553017	6
N	-1.024260	0.395938	0.132637	7
C	0.286980	0.037868	-0.076853	6
C	1.282830	0.831518	-0.480883	6
C	2.638690	0.278478	-0.655063	6
O	3.567100	0.987358	-1.021433	8
H	-2.885790	-2.013132	1.124237	1
H	-2.999300	0.124818	0.640097	1
H	-1.245760	1.369569	-0.044833	1
H	0.457600	-1.019682	0.128767	1
H	1.159730	1.884778	-0.694873	1
H	2.766120	-0.795352	-0.439563	1
Es	-2.039491	-0.414186	0.552945	99
Es	0.799283	0.391646	-0.606454	99
Es	2.711917	-0.460034	-0.503574	99
Es	1.188812	1.539111	-0.622361	99
Es	-0.456473	0.235164	0.039891	99
Es	0.402807	-0.658499	0.057687	99
Es	3.472258	1.281187	-1.067276	99
Es	-1.024085	0.367780	0.126192	99
Es	-1.015506	0.358603	0.159463	99
Es	-2.684508	-0.031583	0.606677	99
Es	-2.065698	-1.224389	0.452161	99
Es	-1.964687	-1.667433	0.834745	99
Es	3.840530	0.835910	-1.046950	99
Es	2.638642	0.278483	-0.655053	99
Es	1.282851	0.831513	-0.480886	99
Es	1.939934	0.548835	-0.562282	99
Es	0.934553	0.531036	0.000022	99
Es	-1.448364	0.027044	0.312122	99
Es	3.282852	0.782743	-0.649100	99
Es	3.177610	0.673840	-1.127539	99
Es	3.566825	0.987198	-1.021337	99
Es	-1.164266	0.974878	0.027850	99
Es	-1.944139	-1.095840	0.993693	99
Es	-2.521901	-1.857032	1.005055	99
Es	-1.666372	-1.874174	0.816920	99
Es	0.286699	0.037853	-0.076788	99
39
Properties=species:S:1:pos:R:3:Z:I:1 energy=-338.81955366471726 field_type=dipole dipole="0.000000 0.000000 0.000000" charge=0
N	-1.964310	-1.667801	0.834747	7
C	-2.039630	-0.414362	0.553017	6
N	-1.024260	0.395938	0.132637	7
C	0.286980	0.037868	-0.076853	6
C	1.282830	0.831518	-0.480883	6
C	2.638690	0.278478	-0.655063	6
O	3.567100	0.987358	-1.021433	8
H	-2.885790	-2.013132	1.124237	1
H	-2.999300	0.124818	0.640097	1
H	-1.245760	1.369569	-0.044833	1
H	0.457600	-1.019682	0.128767	1
H	1.159730	1.884778	-0.694873	1
H	2.766120	-0.795352	-0.439563	1
Es	-1.025072	0.339528	0.114536	99
Es	1.939912	0.548892	-0.562140	99
Es	-1.666238	-1.873385	0.818296	99
Es	0.286701	0.037853	-0.076787	99
Es	3.840287	0.835822	-1.047806	99
Es	1.188824	1.539110	-0.622279	99
Es	2.638644	0.278486	-0.655062	99
Es	-0.454204	0.237789	0.050636	99
Es	-2.065666	-1.226012	0.451358	99
Es	-2.039491	-0.414183	0.552943	99
Es	0.402835	-0.658555	0.057707	99
Es	-2.684498	-0.031533	0.606915	99
Es	-1.964683	-1.667453	0.834743	99
Es	1.282851	0.831512	-0.480888	99
Es	3.472204	1.281268	-1.067063	99
Es	-1.944467	-1.094698	0.992423	99
Es	0.799297	0.391656	-0.606556	99
Es	3.283499	0.782559	-0.648835	99
Es	-1.163358	0.975773	0.032025	99
Es	3.566881	0.987183	-1.021344	99
Es	3.177208	0.674041	-1.127151	99
Es	-1.445482	0.029960	0.323914	99
Es	-2.521810	-1.857341	1.005511	99
Es	-1.020505	0.380416	0.144353	99
Es	0.934457	0.530971	-0.000047	99
Es	2.711957	-0.460006	-0.503581	99
39
Properties=species:S:1:pos:R:3:Z:I:1 energy=-338.81955366471726 field_type=dipole dipole="0.000000 0.000000 0.000000" charge=0
N	-1.964310	-1.667801	0.834747	7
C	-2.039630	-0.414362	0.553017	6
N	-1.024260	0.395938	0.132637	7
C	0.286980	0.037868	-0.076853	6
C	1.282830	0.831518	-0.480883	6
C	2.638690	0.278478	-0.655063	6
O	3.567100	0.987358	-1.021433	8
H	-2.885790	-2.013132	1.124237	1
H	-2.999300	0.124818	0.640097	1
H	-1.245760	1.369569	-0.044833	1
H	0.457600	-1.019682	0.128767	1
H	1.159730	1.884778	-0.694873	1
H	2.766120	-0.795352	-0.439563	1
Es	3.472935	1.281502	-1.067317	99
Es	-1.163756	0.975494	0.030689	99
Es	3.176964	0.674238	-1.126918	99
Es	0.934494	0.530912	-0.000041	99
Es	-0.454623	0.237145	0.048111	99
Es	-1.446303	0.029086	0.320533	99
Es	-2.521828	-1.857381	1.005170	99
Es	-2.684626	-0.031583	0.606771	99
Es	1.282851	0.831514	-0.480876	99
Es	0.402891	-0.658588	0.057669	99
Es	-2.039491	-0.414188	0.552948	99
Es	3.283439	0.782848	-0.648890	99
Es	-1.944170	-1.095706	0.993488	99
Es	0.799214	0.391643	-0.606670	99
Es	-2.065586	-1.224556	0.452004	99
Es	3.566842	0.987197	-1.021340	99
Es	1.188904	1.539135	-0.622220	99
Es	2.638645	0.278486	-0.655053	99
Es	-1.019452	0.374372	0.147142	99
Es	-1.666493	-1.873758	0.817040	99
Es	3.839907	0.835141	-1.047618	99
Es	0.286706	0.037853	-0.076789	99
Es	-1.964687	-1.667442	0.834746	99
Es	-1.024458	0.347410	0.119076	99
Es	2.711952	-0.460074	-0.503667	99
Es	1.939813	0.548954	-0.562165	99
39
Properties=species:S:1:pos:R:3:Z:I:1 energy=-338.81955366471726 field_type=dipole dipole="0.000000 0.000000 0.000000" charge=0
N	-1.964310	-1.667801	0.834747	7
C	-2.039630	-0.414362	0.553017	6
N	-1.024260	0.395938	0.132637	7
C	0.286980	0.037868	-0.076853	6
C	1.282830	0.831518	-0.480883	6
C	2.638690	0.278478	-0.655063	6
O	3.567100	0.987358	-1.021433	8
H	-2.885790	-2.013132	1.124237	1
H	-2.999300	0.124818	0.640097	1
H	-1.245760	1.369569	-0.044833	1
H	0.457600	-1.019682	0.128767	1
H	1.159730	1.884778	-0.694873	1
H	2.766120	-0.795352	-0.439563	1
Es	0.402999	-0.658643	0.057631	99
Es	-2.684603	-0.031587	0.606777	99
Es	3.282997	0.783088	-0.648950	99
Es	3.177431	0.673759	-1.127303	99
Es	-1.017683	0.367682	0.152596	99
Es	2.638641	0.278482	-0.655058	99
Es	-1.447061	0.028295	0.317312	99
Es	2.711955	-0.460073	-0.503572	99
Es	3.840060	0.835631	-1.046930	99
Es	0.799071	0.391582	-0.606635	99
Es	-2.065277	-1.225218	0.451604	99
Es	-1.964685	-1.667449	0.834740	99
Es	0.934565	0.531011	0.000013	99
Es	0.286707	0.037854	-0.076791	99
Es	-1.023938	0.356617	0.123871	99
Es	-0.455874	0.235662	0.042400	99
Es	1.188899	1.539070	-0.622227	99
Es	3.472714	1.281264	-1.067622	99
Es	-2.039491	-0.414183	0.552944	99
Es	-2.521929	-1.857470	1.005040	99
Es	1.282847	0.831509	-0.480885	99
Es	-1.666568	-1.873453	0.817919	99
Es	-1.164040	0.975238	0.029300	99
Es	-1.944338	-1.095259	0.993185	99
Es	3.566874	0.987177	-1.021354	99
Es	1.939809	0.549068	-0.562183	99
39
Properties=species:S:1:pos:R:3:Z:I:1 energy=-338.81955366471726 field_type=dipole dipole="0.000000 0.000000 0.000000" charge=0
N	-1.964310	-1.667801	0.834747	7
C	-2.039630	-0.414362	0.553017	6
N	-1.024260	0.395938	0.132637	7
C	0.286980	0.037868	-0.076853	6
C	1.282830	0.831518	-0.480883	6
C	2.638690	0.278478	-0.655063	6
O	3.567100	0.987358	-1.021433	8
H	-2.885790	-2.013132	1.124237	1
H	-2.999300	0.124818	0.640097	1
H	-1.245760	1.369569	-0.044833	1
H	0.457600	-1.019682	0.128767	1
H	1.159730	1.884778	-0.694873	1
H	2.766120	-0.795352	-0.439563	1
Es	1.282846	0.831513	-0.480890	99
Es	-1.944078	-1.095632	0.993602	99
Es	0.799337	0.391577	-0.606703	99
Es	-1.018826	0.372090	0.149050	99
Es	2.711981	-0.460073	-0.503560	99
Es	-0.455052	0.236671	0.046227	99
Es	3.474009	1.281746	-1.067369	99
Es	0.286703	0.037852	-0.076788	99
Es	-1.163750	0.975425	0.030216	99
Es	-1.446801	0.028540	0.318573	99
Es	1.939733	0.549171	-0.562211	99
Es	3.282476	0.782801	-0.649170	99
Es	-2.684659	-0.031574	0.606755	99
Es	3.839254	0.835083	-1.046088	99
Es	-2.521758	-1.857689	1.005215	99
Es	-1.666681	-1.873470	0.816945	99
Es	3.566865	0.987183	-1.021351	99
Es	-2.065614	-1.224582	0.452000	99
Es	1.188841	1.539140	-0.622125	99
Es	0.934386	0.530822	0.000033	99
Es	3.177449	0.674093	-1.128275	99
Es	2.638642	0.278484	-0.655051	99
Es	-1.024074	0.350781	0.121385	99
Es	-1.964682	-1.667438	0.834743	99
Es	0.403027	-0.658677	0.057714	99
Es	-2.039490	-0.414184	0.552945	99
39
Properties=species:S:1:pos:R:3:Z:I:1 energy=-338.81955366471726 field_type=dipole dipole="0.000000 0.000000 0.000000" charge=0
N	-1.964310	-1.667801	0.834747	7
C	-2.039630	-0.414362	0.553017	6
N	-1.024260	0.395938	0.132637	7
C	0.286980	0.037868	-0.076853	6
C	1.282830	0.831518	-0.480883	6
C	2.638690	0.278478	-0.655063	6
O	3.567100	0.987358	-1.021433	8
H	-2.885790	-2.013132	1.124237	1
H	-2.999300	0.124818	0.640097	1
H	-1.245760	1.369569	-0.044833	1
H	0.457600	-1.019682	0.128767	1
H	1.159730	1.884778	-0.694873	1
H	2.766120	-0.795352	-0.439563	1
Es	-1.943975	-1.095601	0.993596	99
Es	3.566890	0.987200	-1.021351	99
Es	-1.023911	0.352803	0.122586	99
Es	1.939709	0.549115	-0.562169	99
Es	-2.065484	-1.224634	0.451924	99
Es	-0.455302	0.236472	0.044803	99
Es	-2.039492	-0.414186	0.552943	99
Es	3.474322	1.281727	-1.067795	99
Es	-2.521800	-1.858136	1.005299	99
Es	3.838924	0.834490	-1.046845	99
Es	-1.446932	0.028230	0.317567	99
Es	0.934544	0.530936	0.000009	99
Es	2.712002	-0.460088	-0.503586	99
Es	3.177015	0.674378	-1.127503	99
Es	0.403036	-0.658711	0.057684	99
Es	1.188936	1.539079	-0.622203	99
Es	0.799071	0.391541	-0.606641	99
Es	2.638642	0.278484	-0.655052	99
Es	-1.018301	0.370790	0.150808	99
Es	3.282904	0.783144	-0.648704	99
Es	0.286703	0.037853	-0.076788	99
Es	-1.666898	-1.872985	0.816915	99
Es	-1.163998	0.975257	0.029682	99
Es	-1.964686	-1.667438	0.834744	99
Es	1.282847	0.831511	-0.480887	99
Es	-2.684681	-0.031575	0.606784	99
