37
Properties=species:S:1:pos:R:3:Z:I:1 energy=-321.5931914220838 field_type=dipole dipole="0.000000 0.000000 0.000000" charge=0
O	-2.331178	-0.333974	1.271648	8
C	-1.158628	-0.162014	1.053068	6
C	-0.203348	1.019196	0.826838	6
C	0.729932	-0.047594	0.215728	6
N	-0.167268	-1.058264	0.793268	7
C	0.754882	-0.144954	-1.226472	6
C	0.764962	-0.221434	-2.424992	6
H	0.149852	1.478976	1.754398	1
H	-0.584498	1.784966	0.147038	1
H	1.722082	-0.080674	0.679088	1
H	-0.443448	-1.947244	0.399468	1
H	0.766652	-0.286984	-3.489081	1
Es	0.037472	1.311382	1.445787	99
Es	-0.732741	0.498755	0.973366	99
Es	0.892394	-0.519471	-1.800152	99
Es	-0.203328	1.019114	0.826822	99
Es	-1.158460	-0.162044	1.053056	99
Es	0.745486	-0.088518	-0.533733	99
Es	1.403907	-0.069517	0.504808	99
Es	-0.625433	-0.719501	0.829115	99
Es	0.764965	-0.221465	-2.425221	99
Es	0.729783	-0.047715	0.215681	99
Es	-0.313455	-1.579830	0.544985	99
Es	0.766681	-0.265057	-3.115876	99
Es	-2.480116	-0.072184	1.313206	99
Es	-1.981996	-0.258884	0.951170	99
Es	0.326923	0.538534	0.472421	99
Es	0.402265	-0.131610	-1.830999	99
Es	-0.143150	-1.016839	1.107058	99
Es	0.754886	-0.144943	-1.226213	99
Es	-2.389376	-0.632319	1.266825	99
Es	0.982540	0.096886	-1.841659	99
Es	0.251839	-0.680766	0.494855	99
Es	-2.330834	-0.333924	1.271581	99
Es	-1.884998	-0.283218	1.445796	99
Es	-0.167508	-1.058063	0.792862	99
Es	-0.456516	1.524316	0.370778	99
37
Properties=species:S:1:pos:R:3:Z:I:1 energy=-321.5931914220838 field_type=dipole dipole="0.000000 0.000000 0.000000" charge=0
O	-2.331178	-0.333974	1.271648	8
C	-1.158628	-0.162014	1.053068	6
C	-0.203348	1.019196	0.826838	6
C	0.729932	-0.047594	0.215728	6
N	-0.167268	-1.058264	0.793268	7
C	0.754882	-0.144954	-1.226472	6
C	0.764962	-0.221434	-2.424992	6
H	0.149852	1.478976	1.754398	1
H	-0.584498	1.784966	0.147038	1
H	1.722082	-0.080674	0.679088	1
H	-0.443448	-1.947244	0.399468	1
H	0.766652	-0.286984	-3.489081	1
Es	0.405529	-0.113538	-1.832359	99
Es	0.764959	-0.221459	-2.425223	99
Es	-0.203328	1.019117	0.826822	99
Es	-2.484431	-0.075279	1.313483	99
Es	1.403867	-0.069657	0.504734	99
Es	0.250890	-0.680479	0.493820	99
Es	-0.626133	-0.719046	0.832071	99
Es	0.729781	-0.047713	0.215680	99
Es	-0.732850	0.498818	0.973376	99
Es	-0.313897	-1.579441	0.544713	99
Es	-0.167481	-1.058084	0.792898	99
Es	0.996991	0.085266	-1.840930	99
Es	0.874266	-0.525998	-1.799520	99
Es	-0.456450	1.524315	0.370811	99
Es	0.327004	0.538641	0.472456	99
Es	0.766865	-0.264961	-3.115846	99
Es	-1.886896	-0.281024	1.446456	99
Es	-1.980671	-0.256480	0.951362	99
Es	-1.158460	-0.162040	1.053044	99
Es	-2.330841	-0.333916	1.271584	99
Es	0.037451	1.311408	1.445675	99
Es	-0.141156	-1.018007	1.105354	99
Es	0.754904	-0.144955	-1.226213	99
Es	0.745764	-0.088541	-0.533674	99
Es	-2.384445	-0.633826	1.265744	99
37
Properties=species:S:1:pos:R:3:Z:I:1 energy=-321.5931914220838 field_type=dipole dipole="0.000000 0.000000 0.000000" charge=0
O	-2.331178	-0.333974	1.271648	8
C	-1.158628	-0.162014	1.053068	6
C	-0.203348	1.019196	0.826838	6
C	0.729932	-0.047594	0.215728	6
N	-0.167268	-1.058264	0.793268	7
C	0.754882	-0.144954	-1.226472	6
C	0.764962	-0.221434	-2.424992	6
H	0.149852	1.478976	1.754398	1
H	-0.584498	1.784966	0.147038	1
H	1.722082	-0.080674	0.679088	1
H	-0.443448	-1.947244	0.399468	1
H	0.766652	-0.286984	-3.489081	1
Es	0.729781	-0.047714	0.215683	99
Es	-1.885233	-0.281148	1.446469	99
Es	0.764947	-0.221462	-2.425219	99
Es	1.403882	-0.069661	0.504582	99
Es	0.954487	0.117183	-1.842964	99
Es	0.923801	-0.505118	-1.801533	99
Es	0.754881	-0.144933	-1.226226	99
Es	-0.141462	-1.017360	1.106220	99
Es	-0.203327	1.019116	0.826822	99
Es	0.327023	0.538779	0.472401	99
Es	-2.483692	-0.075533	1.313782	99
Es	-2.330859	-0.333930	1.271572	99
Es	0.250771	-0.680587	0.493678	99
Es	-0.313749	-1.579772	0.545092	99
Es	0.745572	-0.088507	-0.533572	99
Es	-2.385158	-0.633612	1.265406	99
Es	-1.158459	-0.162041	1.053045	99
Es	-0.625752	-0.719403	0.831040	99
Es	0.398795	-0.166487	-1.828285	99
Es	-0.167533	-1.058042	0.792847	99
Es	-0.732869	0.498871	0.973322	99
Es	-0.456447	1.524380	0.370871	99
Es	0.037382	1.311325	1.445713	99
Es	0.766784	-0.264910	-3.115833	99
Es	-1.982335	-0.256313	0.951406	99
37
Properties=species:S:1:pos:R:3:Z:I:1 energy=-321.5931914220838 field_type=dipole dipole="0.000000 0.000000 0.000000" charge=0
O	-2.331178	-0.333974	1.271648	8
C	-1.158628	-0.162014	1.053068	6
C	-0.203348	1.019196	0.826838	6
C	0.729932	-0.047594	0.215728	6
N	-0.167268	-1.058264	0.793268	7
C	0.754882	-0.144954	-1.226472	6
C	0.764962	-0.221434	-2.424992	6
H	0.149852	1.478976	1.754398	1
H	-0.584498	1.784966	0.147038	1
H	1.722082	-0.080674	0.679088	1
H	-0.443448	-1.947244	0.399468	1
H	0.766652	-0.286984	-3.489081	1
Es	-0.456345	1.524390	0.370941	99
Es	-1.885030	-0.281199	1.446563	99
Es	0.251318	-0.680474	0.493905	99
Es	0.571691	-0.487779	-1.801145	99
Es	-1.982654	-0.256370	0.950469	99
Es	-0.141774	-1.017574	1.106068	99
Es	1.403931	-0.069599	0.504510	99
Es	-0.732954	0.498915	0.973226	99
Es	-0.313651	-1.579559	0.544999	99
Es	-2.330880	-0.333929	1.271591	99
Es	0.764960	-0.221461	-2.425223	99
Es	-0.167534	-1.058041	0.792851	99
Es	0.745636	-0.088465	-0.533293	99
Es	-0.625924	-0.719538	0.831103	99
Es	0.589456	0.127164	-1.847338	99
Es	1.115793	-0.193714	-1.824501	99
Es	-0.203328	1.019115	0.826822	99
Es	0.766618	-0.265032	-3.115860	99
Es	0.327137	0.538699	0.472435	99
Es	0.729779	-0.047714	0.215684	99
Es	-1.158453	-0.162040	1.053048	99
Es	-2.483773	-0.076047	1.314167	99
Es	0.754883	-0.144939	-1.226218	99
Es	-2.384941	-0.632993	1.265788	99
Es	0.037271	1.311306	1.445725	99
37
Properties=species:S:1:pos:R:3:Z:I:1 energy=-321.5931914220838 field_type=dipole dipole="0.000000 0.000000 0.000000" charge=0
O	-2.331178	-0.333974	1.271648	8
C	-1.158628	-0.162014	1.053068	6
C	-0.203348	1.019196	0.826838	6
C	0.729932	-0.047594	0.215728	6
N	-0.167268	-1.058264	0.793268	7
C	0.754882	-0.144954	-1.226472	6
C	0.764962	-0.221434	-2.424992	6
H	0.149852	1.478976	1.754398	1
H	-0.584498	1.784966	0.147038	1
H	1.722082	-0.080674	0.679088	1
H	-0.443448	-1.947244	0.399468	1
H	0.766652	-0.286984	-3.489081	1
Es	-0.732900	0.498974	0.973424	99
Es	-1.158459	-0.162041	1.053045	99
Es	-2.385825	-0.632628	1.266362	99
Es	0.251217	-0.680735	0.493724	99
Es	-0.456488	1.524281	0.370986	99
Es	0.878084	-0.524833	-1.799624	99
Es	0.404762	-0.117574	-1.832098	99
Es	-0.141383	-1.017906	1.105567	99
Es	0.327063	0.538915	0.472214	99
Es	-0.313842	-1.579383	0.545003	99
Es	0.037300	1.311425	1.445619	99
Es	-2.483184	-0.075166	1.314029	99
Es	-0.203329	1.019115	0.826822	99
Es	0.764963	-0.221459	-2.425219	99
Es	0.754883	-0.144938	-1.226209	99
Es	-2.330693	-0.334091	1.271552	99
Es	1.403881	-0.069598	0.504457	99
Es	-1.982854	-0.257225	0.950640	99
Es	0.729780	-0.047713	0.215683	99
Es	0.994195	0.088053	-1.841096	99
Es	-1.884711	-0.281430	1.445940	99
Es	-0.626138	-0.719328	0.831786	99
Es	0.766819	-0.264949	-3.115786	99
Es	0.745619	-0.088595	-0.533368	99
Es	-0.167530	-1.058052	0.792863	99
37
Properties=species:S:1:pos:R:3:Z:I:1 energy=-321.5931914220838 field_type=dipole dipole="0.000000 0.000000 0.000000" charge=0
O	-2.331178	-0.333974	1.271648	8
C	-1.158628	-0.162014	1.053068	6
C	-0.203348	1.019196	0.826838	6
C	0.729932	-0.047594	0.215728	6
N	-0.167268	-1.058264	0.793268	7
C	0.754882	-0.144954	-1.226472	6
C	0.764962	-0.221434	-2.424992	6
H	0.149852	1.478976	1.754398	1
H	-0.584498	1.784966	0.147038	1
H	1.722082	-0.080674	0.679088	1
H	-0.443448	-1.947244	0.399468	1
H	0.766652	-0.286984	-3.489081	1
Es	-0.313290	-1.579833	0.545676	99
Es	-1.158458	-0.162041	1.053047	99
Es	-1.884235	-0.285887	1.445700	99
Es	0.037234	1.311439	1.445602	99
Es	0.729781	-0.047712	0.215683	99
Es	0.766773	-0.264909	-3.115779	99
Es	0.327162	0.539048	0.472226	99
Es	0.251817	-0.681022	0.494201	99
Es	-0.143164	-1.016548	1.107574	99
Es	-0.732962	0.499033	0.973393	99
Es	-2.330806	-0.333930	1.271607	99
Es	0.764959	-0.221457	-2.425220	99
Es	-0.625489	-0.720025	0.828593	99
Es	1.403835	-0.069689	0.504343	99
Es	-0.456467	1.524265	0.371027	99
Es	-0.203329	1.019114	0.826822	99
Es	-2.385238	-0.632814	1.260432	99
Es	-1.983483	-0.251849	0.951568	99
Es	0.899788	0.145500	-1.844963	99
Es	-2.483472	-0.076107	1.319271	99
Es	0.401441	-0.227703	-1.823356	99
Es	0.975861	-0.472134	-1.804506	99
Es	0.754883	-0.144940	-1.226215	99
Es	0.745654	-0.088663	-0.533273	99
Es	-0.167566	-1.058015	0.792866	99
37
Properties=species:S:1:pos:R:3:Z:I:1 energy=-321.5931914220838 field_type=dipole dipole="0.000000 0.000000 0.000000" charge=0
O	-2.331178	-0.333974	1.271648	8
C	-1.158628	-0.162014	1.053068	6
C	-0.203348	1.019196	0.826838	6
C	0.729932	-0.047594	0.215728	6
N	-0.167268	-1.058264	0.793268	7
C	0.754882	-0.144954	-1.226472	6
C	0.764962	-0.221434	-2.424992	6
H	0.149852	1.478976	1.754398	1
H	-0.584498	1.784966	0.147038	1
H	1.722082	-0.080674	0.679088	1
H	-0.443448	-1.947244	0.399468	1
H	0.766652	-0.286984	-3.489081	1
Es	1.403837	-0.069681	0.504258	99
Es	-0.456459	1.524256	0.371079	99
Es	0.327232	0.539102	0.472188	99
Es	0.251650	-0.680996	0.493949	99
Es	0.729781	-0.047712	0.215684	99
Es	0.037183	1.311447	1.445578	99
Es	-1.885568	-0.279711	1.446002	99
Es	0.766838	-0.264951	-3.115704	99
Es	0.850351	-0.533258	-1.798761	99
Es	-0.203329	1.019114	0.826822	99
Es	1.015301	0.068466	-1.839913	99
Es	-2.483230	-0.076550	1.313598	99
Es	-1.982419	-0.255531	0.951411	99
Es	0.745624	-0.088615	-0.533175	99
Es	-0.313457	-1.579698	0.545576	99
Es	-2.385165	-0.634829	1.265977	99
Es	-2.330837	-0.333965	1.271580	99
Es	-1.158457	-0.162041	1.053046	99
Es	0.411394	-0.089558	-1.834222	99
Es	-0.732996	0.499100	0.973328	99
Es	-0.167560	-1.058021	0.792856	99
Es	0.754883	-0.144940	-1.226216	99
Es	-0.142625	-1.016953	1.106901	99
Es	0.764960	-0.221458	-2.425219	99
Es	-0.625699	-0.719898	0.829695	99
37
Properties=species:S:1:pos:R:3:Z:I:1 energy=-321.5931914220838 field_type=dipole dipole="0.000000 0.000000 0.000000" charge=0
O	-2.331178	-0.333974	1.271648	8
C	-1.158628	-0.162014	1.053068	6
C	-0.203348	1.019196	0.826838	6
C	0.729932	-0.047594	0.215728	6
N	-0.167268	-1.058264	0.793268	7
C	0.754882	-0.144954	-1.226472	6
C	0.764962	-0.221434	-2.424992	6
H	0.149852	1.478976	1.754398	1
H	-0.584498	1.784966	0.147038	1
H	1.722082	-0.080674	0.679088	1
H	-0.443448	-1.947244	0.399468	1
H	0.766652	-0.286984	-3.489081	1
Es	-1.158457	-0.162041	1.053047	99
Es	0.937421	0.127607	-1.843644	99
Es	-0.625537	-0.720209	0.828444	99
Es	-1.983440	-0.257065	0.950244	99
Es	1.403829	-0.069732	0.504178	99
Es	0.251639	-0.681126	0.493912	99
Es	-0.167555	-1.058026	0.792888	99
Es	-0.733020	0.499157	0.973329	99
Es	-0.142966	-1.016616	1.108052	99
Es	0.398438	-0.186200	-1.826751	99
Es	0.327246	0.539217	0.472133	99
Es	0.037140	1.311454	1.445549	99
Es	0.941212	-0.495742	-1.802416	99
Es	0.729781	-0.047712	0.215684	99
Es	0.766849	-0.264903	-3.115740	99
Es	-2.481393	-0.075235	1.314176	99
Es	0.754883	-0.144940	-1.226216	99
Es	-2.387220	-0.633168	1.267045	99
Es	-0.313281	-1.579615	0.545707	99
Es	-0.456458	1.524248	0.371118	99
Es	-1.884311	-0.281242	1.445493	99
Es	0.764959	-0.221457	-2.425219	99
Es	-2.330848	-0.333950	1.271584	99
Es	0.745648	-0.088696	-0.533099	99
Es	-0.203329	1.019114	0.826822	99
37
Properties=species:S:1:pos:R:3:Z:I:1 energy=-321.5931914220838 field_type=dipole dipole="0.000000 0.000000 0.000000" charge=0
O	-2.331178	-0.333974	1.271648	8
C	-1.158628	-0.162014	1.053068	6
C	-0.203348	1.019196	0.826838	6
C	0.729932	-0.047594	0.215728	6
N	-0.167268	-1.058264	0.793268	7
C	0.754882	-0.144954	-1.226472	6
C	0.764962	-0.221434	-2.424992	6
H	0.149852	1.478976	1.754398	1
H	-0.584498	1.784966	0.147038	1
H	1.722082	-0.080674	0.679088	1
H	-0.443448	-1.947244	0.399468	1
H	0.766652	-0.286984	-3.489081	1
Es	0.754882	-0.144942	-1.226216	99
Es	-0.456453	1.524224	0.371106	99
Es	-0.625605	-0.720055	0.830188	99
Es	-2.379185	-0.634236	1.262760	99
Es	-0.313838	-1.579296	0.545266	99
Es	0.745584	-0.088676	-0.532999	99
Es	0.403321	-0.125853	-1.831494	99
Es	0.885863	-0.522155	-1.799900	99
Es	-0.733058	0.499195	0.973365	99
Es	0.251365	-0.680903	0.493513	99
Es	-0.203330	1.019114	0.826822	99
Es	0.764960	-0.221457	-2.425221	99
Es	1.403871	-0.069711	0.504126	99
Es	-1.981356	-0.253123	0.951921	99
Es	0.987927	0.093704	-1.841432	99
Es	-1.158456	-0.162041	1.053048	99
Es	-0.142010	-1.017533	1.107145	99
Es	-2.489113	-0.079691	1.314414	99
Es	-1.886641	-0.279623	1.447937	99
Es	-0.167644	-1.057943	0.792810	99
Es	0.766853	-0.264959	-3.115714	99
Es	0.327320	0.539212	0.472112	99
Es	0.037058	1.311495	1.445483	99
Es	0.729782	-0.047711	0.215684	99
Es	-2.330868	-0.333917	1.271594	99
37
Properties=species:S:1:pos:R:3:Z:I:1 energy=-321.5931914220838 field_type=dipole dipole="0.000000 0.000000 0.000000" charge=0
O	-2.331178	-0.333974	1.271648	8
C	-1.158628	-0.162014	1.053068	6
C	-0.203348	1.019196	0.826838	6
C	0.729932	-0.047594	0.215728	6
N	-0.167268	-1.058264	0.793268	7
C	0.754882	-0.144954	-1.226472	6
C	0.764962	-0.221434	-2.424992	6
H	0.149852	1.478976	1.754398	1
H	-0.584498	1.784966	0.147038	1
H	1.722082	-0.080674	0.679088	1
H	-0.443448	-1.947244	0.399468	1
H	0.766652	-0.286984	-3.489081	1
Es	0.745582	-0.088684	-0.532950	99
Es	1.403849	-0.069790	0.504030	99
Es	0.037112	1.311486	1.445512	99
Es	-0.456434	1.524202	0.371256	99
Es	-0.203329	1.019113	0.826820	99
Es	0.764959	-0.221456	-2.425215	99
Es	0.954340	0.117915	-1.842972	99
Es	-2.385093	-0.633970	1.265053	99
Es	-0.313745	-1.579479	0.545563	99
Es	-2.483695	-0.076357	1.313093	99
Es	0.754881	-0.144942	-1.226218	99
Es	-1.981435	-0.255781	0.951834	99
Es	0.327276	0.539364	0.472024	99
Es	-0.733150	0.499256	0.973304	99
Es	-1.158463	-0.162041	1.053050	99
Es	0.924004	-0.505272	-1.801545	99
Es	0.398738	-0.167061	-1.828308	99
Es	-0.141421	-1.017486	1.106584	99
Es	-2.330885	-0.333922	1.271595	99
Es	0.729780	-0.047712	0.215685	99
Es	-0.167640	-1.057950	0.792842	99
Es	-0.625859	-0.719942	0.830902	99
Es	0.250974	-0.680903	0.493024	99
Es	-1.886032	-0.280629	1.447039	99
Es	0.766914	-0.264838	-3.115684	99
37
Properties=species:S:1:pos:R:3:Z:I:1 energy=-321.5931914220838 field_type=dipole dipole="0.000000 0.000000 0.000000" charge=0
O	-2.331178	-0.333974	1.271648	8
C	-1.158628	-0.162014	1.053068	6
C	-0.203348	1.019196	0.826838	6
C	0.729932	-0.047594	0.215728	6
N	-0.167268	-1.058264	0.793268	7
C	0.754882	-0.144954	-1.226472	6
C	0.764962	-0.221434	-2.424992	6
H	0.149852	1.478976	1.754398	1
H	-0.584498	1.784966	0.147038	1
H	1.722082	-0.080674	0.679088	1
H	-0.443448	-1.947244	0.399468	1
H	0.766652	-0.286984	-3.489081	1
Es	-0.313092	-1.579923	0.546253	99
Es	0.754881	-0.144939	-1.226221	99
Es	0.745656	-0.088692	-0.532795	99
Es	-1.885533	-0.279925	1.446602	99
Es	-1.158455	-0.162040	1.053046	99
Es	0.903275	-0.515242	-1.800604	99
Es	-2.330829	-0.333914	1.271577	99
Es	-0.625915	-0.720190	0.829302	99
Es	0.764960	-0.221457	-2.425217	99
Es	-0.456478	1.524274	0.371258	99
Es	0.251564	-0.681226	0.493515	99
Es	-0.203330	1.019112	0.826820	99
Es	0.036984	1.311412	1.445484	99
Es	0.327371	0.539413	0.472001	99
Es	-2.485077	-0.077257	1.313648	99
Es	1.403841	-0.069786	0.503959	99
Es	0.729781	-0.047711	0.215686	99
Es	-0.733078	0.499319	0.973340	99
Es	-0.167515	-1.058057	0.792865	99
Es	0.766896	-0.264938	-3.115645	99
Es	-1.982276	-0.255955	0.950891	99
Es	0.400499	-0.143923	-1.830128	99
Es	-0.142751	-1.016485	1.106968	99
Es	0.973280	0.104850	-1.842150	99
Es	-2.383429	-0.633598	1.265865	99
37
Properties=species:S:1:pos:R:3:Z:I:1 energy=-321.5931914220838 field_type=dipole dipole="0.000000 0.000000 0.000000" charge=0
O	-2.331178	-0.333974	1.271648	8
C	-1.158628	-0.162014	1.053068	6
C	-0.203348	1.019196	0.826838	6
C	0.729932	-0.047594	0.215728	6
N	-0.167268	-1.058264	0.793268	7
C	0.754882	-0.144954	-1.226472	6
C	0.764962	-0.221434	-2.424992	6
H	0.149852	1.478976	1.754398	1
H	-0.584498	1.784966	0.147038	1
H	1.722082	-0.080674	0.679088	1
H	-0.443448	-1.947244	0.399468	1
H	0.766652	-0.286984	-3.489081	1
Es	-0.313649	-1.579308	0.545629	99
Es	0.729778	-0.047711	0.215688	99
Es	-2.384281	-0.633694	1.264955	99
Es	-2.330818	-0.333945	1.271576	99
Es	0.754881	-0.144940	-1.226215	99
Es	0.986156	0.095126	-1.841512	99
Es	-0.456518	1.524101	0.371258	99
Es	-0.203329	1.019113	0.826820	99
Es	-1.982511	-0.255557	0.951563	99
Es	-0.625801	-0.720146	0.829912	99
Es	0.037026	1.311590	1.445473	99
Es	-0.733102	0.499367	0.973366	99
Es	0.766932	-0.264888	-3.115611	99
Es	0.402533	-0.128126	-1.831348	99
Es	0.251691	-0.681175	0.493468	99
Es	0.888344	-0.521342	-1.800013	99
Es	-1.158454	-0.162041	1.053042	99
Es	1.403812	-0.069808	0.503868	99
Es	-2.484429	-0.077176	1.313466	99
Es	0.745657	-0.088763	-0.532770	99
Es	0.764960	-0.221456	-2.425219	99
Es	0.327372	0.539488	0.471941	99
Es	-0.142441	-1.017215	1.107054	99
Es	-0.167495	-1.058089	0.792910	99
Es	-1.885085	-0.280286	1.447017	99
