43
Properties=species:S:1:pos:R:3:Z:I:1 energy=-323.9236516947389 field_type=dipole dipole="0.000000 0.000000 0.000000" charge=0
O	-0.877566	-2.264251	-1.026245	8
C	-1.687896	-1.417521	-0.211125	6
C	-1.164286	0.021209	-0.281515	6
N	0.179414	0.095659	0.304175	7
C	0.778594	1.406529	0.086045	6
C	2.123614	1.436809	0.674355	6
C	3.224484	1.461599	1.154915	6
H	-1.176816	-3.175381	-0.864225	1
H	-1.670366	-1.793701	0.817405	1
H	-2.715116	-1.463141	-0.586195	1
H	-1.846026	0.683809	0.262405	1
H	-1.130726	0.332319	-1.332745	1
H	0.756174	-0.615311	-0.152835	1
H	0.163154	2.184789	0.553535	1
H	0.845443	1.628809	-0.984955	1
H	4.197924	1.477779	1.587005	1
Es	0.778676	1.406415	0.086129	99
Es	-1.053645	-2.748007	-0.928853	99
Es	-1.422280	-0.700072	-0.244931	99
Es	0.371784	1.929850	0.404565	99
Es	-1.687749	-1.417628	-0.211274	99
Es	-1.680390	-1.672925	0.496889	99
Es	0.446787	0.677156	0.182786	99
Es	0.158496	0.032470	0.650572	99
Es	1.481579	1.422840	0.391123	99
Es	2.770185	1.151971	0.730927	99
Es	2.123372	1.436810	0.674243	99
Es	3.860552	1.472871	1.436144	99
Es	-0.877850	-2.264355	-1.025977	99
Es	0.835670	1.561690	-0.639524	99
Es	-1.164177	0.021172	-0.281446	99
Es	0.522892	-0.312015	0.009267	99
Es	-1.147105	0.237543	-1.007096	99
Es	2.737484	1.775805	0.769200	99
Es	3.224708	1.461602	1.155008	99
Es	-1.632102	0.473750	0.090671	99
Es	0.179437	0.095806	0.303567	99
Es	-0.590840	-2.244604	-0.912408	99
Es	-0.943829	-2.195378	-1.317307	99
Es	-2.401030	-1.442776	-0.465806	99
Es	-1.193779	-1.961967	-0.711688	99
Es	-0.397683	0.079134	0.024817	99
Es	2.547688	1.423276	1.247728	99
43
Properties=species:S:1:pos:R:3:Z:I:1 energy=-323.9236516947389 field_type=dipole dipole="0.000000 0.000000 0.000000" charge=0
O	-0.877566	-2.264251	-1.026245	8
C	-1.687896	-1.417521	-0.211125	6
C	-1.164286	0.021209	-0.281515	6
N	0.179414	0.095659	0.304175	7
C	0.778594	1.406529	0.086045	6
C	2.123614	1.436809	0.674355	6
C	3.224484	1.461599	1.154915	6
H	-1.176816	-3.175381	-0.864225	1
H	-1.670366	-1.793701	0.817405	1
H	-2.715116	-1.463141	-0.586195	1
H	-1.846026	0.683809	0.262405	1
H	-1.130726	0.332319	-1.332745	1
H	0.756174	-0.615311	-0.152835	1
H	0.163154	2.184789	0.553535	1
H	0.845443	1.628809	-0.984955	1
H	4.197924	1.477779	1.587005	1
Es	0.835636	1.561803	-0.639515	99
Es	0.157687	0.032865	0.650117	99
Es	-2.401005	-1.442803	-0.465707	99
Es	0.371849	1.929800	0.404645	99
Es	0.778678	1.406415	0.086128	99
Es	2.123374	1.436813	0.674243	99
Es	-1.422357	-0.699969	-0.244835	99
Es	-0.943690	-2.196485	-1.318016	99
Es	0.523375	-0.312603	0.009774	99
Es	1.481562	1.422821	0.391050	99
Es	-1.164182	0.021172	-0.281448	99
Es	-1.194933	-1.961997	-0.712566	99
Es	0.446764	0.677165	0.183141	99
Es	-0.591433	-2.243415	-0.912170	99
Es	-1.632054	0.473731	0.090538	99
Es	-1.052112	-2.748109	-0.927500	99
Es	2.547710	1.421762	1.247739	99
Es	0.179428	0.095804	0.303545	99
Es	-0.877821	-2.264345	-1.026028	99
Es	-1.680365	-1.672927	0.496852	99
Es	-1.687749	-1.417626	-0.211273	99
Es	3.860479	1.472918	1.436116	99
Es	2.770815	1.152760	0.729718	99
Es	3.224701	1.461605	1.155004	99
Es	-0.397289	0.079286	0.024478	99
Es	2.736897	1.776519	0.770448	99
Es	-1.147112	0.237475	-1.007153	99
43
Properties=species:S:1:pos:R:3:Z:I:1 energy=-323.9236516947389 field_type=dipole dipole="0.000000 0.000000 0.000000" charge=0
O	-0.877566	-2.264251	-1.026245	8
C	-1.687896	-1.417521	-0.211125	6
C	-1.164286	0.021209	-0.281515	6
N	0.179414	0.095659	0.304175	7
C	0.778594	1.406529	0.086045	6
C	2.123614	1.436809	0.674355	6
C	3.224484	1.461599	1.154915	6
H	-1.176816	-3.175381	-0.864225	1
H	-1.670366	-1.793701	0.817405	1
H	-2.715116	-1.463141	-0.586195	1
H	-1.846026	0.683809	0.262405	1
H	-1.130726	0.332319	-1.332745	1
H	0.756174	-0.615311	-0.152835	1
H	0.163154	2.184789	0.553535	1
H	0.845443	1.628809	-0.984955	1
H	4.197924	1.477779	1.587005	1
Es	0.179430	0.095796	0.303574	99
Es	0.371897	1.929943	0.404687	99
Es	-1.147133	0.237524	-1.007014	99
Es	2.123370	1.436811	0.674246	99
Es	-1.680413	-1.672895	0.496799	99
Es	0.778678	1.406416	0.086128	99
Es	2.763296	1.141493	0.745282	99
Es	0.523268	-0.312217	0.010157	99
Es	3.860444	1.472828	1.436067	99
Es	-1.193945	-1.961687	-0.711796	99
Es	-2.401002	-1.442789	-0.465696	99
Es	0.446918	0.677202	0.183180	99
Es	-1.164180	0.021172	-0.281447	99
Es	-1.632057	0.473745	0.090541	99
Es	-0.397348	0.079011	0.024036	99
Es	0.157705	0.032658	0.650084	99
Es	-0.944790	-2.196474	-1.317312	99
Es	0.835710	1.561785	-0.639462	99
Es	3.224697	1.461609	1.155010	99
Es	-0.590693	-2.243897	-0.913498	99
Es	-1.687749	-1.417627	-0.211274	99
Es	1.481510	1.422752	0.390909	99
Es	-1.422364	-0.700027	-0.244907	99
Es	-0.877808	-2.264354	-1.025978	99
Es	2.744979	1.767066	0.753849	99
Es	-1.052729	-2.747997	-0.927686	99
Es	2.547159	1.442587	1.248846	99
43
Properties=species:S:1:pos:R:3:Z:I:1 energy=-323.9236516947389 field_type=dipole dipole="0.000000 0.000000 0.000000" charge=0
O	-0.877566	-2.264251	-1.026245	8
C	-1.687896	-1.417521	-0.211125	6
C	-1.164286	0.021209	-0.281515	6
N	0.179414	0.095659	0.304175	7
C	0.778594	1.406529	0.086045	6
C	2.123614	1.436809	0.674355	6
C	3.224484	1.461599	1.154915	6
H	-1.176816	-3.175381	-0.864225	1
H	-1.670366	-1.793701	0.817405	1
H	-2.715116	-1.463141	-0.586195	1
H	-1.846026	0.683809	0.262405	1
H	-1.130726	0.332319	-1.332745	1
H	0.756174	-0.615311	-0.152835	1
H	0.163154	2.184789	0.553535	1
H	0.845443	1.628809	-0.984955	1
H	4.197924	1.477779	1.587005	1
Es	2.548261	1.408390	1.246556	99
Es	-1.632105	0.473716	0.090554	99
Es	3.860429	1.472940	1.436035	99
Es	2.731843	1.782252	0.780963	99
Es	-1.680482	-1.672942	0.496739	99
Es	-1.147122	0.237543	-1.007005	99
Es	2.123368	1.436811	0.674242	99
Es	-1.687748	-1.417627	-0.211275	99
Es	0.179421	0.095793	0.303549	99
Es	-2.400943	-1.442799	-0.465674	99
Es	0.446865	0.677145	0.183450	99
Es	0.523285	-0.312240	0.009854	99
Es	0.371965	1.929943	0.404742	99
Es	-0.397490	0.079106	0.024377	99
Es	0.157906	0.032545	0.649853	99
Es	-1.422354	-0.699909	-0.244914	99
Es	1.481436	1.422770	0.390912	99
Es	2.775348	1.160391	0.720449	99
Es	0.835718	1.561836	-0.639479	99
Es	-0.942632	-2.196478	-1.318710	99
Es	-0.593361	-2.244081	-0.912610	99
Es	-1.194284	-1.961106	-0.711976	99
Es	3.224706	1.461603	1.155006	99
Es	-1.164181	0.021172	-0.281447	99
Es	-1.051816	-2.748417	-0.926905	99
Es	-0.877861	-2.264342	-1.026088	99
Es	0.778677	1.406417	0.086126	99
43
Properties=species:S:1:pos:R:3:Z:I:1 energy=-323.9236516947389 field_type=dipole dipole="0.000000 0.000000 0.000000" charge=0
O	-0.877566	-2.264251	-1.026245	8
C	-1.687896	-1.417521	-0.211125	6
C	-1.164286	0.021209	-0.281515	6
N	0.179414	0.095659	0.304175	7
C	0.778594	1.406529	0.086045	6
C	2.123614	1.436809	0.674355	6
C	3.224484	1.461599	1.154915	6
H	-1.176816	-3.175381	-0.864225	1
H	-1.670366	-1.793701	0.817405	1
H	-2.715116	-1.463141	-0.586195	1
H	-1.846026	0.683809	0.262405	1
H	-1.130726	0.332319	-1.332745	1
H	0.756174	-0.615311	-0.152835	1
H	0.163154	2.184789	0.553535	1
H	0.845443	1.628809	-0.984955	1
H	4.197924	1.477779	1.587005	1
Es	0.523151	-0.312287	0.010065	99
Es	2.547226	1.438793	1.248872	99
Es	-1.164182	0.021172	-0.281448	99
Es	-1.687750	-1.417626	-0.211272	99
Es	2.743600	1.768924	0.756637	99
Es	2.764602	1.143392	0.742570	99
Es	-0.397759	0.079073	0.024558	99
Es	0.835831	1.561950	-0.639495	99
Es	-1.422360	-0.699965	-0.244829	99
Es	0.158179	0.032750	0.649709	99
Es	0.179431	0.095788	0.303563	99
Es	-0.590560	-2.242801	-0.916537	99
Es	0.447039	0.676925	0.183167	99
Es	0.371955	1.929822	0.404664	99
Es	-1.147130	0.237553	-1.006930	99
Es	3.860456	1.472855	1.435912	99
Es	-1.051286	-2.748568	-0.926423	99
Es	1.481301	1.422940	0.391031	99
Es	-1.680506	-1.672941	0.496636	99
Es	2.123371	1.436813	0.674246	99
Es	-2.400984	-1.442808	-0.465668	99
Es	-0.877888	-2.264350	-1.026051	99
Es	-1.632079	0.473727	0.090490	99
Es	-0.946802	-2.197647	-1.316369	99
Es	-1.193380	-1.961072	-0.710908	99
Es	0.778678	1.406417	0.086126	99
Es	3.224698	1.461607	1.155010	99
43
Properties=species:S:1:pos:R:3:Z:I:1 energy=-323.9236516947389 field_type=dipole dipole="0.000000 0.000000 0.000000" charge=0
O	-0.877566	-2.264251	-1.026245	8
C	-1.687896	-1.417521	-0.211125	6
C	-1.164286	0.021209	-0.281515	6
N	0.179414	0.095659	0.304175	7
C	0.778594	1.406529	0.086045	6
C	2.123614	1.436809	0.674355	6
C	3.224484	1.461599	1.154915	6
H	-1.176816	-3.175381	-0.864225	1
H	-1.670366	-1.793701	0.817405	1
H	-2.715116	-1.463141	-0.586195	1
H	-1.846026	0.683809	0.262405	1
H	-1.130726	0.332319	-1.332745	1
H	0.756174	-0.615311	-0.152835	1
H	0.163154	2.184789	0.553535	1
H	0.845443	1.628809	-0.984955	1
H	4.197924	1.477779	1.587005	1
Es	0.179432	0.095801	0.303570	99
Es	-0.944053	-2.196593	-1.317104	99
Es	3.224710	1.461600	1.154987	99
Es	0.371978	1.929954	0.404685	99
Es	-1.193339	-1.960544	-0.711169	99
Es	2.547639	1.422307	1.248043	99
Es	-1.632075	0.473694	0.090522	99
Es	2.123375	1.436803	0.674243	99
Es	-0.877808	-2.264354	-1.026036	99
Es	-2.400984	-1.442780	-0.465634	99
Es	-1.052834	-2.748281	-0.927675	99
Es	0.778678	1.406416	0.086127	99
Es	2.770674	1.152432	0.730009	99
Es	3.860404	1.472830	1.435977	99
Es	1.481229	1.422875	0.390992	99
Es	0.157124	0.033148	0.649398	99
Es	2.737154	1.776414	0.769967	99
Es	-1.147254	0.237554	-1.006850	99
Es	0.447306	0.676991	0.183436	99
Es	-0.397168	0.079307	0.023692	99
Es	0.523416	-0.312923	0.010933	99
Es	-1.680457	-1.672870	0.496704	99
Es	-1.687749	-1.417627	-0.211273	99
Es	-1.422372	-0.700049	-0.244919	99
Es	-1.164182	0.021173	-0.281448	99
Es	-0.591895	-2.244705	-0.914333	99
Es	0.835900	1.561862	-0.639519	99
43
Properties=species:S:1:pos:R:3:Z:I:1 energy=-323.9236516947389 field_type=dipole dipole="0.000000 0.000000 0.000000" charge=0
O	-0.877566	-2.264251	-1.026245	8
C	-1.687896	-1.417521	-0.211125	6
C	-1.164286	0.021209	-0.281515	6
N	0.179414	0.095659	0.304175	7
C	0.778594	1.406529	0.086045	6
C	2.123614	1.436809	0.674355	6
C	3.224484	1.461599	1.154915	6
H	-1.176816	-3.175381	-0.864225	1
H	-1.670366	-1.793701	0.817405	1
H	-2.715116	-1.463141	-0.586195	1
H	-1.846026	0.683809	0.262405	1
H	-1.130726	0.332319	-1.332745	1
H	0.756174	-0.615311	-0.152835	1
H	0.163154	2.184789	0.553535	1
H	0.845443	1.628809	-0.984955	1
H	4.197924	1.477779	1.587005	1
Es	3.860320	1.472984	1.436128	99
Es	0.835906	1.561885	-0.639490	99
Es	3.224705	1.461601	1.155005	99
Es	-1.680498	-1.672868	0.496623	99
Es	0.179431	0.095796	0.303561	99
Es	-1.422392	-0.699985	-0.244926	99
Es	-1.147188	0.237605	-1.006864	99
Es	2.548713	1.396260	1.245334	99
Es	-1.164184	0.021171	-0.281449	99
Es	2.727270	1.786634	0.790651	99
Es	0.447208	0.676844	0.183090	99
Es	-1.632081	0.473654	0.090474	99
Es	2.123372	1.436818	0.674253	99
Es	-1.193738	-1.960938	-0.710735	99
Es	0.523290	-0.312613	0.010897	99
Es	-0.592146	-2.244448	-0.914467	99
Es	0.372014	1.929961	0.404680	99
Es	0.157496	0.033139	0.649699	99
Es	-1.052400	-2.748733	-0.928568	99
Es	-0.877879	-2.264325	-1.026054	99
Es	-0.943762	-2.196087	-1.316502	99
Es	1.481203	1.422884	0.390990	99
Es	0.778678	1.406419	0.086127	99
Es	-1.687751	-1.417626	-0.211273	99
Es	-2.400953	-1.442803	-0.465575	99
Es	-0.397377	0.079109	0.023872	99
Es	2.779594	1.168096	0.711842	99
