41
Properties=species:S:1:pos:R:3:Z:I:1 energy=-359.8204750043645 field_type=dipole dipole="0.000000 0.000000 0.000000" charge=0
O	-1.867584	-1.042552	0.453704	8
C	-0.856004	-1.501362	-0.337376	6
O	-0.938954	-2.600872	-0.878356	8
C	0.341726	-0.526862	-0.465406	6
C	0.021026	0.946238	-0.804476	6
N	-0.043824	1.197178	0.661564	7
C	0.910756	0.068978	0.841894	6
H	-1.645074	-0.150642	0.808704	1
H	1.116776	-0.956492	-1.113156	1
H	-0.915124	1.129958	-1.338816	1
H	0.832376	1.481218	-1.312626	1
H	0.323376	2.108018	0.948474	1
H	1.965385	0.364098	0.783934	1
H	0.755146	-0.516902	1.751944	1
Es	0.399494	0.745769	0.795443	99
Es	0.584706	1.301763	-1.143993	99
Es	0.858219	-0.824805	-0.903282	99
Es	-0.021715	1.160953	0.016315	99
Es	-0.793016	-2.325348	-0.492184	99
Es	-1.466448	-1.181196	0.155519	99
Es	0.146755	0.168326	-0.716360	99
Es	0.021035	0.946211	-0.804308	99
Es	-0.381402	1.099050	0.791781	99
Es	-2.077893	-1.032341	0.260870	99
Es	0.188346	1.746616	0.828835	99
Es	0.341653	-0.526832	-0.465350	99
Es	-0.688416	-2.663387	-1.046851	99
Es	1.628213	0.272851	0.787117	99
Es	-1.203131	-2.734933	-0.806722	99
Es	0.910633	0.069081	0.841822	99
Es	-0.938942	-2.600569	-0.878201	99
Es	-1.867258	-1.042359	0.453630	99
Es	-0.043317	1.197243	0.661325	99
Es	-1.839958	-1.239601	0.654094	99
Es	0.645261	-0.323020	0.205876	99
Es	-1.734913	-0.585166	0.624910	99
Es	-1.011449	-2.109856	-0.896252	99
Es	-0.856139	-1.501208	-0.337233	99
Es	-0.264419	-0.997846	-0.388847	99
Es	-0.617795	1.074098	-1.170129	99
Es	0.806170	-0.329956	1.464906	99
41
Properties=species:S:1:pos:R:3:Z:I:1 energy=-359.8204750043645 field_type=dipole dipole="0.000000 0.000000 0.000000" charge=0
O	-1.867584	-1.042552	0.453704	8
C	-0.856004	-1.501362	-0.337376	6
O	-0.938954	-2.600872	-0.878356	8
C	0.341726	-0.526862	-0.465406	6
C	0.021026	0.946238	-0.804476	6
N	-0.043824	1.197178	0.661564	7
C	0.910756	0.068978	0.841894	6
H	-1.645074	-0.150642	0.808704	1
H	1.116776	-0.956492	-1.113156	1
H	-0.915124	1.129958	-1.338816	1
H	0.832376	1.481218	-1.312626	1
H	0.323376	2.108018	0.948474	1
H	1.965385	0.364098	0.783934	1
H	0.755146	-0.516902	1.751944	1
Es	0.584577	1.301732	-1.144077	99
Es	-0.021846	1.161202	0.016226	99
Es	0.146771	0.168386	-0.716460	99
Es	-0.688567	-2.663234	-1.047119	99
Es	-0.938921	-2.600599	-0.878229	99
Es	-1.867346	-1.042395	0.453661	99
Es	0.021036	0.946211	-0.804305	99
Es	0.341658	-0.526830	-0.465352	99
Es	0.858177	-0.824914	-0.903227	99
Es	1.628212	0.272790	0.787172	99
Es	-0.856133	-1.501210	-0.337221	99
Es	0.645185	-0.323315	0.205911	99
Es	0.188278	1.746386	0.828757	99
Es	0.399747	0.746110	0.795333	99
Es	-0.043339	1.197240	0.661336	99
Es	-0.617704	1.074083	-1.170059	99
Es	-0.792900	-2.325395	-0.492155	99
Es	-1.464263	-1.183491	0.158541	99
Es	-2.071615	-1.027843	0.256043	99
Es	0.806246	-0.329840	1.464789	99
Es	-1.734110	-0.586140	0.626373	99
Es	-0.264267	-0.997781	-0.388839	99
Es	-0.381444	1.098913	0.792173	99
Es	0.910636	0.069080	0.841824	99
Es	-1.203307	-2.734840	-0.806833	99
Es	-1.011337	-2.109986	-0.895946	99
Es	-1.849152	-1.240779	0.654415	99
41
Properties=species:S:1:pos:R:3:Z:I:1 energy=-359.8204750043645 field_type=dipole dipole="0.000000 0.000000 0.000000" charge=0
O	-1.867584	-1.042552	0.453704	8
C	-0.856004	-1.501362	-0.337376	6
O	-0.938954	-2.600872	-0.878356	8
C	0.341726	-0.526862	-0.465406	6
C	0.021026	0.946238	-0.804476	6
N	-0.043824	1.197178	0.661564	7
C	0.910756	0.068978	0.841894	6
H	-1.645074	-0.150642	0.808704	1
H	1.116776	-0.956492	-1.113156	1
H	-0.915124	1.129958	-1.338816	1
H	0.832376	1.481218	-1.312626	1
H	0.323376	2.108018	0.948474	1
H	1.965385	0.364098	0.783934	1
H	0.755146	-0.516902	1.751944	1
Es	0.584544	1.301779	-1.143972	99
Es	-1.462929	-1.184765	0.161087	99
Es	-0.380824	1.099160	0.791596	99
Es	0.645276	-0.323368	0.205955	99
Es	-0.938913	-2.600595	-0.878224	99
Es	-0.264161	-0.997811	-0.388927	99
Es	-0.043349	1.197245	0.661334	99
Es	-0.689683	-2.663765	-1.048619	99
Es	0.021035	0.946212	-0.804308	99
Es	1.628160	0.272712	0.787240	99
Es	0.858080	-0.824844	-0.903222	99
Es	-1.734562	-0.585684	0.626213	99
Es	-0.021879	1.161174	0.015968	99
Es	0.399601	0.745830	0.795864	99
Es	-0.791606	-2.326259	-0.492479	99
Es	0.806232	-0.329760	1.464785	99
Es	0.146667	0.168238	-0.716621	99
Es	-1.203206	-2.733914	-0.805964	99
Es	0.187868	1.746468	0.829059	99
Es	-0.617623	1.074194	-1.170075	99
Es	0.910637	0.069080	0.841824	99
Es	0.341653	-0.526831	-0.465350	99
Es	-1.011576	-2.109541	-0.894932	99
Es	-0.856130	-1.501215	-0.337212	99
Es	-1.859368	-1.243587	0.656351	99
Es	-1.867215	-1.042337	0.453620	99
Es	-2.062456	-1.024279	0.251740	99
41
Properties=species:S:1:pos:R:3:Z:I:1 energy=-359.8204750043645 field_type=dipole dipole="0.000000 0.000000 0.000000" charge=0
O	-1.867584	-1.042552	0.453704	8
C	-0.856004	-1.501362	-0.337376	6
O	-0.938954	-2.600872	-0.878356	8
C	0.341726	-0.526862	-0.465406	6
C	0.021026	0.946238	-0.804476	6
N	-0.043824	1.197178	0.661564	7
C	0.910756	0.068978	0.841894	6
H	-1.645074	-0.150642	0.808704	1
H	1.116776	-0.956492	-1.113156	1
H	-0.915124	1.129958	-1.338816	1
H	0.832376	1.481218	-1.312626	1
H	0.323376	2.108018	0.948474	1
H	1.965385	0.364098	0.783934	1
H	0.755146	-0.516902	1.751944	1
Es	-0.938945	-2.600589	-0.878219	99
Es	-0.264028	-0.997781	-0.389048	99
Es	-1.463661	-1.183845	0.159356	99
Es	0.341654	-0.526831	-0.465350	99
Es	0.806266	-0.329814	1.464731	99
Es	-0.617542	1.074202	-1.170039	99
Es	0.858073	-0.824878	-0.903129	99
Es	-0.022189	1.161245	0.016082	99
Es	-0.686579	-2.658985	-1.045359	99
Es	1.628110	0.272736	0.787300	99
Es	-1.012917	-2.110170	-0.895575	99
Es	-1.201760	-2.738643	-0.810082	99
Es	-2.072415	-1.029894	0.256393	99
Es	0.645301	-0.323434	0.206015	99
Es	-1.867255	-1.042353	0.453594	99
Es	-0.043319	1.197237	0.661324	99
Es	0.399640	0.745610	0.795981	99
Es	-1.847890	-1.239458	0.654511	99
Es	0.021038	0.946209	-0.804303	99
Es	-0.380696	1.099480	0.791664	99
Es	-0.794844	-2.325662	-0.491016	99
Es	0.146676	0.168262	-0.716812	99
Es	-1.735283	-0.585126	0.625212	99
Es	0.187909	1.746364	0.828893	99
Es	0.910634	0.069080	0.841823	99
Es	0.584431	1.301784	-1.143994	99
Es	-0.856135	-1.501207	-0.337221	99
41
Properties=species:S:1:pos:R:3:Z:I:1 energy=-359.8204750043645 field_type=dipole dipole="0.000000 0.000000 0.000000" charge=0
O	-1.867584	-1.042552	0.453704	8
C	-0.856004	-1.501362	-0.337376	6
O	-0.938954	-2.600872	-0.878356	8
C	0.341726	-0.526862	-0.465406	6
C	0.021026	0.946238	-0.804476	6
N	-0.043824	1.197178	0.661564	7
C	0.910756	0.068978	0.841894	6
H	-1.645074	-0.150642	0.808704	1
H	1.116776	-0.956492	-1.113156	1
H	-0.915124	1.129958	-1.338816	1
H	0.832376	1.481218	-1.312626	1
H	0.323376	2.108018	0.948474	1
H	1.965385	0.364098	0.783934	1
H	0.755146	-0.516902	1.751944	1
Es	-1.202669	-2.734453	-0.806816	99
Es	-2.062163	-1.023825	0.249623	99
Es	-1.867289	-1.042359	0.453630	99
Es	-1.861521	-1.241839	0.654890	99
Es	-1.734368	-0.585948	0.627158	99
Es	0.645400	-0.323665	0.206087	99
Es	-0.043336	1.197239	0.661333	99
Es	-0.022279	1.161361	0.015920	99
Es	0.341656	-0.526827	-0.465350	99
Es	0.187645	1.746397	0.829083	99
Es	-0.263879	-0.997761	-0.388946	99
Es	-1.461210	-1.186722	0.163733	99
Es	0.399484	0.745421	0.796331	99
Es	-1.011779	-2.110188	-0.896255	99
Es	-0.938935	-2.600635	-0.878251	99
Es	-0.793283	-2.325072	-0.491860	99
Es	0.146548	0.168220	-0.716880	99
Es	0.021035	0.946207	-0.804309	99
Es	-0.856140	-1.501206	-0.337236	99
Es	-0.688381	-2.663670	-1.047079	99
Es	0.584407	1.301723	-1.143977	99
Es	0.910636	0.069081	0.841823	99
Es	-0.617446	1.074247	-1.170057	99
Es	0.857923	-0.824900	-0.903171	99
Es	-0.380250	1.099644	0.791322	99
Es	0.806417	-0.329655	1.464711	99
Es	1.628048	0.272726	0.787276	99
41
Properties=species:S:1:pos:R:3:Z:I:1 energy=-359.8204750043645 field_type=dipole dipole="0.000000 0.000000 0.000000" charge=0
O	-1.867584	-1.042552	0.453704	8
C	-0.856004	-1.501362	-0.337376	6
O	-0.938954	-2.600872	-0.878356	8
C	0.341726	-0.526862	-0.465406	6
C	0.021026	0.946238	-0.804476	6
N	-0.043824	1.197178	0.661564	7
C	0.910756	0.068978	0.841894	6
H	-1.645074	-0.150642	0.808704	1
H	1.116776	-0.956492	-1.113156	1
H	-0.915124	1.129958	-1.338816	1
H	0.832376	1.481218	-1.312626	1
H	0.323376	2.108018	0.948474	1
H	1.965385	0.364098	0.783934	1
H	0.755146	-0.516902	1.751944	1
Es	-1.463793	-1.183905	0.158765	99
Es	-0.938794	-2.600462	-0.878228	99
Es	-0.043320	1.197238	0.661323	99
Es	0.910635	0.069079	0.841823	99
Es	-1.202372	-2.738876	-0.810320	99
Es	-0.793971	-2.325994	-0.491015	99
Es	-1.012005	-2.109711	-0.896082	99
Es	1.628009	0.272625	0.787404	99
Es	-0.380095	1.099645	0.791297	99
Es	0.584290	1.301763	-1.143989	99
Es	-0.263887	-0.997684	-0.389072	99
Es	-0.617402	1.074243	-1.170014	99
Es	0.806386	-0.329633	1.464612	99
Es	-0.687886	-2.659011	-1.044547	99
Es	0.146606	0.168109	-0.716935	99
Es	-0.022302	1.161446	0.015794	99
Es	0.645514	-0.323715	0.206075	99
Es	0.857835	-0.824914	-0.903210	99
Es	0.021035	0.946211	-0.804307	99
Es	0.187494	1.746344	0.829170	99
Es	0.399532	0.745551	0.796471	99
Es	-1.851078	-1.241003	0.654939	99
Es	-0.856136	-1.501208	-0.337225	99
Es	-1.735270	-0.585145	0.625721	99
Es	-2.069190	-1.028251	0.255977	99
Es	-1.867220	-1.042374	0.453656	99
Es	0.341656	-0.526828	-0.465351	99
41
Properties=species:S:1:pos:R:3:Z:I:1 energy=-359.8204750043645 field_type=dipole dipole="0.000000 0.000000 0.000000" charge=0
O	-1.867584	-1.042552	0.453704	8
C	-0.856004	-1.501362	-0.337376	6
O	-0.938954	-2.600872	-0.878356	8
C	0.341726	-0.526862	-0.465406	6
C	0.021026	0.946238	-0.804476	6
N	-0.043824	1.197178	0.661564	7
C	0.910756	0.068978	0.841894	6
H	-1.645074	-0.150642	0.808704	1
H	1.116776	-0.956492	-1.113156	1
H	-0.915124	1.129958	-1.338816	1
H	0.832376	1.481218	-1.312626	1
H	0.323376	2.108018	0.948474	1
H	1.965385	0.364098	0.783934	1
H	0.755146	-0.516902	1.751944	1
Es	-0.022462	1.161563	0.015673	99
Es	0.910636	0.069079	0.841823	99
Es	-0.793386	-2.324979	-0.491503	99
Es	-1.736147	-0.584479	0.624255	99
Es	-1.201582	-2.738538	-0.808558	99
Es	0.399548	0.745388	0.796712	99
Es	0.341657	-0.526827	-0.465350	99
Es	0.857845	-0.824902	-0.903099	99
Es	0.584222	1.301641	-1.143938	99
Es	-0.687860	-2.659424	-1.046080	99
Es	-0.938929	-2.600563	-0.878221	99
Es	-0.043338	1.197236	0.661333	99
Es	-1.867177	-1.042387	0.453682	99
Es	0.806562	-0.329571	1.464679	99
Es	-1.843021	-1.239428	0.654710	99
Es	0.187386	1.746237	0.829172	99
Es	-0.263728	-0.997708	-0.389167	99
Es	-0.617363	1.074356	-1.170062	99
Es	0.146513	0.168080	-0.717101	99
Es	0.021036	0.946210	-0.804306	99
Es	-0.379783	1.099863	0.791258	99
Es	-1.465308	-1.182226	0.156017	99
Es	-2.074924	-1.032183	0.260398	99
Es	-1.013284	-2.110532	-0.895827	99
Es	0.645379	-0.323819	0.206171	99
Es	-0.856133	-1.501208	-0.337217	99
Es	1.627914	0.272658	0.787278	99
41
Properties=species:S:1:pos:R:3:Z:I:1 energy=-359.8204750043645 field_type=dipole dipole="0.000000 0.000000 0.000000" charge=0
O	-1.867584	-1.042552	0.453704	8
C	-0.856004	-1.501362	-0.337376	6
O	-0.938954	-2.600872	-0.878356	8
C	0.341726	-0.526862	-0.465406	6
C	0.021026	0.946238	-0.804476	6
N	-0.043824	1.197178	0.661564	7
C	0.910756	0.068978	0.841894	6
H	-1.645074	-0.150642	0.808704	1
H	1.116776	-0.956492	-1.113156	1
H	-0.915124	1.129958	-1.338816	1
H	0.832376	1.481218	-1.312626	1
H	0.323376	2.108018	0.948474	1
H	1.965385	0.364098	0.783934	1
H	0.755146	-0.516902	1.751944	1
Es	-0.043348	1.197238	0.661339	99
Es	0.021035	0.946210	-0.804306	99
Es	0.146495	0.168073	-0.717201	99
Es	-0.856135	-1.501207	-0.337222	99
Es	-1.867259	-1.042346	0.453572	99
Es	-0.938919	-2.600581	-0.878219	99
Es	0.341657	-0.526829	-0.465351	99
Es	0.806525	-0.329514	1.464600	99
Es	0.187352	1.746189	0.829174	99
Es	-2.064038	-1.025722	0.253442	99
Es	-1.735054	-0.585196	0.626016	99
Es	-1.011158	-2.109607	-0.896023	99
Es	-0.689598	-2.664756	-1.047581	99
Es	0.910635	0.069078	0.841823	99
Es	-0.792380	-2.325822	-0.491957	99
Es	0.857744	-0.824937	-0.903090	99
Es	-1.202970	-2.733271	-0.806388	99
Es	0.645503	-0.323932	0.206154	99
Es	-1.462672	-1.185536	0.160452	99
Es	1.627901	0.272609	0.787404	99
Es	-0.379654	1.099952	0.791243	99
Es	-0.617254	1.074299	-1.170019	99
Es	0.584163	1.301719	-1.143964	99
Es	-0.263630	-0.997669	-0.389129	99
Es	-1.857591	-1.241912	0.655547	99
Es	0.399539	0.745386	0.796792	99
Es	-0.022615	1.161624	0.015622	99
41
Properties=species:S:1:pos:R:3:Z:I:1 energy=-359.8204750043645 field_type=dipole dipole="0.000000 0.000000 0.000000" charge=0
O	-1.867584	-1.042552	0.453704	8
C	-0.856004	-1.501362	-0.337376	6
O	-0.938954	-2.600872	-0.878356	8
C	0.341726	-0.526862	-0.465406	6
C	0.021026	0.946238	-0.804476	6
N	-0.043824	1.197178	0.661564	7
C	0.910756	0.068978	0.841894	6
H	-1.645074	-0.150642	0.808704	1
H	1.116776	-0.956492	-1.113156	1
H	-0.915124	1.129958	-1.338816	1
H	0.832376	1.481218	-1.312626	1
H	0.323376	2.108018	0.948474	1
H	1.965385	0.364098	0.783934	1
H	0.755146	-0.516902	1.751944	1
Es	-1.011783	-2.110044	-0.896799	99
Es	-1.867229	-1.042382	0.453649	99
Es	-0.263460	-0.997714	-0.389087	99
Es	0.399399	0.745145	0.797064	99
Es	0.341659	-0.526826	-0.465351	99
Es	0.806572	-0.329467	1.464572	99
Es	-0.023016	1.161582	0.015535	99
Es	-0.792521	-2.324992	-0.491853	99
Es	1.627854	0.272574	0.787427	99
Es	-0.689380	-2.663651	-1.046682	99
Es	-0.856135	-1.501208	-0.337222	99
Es	-0.617197	1.074232	-1.169967	99
Es	-1.733744	-0.586644	0.628710	99
Es	-1.459185	-1.189100	0.167430	99
Es	0.021037	0.946208	-0.804305	99
Es	-0.043350	1.197232	0.661338	99
Es	-0.379160	1.100320	0.791143	99
Es	-0.938921	-2.600583	-0.878219	99
Es	0.187362	1.746199	0.829137	99
Es	0.146465	0.168011	-0.717279	99
Es	0.910635	0.069077	0.841823	99
Es	0.645439	-0.323970	0.206174	99
Es	-1.202481	-2.734741	-0.806645	99
Es	-2.052982	-1.018891	0.244373	99
Es	0.857808	-0.824965	-0.903079	99
Es	-1.873489	-1.243660	0.654846	99
Es	0.584074	1.301795	-1.144002	99
41
Properties=species:S:1:pos:R:3:Z:I:1 energy=-359.8204750043645 field_type=dipole dipole="0.000000 0.000000 0.000000" charge=0
O	-1.867584	-1.042552	0.453704	8
C	-0.856004	-1.501362	-0.337376	6
O	-0.938954	-2.600872	-0.878356	8
C	0.341726	-0.526862	-0.465406	6
C	0.021026	0.946238	-0.804476	6
N	-0.043824	1.197178	0.661564	7
C	0.910756	0.068978	0.841894	6
H	-1.645074	-0.150642	0.808704	1
H	1.116776	-0.956492	-1.113156	1
H	-0.915124	1.129958	-1.338816	1
H	0.832376	1.481218	-1.312626	1
H	0.323376	2.108018	0.948474	1
H	1.965385	0.364098	0.783934	1
H	0.755146	-0.516902	1.751944	1
Es	-0.617113	1.074342	-1.169999	99
Es	-1.867229	-1.042366	0.453622	99
Es	0.341658	-0.526828	-0.465351	99
Es	-1.841625	-1.238824	0.653177	99
Es	0.021035	0.946209	-0.804307	99
Es	0.645574	-0.324132	0.206200	99
Es	0.146460	0.168023	-0.717412	99
Es	1.627808	0.272560	0.787479	99
Es	0.857637	-0.824953	-0.903015	99
Es	-0.379191	1.100157	0.791096	99
Es	0.584033	1.301698	-1.143952	99
Es	-0.856135	-1.501206	-0.337222	99
Es	0.187122	1.746134	0.829268	99
Es	-0.687880	-2.660554	-1.045701	99
Es	-0.938935	-2.600587	-0.878220	99
Es	-0.794024	-2.326319	-0.491212	99
Es	-1.465452	-1.182227	0.155334	99
Es	-0.263506	-0.997630	-0.389287	99
Es	0.806611	-0.329430	1.464522	99
Es	-0.043341	1.197235	0.661334	99
Es	-1.202005	-2.737110	-0.809437	99
Es	-1.736066	-0.584593	0.625432	99
Es	0.910635	0.069078	0.841823	99
Es	-1.012179	-2.109459	-0.895561	99
Es	0.399514	0.745284	0.797109	99
Es	-2.076255	-1.032724	0.261524	99
Es	-0.022877	1.161762	0.015487	99
41
Properties=species:S:1:pos:R:3:Z:I:1 energy=-359.8204750043645 field_type=dipole dipole="0.000000 0.000000 0.000000" charge=0
O	-1.867584	-1.042552	0.453704	8
C	-0.856004	-1.501362	-0.337376	6
O	-0.938954	-2.600872	-0.878356	8
C	0.341726	-0.526862	-0.465406	6
C	0.021026	0.946238	-0.804476	6
N	-0.043824	1.197178	0.661564	7
C	0.910756	0.068978	0.841894	6
H	-1.645074	-0.150642	0.808704	1
H	1.116776	-0.956492	-1.113156	1
H	-0.915124	1.129958	-1.338816	1
H	0.832376	1.481218	-1.312626	1
H	0.323376	2.108018	0.948474	1
H	1.965385	0.364098	0.783934	1
H	0.755146	-0.516902	1.751944	1
Es	-0.690793	-2.664384	-1.047835	99
Es	-1.834465	-1.237009	0.652439	99
Es	-0.043343	1.197235	0.661334	99
Es	-0.617035	1.074363	-1.169956	99
Es	0.857545	-0.824961	-0.903014	99
Es	-2.081222	-1.036319	0.265908	99
Es	0.341658	-0.526827	-0.465351	99
Es	1.627761	0.272521	0.787540	99
Es	0.583941	1.301704	-1.143968	99
Es	0.806648	-0.329395	1.464459	99
Es	-1.201980	-2.734370	-0.804484	99
Es	-1.867304	-1.042392	0.453641	99
Es	-1.466866	-1.181142	0.152773	99
Es	0.399424	0.745249	0.797236	99
Es	-0.938932	-2.600593	-0.878225	99
Es	-0.022967	1.161880	0.015387	99
Es	0.187067	1.746075	0.829373	99
Es	-0.263321	-0.997619	-0.389286	99
Es	0.021035	0.946211	-0.804308	99
Es	-1.736759	-0.583893	0.624349	99
Es	-0.790827	-2.324702	-0.492784	99
Es	0.146342	0.167926	-0.717564	99
Es	0.910634	0.069077	0.841822	99
Es	-0.856136	-1.501206	-0.337222	99
Es	-1.012544	-2.109965	-0.896801	99
Es	-0.378972	1.100253	0.791033	99
Es	0.645683	-0.324176	0.206235	99
41
Properties=species:S:1:pos:R:3:Z:I:1 energy=-359.8204750043645 field_type=dipole dipole="0.000000 0.000000 0.000000" charge=0
O	-1.867584	-1.042552	0.453704	8
C	-0.856004	-1.501362	-0.337376	6
O	-0.938954	-2.600872	-0.878356	8
C	0.341726	-0.526862	-0.465406	6
C	0.021026	0.946238	-0.804476	6
N	-0.043824	1.197178	0.661564	7
C	0.910756	0.068978	0.841894	6
H	-1.645074	-0.150642	0.808704	1
H	1.116776	-0.956492	-1.113156	1
H	-0.915124	1.129958	-1.338816	1
H	0.832376	1.481218	-1.312626	1
H	0.323376	2.108018	0.948474	1
H	1.965385	0.364098	0.783934	1
H	0.755146	-0.516902	1.751944	1
Es	0.186622	1.746089	0.829537	99
Es	-0.263253	-0.997619	-0.389292	99
Es	-1.859323	-1.241591	0.654498	99
Es	0.583915	1.301667	-1.143975	99
Es	1.627691	0.272517	0.787570	99
Es	-0.043347	1.197237	0.661336	99
Es	-1.461512	-1.186036	0.162292	99
Es	0.910634	0.069077	0.841822	99
Es	0.146399	0.168027	-0.717562	99
Es	-0.616973	1.074360	-1.169965	99
Es	0.857483	-0.824977	-0.902980	99
Es	-0.688980	-2.662671	-1.045876	99
Es	-0.938927	-2.600563	-0.878207	99
Es	-1.011528	-2.110141	-0.896813	99
Es	0.021035	0.946210	-0.804307	99
Es	-0.022589	1.162070	0.015442	99
Es	0.341658	-0.526828	-0.465352	99
Es	0.645695	-0.324406	0.206238	99
Es	-1.202378	-2.735403	-0.808235	99
Es	-0.856134	-1.501208	-0.337225	99
Es	-0.379112	1.099973	0.790744	99
Es	0.806693	-0.329352	1.464460	99
Es	-2.063068	-1.025468	0.251616	99
Es	-1.735544	-0.585242	0.626996	99
Es	0.399622	0.745403	0.797351	99
Es	-0.793276	-2.325196	-0.491035	99
Es	-1.867229	-1.042390	0.453652	99
41
Properties=species:S:1:pos:R:3:Z:I:1 energy=-359.8204750043645 field_type=dipole dipole="0.000000 0.000000 0.000000" charge=0
O	-1.867584	-1.042552	0.453704	8
C	-0.856004	-1.501362	-0.337376	6
O	-0.938954	-2.600872	-0.878356	8
C	0.341726	-0.526862	-0.465406	6
C	0.021026	0.946238	-0.804476	6
N	-0.043824	1.197178	0.661564	7
C	0.910756	0.068978	0.841894	6
H	-1.645074	-0.150642	0.808704	1
H	1.116776	-0.956492	-1.113156	1
H	-0.915124	1.129958	-1.338816	1
H	0.832376	1.481218	-1.312626	1
H	0.323376	2.108018	0.948474	1
H	1.965385	0.364098	0.783934	1
H	0.755146	-0.516902	1.751944	1
Es	-0.043346	1.197236	0.661336	99
Es	-0.938943	-2.600566	-0.878203	99
Es	-1.011281	-2.108694	-0.895177	99
Es	0.399762	0.745206	0.797566	99
Es	-0.616912	1.074388	-1.169962	99
Es	0.146327	0.167882	-0.717750	99
Es	0.806717	-0.329334	1.464419	99
Es	-1.860412	-1.241815	0.654138	99
Es	-1.867373	-1.042480	0.453709	99
Es	0.186725	1.745838	0.829241	99
Es	0.910634	0.069077	0.841823	99
Es	0.857459	-0.824977	-0.902937	99
Es	-0.023155	1.162094	0.015355	99
Es	-0.690060	-2.662689	-1.047078	99
Es	-1.735273	-0.585594	0.627661	99
Es	0.583859	1.301675	-1.143948	99
Es	0.021035	0.946208	-0.804307	99
Es	-1.461294	-1.186138	0.162715	99
Es	-1.202597	-2.734661	-0.808250	99
Es	0.645639	-0.324291	0.206405	99
Es	-0.792167	-2.327394	-0.491394	99
Es	-0.263205	-0.997631	-0.389377	99
Es	0.341659	-0.526826	-0.465351	99
Es	1.627729	0.272430	0.787499	99
Es	-0.378789	1.100473	0.790985	99
Es	-0.856136	-1.501205	-0.337223	99
Es	-2.062329	-1.024676	0.250835	99
41
Properties=species:S:1:pos:R:3:Z:I:1 energy=-359.8204750043645 field_type=dipole dipole="0.000000 0.000000 0.000000" charge=0
O	-1.867584	-1.042552	0.453704	8
C	-0.856004	-1.501362	-0.337376	6
O	-0.938954	-2.600872	-0.878356	8
C	0.341726	-0.526862	-0.465406	6
C	0.021026	0.946238	-0.804476	6
N	-0.043824	1.197178	0.661564	7
C	0.910756	0.068978	0.841894	6
H	-1.645074	-0.150642	0.808704	1
H	1.116776	-0.956492	-1.113156	1
H	-0.915124	1.129958	-1.338816	1
H	0.832376	1.481218	-1.312626	1
H	0.323376	2.108018	0.948474	1
H	1.965385	0.364098	0.783934	1
H	0.755146	-0.516902	1.751944	1
Es	0.583809	1.301676	-1.143911	99
Es	-0.378505	1.100583	0.791000	99
Es	-1.465644	-1.182509	0.154657	99
Es	1.627629	0.272428	0.787606	99
Es	-0.023424	1.162015	0.015290	99
Es	-0.938911	-2.600501	-0.878180	99
Es	-0.691013	-2.664567	-1.047466	99
Es	0.399578	0.745154	0.797605	99
Es	-0.856138	-1.501204	-0.337226	99
Es	-1.010654	-2.108856	-0.895792	99
Es	-0.616849	1.074405	-1.169980	99
Es	0.910634	0.069076	0.841823	99
Es	0.341660	-0.526825	-0.465350	99
Es	0.146357	0.167923	-0.717760	99
Es	0.806766	-0.329233	1.464386	99
Es	0.021035	0.946212	-0.804309	99
Es	-0.263148	-0.997536	-0.389466	99
Es	0.186848	1.745935	0.829279	99
Es	0.857401	-0.824991	-0.902949	99
Es	-1.840554	-1.238181	0.653712	99
Es	-1.867273	-1.042374	0.453627	99
Es	0.645702	-0.324556	0.206341	99
Es	-1.203038	-2.733216	-0.806825	99
Es	-2.076335	-1.033964	0.262858	99
Es	-0.791450	-2.326855	-0.491824	99
Es	-1.736862	-0.583736	0.624247	99
Es	-0.043348	1.197234	0.661338	99
41
Properties=species:S:1:pos:R:3:Z:I:1 energy=-359.8204750043645 field_type=dipole dipole="0.000000 0.000000 0.000000" charge=0
O	-1.867584	-1.042552	0.453704	8
C	-0.856004	-1.501362	-0.337376	6
O	-0.938954	-2.600872	-0.878356	8
C	0.341726	-0.526862	-0.465406	6
C	0.021026	0.946238	-0.804476	6
N	-0.043824	1.197178	0.661564	7
C	0.910756	0.068978	0.841894	6
H	-1.645074	-0.150642	0.808704	1
H	1.116776	-0.956492	-1.113156	1
H	-0.915124	1.129958	-1.338816	1
H	0.832376	1.481218	-1.312626	1
H	0.323376	2.108018	0.948474	1
H	1.965385	0.364098	0.783934	1
H	0.755146	-0.516902	1.751944	1
Es	-0.023414	1.162118	0.015205	99
Es	-0.616819	1.074428	-1.170007	99
Es	0.583697	1.301630	-1.143873	99
Es	0.399547	0.745139	0.797804	99
Es	0.186625	1.745918	0.829404	99
Es	0.857353	-0.825034	-0.902879	99
Es	1.627583	0.272397	0.787561	99
Es	-1.845683	-1.240386	0.653633	99
Es	-0.856135	-1.501207	-0.337221	99
Es	0.910634	0.069076	0.841823	99
Es	-1.464977	-1.182485	0.155659	99
Es	-0.378260	1.100615	0.790831	99
Es	-0.689754	-2.663691	-1.046480	99
Es	0.021034	0.946210	-0.804307	99
Es	-1.202400	-2.734699	-0.806941	99
Es	-0.043348	1.197234	0.661336	99
Es	-1.736303	-0.584672	0.626143	99
Es	0.806833	-0.329228	1.464383	99
Es	-0.792568	-2.325249	-0.491820	99
Es	-1.867283	-1.042386	0.453630	99
Es	0.645750	-0.324437	0.206462	99
Es	0.146348	0.167777	-0.717980	99
Es	-0.938842	-2.600511	-0.878224	99
Es	-2.072451	-1.030835	0.260018	99
Es	-1.011535	-2.109812	-0.896651	99
Es	-0.263020	-0.997545	-0.389427	99
Es	0.341660	-0.526825	-0.465351	99
