42
Properties=species:S:1:pos:R:3:Z:I:1 energy=-628.2439598927963 field_type=dipole dipole="0.000000 0.000000 0.000000" charge=0
C	-0.065269	-0.993970	1.106488	6
C	-0.443409	-1.376100	-0.355482	6
C	-0.134529	0.019730	-0.697912	6
C	-0.048819	1.013140	-1.606922	6
S	0.524071	2.441010	-0.773692	16
C	0.614761	1.624140	0.770918	6
C	0.214281	0.350530	0.580598	6
H	0.802691	-1.473730	1.571748	1
H	-0.853009	-1.006910	1.868378	1
H	-1.476409	-1.665300	-0.576692	1
H	0.185591	-2.101950	-0.882952	1
H	-0.263589	1.028560	-2.665632	1
H	0.943641	2.140850	1.661158	1
Es	-0.188225	1.036564	-2.313505	99
Es	0.214287	0.350474	0.580683	99
Es	0.585897	2.552949	-0.775348	99
Es	0.961285	2.476113	-0.906207	99
Es	0.050718	0.235744	-0.074551	99
Es	-0.606710	-1.000190	1.607812	99
Es	0.428500	2.421841	-0.689991	99
Es	0.109387	-0.274739	0.947902	99
Es	0.614779	1.624300	0.770796	99
Es	0.216037	0.442131	-1.191666	99
Es	0.523442	2.441307	-0.774479	99
Es	-0.274631	-1.279428	0.405346	99
Es	0.562854	2.343523	-0.849566	99
Es	0.525635	-1.320787	1.405426	99
Es	-0.443387	-1.376041	-0.355452	99
Es	0.108491	1.068899	0.713015	99
Es	-1.144649	-1.563214	-0.491244	99
Es	-0.007369	-1.860778	-0.701140	99
Es	-0.315846	-0.687771	-0.642926	99
Es	0.835697	1.980186	1.357274	99
Es	-0.386249	0.606976	-1.067185	99
Es	0.151460	2.705280	-0.736287	99
Es	0.581389	2.040855	0.038807	99
Es	0.709222	0.897326	0.589981	99
Es	-0.065270	-0.993937	1.106430	99
Es	-0.048760	1.013335	-1.606913	99
Es	0.224435	1.715654	-1.229270	99
Es	-0.134560	0.019656	-0.697954	99
Es	0.519101	2.442806	-0.778258	99
42
Properties=species:S:1:pos:R:3:Z:I:1 energy=-628.2439598927963 field_type=dipole dipole="0.000000 0.000000 0.000000" charge=0
C	-0.065269	-0.993970	1.106488	6
C	-0.443409	-1.376100	-0.355482	6
C	-0.134529	0.019730	-0.697912	6
C	-0.048819	1.013140	-1.606922	6
S	0.524071	2.441010	-0.773692	16
C	0.614761	1.624140	0.770918	6
C	0.214281	0.350530	0.580598	6
H	0.802691	-1.473730	1.571748	1
H	-0.853009	-1.006910	1.868378	1
H	-1.476409	-1.665300	-0.576692	1
H	0.185591	-2.101950	-0.882952	1
H	-0.263589	1.028560	-2.665632	1
H	0.943641	2.140850	1.661158	1
Es	0.050854	0.235723	-0.074712	99
Es	-0.443387	-1.376043	-0.355451	99
Es	0.961019	2.477764	-0.906482	99
Es	0.525609	-1.320753	1.405300	99
Es	0.556970	2.540969	-0.720654	99
Es	-0.065270	-0.993936	1.106429	99
Es	-0.315824	-0.687862	-0.642976	99
Es	-0.048767	1.013333	-1.606911	99
Es	0.463944	2.465226	-0.874776	99
Es	-0.134558	0.019649	-0.697954	99
Es	-0.007447	-1.860754	-0.701137	99
Es	-0.606716	-1.000247	1.607940	99
Es	0.581263	2.040970	0.038783	99
Es	0.614782	1.624304	0.770795	99
Es	-0.188396	1.036532	-2.313499	99
Es	0.109487	-0.274650	0.948031	99
Es	0.835660	1.980087	1.357354	99
Es	-1.144621	-1.563189	-0.491303	99
Es	-0.385909	0.607126	-1.066486	99
Es	-0.274652	-1.279513	0.405440	99
Es	0.225220	1.715453	-1.229529	99
Es	0.108706	1.068628	0.712657	99
Es	0.215590	0.441820	-1.191584	99
Es	0.214285	0.350476	0.580681	99
Es	0.524178	2.441020	-0.773585	99
Es	0.708910	0.897403	0.589886	99
Es	0.456123	2.378945	-0.700595	99
Es	0.618691	2.376029	-0.797877	99
Es	0.151217	2.704523	-0.736256	99
42
Properties=species:S:1:pos:R:3:Z:I:1 energy=-628.2439598927963 field_type=dipole dipole="0.000000 0.000000 0.000000" charge=0
C	-0.065269	-0.993970	1.106488	6
C	-0.443409	-1.376100	-0.355482	6
C	-0.134529	0.019730	-0.697912	6
C	-0.048819	1.013140	-1.606922	6
S	0.524071	2.441010	-0.773692	16
C	0.614761	1.624140	0.770918	6
C	0.214281	0.350530	0.580598	6
H	0.802691	-1.473730	1.571748	1
H	-0.853009	-1.006910	1.868378	1
H	-1.476409	-1.665300	-0.576692	1
H	0.185591	-2.101950	-0.882952	1
H	-0.263589	1.028560	-2.665632	1
H	0.943641	2.140850	1.661158	1
Es	0.523675	2.440538	-0.773853	99
Es	-0.385598	0.606984	-1.066334	99
Es	0.109564	-0.274684	0.948143	99
Es	0.614769	1.624305	0.770797	99
Es	0.439965	2.355454	-0.779538	99
Es	0.502627	2.529839	-0.852326	99
Es	0.215346	0.442066	-1.191206	99
Es	0.582020	2.040846	0.038492	99
Es	-0.274612	-1.279453	0.405511	99
Es	0.835627	1.979972	1.357449	99
Es	0.961028	2.480275	-0.907397	99
Es	-0.606719	-1.000138	1.607865	99
Es	0.529115	2.483525	-0.665190	99
Es	-0.188344	1.036336	-2.313524	99
Es	-0.007439	-1.860694	-0.701160	99
Es	-0.065270	-0.993935	1.106430	99
Es	0.225119	1.715665	-1.229514	99
Es	0.051224	0.235689	-0.074802	99
Es	0.108534	1.068469	0.711855	99
Es	0.150798	2.703042	-0.735326	99
Es	-0.134567	0.019645	-0.697955	99
Es	-0.443388	-1.376042	-0.355453	99
Es	-1.144480	-1.563352	-0.491231	99
Es	0.214284	0.350477	0.580683	99
Es	0.624586	2.392454	-0.796481	99
Es	0.708376	0.897153	0.590249	99
Es	-0.316106	-0.687927	-0.643135	99
Es	0.525585	-1.320818	1.405396	99
Es	-0.048758	1.013340	-1.606913	99
42
Properties=species:S:1:pos:R:3:Z:I:1 energy=-628.2439598927963 field_type=dipole dipole="0.000000 0.000000 0.000000" charge=0
C	-0.065269	-0.993970	1.106488	6
C	-0.443409	-1.376100	-0.355482	6
C	-0.134529	0.019730	-0.697912	6
C	-0.048819	1.013140	-1.606922	6
S	0.524071	2.441010	-0.773692	16
C	0.614761	1.624140	0.770918	6
C	0.214281	0.350530	0.580598	6
H	0.802691	-1.473730	1.571748	1
H	-0.853009	-1.006910	1.868378	1
H	-1.476409	-1.665300	-0.576692	1
H	0.185591	-2.101950	-0.882952	1
H	-0.263589	1.028560	-2.665632	1
H	0.943641	2.140850	1.661158	1
Es	-0.385341	0.606628	-1.066415	99
Es	-0.007472	-1.860679	-0.701204	99
Es	-0.443389	-1.376041	-0.355453	99
Es	-0.065270	-0.993934	1.106429	99
Es	-0.274561	-1.279474	0.405404	99
Es	0.513730	2.548491	-0.737134	99
Es	0.614780	1.624302	0.770795	99
Es	0.708035	0.897026	0.589609	99
Es	-1.144483	-1.563301	-0.491266	99
Es	0.050711	0.235730	-0.074696	99
Es	0.521400	2.438274	-0.895005	99
Es	0.151635	2.705009	-0.735935	99
Es	0.224893	1.715853	-1.229490	99
Es	0.582002	2.041017	0.038540	99
Es	0.960804	2.478464	-0.906540	99
Es	-0.606680	-1.000299	1.608000	99
Es	0.835631	1.979802	1.357536	99
Es	0.214282	0.350479	0.580684	99
Es	0.525444	-1.320715	1.405255	99
Es	0.215394	0.442374	-1.190478	99
Es	0.109706	-0.274619	0.948492	99
Es	0.435702	2.374425	-0.726129	99
Es	-0.048765	1.013336	-1.606911	99
Es	-0.134560	0.019647	-0.697959	99
Es	0.524195	2.440970	-0.774710	99
Es	0.108953	1.068158	0.711889	99
Es	-0.188386	1.036190	-2.313501	99
Es	0.624654	2.399934	-0.734931	99
Es	-0.316082	-0.688014	-0.643344	99
42
Properties=species:S:1:pos:R:3:Z:I:1 energy=-628.2439598927963 field_type=dipole dipole="0.000000 0.000000 0.000000" charge=0
C	-0.065269	-0.993970	1.106488	6
C	-0.443409	-1.376100	-0.355482	6
C	-0.134529	0.019730	-0.697912	6
C	-0.048819	1.013140	-1.606922	6
S	0.524071	2.441010	-0.773692	16
C	0.614761	1.624140	0.770918	6
C	0.214281	0.350530	0.580598	6
H	0.802691	-1.473730	1.571748	1
H	-0.853009	-1.006910	1.868378	1
H	-1.476409	-1.665300	-0.576692	1
H	0.185591	-2.101950	-0.882952	1
H	-0.263589	1.028560	-2.665632	1
H	0.943641	2.140850	1.661158	1
Es	0.524135	2.441273	-0.773859	99
Es	0.707719	0.896949	0.589566	99
Es	-0.606553	-1.000257	1.607914	99
Es	0.614795	1.624304	0.770788	99
Es	0.109274	1.067919	0.711676	99
Es	-0.188502	1.036076	-2.313516	99
Es	0.426039	2.412012	-0.830310	99
Es	-0.443387	-1.376041	-0.355451	99
Es	0.602574	2.358761	-0.795896	99
Es	-0.315985	-0.688060	-0.643340	99
Es	-0.274688	-1.279618	0.405472	99
Es	0.215017	0.442247	-1.190280	99
Es	0.050777	0.235988	-0.074822	99
Es	-1.144463	-1.563229	-0.491330	99
Es	0.109629	-0.274633	0.948527	99
Es	0.224735	1.715996	-1.229419	99
Es	0.835620	1.979723	1.357560	99
Es	0.214283	0.350478	0.580685	99
Es	-0.385013	0.606518	-1.066099	99
Es	0.581848	2.041140	0.038459	99
Es	0.152177	2.705982	-0.736446	99
Es	0.525465	-1.320728	1.405349	99
Es	0.564255	2.549180	-0.809328	99
Es	-0.065271	-0.993935	1.106427	99
Es	0.960644	2.478090	-0.906846	99
Es	-0.134555	0.019663	-0.697978	99
Es	-0.048764	1.013335	-1.606911	99
Es	0.502725	2.440606	-0.657893	99
Es	-0.007570	-1.860708	-0.701170	99
42
Properties=species:S:1:pos:R:3:Z:I:1 energy=-628.2439598927963 field_type=dipole dipole="0.000000 0.000000 0.000000" charge=0
C	-0.065269	-0.993970	1.106488	6
C	-0.443409	-1.376100	-0.355482	6
C	-0.134529	0.019730	-0.697912	6
C	-0.048819	1.013140	-1.606922	6
S	0.524071	2.441010	-0.773692	16
C	0.614761	1.624140	0.770918	6
C	0.214281	0.350530	0.580598	6
H	0.802691	-1.473730	1.571748	1
H	-0.853009	-1.006910	1.868378	1
H	-1.476409	-1.665300	-0.576692	1
H	0.185591	-2.101950	-0.882952	1
H	-0.263589	1.028560	-2.665632	1
H	0.943641	2.140850	1.661158	1
Es	0.614796	1.624300	0.770789	99
Es	-0.443388	-1.376042	-0.355452	99
Es	0.153064	2.707582	-0.736859	99
Es	-0.188579	1.036031	-2.313489	99
Es	0.481777	2.471169	-0.669502	99
Es	0.109482	-0.274635	0.948716	99
Es	-0.048766	1.013336	-1.606911	99
Es	0.638324	2.430072	-0.763989	99
Es	-0.065271	-0.993934	1.106430	99
Es	0.050752	0.236154	-0.074785	99
Es	-0.274705	-1.279663	0.405485	99
Es	0.525519	-1.320698	1.405375	99
Es	0.960614	2.476564	-0.906087	99
Es	-0.134572	0.019648	-0.697956	99
Es	0.707424	0.896824	0.589193	99
Es	0.214828	0.442300	-1.189932	99
Es	-0.384580	0.606398	-1.066025	99
Es	0.835583	1.979687	1.357647	99
Es	0.497158	2.524928	-0.854486	99
Es	0.214282	0.350476	0.580685	99
Es	0.109520	1.067639	0.711525	99
Es	-0.007597	-1.860672	-0.701204	99
Es	0.224467	1.716193	-1.229374	99
Es	0.478049	2.334439	-0.806106	99
Es	-0.316116	-0.688150	-0.643430	99
Es	0.581303	2.041264	0.038462	99
Es	-1.144386	-1.563263	-0.491334	99
Es	-0.606481	-1.000294	1.607880	99
Es	0.524457	2.441381	-0.773736	99
42
Properties=species:S:1:pos:R:3:Z:I:1 energy=-628.2439598927963 field_type=dipole dipole="0.000000 0.000000 0.000000" charge=0
C	-0.065269	-0.993970	1.106488	6
C	-0.443409	-1.376100	-0.355482	6
C	-0.134529	0.019730	-0.697912	6
C	-0.048819	1.013140	-1.606922	6
S	0.524071	2.441010	-0.773692	16
C	0.614761	1.624140	0.770918	6
C	0.214281	0.350530	0.580598	6
H	0.802691	-1.473730	1.571748	1
H	-0.853009	-1.006910	1.868378	1
H	-1.476409	-1.665300	-0.576692	1
H	0.185591	-2.101950	-0.882952	1
H	-0.263589	1.028560	-2.665632	1
H	0.943641	2.140850	1.661158	1
Es	-0.384248	0.606296	-1.065713	99
Es	0.706887	0.896827	0.589185	99
Es	-0.007708	-1.860694	-0.701210	99
Es	0.582683	2.041006	0.038126	99
Es	-0.188566	1.035884	-2.313487	99
Es	0.614779	1.624301	0.770795	99
Es	-0.443389	-1.376042	-0.355451	99
Es	0.109754	1.067352	0.711279	99
Es	0.960762	2.485277	-0.907889	99
Es	0.525337	-1.320683	1.405464	99
Es	0.537089	2.558648	-0.782342	99
Es	0.050769	0.236383	-0.074860	99
Es	0.214288	0.350476	0.580684	99
Es	-0.316079	-0.688226	-0.643585	99
Es	0.610965	2.393004	-0.706103	99
Es	0.109691	-0.274704	0.948740	99
Es	-0.274606	-1.279802	0.405519	99
Es	-0.134561	0.019647	-0.697953	99
Es	-0.606515	-1.000210	1.607857	99
Es	-0.065270	-0.993935	1.106429	99
Es	0.150279	2.700522	-0.734745	99
Es	-0.048763	1.013337	-1.606912	99
Es	0.226099	1.715839	-1.229716	99
Es	0.415998	2.411762	-0.728354	99
Es	-1.144365	-1.563212	-0.491325	99
Es	0.835596	1.979535	1.357752	99
Es	0.214519	0.442339	-1.189761	99
Es	0.531615	2.397150	-0.877245	99
Es	0.523921	2.440955	-0.773646	99
42
Properties=species:S:1:pos:R:3:Z:I:1 energy=-628.2439598927963 field_type=dipole dipole="0.000000 0.000000 0.000000" charge=0
C	-0.065269	-0.993970	1.106488	6
C	-0.443409	-1.376100	-0.355482	6
C	-0.134529	0.019730	-0.697912	6
C	-0.048819	1.013140	-1.606922	6
S	0.524071	2.441010	-0.773692	16
C	0.614761	1.624140	0.770918	6
C	0.214281	0.350530	0.580598	6
H	0.802691	-1.473730	1.571748	1
H	-0.853009	-1.006910	1.868378	1
H	-1.476409	-1.665300	-0.576692	1
H	0.185591	-2.101950	-0.882952	1
H	-0.263589	1.028560	-2.665632	1
H	0.943641	2.140850	1.661158	1
Es	-0.188624	1.035776	-2.313431	99
Es	-0.443388	-1.376042	-0.355453	99
Es	0.524284	2.440840	-0.773792	99
Es	-0.007696	-1.860646	-0.701202	99
Es	0.224898	1.716295	-1.229409	99
Es	-0.274655	-1.279765	0.405534	99
Es	0.511405	2.334545	-0.823733	99
Es	0.835570	1.979428	1.357803	99
Es	0.109925	1.067160	0.710840	99
Es	-0.606364	-1.000341	1.607900	99
Es	0.581838	2.041387	0.038166	99
Es	0.050819	0.236425	-0.074800	99
Es	0.614784	1.624297	0.770795	99
Es	0.503080	2.522193	-0.853188	99
Es	0.214281	0.350470	0.580678	99
Es	0.214326	0.442367	-1.189457	99
Es	0.153017	2.707251	-0.736622	99
Es	0.444845	2.450160	-0.688943	99
Es	-0.316188	-0.688280	-0.643749	99
Es	-1.144331	-1.563304	-0.491299	99
Es	-0.383955	0.606167	-1.065599	99
Es	-0.048779	1.013330	-1.606909	99
Es	0.525461	-1.320606	1.405384	99
Es	0.960351	2.478569	-0.906680	99
Es	0.109443	-0.274625	0.948904	99
Es	-0.134565	0.019645	-0.697953	99
Es	0.635832	2.453560	-0.727859	99
Es	-0.065272	-0.993937	1.106430	99
Es	0.706621	0.896713	0.589174	99
42
Properties=species:S:1:pos:R:3:Z:I:1 energy=-628.2439598927963 field_type=dipole dipole="0.000000 0.000000 0.000000" charge=0
C	-0.065269	-0.993970	1.106488	6
C	-0.443409	-1.376100	-0.355482	6
C	-0.134529	0.019730	-0.697912	6
C	-0.048819	1.013140	-1.606922	6
S	0.524071	2.441010	-0.773692	16
C	0.614761	1.624140	0.770918	6
C	0.214281	0.350530	0.580598	6
H	0.802691	-1.473730	1.571748	1
H	-0.853009	-1.006910	1.868378	1
H	-1.476409	-1.665300	-0.576692	1
H	0.185591	-2.101950	-0.882952	1
H	-0.263589	1.028560	-2.665632	1
H	0.943641	2.140850	1.661158	1
Es	0.423721	2.367260	-0.758075	99
Es	-0.007737	-1.860676	-0.701174	99
Es	0.835529	1.979383	1.357891	99
Es	-0.606371	-1.000260	1.607889	99
Es	0.525372	-1.320608	1.405436	99
Es	0.501636	2.544124	-0.834154	99
Es	-0.383628	0.606027	-1.065490	99
Es	0.553197	2.413021	-0.802502	99
Es	0.592678	2.457009	-0.671545	99
Es	0.960025	2.476253	-0.906387	99
Es	0.548460	2.419810	-0.800708	99
Es	-0.048763	1.013334	-1.606911	99
Es	0.050690	0.236526	-0.074930	99
Es	0.581505	2.041514	0.038319	99
Es	-0.274806	-1.279933	0.405623	99
Es	-0.188608	1.035696	-2.313483	99
Es	0.706238	0.896659	0.588677	99
Es	0.214280	0.350480	0.580684	99
Es	0.109632	-0.274616	0.949021	99
Es	-0.134562	0.019641	-0.697952	99
Es	0.224078	1.716590	-1.229200	99
Es	0.154220	2.709648	-0.737978	99
Es	0.110211	1.066928	0.710938	99
Es	0.214217	0.442440	-1.189023	99
Es	-0.316124	-0.688336	-0.643755	99
Es	-0.443387	-1.376041	-0.355451	99
Es	-0.065270	-0.993933	1.106428	99
Es	-1.144256	-1.563205	-0.491452	99
Es	0.614782	1.624298	0.770794	99
42
Properties=species:S:1:pos:R:3:Z:I:1 energy=-628.2439598927963 field_type=dipole dipole="0.000000 0.000000 0.000000" charge=0
C	-0.065269	-0.993970	1.106488	6
C	-0.443409	-1.376100	-0.355482	6
C	-0.134529	0.019730	-0.697912	6
C	-0.048819	1.013140	-1.606922	6
S	0.524071	2.441010	-0.773692	16
C	0.614761	1.624140	0.770918	6
C	0.214281	0.350530	0.580598	6
H	0.802691	-1.473730	1.571748	1
H	-0.853009	-1.006910	1.868378	1
H	-1.476409	-1.665300	-0.576692	1
H	0.185591	-2.101950	-0.882952	1
H	-0.263589	1.028560	-2.665632	1
H	0.943641	2.140850	1.661158	1
Es	0.110264	1.066813	0.710390	99
Es	-0.134552	0.019648	-0.697951	99
Es	-0.383239	0.606148	-1.064935	99
Es	0.051058	0.236488	-0.074936	99
Es	-0.274647	-1.279839	0.405502	99
Es	0.584632	2.444773	-0.677521	99
Es	-0.443387	-1.376040	-0.355454	99
Es	-0.048770	1.013327	-1.606908	99
Es	0.213732	0.442293	-1.189081	99
Es	0.835527	1.979272	1.357958	99
Es	0.705921	0.896566	0.588860	99
Es	0.452983	2.348814	-0.765777	99
Es	-0.007710	-1.860677	-0.701191	99
Es	0.458887	2.540985	-0.782396	99
Es	0.960423	2.478166	-0.906408	99
Es	0.153998	2.708140	-0.737957	99
Es	0.524256	2.440699	-0.773547	99
Es	-0.188661	1.035547	-2.313476	99
Es	0.109568	-0.274629	0.949172	99
Es	0.525304	-1.320571	1.405437	99
Es	0.214284	0.350477	0.580686	99
Es	-0.316246	-0.688345	-0.643990	99
Es	-0.606412	-1.000318	1.607886	99
Es	0.224615	1.716602	-1.229284	99
Es	0.581063	2.041710	0.038389	99
Es	-0.065270	-0.993933	1.106435	99
Es	-1.144234	-1.563295	-0.491343	99
Es	0.614783	1.624296	0.770795	99
Es	0.598792	2.425917	-0.867823	99
42
Properties=species:S:1:pos:R:3:Z:I:1 energy=-628.2439598927963 field_type=dipole dipole="0.000000 0.000000 0.000000" charge=0
C	-0.065269	-0.993970	1.106488	6
C	-0.443409	-1.376100	-0.355482	6
C	-0.134529	0.019730	-0.697912	6
C	-0.048819	1.013140	-1.606922	6
S	0.524071	2.441010	-0.773692	16
C	0.614761	1.624140	0.770918	6
C	0.214281	0.350530	0.580598	6
H	0.802691	-1.473730	1.571748	1
H	-0.853009	-1.006910	1.868378	1
H	-1.476409	-1.665300	-0.576692	1
H	0.185591	-2.101950	-0.882952	1
H	-0.263589	1.028560	-2.665632	1
H	0.943641	2.140850	1.661158	1
Es	-0.188661	1.035462	-2.313473	99
Es	-0.606370	-1.000206	1.607956	99
Es	0.705517	0.896547	0.588407	99
Es	0.214283	0.350479	0.580681	99
Es	0.506128	2.556257	-0.766423	99
Es	-0.274661	-1.280031	0.405537	99
Es	0.566209	2.401140	-0.669654	99
Es	-0.065270	-0.993933	1.106430	99
Es	0.835564	1.979181	1.357979	99
Es	0.155231	2.711093	-0.738684	99
Es	0.109793	-0.274700	0.949362	99
Es	-0.443388	-1.376042	-0.355455	99
Es	0.110537	1.066620	0.710465	99
Es	0.223565	1.716974	-1.228965	99
Es	-0.048769	1.013330	-1.606905	99
Es	-0.007839	-1.860542	-0.701188	99
Es	0.614781	1.624299	0.770796	99
Es	0.213469	0.442313	-1.188719	99
Es	0.051045	0.236516	-0.074926	99
Es	0.525257	-1.320510	1.405447	99
Es	0.601794	2.418327	-0.858148	99
Es	-1.144223	-1.563320	-0.491444	99
Es	-0.316261	-0.688391	-0.644134	99
Es	-0.134561	0.019646	-0.697952	99
Es	-0.382963	0.606055	-1.064702	99
Es	0.524044	2.440971	-0.773672	99
Es	0.421766	2.385112	-0.799039	99
Es	0.960219	2.474482	-0.906370	99
Es	0.580725	2.041903	0.038324	99
42
Properties=species:S:1:pos:R:3:Z:I:1 energy=-628.2439598927963 field_type=dipole dipole="0.000000 0.000000 0.000000" charge=0
C	-0.065269	-0.993970	1.106488	6
C	-0.443409	-1.376100	-0.355482	6
C	-0.134529	0.019730	-0.697912	6
C	-0.048819	1.013140	-1.606922	6
S	0.524071	2.441010	-0.773692	16
C	0.614761	1.624140	0.770918	6
C	0.214281	0.350530	0.580598	6
H	0.802691	-1.473730	1.571748	1
H	-0.853009	-1.006910	1.868378	1
H	-1.476409	-1.665300	-0.576692	1
H	0.185591	-2.101950	-0.882952	1
H	-0.263589	1.028560	-2.665632	1
H	0.943641	2.140850	1.661158	1
Es	0.524032	2.440967	-0.773686	99
Es	0.213505	0.442512	-1.188180	99
Es	0.409784	2.466810	-0.794389	99
Es	0.705293	0.896486	0.588348	99
Es	0.835512	1.979088	1.358054	99
Es	-0.048765	1.013332	-1.606907	99
Es	-1.144163	-1.563199	-0.491405	99
Es	-0.007917	-1.860611	-0.701294	99
Es	0.590062	2.519432	-0.820000	99
Es	0.550522	2.333474	-0.822265	99
Es	0.050866	0.236649	-0.075006	99
Es	0.544574	2.439512	-0.655868	99
Es	-0.316370	-0.688502	-0.644191	99
Es	0.579553	2.042260	0.038489	99
Es	-0.065269	-0.993933	1.106430	99
Es	0.614781	1.624299	0.770794	99
Es	0.109826	-0.274636	0.949431	99
Es	-0.134569	0.019645	-0.697955	99
Es	-0.606334	-1.000174	1.607870	99
Es	0.222860	1.717287	-1.228969	99
Es	-0.443388	-1.376041	-0.355454	99
Es	-0.188757	1.035324	-2.313480	99
Es	-0.274647	-1.280089	0.405638	99
Es	0.525203	-1.320583	1.405521	99
Es	0.214283	0.350475	0.580680	99
Es	0.158613	2.716452	-0.741151	99
Es	0.110894	1.066430	0.710249	99
Es	-0.382547	0.605823	-1.064875	99
Es	0.959522	2.470542	-0.904897	99
42
Properties=species:S:1:pos:R:3:Z:I:1 energy=-628.2439598927963 field_type=dipole dipole="0.000000 0.000000 0.000000" charge=0
C	-0.065269	-0.993970	1.106488	6
C	-0.443409	-1.376100	-0.355482	6
C	-0.134529	0.019730	-0.697912	6
C	-0.048819	1.013140	-1.606922	6
S	0.524071	2.441010	-0.773692	16
C	0.614761	1.624140	0.770918	6
C	0.214281	0.350530	0.580598	6
H	0.802691	-1.473730	1.571748	1
H	-0.853009	-1.006910	1.868378	1
H	-1.476409	-1.665300	-0.576692	1
H	0.185591	-2.101950	-0.882952	1
H	-0.263589	1.028560	-2.665632	1
H	0.943641	2.140850	1.661158	1
Es	-0.007912	-1.860642	-0.701295	99
Es	0.109684	-0.274592	0.949628	99
Es	-0.316401	-0.688500	-0.644307	99
Es	0.213144	0.442600	-1.187922	99
Es	0.614784	1.624301	0.770790	99
Es	0.157125	2.713472	-0.739842	99
Es	-0.065271	-0.993931	1.106431	99
Es	0.580456	2.042097	0.038282	99
Es	0.520640	2.355712	-0.856670	99
Es	-0.606186	-1.000291	1.607886	99
Es	-0.382254	0.605650	-1.064757	99
Es	0.223437	1.717178	-1.229024	99
Es	-1.144144	-1.563201	-0.491378	99
Es	0.615595	2.510138	-0.793480	99
Es	0.534410	2.393224	-0.665470	99
Es	-0.048760	1.013339	-1.606905	99
Es	0.424443	2.501945	-0.777820	99
Es	0.051030	0.236792	-0.074924	99
Es	-0.443388	-1.376039	-0.355456	99
Es	0.835500	1.978980	1.358147	99
Es	0.214282	0.350477	0.580679	99
Es	0.525257	-1.320461	1.405497	99
Es	0.110861	1.066196	0.709655	99
Es	0.959897	2.473841	-0.905424	99
Es	-0.274701	-1.280156	0.405548	99
Es	0.704878	0.896456	0.588462	99
Es	0.523860	2.439570	-0.773343	99
Es	-0.188746	1.035230	-2.313507	99
Es	-0.134560	0.019646	-0.697951	99
42
Properties=species:S:1:pos:R:3:Z:I:1 energy=-628.2439598927963 field_type=dipole dipole="0.000000 0.000000 0.000000" charge=0
C	-0.065269	-0.993970	1.106488	6
C	-0.443409	-1.376100	-0.355482	6
C	-0.134529	0.019730	-0.697912	6
C	-0.048819	1.013140	-1.606922	6
S	0.524071	2.441010	-0.773692	16
C	0.614761	1.624140	0.770918	6
C	0.214281	0.350530	0.580598	6
H	0.802691	-1.473730	1.571748	1
H	-0.853009	-1.006910	1.868378	1
H	-1.476409	-1.665300	-0.576692	1
H	0.185591	-2.101950	-0.882952	1
H	-0.263589	1.028560	-2.665632	1
H	0.943641	2.140850	1.661158	1
Es	0.110643	1.066026	0.709063	99
Es	-0.443388	-1.376041	-0.355456	99
Es	0.570925	2.349654	-0.711622	99
Es	0.566042	2.538019	-0.733605	99
Es	0.051369	0.236763	-0.075160	99
Es	0.109836	-0.274660	0.949676	99
Es	-0.134562	0.019642	-0.697949	99
Es	0.835522	1.978933	1.358160	99
Es	-0.048763	1.013333	-1.606909	99
Es	0.524087	2.441222	-0.773659	99
Es	0.212611	0.442496	-1.188179	99
Es	0.585003	2.040857	0.037205	99
Es	-0.382173	0.605840	-1.063926	99
Es	0.704504	0.896694	0.589028	99
Es	-0.274790	-1.280130	0.405630	99
Es	0.959912	2.497517	-0.910838	99
Es	0.228159	1.715973	-1.230051	99
Es	-0.007926	-1.860574	-0.701222	99
Es	0.404796	2.439246	-0.760680	99
Es	-0.065270	-0.993934	1.106430	99
Es	0.148766	2.692739	-0.732256	99
Es	0.214282	0.350474	0.580680	99
Es	-0.316392	-0.688591	-0.644400	99
Es	0.525195	-1.320507	1.405518	99
Es	-0.606188	-1.000229	1.607881	99
Es	-1.144041	-1.563283	-0.491487	99
Es	0.552805	2.432140	-0.887677	99
Es	0.614781	1.624299	0.770793	99
Es	-0.188784	1.035115	-2.313456	99
42
Properties=species:S:1:pos:R:3:Z:I:1 energy=-628.2439598927963 field_type=dipole dipole="0.000000 0.000000 0.000000" charge=0
C	-0.065269	-0.993970	1.106488	6
C	-0.443409	-1.376100	-0.355482	6
C	-0.134529	0.019730	-0.697912	6
C	-0.048819	1.013140	-1.606922	6
S	0.524071	2.441010	-0.773692	16
C	0.614761	1.624140	0.770918	6
C	0.214281	0.350530	0.580598	6
H	0.802691	-1.473730	1.571748	1
H	-0.853009	-1.006910	1.868378	1
H	-1.476409	-1.665300	-0.576692	1
H	0.185591	-2.101950	-0.882952	1
H	-0.263589	1.028560	-2.665632	1
H	0.943641	2.140850	1.661158	1
Es	-0.316581	-0.688639	-0.644531	99
Es	-1.144104	-1.563344	-0.491519	99
Es	0.525123	-1.320609	1.405449	99
Es	-0.381800	0.605725	-1.064157	99
Es	0.212716	0.442724	-1.187493	99
Es	0.214290	0.350473	0.580678	99
Es	0.704240	0.896340	0.588262	99
Es	0.488069	2.333910	-0.793747	99
Es	-0.606119	-1.000270	1.607890	99
Es	0.524067	2.440958	-0.773674	99
Es	0.109911	-0.274510	0.949938	99
Es	0.835527	1.978806	1.358211	99
Es	-0.443390	-1.376045	-0.355457	99
Es	0.225548	1.716761	-1.229438	99
Es	0.492632	2.468597	-0.664324	99
Es	0.959387	2.483346	-0.907875	99
Es	-0.065272	-0.993933	1.106434	99
Es	-0.274780	-1.280138	0.405657	99
Es	-0.134566	0.019653	-0.697951	99
Es	0.111083	1.065844	0.709166	99
Es	0.614779	1.624305	0.770795	99
Es	0.051243	0.236683	-0.075103	99
Es	0.471435	2.515107	-0.852244	99
Es	-0.007918	-1.860414	-0.701293	99
Es	-0.048764	1.013334	-1.606909	99
Es	0.582522	2.041661	0.037785	99
Es	0.643490	2.441927	-0.783131	99
Es	0.153099	2.705723	-0.736428	99
Es	-0.188909	1.035056	-2.313459	99
42
Properties=species:S:1:pos:R:3:Z:I:1 energy=-628.2439598927963 field_type=dipole dipole="0.000000 0.000000 0.000000" charge=0
C	-0.065269	-0.993970	1.106488	6
C	-0.443409	-1.376100	-0.355482	6
C	-0.134529	0.019730	-0.697912	6
C	-0.048819	1.013140	-1.606922	6
S	0.524071	2.441010	-0.773692	16
C	0.614761	1.624140	0.770918	6
C	0.214281	0.350530	0.580598	6
H	0.802691	-1.473730	1.571748	1
H	-0.853009	-1.006910	1.868378	1
H	-1.476409	-1.665300	-0.576692	1
H	0.185591	-2.101950	-0.882952	1
H	-0.263589	1.028560	-2.665632	1
H	0.943641	2.140850	1.661158	1
Es	-1.144051	-1.563473	-0.491612	99
Es	-0.007833	-1.860300	-0.701268	99
Es	0.153709	2.705977	-0.736249	99
Es	0.212425	0.442783	-1.187311	99
Es	0.582427	2.041698	0.037690	99
Es	-0.048763	1.013334	-1.606909	99
Es	0.477492	2.355061	-0.710878	99
Es	0.959635	2.483426	-0.907856	99
Es	-0.274786	-1.280249	0.405667	99
Es	-0.316601	-0.688697	-0.644653	99
Es	-0.381497	0.605565	-1.064005	99
Es	0.111476	1.065588	0.709499	99
Es	-0.065270	-0.993933	1.106430	99
Es	0.109899	-0.274650	0.950001	99
Es	-0.443388	-1.376040	-0.355455	99
Es	0.214278	0.350478	0.580681	99
Es	0.703874	0.896345	0.587515	99
Es	-0.188810	1.034942	-2.313509	99
Es	-0.134561	0.019645	-0.697950	99
Es	0.636924	2.447698	-0.745059	99
Es	0.614780	1.624298	0.770793	99
Es	0.835504	1.978757	1.358297	99
Es	-0.606145	-1.000174	1.607950	99
Es	0.513487	2.412943	-0.886531	99
Es	0.525583	2.441275	-0.774352	99
Es	0.225530	1.716805	-1.229410	99
Es	0.525166	-1.320429	1.405508	99
Es	0.465506	2.543439	-0.750515	99
Es	0.050970	0.236921	-0.074978	99
42
Properties=species:S:1:pos:R:3:Z:I:1 energy=-628.2439598927963 field_type=dipole dipole="0.000000 0.000000 0.000000" charge=0
C	-0.065269	-0.993970	1.106488	6
C	-0.443409	-1.376100	-0.355482	6
C	-0.134529	0.019730	-0.697912	6
C	-0.048819	1.013140	-1.606922	6
S	0.524071	2.441010	-0.773692	16
C	0.614761	1.624140	0.770918	6
C	0.214281	0.350530	0.580598	6
H	0.802691	-1.473730	1.571748	1
H	-0.853009	-1.006910	1.868378	1
H	-1.476409	-1.665300	-0.576692	1
H	0.185591	-2.101950	-0.882952	1
H	-0.263589	1.028560	-2.665632	1
H	0.943641	2.140850	1.661158	1
Es	-0.008089	-1.860581	-0.701239	99
Es	0.500917	2.358158	-0.854073	99
Es	-0.134561	0.019648	-0.697948	99
Es	0.614782	1.624299	0.770792	99
Es	-0.274776	-1.280258	0.405785	99
Es	0.422204	2.469056	-0.718507	99
Es	-1.144005	-1.563149	-0.491582	99
Es	0.224982	1.717052	-1.229281	99
Es	0.703637	0.896378	0.588565	99
Es	-0.316451	-0.688897	-0.644774	99
Es	0.525133	-1.320386	1.405493	99
Es	0.050846	0.237044	-0.075128	99
Es	-0.381290	0.604945	-1.064893	99
Es	-0.048767	1.013335	-1.606910	99
Es	-0.606105	-1.000267	1.607948	99
Es	0.582203	2.041884	0.037750	99
Es	-0.065270	-0.993932	1.106431	99
Es	0.111350	1.065481	0.708219	99
Es	0.109907	-0.274581	0.950087	99
Es	0.212898	0.443302	-1.186174	99
Es	0.835494	1.978632	1.358352	99
Es	0.154828	2.705589	-0.736800	99
Es	-0.188906	1.034863	-2.313482	99
Es	0.959810	2.484518	-0.907914	99
Es	0.598637	2.396610	-0.694093	99
Es	0.572518	2.535004	-0.826367	99
Es	0.524155	2.440860	-0.773944	99
Es	0.214268	0.350467	0.580672	99
Es	-0.443388	-1.376041	-0.355457	99
42
Properties=species:S:1:pos:R:3:Z:I:1 energy=-628.2439598927963 field_type=dipole dipole="0.000000 0.000000 0.000000" charge=0
C	-0.065269	-0.993970	1.106488	6
C	-0.443409	-1.376100	-0.355482	6
C	-0.134529	0.019730	-0.697912	6
C	-0.048819	1.013140	-1.606922	6
S	0.524071	2.441010	-0.773692	16
C	0.614761	1.624140	0.770918	6
C	0.214281	0.350530	0.580598	6
H	0.802691	-1.473730	1.571748	1
H	-0.853009	-1.006910	1.868378	1
H	-1.476409	-1.665300	-0.576692	1
H	0.185591	-2.101950	-0.882952	1
H	-0.263589	1.028560	-2.665632	1
H	0.943641	2.140850	1.661158	1
Es	-1.143951	-1.563265	-0.491562	99
Es	0.225261	1.717043	-1.229510	99
Es	0.525042	-1.320411	1.405508	99
Es	-0.443387	-1.376038	-0.355455	99
Es	-0.008028	-1.860457	-0.701347	99
Es	0.050546	0.237329	-0.075005	99
Es	0.959042	2.484147	-0.908183	99
Es	-0.134561	0.019645	-0.697948	99
Es	0.212455	0.443261	-1.186317	99
Es	0.576827	2.434344	-0.668980	99
Es	-0.048764	1.013332	-1.606908	99
Es	0.545257	2.543938	-0.817960	99
Es	0.703352	0.896265	0.587054	99
Es	-0.065265	-0.993931	1.106432	99
Es	-0.380919	0.604962	-1.064378	99
Es	-0.606036	-1.000281	1.607916	99
Es	0.112057	1.065252	0.709454	99
Es	-0.188934	1.034708	-2.313505	99
Es	0.405101	2.423723	-0.761408	99
Es	0.214281	0.350473	0.580679	99
Es	-0.274775	-1.280403	0.405726	99
Es	0.582126	2.041907	0.037696	99
Es	0.614785	1.624297	0.770790	99
Es	-0.316578	-0.688810	-0.644737	99
Es	0.155135	2.706466	-0.737368	99
Es	0.835433	1.978591	1.358416	99
Es	0.525042	2.441270	-0.775594	99
Es	0.109902	-0.274514	0.950191	99
Es	0.566518	2.356190	-0.842166	99
42
Properties=species:S:1:pos:R:3:Z:I:1 energy=-628.2439598927963 field_type=dipole dipole="0.000000 0.000000 0.000000" charge=0
C	-0.065269	-0.993970	1.106488	6
C	-0.443409	-1.376100	-0.355482	6
C	-0.134529	0.019730	-0.697912	6
C	-0.048819	1.013140	-1.606922	6
S	0.524071	2.441010	-0.773692	16
C	0.614761	1.624140	0.770918	6
C	0.214281	0.350530	0.580598	6
H	0.802691	-1.473730	1.571748	1
H	-0.853009	-1.006910	1.868378	1
H	-1.476409	-1.665300	-0.576692	1
H	0.185591	-2.101950	-0.882952	1
H	-0.263589	1.028560	-2.665632	1
H	0.943641	2.140850	1.661158	1
Es	0.613544	2.491554	-0.716587	99
Es	0.470263	2.518649	-0.835201	99
Es	-0.274785	-1.280408	0.405705	99
Es	0.524254	2.441186	-0.773774	99
Es	-1.143963	-1.563262	-0.491547	99
Es	0.225211	1.717091	-1.229420	99
Es	0.109961	-0.274646	0.950264	99
Es	-0.008111	-1.860473	-0.701295	99
Es	-0.316551	-0.688874	-0.644978	99
Es	0.051623	0.237110	-0.075206	99
Es	0.525036	-1.320383	1.405532	99
Es	0.156346	2.710143	-0.738306	99
Es	0.702959	0.896327	0.588101	99
Es	0.614781	1.624297	0.770793	99
Es	-0.443388	-1.376040	-0.355456	99
Es	0.111660	1.065242	0.708205	99
Es	-0.065270	-0.993932	1.106430	99
Es	0.214276	0.350469	0.580674	99
Es	0.211422	0.442667	-1.187096	99
Es	0.447052	2.393915	-0.695124	99
Es	0.958226	2.481153	-0.907122	99
Es	0.835472	1.978488	1.358451	99
Es	-0.188890	1.034634	-2.313504	99
Es	0.564056	2.353446	-0.845861	99
Es	0.581763	2.042127	0.037768	99
Es	-0.380669	0.605765	-1.063005	99
Es	-0.605998	-1.000196	1.607941	99
Es	-0.048762	1.013337	-1.606908	99
Es	-0.134555	0.019648	-0.697943	99
42
Properties=species:S:1:pos:R:3:Z:I:1 energy=-628.2439598927963 field_type=dipole dipole="0.000000 0.000000 0.000000" charge=0
C	-0.065269	-0.993970	1.106488	6
C	-0.443409	-1.376100	-0.355482	6
C	-0.134529	0.019730	-0.697912	6
C	-0.048819	1.013140	-1.606922	6
S	0.524071	2.441010	-0.773692	16
C	0.614761	1.624140	0.770918	6
C	0.214281	0.350530	0.580598	6
H	0.802691	-1.473730	1.571748	1
H	-0.853009	-1.006910	1.868378	1
H	-1.476409	-1.665300	-0.576692	1
H	0.185591	-2.101950	-0.882952	1
H	-0.263589	1.028560	-2.665632	1
H	0.943641	2.140850	1.661158	1