45
Properties=species:S:1:pos:R:3:Z:I:1 energy=-739.2859373674266 field_type=dipole dipole="0.000000 0.000000 0.000000" charge=0
C	-1.456546	0.096824	-0.506902	6
C	0.055994	0.060584	-0.506822	6
C	0.765624	1.024244	0.443128	6
O	1.786783	0.072664	0.820248	8
S	0.855144	-1.208956	0.411158	16
O	0.096143	-1.634286	1.564228	8
O	1.612514	-2.101686	-0.436062	8
H	-1.861636	-0.748456	-1.072292	1
H	-1.818156	1.017484	-0.976102	1
H	-1.867706	0.053804	0.506838	1
H	0.451324	0.110704	-1.528992	1
H	0.186684	1.346794	1.316888	1
H	1.193834	1.910284	-0.035312	1
Es	0.358541	-0.597701	-0.120052	99
Es	0.368232	0.574750	-0.048167	99
Es	-0.682949	0.067017	-0.498494	99
Es	0.976536	-1.220103	0.420481	99
Es	-1.456457	0.096828	-0.506917	99
Es	1.786425	0.072612	0.820152	99
Es	1.660537	-1.847563	-0.597590	99
Es	0.056018	0.060516	-0.506730	99
Es	0.363700	1.232913	1.028950	99
Es	1.222130	-2.032875	-0.389194	99
Es	-1.720899	0.072026	0.175238	99
Es	-1.719438	-0.473140	-0.890219	99
Es	1.612325	-2.101475	-0.435828	99
Es	1.965309	0.070078	0.587925	99
Es	0.182372	-1.838083	1.708723	99
Es	0.487883	-1.500919	1.264237	99
Es	0.810174	-1.189865	0.515071	99
Es	1.056645	1.615649	0.115510	99
Es	-1.682276	0.721823	-0.825069	99
Es	0.096310	-1.634150	1.563955	99
Es	0.331645	0.085173	-1.172702	99
Es	0.807584	-1.307109	0.365625	99
Es	1.707343	-2.339871	-0.352295	99
Es	0.765792	1.024023	0.443152	99
Es	1.529539	-1.814442	-0.038635	99
Es	0.030492	-1.331711	1.574464	99
Es	-0.001555	-1.683999	1.212591	99
Es	1.852919	0.068557	1.111799	99
Es	0.827070	-1.117922	0.342763	99
Es	1.486627	-0.373894	0.713132	99
Es	1.401377	0.426408	0.698578	99
Es	0.854611	-1.209431	0.412003	99
45
Properties=species:S:1:pos:R:3:Z:I:1 energy=-739.2859373674266 field_type=dipole dipole="0.000000 0.000000 0.000000" charge=0
C	-1.456546	0.096824	-0.506902	6
C	0.055994	0.060584	-0.506822	6
C	0.765624	1.024244	0.443128	6
O	1.786783	0.072664	0.820248	8
S	0.855144	-1.208956	0.411158	16
O	0.096143	-1.634286	1.564228	8
O	1.612514	-2.101686	-0.436062	8
H	-1.861636	-0.748456	-1.072292	1
H	-1.818156	1.017484	-0.976102	1
H	-1.867706	0.053804	0.506838	1
H	0.451324	0.110704	-1.528992	1
H	0.186684	1.346794	1.316888	1
H	1.193834	1.910284	-0.035312	1
Es	0.490119	-1.512179	1.265393	99
Es	0.905257	-1.261338	0.501981	99
Es	0.747056	-1.168839	0.443749	99
Es	1.401873	0.427079	0.697901	99
Es	1.854806	0.069371	1.111314	99
Es	-1.719452	-0.473065	-0.890289	99
Es	1.786425	0.072610	0.820164	99
Es	-1.682297	0.721882	-0.824967	99
Es	-0.001895	-1.693581	1.215117	99
Es	0.368133	0.574821	-0.048116	99
Es	1.514934	-1.809220	-0.037029	99
Es	0.844614	-1.287609	0.322189	99
Es	-1.720884	0.071904	0.175217	99
Es	1.963809	0.068343	0.587161	99
Es	0.056017	0.060518	-0.506731	99
Es	0.174078	-1.824077	1.727194	99
Es	0.358529	-0.597615	-0.120081	99
Es	1.485768	-0.373662	0.715008	99
Es	0.331726	0.085150	-1.172619	99
Es	0.036815	-1.324785	1.552347	99
Es	0.855051	-1.208881	0.411153	99
Es	-1.456459	0.096828	-0.506915	99
Es	0.765796	1.024021	0.443153	99
Es	1.704292	-2.339635	-0.341978	99
Es	1.671086	-1.851149	-0.595792	99
Es	1.612337	-2.101482	-0.435850	99
Es	0.924037	-1.117755	0.376882	99
Es	0.096379	-1.634245	1.563900	99
Es	-0.683007	0.066895	-0.498609	99
Es	1.056619	1.615594	0.115542	99
Es	0.363774	1.232970	1.028966	99
Es	1.229231	-2.034746	-0.402895	99
45
Properties=species:S:1:pos:R:3:Z:I:1 energy=-739.2859373674266 field_type=dipole dipole="0.000000 0.000000 0.000000" charge=0
C	-1.456546	0.096824	-0.506902	6
C	0.055994	0.060584	-0.506822	6
C	0.765624	1.024244	0.443128	6
O	1.786783	0.072664	0.820248	8
S	0.855144	-1.208956	0.411158	16
O	0.096143	-1.634286	1.564228	8
O	1.612514	-2.101686	-0.436062	8
H	-1.861636	-0.748456	-1.072292	1
H	-1.818156	1.017484	-0.976102	1
H	-1.867706	0.053804	0.506838	1
H	0.451324	0.110704	-1.528992	1
H	0.186684	1.346794	1.316888	1
H	1.193834	1.910284	-0.035312	1
Es	1.964000	0.068606	0.587802	99
Es	0.368139	0.574878	-0.048173	99
Es	1.507944	-1.813147	-0.032308	99
Es	0.056017	0.060516	-0.506729	99
Es	-1.682310	0.721829	-0.824992	99
Es	0.855436	-1.208938	0.411411	99
Es	1.612339	-2.101503	-0.435839	99
Es	1.854326	0.069202	1.110852	99
Es	-1.456457	0.096827	-0.506916	99
Es	0.363820	1.232964	1.028922	99
Es	-0.682945	0.066870	-0.498616	99
Es	1.401611	0.427366	0.697965	99
Es	0.008527	-1.680555	1.205039	99
Es	1.661891	-1.841710	-0.588593	99
Es	0.792609	-1.131601	0.475468	99
Es	1.486184	-0.374030	0.714816	99
Es	0.096433	-1.634178	1.563815	99
Es	1.718320	-2.334086	-0.350297	99
Es	0.789786	-1.309298	0.389855	99
Es	0.358495	-0.597566	-0.120082	99
Es	1.786566	0.072605	0.820151	99
Es	0.952871	-1.236293	0.469429	99
Es	0.493009	-1.506078	1.276196	99
Es	0.030136	-1.328815	1.565704	99
Es	0.331720	0.085027	-1.172619	99
Es	0.167396	-1.839246	1.713193	99
Es	-1.719500	-0.473064	-0.890227	99
Es	0.765791	1.024024	0.443151	99
Es	0.885275	-1.158299	0.309799	99
Es	-1.720897	0.071976	0.175184	99
Es	1.056615	1.615604	0.115603	99
Es	1.231419	-2.045764	-0.406504	99
45
Properties=species:S:1:pos:R:3:Z:I:1 energy=-739.2859373674266 field_type=dipole dipole="0.000000 0.000000 0.000000" charge=0
C	-1.456546	0.096824	-0.506902	6
C	0.055994	0.060584	-0.506822	6
C	0.765624	1.024244	0.443128	6
O	1.786783	0.072664	0.820248	8
S	0.855144	-1.208956	0.411158	16
O	0.096143	-1.634286	1.564228	8
O	1.612514	-2.101686	-0.436062	8
H	-1.861636	-0.748456	-1.072292	1
H	-1.818156	1.017484	-0.976102	1
H	-1.867706	0.053804	0.506838	1
H	0.451324	0.110704	-1.528992	1
H	0.186684	1.346794	1.316888	1
H	1.193834	1.910284	-0.035312	1
Es	0.096279	-1.634196	1.564005	99
Es	0.358467	-0.597557	-0.120077	99
Es	1.665278	-1.845884	-0.593709	99
Es	0.363862	1.233010	1.028890	99
Es	-0.682971	0.066962	-0.498512	99
Es	1.238677	-2.058782	-0.414316	99
Es	0.855189	-1.208888	0.411512	99
Es	0.487728	-1.507415	1.253714	99
Es	0.909381	-1.181410	0.513932	99
Es	0.037388	-1.328405	1.571654	99
Es	0.765792	1.024020	0.443150	99
Es	1.056603	1.615555	0.115670	99
Es	0.818699	-1.110106	0.358463	99
Es	0.056022	0.060513	-0.506729	99
Es	-1.721000	0.071890	0.175174	99
Es	0.761446	-1.279488	0.431888	99
Es	0.368084	0.574775	-0.048261	99
Es	0.931251	-1.264548	0.340140	99
Es	1.486225	-0.374344	0.713948	99
Es	1.401785	0.427817	0.698402	99
Es	-1.719433	-0.473005	-0.890329	99
Es	1.853666	0.068562	1.110453	99
Es	1.964516	0.069058	0.588653	99
Es	0.331769	0.085069	-1.172644	99
Es	1.612328	-2.101474	-0.435818	99
Es	-0.005338	-1.680296	1.222490	99
Es	1.723873	-2.326862	-0.333272	99
Es	0.179479	-1.838540	1.712122	99
Es	1.786516	0.072655	0.820144	99
Es	-1.456461	0.096828	-0.506916	99
Es	1.491761	-1.803201	-0.036417	99
Es	-1.682296	0.721809	-0.824944	99
45
Properties=species:S:1:pos:R:3:Z:I:1 energy=-739.2859373674266 field_type=dipole dipole="0.000000 0.000000 0.000000" charge=0
C	-1.456546	0.096824	-0.506902	6
C	0.055994	0.060584	-0.506822	6
C	0.765624	1.024244	0.443128	6
O	1.786783	0.072664	0.820248	8
S	0.855144	-1.208956	0.411158	16
O	0.096143	-1.634286	1.564228	8
O	1.612514	-2.101686	-0.436062	8
H	-1.861636	-0.748456	-1.072292	1
H	-1.818156	1.017484	-0.976102	1
H	-1.867706	0.053804	0.506838	1
H	0.451324	0.110704	-1.528992	1
H	0.186684	1.346794	1.316888	1
H	1.193834	1.910284	-0.035312	1
Es	-1.719510	-0.473051	-0.890193	99
Es	0.791491	-1.290701	0.357693	99
Es	0.331755	0.085016	-1.172546	99
Es	0.495632	-1.513124	1.275940	99
Es	-0.682986	0.066841	-0.498576	99
Es	1.225204	-2.036404	-0.394965	99
Es	1.612331	-2.101448	-0.435876	99
Es	1.486246	-0.374155	0.714451	99
Es	0.007722	-1.679510	1.206700	99
Es	0.056017	0.060518	-0.506731	99
Es	0.368114	0.574883	-0.048288	99
Es	1.786472	0.072623	0.820112	99
Es	-1.682317	0.721784	-0.825015	99
Es	0.036500	-1.325926	1.557715	99
Es	0.817113	-1.103747	0.376119	99
Es	0.838982	-1.218407	0.527619	99
Es	-1.720959	0.072014	0.175122	99
Es	0.971218	-1.224097	0.384236	99
Es	1.401882	0.427885	0.697580	99
Es	0.358524	-0.597498	-0.120096	99
Es	0.096284	-1.634196	1.564002	99
Es	1.713210	-2.338609	-0.361252	99
Es	1.056581	1.615600	0.115730	99
Es	1.523455	-1.820015	-0.032325	99
Es	1.965283	0.068531	0.588953	99
Es	0.159394	-1.836114	1.719617	99
Es	1.657708	-1.839738	-0.589107	99
Es	0.765793	1.024022	0.443152	99
Es	0.363863	1.232955	1.028834	99
Es	-1.456459	0.096828	-0.506917	99
Es	1.852879	0.068848	1.110516	99
Es	0.857141	-1.207485	0.410252	99
45
Properties=species:S:1:pos:R:3:Z:I:1 energy=-739.2859373674266 field_type=dipole dipole="0.000000 0.000000 0.000000" charge=0
C	-1.456546	0.096824	-0.506902	6
C	0.055994	0.060584	-0.506822	6
C	0.765624	1.024244	0.443128	6
O	1.786783	0.072664	0.820248	8
S	0.855144	-1.208956	0.411158	16
O	0.096143	-1.634286	1.564228	8
O	1.612514	-2.101686	-0.436062	8
H	-1.861636	-0.748456	-1.072292	1
H	-1.818156	1.017484	-0.976102	1
H	-1.867706	0.053804	0.506838	1
H	0.451324	0.110704	-1.528992	1
H	0.186684	1.346794	1.316888	1
H	1.193834	1.910284	-0.035312	1
Es	1.495925	-1.808382	-0.032704	99
Es	1.612359	-2.101509	-0.435900	99
Es	0.751027	-1.164943	0.444975	99
Es	0.929474	-1.119731	0.379960	99
Es	-1.719532	-0.473070	-0.890170	99
Es	0.363906	1.232999	1.028809	99
Es	0.331736	0.085004	-1.172473	99
Es	1.966235	0.069093	0.589300	99
Es	-0.682969	0.066904	-0.498719	99
Es	0.901341	-1.267382	0.500493	99
Es	-1.456463	0.096825	-0.506918	99
Es	1.238374	-2.055067	-0.411285	99
Es	0.477939	-1.499654	1.235109	99
Es	-1.720899	0.072031	0.175149	99
Es	1.786441	0.072621	0.820054	99
Es	0.358489	-0.597552	-0.120115	99
Es	1.056556	1.615564	0.115731	99
Es	0.839269	-1.283699	0.319419	99
Es	1.658617	-1.840766	-0.588447	99
Es	0.096343	-1.634184	1.563955	99
Es	-1.682378	0.721720	-0.824977	99
Es	0.205118	-1.821406	1.720765	99
Es	1.402005	0.428080	0.698337	99
Es	0.056017	0.060518	-0.506730	99
Es	-0.012812	-1.703388	1.239722	99
Es	0.028942	-1.330238	1.564434	99
Es	0.368084	0.574937	-0.048286	99
Es	1.726634	-2.330479	-0.345203	99
Es	1.851878	0.067867	1.110474	99
Es	0.765792	1.024023	0.443152	99
Es	0.854892	-1.208658	0.411102	99
Es	1.486223	-0.373953	0.713447	99
45
Properties=species:S:1:pos:R:3:Z:I:1 energy=-739.2859373674266 field_type=dipole dipole="0.000000 0.000000 0.000000" charge=0
C	-1.456546	0.096824	-0.506902	6
C	0.055994	0.060584	-0.506822	6
C	0.765624	1.024244	0.443128	6
O	1.786783	0.072664	0.820248	8
S	0.855144	-1.208956	0.411158	16
O	0.096143	-1.634286	1.564228	8
O	1.612514	-2.101686	-0.436062	8
H	-1.861636	-0.748456	-1.072292	1
H	-1.818156	1.017484	-0.976102	1
H	-1.867706	0.053804	0.506838	1
H	0.451324	0.110704	-1.528992	1
H	0.186684	1.346794	1.316888	1
H	1.193834	1.910284	-0.035312	1
Es	0.032094	-1.332040	1.578605	99
Es	0.056017	0.060518	-0.506731	99
Es	1.729649	-2.329181	-0.349004	99
Es	0.796941	-1.106452	0.415136	99
Es	0.834750	-1.262431	0.306549	99
Es	0.096371	-1.634175	1.563943	99
Es	1.855326	0.068799	1.110282	99
Es	-0.682946	0.066762	-0.498615	99
Es	1.612332	-2.101487	-0.435856	99
Es	0.003978	-1.671923	1.209989	99
Es	0.368062	0.574958	-0.048371	99
Es	-1.719569	-0.473009	-0.890158	99
Es	1.658034	-1.836515	-0.583558	99
Es	1.962856	0.068280	0.588733	99
Es	1.401777	0.428393	0.698047	99
Es	-1.720949	0.072006	0.175056	99
Es	0.358508	-0.597490	-0.120100	99
Es	0.819668	-1.279451	0.501463	99
Es	0.765791	1.024026	0.443152	99
Es	1.786469	0.072621	0.820163	99
Es	0.491678	-1.503220	1.268317	99
Es	-1.682366	0.721769	-0.824965	99
Es	0.331745	0.084953	-1.172488	99
Es	-1.456461	0.096828	-0.506916	99
Es	0.969721	-1.187197	0.421656	99
Es	0.363927	1.232971	1.028764	99
Es	0.171413	-1.847514	1.703120	99
Es	1.492820	-1.812311	-0.030150	99
Es	0.854913	-1.208873	0.411148	99
Es	1.056549	1.615583	0.115811	99
Es	1.239087	-2.056694	-0.414987	99
Es	1.486378	-0.374379	0.714423	99
45
Properties=species:S:1:pos:R:3:Z:I:1 energy=-739.2859373674266 field_type=dipole dipole="0.000000 0.000000 0.000000" charge=0
C	-1.456546	0.096824	-0.506902	6
C	0.055994	0.060584	-0.506822	6
C	0.765624	1.024244	0.443128	6
O	1.786783	0.072664	0.820248	8
S	0.855144	-1.208956	0.411158	16
O	0.096143	-1.634286	1.564228	8
O	1.612514	-2.101686	-0.436062	8
H	-1.861636	-0.748456	-1.072292	1
H	-1.818156	1.017484	-0.976102	1
H	-1.867706	0.053804	0.506838	1
H	0.451324	0.110704	-1.528992	1
H	0.186684	1.346794	1.316888	1
H	1.193834	1.910284	-0.035312	1
Es	0.765785	1.024032	0.443150	99
Es	0.481945	-1.502074	1.242558	99
Es	-1.720969	0.071953	0.175043	99
Es	1.664617	-1.835118	-0.581196	99
Es	0.056014	0.060519	-0.506734	99
Es	0.197112	-1.815679	1.730184	99
Es	1.250721	-2.066260	-0.429366	99
Es	0.761657	-1.194978	0.335867	99
Es	1.402033	0.428763	0.697516	99
Es	0.331745	0.084922	-1.172400	99
Es	-1.719452	-0.473023	-0.890126	99
Es	1.612333	-2.101495	-0.435833	99
Es	0.363997	1.232965	1.028732	99
Es	-1.456461	0.096827	-0.506916	99
Es	0.819919	-1.192373	0.520925	99
Es	-0.007071	-1.707651	1.235531	99
Es	0.027263	-1.329272	1.551757	99
Es	1.470682	-1.809185	-0.030101	99
Es	0.942002	-1.130837	0.385390	99
Es	0.358486	-0.597468	-0.120183	99
Es	1.733587	-2.324141	-0.337018	99
Es	-1.682459	0.721765	-0.825022	99
Es	-0.683016	0.066802	-0.498628	99
Es	0.096312	-1.634184	1.563962	99
Es	1.962887	0.067265	0.588438	99
Es	0.855672	-1.208781	0.411318	99
Es	0.368060	0.575013	-0.048309	99
Es	1.855585	0.069624	1.109281	99
Es	0.896737	-1.317418	0.402423	99
Es	1.485864	-0.374601	0.716221	99
Es	1.786463	0.072618	0.820168	99
Es	1.056515	1.615592	0.115827	99
45
Properties=species:S:1:pos:R:3:Z:I:1 energy=-739.2859373674266 field_type=dipole dipole="0.000000 0.000000 0.000000" charge=0
C	-1.456546	0.096824	-0.506902	6
C	0.055994	0.060584	-0.506822	6
C	0.765624	1.024244	0.443128	6
O	1.786783	0.072664	0.820248	8
S	0.855144	-1.208956	0.411158	16
O	0.096143	-1.634286	1.564228	8
O	1.612514	-2.101686	-0.436062	8
H	-1.861636	-0.748456	-1.072292	1
H	-1.818156	1.017484	-0.976102	1
H	-1.867706	0.053804	0.506838	1
H	0.451324	0.110704	-1.528992	1
H	0.186684	1.346794	1.316888	1
H	1.193834	1.910284	-0.035312	1
Es	0.364049	1.233039	1.028689	99
Es	-0.005185	-1.689531	1.229594	99
Es	0.056016	0.060518	-0.506731	99
Es	1.786470	0.072625	0.820139	99
Es	0.033797	-1.327737	1.562922	99
Es	-0.683005	0.066703	-0.498681	99
Es	1.492731	-1.803769	-0.034543	99
Es	1.056514	1.615531	0.115886	99
Es	1.724076	-2.330472	-0.338676	99
Es	1.486955	-0.374668	0.713145	99
Es	0.096351	-1.634212	1.563943	99
Es	1.850357	0.067923	1.109880	99
Es	0.331749	0.084889	-1.172396	99
Es	1.662742	-1.845233	-0.590538	99
Es	0.184443	-1.830712	1.720071	99
Es	0.737456	-1.204774	0.431149	99
Es	0.855146	-1.208953	0.411159	99
Es	0.907378	-1.113511	0.458850	99
Es	1.967028	0.068908	0.591412	99
Es	0.358494	-0.597478	-0.120163	99
Es	1.240102	-2.055257	-0.414015	99
Es	0.874987	-1.209566	0.295410	99
Es	0.765792	1.024023	0.443152	99
Es	0.367973	0.575036	-0.048416	99
Es	1.402043	0.428869	0.697100	99
Es	-1.682324	0.721763	-0.824925	99
Es	0.486109	-1.506642	1.247459	99
Es	-1.456462	0.096828	-0.506917	99
Es	0.901056	-1.307604	0.459404	99
Es	-1.719630	-0.473005	-0.890184	99
Es	1.612290	-2.101443	-0.435770	99
Es	-1.720935	0.072033	0.175050	99
45
Properties=species:S:1:pos:R:3:Z:I:1 energy=-739.2859373674266 field_type=dipole dipole="0.000000 0.000000 0.000000" charge=0
C	-1.456546	0.096824	-0.506902	6
C	0.055994	0.060584	-0.506822	6
C	0.765624	1.024244	0.443128	6
O	1.786783	0.072664	0.820248	8
S	0.855144	-1.208956	0.411158	16
O	0.096143	-1.634286	1.564228	8
O	1.612514	-2.101686	-0.436062	8
H	-1.861636	-0.748456	-1.072292	1
H	-1.818156	1.017484	-0.976102	1
H	-1.867706	0.053804	0.506838	1
H	0.451324	0.110704	-1.528992	1
H	0.186684	1.346794	1.316888	1
H	1.193834	1.910284	-0.035312	1
Es	-1.720927	0.072018	0.175006	99
Es	1.965022	0.068901	0.589773	99
Es	0.765793	1.024021	0.443151	99
Es	1.612381	-2.101528	-0.435922	99
Es	0.358551	-0.597413	-0.120212	99
Es	1.232925	-2.061433	-0.393082	99
Es	1.629962	-1.827801	-0.581577	99
Es	1.056506	1.615533	0.115917	99
Es	1.486748	-0.374933	0.714279	99
Es	1.853154	0.068154	1.108820	99
Es	0.942932	-1.147030	0.364471	99
Es	1.401499	0.428903	0.698732	99
Es	-0.683036	0.066676	-0.498684	99
Es	0.368034	0.575082	-0.048411	99
Es	0.096274	-1.634201	1.564018	99
Es	0.750378	-1.185583	0.352316	99
Es	-1.456461	0.096828	-0.506916	99
Es	-1.719607	-0.473004	-0.890120	99
Es	0.176212	-1.824286	1.730397	99
Es	0.845914	-1.181636	0.525842	99
Es	1.786456	0.072617	0.820081	99
Es	0.880850	-1.320425	0.402183	99
Es	1.513141	-1.819701	-0.027948	99
Es	0.039262	-1.325753	1.550409	99
Es	0.855887	-1.209718	0.411118	99
Es	0.331741	0.084865	-1.172333	99
Es	-0.005107	-1.691633	1.227434	99
Es	-1.682380	0.721789	-0.824965	99
Es	1.743495	-2.325744	-0.374990	99
Es	0.056015	0.060518	-0.506731	99
Es	0.488911	-1.512990	1.251750	99
Es	0.364037	1.233032	1.028655	99
45
Properties=species:S:1:pos:R:3:Z:I:1 energy=-739.2859373674266 field_type=dipole dipole="0.000000 0.000000 0.000000" charge=0
C	-1.456546	0.096824	-0.506902	6
C	0.055994	0.060584	-0.506822	6
C	0.765624	1.024244	0.443128	6
O	1.786783	0.072664	0.820248	8
S	0.855144	-1.208956	0.411158	16
O	0.096143	-1.634286	1.564228	8
O	1.612514	-2.101686	-0.436062	8
H	-1.861636	-0.748456	-1.072292	1
H	-1.818156	1.017484	-0.976102	1
H	-1.867706	0.053804	0.506838	1
H	0.451324	0.110704	-1.528992	1
H	0.186684	1.346794	1.316888	1
H	1.193834	1.910284	-0.035312	1
Es	1.401708	0.429209	0.698606	99
Es	0.096337	-1.634190	1.563946	99
Es	0.045806	-1.322454	1.543710	99
Es	1.612285	-2.101503	-0.435633	99
Es	-1.456461	0.096828	-0.506916	99
Es	0.949457	-1.271083	0.447061	99
Es	1.653602	-1.832603	-0.576994	99
Es	1.518438	-1.826161	-0.025993	99
Es	0.367940	0.575086	-0.048349	99
Es	1.854011	0.068248	1.108792	99
Es	0.758396	-1.247952	0.467435	99
Es	0.490014	-1.521004	1.249822	99
Es	-1.720937	0.072119	0.175017	99
Es	1.228976	-2.035489	-0.400773	99
Es	0.056016	0.060519	-0.506731	99
Es	0.855160	-1.208983	0.411187	99
Es	1.486618	-0.374972	0.714391	99
Es	1.786457	0.072620	0.820135	99
Es	-0.007541	-1.691040	1.230502	99
Es	0.358524	-0.597401	-0.120196	99
Es	0.872000	-1.094555	0.436765	99
Es	1.718637	-2.340424	-0.374144	99
Es	1.964117	0.068542	0.589766	99
Es	-0.683041	0.066587	-0.498774	99
Es	0.170899	-1.820182	1.736004	99
Es	0.765790	1.024023	0.443151	99
Es	-1.682314	0.721732	-0.824970	99
Es	-1.719685	-0.473016	-0.890110	99
Es	0.364071	1.233064	1.028626	99
Es	1.056476	1.615507	0.115903	99
Es	0.840988	-1.221821	0.293524	99
Es	0.331820	0.084871	-1.172300	99
45
Properties=species:S:1:pos:R:3:Z:I:1 energy=-739.2859373674266 field_type=dipole dipole="0.000000 0.000000 0.000000" charge=0
C	-1.456546	0.096824	-0.506902	6
C	0.055994	0.060584	-0.506822	6
C	0.765624	1.024244	0.443128	6
O	1.786783	0.072664	0.820248	8
S	0.855144	-1.208956	0.411158	16
O	0.096143	-1.634286	1.564228	8
O	1.612514	-2.101686	-0.436062	8
H	-1.861636	-0.748456	-1.072292	1
H	-1.818156	1.017484	-0.976102	1
H	-1.867706	0.053804	0.506838	1
H	0.451324	0.110704	-1.528992	1
H	0.186684	1.346794	1.316888	1
H	1.193834	1.910284	-0.035312	1
Es	0.765789	1.024021	0.443149	99
Es	0.144551	-1.827624	1.733649	99
Es	1.056457	1.615526	0.115901	99
Es	0.053005	-1.321789	1.541854	99
Es	1.486067	-0.375006	0.716278	99
Es	0.855179	-1.208962	0.411216	99
Es	0.364147	1.233067	1.028587	99
Es	0.803510	-1.318299	0.411335	99
Es	1.401326	0.429322	0.700132	99
Es	1.859322	0.068964	1.107989	99
Es	1.612345	-2.101496	-0.435878	99
Es	1.959709	0.067710	0.587166	99
Es	1.731106	-2.329158	-0.349118	99
Es	-1.456463	0.096827	-0.506913	99
Es	-0.683092	0.066534	-0.498774	99
Es	0.056017	0.060519	-0.506734	99
Es	1.786511	0.072625	0.820155	99
Es	1.656209	-1.837024	-0.583744	99
Es	0.358594	-0.597373	-0.120197	99
Es	0.949535	-1.209850	0.342066	99
Es	0.778328	-1.125986	0.371861	99
Es	1.491041	-1.810662	-0.029795	99
Es	0.889410	-1.181305	0.519424	99
Es	-1.720980	0.072028	0.175055	99
Es	0.367945	0.575117	-0.048400	99
Es	0.096274	-1.634196	1.564051	99
Es	-1.682371	0.721727	-0.824997	99
Es	0.331744	0.084829	-1.172231	99
Es	-1.719630	-0.472894	-0.890081	99
Es	0.499391	-1.528819	1.271478	99
Es	1.241246	-2.057839	-0.414993	99
Es	0.002345	-1.676409	1.212969	99
45
Properties=species:S:1:pos:R:3:Z:I:1 energy=-739.2859373674266 field_type=dipole dipole="0.000000 0.000000 0.000000" charge=0
C	-1.456546	0.096824	-0.506902	6
C	0.055994	0.060584	-0.506822	6
C	0.765624	1.024244	0.443128	6
O	1.786783	0.072664	0.820248	8
S	0.855144	-1.208956	0.411158	16
O	0.096143	-1.634286	1.564228	8
O	1.612514	-2.101686	-0.436062	8
H	-1.861636	-0.748456	-1.072292	1
H	-1.818156	1.017484	-0.976102	1
H	-1.867706	0.053804	0.506838	1
H	0.451324	0.110704	-1.528992	1
H	0.186684	1.346794	1.316888	1
H	1.193834	1.910284	-0.035312	1
Es	0.446953	-1.600094	1.544866	99
Es	0.056016	0.060519	-0.506732	99
Es	0.367922	0.575237	-0.048484	99
Es	0.331789	0.084789	-1.172170	99
Es	0.358625	-0.597404	-0.120230	99
Es	-0.028315	-1.866432	1.585007	99
Es	-1.456459	0.096825	-0.506917	99
Es	-1.720954	0.072032	0.174933	99
Es	1.612315	-2.101493	-0.435814	99
Es	1.738492	-2.325959	-0.354195	99
Es	0.869843	-1.272509	0.312356	99
Es	0.753311	-1.239616	0.462357	99
Es	1.247185	-2.062463	-0.426046	99
Es	1.855675	0.068932	1.108405	99
Es	0.364128	1.233073	1.028574	99
Es	1.655564	-1.828645	-0.572827	99
Es	1.486555	-0.375407	0.715287	99
Es	0.765789	1.024024	0.443149	99
Es	-1.682457	0.721751	-0.824965	99
Es	1.056446	1.615483	0.115998	99
Es	-0.683073	0.066553	-0.498782	99
Es	1.401962	0.429801	0.697911	99
Es	1.786598	0.072617	0.820108	99
Es	0.096319	-1.634203	1.563958	99
Es	0.946030	-1.229470	0.486584	99
Es	-1.719615	-0.473006	-0.890062	99
Es	0.237666	-1.563869	1.076525	99
Es	0.855138	-1.208958	0.411166	99
Es	1.478436	-1.817616	-0.024666	99
Es	1.962200	0.067602	0.590025	99
Es	0.042733	-1.324099	1.553573	99
Es	0.851748	-1.093872	0.383565	99
45
Properties=species:S:1:pos:R:3:Z:I:1 energy=-739.2859373674266 field_type=dipole dipole="0.000000 0.000000 0.000000" charge=0
C	-1.456546	0.096824	-0.506902	6
C	0.055994	0.060584	-0.506822	6
C	0.765624	1.024244	0.443128	6
O	1.786783	0.072664	0.820248	8
S	0.855144	-1.208956	0.411158	16
O	0.096143	-1.634286	1.564228	8
O	1.612514	-2.101686	-0.436062	8
H	-1.861636	-0.748456	-1.072292	1
H	-1.818156	1.017484	-0.976102	1
H	-1.867706	0.053804	0.506838	1
H	0.451324	0.110704	-1.528992	1
H	0.186684	1.346794	1.316888	1
H	1.193834	1.910284	-0.035312	1
Es	1.479703	-1.811990	-0.027714	99
Es	-1.720801	0.071983	0.174808	99
Es	-1.456463	0.096828	-0.506916	99
Es	1.401542	0.429647	0.699185	99
Es	0.364160	1.233078	1.028523	99
Es	-0.683171	0.066460	-0.498748	99
Es	0.367938	0.575187	-0.048455	99
Es	0.026766	-1.332606	1.572879	99
Es	1.650805	-1.831717	-0.579042	99
Es	0.096292	-1.634182	1.563912	99
Es	-0.052183	-1.854971	1.476760	99
Es	0.358554	-0.597337	-0.120256	99
Es	0.405300	-1.650905	1.615314	99
Es	1.853988	0.068159	1.107599	99
Es	0.056016	0.060520	-0.506731	99
Es	0.849757	-1.115038	0.332767	99
Es	0.817620	-1.178786	0.510647	99
Es	1.612339	-2.101488	-0.435860	99
Es	0.795708	-1.308015	0.369931	99
Es	1.056439	1.615486	0.116026	99
Es	0.319318	-1.516094	1.095138	99
Es	0.959825	-1.234484	0.429881	99
Es	1.741837	-2.323503	-0.350086	99
Es	1.786477	0.072627	0.820152	99
Es	-1.682429	0.721963	-0.824887	99
Es	1.964325	0.068501	0.589815	99
Es	0.331819	0.084787	-1.172152	99
Es	1.247257	-2.067470	-0.420838	99
Es	0.765790	1.024022	0.443150	99
Es	0.853110	-1.208109	0.412745	99
Es	-1.719734	-0.473036	-0.890062	99
Es	1.486659	-0.375393	0.714977	99
45
Properties=species:S:1:pos:R:3:Z:I:1 energy=-739.2859373674266 field_type=dipole dipole="0.000000 0.000000 0.000000" charge=0
C	-1.456546	0.096824	-0.506902	6
C	0.055994	0.060584	-0.506822	6
C	0.765624	1.024244	0.443128	6
O	1.786783	0.072664	0.820248	8
S	0.855144	-1.208956	0.411158	16
O	0.096143	-1.634286	1.564228	8
O	1.612514	-2.101686	-0.436062	8
H	-1.861636	-0.748456	-1.072292	1
H	-1.818156	1.017484	-0.976102	1
H	-1.867706	0.053804	0.506838	1
H	0.451324	0.110704	-1.528992	1
H	0.186684	1.346794	1.316888	1
H	1.193834	1.910284	-0.035312	1
Es	0.056015	0.060520	-0.506732	99
Es	0.487178	-1.513306	1.245207	99
Es	0.939663	-1.291762	0.401858	99
Es	1.649453	-1.829985	-0.576542	99
Es	1.855832	0.068253	1.107405	99
Es	0.358570	-0.597295	-0.120258	99
Es	1.962466	0.068121	0.589721	99
Es	-1.456460	0.096830	-0.506917	99
Es	0.180745	-1.815735	1.737729	99
Es	0.331806	0.084763	-1.172120	99
Es	0.096517	-1.634366	1.563911	99
Es	1.401675	0.430128	0.699302	99
Es	0.367920	0.575210	-0.048464	99
Es	-0.683099	0.066517	-0.498786	99
Es	-0.007316	-1.699464	1.234645	99
Es	0.763856	-1.253385	0.470450	99
Es	-1.720984	0.072066	0.174910	99
Es	0.364194	1.233076	1.028494	99
Es	1.786431	0.072588	0.820181	99
Es	-1.719666	-0.472960	-0.890065	99
Es	1.490828	-1.817478	-0.025034	99
Es	0.897862	-1.115027	0.469787	99
Es	1.612320	-2.101467	-0.435841	99
Es	0.765789	1.024024	0.443150	99
Es	1.242293	-2.058801	-0.415359	99
Es	0.038401	-1.325993	1.542479	99
Es	0.819167	-1.175816	0.302706	99
Es	-1.682405	0.721716	-0.824960	99
Es	1.056439	1.615491	0.116053	99
Es	1.486571	-0.375501	0.715128	99
Es	0.855449	-1.208403	0.411161	99
Es	1.737055	-2.328439	-0.360739	99
45
Properties=species:S:1:pos:R:3:Z:I:1 energy=-739.2859373674266 field_type=dipole dipole="0.000000 0.000000 0.000000" charge=0
C	-1.456546	0.096824	-0.506902	6
C	0.055994	0.060584	-0.506822	6
C	0.765624	1.024244	0.443128	6
O	1.786783	0.072664	0.820248	8
S	0.855144	-1.208956	0.411158	16
O	0.096143	-1.634286	1.564228	8
O	1.612514	-2.101686	-0.436062	8
H	-1.861636	-0.748456	-1.072292	1
H	-1.818156	1.017484	-0.976102	1
H	-1.867706	0.053804	0.506838	1
H	0.451324	0.110704	-1.528992	1
H	0.186684	1.346794	1.316888	1
H	1.193834	1.910284	-0.035312	1
Es	-0.006966	-1.682822	1.228367	99
Es	-1.719638	-0.472934	-0.890132	99
Es	1.642905	-1.827688	-0.575800	99
Es	1.786454	0.072581	0.820162	99
Es	1.747016	-2.322504	-0.359438	99
Es	0.056017	0.060521	-0.506731	99
Es	1.483027	-1.815773	-0.025101	99
Es	1.246686	-2.068706	-0.417352	99
Es	1.401846	0.430226	0.698986	99
Es	1.965977	0.068671	0.591122	99
Es	0.855218	-1.209341	0.411014	99
Es	-1.682422	0.721751	-0.824896	99
Es	0.096675	-1.634375	1.563796	99
Es	-1.456462	0.096827	-0.506916	99
Es	0.163284	-1.825195	1.733758	99
Es	0.751738	-1.266518	0.412918	99
Es	1.486710	-0.375392	0.714345	99
Es	0.853830	-1.121467	0.492373	99
Es	-1.721009	0.071987	0.174875	99
Es	0.491927	-1.524251	1.251664	99
Es	-0.683125	0.066544	-0.498747	99
Es	0.358583	-0.597284	-0.120318	99
Es	0.944590	-1.284816	0.434532	99
Es	1.056396	1.615528	0.116185	99
Es	1.612326	-2.101488	-0.435832	99
Es	0.050621	-1.322167	1.546424	99
Es	0.765788	1.024025	0.443150	99
Es	0.870599	-1.162298	0.305116	99
Es	0.367906	0.575197	-0.048522	99
Es	1.852012	0.067506	1.107135	99
Es	0.364204	1.232997	1.028441	99
Es	0.331853	0.084784	-1.172120	99
45
Properties=species:S:1:pos:R:3:Z:I:1 energy=-739.2859373674266 field_type=dipole dipole="0.000000 0.000000 0.000000" charge=0
C	-1.456546	0.096824	-0.506902	6
C	0.055994	0.060584	-0.506822	6
C	0.765624	1.024244	0.443128	6
O	1.786783	0.072664	0.820248	8
S	0.855144	-1.208956	0.411158	16
O	0.096143	-1.634286	1.564228	8
O	1.612514	-2.101686	-0.436062	8
H	-1.861636	-0.748456	-1.072292	1
H	-1.818156	1.017484	-0.976102	1
H	-1.867706	0.053804	0.506838	1
H	0.451324	0.110704	-1.528992	1
H	0.186684	1.346794	1.316888	1
H	1.193834	1.910284	-0.035312	1
Es	0.790614	-1.212021	0.512377	99
Es	1.402144	0.430567	0.698450	99
Es	1.851175	0.067535	1.106945	99
Es	-1.456463	0.096828	-0.506915	99
Es	-1.682429	0.721741	-0.824866	99
Es	0.493417	-1.530025	1.252610	99
Es	0.155542	-1.831144	1.730202	99
Es	1.786460	0.072642	0.820144	99
Es	0.855142	-1.208954	0.411163	99
Es	0.912839	-1.302434	0.405404	99
Es	1.612337	-2.101486	-0.435859	99
Es	1.252331	-2.076825	-0.423762	99
Es	0.059170	-1.321320	1.550769	99
Es	1.470667	-1.809616	-0.028526	99
Es	0.331806	0.084726	-1.172036	99
Es	-1.720922	0.072059	0.174838	99
Es	-1.719765	-0.472954	-0.890068	99
Es	0.096364	-1.634210	1.563899	99
Es	0.367916	0.575275	-0.048564	99
Es	1.646649	-1.830516	-0.579163	99
Es	0.364240	1.233040	1.028421	99
Es	1.486690	-0.375609	0.714306	99
Es	-0.008928	-1.672076	1.226544	99
Es	0.933621	-1.120118	0.414757	99
Es	1.749946	-2.317747	-0.346202	99
Es	0.765790	1.024024	0.443150	99
Es	1.966533	0.068430	0.591915	99
Es	0.783777	-1.200859	0.312247	99
Es	0.358565	-0.597355	-0.120329	99
Es	0.056017	0.060519	-0.506730	99
Es	1.056416	1.615510	0.116181	99
Es	-0.683096	0.066496	-0.498845	99
