44
Properties=species:S:1:pos:R:3:Z:I:1 energy=-645.4772635491416 field_type=dipole dipole="0.000000 0.000000 0.000000" charge=0
C	-1.728167	0.540759	-0.005681	6
C	-0.236027	0.552759	0.000999	6
C	0.530533	1.705128	0.004049	6
S	2.211073	1.389338	0.012429	16
C	1.941823	-0.298491	0.012359	6
C	0.602383	-0.604742	0.005579	6
N	0.144543	-1.869511	0.003969	7
H	-2.136927	1.556418	0.002789	1
H	-2.109897	0.016519	0.876299	1
H	-2.101397	0.034369	-0.901611	1
H	0.182283	2.728868	0.001889	1
H	2.782473	-0.976891	0.017349	1
H	-0.843137	-2.098442	-0.019761	1
H	0.760433	-2.676081	-0.010651	1
Es	0.530715	1.705169	0.004039	99
Es	0.165124	1.083794	0.316587	99
Es	2.329287	1.511491	-0.417032	99
Es	2.173539	1.338550	-0.087888	99
Es	-0.236067	0.552720	0.000998	99
Es	2.134206	1.473339	0.043944	99
Es	-0.978332	0.540646	-0.002198	99
Es	-1.978164	0.180897	0.589432	99
Es	0.518467	-2.341041	-0.035585	99
Es	2.211059	1.389331	0.012430	99
Es	-1.998218	1.228202	-0.000067	99
Es	0.168035	1.083598	-0.311230	99
Es	0.142007	-0.064317	0.002839	99
Es	-1.972405	0.192779	-0.610408	99
Es	0.173046	-1.783924	0.178632	99
Es	-0.444258	-1.994402	-0.042248	99
Es	1.340077	1.581589	0.007052	99
Es	0.602277	-0.604896	0.005579	99
Es	0.333225	-1.338385	-0.096442	99
Es	0.301981	2.392376	0.002496	99
Es	2.317330	1.508589	0.443877	99
Es	1.941899	-0.298338	0.012358	99
Es	2.318172	1.437118	-0.003231	99
Es	1.328603	-0.385135	0.323396	99
Es	0.144654	-1.869197	0.002844	99
Es	2.215510	1.307221	0.096865	99
Es	2.101821	0.507224	0.012487	99
Es	1.331271	-0.384625	-0.304269	99
Es	2.507837	-0.753513	0.015384	99
Es	-1.728112	0.540748	-0.005682	99
44
Properties=species:S:1:pos:R:3:Z:I:1 energy=-645.4772635491416 field_type=dipole dipole="0.000000 0.000000 0.000000" charge=0
C	-1.728167	0.540759	-0.005681	6
C	-0.236027	0.552759	0.000999	6
C	0.530533	1.705128	0.004049	6
S	2.211073	1.389338	0.012429	16
C	1.941823	-0.298491	0.012359	6
C	0.602383	-0.604742	0.005579	6
N	0.144543	-1.869511	0.003969	7
H	-2.136927	1.556418	0.002789	1
H	-2.109897	0.016519	0.876299	1
H	-2.101397	0.034369	-0.901611	1
H	0.182283	2.728868	0.001889	1
H	2.782473	-0.976891	0.017349	1
H	-0.843137	-2.098442	-0.019761	1
H	0.760433	-2.676081	-0.010651	1
Es	0.165300	1.083499	0.316112	99
Es	-0.978461	0.540711	-0.002401	99
Es	0.335362	-1.333006	-0.084944	99
Es	2.102009	0.507204	0.012605	99
Es	0.301700	2.392341	0.002602	99
Es	2.326645	1.510617	-0.417088	99
Es	2.211022	1.389736	0.012951	99
Es	0.530714	1.705170	0.004049	99
Es	0.142047	-0.064074	0.003119	99
Es	-1.972421	0.192819	-0.610368	99
Es	2.212240	1.367172	0.130061	99
Es	1.331271	-0.384152	-0.304177	99
Es	2.233003	1.289378	-0.047612	99
Es	0.144627	-1.869270	0.003024	99
Es	2.291533	1.466887	-0.013977	99
Es	0.168192	1.083191	-0.310865	99
Es	2.105113	1.432143	-0.019197	99
Es	1.328027	-0.385479	0.322909	99
Es	-0.236066	0.552720	0.001017	99
Es	-1.978140	0.180848	0.589486	99
Es	0.602271	-0.604901	0.005570	99
Es	0.518921	-2.341479	-0.034073	99
Es	2.319941	1.510068	0.443460	99
Es	1.941898	-0.298332	0.012363	99
Es	1.340162	1.581748	0.007341	99
Es	-0.444958	-1.994098	-0.041256	99
Es	-1.728112	0.540749	-0.005681	99
Es	0.171226	-1.789110	0.164532	99
Es	2.507762	-0.753666	0.015467	99
Es	-1.998238	1.228176	-0.000069	99
44
Properties=species:S:1:pos:R:3:Z:I:1 energy=-645.4772635491416 field_type=dipole dipole="0.000000 0.000000 0.000000" charge=0
C	-1.728167	0.540759	-0.005681	6
C	-0.236027	0.552759	0.000999	6
C	0.530533	1.705128	0.004049	6
S	2.211073	1.389338	0.012429	16
C	1.941823	-0.298491	0.012359	6
C	0.602383	-0.604742	0.005579	6
N	0.144543	-1.869511	0.003969	7
H	-2.136927	1.556418	0.002789	1
H	-2.109897	0.016519	0.876299	1
H	-2.101397	0.034369	-0.901611	1
H	0.182283	2.728868	0.001889	1
H	2.782473	-0.976891	0.017349	1
H	-0.843137	-2.098442	-0.019761	1
H	0.760433	-2.676081	-0.010651	1
Es	-0.978469	0.540680	-0.002119	99
Es	2.161437	1.324487	-0.073394	99
Es	0.602278	-0.604895	0.005578	99
Es	-0.443719	-1.994054	-0.044406	99
Es	2.102021	0.507294	0.012310	99
Es	-1.998292	1.228182	0.000046	99
Es	-1.978185	0.180756	0.589337	99
Es	2.201442	1.330608	0.116055	99
Es	0.172501	-1.784171	0.181325	99
Es	-1.728109	0.540748	-0.005681	99
Es	0.333425	-1.338688	-0.096502	99
Es	-1.972388	0.192923	-0.610402	99
Es	2.507760	-0.753720	0.015315	99
Es	0.165271	1.083930	0.315658	99
Es	0.518267	-2.340966	-0.036074	99
Es	2.328784	1.511420	-0.416715	99
Es	0.144671	-1.869148	0.002823	99
Es	2.154571	1.491396	0.020111	99
Es	1.330467	-0.384651	-0.303750	99
Es	0.142099	-0.063980	0.003034	99
Es	2.210932	1.389561	0.012468	99
Es	0.530704	1.705168	0.004057	99
Es	0.168629	1.082426	-0.310914	99
Es	1.328021	-0.384834	0.322928	99
Es	1.941886	-0.298346	0.012364	99
Es	1.340277	1.581660	0.007276	99
Es	2.318493	1.509109	0.443683	99
Es	0.301568	2.392349	0.002683	99
Es	-0.236065	0.552719	0.001007	99
Es	2.324311	1.409642	-0.013136	99
44
Properties=species:S:1:pos:R:3:Z:I:1 energy=-645.4772635491416 field_type=dipole dipole="0.000000 0.000000 0.000000" charge=0
C	-1.728167	0.540759	-0.005681	6
C	-0.236027	0.552759	0.000999	6
C	0.530533	1.705128	0.004049	6
S	2.211073	1.389338	0.012429	16
C	1.941823	-0.298491	0.012359	6
C	0.602383	-0.604742	0.005579	6
N	0.144543	-1.869511	0.003969	7
H	-2.136927	1.556418	0.002789	1
H	-2.109897	0.016519	0.876299	1
H	-2.101397	0.034369	-0.901611	1
H	0.182283	2.728868	0.001889	1
H	2.782473	-0.976891	0.017349	1
H	-0.843137	-2.098442	-0.019761	1
H	0.760433	-2.676081	-0.010651	1
Es	2.102314	0.507246	0.011624	99
Es	1.941897	-0.298340	0.012358	99
Es	0.518045	-2.340671	-0.037293	99
Es	0.301461	2.392309	0.002517	99
Es	2.164819	1.281765	0.029888	99
Es	0.333519	-1.338385	-0.095533	99
Es	-0.443627	-1.993961	-0.044587	99
Es	2.327950	1.380237	0.004015	99
Es	2.166730	1.434036	-0.087629	99
Es	-1.972382	0.192788	-0.610299	99
Es	0.142147	-0.063927	0.002760	99
Es	-1.978146	0.180853	0.589399	99
Es	-1.728113	0.540749	-0.005681	99
Es	0.530704	1.705166	0.004051	99
Es	1.330200	-0.384654	-0.303326	99
Es	-0.236067	0.552719	0.000999	99
Es	0.172363	-1.785576	0.182189	99
Es	0.602274	-0.604904	0.005582	99
Es	2.507668	-0.753837	0.015332	99
Es	-1.998309	1.228255	-0.000090	99
Es	0.168709	1.082448	-0.310357	99
Es	0.165481	1.083409	0.315500	99
Es	1.327681	-0.384651	0.322885	99
Es	1.340348	1.581588	0.008785	99
Es	2.211103	1.389198	0.012263	99
Es	2.320983	1.510514	0.442862	99
Es	2.326456	1.511316	-0.416978	99
Es	0.144893	-1.868506	0.002351	99
Es	2.182121	1.459651	0.103633	99
Es	-0.978632	0.540774	-0.002260	99
44
Properties=species:S:1:pos:R:3:Z:I:1 energy=-645.4772635491416 field_type=dipole dipole="0.000000 0.000000 0.000000" charge=0
C	-1.728167	0.540759	-0.005681	6
C	-0.236027	0.552759	0.000999	6
C	0.530533	1.705128	0.004049	6
S	2.211073	1.389338	0.012429	16
C	1.941823	-0.298491	0.012359	6
C	0.602383	-0.604742	0.005579	6
N	0.144543	-1.869511	0.003969	7
H	-2.136927	1.556418	0.002789	1
H	-2.109897	0.016519	0.876299	1
H	-2.101397	0.034369	-0.901611	1
H	0.182283	2.728868	0.001889	1
H	2.782473	-0.976891	0.017349	1
H	-0.843137	-2.098442	-0.019761	1
H	0.760433	-2.676081	-0.010651	1
Es	2.221932	1.410212	0.129622	99
Es	-1.972464	0.192809	-0.610349	99
Es	0.530714	1.705170	0.004043	99
Es	1.326503	-0.385600	0.322089	99
Es	-1.978151	0.180896	0.589351	99
Es	0.169055	1.081656	-0.310467	99
Es	2.507628	-0.753937	0.015528	99
Es	1.330777	-0.383678	-0.303952	99
Es	2.212278	1.390100	0.011766	99
Es	-0.449988	-1.994352	-0.017533	99
Es	-0.236067	0.552720	0.001003	99
Es	0.602276	-0.604896	0.005580	99
Es	2.327298	1.511109	-0.416925	99
Es	2.242375	1.277998	-0.011172	99
Es	0.522208	-2.344707	-0.011450	99
Es	-1.998256	1.228238	-0.000014	99
Es	0.150841	-1.851471	-0.001297	99
Es	0.161123	-1.820942	0.055862	99
Es	1.340579	1.581585	0.007709	99
Es	-0.978655	0.540755	-0.002245	99
Es	0.301336	2.392235	0.002756	99
Es	2.102313	0.507332	0.012798	99
Es	-1.728113	0.540749	-0.005681	99
Es	1.941898	-0.298340	0.012363	99
Es	2.097882	1.406523	-0.020767	99
Es	0.341323	-1.315533	-0.018120	99
Es	2.278037	1.460108	-0.047141	99
Es	2.320730	1.510948	0.442868	99
Es	0.141754	-0.063760	0.003660	99
Es	0.165422	1.083685	0.315075	99
44
Properties=species:S:1:pos:R:3:Z:I:1 energy=-645.4772635491416 field_type=dipole dipole="0.000000 0.000000 0.000000" charge=0
C	-1.728167	0.540759	-0.005681	6
C	-0.236027	0.552759	0.000999	6
C	0.530533	1.705128	0.004049	6
S	2.211073	1.389338	0.012429	16
C	1.941823	-0.298491	0.012359	6
C	0.602383	-0.604742	0.005579	6
N	0.144543	-1.869511	0.003969	7
H	-2.136927	1.556418	0.002789	1
H	-2.109897	0.016519	0.876299	1
H	-2.101397	0.034369	-0.901611	1
H	0.182283	2.728868	0.001889	1
H	2.782473	-0.976891	0.017349	1
H	-0.843137	-2.098442	-0.019761	1
H	0.760433	-2.676081	-0.010651	1
Es	2.140907	1.475629	-0.024915	99
Es	1.329558	-0.384367	-0.302956	99
Es	2.507611	-0.753964	0.015457	99
Es	1.327063	-0.384733	0.322241	99
Es	-1.728112	0.540749	-0.005681	99
Es	0.301197	2.392255	0.002651	99
Es	-1.998313	1.228203	-0.000068	99
Es	0.516746	-2.339677	-0.040660	99
Es	0.168817	1.082261	-0.309819	99
Es	1.340705	1.581624	0.008248	99
Es	2.211502	1.389353	0.012522	99
Es	2.315990	1.398161	-0.040774	99
Es	-0.236067	0.552718	0.001004	99
Es	2.325859	1.509991	-0.417368	99
Es	2.221623	1.397506	0.128757	99
Es	2.161882	1.284319	-0.013093	99
Es	-0.442095	-1.994129	-0.047415	99
Es	0.144709	-1.869042	0.002847	99
Es	2.323325	1.511947	0.442261	99
Es	1.941893	-0.298340	0.012349	99
Es	0.165907	1.082842	0.314988	99
Es	0.602278	-0.604896	0.005580	99
Es	0.530713	1.705169	0.004050	99
Es	0.330331	-1.347613	-0.111947	99
Es	-1.978166	0.180861	0.589385	99
Es	0.142264	-0.063665	0.002922	99
Es	2.102129	0.507561	0.012722	99
Es	0.175490	-1.776753	0.204237	99
Es	-0.978731	0.540823	-0.002260	99
Es	-1.972424	0.192816	-0.610303	99
44
Properties=species:S:1:pos:R:3:Z:I:1 energy=-645.4772635491416 field_type=dipole dipole="0.000000 0.000000 0.000000" charge=0
C	-1.728167	0.540759	-0.005681	6
C	-0.236027	0.552759	0.000999	6
C	0.530533	1.705128	0.004049	6
S	2.211073	1.389338	0.012429	16
C	1.941823	-0.298491	0.012359	6
C	0.602383	-0.604742	0.005579	6
N	0.144543	-1.869511	0.003969	7
H	-2.136927	1.556418	0.002789	1
H	-2.109897	0.016519	0.876299	1
H	-2.101397	0.034369	-0.901611	1
H	0.182283	2.728868	0.001889	1
H	2.782473	-0.976891	0.017349	1
H	-0.843137	-2.098442	-0.019761	1
H	0.760433	-2.676081	-0.010651	1
Es	0.168776	1.082462	-0.309447	99
Es	2.102351	0.507589	0.012291	99
Es	2.317469	1.509510	0.443373	99
Es	1.340750	1.581567	0.006311	99
Es	2.189970	1.418493	-0.100327	99
Es	0.142169	-0.063574	0.003187	99
Es	-1.972394	0.192803	-0.610327	99
Es	-0.236064	0.552723	0.000998	99
Es	2.213502	1.485905	0.079771	99
Es	2.211010	1.389413	0.012481	99
Es	1.330467	-0.384580	-0.303697	99
Es	2.123593	1.316799	0.049136	99
Es	1.941892	-0.298342	0.012379	99
Es	0.530714	1.705171	0.004049	99
Es	-1.728113	0.540748	-0.005681	99
Es	2.331842	1.513470	-0.415054	99
Es	2.507482	-0.754077	0.015719	99
Es	-1.978160	0.180844	0.589409	99
Es	0.301140	2.392265	0.002552	99
Es	0.517778	-2.341707	0.029925	99
Es	0.602277	-0.604896	0.005580	99
Es	0.145042	-1.868029	0.006204	99
Es	-0.444827	-1.994669	0.025907	99
Es	1.325671	-0.384401	0.321070	99
Es	-0.978844	0.540867	-0.002296	99
Es	0.174779	-1.784617	-0.156771	99
Es	0.166120	1.082235	0.314887	99
Es	-1.998314	1.228205	-0.000074	99
Es	0.332573	-1.338211	0.102842	99
Es	2.313936	1.333644	0.020566	99
44
Properties=species:S:1:pos:R:3:Z:I:1 energy=-645.4772635491416 field_type=dipole dipole="0.000000 0.000000 0.000000" charge=0
C	-1.728167	0.540759	-0.005681	6
C	-0.236027	0.552759	0.000999	6
C	0.530533	1.705128	0.004049	6
S	2.211073	1.389338	0.012429	16
C	1.941823	-0.298491	0.012359	6
C	0.602383	-0.604742	0.005579	6
N	0.144543	-1.869511	0.003969	7
H	-2.136927	1.556418	0.002789	1
H	-2.109897	0.016519	0.876299	1
H	-2.101397	0.034369	-0.901611	1
H	0.182283	2.728868	0.001889	1
H	2.782473	-0.976891	0.017349	1
H	-0.843137	-2.098442	-0.019761	1
H	0.760433	-2.676081	-0.010651	1
Es	1.941896	-0.298340	0.012353	99
Es	2.322893	1.512123	0.442134	99
Es	0.530717	1.705171	0.004054	99
Es	0.155421	-1.838389	-0.001738	99
Es	-1.978047	0.180829	0.589478	99
Es	-1.728112	0.540749	-0.005681	99
Es	1.329356	-0.384730	-0.303001	99
Es	2.168465	1.282582	0.007099	99
Es	0.341630	-1.314660	-0.004366	99
Es	0.522413	-2.344926	-0.008175	99
Es	-0.978929	0.540802	-0.002416	99
Es	2.208847	1.422168	0.121666	99
Es	1.326144	-0.384184	0.321685	99
Es	2.507450	-0.754155	0.015430	99
Es	2.326520	1.510715	-0.417128	99
Es	0.169015	1.081995	-0.309356	99
Es	1.340898	1.581295	0.008154	99
Es	2.324538	1.390553	-0.031029	99
Es	0.166104	1.082399	0.314486	99
Es	0.156470	-1.834778	0.035462	99
Es	-1.998302	1.228213	-0.000035	99
Es	2.139111	1.461109	-0.049000	99
Es	-0.450304	-1.994428	-0.013632	99
Es	-1.972498	0.192825	-0.610269	99
Es	2.211142	1.388383	0.013718	99
Es	0.141952	-0.063421	0.003001	99
Es	0.301034	2.392244	0.002597	99
Es	0.602278	-0.604895	0.005579	99
Es	-0.236067	0.552719	0.000998	99
Es	2.102555	0.507640	0.012890	99
44
Properties=species:S:1:pos:R:3:Z:I:1 energy=-645.4772635491416 field_type=dipole dipole="0.000000 0.000000 0.000000" charge=0
C	-1.728167	0.540759	-0.005681	6
C	-0.236027	0.552759	0.000999	6
C	0.530533	1.705128	0.004049	6
S	2.211073	1.389338	0.012429	16
C	1.941823	-0.298491	0.012359	6
C	0.602383	-0.604742	0.005579	6
N	0.144543	-1.869511	0.003969	7
H	-2.136927	1.556418	0.002789	1
H	-2.109897	0.016519	0.876299	1
H	-2.101397	0.034369	-0.901611	1
H	0.182283	2.728868	0.001889	1
H	2.782473	-0.976891	0.017349	1
H	-0.843137	-2.098442	-0.019761	1
H	0.760433	-2.676081	-0.010651	1
Es	-0.440876	-1.994106	-0.049640	99
Es	0.602279	-0.604895	0.005581	99
Es	2.223473	1.506573	0.036977	99
Es	-1.972441	0.192804	-0.610360	99
Es	2.286644	1.329527	0.073571	99
Es	2.098806	1.349579	0.037869	99
Es	0.176869	-1.772709	0.216317	99
Es	2.210989	1.389589	0.012495	99
Es	-1.998299	1.228195	-0.000028	99
Es	2.507327	-0.754325	0.015230	99
Es	1.326014	-0.384876	0.321401	99
Es	0.142510	-0.063406	0.003313	99
Es	1.328878	-0.383655	-0.302050	99
Es	-1.978152	0.180870	0.589377	99
Es	-0.978986	0.540921	-0.002406	99
Es	0.144741	-1.868954	0.002639	99
Es	0.515973	-2.338886	-0.043009	99
Es	0.166198	1.082334	0.314035	99
Es	-1.728112	0.540748	-0.005680	99
Es	1.340965	1.581460	0.006405	99
Es	2.232042	1.370018	-0.099028	99
Es	2.331938	1.513198	-0.415443	99
Es	-0.236063	0.552723	0.001003	99
Es	0.169192	1.081675	-0.308888	99
Es	2.102548	0.507859	0.011991	99
Es	2.318164	1.509062	0.443676	99
Es	1.941890	-0.298343	0.012356	99
Es	0.300798	2.392219	0.002615	99
Es	0.530714	1.705169	0.004051	99
Es	0.328566	-1.352760	-0.119405	99
44
Properties=species:S:1:pos:R:3:Z:I:1 energy=-645.4772635491416 field_type=dipole dipole="0.000000 0.000000 0.000000" charge=0
C	-1.728167	0.540759	-0.005681	6
C	-0.236027	0.552759	0.000999	6
C	0.530533	1.705128	0.004049	6
S	2.211073	1.389338	0.012429	16
C	1.941823	-0.298491	0.012359	6
C	0.602383	-0.604742	0.005579	6
N	0.144543	-1.869511	0.003969	7
H	-2.136927	1.556418	0.002789	1
H	-2.109897	0.016519	0.876299	1
H	-2.101397	0.034369	-0.901611	1
H	0.182283	2.728868	0.001889	1
H	2.782473	-0.976891	0.017349	1
H	-0.843137	-2.098442	-0.019761	1
H	0.760433	-2.676081	-0.010651	1
Es	2.211045	1.389375	0.012383	99
Es	0.602282	-0.604891	0.005580	99
Es	0.169404	1.081420	-0.308918	99
Es	2.324790	1.512698	0.441843	99
Es	2.256465	1.493462	0.020993	99
Es	0.144780	-1.868835	0.002715	99
Es	2.298188	1.313929	-0.005127	99
Es	-1.728116	0.540747	-0.005685	99
Es	0.515693	-2.338725	-0.043440	99
Es	0.530714	1.705167	0.004049	99
Es	0.142395	-0.063368	0.003144	99
Es	1.941904	-0.298331	0.012344	99
Es	0.166251	1.082177	0.313904	99
Es	1.341110	1.581335	0.008898	99
Es	2.325601	1.510790	-0.416579	99
Es	2.507344	-0.754364	0.015458	99
Es	0.300773	2.392144	0.002595	99
Es	-1.978107	0.180849	0.589393	99
Es	0.327929	-1.354785	-0.122220	99
Es	2.131659	1.384685	-0.079989	99
Es	-0.440435	-1.994084	-0.050437	99
Es	-1.998315	1.228206	-0.000011	99
Es	0.177331	-1.771059	0.220254	99
Es	-1.972452	0.192801	-0.610348	99
Es	-0.979054	0.541041	-0.002281	99
Es	2.102660	0.507748	0.012244	99
Es	-0.236060	0.552725	0.000991	99
Es	1.328640	-0.383509	-0.301930	99
Es	2.154396	1.363061	0.113864	99
Es	1.325771	-0.384803	0.321271	99
44
Properties=species:S:1:pos:R:3:Z:I:1 energy=-645.4772635491416 field_type=dipole dipole="0.000000 0.000000 0.000000" charge=0
C	-1.728167	0.540759	-0.005681	6
C	-0.236027	0.552759	0.000999	6
C	0.530533	1.705128	0.004049	6
S	2.211073	1.389338	0.012429	16
C	1.941823	-0.298491	0.012359	6
C	0.602383	-0.604742	0.005579	6
N	0.144543	-1.869511	0.003969	7
H	-2.136927	1.556418	0.002789	1
H	-2.109897	0.016519	0.876299	1
H	-2.101397	0.034369	-0.901611	1
H	0.182283	2.728868	0.001889	1
H	2.782473	-0.976891	0.017349	1
H	-0.843137	-2.098442	-0.019761	1
H	0.760433	-2.676081	-0.010651	1
Es	2.283562	1.451848	0.079583	99
Es	2.248558	1.276370	0.008166	99
Es	0.169534	1.081319	-0.308594	99
Es	2.507270	-0.754421	0.015628	99
Es	2.327473	1.511557	-0.415422	99
Es	-0.979135	0.541004	-0.002268	99
Es	1.324524	-0.384181	0.320211	99
Es	0.333091	-1.336976	0.099076	99
Es	1.341207	1.581330	0.007916	99
Es	0.517996	-2.341832	0.028430	99
Es	0.142277	-0.063231	0.003324	99
Es	-0.236069	0.552720	0.001002	99
Es	0.300633	2.392144	0.002630	99
Es	1.941892	-0.298341	0.012370	99
Es	-0.445261	-1.994710	0.023405	99
Es	-1.978162	0.180796	0.589407	99
Es	0.602277	-0.604895	0.005579	99
Es	-1.972381	0.192839	-0.610278	99
Es	1.329237	-0.384180	-0.302798	99
Es	2.207710	1.433094	-0.096820	99
Es	2.102752	0.507831	0.012964	99
Es	0.166442	1.082102	0.313522	99
Es	2.323561	1.512405	0.442172	99
Es	2.211074	1.389338	0.012415	99
Es	2.100530	1.393455	0.057772	99
Es	0.173149	-1.790348	-0.149387	99
Es	-1.728116	0.540748	-0.005680	99
Es	-1.998332	1.228247	-0.000079	99
Es	0.146583	-1.863591	0.006666	99
Es	0.530714	1.705169	0.004049	99
44
Properties=species:S:1:pos:R:3:Z:I:1 energy=-645.4772635491416 field_type=dipole dipole="0.000000 0.000000 0.000000" charge=0
C	-1.728167	0.540759	-0.005681	6
C	-0.236027	0.552759	0.000999	6
C	0.530533	1.705128	0.004049	6
S	2.211073	1.389338	0.012429	16
C	1.941823	-0.298491	0.012359	6
C	0.602383	-0.604742	0.005579	6
N	0.144543	-1.869511	0.003969	7
H	-2.136927	1.556418	0.002789	1
H	-2.109897	0.016519	0.876299	1
H	-2.101397	0.034369	-0.901611	1
H	0.182283	2.728868	0.001889	1
H	2.782473	-0.976891	0.017349	1
H	-0.843137	-2.098442	-0.019761	1
H	0.760433	-2.676081	-0.010651	1
Es	2.240673	1.484346	0.076766	99
Es	-0.236063	0.552722	0.001001	99
Es	-1.978161	0.180836	0.589429	99
Es	2.327088	1.511519	-0.416500	99
Es	0.166629	1.081828	0.313334	99
Es	1.941894	-0.298340	0.012382	99
Es	1.328517	-0.383869	-0.302363	99
Es	2.211054	1.389268	0.012474	99
Es	1.341377	1.581175	0.008627	99
Es	0.602278	-0.604895	0.005577	99
Es	0.141920	-0.063192	0.003176	99
Es	0.155683	-1.837655	0.000553	99
Es	-1.728114	0.540748	-0.005681	99
Es	0.522438	-2.344898	-0.007685	99
Es	0.156311	-1.835442	0.036263	99
Es	2.307137	1.322859	-0.010373	99
Es	-0.450371	-1.994397	-0.014372	99
Es	0.300496	2.392090	0.002625	99
Es	-1.972413	0.192823	-0.610271	99
Es	0.530715	1.705169	0.004054	99
Es	0.341847	-1.314981	-0.007235	99
Es	1.324751	-0.384446	0.320596	99
Es	2.102828	0.507957	0.013208	99
Es	0.169612	1.081311	-0.308301	99
Es	2.507230	-0.754495	0.015594	99
Es	2.128609	1.326229	0.069392	99
Es	2.324328	1.512362	0.441570	99
Es	2.163788	1.421695	-0.086448	99
Es	-1.998331	1.228201	-0.000096	99
Es	-0.979163	0.541080	-0.002337	99
44
Properties=species:S:1:pos:R:3:Z:I:1 energy=-645.4772635491416 field_type=dipole dipole="0.000000 0.000000 0.000000" charge=0
C	-1.728167	0.540759	-0.005681	6
C	-0.236027	0.552759	0.000999	6
C	0.530533	1.705128	0.004049	6
S	2.211073	1.389338	0.012429	16
C	1.941823	-0.298491	0.012359	6
C	0.602383	-0.604742	0.005579	6
N	0.144543	-1.869511	0.003969	7
H	-2.136927	1.556418	0.002789	1
H	-2.109897	0.016519	0.876299	1
H	-2.101397	0.034369	-0.901611	1
H	0.182283	2.728868	0.001889	1
H	2.782473	-0.976891	0.017349	1
H	-0.843137	-2.098442	-0.019761	1
H	0.760433	-2.676081	-0.010651	1
Es	-1.972408	0.192906	-0.610281	99
Es	-1.998316	1.228218	-0.000053	99
Es	2.236578	1.478991	-0.059324	99
Es	1.325290	-0.384157	0.320752	99
Es	0.300323	2.392091	0.002704	99
Es	0.166777	1.081574	0.313007	99
Es	-1.728112	0.540746	-0.005677	99
Es	0.142618	-0.063034	0.003149	99
Es	0.177917	-1.769929	0.226308	99
Es	-1.978139	0.180727	0.589472	99
Es	2.209049	1.424236	0.126252	99
Es	0.515013	-2.338156	-0.045251	99
Es	-0.979300	0.541117	-0.002492	99
Es	2.104101	1.344905	-0.015597	99
Es	2.331757	1.516488	0.439290	99
Es	0.530717	1.705171	0.004049	99
Es	1.341377	1.581351	0.011078	99
Es	2.507173	-0.754549	0.015295	99
Es	2.319785	1.507528	-0.418125	99
Es	2.211427	1.388165	0.011243	99
Es	2.290364	1.307983	0.000072	99
Es	1.941894	-0.298335	0.012355	99
Es	2.102893	0.507909	0.013656	99
Es	0.602278	-0.604899	0.005587	99
Es	1.327451	-0.383851	-0.301187	99
Es	0.327206	-1.357284	-0.125143	99
Es	-0.439728	-1.993840	-0.051828	99
Es	-0.236060	0.552726	0.001006	99
Es	0.144933	-1.868400	0.002663	99
Es	0.169732	1.081210	-0.308021	99
44
Properties=species:S:1:pos:R:3:Z:I:1 energy=-645.4772635491416 field_type=dipole dipole="0.000000 0.000000 0.000000" charge=0
C	-1.728167	0.540759	-0.005681	6
C	-0.236027	0.552759	0.000999	6
C	0.530533	1.705128	0.004049	6
S	2.211073	1.389338	0.012429	16
C	1.941823	-0.298491	0.012359	6
C	0.602383	-0.604742	0.005579	6
N	0.144543	-1.869511	0.003969	7
H	-2.136927	1.556418	0.002789	1
H	-2.109897	0.016519	0.876299	1
H	-2.101397	0.034369	-0.901611	1
H	0.182283	2.728868	0.001889	1
H	2.782473	-0.976891	0.017349	1
H	-0.843137	-2.098442	-0.019761	1
H	0.760433	-2.676081	-0.010651	1
Es	0.141942	-0.062992	0.003303	99
Es	-1.972400	0.192795	-0.610298	99
Es	2.223942	1.378061	0.124848	99
Es	0.169931	1.080821	-0.307942	99
Es	2.097758	1.353849	-0.016909	99
Es	0.300349	2.392075	0.002600	99
Es	1.324264	-0.384390	0.320115	99
Es	2.320839	1.507509	-0.417985	99
Es	2.290820	1.322039	-0.041837	99
Es	0.602280	-0.604895	0.005583	99
Es	2.102857	0.508085	0.014218	99
Es	1.941894	-0.298340	0.012364	99
Es	2.228459	1.500336	-0.017223	99
Es	-0.450322	-1.994380	-0.014125	99
Es	-0.979289	0.541165	-0.002260	99
Es	0.156303	-1.835378	0.035212	99
Es	0.341906	-1.314915	-0.006248	99
Es	1.341517	1.581179	0.010271	99
Es	-1.998357	1.228166	-0.000099	99
Es	2.507129	-0.754635	0.015527	99
Es	1.327924	-0.383650	-0.302002	99
Es	0.530714	1.705168	0.004053	99
Es	-1.728113	0.540748	-0.005682	99
Es	-0.236065	0.552722	0.000995	99
Es	0.155661	-1.837839	0.000909	99
Es	2.210280	1.390529	0.013701	99
Es	0.166830	1.081760	0.312865	99
Es	-1.978168	0.180863	0.589415	99
Es	2.331248	1.516099	0.439807	99
Es	0.522453	-2.344946	-0.008215	99
44
Properties=species:S:1:pos:R:3:Z:I:1 energy=-645.4772635491416 field_type=dipole dipole="0.000000 0.000000 0.000000" charge=0
C	-1.728167	0.540759	-0.005681	6
C	-0.236027	0.552759	0.000999	6
C	0.530533	1.705128	0.004049	6
S	2.211073	1.389338	0.012429	16
C	1.941823	-0.298491	0.012359	6
C	0.602383	-0.604742	0.005579	6
N	0.144543	-1.869511	0.003969	7
H	-2.136927	1.556418	0.002789	1
H	-2.109897	0.016519	0.876299	1
H	-2.101397	0.034369	-0.901611	1
H	0.182283	2.728868	0.001889	1
H	2.782473	-0.976891	0.017349	1
H	-0.843137	-2.098442	-0.019761	1
H	0.760433	-2.676081	-0.010651	1
Es	0.169992	1.080781	-0.307620	99
Es	1.327630	-0.383460	-0.301745	99
Es	0.155072	-1.839510	0.001358	99
Es	2.302973	1.324226	-0.027898	99
Es	1.941894	-0.298341	0.012342	99
Es	2.102919	0.508060	0.013941	99
Es	2.327797	1.514191	0.440013	99
Es	2.507106	-0.754803	0.015561	99
Es	0.522425	-2.344870	-0.009829	99
Es	0.141987	-0.062927	0.003106	99
Es	2.221164	1.497457	-0.025885	99
Es	0.167062	1.081456	0.312705	99
Es	1.341595	1.581241	0.009184	99
Es	-1.972375	0.192731	-0.610306	99
Es	0.602279	-0.604895	0.005580	99
Es	1.324007	-0.384193	0.319930	99
Es	2.105604	1.343114	-0.024696	99
Es	-0.979422	0.541118	-0.002230	99
Es	-1.728114	0.540747	-0.005683	99
Es	0.156962	-1.833611	0.040956	99
Es	-0.236065	0.552721	0.001003	99
Es	2.210982	1.389200	0.012478	99
Es	2.210167	1.390737	0.128932	99
Es	-1.978163	0.180909	0.589438	99
Es	-1.998316	1.228237	-0.000149	99
Es	0.341822	-1.315188	-0.009672	99
Es	2.324932	1.509614	-0.417273	99
Es	-0.450198	-1.994344	-0.015328	99
Es	0.300158	2.392047	0.002687	99
Es	0.530714	1.705165	0.004059	99
44
Properties=species:S:1:pos:R:3:Z:I:1 energy=-645.4772635491416 field_type=dipole dipole="0.000000 0.000000 0.000000" charge=0
C	-1.728167	0.540759	-0.005681	6
C	-0.236027	0.552759	0.000999	6
C	0.530533	1.705128	0.004049	6
S	2.211073	1.389338	0.012429	16
C	1.941823	-0.298491	0.012359	6
C	0.602383	-0.604742	0.005579	6
N	0.144543	-1.869511	0.003969	7
H	-2.136927	1.556418	0.002789	1
H	-2.109897	0.016519	0.876299	1
H	-2.101397	0.034369	-0.901611	1
H	0.182283	2.728868	0.001889	1
H	2.782473	-0.976891	0.017349	1
H	-0.843137	-2.098442	-0.019761	1
H	0.760433	-2.676081	-0.010651	1
Es	1.326679	-0.383745	-0.300580	99
Es	-0.439086	-1.993866	-0.052836	99
Es	2.330467	1.515920	0.439155	99
Es	0.300104	2.392030	0.002555	99
Es	2.209543	1.388450	0.013198	99
Es	0.145077	-1.867981	0.002923	99
Es	2.507030	-0.754786	0.015302	99
Es	2.289334	1.301701	-0.014881	99
Es	-0.979399	0.541243	-0.002256	99
Es	1.341593	1.581200	0.010379	99
Es	1.941884	-0.298344	0.012387	99
Es	0.167184	1.081149	0.312489	99
Es	-1.972378	0.192834	-0.610373	99
Es	0.326341	-1.359623	-0.127936	99
Es	2.238660	1.443155	0.115964	99
Es	2.115201	1.343819	0.025177	99
Es	0.178478	-1.768630	0.231076	99
Es	0.514606	-2.337629	-0.046527	99
Es	-1.998361	1.228206	-0.000004	99
Es	0.142638	-0.062694	0.003206	99
Es	0.530713	1.705167	0.004049	99
Es	2.197979	1.466961	-0.076834	99
Es	1.324635	-0.384006	0.319958	99
Es	2.322605	1.508653	-0.417174	99
Es	-1.978182	0.180806	0.589318	99
Es	0.602280	-0.604894	0.005587	99
Es	-0.236063	0.552725	0.000999	99
Es	0.170094	1.080890	-0.307401	99
Es	-1.728115	0.540748	-0.005681	99
Es	2.103047	0.508149	0.013724	99
44
Properties=species:S:1:pos:R:3:Z:I:1 energy=-645.4772635491416 field_type=dipole dipole="0.000000 0.000000 0.000000" charge=0
C	-1.728167	0.540759	-0.005681	6
C	-0.236027	0.552759	0.000999	6
C	0.530533	1.705128	0.004049	6
S	2.211073	1.389338	0.012429	16
C	1.941823	-0.298491	0.012359	6
C	0.602383	-0.604742	0.005579	6
N	0.144543	-1.869511	0.003969	7
H	-2.136927	1.556418	0.002789	1
H	-2.109897	0.016519	0.876299	1
H	-2.101397	0.034369	-0.901611	1
H	0.182283	2.728868	0.001889	1
H	2.782473	-0.976891	0.017349	1
H	-0.843137	-2.098442	-0.019761	1
H	0.760433	-2.676081	-0.010651	1
Es	2.326108	1.510053	-0.415946	99
Es	0.514114	-2.337178	-0.047617	99
Es	-0.438600	-1.993802	-0.053614	99
Es	2.506981	-0.754851	0.015465	99
Es	0.142762	-0.062683	0.002818	99
Es	0.169903	1.081289	-0.306865	99
Es	2.190542	1.480791	0.084271	99
Es	-1.978205	0.180831	0.589396	99
Es	-0.979437	0.541264	-0.002280	99
Es	2.103103	0.508179	0.013294	99
Es	2.211062	1.389338	0.012422	99
Es	-1.972362	0.192807	-0.610273	99
Es	2.327998	1.514349	0.439938	99
Es	1.326713	-0.383264	-0.300359	99
Es	1.341712	1.581141	0.008790	99
Es	0.530703	1.705168	0.004044	99
Es	2.123851	1.382904	-0.068744	99
Es	0.325561	-1.362133	-0.130881	99
Es	1.324103	-0.384303	0.319791	99
Es	2.210367	1.289223	0.075075	99
Es	-1.728114	0.540749	-0.005680	99
Es	0.167546	1.080655	0.312389	99
Es	0.179338	-1.766518	0.236169	99
Es	1.941888	-0.298341	0.012353	99
Es	0.300001	2.392032	0.002594	99
Es	-0.236068	0.552724	0.001000	99
Es	2.314093	1.402035	-0.040666	99
Es	0.145024	-1.868155	0.002619	99
Es	-1.998373	1.228202	-0.000123	99
Es	0.602278	-0.604897	0.005581	99
44
Properties=species:S:1:pos:R:3:Z:I:1 energy=-645.4772635491416 field_type=dipole dipole="0.000000 0.000000 0.000000" charge=0
C	-1.728167	0.540759	-0.005681	6
C	-0.236027	0.552759	0.000999	6
C	0.530533	1.705128	0.004049	6
S	2.211073	1.389338	0.012429	16
C	1.941823	-0.298491	0.012359	6
C	0.602383	-0.604742	0.005579	6
N	0.144543	-1.869511	0.003969	7
H	-2.136927	1.556418	0.002789	1
H	-2.109897	0.016519	0.876299	1
H	-2.101397	0.034369	-0.901611	1
H	0.182283	2.728868	0.001889	1
H	2.782473	-0.976891	0.017349	1
H	-0.843137	-2.098442	-0.019761	1
H	0.760433	-2.676081	-0.010651	1
Es	-1.728114	0.540748	-0.005680	99
Es	-1.998366	1.228215	-0.000140	99
Es	0.299931	2.391992	0.002587	99
Es	2.330442	1.512424	-0.413311	99
Es	2.182783	1.387086	-0.104583	99
Es	0.170293	1.080585	-0.306784	99
Es	0.602278	-0.604894	0.005582	99
Es	2.506944	-0.754890	0.015303	99
Es	0.324366	-1.365679	-0.135748	99
Es	2.323786	1.512626	0.441450	99
Es	0.142864	-0.062638	0.003424	99
Es	1.941891	-0.298342	0.012333	99
Es	2.263274	1.488413	0.039580	99
Es	0.530715	1.705168	0.004050	99
Es	1.341736	1.581124	0.007101	99
Es	-0.979584	0.541324	-0.002386	99
Es	-0.437991	-1.993898	-0.054720	99
Es	0.513897	-2.337044	-0.047807	99
Es	-1.978175	0.180888	0.589405	99
Es	0.144617	-1.869298	0.003188	99
Es	-1.972345	0.192719	-0.610328	99
Es	0.167331	1.081045	0.312056	99
Es	2.211050	1.389326	0.012485	99
Es	2.282096	1.296465	0.042076	99
Es	-0.236063	0.552720	0.000990	99
Es	2.110627	1.382603	0.071292	99
Es	1.323840	-0.384575	0.319576	99
Es	0.180538	-1.761917	0.241721	99
Es	1.326657	-0.382828	-0.300290	99
Es	2.103272	0.508139	0.012538	99
44
Properties=species:S:1:pos:R:3:Z:I:1 energy=-645.4772635491416 field_type=dipole dipole="0.000000 0.000000 0.000000" charge=0
C	-1.728167	0.540759	-0.005681	6
C	-0.236027	0.552759	0.000999	6
C	0.530533	1.705128	0.004049	6
S	2.211073	1.389338	0.012429	16
C	1.941823	-0.298491	0.012359	6
C	0.602383	-0.604742	0.005579	6
N	0.144543	-1.869511	0.003969	7
H	-2.136927	1.556418	0.002789	1
H	-2.109897	0.016519	0.876299	1
H	-2.101397	0.034369	-0.901611	1
H	0.182283	2.728868	0.001889	1
H	2.782473	-0.976891	0.017349	1
H	-0.843137	-2.098442	-0.019761	1
H	0.760433	-2.676081	-0.010651	1
Es	0.142802	-0.062489	0.003519	99
Es	2.129310	1.433598	0.082132	99
Es	-1.972396	0.192664	-0.610204	99
Es	0.167389	1.081174	0.311690	99
Es	-0.438434	-1.993852	-0.053631	99
Es	0.299801	2.391961	0.002685	99
Es	2.103336	0.508191	0.014235	99
Es	0.324986	-1.363752	-0.132986	99
Es	2.321705	1.507515	-0.415295	99
Es	2.211954	1.388424	0.011863	99
Es	0.144985	-1.868260	0.002778	99
Es	1.941899	-0.298334	0.012364	99
Es	-0.236063	0.552724	0.000996	99
Es	0.602278	-0.604894	0.005580	99
Es	0.180120	-1.765051	0.238707	99
Es	2.208113	1.276514	0.025839	99
Es	-0.979649	0.541309	-0.002427	99
Es	0.170564	1.080263	-0.306688	99