44
Properties=species:S:1:pos:R:3:Z:I:1 energy=-645.4805250291728 field_type=dipole dipole="0.000000 0.000000 0.000000" charge=0
C	-1.548138	0.684481	-0.003386	6
C	-0.059088	0.687801	0.003444	6
C	0.730402	1.824451	0.012754	6
S	2.375202	1.370421	0.017724	16
N	2.100182	-0.258829	0.008094	7
C	0.785302	-0.483639	0.001244	6
C	0.333632	-1.903538	-0.008316	6
H	-1.949868	1.703001	0.002854	1
H	-1.933038	0.164931	0.879894	1
H	-1.924748	0.178881	-0.898246	1
H	0.431732	2.862861	0.016694	1
H	-0.757698	-1.985368	-0.003316	1
H	0.712542	-2.430408	0.873704	1
H	0.703582	-2.415049	-0.903136	1
Es	1.512094	1.649959	0.013103	99
Es	-1.811932	1.376201	0.000812	99
Es	0.589529	-2.244283	0.582955	99
Es	0.544346	-1.183485	-0.003412	99
Es	1.541955	-0.290036	0.279164	99
Es	0.537104	2.516961	0.015495	99
Es	0.583563	-2.233834	-0.608022	99
Es	-1.792960	0.340623	-0.606621	99
Es	-0.408357	-1.948393	-0.004959	99
Es	0.324078	0.079105	0.002400	99
Es	0.730569	1.824488	0.012754	99
Es	-1.798595	0.331160	0.592163	99
Es	2.304146	1.325788	0.105532	99
Es	0.785343	-0.483655	0.001256	99
Es	2.389111	-0.475833	0.008653	99
Es	-1.548074	0.684480	-0.003386	99
Es	2.479305	1.470406	0.451311	99
Es	2.434548	1.459701	0.056636	99
Es	2.307903	1.407349	-0.069846	99
Es	2.375500	1.370287	0.017044	99
Es	2.191506	0.433455	0.011549	99
Es	0.351121	1.178829	0.315435	99
Es	2.451151	1.287630	-0.020744	99
Es	2.490732	1.477915	-0.411387	99
Es	1.544510	-0.287517	-0.268490	99
Es	2.099780	-0.258439	0.008092	99
Es	0.354002	1.181586	-0.299976	99
Es	-0.796827	0.682471	0.000068	99
Es	0.333630	-1.903476	-0.008316	99
Es	-0.059118	0.687778	0.003446	99
44
Properties=species:S:1:pos:R:3:Z:I:1 energy=-645.4805250291728 field_type=dipole dipole="0.000000 0.000000 0.000000" charge=0
C	-1.548138	0.684481	-0.003386	6
C	-0.059088	0.687801	0.003444	6
C	0.730402	1.824451	0.012754	6
S	2.375202	1.370421	0.017724	16
N	2.100182	-0.258829	0.008094	7
C	0.785302	-0.483639	0.001244	6
C	0.333632	-1.903538	-0.008316	6
H	-1.949868	1.703001	0.002854	1
H	-1.933038	0.164931	0.879894	1
H	-1.924748	0.178881	-0.898246	1
H	0.431732	2.862861	0.016694	1
H	-0.757698	-1.985368	-0.003316	1
H	0.712542	-2.430408	0.873704	1
H	0.703582	-2.415049	-0.903136	1
Es	-0.796906	0.682465	0.000227	99
Es	2.275479	1.382715	-0.045645	99
Es	-1.548077	0.684481	-0.003386	99
Es	0.785344	-0.483655	0.001241	99
Es	1.544233	-0.286808	-0.268028	99
Es	-1.811917	1.376234	0.000881	99
Es	2.192291	0.433546	0.012450	99
Es	0.354110	1.181002	-0.299677	99
Es	-1.792984	0.340619	-0.606661	99
Es	1.541350	-0.290198	0.278765	99
Es	0.544408	-1.183603	-0.003378	99
Es	0.536972	2.516961	0.015474	99
Es	2.390535	1.255967	0.043210	99
Es	-0.408328	-1.948312	-0.004959	99
Es	1.512192	1.649912	0.016236	99
Es	2.483959	1.475901	-0.412913	99
Es	0.589463	-2.244351	0.582931	99
Es	0.324186	0.079207	0.001939	99
Es	2.375257	1.370422	0.017759	99
Es	0.730570	1.824489	0.012755	99
Es	0.351243	1.178817	0.315172	99
Es	-1.798569	0.331161	0.592106	99
Es	2.486954	1.473897	0.449093	99
Es	2.099786	-0.258429	0.008095	99
Es	2.466460	1.408317	-0.044940	99
Es	0.583509	-2.233874	-0.608026	99
Es	2.388434	-0.476297	0.008581	99
Es	-0.059114	0.687783	0.003433	99
Es	2.365193	1.432326	0.118292	99
Es	0.333630	-1.903475	-0.008316	99
44
Properties=species:S:1:pos:R:3:Z:I:1 energy=-645.4805250291728 field_type=dipole dipole="0.000000 0.000000 0.000000" charge=0
C	-1.548138	0.684481	-0.003386	6
C	-0.059088	0.687801	0.003444	6
C	0.730402	1.824451	0.012754	6
S	2.375202	1.370421	0.017724	16
N	2.100182	-0.258829	0.008094	7
C	0.785302	-0.483639	0.001244	6
C	0.333632	-1.903538	-0.008316	6
H	-1.949868	1.703001	0.002854	1
H	-1.933038	0.164931	0.879894	1
H	-1.924748	0.178881	-0.898246	1
H	0.431732	2.862861	0.016694	1
H	-0.757698	-1.985368	-0.003316	1
H	0.712542	-2.430408	0.873704	1
H	0.703582	-2.415049	-0.903136	1
Es	2.407854	1.466827	0.077743	99
Es	0.589487	-2.244380	0.582884	99
Es	0.730569	1.824487	0.012750	99
Es	0.583553	-2.233800	-0.608091	99
Es	2.397301	1.384519	-0.096432	99
Es	-1.798662	0.331127	0.592082	99
Es	0.351349	1.177870	0.315083	99
Es	-1.811970	1.376262	0.000791	99
Es	2.388295	-0.475885	0.008930	99
Es	0.324144	0.079315	0.002089	99
Es	1.544124	-0.287276	-0.268207	99
Es	-1.548073	0.684479	-0.003385	99
Es	-0.408342	-1.948347	-0.004946	99
Es	1.512408	1.649841	0.013553	99
Es	0.333630	-1.903474	-0.008315	99
Es	2.099775	-0.258431	0.008093	99
Es	2.192357	0.433504	0.011857	99
Es	-1.792856	0.340626	-0.606619	99
Es	2.373985	1.370016	0.017697	99
Es	0.354146	1.180996	-0.299364	99
Es	2.491360	1.478377	-0.411375	99
Es	2.260802	1.354942	0.030748	99
Es	0.536844	2.516937	0.015435	99
Es	0.544388	-1.183705	-0.003291	99
Es	0.785347	-0.483653	0.001274	99
Es	1.541160	-0.289897	0.278788	99
Es	-0.059115	0.687782	0.003443	99
Es	2.479506	1.471374	0.450559	99
Es	2.433259	1.274290	0.058807	99
Es	-0.796964	0.682498	0.000129	99
44
Properties=species:S:1:pos:R:3:Z:I:1 energy=-645.4805250291728 field_type=dipole dipole="0.000000 0.000000 0.000000" charge=0
C	-1.548138	0.684481	-0.003386	6
C	-0.059088	0.687801	0.003444	6
C	0.730402	1.824451	0.012754	6
S	2.375202	1.370421	0.017724	16
N	2.100182	-0.258829	0.008094	7
C	0.785302	-0.483639	0.001244	6
C	0.333632	-1.903538	-0.008316	6
H	-1.949868	1.703001	0.002854	1
H	-1.933038	0.164931	0.879894	1
H	-1.924748	0.178881	-0.898246	1
H	0.431732	2.862861	0.016694	1
H	-0.757698	-1.985368	-0.003316	1
H	0.712542	-2.430408	0.873704	1
H	0.703582	-2.415049	-0.903136	1
Es	2.355204	1.485016	0.004099	99
Es	2.277938	1.311311	-0.010068	99
Es	-0.059122	0.687778	0.003456	99
Es	-1.793016	0.340598	-0.606592	99
Es	0.324220	0.079345	0.002055	99
Es	0.333630	-1.903474	-0.008314	99
Es	0.351627	1.177535	0.314579	99
Es	2.492634	1.475849	0.448084	99
Es	2.193083	0.433723	0.012747	99
Es	2.387656	-0.476597	0.008472	99
Es	0.730570	1.824490	0.012756	99
Es	-0.797039	0.682550	0.000079	99
Es	2.400572	1.348065	0.130935	99
Es	2.463657	1.336220	-0.053972	99
Es	2.099782	-0.258431	0.008095	99
Es	2.479627	1.473539	-0.413424	99
Es	-1.798575	0.331205	0.592137	99
Es	0.589518	-2.244334	0.582954	99
Es	0.583528	-2.233857	-0.608085	99
Es	0.354268	1.180996	-0.299072	99
Es	0.536688	2.516952	0.015432	99
Es	2.375190	1.370402	0.017764	99
Es	0.544373	-1.183790	-0.003392	99
Es	0.785346	-0.483653	0.001238	99
Es	1.540864	-0.289482	0.278420	99
Es	-1.811918	1.376232	0.000823	99
Es	-0.408305	-1.948346	-0.004925	99
Es	1.512443	1.649850	0.017256	99
Es	1.543297	-0.286953	-0.267436	99
Es	-1.548078	0.684480	-0.003389	99
44
Properties=species:S:1:pos:R:3:Z:I:1 energy=-645.4805250291728 field_type=dipole dipole="0.000000 0.000000 0.000000" charge=0
C	-1.548138	0.684481	-0.003386	6
C	-0.059088	0.687801	0.003444	6
C	0.730402	1.824451	0.012754	6
S	2.375202	1.370421	0.017724	16
N	2.100182	-0.258829	0.008094	7
C	0.785302	-0.483639	0.001244	6
C	0.333632	-1.903538	-0.008316	6
H	-1.949868	1.703001	0.002854	1
H	-1.933038	0.164931	0.879894	1
H	-1.924748	0.178881	-0.898246	1
H	0.431732	2.862861	0.016694	1
H	-0.757698	-1.985368	-0.003316	1
H	0.712542	-2.430408	0.873704	1
H	0.703582	-2.415049	-0.903136	1
Es	2.472758	1.468605	0.451242	99
Es	0.544403	-1.183847	-0.003408	99
Es	0.583529	-2.233775	-0.608011	99
Es	-0.408361	-1.948396	-0.004971	99
Es	0.785344	-0.483654	0.001239	99
Es	1.512809	1.649668	0.011886	99
Es	0.333629	-1.903475	-0.008316	99
Es	0.536540	2.516902	0.015342	99
Es	2.407116	1.418260	0.118594	99
Es	2.387727	-0.476381	0.008540	99
Es	-0.059114	0.687783	0.003449	99
Es	2.389003	1.448174	-0.068604	99
Es	0.589577	-2.244383	0.582939	99
Es	2.192923	0.433790	0.011140	99
Es	-1.548074	0.684480	-0.003386	99
Es	0.351827	1.177004	0.314689	99
Es	2.375217	1.370333	0.017721	99
Es	-1.798608	0.331216	0.592052	99
Es	2.441411	1.272683	-0.004016	99
Es	2.099785	-0.258429	0.008094	99
Es	-1.811882	1.376229	0.000907	99
Es	0.354311	1.180889	-0.298626	99
Es	-1.793029	0.340613	-0.606692	99
Es	1.540574	-0.289403	0.278316	99
Es	1.543171	-0.287318	-0.267102	99
Es	2.259940	1.340792	0.024829	99
Es	2.499446	1.482331	-0.409637	99
Es	-0.797106	0.682463	0.000132	99
Es	0.730569	1.824487	0.012755	99
Es	0.324229	0.079581	0.001614	99
44
Properties=species:S:1:pos:R:3:Z:I:1 energy=-645.4805250291728 field_type=dipole dipole="0.000000 0.000000 0.000000" charge=0
C	-1.548138	0.684481	-0.003386	6
C	-0.059088	0.687801	0.003444	6
C	0.730402	1.824451	0.012754	6
S	2.375202	1.370421	0.017724	16
N	2.100182	-0.258829	0.008094	7
C	0.785302	-0.483639	0.001244	6
C	0.333632	-1.903538	-0.008316	6
H	-1.949868	1.703001	0.002854	1
H	-1.933038	0.164931	0.879894	1
H	-1.924748	0.178881	-0.898246	1
H	0.431732	2.862861	0.016694	1
H	-0.757698	-1.985368	-0.003316	1
H	0.712542	-2.430408	0.873704	1
H	0.703582	-2.415049	-0.903136	1
Es	0.351807	1.177129	0.314153	99
Es	0.536511	2.516940	0.015449	99
Es	-0.059117	0.687782	0.003445	99
Es	2.375256	1.370536	0.017765	99
Es	0.354556	1.180247	-0.298732	99
Es	0.324309	0.079600	0.002113	99
Es	-1.811920	1.376248	0.000815	99
Es	2.487703	1.477327	-0.411952	99
Es	-1.798609	0.331167	0.592125	99
Es	1.542764	-0.286644	-0.266885	99
Es	-1.548079	0.684481	-0.003384	99
Es	-0.408332	-1.948267	-0.004735	99
Es	0.730569	1.824485	0.012752	99
Es	2.099805	-0.258448	0.008095	99
Es	2.485781	1.473377	0.448905	99
Es	2.262516	1.372759	-0.032948	99
Es	1.540311	-0.289771	0.278058	99
Es	0.333629	-1.903477	-0.008317	99
Es	0.544477	-1.183884	-0.003554	99
Es	2.446346	1.290516	-0.035101	99
Es	2.193227	0.433982	0.012283	99
Es	0.583374	-2.234018	-0.608070	99
Es	-1.792995	0.340634	-0.606569	99
Es	2.364506	1.343571	0.128575	99
Es	2.423454	1.473157	0.010736	99
Es	0.589594	-2.244263	0.582899	99
Es	0.785344	-0.483655	0.001232	99
Es	2.387373	-0.476570	0.008035	99
Es	1.512679	1.649749	0.015380	99
Es	-0.797175	0.682529	0.000143	99
44
Properties=species:S:1:pos:R:3:Z:I:1 energy=-645.4805250291728 field_type=dipole dipole="0.000000 0.000000 0.000000" charge=0
C	-1.548138	0.684481	-0.003386	6
C	-0.059088	0.687801	0.003444	6
C	0.730402	1.824451	0.012754	6
S	2.375202	1.370421	0.017724	16
N	2.100182	-0.258829	0.008094	7
C	0.785302	-0.483639	0.001244	6
C	0.333632	-1.903538	-0.008316	6
H	-1.949868	1.703001	0.002854	1
H	-1.933038	0.164931	0.879894	1
H	-1.924748	0.178881	-0.898246	1
H	0.431732	2.862861	0.016694	1
H	-0.757698	-1.985368	-0.003316	1
H	0.712542	-2.430408	0.873704	1
H	0.703582	-2.415049	-0.903136	1
Es	0.544369	-1.184061	-0.003386	99
Es	2.366327	1.442226	0.111908	99
Es	-1.798635	0.331177	0.592125	99
Es	0.583450	-2.233774	-0.608152	99
Es	0.785342	-0.483656	0.001235	99
Es	-0.797290	0.682621	0.000091	99
Es	2.286416	1.392873	-0.053853	99
Es	0.351918	1.176914	0.313805	99
Es	2.485949	1.473720	0.448864	99
Es	2.487712	1.477689	-0.411772	99
Es	-0.408292	-1.948339	-0.004859	99
Es	0.324362	0.079700	0.002160	99
Es	0.354682	1.179882	-0.298363	99
Es	-1.792947	0.340612	-0.606611	99
Es	2.367449	1.256574	0.052623	99
Es	2.193400	0.434160	0.011588	99
Es	0.589637	-2.244419	0.582947	99
Es	-1.811937	1.376218	0.000793	99
Es	1.542641	-0.286675	-0.266662	99
Es	2.477235	1.388132	-0.039234	99
Es	2.099769	-0.258430	0.008094	99
Es	2.374917	1.370370	0.017462	99
Es	0.730566	1.824485	0.012753	99
Es	0.536347	2.516929	0.015519	99
Es	-1.548078	0.684479	-0.003383	99
Es	0.333629	-1.903477	-0.008316	99
Es	1.539869	-0.289724	0.277896	99
Es	1.512892	1.649667	0.015677	99
Es	2.387074	-0.476435	0.008312	99
Es	-0.059113	0.687783	0.003449	99
44
Properties=species:S:1:pos:R:3:Z:I:1 energy=-645.4805250291728 field_type=dipole dipole="0.000000 0.000000 0.000000" charge=0
C	-1.548138	0.684481	-0.003386	6
C	-0.059088	0.687801	0.003444	6
C	0.730402	1.824451	0.012754	6
S	2.375202	1.370421	0.017724	16
N	2.100182	-0.258829	0.008094	7
C	0.785302	-0.483639	0.001244	6
C	0.333632	-1.903538	-0.008316	6
H	-1.949868	1.703001	0.002854	1
H	-1.933038	0.164931	0.879894	1
H	-1.924748	0.178881	-0.898246	1
H	0.431732	2.862861	0.016694	1
H	-0.757698	-1.985368	-0.003316	1
H	0.712542	-2.430408	0.873704	1
H	0.703582	-2.415049	-0.903136	1
Es	-1.792952	0.340506	-0.606683	99
Es	1.539545	-0.289487	0.277584	99
Es	0.324386	0.079831	0.001817	99
Es	1.542271	-0.286484	-0.266274	99
Es	2.494096	1.359677	0.024548	99
Es	-0.059121	0.687778	0.003439	99
Es	-0.408303	-1.948366	-0.004866	99
Es	-1.548075	0.684480	-0.003386	99
Es	-1.811944	1.376204	0.000803	99
Es	0.544350	-1.184121	-0.003267	99
Es	-1.798601	0.331258	0.592101	99
Es	0.354810	1.179844	-0.297867	99
Es	2.480574	1.471535	0.450112	99
Es	0.536180	2.516907	0.015378	99
Es	0.730569	1.824486	0.012755	99
Es	2.322387	1.277600	0.068333	99
Es	2.387144	-0.476698	0.008206	99
Es	0.785350	-0.483654	0.001246	99
Es	0.589583	-2.244376	0.582908	99
Es	-0.797392	0.682700	0.000139	99
Es	0.583538	-2.233804	-0.608171	99
Es	2.099778	-0.258436	0.008094	99
Es	2.375381	1.370315	0.017839	99
Es	2.337893	1.376923	-0.095549	99
Es	1.512971	1.649748	0.013365	99
Es	2.494453	1.479729	-0.409418	99
Es	0.352145	1.176473	0.313812	99
Es	2.193434	0.434086	0.011078	99
Es	2.341584	1.466045	0.072952	99
Es	0.333630	-1.903478	-0.008318	99
44
Properties=species:S:1:pos:R:3:Z:I:1 energy=-645.4805250291728 field_type=dipole dipole="0.000000 0.000000 0.000000" charge=0
C	-1.548138	0.684481	-0.003386	6
C	-0.059088	0.687801	0.003444	6
C	0.730402	1.824451	0.012754	6
S	2.375202	1.370421	0.017724	16
N	2.100182	-0.258829	0.008094	7
C	0.785302	-0.483639	0.001244	6
C	0.333632	-1.903538	-0.008316	6
H	-1.949868	1.703001	0.002854	1
H	-1.933038	0.164931	0.879894	1
H	-1.924748	0.178881	-0.898246	1
H	0.431732	2.862861	0.016694	1
H	-0.757698	-1.985368	-0.003316	1
H	0.712542	-2.430408	0.873704	1
H	0.703582	-2.415049	-0.903136	1
Es	-0.797443	0.682776	0.000091	99
Es	2.099777	-0.258429	0.008095	99
Es	0.352277	1.176350	0.313361	99
Es	0.536052	2.516878	0.015430	99
Es	0.324381	0.079789	0.001994	99
Es	2.476701	1.310060	0.030055	99
Es	-1.792947	0.340624	-0.606635	99
Es	2.341390	1.420290	0.119091	99
Es	0.544424	-1.184228	-0.003409	99
Es	-0.059116	0.687783	0.003444	99
Es	2.193645	0.434320	0.012279	99
Es	0.589563	-2.244323	0.582985	99
Es	0.333629	-1.903477	-0.008316	99
Es	1.539525	-0.289205	0.277248	99
Es	-1.811980	1.376267	0.000886	99
Es	-1.798570	0.331116	0.592064	99
Es	0.583595	-2.233842	-0.608066	99
Es	-1.548076	0.684479	-0.003385	99
Es	2.486458	1.476859	-0.411890	99
Es	1.513127	1.649667	0.016158	99
Es	0.354971	1.179425	-0.297770	99
Es	0.730569	1.824485	0.012759	99
Es	2.378396	1.373875	0.018792	99
Es	2.291299	1.296646	-0.013711	99
Es	2.384166	1.449191	-0.065313	99
Es	-0.408339	-1.948378	-0.004962	99
Es	2.386810	-0.476737	0.008169	99
Es	1.541757	-0.286736	-0.266036	99
Es	2.488281	1.475353	0.448061	99
Es	0.785340	-0.483657	0.001240	99
44
Properties=species:S:1:pos:R:3:Z:I:1 energy=-645.4805250291728 field_type=dipole dipole="0.000000 0.000000 0.000000" charge=0
C	-1.548138	0.684481	-0.003386	6
C	-0.059088	0.687801	0.003444	6
C	0.730402	1.824451	0.012754	6
S	2.375202	1.370421	0.017724	16
N	2.100182	-0.258829	0.008094	7
C	0.785302	-0.483639	0.001244	6
C	0.333632	-1.903538	-0.008316	6
H	-1.949868	1.703001	0.002854	1
H	-1.933038	0.164931	0.879894	1
H	-1.924748	0.178881	-0.898246	1
H	0.431732	2.862861	0.016694	1
H	-0.757698	-1.985368	-0.003316	1
H	0.712542	-2.430408	0.873704	1
H	0.703582	-2.415049	-0.903136	1
Es	0.354968	1.179480	-0.297342	99
Es	0.544384	-1.184261	-0.003404	99
Es	0.583685	-2.233929	-0.608106	99
Es	-0.059122	0.687780	0.003448	99
Es	2.477906	1.470477	0.449838	99
Es	-0.408277	-1.948391	-0.004975	99
Es	-1.792931	0.340617	-0.606600	99
Es	2.460916	1.296817	-0.010520	99
Es	2.193907	0.434413	0.010721	99
Es	-0.797496	0.682693	0.000182	99
Es	2.497258	1.481915	-0.409527	99
Es	1.541438	-0.286750	-0.265412	99
Es	0.352488	1.175835	0.313395	99
Es	0.535942	2.516879	0.015387	99
Es	2.374400	1.388360	0.135133	99
Es	-1.798661	0.331171	0.592136	99
Es	1.539296	-0.288994	0.277556	99
Es	-1.548074	0.684480	-0.003386	99
Es	1.513252	1.649606	0.013202	99
Es	0.785343	-0.483655	0.001243	99
Es	2.374855	1.370437	0.017516	99
Es	-1.811919	1.376246	0.000772	99
Es	2.099789	-0.258416	0.008090	99
Es	0.730569	1.824485	0.012756	99
Es	2.390548	1.472416	-0.039928	99
Es	2.271156	1.322098	-0.013295	99
Es	2.386516	-0.476782	0.007736	99
Es	0.589468	-2.244242	0.583012	99
Es	0.333630	-1.903483	-0.008326	99
Es	0.324430	0.079919	0.001405	99
44
Properties=species:S:1:pos:R:3:Z:I:1 energy=-645.4805250291728 field_type=dipole dipole="0.000000 0.000000 0.000000" charge=0
C	-1.548138	0.684481	-0.003386	6
C	-0.059088	0.687801	0.003444	6
C	0.730402	1.824451	0.012754	6
S	2.375202	1.370421	0.017724	16
N	2.100182	-0.258829	0.008094	7
C	0.785302	-0.483639	0.001244	6
C	0.333632	-1.903538	-0.008316	6
H	-1.949868	1.703001	0.002854	1
H	-1.933038	0.164931	0.879894	1
H	-1.924748	0.178881	-0.898246	1
H	0.431732	2.862861	0.016694	1
H	-0.757698	-1.985368	-0.003316	1
H	0.712542	-2.430408	0.873704	1
H	0.703582	-2.415049	-0.903136	1
Es	2.194053	0.434552	0.012076	99
Es	2.491270	1.479028	-0.410794	99
Es	0.785342	-0.483655	0.001240	99
Es	-1.798582	0.331159	0.592070	99
Es	0.730572	1.824485	0.012758	99
Es	-0.408353	-1.948397	-0.004901	99
Es	2.374859	1.246500	-0.016652	99
Es	0.589640	-2.244353	0.582945	99
Es	0.535816	2.516846	0.015310	99
Es	2.388259	1.461863	-0.071643	99
Es	-0.797535	0.682875	0.000108	99
Es	2.484109	1.473364	0.448972	99
Es	2.363649	1.370974	0.017100	99
Es	1.541258	-0.286494	-0.265718	99
Es	0.583578	-2.233789	-0.608118	99
Es	2.370447	1.370798	0.017581	99
Es	0.544458	-1.184385	-0.003427	99
Es	1.513356	1.649607	0.014736	99
Es	2.386297	-0.476872	0.008443	99
Es	-0.059122	0.687782	0.003452	99
Es	-1.548075	0.684481	-0.003386	99
Es	0.355195	1.179175	-0.297156	99
Es	-1.811968	1.376202	0.000893	99
Es	0.324367	0.079992	0.001780	99
Es	0.333629	-1.903478	-0.008317	99
Es	1.538882	-0.289046	0.276641	99
Es	2.374839	1.400234	0.142169	99
Es	-1.792996	0.340615	-0.606654	99
Es	0.352622	1.175594	0.313108	99
Es	2.099797	-0.258434	0.008092	99
44
Properties=species:S:1:pos:R:3:Z:I:1 energy=-645.4805250291728 field_type=dipole dipole="0.000000 0.000000 0.000000" charge=0
C	-1.548138	0.684481	-0.003386	6
C	-0.059088	0.687801	0.003444	6
C	0.730402	1.824451	0.012754	6
S	2.375202	1.370421	0.017724	16
N	2.100182	-0.258829	0.008094	7
C	0.785302	-0.483639	0.001244	6
C	0.333632	-1.903538	-0.008316	6
H	-1.949868	1.703001	0.002854	1
H	-1.933038	0.164931	0.879894	1
H	-1.924748	0.178881	-0.898246	1
H	0.431732	2.862861	0.016694	1
H	-0.757698	-1.985368	-0.003316	1
H	0.712542	-2.430408	0.873704	1
H	0.703582	-2.415049	-0.903136	1
Es	0.730573	1.824484	0.012755	99
Es	2.323475	1.295742	0.093400	99
Es	-0.408373	-1.948399	-0.004915	99
Es	1.513384	1.649583	0.017395	99
Es	-1.798625	0.331025	0.592093	99
Es	0.785342	-0.483658	0.001254	99
Es	-1.811963	1.376206	0.000908	99
Es	-0.059115	0.687781	0.003440	99
Es	0.583592	-2.233802	-0.608098	99
Es	0.589630	-2.244348	0.582936	99
Es	2.194240	0.434549	0.012686	99
Es	0.352817	1.175167	0.312653	99
Es	2.386184	-0.477253	0.008398	99
Es	2.351716	1.482291	0.049353	99
Es	2.493608	1.477027	0.446863	99
Es	0.535679	2.516858	0.015438	99
Es	0.355159	1.179330	-0.296906	99
Es	1.540910	-0.286190	-0.265333	99
Es	-0.797653	0.682858	0.000093	99
Es	2.329658	1.349247	-0.089282	99
Es	2.482999	1.475486	-0.411897	99
Es	0.544476	-1.184454	-0.003330	99
Es	1.538629	-0.288765	0.276226	99
Es	0.324538	0.080039	0.001852	99
Es	2.491147	1.352718	0.017237	99
Es	-1.792925	0.340741	-0.606652	99
Es	2.099815	-0.258450	0.008095	99
Es	0.333630	-1.903476	-0.008316	99
Es	2.375198	1.370408	0.017742	99
Es	-1.548083	0.684476	-0.003378	99
44
Properties=species:S:1:pos:R:3:Z:I:1 energy=-645.4805250291728 field_type=dipole dipole="0.000000 0.000000 0.000000" charge=0
C	-1.548138	0.684481	-0.003386	6
C	-0.059088	0.687801	0.003444	6
C	0.730402	1.824451	0.012754	6
S	2.375202	1.370421	0.017724	16
N	2.100182	-0.258829	0.008094	7
C	0.785302	-0.483639	0.001244	6
C	0.333632	-1.903538	-0.008316	6
H	-1.949868	1.703001	0.002854	1
H	-1.933038	0.164931	0.879894	1
H	-1.924748	0.178881	-0.898246	1
H	0.431732	2.862861	0.016694	1
H	-0.757698	-1.985368	-0.003316	1
H	0.712542	-2.430408	0.873704	1
H	0.703582	-2.415049	-0.903136	1
Es	1.538080	-0.288970	0.276082	99
Es	2.441819	1.277799	-0.009073	99
Es	0.583631	-2.233819	-0.608155	99
Es	-1.798592	0.331080	0.592116	99
Es	1.540879	-0.285968	-0.265095	99
Es	2.194500	0.434618	0.011349	99
Es	2.443235	1.457022	0.060640	99
Es	-0.797741	0.682908	0.000071	99
Es	0.355474	1.178827	-0.296745	99
Es	0.589634	-2.244312	0.583009	99
Es	2.318864	1.406826	-0.078947	99
Es	0.535517	2.516822	0.015414	99
Es	0.730573	1.824487	0.012760	99
Es	-1.792957	0.340674	-0.606664	99
Es	2.292141	1.337885	0.097940	99
Es	2.479166	1.471214	0.449486	99
Es	2.385926	-0.477288	0.008468	99
Es	-0.408339	-1.948377	-0.004921	99
Es	0.544410	-1.184559	-0.003455	99
Es	1.513512	1.649668	0.012934	99
Es	-0.059113	0.687784	0.003448	99
Es	0.352897	1.175292	0.312390	99
Es	0.785344	-0.483656	0.001243	99
Es	-1.548075	0.684480	-0.003386	99
Es	0.324604	0.080124	0.002175	99
Es	2.497670	1.482022	-0.408632	99
Es	0.333629	-1.903477	-0.008316	99
Es	-1.811955	1.376209	0.000895	99
Es	2.099784	-0.258426	0.008091	99
Es	2.375147	1.370331	0.017589	99
44
Properties=species:S:1:pos:R:3:Z:I:1 energy=-645.4805250291728 field_type=dipole dipole="0.000000 0.000000 0.000000" charge=0
C	-1.548138	0.684481	-0.003386	6
C	-0.059088	0.687801	0.003444	6
C	0.730402	1.824451	0.012754	6
S	2.375202	1.370421	0.017724	16
N	2.100182	-0.258829	0.008094	7
C	0.785302	-0.483639	0.001244	6
C	0.333632	-1.903538	-0.008316	6
H	-1.949868	1.703001	0.002854	1
H	-1.933038	0.164931	0.879894	1
H	-1.924748	0.178881	-0.898246	1
H	0.431732	2.862861	0.016694	1
H	-0.757698	-1.985368	-0.003316	1
H	0.712542	-2.430408	0.873704	1
H	0.703582	-2.415049	-0.903136	1
Es	-0.797790	0.682928	0.000145	99
Es	2.375203	1.370396	0.017694	99
Es	1.538166	-0.288407	0.276206	99
Es	2.099774	-0.258441	0.008093	99
Es	2.194562	0.434726	0.011702	99
Es	-0.059115	0.687785	0.003448	99
Es	0.324570	0.080207	0.002013	99
Es	-1.792976	0.340613	-0.606640	99
Es	0.352785	1.176144	0.312082	99
Es	2.264812	1.326938	0.035972	99
Es	1.540178	-0.286291	-0.264685	99
Es	-1.548077	0.684480	-0.003385	99
Es	0.544399	-1.184602	-0.003472	99
Es	-0.408319	-1.948360	-0.004913	99
Es	2.369376	1.457755	-0.059397	99
Es	0.583609	-2.233853	-0.608140	99
Es	0.535444	2.516824	0.015494	99
Es	2.385866	-0.477325	0.007978	99
Es	2.483122	1.472712	0.448256	99
Es	1.513576	1.649513	0.014529	99
Es	0.355881	1.177608	-0.296744	99
Es	-1.798557	0.331130	0.592090	99
Es	0.333628	-1.903479	-0.008316	99
Es	2.494413	1.480746	-0.409737	99
Es	0.785344	-0.483654	0.001246	99
Es	0.730567	1.824484	0.012753	99
Es	2.417044	1.409462	0.118977	99
Es	0.589648	-2.244296	0.583047	99
Es	2.444504	1.285230	-0.024470	99
Es	-1.811972	1.376248	0.000885	99
44
Properties=species:S:1:pos:R:3:Z:I:1 energy=-645.4805250291728 field_type=dipole dipole="0.000000 0.000000 0.000000" charge=0
C	-1.548138	0.684481	-0.003386	6
C	-0.059088	0.687801	0.003444	6
C	0.730402	1.824451	0.012754	6
S	2.375202	1.370421	0.017724	16
N	2.100182	-0.258829	0.008094	7
C	0.785302	-0.483639	0.001244	6
C	0.333632	-1.903538	-0.008316	6
H	-1.949868	1.703001	0.002854	1
H	-1.933038	0.164931	0.879894	1
H	-1.924748	0.178881	-0.898246	1
H	0.431732	2.862861	0.016694	1
H	-0.757698	-1.985368	-0.003316	1
H	0.712542	-2.430408	0.873704	1
H	0.703582	-2.415049	-0.903136	1
Es	0.730567	1.824481	0.012756	99
Es	2.375239	1.370327	0.017804	99
Es	0.333631	-1.903477	-0.008311	99
Es	-1.548076	0.684479	-0.003385	99
Es	0.785343	-0.483655	0.001245	99
Es	0.589713	-2.244365	0.582935	99
Es	2.488134	1.391523	0.003542	99
Es	2.493400	1.480683	-0.408374	99
Es	0.535397	2.516812	0.015446	99
Es	0.355524	1.178654	-0.296237	99
Es	2.194950	0.434649	0.011649	99
Es	-0.059113	0.687782	0.003437	99
Es	2.485491	1.473998	0.447484	99
Es	-1.812022	1.376246	0.000780	99
Es	2.385550	-0.477313	0.008363	99
Es	2.355921	1.251805	0.016058	99
Es	1.537711	-0.288675	0.275857	99
Es	-1.792932	0.340530	-0.606580	99
Es	0.544408	-1.184680	-0.003348	99
Es	1.540375	-0.285886	-0.264796	99
Es	-0.797833	0.682943	0.000078	99
Es	-0.408301	-1.948380	-0.004794	99
Es	0.324694	0.080270	0.001872	99
Es	2.312714	1.421139	-0.070065	99
Es	1.513635	1.649462	0.014173	99
Es	0.583545	-2.233792	-0.608254	99
Es	2.337630	1.414101	0.121111	99
Es	2.099782	-0.258429	0.008093	99
Es	0.353144	1.174810	0.312048	99
Es	-1.798557	0.331178	0.592126	99
44
Properties=species:S:1:pos:R:3:Z:I:1 energy=-645.4805250291728 field_type=dipole dipole="0.000000 0.000000 0.000000" charge=0
C	-1.548138	0.684481	-0.003386	6
C	-0.059088	0.687801	0.003444	6
C	0.730402	1.824451	0.012754	6
S	2.375202	1.370421	0.017724	16
N	2.100182	-0.258829	0.008094	7
C	0.785302	-0.483639	0.001244	6
C	0.333632	-1.903538	-0.008316	6
H	-1.949868	1.703001	0.002854	1
H	-1.933038	0.164931	0.879894	1
H	-1.924748	0.178881	-0.898246	1
H	0.431732	2.862861	0.016694	1
H	-0.757698	-1.985368	-0.003316	1
H	0.712542	-2.430408	0.873704	1
H	0.703582	-2.415049	-0.903136	1
Es	0.785342	-0.483657	0.001245	99
Es	-0.059113	0.687786	0.003459	99
Es	2.455262	1.403487	0.098670	99
Es	0.333629	-1.903479	-0.008316	99
Es	2.275828	1.434375	0.031085	99
Es	0.589641	-2.244348	0.583002	99
Es	2.375331	1.370157	0.017647	99
Es	2.482109	1.472597	0.448720	99
Es	0.324711	0.080393	0.002394	99
Es	2.497574	1.480447	-0.407238	99
Es	2.099782	-0.258438	0.008094	99
Es	2.413308	1.385563	-0.092213	99
Es	2.385451	-0.477456	0.008446	99
Es	-1.798608	0.331187	0.592119	99
Es	-1.811970	1.376242	0.000784	99
Es	0.356131	1.177426	-0.296242	99
Es	0.352975	1.175626	0.311510	99
Es	0.544463	-1.184742	-0.003352	99
Es	-1.792924	0.340552	-0.606620	99
Es	1.537384	-0.288615	0.275297	99
Es	2.349591	1.256911	0.032463	99
Es	1.513753	1.649516	0.012931	99
Es	2.194914	0.434877	0.011476	99
Es	-0.797958	0.682979	0.000143	99
Es	0.535246	2.516810	0.015430	99
Es	0.730569	1.824485	0.012757	99
Es	0.583629	-2.233816	-0.608156	99
Es	1.540011	-0.285739	-0.264516	99
Es	-0.408318	-1.948388	-0.004922	99
Es	-1.548079	0.684479	-0.003384	99
44
Properties=species:S:1:pos:R:3:Z:I:1 energy=-645.4805250291728 field_type=dipole dipole="0.000000 0.000000 0.000000" charge=0
C	-1.548138	0.684481	-0.003386	6
C	-0.059088	0.687801	0.003444	6
C	0.730402	1.824451	0.012754	6
S	2.375202	1.370421	0.017724	16
N	2.100182	-0.258829	0.008094	7
C	0.785302	-0.483639	0.001244	6
C	0.333632	-1.903538	-0.008316	6
H	-1.949868	1.703001	0.002854	1
H	-1.933038	0.164931	0.879894	1
H	-1.924748	0.178881	-0.898246	1
H	0.431732	2.862861	0.016694	1
H	-0.757698	-1.985368	-0.003316	1
H	0.712542	-2.430408	0.873704	1
H	0.703582	-2.415049	-0.903136	1
Es	2.195202	0.434883	0.012097	99
Es	1.537284	-0.288405	0.275160	99
Es	2.332186	1.287879	-0.055256	99
Es	-0.797938	0.683089	0.000212	99
Es	0.583742	-2.233884	-0.608084	99
Es	-1.792983	0.340639	-0.606626	99
Es	0.356223	1.177260	-0.295866	99
Es	2.385169	-0.477584	0.008350	99
Es	0.544479	-1.184826	-0.003445	99
Es	0.785338	-0.483654	0.001242	99
Es	1.539622	-0.285754	-0.264046	99
Es	2.470094	1.422709	-0.029693	99
Es	0.535121	2.516804	0.015449	99
Es	0.589565	-2.244268	0.583080	99
Es	-1.798590	0.331129	0.592021	99
Es	2.375204	1.370313	0.017808	99
Es	-1.812007	1.376227	0.000914	99
Es	-0.408322	-1.948410	-0.005029	99
Es	0.333629	-1.903476	-0.008317	99
Es	2.490727	1.477844	-0.409659	99
Es	0.353184	1.175559	0.311375	99
Es	1.513808	1.649502	0.015845	99
Es	0.730574	1.824485	0.012762	99
Es	2.489970	1.475282	0.445910	99
Es	2.291469	1.450097	0.034906	99
Es	0.324713	0.080446	0.001945	99
Es	2.399624	1.319513	0.121502	99
Es	2.099768	-0.258441	0.008089	99
Es	-0.059117	0.687784	0.003451	99
Es	-1.548077	0.684479	-0.003386	99
44
Properties=species:S:1:pos:R:3:Z:I:1 energy=-645.4805250291728 field_type=dipole dipole="0.000000 0.000000 0.000000" charge=0
C	-1.548138	0.684481	-0.003386	6
C	-0.059088	0.687801	0.003444	6
C	0.730402	1.824451	0.012754	6
S	2.375202	1.370421	0.017724	16
N	2.100182	-0.258829	0.008094	7
C	0.785302	-0.483639	0.001244	6
C	0.333632	-1.903538	-0.008316	6
H	-1.949868	1.703001	0.002854	1
H	-1.933038	0.164931	0.879894	1
H	-1.924748	0.178881	-0.898246	1
H	0.431732	2.862861	0.016694	1
H	-0.757698	-1.985368	-0.003316	1
H	0.712542	-2.430408	0.873704	1
H	0.703582	-2.415049	-0.903136	1
Es	2.375097	1.370333	0.017681	99
Es	0.544320	-1.184839	-0.003452	99
Es	0.355895	1.178516	-0.295202	99
Es	2.346783	1.466174	-0.043733	99
Es	0.730569	1.824484	0.012754	99
Es	0.333628	-1.903480	-0.008315	99
Es	-1.548075	0.684479	-0.003387	99
Es	2.385161	-0.477703	0.008215	99
Es	1.513944	1.649434	0.009898	99
Es	-1.798547	0.331161	0.592102	99
Es	-0.059112	0.687787	0.003429	99
Es	1.539580	-0.285827	-0.263743	99
Es	0.324847	0.080431	0.001392	99
Es	2.468824	1.466929	0.448449	99
Es	-1.812001	1.376257	0.000838	99
Es	-0.798061	0.683119	0.000006	99
Es	1.536949	-0.288006	0.275403	99
Es	2.491468	1.366521	0.034182	99
Es	-0.408297	-1.948485	-0.005001	99
Es	2.099780	-0.258432	0.008094	99
Es	2.511901	1.487632	-0.404677	99
Es	2.339101	1.273908	-0.041033	99
Es	2.195320	0.434840	0.009968	99
Es	0.353669	1.173900	0.311555	99
Es	0.583777	-2.233839	-0.608146	99
Es	0.785342	-0.483656	0.001242	99
Es	2.316099	1.372459	0.122374	99
Es	0.535039	2.516794	0.015324	99
Es	-1.792969	0.340565	-0.606599	99
Es	0.589633	-2.244237	0.583092	99
44
Properties=species:S:1:pos:R:3:Z:I:1 energy=-645.4805250291728 field_type=dipole dipole="0.000000 0.000000 0.000000" charge=0
C	-1.548138	0.684481	-0.003386	6
C	-0.059088	0.687801	0.003444	6
C	0.730402	1.824451	0.012754	6
S	2.375202	1.370421	0.017724	16
N	2.100182	-0.258829	0.008094	7
C	0.785302	-0.483639	0.001244	6
C	0.333632	-1.903538	-0.008316	6
H	-1.949868	1.703001	0.002854	1
H	-1.933038	0.164931	0.879894	1
H	-1.924748	0.178881	-0.898246	1
H	0.431732	2.862861	0.016694	1
H	-0.757698	-1.985368	-0.003316	1
H	0.712542	-2.430408	0.873704	1
H	0.703582	-2.415049	-0.903136	1
Es	2.502415	1.480415	0.443834	99
Es	2.099788	-0.258452	0.008093	99
Es	0.534953	2.516753	0.015523	99
Es	2.397350	1.472701	0.077391	99
Es	2.470713	1.308634	0.011233	99
Es	-0.408325	-1.948448	-0.004897	99
Es	2.195345	0.434876	0.013193	99
Es	0.333629	-1.903478	-0.008317	99
Es	0.730567	1.824484	0.012754	99
Es	2.337209	1.391876	-0.090148	99
Es	-1.792927	0.340599	-0.606620	99
Es	-1.812011	1.376253	0.000856	99
Es	1.513902	1.649498	0.018553	99
Es	2.479480	1.474553	-0.408655	99
Es	2.287326	1.305287	0.070521	99
Es	2.385051	-0.477752	0.008016	99
Es	-1.548077	0.684480	-0.003386	99
Es	-0.798097	0.683123	0.000088	99