45
Properties=species:S:1:pos:R:3:Z:I:1 energy=-739.2634254194287 field_type=dipole dipole="0.000000 0.000000 0.000000" charge=0
C	-1.678107	0.391223	-0.484088	6
C	-0.176907	0.230263	-0.577118	6
O	0.506753	1.212943	0.235022	8
C	1.542593	0.327863	0.706902	6
S	0.572913	-1.081037	0.326602	16
O	-0.220487	-1.529087	1.455252	8
O	1.274053	-2.007867	-0.541658	8
H	-2.184857	-0.430817	-1.000758	1
H	-1.994047	1.327183	-0.955448	1
H	-2.023597	0.405123	0.553712	1
H	0.174983	0.272793	-1.614018	1
H	2.463033	0.422463	0.123472	1
H	1.743673	0.458953	1.772122	1
Es	1.273883	-2.007642	-0.541427	99
Es	-1.896932	0.399479	0.208799	99
Es	0.632059	1.417461	0.053788	99
Es	0.069351	0.241529	-1.265783	99
Es	-0.176789	0.230344	-0.576925	99
Es	1.003932	-1.690654	-0.196498	99
Es	1.423300	-2.110687	-0.314931	99
Es	0.528340	-1.074794	0.217021	99
Es	0.581563	-0.972452	0.370857	99
Es	-1.678026	0.391205	-0.484118	99
Es	1.169167	-0.375667	0.583581	99
Es	-0.220319	-1.528975	1.455026	99
Es	0.681727	-1.132585	0.324111	99
Es	1.676561	0.408882	1.415065	99
Es	1.011241	-2.110831	-0.626932	99
Es	0.252445	0.838241	-0.079701	99
Es	0.322957	1.258274	0.474400	99
Es	-0.912194	0.296650	-0.525979	99
Es	1.542374	0.327927	0.706811	99
Es	-0.266359	-1.236209	1.520581	99
Es	0.500048	-1.144366	0.394539	99
Es	-2.002866	-0.166217	-0.836636	99
Es	0.911389	0.872941	0.415197	99
Es	-0.390732	-1.681710	1.276430	99
Es	1.367083	-1.736929	-0.670807	99
Es	2.149265	0.373522	0.307902	99
Es	0.506809	1.212628	0.234979	99
Es	0.051824	-1.358235	1.017756	99
Es	0.572878	-1.080993	0.326523	99
Es	-1.872277	1.019520	-0.806062	99
Es	0.098583	-0.443370	-0.200511	99
Es	0.053712	-1.639845	1.530936	99
45
Properties=species:S:1:pos:R:3:Z:I:1 energy=-739.2634254194287 field_type=dipole dipole="0.000000 0.000000 0.000000" charge=0
C	-1.678107	0.391223	-0.484088	6
C	-0.176907	0.230263	-0.577118	6
O	0.506753	1.212943	0.235022	8
C	1.542593	0.327863	0.706902	6
S	0.572913	-1.081037	0.326602	16
O	-0.220487	-1.529087	1.455252	8
O	1.274053	-2.007867	-0.541658	8
H	-2.184857	-0.430817	-1.000758	1
H	-1.994047	1.327183	-0.955448	1
H	-2.023597	0.405123	0.553712	1
H	0.174983	0.272793	-1.614018	1
H	2.463033	0.422463	0.123472	1
H	1.743673	0.458953	1.772122	1
Es	-0.912255	0.296866	-0.525993	99
Es	1.361996	-1.744097	-0.682577	99
Es	-0.220351	-1.529043	1.455072	99
Es	1.426248	-2.070935	-0.291280	99
Es	1.676457	0.408831	1.415017	99
Es	0.098604	-0.443304	-0.200497	99
Es	0.631637	1.415011	0.051982	99
Es	1.032609	-2.147904	-0.617365	99
Es	0.251121	0.837223	-0.077873	99
Es	1.169264	-0.375720	0.583505	99
Es	-2.002692	-0.166341	-0.836720	99
Es	0.069371	0.241503	-1.265729	99
Es	0.524087	-1.120631	0.226323	99
Es	-1.872456	1.019562	-0.805987	99
Es	0.043260	-1.636907	1.547272	99
Es	0.912188	0.873658	0.414936	99
Es	1.542377	0.327925	0.706809	99
Es	0.572833	-1.081106	0.326484	99
Es	-0.176793	0.230342	-0.576929	99
Es	-1.678026	0.391206	-0.484119	99
Es	-0.386177	-1.682590	1.266816	99
Es	2.149338	0.373519	0.308051	99
Es	0.323900	1.261146	0.474534	99
Es	0.567780	-1.166238	0.410368	99
Es	0.984635	-1.686151	-0.217862	99
Es	0.506795	1.212614	0.235004	99
Es	-0.274408	-1.234392	1.507528	99
Es	-1.896892	0.399308	0.208778	99
Es	1.273906	-2.007666	-0.541489	99
Es	0.686835	-1.049357	0.306728	99
Es	0.512999	-0.987826	0.363154	99
Es	0.065805	-1.362066	1.024051	99
45
Properties=species:S:1:pos:R:3:Z:I:1 energy=-739.2634254194287 field_type=dipole dipole="0.000000 0.000000 0.000000" charge=0
C	-1.678107	0.391223	-0.484088	6
C	-0.176907	0.230263	-0.577118	6
O	0.506753	1.212943	0.235022	8
C	1.542593	0.327863	0.706902	6
S	0.572913	-1.081037	0.326602	16
O	-0.220487	-1.529087	1.455252	8
O	1.274053	-2.007867	-0.541658	8
H	-2.184857	-0.430817	-1.000758	1
H	-1.994047	1.327183	-0.955448	1
H	-2.023597	0.405123	0.553712	1
H	0.174983	0.272793	-1.614018	1
H	2.463033	0.422463	0.123472	1
H	1.743673	0.458953	1.772122	1
Es	1.676527	0.408774	1.415097	99
Es	1.362587	-1.743719	-0.682151	99
Es	2.149248	0.373469	0.308028	99
Es	0.573098	-1.193839	0.353948	99
Es	-0.386278	-1.679896	1.263829	99
Es	-0.274075	-1.234778	1.507847	99
Es	0.911734	0.873265	0.415650	99
Es	1.169314	-0.375643	0.583411	99
Es	1.035740	-2.150150	-0.618181	99
Es	1.425541	-2.068275	-0.288589	99
Es	0.572708	-1.083073	0.324587	99
Es	-0.176789	0.230346	-0.576922	99
Es	0.039646	-1.639744	1.548675	99
Es	-0.912340	0.296749	-0.526084	99
Es	0.251834	0.837991	-0.079476	99
Es	1.273912	-2.007675	-0.541481	99
Es	-1.896913	0.399334	0.208778	99
Es	-0.220275	-1.528974	1.454982	99
Es	-2.002745	-0.166282	-0.836706	99
Es	-1.678026	0.391205	-0.484118	99
Es	0.685237	-1.040782	0.325522	99
Es	0.526313	-1.066855	0.221507	99
Es	0.069420	0.241489	-1.265612	99
Es	-1.872387	1.019579	-0.806002	99
Es	0.981611	-1.686959	-0.220154	99
Es	1.542380	0.327922	0.706810	99
Es	0.506842	1.212603	0.234940	99
Es	0.631999	1.415691	0.053491	99
Es	0.098636	-0.443303	-0.200552	99
Es	0.069092	-1.361553	1.025415	99
Es	0.507193	-1.020645	0.407506	99
Es	0.323211	1.260167	0.473997	99
45
Properties=species:S:1:pos:R:3:Z:I:1 energy=-739.2634254194287 field_type=dipole dipole="0.000000 0.000000 0.000000" charge=0
C	-1.678107	0.391223	-0.484088	6
C	-0.176907	0.230263	-0.577118	6
O	0.506753	1.212943	0.235022	8
C	1.542593	0.327863	0.706902	6
S	0.572913	-1.081037	0.326602	16
O	-0.220487	-1.529087	1.455252	8
O	1.274053	-2.007867	-0.541658	8
H	-2.184857	-0.430817	-1.000758	1
H	-1.994047	1.327183	-0.955448	1
H	-2.023597	0.405123	0.553712	1
H	0.174983	0.272793	-1.614018	1
H	2.463033	0.422463	0.123472	1
H	1.743673	0.458953	1.772122	1
Es	0.622669	-1.152517	0.404718	99
Es	0.250784	0.838641	-0.079924	99
Es	-1.896901	0.399382	0.208793	99
Es	0.069453	0.241390	-1.265607	99
Es	0.658422	-1.027226	0.260718	99
Es	0.511799	-1.000383	0.384530	99
Es	0.506823	1.212789	0.234958	99
Es	2.149302	0.373502	0.308070	99
Es	1.024166	-2.141246	-0.613832	99
Es	1.428684	-2.078251	-0.297879	99
Es	-0.176789	0.230343	-0.576927	99
Es	0.911670	0.872609	0.416164	99
Es	0.632385	1.414270	0.054113	99
Es	0.992873	-1.684610	-0.212261	99
Es	0.048285	-1.635799	1.540523	99
Es	-0.386626	-1.685418	1.269047	99
Es	-0.912305	0.296821	-0.526154	99
Es	0.498685	-1.144120	0.256450	99
Es	0.060696	-1.357738	1.022884	99
Es	1.676499	0.408835	1.414993	99
Es	-0.273889	-1.237021	1.513236	99
Es	1.359693	-1.744916	-0.685006	99
Es	-0.220346	-1.528998	1.455051	99
Es	1.273969	-2.007749	-0.541579	99
Es	0.572988	-1.080975	0.326663	99
Es	-2.002738	-0.166335	-0.836700	99
Es	0.098582	-0.443240	-0.200540	99
Es	1.542374	0.327926	0.706806	99
Es	1.169289	-0.375690	0.583514	99
Es	-1.678027	0.391205	-0.484118	99
Es	-1.872408	1.019523	-0.806008	99
Es	0.323937	1.261434	0.473298	99
45
Properties=species:S:1:pos:R:3:Z:I:1 energy=-739.2634254194287 field_type=dipole dipole="0.000000 0.000000 0.000000" charge=0
C	-1.678107	0.391223	-0.484088	6
C	-0.176907	0.230263	-0.577118	6
O	0.506753	1.212943	0.235022	8
C	1.542593	0.327863	0.706902	6
S	0.572913	-1.081037	0.326602	16
O	-0.220487	-1.529087	1.455252	8
O	1.274053	-2.007867	-0.541658	8
H	-2.184857	-0.430817	-1.000758	1
H	-1.994047	1.327183	-0.955448	1
H	-2.023597	0.405123	0.553712	1
H	0.174983	0.272793	-1.614018	1
H	2.463033	0.422463	0.123472	1
H	1.743673	0.458953	1.772122	1
Es	0.613503	-1.059564	0.334735	99
Es	-1.678025	0.391205	-0.484119	99
Es	-1.872504	1.019581	-0.805870	99
Es	1.012697	-1.683740	-0.197202	99
Es	1.002632	-2.104545	-0.617605	99
Es	-0.382198	-1.686308	1.263360	99
Es	1.425906	-2.116953	-0.316500	99
Es	0.250398	0.837837	-0.078781	99
Es	1.273923	-2.007688	-0.541503	99
Es	0.069418	0.241436	-1.265533	99
Es	2.149235	0.373548	0.308116	99
Es	-0.220307	-1.528966	1.454978	99
Es	0.912282	0.873270	0.416563	99
Es	1.676562	0.408787	1.414967	99
Es	0.045661	-1.635714	1.543208	99
Es	0.608829	-1.182180	0.262314	99
Es	0.324328	1.262525	0.472809	99
Es	-0.912239	0.296792	-0.526142	99
Es	1.169309	-0.375752	0.583459	99
Es	0.506780	1.212518	0.235030	99
Es	0.605666	-1.062485	0.333810	99
Es	1.542378	0.327923	0.706809	99
Es	-0.176790	0.230344	-0.576925	99
Es	0.064453	-1.356089	1.026195	99
Es	-1.896905	0.399246	0.208663	99
Es	-0.279453	-1.237903	1.513008	99
Es	-2.002761	-0.166274	-0.836733	99
Es	0.507803	-0.996706	0.260675	99
Es	0.528735	-1.104257	0.441489	99
Es	0.631805	1.413675	0.053036	99
Es	1.364223	-1.743866	-0.677723	99
Es	0.098653	-0.443259	-0.200594	99
45
Properties=species:S:1:pos:R:3:Z:I:1 energy=-739.2634254194287 field_type=dipole dipole="0.000000 0.000000 0.000000" charge=0
C	-1.678107	0.391223	-0.484088	6
C	-0.176907	0.230263	-0.577118	6
O	0.506753	1.212943	0.235022	8
C	1.542593	0.327863	0.706902	6
S	0.572913	-1.081037	0.326602	16
O	-0.220487	-1.529087	1.455252	8
O	1.274053	-2.007867	-0.541658	8
H	-2.184857	-0.430817	-1.000758	1
H	-1.994047	1.327183	-0.955448	1
H	-2.023597	0.405123	0.553712	1
H	0.174983	0.272793	-1.614018	1
H	2.463033	0.422463	0.123472	1
H	1.743673	0.458953	1.772122	1
Es	0.506789	1.212618	0.234994	99
Es	-1.678025	0.391205	-0.484119	99
Es	2.149229	0.373442	0.308092	99
Es	-0.275055	-1.235341	1.507436	99
Es	-1.896928	0.399333	0.208692	99
Es	0.457167	-1.037702	0.315103	99
Es	0.060475	-1.360781	1.022301	99
Es	-0.385982	-1.687254	1.271018	99
Es	-1.872500	1.019533	-0.805979	99
Es	0.578851	-1.077094	0.351434	99
Es	0.662778	-1.011748	0.270125	99
Es	0.049026	-1.632653	1.545014	99
Es	1.357635	-1.740919	-0.679632	99
Es	0.584065	-1.205655	0.315574	99
Es	1.273921	-2.007655	-0.541454	99
Es	-0.220311	-1.528986	1.454971	99
Es	1.169317	-0.375696	0.583528	99
Es	-0.176793	0.230342	-0.576928	99
Es	0.632341	1.413400	0.052864	99
Es	0.324498	1.262909	0.472617	99
Es	0.991287	-1.687986	-0.210408	99
Es	0.581671	-1.072961	0.380762	99
Es	-2.002722	-0.166312	-0.836672	99
Es	1.542378	0.327924	0.706809	99
Es	1.431040	-2.081621	-0.299757	99
Es	1.025494	-2.138617	-0.619268	99
Es	0.098696	-0.443158	-0.200597	99
Es	1.676593	0.408766	1.414946	99
Es	-0.912354	0.296770	-0.526104	99
Es	0.250146	0.837753	-0.078759	99
Es	0.069448	0.241380	-1.265498	99
Es	0.911821	0.873205	0.416890	99
45
Properties=species:S:1:pos:R:3:Z:I:1 energy=-739.2634254194287 field_type=dipole dipole="0.000000 0.000000 0.000000" charge=0
C	-1.678107	0.391223	-0.484088	6
C	-0.176907	0.230263	-0.577118	6
O	0.506753	1.212943	0.235022	8
C	1.542593	0.327863	0.706902	6
S	0.572913	-1.081037	0.326602	16
O	-0.220487	-1.529087	1.455252	8
O	1.274053	-2.007867	-0.541658	8
H	-2.184857	-0.430817	-1.000758	1
H	-1.994047	1.327183	-0.955448	1
H	-2.023597	0.405123	0.553712	1
H	0.174983	0.272793	-1.614018	1
H	2.463033	0.422463	0.123472	1
H	1.743673	0.458953	1.772122	1
Es	-0.272248	-1.234879	1.509392	99
Es	0.249919	0.837929	-0.078940	99
Es	0.617564	-1.133258	0.423290	99
Es	1.676566	0.408692	1.414922	99
Es	1.039647	-2.157444	-0.622870	99
Es	2.149246	0.373459	0.308159	99
Es	0.065533	-1.360501	1.025742	99
Es	1.169335	-0.375670	0.583464	99
Es	0.979364	-1.688652	-0.221175	99
Es	0.661543	-1.050866	0.253258	99
Es	-0.176790	0.230344	-0.576925	99
Es	-2.002787	-0.166294	-0.836707	99
Es	1.542377	0.327925	0.706808	99
Es	0.500420	-1.156279	0.271653	99
Es	1.361405	-1.741626	-0.677622	99
Es	0.098757	-0.443094	-0.200653	99
Es	0.631555	1.413811	0.053515	99
Es	-0.912410	0.296646	-0.526085	99
Es	0.324908	1.261933	0.472949	99
Es	1.273930	-2.007688	-0.541501	99
Es	0.043035	-1.641739	1.546769	99
Es	0.512237	-0.983760	0.358119	99
Es	-0.387829	-1.678882	1.263718	99
Es	0.069424	0.241355	-1.265459	99
Es	0.912390	0.873476	0.416149	99
Es	-1.678027	0.391205	-0.484119	99
Es	0.506824	1.212838	0.234945	99
Es	0.572800	-1.081060	0.326738	99
Es	-1.872439	1.019587	-0.805929	99
Es	1.425025	-2.061367	-0.287378	99
Es	-0.220371	-1.529018	1.455095	99
Es	-1.896904	0.399317	0.208669	99
45
Properties=species:S:1:pos:R:3:Z:I:1 energy=-739.2634254194287 field_type=dipole dipole="0.000000 0.000000 0.000000" charge=0
C	-1.678107	0.391223	-0.484088	6
C	-0.176907	0.230263	-0.577118	6
O	0.506753	1.212943	0.235022	8
C	1.542593	0.327863	0.706902	6
S	0.572913	-1.081037	0.326602	16
O	-0.220487	-1.529087	1.455252	8
O	1.274053	-2.007867	-0.541658	8
H	-2.184857	-0.430817	-1.000758	1
H	-1.994047	1.327183	-0.955448	1
H	-2.023597	0.405123	0.553712	1
H	0.174983	0.272793	-1.614018	1
H	2.463033	0.422463	0.123472	1
H	1.743673	0.458953	1.772122	1
Es	0.653106	-1.004001	0.365608	99
Es	-0.912392	0.296636	-0.526115	99
Es	-0.220299	-1.528923	1.454980	99
Es	-1.896867	0.399350	0.208664	99
Es	1.359853	-1.742768	-0.680950	99
Es	-1.872518	1.019568	-0.805993	99
Es	1.014004	-2.125958	-0.616600	99
Es	1.273919	-2.007681	-0.541496	99
Es	1.169324	-0.375595	0.583476	99
Es	0.055906	-1.347116	1.025379	99
Es	-0.269374	-1.243490	1.531140	99
Es	0.625157	-1.188594	0.304599	99
Es	0.572919	-1.081035	0.326603	99
Es	0.098792	-0.443116	-0.200742	99
Es	0.506769	1.212638	0.234960	99
Es	1.676589	0.408695	1.414962	99
Es	0.489560	-1.092952	0.408009	99
Es	-0.176790	0.230344	-0.576926	99
Es	0.912934	0.873856	0.416067	99
Es	0.050943	-1.647628	1.526184	99
Es	1.001969	-1.685302	-0.204357	99
Es	0.630755	1.414992	0.054074	99
Es	-0.389040	-1.677873	1.263022	99
Es	-1.678029	0.391205	-0.484117	99
Es	0.250003	0.837841	-0.079126	99
Es	2.149209	0.373391	0.308178	99
Es	0.325154	1.260698	0.472605	99
Es	-2.002760	-0.166323	-0.836607	99
Es	1.429609	-2.095096	-0.307105	99
Es	0.523828	-1.038622	0.228250	99
Es	0.069388	0.241376	-1.265440	99
Es	1.542378	0.327924	0.706808	99
45
Properties=species:S:1:pos:R:3:Z:I:1 energy=-739.2634254194287 field_type=dipole dipole="0.000000 0.000000 0.000000" charge=0
C	-1.678107	0.391223	-0.484088	6
C	-0.176907	0.230263	-0.577118	6
O	0.506753	1.212943	0.235022	8
C	1.542593	0.327863	0.706902	6
S	0.572913	-1.081037	0.326602	16
O	-0.220487	-1.529087	1.455252	8
O	1.274053	-2.007867	-0.541658	8
H	-2.184857	-0.430817	-1.000758	1
H	-1.994047	1.327183	-0.955448	1
H	-2.023597	0.405123	0.553712	1
H	0.174983	0.272793	-1.614018	1
H	2.463033	0.422463	0.123472	1
H	1.743673	0.458953	1.772122	1
Es	-0.279822	-1.236458	1.506469	99
Es	0.630113	1.416002	0.054664	99
Es	2.149234	0.373367	0.308118	99
Es	0.098763	-0.443085	-0.200693	99
Es	0.044786	-1.635782	1.549817	99
Es	0.069448	0.241321	-1.265350	99
Es	1.169321	-0.375628	0.583565	99
Es	1.676632	0.408711	1.414843	99
Es	0.506939	1.212582	0.234812	99
Es	-0.220283	-1.528985	1.454991	99
Es	-1.896937	0.399309	0.208676	99
Es	0.065742	-1.358663	1.027132	99
Es	-0.382255	-1.685172	1.262313	99
Es	0.533498	-0.976610	0.289140	99
Es	0.615789	-1.070394	0.438199	99
Es	-1.678027	0.391205	-0.484118	99
Es	0.572627	-1.080951	0.326654	99
Es	0.249813	0.837861	-0.079197	99
Es	0.325580	1.259683	0.472014	99
Es	-1.872518	1.019536	-0.805962	99
Es	0.483995	-1.161158	0.323532	99
Es	1.003440	-1.684947	-0.203897	99
Es	1.010382	-2.110107	-0.627615	99
Es	0.658605	-1.116097	0.255529	99
Es	-0.176792	0.230342	-0.576928	99
Es	-0.912413	0.296673	-0.526191	99
Es	1.419266	-2.111462	-0.306723	99
Es	0.913139	0.873954	0.416362	99
Es	1.273910	-2.007660	-0.541465	99
Es	-2.002725	-0.166277	-0.836666	99
Es	1.372367	-1.742592	-0.670842	99
Es	1.542379	0.327923	0.706809	99
45
Properties=species:S:1:pos:R:3:Z:I:1 energy=-739.2634254194287 field_type=dipole dipole="0.000000 0.000000 0.000000" charge=0
C	-1.678107	0.391223	-0.484088	6
C	-0.176907	0.230263	-0.577118	6
O	0.506753	1.212943	0.235022	8
C	1.542593	0.327863	0.706902	6
S	0.572913	-1.081037	0.326602	16
O	-0.220487	-1.529087	1.455252	8
O	1.274053	-2.007867	-0.541658	8
H	-2.184857	-0.430817	-1.000758	1
H	-1.994047	1.327183	-0.955448	1
H	-2.023597	0.405123	0.553712	1
H	0.174983	0.272793	-1.614018	1
H	2.463033	0.422463	0.123472	1
H	1.743673	0.458953	1.772122	1
Es	1.430813	-2.045525	-0.282868	99
Es	1.049383	-2.170441	-0.616515	99
Es	-1.872581	1.019583	-0.806007	99
Es	1.169378	-0.375705	0.583475	99
Es	0.249030	0.837682	-0.078412	99
Es	-1.896959	0.399293	0.208593	99
Es	-2.002641	-0.166337	-0.836630	99
Es	2.149257	0.373435	0.308293	99
Es	0.325732	1.262702	0.471402	99
Es	-0.912375	0.296657	-0.526168	99
Es	-0.176792	0.230343	-0.576930	99
Es	1.273935	-2.007687	-0.541479	99
Es	0.069466	0.241325	-1.265310	99
Es	0.561570	-1.011773	0.230083	99
Es	0.972489	-1.691628	-0.226885	99
Es	0.572843	-1.081015	0.326678	99
Es	-1.678035	0.391201	-0.484117	99
Es	0.484042	-1.159014	0.330014	99
Es	-0.376970	-1.690324	1.261419	99
Es	1.676550	0.408640	1.414836	99
Es	0.098796	-0.443046	-0.200727	99
Es	0.060794	-1.350269	1.027020	99
Es	0.912476	0.873630	0.417431	99
Es	0.506806	1.212588	0.234979	99
Es	0.674410	-1.139464	0.320610	99
Es	0.571684	-1.013955	0.425677	99
Es	0.631482	1.413581	0.053245	99
Es	-0.285719	-1.242099	1.516934	99
Es	1.542379	0.327923	0.706809	99
Es	-0.220314	-1.528965	1.455002	99
Es	0.050319	-1.633383	1.540300	99
Es	1.352748	-1.741514	-0.682761	99
45
Properties=species:S:1:pos:R:3:Z:I:1 energy=-739.2634254194287 field_type=dipole dipole="0.000000 0.000000 0.000000" charge=0
C	-1.678107	0.391223	-0.484088	6
C	-0.176907	0.230263	-0.577118	6
O	0.506753	1.212943	0.235022	8
C	1.542593	0.327863	0.706902	6
S	0.572913	-1.081037	0.326602	16
O	-0.220487	-1.529087	1.455252	8
O	1.274053	-2.007867	-0.541658	8
H	-2.184857	-0.430817	-1.000758	1
H	-1.994047	1.327183	-0.955448	1
H	-2.023597	0.405123	0.553712	1
H	0.174983	0.272793	-1.614018	1
H	2.463033	0.422463	0.123472	1
H	1.743673	0.458953	1.772122	1
Es	0.685677	-1.100090	0.359724	99
Es	1.169339	-0.375690	0.583559	99
Es	0.633279	1.407931	0.051398	99
Es	0.064310	-1.361979	1.024636	99
Es	1.676681	0.408701	1.414782	99
Es	0.522219	-1.184033	0.299137	99
Es	0.069453	0.241280	-1.265259	99
Es	-0.912428	0.296654	-0.526219	99
Es	0.098828	-0.443047	-0.200774	99
Es	0.506816	1.212687	0.234959	99
Es	0.572880	-1.080989	0.326524	99
Es	1.049467	-2.169730	-0.623953	99
Es	0.570207	-1.008757	0.231734	99
Es	-0.220351	-1.529002	1.455060	99
Es	0.911696	0.873756	0.419505	99
Es	0.513577	-1.031342	0.415954	99
Es	-2.002755	-0.166297	-0.836672	99
Es	1.361477	-1.741913	-0.676331	99
Es	-0.390171	-1.680575	1.266885	99
Es	-0.176791	0.230343	-0.576927	99
Es	1.273918	-2.007675	-0.541494	99
Es	-1.896931	0.399319	0.208619	99
Es	1.542375	0.327925	0.706807	99
Es	2.149180	0.373365	0.308206	99
Es	0.249142	0.836974	-0.077937	99
Es	0.044287	-1.639405	1.546463	99
Es	-1.872529	1.019526	-0.805928	99
Es	-0.269964	-1.234069	1.507650	99
Es	1.422689	-2.047733	-0.279217	99
Es	-1.678029	0.391205	-0.484118	99
Es	0.324653	1.268855	0.470712	99
Es	0.971793	-1.689755	-0.229493	99
45
Properties=species:S:1:pos:R:3:Z:I:1 energy=-739.2634254194287 field_type=dipole dipole="0.000000 0.000000 0.000000" charge=0
C	-1.678107	0.391223	-0.484088	6
C	-0.176907	0.230263	-0.577118	6
O	0.506753	1.212943	0.235022	8
C	1.542593	0.327863	0.706902	6
S	0.572913	-1.081037	0.326602	16
O	-0.220487	-1.529087	1.455252	8
O	1.274053	-2.007867	-0.541658	8
H	-2.184857	-0.430817	-1.000758	1
H	-1.994047	1.327183	-0.955448	1
H	-2.023597	0.405123	0.553712	1
H	0.174983	0.272793	-1.614018	1
H	2.463033	0.422463	0.123472	1
H	1.743673	0.458953	1.772122	1
Es	1.428169	-2.146317	-0.341927	99
Es	-0.276384	-1.231515	1.493690	99
Es	0.984983	-2.074771	-0.610168	99
Es	0.690493	-1.043527	0.343061	99
Es	0.070980	-1.367842	1.026693	99
Es	1.273952	-2.007696	-0.541520	99
Es	-0.912484	0.296613	-0.526194	99
Es	1.542376	0.327923	0.706806	99
Es	0.098806	-0.443024	-0.200817	99
Es	-0.220296	-1.528982	1.455004	99
Es	0.552624	-1.059324	0.354829	99
Es	1.676657	0.408608	1.414832	99
Es	1.034181	-1.688664	-0.180758	99
Es	0.551303	-1.198488	0.361868	99
Es	0.912497	0.873717	0.418112	99
Es	-0.385466	-1.684372	1.265317	99
Es	-1.678036	0.391203	-0.484115	99
Es	-2.002717	-0.166331	-0.836608	99
Es	0.506825	1.212615	0.234951	99
Es	2.149147	0.373402	0.308304	99
Es	0.039335	-1.632306	1.560029	99
Es	-0.176792	0.230339	-0.576928	99
Es	0.248571	0.837672	-0.078620	99
Es	-1.896892	0.399311	0.208594	99
Es	0.325862	1.265092	0.471004	99
Es	0.069402	0.241244	-1.265216	99
Es	1.358044	-1.739371	-0.676121	99
Es	0.518412	-1.045420	0.217365	99
Es	-1.872559	1.019591	-0.805981	99
Es	0.631888	1.411192	0.053187	99
Es	1.169402	-0.375697	0.583412	99
Es	0.551713	-1.058438	0.355909	99
45
Properties=species:S:1:pos:R:3:Z:I:1 energy=-739.2634254194287 field_type=dipole dipole="0.000000 0.000000 0.000000" charge=0
C	-1.678107	0.391223	-0.484088	6
C	-0.176907	0.230263	-0.577118	6
O	0.506753	1.212943	0.235022	8
C	1.542593	0.327863	0.706902	6
S	0.572913	-1.081037	0.326602	16
O	-0.220487	-1.529087	1.455252	8
O	1.274053	-2.007867	-0.541658	8
H	-2.184857	-0.430817	-1.000758	1
H	-1.994047	1.327183	-0.955448	1
H	-2.023597	0.405123	0.553712	1
H	0.174983	0.272793	-1.614018	1
H	2.463033	0.422463	0.123472	1
H	1.743673	0.458953	1.772122	1
Es	0.054975	-1.635050	1.533554	99
Es	1.542379	0.327922	0.706809	99
Es	0.980823	-1.689301	-0.220744	99
Es	-0.912490	0.296681	-0.526249	99
Es	0.069440	0.241239	-1.265185	99
Es	-0.270968	-1.238303	1.517847	99
Es	-1.678028	0.391205	-0.484118	99
Es	0.631327	1.412279	0.054042	99
Es	-2.002700	-0.166340	-0.836654	99
Es	1.273974	-2.007761	-0.541516	99
Es	1.356209	-1.741509	-0.680927	99
Es	0.544764	-1.162477	0.245617	99
Es	0.912789	0.873803	0.418222	99
Es	-0.388781	-1.687413	1.273256	99
Es	0.572814	-1.081050	0.326624	99
Es	0.664775	-1.013458	0.287192	99
Es	1.676700	0.408642	1.414777	99
Es	0.506801	1.212802	0.234994	99
Es	1.038010	-2.157006	-0.618681	99
Es	0.248906	0.837971	-0.079268	99
Es	-0.220283	-1.528939	1.454992	99
Es	0.603173	-1.135251	0.426851	99
Es	0.098851	-0.442979	-0.200799	99
Es	1.169376	-0.375668	0.583505	99
Es	0.479044	-1.012978	0.346772	99
Es	-0.176791	0.230343	-0.576927	99
Es	1.430296	-2.061240	-0.288619	99
Es	2.149142	0.373340	0.308270	99
Es	-1.896903	0.399289	0.208618	99
Es	0.325772	1.263458	0.470618	99
Es	0.053208	-1.355348	1.021046	99
Es	-1.872605	1.019536	-0.805928	99
45
Properties=species:S:1:pos:R:3:Z:I:1 energy=-739.2634254194287 field_type=dipole dipole="0.000000 0.000000 0.000000" charge=0
C	-1.678107	0.391223	-0.484088	6
C	-0.176907	0.230263	-0.577118	6
O	0.506753	1.212943	0.235022	8
C	1.542593	0.327863	0.706902	6
S	0.572913	-1.081037	0.326602	16
O	-0.220487	-1.529087	1.455252	8
O	1.274053	-2.007867	-0.541658	8
H	-2.184857	-0.430817	-1.000758	1
H	-1.994047	1.327183	-0.955448	1
H	-2.023597	0.405123	0.553712	1
H	0.174983	0.272793	-1.614018	1
H	2.463033	0.422463	0.123472	1
H	1.743673	0.458953	1.772122	1
Es	0.966806	-2.038020	-0.596418	99
Es	1.542380	0.327923	0.706810	99
Es	0.549107	-1.201142	0.321142	99
Es	0.325993	1.264593	0.470387	99
Es	1.676712	0.408623	1.414746	99
Es	0.069453	0.241189	-1.265139	99
Es	0.631637	1.411484	0.053920	99
Es	0.506827	1.212615	0.234954	99
Es	-1.896930	0.399320	0.208584	99
Es	0.248543	0.837919	-0.079173	99
Es	0.098774	-0.443078	-0.200905	99
Es	0.541770	-1.025676	0.225193	99
Es	-0.220319	-1.528988	1.455019	99
Es	0.560093	-1.072980	0.333567	99
Es	0.528354	-1.050587	0.398266	99
Es	-2.002757	-0.166306	-0.836665	99
Es	-1.678029	0.391205	-0.484118	99
Es	2.149106	0.373341	0.308297	99
Es	1.273900	-2.007639	-0.541419	99
Es	0.685199	-1.054786	0.354846	99
Es	-0.243230	-1.220871	1.485129	99
Es	1.352972	-1.735585	-0.674635	99
Es	0.129593	-1.392192	1.071243	99
Es	-0.381994	-1.594823	1.196688	99
Es	0.912657	0.873762	0.418567	99
Es	-1.872537	1.019541	-0.805919	99
Es	-0.176793	0.230342	-0.576928	99
Es	-0.055835	-1.708115	1.592737	99
Es	1.423330	-2.179568	-0.375442	99
Es	-0.912512	0.296611	-0.526258	99
Es	1.062398	-1.695988	-0.162503	99
Es	1.169328	-0.375686	0.583420	99
45
Properties=species:S:1:pos:R:3:Z:I:1 energy=-739.2634254194287 field_type=dipole dipole="0.000000 0.000000 0.000000" charge=0
C	-1.678107	0.391223	-0.484088	6
C	-0.176907	0.230263	-0.577118	6
O	0.506753	1.212943	0.235022	8
C	1.542593	0.327863	0.706902	6
S	0.572913	-1.081037	0.326602	16
O	-0.220487	-1.529087	1.455252	8
O	1.274053	-2.007867	-0.541658	8
H	-2.184857	-0.430817	-1.000758	1
H	-1.994047	1.327183	-0.955448	1
H	-2.023597	0.405123	0.553712	1
H	0.174983	0.272793	-1.614018	1
H	2.463033	0.422463	0.123472	1
H	1.743673	0.458953	1.772122	1
Es	0.506896	1.212571	0.234839	99
Es	-0.220324	-1.528948	1.455123	99
Es	0.472135	-1.113550	0.378791	99
Es	-0.176794	0.230342	-0.576930	99
Es	1.430611	-2.141150	-0.339647	99
Es	-0.271012	-1.233931	1.502826	99
Es	-1.678029	0.391205	-0.484117	99
Es	-0.912488	0.296577	-0.526232	99
Es	1.169393	-0.375689	0.583462	99
Es	0.248435	0.838591	-0.080003	99
Es	-1.872579	1.019542	-0.805935	99
Es	-0.390403	-1.690432	1.275822	99
Es	0.630193	1.413875	0.055751	99
Es	0.326650	1.261591	0.470550	99
Es	1.542377	0.327925	0.706807	99
Es	0.059769	-1.363610	1.021437	99
Es	0.986396	-2.080232	-0.608101	99
Es	0.913458	0.873797	0.417466	99
Es	0.652766	-1.051390	0.409743	99
Es	2.149077	0.373324	0.308337	99
Es	0.572921	-1.081038	0.326597	99
Es	0.614381	-1.171441	0.262362	99
Es	0.098908	-0.442942	-0.200872	99
Es	1.032635	-1.687922	-0.182370	99
Es	0.552373	-0.987781	0.255557	99
Es	1.676742	0.408607	1.414767	99
Es	0.050110	-1.628147	1.545477	99
Es	0.069416	0.241199	-1.265117	99
Es	-2.002749	-0.166309	-0.836622	99
Es	1.355751	-1.739841	-0.678855	99
Es	-1.896922	0.399319	0.208564	99
Es	1.273905	-2.007674	-0.541482	99
45
Properties=species:S:1:pos:R:3:Z:I:1 energy=-739.2634254194287 field_type=dipole dipole="0.000000 0.000000 0.000000" charge=0
C	-1.678107	0.391223	-0.484088	6
C	-0.176907	0.230263	-0.577118	6
O	0.506753	1.212943	0.235022	8
C	1.542593	0.327863	0.706902	6
S	0.572913	-1.081037	0.326602	16
O	-0.220487	-1.529087	1.455252	8
O	1.274053	-2.007867	-0.541658	8
H	-2.184857	-0.430817	-1.000758	1
H	-1.994047	1.327183	-0.955448	1
H	-2.023597	0.405123	0.553712	1
H	0.174983	0.272793	-1.614018	1
H	2.463033	0.422463	0.123472	1
H	1.743673	0.458953	1.772122	1
Es	0.326344	1.268364	0.469407	99
Es	-0.220328	-1.528986	1.455016	99
Es	1.420019	-2.181075	-0.372596	99
Es	0.912087	0.873506	0.419982	99
Es	1.356789	-1.737365	-0.674410	99
Es	0.098867	-0.442912	-0.200855	99
Es	0.069497	0.241140	-1.265034	99
Es	0.506872	1.212585	0.234907	99
Es	1.542379	0.327923	0.706809	99
Es	1.169374	-0.375678	0.583465	99
Es	-0.912534	0.296557	-0.526383	99
Es	2.149077	0.373344	0.308354	99
Es	-0.389568	-1.689078	1.274486	99
Es	0.967434	-2.036257	-0.597965	99
Es	0.051608	-1.631293	1.540149	99
Es	1.273874	-2.007637	-0.541374	99
Es	0.498493	-1.163987	0.282824	99
Es	0.247569	0.837694	-0.078339	99
Es	0.632739	1.408320	0.052705	99
Es	-1.678029	0.391205	-0.484119	99
Es	-1.896900	0.399313	0.208575	99
Es	0.057488	-1.361054	1.021415	99
Es	-1.872564	1.019535	-0.805886	99
Es	-0.176791	0.230342	-0.576927	99
Es	0.629946	-1.030222	0.238357	99
Es	-0.271064	-1.234666	1.509605	99
Es	1.061250	-1.694475	-0.164106	99
Es	-2.002797	-0.166280	-0.836641	99
Es	1.676756	0.408590	1.414709	99
Es	0.652292	-1.131367	0.401694	99
Es	0.572922	-1.081036	0.326576	99
Es	0.510899	-0.998610	0.383595	99
45
Properties=species:S:1:pos:R:3:Z:I:1 energy=-739.2634254194287 field_type=dipole dipole="0.000000 0.000000 0.000000" charge=0
C	-1.678107	0.391223	-0.484088	6
C	-0.176907	0.230263	-0.577118	6
O	0.506753	1.212943	0.235022	8
C	1.542593	0.327863	0.706902	6
S	0.572913	-1.081037	0.326602	16
O	-0.220487	-1.529087	1.455252	8
O	1.274053	-2.007867	-0.541658	8
H	-2.184857	-0.430817	-1.000758	1
H	-1.994047	1.327183	-0.955448	1
H	-2.023597	0.405123	0.553712	1
H	0.174983	0.272793	-1.614018	1
H	2.463033	0.422463	0.123472	1
H	1.743673	0.458953	1.772122	1
Es	0.052244	-1.629546	1.543591	99
Es	0.098933	-0.442838	-0.200850	99
Es	-0.220377	-1.528996	1.455089	99
Es	1.423652	-2.013859	-0.271146	99
Es	0.954096	-1.701870	-0.239633	99
Es	-0.392078	-1.688644	1.279103	99
Es	0.572899	-1.081045	0.326599	99
Es	0.530934	-1.133049	0.229100	99
Es	2.149083	0.373314	0.308332	99
Es	1.350072	-1.736020	-0.678498	99
Es	-1.896974	0.399361	0.208519	99
Es	0.500326	-0.993036	0.358586	99
Es	0.326366	1.266358	0.469575	99
Es	1.542380	0.327922	0.706810	99
Es	-2.002765	-0.166303	-0.836620	99
Es	1.676757	0.408578	1.414731	99
Es	1.169439	-0.375675	0.583497	99
Es	0.681444	-1.037401	0.304733	99
Es	1.273874	-2.007607	-0.541414	99
Es	-0.268020	-1.232650	1.503757	99
Es	0.631769	1.409633	0.053970	99
Es	-0.912510	0.296538	-0.526291	99
Es	1.077594	-2.197450	-0.619812	99
Es	0.247868	0.838044	-0.079248	99
Es	-1.872571	1.019493	-0.805936	99
Es	-0.176794	0.230342	-0.576929	99
Es	-1.678036	0.391208	-0.484116	99
Es	0.056392	-1.365261	1.019116	99
Es	0.912714	0.873783	0.419358	99
Es	0.506842	1.212672	0.234945	99
Es	0.069476	0.241129	-1.264985	99
Es	0.578968	-1.160685	0.414061	99
45
Properties=species:S:1:pos:R:3:Z:I:1 energy=-739.2634254194287 field_type=dipole dipole="0.000000 0.000000 0.000000" charge=0
C	-1.678107	0.391223	-0.484088	6
C	-0.176907	0.230263	-0.577118	6
O	0.506753	1.212943	0.235022	8
C	1.542593	0.327863	0.706902	6
S	0.572913	-1.081037	0.326602	16
O	-0.220487	-1.529087	1.455252	8
O	1.274053	-2.007867	-0.541658	8
H	-2.184857	-0.430817	-1.000758	1
H	-1.994047	1.327183	-0.955448	1
H	-2.023597	0.405123	0.553712	1
H	0.174983	0.272793	-1.614018	1
H	2.463033	0.422463	0.123472	1
H	1.743673	0.458953	1.772122	1
Es	0.619125	-1.190038	0.326408	99
Es	0.612117	-1.021559	0.421407	99
Es	0.605892	-1.024801	0.228463	99
Es	0.054695	-1.362235	1.019497	99
Es	2.149038	0.373294	0.308379	99
Es	-1.872567	1.019508	-0.805943	99
Es	-1.678028	0.391203	-0.484118	99
Es	1.676787	0.408563	1.414697	99
Es	-0.389624	-1.692411	1.278873	99
Es	1.169403	-0.375656	0.583457	99
Es	1.542381	0.327922	0.706810	99
Es	-0.176794	0.230342	-0.576929	99
Es	-0.912528	0.296502	-0.526340	99
Es	1.413869	-2.182073	-0.366481	99
Es	-2.002790	-0.166322	-0.836591	99
Es	-0.220347	-1.528999	1.455055	99
Es	0.069470	0.241111	-1.264986	99
Es	0.972247	-2.034757	-0.608396	99
Es	0.326698	1.265812	0.469307	99
Es	0.054524	-1.627140	1.539844	99
Es	0.631597	1.410235	0.054080	99
Es	0.912806	0.873932	0.419462	99
Es	-1.896925	0.399390	0.208534	99
Es	0.573367	-1.080790	0.326723	99
Es	1.366110	-1.737348	-0.667577	99
Es	0.247696	0.837979	-0.079154	99
Es	0.506823	1.212624	0.234959	99
Es	0.098851	-0.442934	-0.200895	99
Es	-0.271076	-1.234290	1.507404	99
Es	0.454059	-1.087991	0.330047	99
Es	1.053280	-1.695038	-0.166599	99
Es	1.273843	-2.007596	-0.541403	99
