43
Properties=species:S:1:pos:R:3:Z:I:1 energy=-661.4593372843789 field_type=dipole dipole="0.000000 0.000000 0.000000" charge=0
C	-1.450454	-1.327596	0.114760	6
C	0.065716	-1.223166	0.064670	6
C	0.517015	0.199074	0.061330	6
N	0.702215	0.928434	1.143360	7
N	1.120265	2.210094	0.845410	7
C	1.235565	2.397984	-0.450730	6
S	0.844915	1.031484	-1.408620	16
H	-1.757575	-2.377966	0.137480	1
H	-1.910554	-0.858306	-0.761390	1
H	-1.852005	-0.836716	1.007910	1
H	0.442356	-1.753816	-0.817690	1
H	0.490766	-1.729046	0.939680	1
H	1.551775	3.339544	-0.876170	1
Es	0.300576	-0.488434	0.047559	99
Es	1.235528	2.397866	-0.450843	99
Es	1.050433	1.758604	-0.953266	99
Es	0.447042	1.117961	-1.579007	99
Es	1.188757	2.459330	1.105199	99
Es	0.891683	2.327649	0.247604	99
Es	0.827710	1.009859	-1.294148	99
Es	-0.677263	-1.253795	0.085328	99
Es	0.517038	0.199122	0.061178	99
Es	-1.450392	-1.327595	0.114745	99
Es	-1.755536	-1.006484	-0.485354	99
Es	0.662646	0.579468	-0.677770	99
Es	-1.650816	-2.042936	0.127818	99
Es	1.120147	2.209664	0.844932	99
Es	0.353679	-1.551586	0.650947	99
Es	0.374946	0.748355	0.637403	99
Es	0.652470	0.811106	1.486803	99
Es	0.322747	-1.566449	-0.541687	99
Es	0.844881	1.031505	-1.408630	99
Es	0.908369	1.563224	0.959967	99
Es	0.065712	-1.223066	0.064648	99
Es	-1.715823	-0.995479	0.718231	99
Es	0.702280	0.928623	1.142774	99
Es	1.443646	3.014191	-0.749629	99
Es	1.419876	2.157839	0.270661	99
Es	0.740410	1.059115	-1.459191	99
Es	0.921856	1.121435	-1.420285	99
Es	0.889599	0.936430	-1.457886	99
Es	0.905109	0.586591	0.657812	99
Es	1.240441	0.872475	-1.516468	99
43
Properties=species:S:1:pos:R:3:Z:I:1 energy=-661.4593372843789 field_type=dipole dipole="0.000000 0.000000 0.000000" charge=0
C	-1.450454	-1.327596	0.114760	6
C	0.065716	-1.223166	0.064670	6
C	0.517015	0.199074	0.061330	6
N	0.702215	0.928434	1.143360	7
N	1.120265	2.210094	0.845410	7
C	1.235565	2.397984	-0.450730	6
S	0.844915	1.031484	-1.408620	16
H	-1.757575	-2.377966	0.137480	1
H	-1.910554	-0.858306	-0.761390	1
H	-1.852005	-0.836716	1.007910	1
H	0.442356	-1.753816	-0.817690	1
H	0.490766	-1.729046	0.939680	1
H	1.551775	3.339544	-0.876170	1
Es	1.188618	2.459512	1.105042	99
Es	0.300529	-0.488543	0.047579	99
Es	0.702290	0.928601	1.142743	99
Es	0.445570	1.120709	-1.570593	99
Es	-1.715823	-0.995476	0.718187	99
Es	-0.677308	-1.253783	0.085370	99
Es	0.846166	1.030895	-1.410551	99
Es	-1.450394	-1.327595	0.114746	99
Es	0.664504	0.578718	-0.677639	99
Es	1.443759	3.014269	-0.749513	99
Es	0.883289	0.980992	-1.502264	99
Es	0.353761	-1.551475	0.650916	99
Es	0.065713	-1.223069	0.064649	99
Es	0.322743	-1.566490	-0.541624	99
Es	1.235536	2.397864	-0.450838	99
Es	1.052128	1.758121	-0.953293	99
Es	0.517024	0.199128	0.061178	99
Es	0.652605	0.811173	1.486914	99
Es	0.755877	1.108926	-1.435306	99
Es	0.908103	1.563221	0.959917	99
Es	0.892073	2.327416	0.247796	99
Es	0.804525	0.948612	-1.337852	99
Es	1.120149	2.209660	0.844924	99
Es	0.375170	0.748381	0.637405	99
Es	0.904832	0.586692	0.657705	99
Es	-1.650801	-2.042927	0.127880	99
Es	0.934604	1.088369	-1.353691	99
Es	1.238497	0.871610	-1.525880	99
Es	1.419611	2.157619	0.270878	99
Es	-1.755598	-1.006542	-0.485340	99
43
Properties=species:S:1:pos:R:3:Z:I:1 energy=-661.4593372843789 field_type=dipole dipole="0.000000 0.000000 0.000000" charge=0
C	-1.450454	-1.327596	0.114760	6
C	0.065716	-1.223166	0.064670	6
C	0.517015	0.199074	0.061330	6
N	0.702215	0.928434	1.143360	7
N	1.120265	2.210094	0.845410	7
C	1.235565	2.397984	-0.450730	6
S	0.844915	1.031484	-1.408620	16
H	-1.757575	-2.377966	0.137480	1
H	-1.910554	-0.858306	-0.761390	1
H	-1.852005	-0.836716	1.007910	1
H	0.442356	-1.753816	-0.817690	1
H	0.490766	-1.729046	0.939680	1
H	1.551775	3.339544	-0.876170	1
Es	0.322833	-1.566447	-0.541635	99
Es	0.843317	1.030902	-1.409011	99
Es	1.120154	2.209672	0.844927	99
Es	0.904748	0.587181	0.657625	99
Es	-1.450394	-1.327595	0.114746	99
Es	1.443705	3.014294	-0.749465	99
Es	0.065711	-1.223066	0.064650	99
Es	0.900583	0.963720	-1.331808	99
Es	-1.715876	-0.995514	0.718156	99
Es	1.238031	0.870819	-1.527624	99
Es	1.188587	2.459542	1.104973	99
Es	0.730672	1.003446	-1.407931	99
Es	1.052323	1.758214	-0.953400	99
Es	-0.677347	-1.253725	0.085375	99
Es	1.419384	2.157604	0.270996	99
Es	0.353733	-1.551475	0.650885	99
Es	0.375686	0.748485	0.637357	99
Es	0.702286	0.928606	1.142740	99
Es	0.664535	0.578710	-0.677702	99
Es	-1.650796	-2.042890	0.127870	99
Es	0.300589	-0.488678	0.047776	99
Es	0.908012	1.563246	0.960163	99
Es	-1.755608	-1.006559	-0.485339	99
Es	0.652389	0.810850	1.486894	99
Es	0.891325	1.015034	-1.515083	99
Es	0.858840	1.145374	-1.376100	99
Es	0.445500	1.120506	-1.568768	99
Es	1.235534	2.397866	-0.450845	99
Es	0.892262	2.327343	0.247846	99
Es	0.517035	0.199123	0.061178	99
43
Properties=species:S:1:pos:R:3:Z:I:1 energy=-661.4593372843789 field_type=dipole dipole="0.000000 0.000000 0.000000" charge=0
C	-1.450454	-1.327596	0.114760	6
C	0.065716	-1.223166	0.064670	6
C	0.517015	0.199074	0.061330	6
N	0.702215	0.928434	1.143360	7
N	1.120265	2.210094	0.845410	7
C	1.235565	2.397984	-0.450730	6
S	0.844915	1.031484	-1.408620	16
H	-1.757575	-2.377966	0.137480	1
H	-1.910554	-0.858306	-0.761390	1
H	-1.852005	-0.836716	1.007910	1
H	0.442356	-1.753816	-0.817690	1
H	0.490766	-1.729046	0.939680	1
H	1.551775	3.339544	-0.876170	1
Es	1.188494	2.459809	1.104866	99
Es	1.237748	0.870899	-1.528416	99
Es	0.322842	-1.566376	-0.541609	99
Es	-1.715879	-0.995527	0.718133	99
Es	0.759016	1.070946	-1.335121	99
Es	0.800904	1.014419	-1.513232	99
Es	0.517037	0.199122	0.061177	99
Es	0.652367	0.810581	1.486755	99
Es	0.845040	1.031542	-1.408726	99
Es	0.664707	0.578715	-0.677743	99
Es	1.120149	2.209670	0.844921	99
Es	0.889901	0.928567	-1.366676	99
Es	0.908323	1.563289	0.960536	99
Es	0.375896	0.748564	0.637311	99
Es	1.052556	1.757936	-0.953395	99
Es	-0.677358	-1.253718	0.085337	99
Es	0.929899	1.112826	-1.415740	99
Es	0.445399	1.120909	-1.568761	99
Es	0.904435	0.587469	0.657642	99
Es	-1.450394	-1.327595	0.114746	99
Es	1.443644	3.014378	-0.749368	99
Es	0.353764	-1.551511	0.650878	99
Es	1.419040	2.157379	0.271225	99
Es	0.892594	2.327070	0.247752	99
Es	-1.755618	-1.006559	-0.485295	99
Es	0.065712	-1.223068	0.064649	99
Es	0.702288	0.928606	1.142743	99
Es	1.235530	2.397865	-0.450843	99
Es	0.300563	-0.488756	0.047834	99
Es	-1.650848	-2.042860	0.127863	99
43
Properties=species:S:1:pos:R:3:Z:I:1 energy=-661.4593372843789 field_type=dipole dipole="0.000000 0.000000 0.000000" charge=0
C	-1.450454	-1.327596	0.114760	6
C	0.065716	-1.223166	0.064670	6
C	0.517015	0.199074	0.061330	6
N	0.702215	0.928434	1.143360	7
N	1.120265	2.210094	0.845410	7
C	1.235565	2.397984	-0.450730	6
S	0.844915	1.031484	-1.408620	16
H	-1.757575	-2.377966	0.137480	1
H	-1.910554	-0.858306	-0.761390	1
H	-1.852005	-0.836716	1.007910	1
H	0.442356	-1.753816	-0.817690	1
H	0.490766	-1.729046	0.939680	1
H	1.551775	3.339544	-0.876170	1
Es	1.443692	3.014411	-0.749296	99
Es	1.120158	2.209692	0.844918	99
Es	0.892353	2.326926	0.248159	99
Es	0.353830	-1.551515	0.650747	99
Es	-1.650859	-2.042843	0.127826	99
Es	1.189371	2.459718	1.104469	99
Es	1.418341	2.157425	0.271015	99
Es	-0.677413	-1.253714	0.085485	99
Es	0.663300	0.579256	-0.677869	99
Es	0.517037	0.199123	0.061179	99
Es	0.843550	1.032393	-1.409276	99
Es	0.376580	0.748834	0.637241	99
Es	-1.450393	-1.327595	0.114746	99
Es	1.051122	1.758249	-0.953526	99
Es	-1.755598	-1.006559	-0.485278	99
Es	1.239418	0.872641	-1.521122	99
Es	0.904387	0.587146	0.657792	99
Es	0.956978	1.043224	-1.378155	99
Es	0.702285	0.928597	1.142741	99
Es	0.908253	1.563328	0.960958	99
Es	0.651688	0.810767	1.486667	99
Es	0.322804	-1.566341	-0.541620	99
Es	0.065713	-1.223068	0.064649	99
Es	0.834667	1.030894	-1.526485	99
Es	-1.715931	-0.995556	0.718113	99
Es	1.235548	2.397859	-0.450840	99
Es	0.446850	1.119090	-1.576401	99
Es	0.804427	0.929684	-1.364317	99
Es	0.300600	-0.488832	0.047935	99
Es	0.784996	1.121353	-1.361010	99
43
Properties=species:S:1:pos:R:3:Z:I:1 energy=-661.4593372843789 field_type=dipole dipole="0.000000 0.000000 0.000000" charge=0
C	-1.450454	-1.327596	0.114760	6
C	0.065716	-1.223166	0.064670	6
C	0.517015	0.199074	0.061330	6
N	0.702215	0.928434	1.143360	7
N	1.120265	2.210094	0.845410	7
C	1.235565	2.397984	-0.450730	6
S	0.844915	1.031484	-1.408620	16
H	-1.757575	-2.377966	0.137480	1
H	-1.910554	-0.858306	-0.761390	1
H	-1.852005	-0.836716	1.007910	1
H	0.442356	-1.753816	-0.817690	1
H	0.490766	-1.729046	0.939680	1
H	1.551775	3.339544	-0.876170	1
Es	0.376582	0.748195	0.637220	99
Es	0.652236	0.810389	1.486703	99
Es	0.908229	1.563346	0.960855	99
Es	-0.677416	-1.253705	0.085444	99
Es	0.904278	0.588304	0.657868	99
Es	-1.450394	-1.327595	0.114746	99
Es	0.845027	1.031554	-1.408517	99
Es	0.322928	-1.566383	-0.541576	99
Es	1.235523	2.397869	-0.450841	99
Es	-1.650933	-2.042828	0.127910	99
Es	0.300563	-0.488899	0.048035	99
Es	1.189011	2.459789	1.104561	99
Es	-1.715951	-0.995491	0.718008	99
Es	0.749122	1.022653	-1.474700	99
Es	-1.755571	-1.006620	-0.485291	99
Es	1.050055	1.758507	-0.953651	99
Es	1.443799	3.014402	-0.749240	99
Es	1.418274	2.157608	0.271063	99
Es	0.517037	0.199122	0.061175	99
Es	0.892525	2.326647	0.248207	99
Es	1.240395	0.873055	-1.513434	99
Es	0.812353	1.030836	-1.295859	99
Es	0.065713	-1.223070	0.064649	99
Es	1.120153	2.209678	0.844917	99
Es	0.661910	0.579744	-0.678003	99
Es	0.448046	1.116691	-1.583633	99
Es	0.353750	-1.551437	0.650779	99
Es	0.900913	1.133965	-1.432680	99
Es	0.917303	0.939653	-1.428017	99
Es	0.702291	0.928608	1.142744	99
43
Properties=species:S:1:pos:R:3:Z:I:1 energy=-661.4593372843789 field_type=dipole dipole="0.000000 0.000000 0.000000" charge=0
C	-1.450454	-1.327596	0.114760	6
C	0.065716	-1.223166	0.064670	6
C	0.517015	0.199074	0.061330	6
N	0.702215	0.928434	1.143360	7
N	1.120265	2.210094	0.845410	7
C	1.235565	2.397984	-0.450730	6
S	0.844915	1.031484	-1.408620	16
H	-1.757575	-2.377966	0.137480	1
H	-1.910554	-0.858306	-0.761390	1
H	-1.852005	-0.836716	1.007910	1
H	0.442356	-1.753816	-0.817690	1
H	0.490766	-1.729046	0.939680	1
H	1.551775	3.339544	-0.876170	1
Es	1.050363	1.758448	-0.953702	99
Es	1.418158	2.157400	0.271354	99
Es	-1.651017	-2.042779	0.127874	99
Es	0.065712	-1.223068	0.064649	99
Es	0.893137	2.326535	0.248137	99
Es	0.322886	-1.566283	-0.541512	99
Es	1.188830	2.460032	1.104471	99
Es	1.443655	3.014449	-0.749203	99
Es	0.376877	0.748680	0.637373	99
Es	-1.755656	-1.006610	-0.485144	99
Es	0.517037	0.199123	0.061178	99
Es	0.652303	0.810189	1.486636	99
Es	-0.677388	-1.253691	0.085301	99
Es	0.448119	1.117029	-1.582826	99
Es	0.702287	0.928605	1.142744	99
Es	0.908198	0.969365	-1.332855	99
Es	0.747249	1.074022	-1.351035	99
Es	-1.450395	-1.327595	0.114746	99
Es	0.910289	1.120185	-1.448610	99
Es	1.120147	2.209660	0.844926	99
Es	0.662145	0.579695	-0.678005	99
Es	0.844972	1.031594	-1.408648	99
Es	0.353883	-1.551471	0.650830	99
Es	1.235532	2.397865	-0.450842	99
Es	0.300606	-0.489055	0.047997	99
Es	0.813924	0.963506	-1.498010	99
Es	0.903844	0.588196	0.657670	99
Es	0.908097	1.563373	0.961003	99
Es	-1.715904	-0.995541	0.718013	99
Es	1.239862	0.872733	-1.515067	99
43
Properties=species:S:1:pos:R:3:Z:I:1 energy=-661.4593372843789 field_type=dipole dipole="0.000000 0.000000 0.000000" charge=0
C	-1.450454	-1.327596	0.114760	6
C	0.065716	-1.223166	0.064670	6
C	0.517015	0.199074	0.061330	6
N	0.702215	0.928434	1.143360	7
N	1.120265	2.210094	0.845410	7
C	1.235565	2.397984	-0.450730	6
S	0.844915	1.031484	-1.408620	16
H	-1.757575	-2.377966	0.137480	1
H	-1.910554	-0.858306	-0.761390	1
H	-1.852005	-0.836716	1.007910	1
H	0.442356	-1.753816	-0.817690	1
H	0.490766	-1.729046	0.939680	1
H	1.551775	3.339544	-0.876170	1
Es	1.235531	2.397865	-0.450842	99
Es	0.897817	0.933268	-1.369381	99
Es	-1.715972	-0.995552	0.718052	99
Es	0.450051	1.114417	-1.590221	99
Es	1.417688	2.157193	0.271497	99
Es	0.748953	1.051948	-1.342008	99
Es	1.241457	0.874417	-1.507951	99
Es	0.844926	1.031701	-1.408853	99
Es	0.065712	-1.223068	0.064649	99
Es	1.048467	1.758955	-0.953945	99
Es	0.660604	0.580170	-0.678172	99
Es	0.908364	1.563359	0.961160	99
Es	0.652372	0.809958	1.486669	99
Es	1.189006	2.460057	1.104338	99
Es	1.443713	3.014570	-0.749048	99
Es	-1.450396	-1.327595	0.114746	99
Es	0.919548	1.124538	-1.399489	99
Es	0.353900	-1.551501	0.650825	99
Es	0.377177	0.748695	0.637311	99
Es	-0.677445	-1.253664	0.085298	99
Es	-1.650940	-2.042787	0.127827	99
Es	0.517037	0.199123	0.061178	99
Es	0.893332	2.326405	0.248182	99
Es	1.120152	2.209672	0.844908	99
Es	0.702291	0.928610	1.142749	99
Es	-1.755633	-1.006641	-0.485156	99
Es	0.813162	1.017248	-1.519167	99
Es	0.300552	-0.489075	0.048169	99
Es	0.903417	0.588526	0.657627	99
Es	0.322909	-1.566221	-0.541504	99
43
Properties=species:S:1:pos:R:3:Z:I:1 energy=-661.4593372843789 field_type=dipole dipole="0.000000 0.000000 0.000000" charge=0
C	-1.450454	-1.327596	0.114760	6
C	0.065716	-1.223166	0.064670	6
C	0.517015	0.199074	0.061330	6
N	0.702215	0.928434	1.143360	7
N	1.120265	2.210094	0.845410	7
C	1.235565	2.397984	-0.450730	6
S	0.844915	1.031484	-1.408620	16
H	-1.757575	-2.377966	0.137480	1
H	-1.910554	-0.858306	-0.761390	1
H	-1.852005	-0.836716	1.007910	1
H	0.442356	-1.753816	-0.817690	1
H	0.490766	-1.729046	0.939680	1
H	1.551775	3.339544	-0.876170	1
Es	-0.677454	-1.253595	0.085394	99
Es	1.049946	1.758480	-0.953871	99
Es	0.377476	0.748772	0.637346	99
Es	1.240155	0.873288	-1.514941	99
Es	0.847470	1.025551	-1.424800	99
Es	0.661805	0.579748	-0.678124	99
Es	1.235532	2.397865	-0.450844	99
Es	-1.650934	-2.042772	0.127753	99
Es	0.065714	-1.223067	0.064649	99
Es	0.893293	2.326200	0.248373	99
Es	0.353821	-1.551424	0.650825	99
Es	0.908365	1.563389	0.961425	99
Es	1.417351	2.157332	0.271496	99
Es	0.725023	1.071318	-1.432825	99
Es	1.189198	2.460083	1.104153	99
Es	-1.716078	-0.995626	0.718008	99
Es	1.443717	3.014593	-0.749026	99
Es	0.702290	0.928600	1.142751	99
Es	0.517036	0.199121	0.061177	99
Es	0.448903	1.116723	-1.583859	99
Es	0.652289	0.809834	1.486553	99
Es	1.120153	2.209674	0.844920	99
Es	0.844490	1.033163	-1.403644	99
Es	0.942428	1.112840	-1.418586	99
Es	0.323009	-1.566278	-0.541497	99
Es	-1.755580	-1.006610	-0.485165	99
Es	-1.450395	-1.327595	0.114746	99
Es	0.300600	-0.489179	0.048275	99
Es	0.864872	0.915427	-1.358797	99
Es	0.903259	0.588734	0.657576	99
