50
Properties=species:S:1:pos:R:3:Z:I:1 energy=-704.6430529543828 field_type=dipole dipole="0.000000 0.000000 0.000000" charge=0
C	-1.433361	-0.717549	0.601294	6
C	0.090169	-0.668289	0.612844	6
C	0.674609	-1.475590	-0.540696	6
S	0.709759	1.023961	0.633084	16
C	0.156319	1.760221	-0.889196	6
O	0.048709	1.728170	1.716574	8
O	2.158909	0.969071	0.582714	8
H	-1.855561	-0.148709	1.435754	1
H	-1.785471	-1.750689	0.691474	1
H	-1.844571	-0.305819	-0.325456	1
H	0.444299	-1.103839	1.555484	1
H	0.341769	-1.094329	-1.510986	1
H	0.365679	-2.524129	-0.471646	1
H	1.768909	-1.450229	-0.529336	1
H	0.578629	1.212281	-1.732036	1
H	0.514779	2.792201	-0.909276	1
H	-0.933581	1.753271	-0.920596	1
Es	0.309288	1.465237	1.325730	99
Es	0.454688	-2.177121	-0.482854	99
Es	-1.433287	-0.717549	0.601273	99
Es	-0.658573	-0.666418	0.600151	99
Es	0.385167	-1.041579	0.034551	99
Es	0.716484	1.026161	0.607051	99
Es	0.156352	1.760154	-0.889089	99
Es	0.437139	1.384284	-1.438945	99
Es	1.621259	0.993438	0.615864	99
Es	0.826262	1.046650	0.678522	99
Es	-1.712811	-0.338241	1.158926	99
Es	-1.701416	-0.435063	-0.035365	99
Es	0.181150	1.979195	1.625334	99
Es	0.162382	1.540590	1.915056	99
Es	0.674562	-1.475548	-0.540653	99
Es	0.367208	0.130813	0.593692	99
Es	0.439977	-1.206861	-1.196339	99
Es	2.107069	0.809944	0.323391	99
Es	2.162803	0.818644	0.837914	99
Es	0.624966	1.120438	0.632930	99
Es	2.165439	1.266294	0.562550	99
Es	0.398450	2.429559	-0.884156	99
Es	0.334314	-0.936276	1.241173	99
Es	0.712885	1.025015	0.621192	99
Es	-0.207477	1.641240	1.563319	99
Es	2.158671	0.969052	0.582701	99
Es	-1.654857	-1.418844	0.658211	99
Es	0.048843	1.728010	1.716338	99
Es	0.090190	-0.668170	0.612798	99
Es	0.399143	1.403901	-0.199188	99
Es	0.668103	0.901446	0.625573	99
Es	-0.566186	1.743116	-0.900544	99
Es	1.404505	-1.457865	-0.530739	99
50
Properties=species:S:1:pos:R:3:Z:I:1 energy=-704.6430529543828 field_type=dipole dipole="0.000000 0.000000 0.000000" charge=0
C	-1.433361	-0.717549	0.601294	6
C	0.090169	-0.668289	0.612844	6
C	0.674609	-1.475590	-0.540696	6
S	0.709759	1.023961	0.633084	16
C	0.156319	1.760221	-0.889196	6
O	0.048709	1.728170	1.716574	8
O	2.158909	0.969071	0.582714	8
H	-1.855561	-0.148709	1.435754	1
H	-1.785471	-1.750689	0.691474	1
H	-1.844571	-0.305819	-0.325456	1
H	0.444299	-1.103839	1.555484	1
H	0.341769	-1.094329	-1.510986	1
H	0.365679	-2.524129	-0.471646	1
H	1.768909	-1.450229	-0.529336	1
H	0.578629	1.212281	-1.732036	1
H	0.514779	2.792201	-0.909276	1
H	-0.933581	1.753271	-0.920596	1
Es	0.674562	-1.475548	-0.540653	99
Es	2.167152	0.816961	0.837588	99
Es	-1.701525	-0.435163	-0.035369	99
Es	-1.654829	-1.418757	0.658291	99
Es	0.437194	1.384343	-1.438949	99
Es	-0.566158	1.743074	-0.900607	99
Es	0.367239	0.130726	0.593779	99
Es	0.385158	-1.041536	0.034534	99
Es	0.700795	1.084005	0.737699	99
Es	0.182793	1.972781	1.609972	99
Es	1.404453	-1.457740	-0.530832	99
Es	2.106832	0.813388	0.317704	99
Es	2.160069	1.264653	0.565612	99
Es	0.439996	-1.206810	-1.196186	99
Es	-0.211421	1.644263	1.574445	99
Es	0.090188	-0.668170	0.612798	99
Es	-0.658465	-0.666267	0.599870	99
Es	1.622552	0.993246	0.618799	99
Es	0.454716	-2.177284	-0.482958	99
Es	0.776075	0.926761	0.647015	99
Es	0.334199	-0.936425	1.241308	99
Es	0.301880	1.457658	1.324834	99
Es	0.156352	1.760155	-0.889091	99
Es	0.048838	1.727987	1.716315	99
Es	-1.712770	-0.338195	1.158965	99
Es	2.158628	0.969080	0.582716	99
Es	0.601120	0.993832	0.591339	99
Es	0.172161	1.551571	1.920243	99
Es	0.399131	1.403865	-0.199163	99
Es	0.760770	1.091342	0.556132	99
Es	0.709914	1.023831	0.633072	99
Es	0.398380	2.429567	-0.884129	99
Es	-1.433287	-0.717550	0.601272	99
50
Properties=species:S:1:pos:R:3:Z:I:1 energy=-704.6430529543828 field_type=dipole dipole="0.000000 0.000000 0.000000" charge=0
C	-1.433361	-0.717549	0.601294	6
C	0.090169	-0.668289	0.612844	6
C	0.674609	-1.475590	-0.540696	6
S	0.709759	1.023961	0.633084	16
C	0.156319	1.760221	-0.889196	6
O	0.048709	1.728170	1.716574	8
O	2.158909	0.969071	0.582714	8
H	-1.855561	-0.148709	1.435754	1
H	-1.785471	-1.750689	0.691474	1
H	-1.844571	-0.305819	-0.325456	1
H	0.444299	-1.103839	1.555484	1
H	0.341769	-1.094329	-1.510986	1
H	0.365679	-2.524129	-0.471646	1
H	1.768909	-1.450229	-0.529336	1
H	0.578629	1.212281	-1.732036	1
H	0.514779	2.792201	-0.909276	1
H	-0.933581	1.753271	-0.920596	1
Es	0.154598	1.535856	1.916038	99
Es	0.702521	0.940136	0.547334	99
Es	0.399113	1.403872	-0.199165	99
Es	2.117856	0.813632	0.321122	99
Es	-1.712683	-0.338295	1.158959	99
Es	2.155297	1.269071	0.568288	99
Es	0.674564	-1.475549	-0.540655	99
Es	0.398482	2.429566	-0.884220	99
Es	0.156352	1.760155	-0.889091	99
Es	0.709709	1.023914	0.633045	99
Es	0.384987	-1.041377	0.034538	99
Es	0.708491	1.131824	0.584119	99
Es	0.177570	1.982267	1.631903	99
Es	-0.658361	-0.666198	0.599900	99
Es	1.404406	-1.457865	-0.530851	99
Es	0.048843	1.728023	1.716312	99
Es	0.367323	0.130738	0.593863	99
Es	2.162010	0.820322	0.839578	99
Es	0.440021	-1.206777	-1.196227	99
Es	0.334343	-0.936620	1.241196	99
Es	0.618072	1.013909	0.705762	99
Es	-1.701716	-0.435150	-0.035293	99
Es	-0.202117	1.638425	1.553605	99
Es	-1.654822	-1.418720	0.658335	99
Es	-1.433288	-0.717549	0.601272	99
Es	0.809922	1.010000	0.695026	99
Es	0.090190	-0.668166	0.612801	99
Es	-0.566150	1.743150	-0.900584	99
Es	0.454724	-2.177199	-0.483026	99
Es	2.158563	0.969070	0.582705	99
Es	0.315265	1.469689	1.327908	99
Es	0.437103	1.384246	-1.438899	99
Es	1.621505	0.985246	0.610769	99
50
Properties=species:S:1:pos:R:3:Z:I:1 energy=-704.6430529543828 field_type=dipole dipole="0.000000 0.000000 0.000000" charge=0
C	-1.433361	-0.717549	0.601294	6
C	0.090169	-0.668289	0.612844	6
C	0.674609	-1.475590	-0.540696	6
S	0.709759	1.023961	0.633084	16
C	0.156319	1.760221	-0.889196	6
O	0.048709	1.728170	1.716574	8
O	2.158909	0.969071	0.582714	8
H	-1.855561	-0.148709	1.435754	1
H	-1.785471	-1.750689	0.691474	1
H	-1.844571	-0.305819	-0.325456	1
H	0.444299	-1.103839	1.555484	1
H	0.341769	-1.094329	-1.510986	1
H	0.365679	-2.524129	-0.471646	1
H	1.768909	-1.450229	-0.529336	1
H	0.578629	1.212281	-1.732036	1
H	0.514779	2.792201	-0.909276	1
H	-0.933581	1.753271	-0.920596	1
Es	0.454709	-2.177227	-0.483054	99
Es	2.158528	0.969008	0.582779	99
Es	2.164270	0.819750	0.842692	99
Es	0.385225	-1.041521	0.034616	99
Es	2.110267	0.810709	0.322920	99
Es	1.621851	0.993296	0.612224	99
Es	-1.712741	-0.338175	1.158877	99
Es	0.367272	0.130686	0.593856	99
Es	1.404409	-1.457848	-0.530857	99
Es	-1.701526	-0.435173	-0.035311	99
Es	0.183544	1.980018	1.630541	99
Es	0.167160	1.532878	1.910156	99
Es	0.090189	-0.668166	0.612798	99
Es	-0.566073	1.743039	-0.900628	99
Es	-0.208471	1.644155	1.568952	99
Es	0.709629	1.024148	0.632830	99
Es	0.303158	1.469174	1.319808	99
Es	0.826457	1.042389	0.658740	99
Es	0.690280	0.909276	0.613581	99
Es	-1.433287	-0.717551	0.601272	99
Es	-0.658471	-0.666307	0.599929	99
Es	-1.654927	-1.418759	0.658330	99
Es	0.334214	-0.936383	1.241193	99
Es	0.679425	1.084871	0.536931	99
Es	0.398357	2.429628	-0.884290	99
Es	0.048839	1.728023	1.716339	99
Es	0.642890	1.059071	0.723170	99
Es	0.399151	1.403891	-0.199048	99
Es	0.440045	-1.206773	-1.196188	99
Es	0.674562	-1.475545	-0.540652	99
Es	0.437093	1.384310	-1.438871	99
Es	0.156352	1.760158	-0.889094	99
Es	2.160311	1.264597	0.561824	99
50
Properties=species:S:1:pos:R:3:Z:I:1 energy=-704.6430529543828 field_type=dipole dipole="0.000000 0.000000 0.000000" charge=0
C	-1.433361	-0.717549	0.601294	6
C	0.090169	-0.668289	0.612844	6
C	0.674609	-1.475590	-0.540696	6
S	0.709759	1.023961	0.633084	16
C	0.156319	1.760221	-0.889196	6
O	0.048709	1.728170	1.716574	8
O	2.158909	0.969071	0.582714	8
H	-1.855561	-0.148709	1.435754	1
H	-1.785471	-1.750689	0.691474	1
H	-1.844571	-0.305819	-0.325456	1
H	0.444299	-1.103839	1.555484	1
H	0.341769	-1.094329	-1.510986	1
H	0.365679	-2.524129	-0.471646	1
H	1.768909	-1.450229	-0.529336	1
H	0.578629	1.212281	-1.732036	1
H	0.514779	2.792201	-0.909276	1
H	-0.933581	1.753271	-0.920596	1
Es	0.303420	1.467398	1.320442	99
Es	0.367313	0.130651	0.593951	99
Es	-0.658353	-0.666158	0.599921	99
Es	2.158686	0.969063	0.582750	99
Es	0.398469	2.429559	-0.884275	99
Es	0.170539	1.537998	1.911666	99
Es	-1.701535	-0.435166	-0.035265	99
Es	-1.712791	-0.338232	1.158831	99
Es	0.454788	-2.177229	-0.483160	99
Es	0.674563	-1.475547	-0.540653	99
Es	-0.210485	1.642599	1.571712	99
Es	0.048836	1.728029	1.716341	99
Es	-1.433289	-0.717549	0.601272	99
Es	0.726233	1.135652	0.671563	99
Es	0.156352	1.760155	-0.889090	99
Es	1.622674	0.996970	0.615547	99
Es	1.404362	-1.457844	-0.530968	99
Es	0.440057	-1.206826	-1.196113	99
Es	2.160294	0.805554	0.832484	99
Es	-0.566128	1.743156	-0.900607	99
Es	-1.654960	-1.418733	0.658293	99
Es	0.743934	1.017426	0.525535	99
Es	0.090189	-0.668168	0.612799	99
Es	0.437020	1.384343	-1.438883	99
Es	2.104488	0.820168	0.316731	99
Es	0.773088	0.943590	0.699659	99
Es	0.399176	1.403782	-0.199099	99
Es	0.595923	0.998778	0.635994	99
Es	0.334103	-0.936394	1.241225	99
Es	0.181935	1.978250	1.625623	99
Es	0.385184	-1.041530	0.034731	99
Es	0.709523	1.024318	0.632509	99
Es	2.169081	1.265584	0.574899	99
50
Properties=species:S:1:pos:R:3:Z:I:1 energy=-704.6430529543828 field_type=dipole dipole="0.000000 0.000000 0.000000" charge=0
C	-1.433361	-0.717549	0.601294	6
C	0.090169	-0.668289	0.612844	6
C	0.674609	-1.475590	-0.540696	6
S	0.709759	1.023961	0.633084	16
C	0.156319	1.760221	-0.889196	6
O	0.048709	1.728170	1.716574	8
O	2.158909	0.969071	0.582714	8
H	-1.855561	-0.148709	1.435754	1
H	-1.785471	-1.750689	0.691474	1
H	-1.844571	-0.305819	-0.325456	1
H	0.444299	-1.103839	1.555484	1
H	0.341769	-1.094329	-1.510986	1
H	0.365679	-2.524129	-0.471646	1
H	1.768909	-1.450229	-0.529336	1
H	0.578629	1.212281	-1.732036	1
H	0.514779	2.792201	-0.909276	1
H	-0.933581	1.753271	-0.920596	1
Es	0.367379	0.130621	0.594026	99
Es	0.398414	2.429632	-0.884184	99
Es	0.385245	-1.041486	0.034632	99
Es	0.737142	0.924140	0.691409	99
Es	-1.712851	-0.338251	1.158841	99
Es	2.167636	0.807174	0.833055	99
Es	0.454748	-2.177265	-0.483112	99
Es	1.622266	0.989638	0.616180	99
Es	0.654684	0.997564	0.529109	99
Es	0.639096	1.090609	0.700423	99
Es	-1.701523	-0.435198	-0.035312	99
Es	-1.433295	-0.717549	0.601275	99
Es	0.399044	1.403784	-0.199143	99
Es	0.158304	1.541727	1.920203	99
Es	0.304060	1.458993	1.327042	99
Es	0.190447	1.974039	1.619782	99
Es	2.159295	1.267226	0.575010	99
Es	-0.566058	1.743098	-0.900630	99
Es	0.156352	1.760154	-0.889090	99
Es	0.437107	1.384303	-1.438922	99
Es	0.440121	-1.206828	-1.196147	99
Es	0.334142	-0.936337	1.241070	99
Es	-0.658476	-0.666220	0.600034	99
Es	0.808025	1.083510	0.611247	99
Es	0.709759	1.023961	0.633084	99
Es	-1.654921	-1.418672	0.658277	99
Es	1.404355	-1.457825	-0.530879	99
Es	-0.207281	1.651519	1.562251	99
Es	0.090188	-0.668170	0.612800	99
Es	0.674565	-1.475548	-0.540657	99
Es	2.107432	0.824223	0.315484	99
Es	0.048701	1.727998	1.716503	99
Es	2.158591	0.969083	0.582708	99
50
Properties=species:S:1:pos:R:3:Z:I:1 energy=-704.6430529543828 field_type=dipole dipole="0.000000 0.000000 0.000000" charge=0
C	-1.433361	-0.717549	0.601294	6
C	0.090169	-0.668289	0.612844	6
C	0.674609	-1.475590	-0.540696	6
S	0.709759	1.023961	0.633084	16
C	0.156319	1.760221	-0.889196	6
O	0.048709	1.728170	1.716574	8
O	2.158909	0.969071	0.582714	8
H	-1.855561	-0.148709	1.435754	1
H	-1.785471	-1.750689	0.691474	1
H	-1.844571	-0.305819	-0.325456	1
H	0.444299	-1.103839	1.555484	1
H	0.341769	-1.094329	-1.510986	1
H	0.365679	-2.524129	-0.471646	1
H	1.768909	-1.450229	-0.529336	1
H	0.578629	1.212281	-1.732036	1
H	0.514779	2.792201	-0.909276	1
H	-0.933581	1.753271	-0.920596	1
Es	0.440111	-1.206817	-1.196136	99
Es	0.710386	1.024919	0.633120	99
Es	-1.701555	-0.435138	-0.035249	99
Es	0.156352	1.760155	-0.889091	99
Es	0.334185	-0.936255	1.241075	99
Es	2.162724	1.267060	0.560722	99
Es	0.667875	1.127671	0.625327	99
Es	0.621613	0.958066	0.632791	99
Es	0.090189	-0.668167	0.612799	99
Es	0.437009	1.384281	-1.438946	99
Es	2.098934	0.813884	0.320921	99
Es	0.398440	2.429601	-0.884249	99
Es	-0.566024	1.743173	-0.900586	99
Es	0.048781	1.728063	1.716393	99
Es	0.775814	1.000102	0.534122	99
Es	2.171557	0.814840	0.836070	99
Es	1.623329	0.992493	0.622003	99
Es	0.399117	1.403802	-0.199082	99
Es	0.317248	1.462135	1.334903	99
Es	0.773017	1.008994	0.739895	99
Es	-1.433290	-0.717549	0.601272	99
Es	0.367328	0.130602	0.593964	99
Es	0.674564	-1.475549	-0.540654	99
Es	0.385301	-1.041507	0.034694	99
Es	2.158669	0.969065	0.582720	99
Es	-0.658456	-0.666175	0.600098	99
Es	0.148627	1.546049	1.926528	99
Es	0.454745	-2.177254	-0.483129	99
Es	1.404305	-1.457885	-0.530959	99
Es	0.178542	1.979067	1.619695	99
Es	-0.198975	1.638946	1.548260	99
Es	-1.712818	-0.338307	1.158810	99
Es	-1.654951	-1.418722	0.658263	99
50
Properties=species:S:1:pos:R:3:Z:I:1 energy=-704.6430529543828 field_type=dipole dipole="0.000000 0.000000 0.000000" charge=0
C	-1.433361	-0.717549	0.601294	6
C	0.090169	-0.668289	0.612844	6
C	0.674609	-1.475590	-0.540696	6
S	0.709759	1.023961	0.633084	16
C	0.156319	1.760221	-0.889196	6
O	0.048709	1.728170	1.716574	8
O	2.158909	0.969071	0.582714	8
H	-1.855561	-0.148709	1.435754	1
H	-1.785471	-1.750689	0.691474	1
H	-1.844571	-0.305819	-0.325456	1
H	0.444299	-1.103839	1.555484	1
H	0.341769	-1.094329	-1.510986	1
H	0.365679	-2.524129	-0.471646	1
H	1.768909	-1.450229	-0.529336	1
H	0.578629	1.212281	-1.732036	1
H	0.514779	2.792201	-0.909276	1
H	-0.933581	1.753271	-0.920596	1
Es	0.815317	1.039520	0.678818	99
Es	0.628620	1.031106	0.720100	99
Es	2.103685	0.812607	0.321372	99
Es	0.048717	1.728130	1.716594	99
Es	0.333992	-0.936192	1.241114	99
Es	0.165636	1.539858	1.915692	99
Es	0.367273	0.130575	0.594065	99
Es	0.385461	-1.041458	0.034524	99
Es	-1.712865	-0.338367	1.158725	99
Es	0.308290	1.467586	1.324331	99
Es	2.166387	0.815721	0.838421	99
Es	0.705088	0.915984	0.581463	99
Es	0.090189	-0.668170	0.612800	99
Es	0.399199	1.403827	-0.199015	99
Es	1.404287	-1.457834	-0.530917	99
Es	-0.205755	1.637669	1.564716	99
Es	0.454717	-2.177321	-0.483041	99
Es	0.436987	1.384338	-1.438915	99
Es	-1.433292	-0.717549	0.601273	99
Es	2.158812	0.969030	0.582615	99
Es	1.623208	0.993277	0.617339	99
Es	0.177340	1.980988	1.624461	99
Es	0.689858	1.109139	0.551751	99
Es	-1.701583	-0.435156	-0.035233	99
Es	0.709796	1.024002	0.633112	99
Es	2.163120	1.266713	0.562698	99
Es	-1.654930	-1.418747	0.658281	99
Es	0.674566	-1.475547	-0.540652	99
Es	0.156351	1.760155	-0.889092	99
Es	0.440190	-1.206907	-1.196139	99
Es	0.398416	2.429571	-0.884308	99
Es	-0.658342	-0.666062	0.600020	99
Es	-0.566044	1.743161	-0.900608	99
50
Properties=species:S:1:pos:R:3:Z:I:1 energy=-704.6430529543828 field_type=dipole dipole="0.000000 0.000000 0.000000" charge=0
C	-1.433361	-0.717549	0.601294	6
C	0.090169	-0.668289	0.612844	6
C	0.674609	-1.475590	-0.540696	6
S	0.709759	1.023961	0.633084	16
C	0.156319	1.760221	-0.889196	6
O	0.048709	1.728170	1.716574	8
O	2.158909	0.969071	0.582714	8
H	-1.855561	-0.148709	1.435754	1
H	-1.785471	-1.750689	0.691474	1
H	-1.844571	-0.305819	-0.325456	1
H	0.444299	-1.103839	1.555484	1
H	0.341769	-1.094329	-1.510986	1
H	0.365679	-2.524129	-0.471646	1
H	1.768909	-1.450229	-0.529336	1
H	0.578629	1.212281	-1.732036	1
H	0.514779	2.792201	-0.909276	1
H	-0.933581	1.753271	-0.920596	1
Es	0.440111	-1.206883	-1.196182	99
Es	0.385355	-1.041608	0.034688	99
Es	0.701691	0.925195	0.568862	99
Es	-1.701521	-0.435120	-0.035142	99
Es	2.159125	1.266545	0.557386	99
Es	0.647337	1.111834	0.580234	99
Es	-1.712870	-0.338351	1.158716	99
Es	0.297878	1.457363	1.324526	99
Es	-0.658260	-0.666105	0.600069	99
Es	0.398452	2.429576	-0.884198	99
Es	0.666082	1.003456	0.740320	99
Es	0.190145	1.972254	1.612803	99
Es	0.823814	1.055352	0.642659	99
Es	-0.211772	1.650811	1.572962	99
Es	0.436915	1.384464	-1.438985	99
Es	2.169459	0.820910	0.841645	99
Es	2.158598	0.969080	0.582735	99
Es	0.709776	1.023901	0.633171	99
Es	-1.433295	-0.717551	0.601273	99
Es	0.367423	0.130519	0.593954	99
Es	0.334007	-0.936179	1.241114	99
Es	1.623312	0.991358	0.617530	99
Es	2.104717	0.809478	0.323143	99
Es	0.454758	-2.177213	-0.483070	99
Es	1.404313	-1.457901	-0.530940	99
Es	0.090189	-0.668167	0.612800	99
Es	0.156351	1.760155	-0.889093	99
Es	-1.655110	-1.418638	0.658197	99
Es	0.674564	-1.475549	-0.540655	99
Es	0.048819	1.728046	1.716357	99
Es	-0.565995	1.743232	-0.900620	99
Es	0.169192	1.545755	1.919145	99
Es	0.399134	1.403627	-0.199037	99
50
Properties=species:S:1:pos:R:3:Z:I:1 energy=-704.6430529543828 field_type=dipole dipole="0.000000 0.000000 0.000000" charge=0
C	-1.433361	-0.717549	0.601294	6
C	0.090169	-0.668289	0.612844	6
C	0.674609	-1.475590	-0.540696	6
S	0.709759	1.023961	0.633084	16
C	0.156319	1.760221	-0.889196	6
O	0.048709	1.728170	1.716574	8
O	2.158909	0.969071	0.582714	8
H	-1.855561	-0.148709	1.435754	1
H	-1.785471	-1.750689	0.691474	1
H	-1.844571	-0.305819	-0.325456	1
H	0.444299	-1.103839	1.555484	1
H	0.341769	-1.094329	-1.510986	1
H	0.365679	-2.524129	-0.471646	1
H	1.768909	-1.450229	-0.529336	1
H	0.578629	1.212281	-1.732036	1
H	0.514779	2.792201	-0.909276	1
H	-0.933581	1.753271	-0.920596	1
Es	0.674564	-1.475548	-0.540655	99
Es	0.334146	-0.936199	1.240987	99
Es	0.048790	1.728054	1.716389	99
Es	0.399126	1.403730	-0.199012	99
Es	0.302758	1.466076	1.321862	99
Es	1.404265	-1.457892	-0.530960	99
Es	-0.566028	1.743307	-0.900618	99
Es	1.623358	0.992901	0.622829	99
Es	0.436891	1.384294	-1.438902	99
Es	0.385364	-1.041386	0.034660	99
Es	0.160452	1.531596	1.912083	99
Es	0.398534	2.429515	-0.884347	99
Es	0.734110	1.006726	0.508935	99
Es	0.733879	1.006789	0.645002	99
Es	-1.712853	-0.338334	1.158775	99
Es	2.158567	0.969075	0.582718	99
Es	-1.433287	-0.717548	0.601272	99
Es	0.723767	1.013259	0.639553	99
Es	2.098329	0.814790	0.319967	99
Es	0.454792	-2.177238	-0.483124	99
Es	-1.701620	-0.435198	-0.035139	99
Es	-1.655003	-1.418649	0.658248	99
Es	2.173280	0.814438	0.836035	99
Es	0.613994	0.957313	0.684581	99
Es	0.742933	1.135653	0.687180	99
Es	-0.208795	1.652001	1.564530	99
Es	0.090186	-0.668172	0.612800	99
Es	0.191069	1.976552	1.630900	99
Es	2.161671	1.266150	0.560895	99
Es	0.367305	0.130536	0.594133	99
Es	0.156352	1.760158	-0.889093	99
Es	0.440179	-1.206934	-1.196155	99
Es	-0.658385	-0.666171	0.600037	99
50
Properties=species:S:1:pos:R:3:Z:I:1 energy=-704.6430529543828 field_type=dipole dipole="0.000000 0.000000 0.000000" charge=0
C	-1.433361	-0.717549	0.601294	6
C	0.090169	-0.668289	0.612844	6
C	0.674609	-1.475590	-0.540696	6
S	0.709759	1.023961	0.633084	16
C	0.156319	1.760221	-0.889196	6
O	0.048709	1.728170	1.716574	8
O	2.158909	0.969071	0.582714	8
H	-1.855561	-0.148709	1.435754	1
H	-1.785471	-1.750689	0.691474	1
H	-1.844571	-0.305819	-0.325456	1
H	0.444299	-1.103839	1.555484	1
H	0.341769	-1.094329	-1.510986	1
H	0.365679	-2.524129	-0.471646	1
H	1.768909	-1.450229	-0.529336	1
H	0.578629	1.212281	-1.732036	1
H	0.514779	2.792201	-0.909276	1
H	-0.933581	1.753271	-0.920596	1
Es	2.172677	0.840944	0.850231	99
Es	0.156351	1.760156	-0.889093	99
Es	-1.712864	-0.338361	1.158730	99
Es	1.623965	0.995961	0.621565	99
Es	0.090189	-0.668170	0.612800	99
Es	0.732955	1.099876	0.721411	99
Es	0.454798	-2.177211	-0.483137	99
Es	-1.701645	-0.435212	-0.035122	99
Es	-0.205888	1.645511	1.558933	99
Es	0.709677	1.023913	0.633064	99
Es	0.691496	0.917474	0.678194	99
Es	0.048826	1.728034	1.716366	99
Es	1.404251	-1.457925	-0.530991	99
Es	-1.433289	-0.717548	0.601272	99
Es	2.163510	1.263169	0.529169	99
Es	2.096376	0.788181	0.338731	99
Es	-0.658331	-0.666111	0.600111	99
Es	0.308797	1.469132	1.324219	99
Es	0.398523	2.429624	-0.884494	99
Es	2.158669	0.969077	0.582708	99
Es	0.385339	-1.041436	0.034691	99
Es	0.611861	1.059273	0.573300	99
Es	0.334125	-0.936108	1.240971	99
Es	0.399140	1.403899	-0.198949	99
Es	-1.655010	-1.418642	0.658266	99
Es	0.674564	-1.475549	-0.540655	99
Es	-0.566033	1.743185	-0.900598	99
Es	0.367365	0.130499	0.594028	99
Es	0.802674	1.019207	0.559298	99
Es	0.184493	1.979260	1.632503	99
Es	0.440208	-1.206983	-1.196144	99
Es	0.436861	1.384218	-1.438775	99
Es	0.158064	1.532310	1.913764	99
50
Properties=species:S:1:pos:R:3:Z:I:1 energy=-704.6430529543828 field_type=dipole dipole="0.000000 0.000000 0.000000" charge=0
C	-1.433361	-0.717549	0.601294	6
C	0.090169	-0.668289	0.612844	6
C	0.674609	-1.475590	-0.540696	6
S	0.709759	1.023961	0.633084	16
C	0.156319	1.760221	-0.889196	6
O	0.048709	1.728170	1.716574	8
O	2.158909	0.969071	0.582714	8
H	-1.855561	-0.148709	1.435754	1
H	-1.785471	-1.750689	0.691474	1
H	-1.844571	-0.305819	-0.325456	1
H	0.444299	-1.103839	1.555484	1
H	0.341769	-1.094329	-1.510986	1
H	0.365679	-2.524129	-0.471646	1
H	1.768909	-1.450229	-0.529336	1
H	0.578629	1.212281	-1.732036	1
H	0.514779	2.792201	-0.909276	1
H	-0.933581	1.753271	-0.920596	1
Es	0.156349	1.760160	-0.889095	99
Es	0.720886	1.134506	0.594079	99
Es	0.454784	-2.177226	-0.483165	99
Es	0.440211	-1.206947	-1.196124	99
Es	2.166915	1.264884	0.549099	99
Es	0.436925	1.384458	-1.438812	99
Es	-0.658413	-0.666104	0.600077	99
Es	1.404241	-1.457931	-0.531002	99
Es	0.367336	0.130473	0.594115	99
Es	0.159860	1.535348	1.916533	99
Es	0.709744	1.023915	0.633081	99
Es	-1.433291	-0.717548	0.601273	99
Es	2.168217	0.823007	0.843220	99
Es	0.663008	1.024615	0.743215	99
Es	-1.701669	-0.435140	-0.035048	99
Es	0.186598	1.977762	1.626694	99
Es	0.305276	1.465610	1.324482	99
Es	0.638749	0.964232	0.559708	99
Es	0.334142	-0.936101	1.240897	99
Es	0.048736	1.728092	1.716401	99
Es	1.623687	0.997267	0.619015	99
Es	0.398402	2.429708	-0.884325	99
Es	0.399183	1.403713	-0.199041	99
Es	-0.566008	1.743028	-0.900667	99
Es	-1.655000	-1.418671	0.658177	99
Es	-1.712865	-0.338444	1.158765	99
Es	-0.206203	1.647406	1.561681	99
Es	0.816320	0.972493	0.635182	99
Es	0.674565	-1.475549	-0.540657	99
Es	2.097805	0.803142	0.328394	99
Es	2.158566	0.969040	0.582711	99
Es	0.385448	-1.041381	0.034703	99
Es	0.090188	-0.668170	0.612800	99
50
Properties=species:S:1:pos:R:3:Z:I:1 energy=-704.6430529543828 field_type=dipole dipole="0.000000 0.000000 0.000000" charge=0
C	-1.433361	-0.717549	0.601294	6
C	0.090169	-0.668289	0.612844	6
C	0.674609	-1.475590	-0.540696	6
S	0.709759	1.023961	0.633084	16
C	0.156319	1.760221	-0.889196	6
O	0.048709	1.728170	1.716574	8
O	2.158909	0.969071	0.582714	8
H	-1.855561	-0.148709	1.435754	1
H	-1.785471	-1.750689	0.691474	1
H	-1.844571	-0.305819	-0.325456	1
H	0.444299	-1.103839	1.555484	1
H	0.341769	-1.094329	-1.510986	1
H	0.365679	-2.524129	-0.471646	1
H	1.768909	-1.450229	-0.529336	1
H	0.578629	1.212281	-1.732036	1
H	0.514779	2.792201	-0.909276	1
H	-0.933581	1.753271	-0.920596	1
Es	0.709144	1.025627	0.633076	99
Es	0.048815	1.728040	1.716372	99
Es	1.623791	0.994888	0.615873	99
Es	-0.203373	1.630735	1.562822	99
Es	0.674567	-1.475553	-0.540659	99
Es	0.156352	1.760155	-0.889092	99
Es	1.404281	-1.457810	-0.531183	99
Es	0.454898	-2.177245	-0.483183	99
Es	0.756742	1.113305	0.691361	99
Es	2.158620	0.969076	0.582721	99
Es	-1.433290	-0.717548	0.601273	99
Es	0.399109	1.403746	-0.198935	99
Es	0.166474	1.544178	1.919099	99
Es	0.310948	1.467926	1.327495	99
Es	0.385476	-1.041448	0.034783	99
Es	0.398380	2.429651	-0.884330	99
Es	0.779846	0.998243	0.545787	99
Es	2.163572	0.820620	0.841845	99
Es	2.103494	0.805916	0.325392	99
Es	-1.712838	-0.338380	1.158672	99
Es	-1.655058	-1.418619	0.658301	99
Es	-0.658292	-0.666107	0.600019	99
Es	0.700722	0.928070	0.706149	99
Es	0.171436	1.983375	1.619989	99
Es	-0.565965	1.743100	-0.900751	99
Es	0.367302	0.130466	0.594131	99
Es	0.437000	1.384403	-1.438829	99
Es	0.602206	1.054499	0.588883	99
Es	-1.701714	-0.435237	-0.035055	99
Es	0.440055	-1.207020	-1.196005	99
Es	0.090181	-0.668173	0.612801	99
Es	0.334097	-0.936073	1.240943	99
Es	2.165712	1.266839	0.556600	99
50
Properties=species:S:1:pos:R:3:Z:I:1 energy=-704.6430529543828 field_type=dipole dipole="0.000000 0.000000 0.000000" charge=0
C	-1.433361	-0.717549	0.601294	6
C	0.090169	-0.668289	0.612844	6
C	0.674609	-1.475590	-0.540696	6
S	0.709759	1.023961	0.633084	16
C	0.156319	1.760221	-0.889196	6
O	0.048709	1.728170	1.716574	8
O	2.158909	0.969071	0.582714	8
H	-1.855561	-0.148709	1.435754	1
H	-1.785471	-1.750689	0.691474	1
H	-1.844571	-0.305819	-0.325456	1
H	0.444299	-1.103839	1.555484	1
H	0.341769	-1.094329	-1.510986	1
H	0.365679	-2.524129	-0.471646	1
H	1.768909	-1.450229	-0.529336	1
H	0.578629	1.212281	-1.732036	1
H	0.514779	2.792201	-0.909276	1
H	-0.933581	1.753271	-0.920596	1
Es	0.716798	1.062222	0.518279	99
Es	0.090188	-0.668179	0.612802	99
Es	0.398437	2.429619	-0.884430	99
Es	-1.712877	-0.338409	1.158613	99
Es	0.440351	-1.206907	-1.196143	99
Es	0.385430	-1.041614	0.034795	99
Es	2.103082	0.813206	0.322580	99
Es	2.159180	1.267295	0.559356	99
Es	0.709969	1.024131	0.633215	99
Es	0.436897	1.384364	-1.438799	99
Es	0.399189	1.403731	-0.198944	99
Es	0.598978	1.037839	0.675146	99
Es	0.740394	0.910188	0.639925	99
Es	-0.565981	1.743154	-0.900702	99
Es	0.156353	1.760153	-0.889089	99
Es	-0.203346	1.636209	1.563219	99
Es	1.404186	-1.457915	-0.530885	99
Es	0.165738	1.529535	1.910657	99
Es	0.454853	-2.177235	-0.483326	99
Es	-1.655121	-1.418620	0.658260	99
Es	0.782530	1.085376	0.698676	99
Es	2.170697	0.817027	0.840515	99
Es	0.174895	1.984746	1.635338	99
Es	0.367410	0.130428	0.594216	99
Es	-1.433293	-0.717548	0.601273	99
Es	2.158698	0.969063	0.582721	99
Es	0.674565	-1.475546	-0.540653	99
Es	0.048833	1.728025	1.716338	99
Es	0.308139	1.475730	1.320200	99
Es	-0.658280	-0.666042	0.600059	99
Es	1.623524	0.990783	0.617291	99
Es	-1.701646	-0.435190	-0.035049	99
Es	0.333919	-0.935974	1.240913	99
50
Properties=species:S:1:pos:R:3:Z:I:1 energy=-704.6430529543828 field_type=dipole dipole="0.000000 0.000000 0.000000" charge=0
C	-1.433361	-0.717549	0.601294	6
C	0.090169	-0.668289	0.612844	6
C	0.674609	-1.475590	-0.540696	6
S	0.709759	1.023961	0.633084	16
C	0.156319	1.760221	-0.889196	6
O	0.048709	1.728170	1.716574	8
O	2.158909	0.969071	0.582714	8
H	-1.855561	-0.148709	1.435754	1
H	-1.785471	-1.750689	0.691474	1
H	-1.844571	-0.305819	-0.325456	1
H	0.444299	-1.103839	1.555484	1
H	0.341769	-1.094329	-1.510986	1
H	0.365679	-2.524129	-0.471646	1
H	1.768909	-1.450229	-0.529336	1
H	0.578629	1.212281	-1.732036	1
H	0.514779	2.792201	-0.909276	1
H	-0.933581	1.753271	-0.920596	1
Es	2.101296	0.810753	0.321421	99
Es	-0.565973	1.743140	-0.900763	99
Es	0.156353	1.760159	-0.889091	99
Es	0.436918	1.384370	-1.438756	99
Es	2.158458	0.969182	0.582710	99
Es	0.048836	1.727986	1.716295	99
Es	0.334169	-0.936092	1.240835	99
Es	0.709819	1.024181	0.632992	99
Es	0.440259	-1.207004	-1.196144	99
Es	0.754100	1.113646	0.575159	99
Es	0.762982	0.920365	0.596035	99
Es	2.165618	1.266824	0.561398	99
Es	0.730457	1.040862	0.746180	99
Es	-1.655060	-1.418582	0.658245	99
Es	0.398461	2.429647	-0.884418	99
Es	-0.206310	1.644893	1.564538	99
Es	0.385422	-1.041304	0.034784	99
Es	0.090189	-0.668167	0.612799	99
Es	0.162994	1.534427	1.914188	99
Es	2.165346	0.815562	0.838651	99
Es	0.454853	-2.177237	-0.483177	99
Es	-1.712933	-0.338424	1.158643	99
Es	0.591303	1.020684	0.614886	99
Es	1.624461	0.995053	0.618262	99
Es	0.399107	1.403721	-0.198940	99
Es	1.404138	-1.457948	-0.531044	99
Es	0.304392	1.467096	1.322860	99
Es	0.674564	-1.475547	-0.540654	99
Es	0.184386	1.979831	1.627900	99
Es	-0.658333	-0.666078	0.600153	99
Es	0.367396	0.130451	0.594170	99
Es	-1.433287	-0.717548	0.601273	99
Es	-1.701688	-0.435256	-0.035023	99
50
Properties=species:S:1:pos:R:3:Z:I:1 energy=-704.6430529543828 field_type=dipole dipole="0.000000 0.000000 0.000000" charge=0
C	-1.433361	-0.717549	0.601294	6
C	0.090169	-0.668289	0.612844	6
C	0.674609	-1.475590	-0.540696	6
S	0.709759	1.023961	0.633084	16
C	0.156319	1.760221	-0.889196	6
O	0.048709	1.728170	1.716574	8
O	2.158909	0.969071	0.582714	8
H	-1.855561	-0.148709	1.435754	1
H	-1.785471	-1.750689	0.691474	1
H	-1.844571	-0.305819	-0.325456	1
H	0.444299	-1.103839	1.555484	1
H	0.341769	-1.094329	-1.510986	1
H	0.365679	-2.524129	-0.471646	1
H	1.768909	-1.450229	-0.529336	1
H	0.578629	1.212281	-1.732036	1
H	0.514779	2.792201	-0.909276	1
H	-0.933581	1.753271	-0.920596	1
Es	2.102925	0.817601	0.319127	99
Es	2.161049	0.807650	0.834874	99
Es	-0.565878	1.743113	-0.900740	99
Es	0.709763	1.023963	0.633087	99
Es	0.334099	-0.935996	1.240854	99
Es	-0.658317	-0.666039	0.600179	99
Es	2.158791	0.968999	0.582716	99
Es	0.436894	1.384480	-1.438871	99
Es	0.398339	2.429657	-0.884360	99
Es	0.618096	0.981299	0.573237	99
Es	0.181884	1.978705	1.619149	99
Es	0.757746	0.936788	0.697673	99
Es	-1.701656	-0.435127	-0.034958	99
Es	-1.433290	-0.717546	0.601274	99
Es	0.790309	1.065670	0.556320	99
Es	0.454922	-2.177211	-0.483181	99
Es	0.048838	1.728027	1.716337	99
Es	0.090187	-0.668174	0.612801	99
Es	0.156352	1.760160	-0.889095	99
Es	0.399172	1.403601	-0.198917	99
Es	0.385452	-1.041356	0.034768	99
Es	2.168270	1.267997	0.570605	99
Es	-0.202986	1.641629	1.555951	99
Es	0.440295	-1.207047	-1.196204	99
Es	-1.655120	-1.418598	0.658116	99
Es	0.672760	1.112023	0.704967	99
Es	0.367386	0.130372	0.594231	99
Es	1.404080	-1.457955	-0.531015	99
Es	1.624135	0.995127	0.615113	99
Es	0.674566	-1.475552	-0.540656	99
Es	-1.712917	-0.338508	1.158684	99
Es	0.156339	1.543280	1.923406	99
Es	0.310205	1.462614	1.330896	99
50
Properties=species:S:1:pos:R:3:Z:I:1 energy=-704.6430529543828 field_type=dipole dipole="0.000000 0.000000 0.000000" charge=0
C	-1.433361	-0.717549	0.601294	6
C	0.090169	-0.668289	0.612844	6
C	0.674609	-1.475590	-0.540696	6
S	0.709759	1.023961	0.633084	16
C	0.156319	1.760221	-0.889196	6
O	0.048709	1.728170	1.716574	8
O	2.158909	0.969071	0.582714	8
H	-1.855561	-0.148709	1.435754	1
H	-1.785471	-1.750689	0.691474	1
H	-1.844571	-0.305819	-0.325456	1
H	0.444299	-1.103839	1.555484	1
H	0.341769	-1.094329	-1.510986	1
H	0.365679	-2.524129	-0.471646	1
H	1.768909	-1.450229	-0.529336	1
H	0.578629	1.212281	-1.732036	1
H	0.514779	2.792201	-0.909276	1
H	-0.933581	1.753271	-0.920596	1
Es	0.602028	0.974006	0.626895	99
Es	0.156350	1.760158	-0.889096	99
Es	0.399177	1.403684	-0.198932	99
Es	2.158618	0.969083	0.582721	99
Es	0.048848	1.728033	1.716308	99
Es	2.169302	0.815493	0.838757	99
Es	0.385290	-1.041366	0.034765	99
Es	0.440516	-1.206943	-1.196126	99
Es	-1.655041	-1.418602	0.658282	99
Es	0.454858	-2.177288	-0.483396	99
Es	2.158969	1.268147	0.563098	99
Es	1.404044	-1.457964	-0.530895	99
Es	0.739949	1.037219	0.746102	99
Es	2.104348	0.814644	0.320304	99
Es	-1.433296	-0.717553	0.601273	99