50
Properties=species:S:1:pos:R:3:Z:I:1 energy=-704.6453315024488 field_type=dipole dipole="0.000000 0.000000 0.000000" charge=0
C	-2.279668	-1.303090	0.136516	6
C	-0.761688	-1.249340	0.178716	6
C	-0.250878	0.171320	-0.022204	6
S	1.533562	0.240450	0.036586	16
C	1.871933	1.953880	-0.284364	6
O	1.951962	-0.041290	1.396096	8
O	2.053473	-0.522280	-1.082524	8
H	-2.626368	-2.332450	0.269996	1
H	-2.658698	-0.938750	-0.823534	1
H	-2.715758	-0.691650	0.932966	1
H	-0.355508	-1.907100	-0.598274	1
H	-0.411438	-1.642730	1.139886	1
H	-0.626288	0.836560	0.761316	1
H	-0.557548	0.559140	-0.999134	1
H	1.473463	2.213800	-1.266663	1
H	2.954153	2.095420	-0.270984	1
H	1.405292	2.558110	0.495596	1
Es	1.863003	-0.331620	-1.241917	99
Es	0.577553	0.208639	0.003861	99
Es	-0.761696	-1.249230	0.178700	99
Es	-0.487748	0.622821	0.503338	99
Es	1.872278	-0.255636	-0.650654	99
Es	1.835069	-0.312472	1.376256	99
Es	-0.489272	-1.684495	-0.350180	99
Es	1.757888	0.194843	1.459432	99
Es	-0.526643	-1.505257	0.829430	99
Es	1.517440	0.354403	0.047989	99
Es	1.552596	2.343159	0.236212	99
Es	1.938803	-0.771243	-0.973143	99
Es	1.871896	1.953767	-0.284343	99
Es	-0.250741	0.171322	-0.022201	99
Es	1.591478	0.199415	0.133323	99
Es	1.951854	-0.041270	1.395749	99
Es	-2.572706	-0.881221	0.679950	99
Es	-1.516308	-1.258043	0.155332	99
Es	-2.510143	-2.001543	0.227351	99
Es	1.598574	0.221139	-0.060984	99
Es	2.325042	-0.421785	-1.022314	99
Es	1.597782	2.114237	-0.935462	99
Es	2.231518	0.025113	1.323691	99
Es	1.533551	0.240426	0.036619	99
Es	1.426675	0.186999	0.025965	99
Es	1.809203	0.045404	0.884346	99
Es	-0.441480	0.436575	-0.678844	99
Es	-2.279628	-1.303081	0.136516	99
Es	-0.474088	-0.513121	0.076190	99
Es	2.053375	-0.522133	-1.082309	99
Es	2.580834	2.029948	-0.272068	99
Es	-2.533481	-1.050045	-0.519998	99
Es	1.706038	1.175029	-0.138451	99
50
Properties=species:S:1:pos:R:3:Z:I:1 energy=-704.6453315024488 field_type=dipole dipole="0.000000 0.000000 0.000000" charge=0
C	-2.279668	-1.303090	0.136516	6
C	-0.761688	-1.249340	0.178716	6
C	-0.250878	0.171320	-0.022204	6
S	1.533562	0.240450	0.036586	16
C	1.871933	1.953880	-0.284364	6
O	1.951962	-0.041290	1.396096	8
O	2.053473	-0.522280	-1.082524	8
H	-2.626368	-2.332450	0.269996	1
H	-2.658698	-0.938750	-0.823534	1
H	-2.715758	-0.691650	0.932966	1
H	-0.355508	-1.907100	-0.598274	1
H	-0.411438	-1.642730	1.139886	1
H	-0.626288	0.836560	0.761316	1
H	-0.557548	0.559140	-0.999134	1
H	1.473463	2.213800	-1.266663	1
H	2.954153	2.095420	-0.270984	1
H	1.405292	2.558110	0.495596	1
Es	1.871896	1.953766	-0.284343	99
Es	-0.489306	-1.684456	-0.350090	99
Es	1.551477	0.353708	0.058630	99
Es	-2.572691	-0.881187	0.680038	99
Es	-0.761692	-1.249231	0.178697	99
Es	-2.510157	-2.001542	0.227277	99
Es	0.577494	0.208683	0.003793	99
Es	-0.441390	0.436569	-0.678748	99
Es	-0.250742	0.171323	-0.022201	99
Es	1.620613	0.200935	-0.033519	99
Es	1.760769	0.201501	1.446548	99
Es	1.597862	2.114237	-0.935265	99
Es	1.828784	-0.309742	1.388457	99
Es	1.864035	-0.328231	-1.238702	99
Es	-2.533517	-1.050060	-0.519869	99
Es	-0.487747	0.622913	0.503334	99
Es	1.951882	-0.041237	1.395877	99
Es	-0.473974	-0.513215	0.076203	99
Es	1.552554	2.343216	0.236155	99
Es	1.533588	0.240761	0.036903	99
Es	1.811712	0.037359	0.882593	99
Es	1.705998	1.174875	-0.138486	99
Es	-1.516365	-1.258058	0.155191	99
Es	1.874653	-0.255608	-0.649545	99
Es	2.580859	2.030044	-0.272149	99
Es	-0.526666	-1.505337	0.829290	99
Es	2.326647	-0.426028	-1.024184	99
Es	2.053309	-0.522129	-1.082230	99
Es	2.232356	0.023746	1.325998	99
Es	1.428423	0.227691	-0.017844	99
Es	1.533599	0.179283	0.138720	99
Es	-2.279631	-1.303080	0.136515	99
Es	1.933886	-0.770427	-0.975661	99
50
Properties=species:S:1:pos:R:3:Z:I:1 energy=-704.6453315024488 field_type=dipole dipole="0.000000 0.000000 0.000000" charge=0
C	-2.279668	-1.303090	0.136516	6
C	-0.761688	-1.249340	0.178716	6
C	-0.250878	0.171320	-0.022204	6
S	1.533562	0.240450	0.036586	16
C	1.871933	1.953880	-0.284364	6
O	1.951962	-0.041290	1.396096	8
O	2.053473	-0.522280	-1.082524	8
H	-2.626368	-2.332450	0.269996	1
H	-2.658698	-0.938750	-0.823534	1
H	-2.715758	-0.691650	0.932966	1
H	-0.355508	-1.907100	-0.598274	1
H	-0.411438	-1.642730	1.139886	1
H	-0.626288	0.836560	0.761316	1
H	-0.557548	0.559140	-0.999134	1
H	1.473463	2.213800	-1.266663	1
H	2.954153	2.095420	-0.270984	1
H	1.405292	2.558110	0.495596	1
Es	-0.487770	0.622897	0.503259	99
Es	2.327596	-0.431771	-1.013337	99
Es	1.486117	0.134736	0.008659	99
Es	1.874909	-0.317158	-1.238133	99
Es	-0.489258	-1.684472	-0.350070	99
Es	2.580895	2.030063	-0.272134	99
Es	1.533669	0.240399	0.036592	99
Es	1.530388	0.256457	0.154903	99
Es	1.852340	-0.318336	1.382823	99
Es	0.577532	0.208726	0.003896	99
Es	-0.526661	-1.505289	0.829242	99
Es	2.053385	-0.522182	-1.082370	99
Es	-0.250743	0.171324	-0.022201	99
Es	1.646211	0.246226	-0.002472	99
Es	1.749874	0.188851	1.457209	99
Es	-0.761698	-1.249231	0.178701	99
Es	1.552534	2.343156	0.236163	99
Es	1.804323	0.038553	0.885242	99
Es	-2.572764	-0.881227	0.679935	99
Es	-2.510242	-2.001491	0.227256	99
Es	-0.474014	-0.513251	0.076201	99
Es	-1.516305	-1.258096	0.155315	99
Es	1.951897	-0.041225	1.395759	99
Es	-2.279630	-1.303082	0.136515	99
Es	-2.533477	-1.050061	-0.519849	99
Es	1.471313	0.324584	-0.014782	99
Es	1.705993	1.174887	-0.138593	99
Es	1.597837	2.114263	-0.935254	99
Es	-0.441347	0.436586	-0.678717	99
Es	1.871896	1.953767	-0.284343	99
Es	2.227103	0.043782	1.318428	99
Es	1.870535	-0.260799	-0.648905	99
Es	1.926078	-0.770546	-0.987560	99
50
Properties=species:S:1:pos:R:3:Z:I:1 energy=-704.6453315024488 field_type=dipole dipole="0.000000 0.000000 0.000000" charge=0
C	-2.279668	-1.303090	0.136516	6
C	-0.761688	-1.249340	0.178716	6
C	-0.250878	0.171320	-0.022204	6
S	1.533562	0.240450	0.036586	16
C	1.871933	1.953880	-0.284364	6
O	1.951962	-0.041290	1.396096	8
O	2.053473	-0.522280	-1.082524	8
H	-2.626368	-2.332450	0.269996	1
H	-2.658698	-0.938750	-0.823534	1
H	-2.715758	-0.691650	0.932966	1
H	-0.355508	-1.907100	-0.598274	1
H	-0.411438	-1.642730	1.139886	1
H	-0.626288	0.836560	0.761316	1
H	-0.557548	0.559140	-0.999134	1
H	1.473463	2.213800	-1.266663	1
H	2.954153	2.095420	-0.270984	1
H	1.405292	2.558110	0.495596	1
Es	1.521277	0.357728	0.039247	99
Es	1.552553	2.343208	0.236139	99
Es	2.053335	-0.522121	-1.082279	99
Es	1.871896	1.953767	-0.284343	99
Es	1.650630	0.211341	0.040200	99
Es	1.864633	-0.320856	-1.232269	99
Es	1.476232	0.192939	0.129126	99
Es	1.705969	1.174909	-0.138491	99
Es	-0.761696	-1.249231	0.178700	99
Es	-2.510309	-2.001460	0.227262	99
Es	1.809417	0.041238	0.883420	99
Es	1.485934	0.200053	-0.062340	99
Es	1.951862	-0.041237	1.395800	99
Es	2.580887	2.030034	-0.272141	99
Es	-0.487747	0.622889	0.503232	99
Es	1.597853	2.114235	-0.935267	99
Es	-2.572812	-0.881216	0.679854	99
Es	1.754518	0.193140	1.453114	99
Es	1.938298	-0.775865	-0.988516	99
Es	1.870445	-0.265853	-0.646901	99
Es	0.577515	0.208744	0.003876	99
Es	-0.489246	-1.684468	-0.349997	99
Es	-2.533435	-1.050093	-0.519835	99
Es	2.325798	-0.417757	-1.020331	99
Es	1.838968	-0.314064	1.381678	99
Es	2.230739	0.032501	1.325439	99
Es	-2.279630	-1.303080	0.136515	99
Es	-1.516297	-1.258155	0.155380	99
Es	-0.250744	0.171324	-0.022201	99
Es	-0.474019	-0.513294	0.076161	99
Es	-0.441329	0.436625	-0.678666	99
Es	1.533666	0.240380	0.036629	99
Es	-0.526643	-1.505263	0.829185	99
50
Properties=species:S:1:pos:R:3:Z:I:1 energy=-704.6453315024488 field_type=dipole dipole="0.000000 0.000000 0.000000" charge=0
C	-2.279668	-1.303090	0.136516	6
C	-0.761688	-1.249340	0.178716	6
C	-0.250878	0.171320	-0.022204	6
S	1.533562	0.240450	0.036586	16
C	1.871933	1.953880	-0.284364	6
O	1.951962	-0.041290	1.396096	8
O	2.053473	-0.522280	-1.082524	8
H	-2.626368	-2.332450	0.269996	1
H	-2.658698	-0.938750	-0.823534	1
H	-2.715758	-0.691650	0.932966	1
H	-0.355508	-1.907100	-0.598274	1
H	-0.411438	-1.642730	1.139886	1
H	-0.626288	0.836560	0.761316	1
H	-0.557548	0.559140	-0.999134	1
H	1.473463	2.213800	-1.266663	1
H	2.954153	2.095420	-0.270984	1
H	1.405292	2.558110	0.495596	1
Es	-2.572731	-0.881344	0.679891	99
Es	1.758342	0.195097	1.455148	99
Es	-1.516276	-1.258102	0.155319	99
Es	1.864425	-0.324863	-1.235034	99
Es	1.935310	-0.773452	-0.981402	99
Es	1.872929	-0.259800	-0.648604	99
Es	-0.474025	-0.513422	0.076097	99
Es	-0.526620	-1.505258	0.829165	99
Es	1.706080	1.174864	-0.138545	99
Es	-2.510313	-2.001472	0.227227	99
Es	1.532988	0.239280	0.035256	99
Es	1.808567	0.043524	0.884445	99
Es	1.597713	2.114254	-0.935203	99
Es	2.053357	-0.522128	-1.082307	99
Es	2.326487	-0.422177	-1.022965	99
Es	1.871896	1.953768	-0.284344	99
Es	-0.487814	0.622992	0.503221	99
Es	1.502823	0.334844	0.103621	99
Es	-2.279630	-1.303080	0.136515	99
Es	2.231970	0.027445	1.323648	99
Es	2.580816	2.030091	-0.272311	99
Es	-0.761695	-1.249233	0.178701	99
Es	-2.533570	-1.049990	-0.519756	99
Es	-0.441208	0.436575	-0.678563	99
Es	1.555111	0.274804	-0.076508	99
Es	-0.250746	0.171324	-0.022201	99
Es	1.951879	-0.041231	1.395852	99
Es	0.577482	0.208781	0.003846	99
Es	-0.489249	-1.684460	-0.349998	99
Es	1.552631	2.343178	0.236276	99
Es	1.834783	-0.313231	1.380351	99
Es	1.629477	0.187624	0.082493	99
Es	1.447327	0.165841	0.038050	99
50
Properties=species:S:1:pos:R:3:Z:I:1 energy=-704.6453315024488 field_type=dipole dipole="0.000000 0.000000 0.000000" charge=0
C	-2.279668	-1.303090	0.136516	6
C	-0.761688	-1.249340	0.178716	6
C	-0.250878	0.171320	-0.022204	6
S	1.533562	0.240450	0.036586	16
C	1.871933	1.953880	-0.284364	6
O	1.951962	-0.041290	1.396096	8
O	2.053473	-0.522280	-1.082524	8
H	-2.626368	-2.332450	0.269996	1
H	-2.658698	-0.938750	-0.823534	1
H	-2.715758	-0.691650	0.932966	1
H	-0.355508	-1.907100	-0.598274	1
H	-0.411438	-1.642730	1.139886	1
H	-0.626288	0.836560	0.761316	1
H	-0.557548	0.559140	-0.999134	1
H	1.473463	2.213800	-1.266663	1
H	2.954153	2.095420	-0.270984	1
H	1.405292	2.558110	0.495596	1
Es	1.871898	1.953766	-0.284343	99
Es	1.597814	2.114327	-0.935234	99
Es	1.831273	-0.313212	1.378795	99
Es	0.577463	0.208881	0.003898	99
Es	-0.441282	0.436675	-0.678631	99
Es	-0.250745	0.171324	-0.022202	99
Es	1.869920	-0.254899	-0.653032	99
Es	-2.533532	-1.050081	-0.519780	99
Es	1.755577	0.194639	1.450361	99
Es	-0.473945	-0.513440	0.076234	99
Es	1.606039	0.333298	0.045401	99
Es	-1.516262	-1.258105	0.155358	99
Es	1.706024	1.174840	-0.138548	99
Es	1.951875	-0.041225	1.395828	99
Es	-0.487710	0.622884	0.503121	99
Es	-2.279630	-1.303080	0.136516	99
Es	1.862447	-0.334497	-1.241061	99
Es	1.940110	-0.772147	-0.971360	99
Es	1.428913	0.267966	0.085047	99
Es	-0.761697	-1.249234	0.178700	99
Es	2.580847	2.030078	-0.272162	99
Es	2.053367	-0.522130	-1.082317	99
Es	-0.526624	-1.505340	0.829103	99
Es	1.580926	0.148058	0.094192	99
Es	-0.489284	-1.684400	-0.349927	99
Es	-2.510342	-2.001414	0.227271	99
Es	2.326637	-0.418789	-1.022517	99
Es	1.518237	0.212606	-0.078255	99
Es	1.533606	0.240484	0.036508	99
Es	2.231954	0.026966	1.331506	99
Es	1.814849	0.044414	0.882938	99
Es	-2.572813	-0.881308	0.679797	99
Es	1.552606	2.343141	0.236175	99
50
Properties=species:S:1:pos:R:3:Z:I:1 energy=-704.6453315024488 field_type=dipole dipole="0.000000 0.000000 0.000000" charge=0
C	-2.279668	-1.303090	0.136516	6
C	-0.761688	-1.249340	0.178716	6
C	-0.250878	0.171320	-0.022204	6
S	1.533562	0.240450	0.036586	16
C	1.871933	1.953880	-0.284364	6
O	1.951962	-0.041290	1.396096	8
O	2.053473	-0.522280	-1.082524	8
H	-2.626368	-2.332450	0.269996	1
H	-2.658698	-0.938750	-0.823534	1
H	-2.715758	-0.691650	0.932966	1
H	-0.355508	-1.907100	-0.598274	1
H	-0.411438	-1.642730	1.139886	1
H	-0.626288	0.836560	0.761316	1
H	-0.557548	0.559140	-0.999134	1
H	1.473463	2.213800	-1.266663	1
H	2.954153	2.095420	-0.270984	1
H	1.405292	2.558110	0.495596	1
Es	-1.516329	-1.258282	0.155417	99
Es	1.865263	-0.323639	-1.235333	99
Es	1.597857	2.114279	-0.935229	99
Es	1.871896	1.953768	-0.284343	99
Es	1.497404	0.305179	-0.053175	99
Es	1.552575	2.343190	0.236126	99
Es	2.230613	0.038729	1.331002	99
Es	2.323019	-0.412691	-1.017046	99
Es	-0.250745	0.171324	-0.022201	99
Es	-0.487710	0.622935	0.503119	99
Es	-0.761696	-1.249232	0.178700	99
Es	0.577474	0.208870	0.003883	99
Es	1.748254	0.191111	1.446861	99
Es	1.841190	-0.315293	1.382751	99
Es	-2.279629	-1.303080	0.136516	99
Es	-2.510352	-2.001385	0.227203	99
Es	-0.526569	-1.505326	0.828935	99
Es	2.053290	-0.522027	-1.082222	99
Es	1.440287	0.216976	0.107814	99
Es	-2.533521	-1.050078	-0.519738	99
Es	1.867157	-0.265916	-0.648091	99
Es	-0.489299	-1.684381	-0.349826	99
Es	1.943757	-0.778186	-0.987576	99
Es	1.533543	0.240478	0.036645	99
Es	-0.441278	0.436632	-0.678605	99
Es	-0.473910	-0.513331	0.076223	99
Es	-2.572836	-0.881305	0.679853	99
Es	1.813600	0.038290	0.883023	99
Es	2.580825	2.030113	-0.272160	99
Es	1.706054	1.174794	-0.138540	99
Es	1.579586	0.138785	-0.004939	99
Es	1.616894	0.300983	0.096526	99
Es	1.951852	-0.041240	1.395811	99
50
Properties=species:S:1:pos:R:3:Z:I:1 energy=-704.6453315024488 field_type=dipole dipole="0.000000 0.000000 0.000000" charge=0
C	-2.279668	-1.303090	0.136516	6
C	-0.761688	-1.249340	0.178716	6
C	-0.250878	0.171320	-0.022204	6
S	1.533562	0.240450	0.036586	16
C	1.871933	1.953880	-0.284364	6
O	1.951962	-0.041290	1.396096	8
O	2.053473	-0.522280	-1.082524	8
H	-2.626368	-2.332450	0.269996	1
H	-2.658698	-0.938750	-0.823534	1
H	-2.715758	-0.691650	0.932966	1
H	-0.355508	-1.907100	-0.598274	1
H	-0.411438	-1.642730	1.139886	1
H	-0.626288	0.836560	0.761316	1
H	-0.557548	0.559140	-0.999134	1
H	1.473463	2.213800	-1.266663	1
H	2.954153	2.095420	-0.270984	1
H	1.405292	2.558110	0.495596	1
Es	-2.572831	-0.881316	0.679776	99
Es	1.951863	-0.041247	1.395972	99
Es	1.705977	1.174815	-0.138467	99
Es	2.053446	-0.522177	-1.082391	99
Es	1.597827	2.114244	-0.935190	99
Es	1.928683	-0.772204	-0.980722	99
Es	1.878533	-0.258461	-0.648247	99
Es	-0.441231	0.436684	-0.678521	99
Es	-0.473989	-0.513449	0.076213	99
Es	2.233763	0.027366	1.330736	99
Es	1.415597	0.258660	0.052503	99
Es	-0.761695	-1.249233	0.178701	99
Es	1.533551	0.240441	0.036579	99
Es	1.755887	0.194949	1.448804	99
Es	-0.526649	-1.505266	0.828961	99
Es	-2.533565	-1.050106	-0.519676	99
Es	-2.279630	-1.303080	0.136516	99
Es	1.570259	0.150989	0.104870	99
Es	-0.489226	-1.684423	-0.349756	99
Es	0.577468	0.208865	0.003860	99
Es	1.552565	2.343177	0.236050	99
Es	-2.510420	-2.001357	0.227236	99
Es	1.813119	0.042493	0.883489	99
Es	1.558318	0.217273	-0.079406	99
Es	-1.516232	-1.258282	0.155321	99
Es	1.864069	-0.321560	-1.232358	99
Es	1.830892	-0.311995	1.380419	99
Es	2.327785	-0.428015	-1.026575	99
Es	1.871896	1.953768	-0.284344	99
Es	-0.250746	0.171324	-0.022201	99
Es	1.589985	0.335057	0.068353	99
Es	-0.487653	0.622951	0.503040	99
Es	2.580898	2.030155	-0.272163	99
