40
Properties=species:S:1:pos:R:3:Z:I:1 energy=-717.057509810519 field_type=dipole dipole="0.000000 0.000000 0.000000" charge=0
C	-1.204713	-1.115012	0.561581	6
C	0.057397	-0.892472	0.170201	6
S	0.768607	0.671808	0.314311	16
O	-0.023523	1.600908	1.091191	8
O	2.212687	0.600828	0.364001	8
C	0.568377	1.408128	-1.325129	6
N	0.420577	1.842778	-2.396889	7
H	-1.644223	-2.104712	0.475141	1
H	-1.831923	-0.332122	0.982901	1
H	0.676737	-1.680132	-0.237309	1
Es	0.299587	1.218257	0.886891	99
Es	0.759683	0.755441	0.231624	99
Es	1.684415	0.623211	0.462313	99
Es	2.205387	0.895379	0.326180	99
Es	0.168812	1.791682	0.954424	99
Es	0.420634	1.842604	-2.396465	99
Es	0.376925	1.981517	-2.727808	99
Es	0.640022	1.398147	-2.016329	99
Es	-0.598954	-0.881169	0.060860	99
Es	0.632071	1.084006	-0.672051	99
Es	0.757048	0.721637	0.419904	99
Es	0.875223	0.622602	0.307112	99
Es	2.054760	0.471653	0.091465	99
Es	-0.384461	-1.023816	0.642386	99
Es	2.275052	0.421526	0.564019	99
Es	0.181934	1.625472	-1.864348	99
Es	-1.204743	-1.115024	0.561591	99
Es	-0.023379	1.600722	1.090989	99
Es	-0.199231	1.470353	0.850980	99
Es	0.646898	1.884046	-1.787752	99
Es	0.477566	-1.386762	-0.101633	99
Es	2.212430	0.600824	0.364000	99
Es	-1.491269	-1.769136	0.502508	99
Es	0.682341	0.587621	0.298047	99
Es	-1.616354	-0.605597	0.835186	99
Es	-0.036187	1.498302	1.346960	99
Es	0.389073	-0.152729	0.234521	99
Es	0.057522	-0.892274	0.170199	99
Es	0.768574	0.671789	0.314339	99
Es	0.568426	1.407965	-1.324733	99
40
Properties=species:S:1:pos:R:3:Z:I:1 energy=-717.057509810519 field_type=dipole dipole="0.000000 0.000000 0.000000" charge=0
C	-1.204713	-1.115012	0.561581	6
C	0.057397	-0.892472	0.170201	6
S	0.768607	0.671808	0.314311	16
O	-0.023523	1.600908	1.091191	8
O	2.212687	0.600828	0.364001	8
C	0.568377	1.408128	-1.325129	6
N	0.420577	1.842778	-2.396889	7
H	-1.644223	-2.104712	0.475141	1
H	-1.831923	-0.332122	0.982901	1
H	0.676737	-1.680132	-0.237309	1
Es	0.420632	1.842604	-2.396466	99
Es	-0.598930	-0.881296	0.060836	99
Es	1.691200	0.623263	0.478517	99
Es	0.389082	-0.152728	0.234160	99
Es	-0.060850	1.490066	1.341672	99
Es	2.038545	0.469148	0.093674	99
Es	0.624523	1.893984	-1.780462	99
Es	2.290873	0.424968	0.556875	99
Es	2.212306	0.600799	0.364038	99
Es	0.756256	0.750027	0.229412	99
Es	-1.616416	-0.605576	0.835147	99
Es	-0.023361	1.600688	1.091023	99
Es	0.861647	0.703236	0.384083	99
Es	0.376684	1.981605	-2.727533	99
Es	-1.204743	-1.115024	0.561591	99
Es	0.661626	1.412698	-2.015087	99
Es	2.199120	0.894430	0.314951	99
Es	0.632122	1.083930	-0.672050	99
Es	0.768603	0.671829	0.314315	99
Es	0.182871	1.600951	-1.873159	99
Es	-0.182687	1.470397	0.832562	99
Es	0.307503	1.222622	0.895285	99
Es	0.568432	1.407965	-1.324734	99
Es	0.789010	0.566658	0.264918	99
Es	-0.384399	-1.023801	0.642699	99
Es	-1.491185	-1.769180	0.502557	99
Es	0.168958	1.795539	0.969709	99
Es	0.057509	-0.892281	0.170187	99
Es	0.477524	-1.386624	-0.101628	99
Es	0.667352	0.667354	0.378291	99
40
Properties=species:S:1:pos:R:3:Z:I:1 energy=-717.057509810519 field_type=dipole dipole="0.000000 0.000000 0.000000" charge=0
C	-1.204713	-1.115012	0.561581	6
C	0.057397	-0.892472	0.170201	6
S	0.768607	0.671808	0.314311	16
O	-0.023523	1.600908	1.091191	8
O	2.212687	0.600828	0.364001	8
C	0.568377	1.408128	-1.325129	6
N	0.420577	1.842778	-2.396889	7
H	-1.644223	-2.104712	0.475141	1
H	-1.831923	-0.332122	0.982901	1
H	0.676737	-1.680132	-0.237309	1
Es	0.389090	-0.152822	0.234408	99
Es	-0.190064	1.477980	0.837844	99
Es	2.030143	0.491471	0.086634	99
Es	2.308817	0.415747	0.536717	99
Es	-0.598958	-0.880980	0.060834	99
Es	-0.050012	1.470777	1.338474	99
Es	-1.616417	-0.605652	0.835271	99
Es	0.637880	1.888643	-1.784589	99
Es	0.568433	1.407968	-1.324726	99
Es	0.763507	0.566921	0.258737	99
Es	-0.023389	1.600710	1.091037	99
Es	0.768872	0.671676	0.314300	99
Es	0.840879	0.744994	0.254705	99
Es	0.632077	1.083838	-0.672093	99
Es	-1.491127	-1.769281	0.502426	99
Es	0.420634	1.842603	-2.396465	99
Es	-0.384532	-1.023753	0.642486	99
Es	-1.204743	-1.115024	0.561592	99
Es	0.648665	1.402991	-2.016339	99
Es	0.165749	1.801204	0.983782	99
Es	0.810425	0.655966	0.422722	99
Es	0.477580	-1.386698	-0.101653	99
Es	0.057518	-0.892281	0.170206	99
Es	1.695569	0.605582	0.488737	99
Es	0.182551	1.616099	-1.867841	99
Es	0.307296	1.228647	0.879110	99
Es	2.212358	0.600820	0.363997	99
Es	2.185166	0.899011	0.331932	99
Es	0.659204	0.719516	0.320589	99
Es	0.376632	1.981574	-2.727454	99
40
Properties=species:S:1:pos:R:3:Z:I:1 energy=-717.057509810519 field_type=dipole dipole="0.000000 0.000000 0.000000" charge=0
C	-1.204713	-1.115012	0.561581	6
C	0.057397	-0.892472	0.170201	6
S	0.768607	0.671808	0.314311	16
O	-0.023523	1.600908	1.091191	8
O	2.212687	0.600828	0.364001	8
C	0.568377	1.408128	-1.325129	6
N	0.420577	1.842778	-2.396889	7
H	-1.644223	-2.104712	0.475141	1
H	-1.831923	-0.332122	0.982901	1
H	0.676737	-1.680132	-0.237309	1
Es	0.420634	1.842604	-2.396464	99
Es	0.698671	0.664672	0.410661	99
Es	0.477564	-1.386695	-0.101686	99
Es	0.768631	0.671752	0.314311	99
Es	2.212327	0.600824	0.363988	99
Es	0.181871	1.617265	-1.867483	99
Es	2.061451	0.471913	0.092539	99
Es	-0.069019	1.494815	1.342021	99
Es	0.829869	0.571870	0.302910	99
Es	0.843922	0.763121	0.325763	99
Es	1.682375	0.615365	0.459084	99
Es	-1.204743	-1.115024	0.561590	99
Es	0.646994	1.402520	-2.016168	99
Es	2.281968	0.427711	0.567404	99
Es	0.701765	0.687678	0.217415	99
Es	0.632090	1.083902	-0.672043	99
Es	0.172141	1.792758	0.968403	99
Es	-0.598838	-0.881047	0.060918	99
Es	0.307121	1.221088	0.901510	99
Es	-0.023365	1.600693	1.091028	99
Es	2.193934	0.896837	0.324995	99
Es	-0.384648	-1.023728	0.642505	99
Es	0.639946	1.888512	-1.785173	99
Es	0.389079	-0.152824	0.234295	99
Es	-1.616362	-0.605559	0.835224	99
Es	-0.177277	1.469948	0.827292	99
Es	-1.491158	-1.769350	0.502503	99
Es	0.057524	-0.892280	0.170212	99
Es	0.376907	1.980939	-2.727440	99
Es	0.568430	1.407970	-1.324735	99
40
Properties=species:S:1:pos:R:3:Z:I:1 energy=-717.057509810519 field_type=dipole dipole="0.000000 0.000000 0.000000" charge=0
C	-1.204713	-1.115012	0.561581	6
C	0.057397	-0.892472	0.170201	6
S	0.768607	0.671808	0.314311	16
O	-0.023523	1.600908	1.091191	8
O	2.212687	0.600828	0.364001	8
C	0.568377	1.408128	-1.325129	6
N	0.420577	1.842778	-2.396889	7
H	-1.644223	-2.104712	0.475141	1
H	-1.831923	-0.332122	0.982901	1
H	0.676737	-1.680132	-0.237309	1
Es	-1.491180	-1.769356	0.502476	99
Es	0.477603	-1.386721	-0.101570	99
Es	2.185369	0.896650	0.317108	99
Es	0.300368	1.213729	0.906560	99
Es	0.632060	1.083922	-0.672004	99
Es	0.175993	1.780881	0.946655	99
Es	0.770209	0.707818	0.199025	99
Es	0.752959	0.764100	0.383091	99
Es	0.057511	-0.892284	0.170204	99
Es	-0.184753	1.466443	0.836100	99
Es	2.300323	0.429583	0.557551	99
Es	0.871577	0.618079	0.343513	99
Es	-1.204744	-1.115025	0.561590	99
Es	0.568429	1.407966	-1.324739	99
Es	2.045208	0.473263	0.093709	99
Es	-0.058552	1.517506	1.349881	99
Es	-0.598796	-0.881137	0.060945	99
Es	0.643665	1.399987	-2.016604	99
Es	-0.023438	1.600771	1.091076	99
Es	-0.384676	-1.023709	0.642499	99
Es	0.420634	1.842604	-2.396465	99
Es	0.181561	1.621649	-1.865893	99
Es	0.643695	1.886378	-1.786592	99
Es	0.376846	1.981199	-2.727201	99
Es	2.212335	0.600807	0.364008	99
Es	0.768833	0.671600	0.314113	99
Es	0.388998	-0.152787	0.234175	99
Es	-1.616345	-0.605458	0.835237	99
Es	0.679288	0.597480	0.331291	99
Es	1.688824	0.612311	0.475640	99
40
Properties=species:S:1:pos:R:3:Z:I:1 energy=-717.057509810519 field_type=dipole dipole="0.000000 0.000000 0.000000" charge=0
C	-1.204713	-1.115012	0.561581	6
C	0.057397	-0.892472	0.170201	6
S	0.768607	0.671808	0.314311	16
O	-0.023523	1.600908	1.091191	8
O	2.212687	0.600828	0.364001	8
C	0.568377	1.408128	-1.325129	6
N	0.420577	1.842778	-2.396889	7
H	-1.644223	-2.104712	0.475141	1
H	-1.831923	-0.332122	0.982901	1
H	0.676737	-1.680132	-0.237309	1
Es	-1.616330	-0.605424	0.835258	99
Es	0.477579	-1.386731	-0.101595	99
Es	0.644091	1.886496	-1.786672	99
Es	-0.184582	1.465466	0.840467	99
Es	0.304440	1.219285	0.896425	99
Es	1.689377	0.608283	0.478320	99
Es	-0.054802	1.504215	1.349018	99
Es	-0.385010	-1.023758	0.642414	99
Es	0.389047	-0.152811	0.234234	99
Es	0.848450	0.707172	0.392762	99
Es	2.212413	0.600824	0.363966	99
Es	0.420635	1.842609	-2.396473	99
Es	0.632037	1.083891	-0.671971	99
Es	-1.491137	-1.769454	0.502500	99
Es	0.181368	1.620996	-1.866074	99
Es	2.305241	0.425679	0.551454	99
Es	0.784105	0.732180	0.213118	99
Es	0.376721	1.981084	-2.727188	99
Es	0.167885	1.789674	0.953368	99
Es	-0.598550	-0.881003	0.060932	99
Es	2.042024	0.479978	0.093423	99
Es	0.783510	0.556271	0.293590	99
Es	0.768633	0.671795	0.314252	99
Es	0.658176	0.691672	0.357297	99
Es	0.057518	-0.892283	0.170210	99
Es	0.568420	1.407967	-1.324734	99
Es	-1.204743	-1.115024	0.561591	99
Es	2.182993	0.897874	0.320879	99
Es	-0.023336	1.600651	1.091000	99
Es	0.643630	1.400674	-2.016389	99
40
Properties=species:S:1:pos:R:3:Z:I:1 energy=-717.057509810519 field_type=dipole dipole="0.000000 0.000000 0.000000" charge=0
C	-1.204713	-1.115012	0.561581	6
C	0.057397	-0.892472	0.170201	6
S	0.768607	0.671808	0.314311	16
O	-0.023523	1.600908	1.091191	8
O	2.212687	0.600828	0.364001	8
C	0.568377	1.408128	-1.325129	6
N	0.420577	1.842778	-2.396889	7
H	-1.644223	-2.104712	0.475141	1
H	-1.831923	-0.332122	0.982901	1
H	0.676737	-1.680132	-0.237309	1
Es	1.691910	0.609832	0.481379	99
Es	0.768661	0.671415	0.315574	99
Es	-0.023371	1.600733	1.091041	99
Es	2.183071	0.897100	0.321128	99
Es	2.212314	0.600839	0.364023	99
Es	2.039382	0.478519	0.090567	99
Es	0.377082	1.980953	-2.726819	99
Es	0.477555	-1.386691	-0.101647	99
Es	0.568430	1.407965	-1.324737	99
Es	-0.598760	-0.881136	0.061093	99
Es	0.057516	-0.892280	0.170203	99
Es	-0.070238	1.513705	1.347709	99
Es	0.714957	0.571541	0.344188	99
Es	0.636531	1.395378	-2.017102	99
Es	0.749914	0.692497	0.199222	99
Es	0.650960	1.883501	-1.789051	99
Es	0.885293	0.662277	0.334228	99
Es	-1.204742	-1.115024	0.561590	99
Es	0.420632	1.842619	-2.396493	99
Es	0.724041	0.761342	0.377805	99
Es	0.181247	1.629429	-1.863287	99
Es	0.303970	1.215807	0.909531	99
Es	0.389023	-0.152813	0.234139	99
Es	-0.175951	1.465722	0.829151	99
Es	0.175233	1.783367	0.952839	99
Es	0.631993	1.083850	-0.672011	99
Es	-1.491098	-1.769452	0.502442	99
Es	-0.384754	-1.023727	0.642425	99
Es	2.305375	0.426333	0.550948	99
Es	-1.616369	-0.605352	0.835303	99
40
Properties=species:S:1:pos:R:3:Z:I:1 energy=-717.057509810519 field_type=dipole dipole="0.000000 0.000000 0.000000" charge=0
C	-1.204713	-1.115012	0.561581	6
C	0.057397	-0.892472	0.170201	6
S	0.768607	0.671808	0.314311	16
O	-0.023523	1.600908	1.091191	8
O	2.212687	0.600828	0.364001	8
C	0.568377	1.408128	-1.325129	6
N	0.420577	1.842778	-2.396889	7
H	-1.644223	-2.104712	0.475141	1
H	-1.831923	-0.332122	0.982901	1
H	0.676737	-1.680132	-0.237309	1
Es	2.188579	0.896569	0.321791	99
Es	-1.491109	-1.769510	0.502426	99
Es	0.181177	1.628027	-1.863822	99
Es	0.637653	1.396081	-2.017086	99
Es	0.304098	1.214762	0.913962	99
Es	0.632069	1.083912	-0.671957	99
Es	0.686697	0.727103	0.380087	99
Es	2.046534	0.478309	0.093668	99
Es	0.769145	0.671666	0.314203	99
Es	0.377104	1.980933	-2.726759	99
Es	0.057526	-0.892274	0.170202	99
Es	0.420634	1.842607	-2.396469	99
Es	2.297897	0.424371	0.555886	99
Es	0.842946	0.751639	0.269731	99
Es	0.828408	0.595174	0.381963	99
Es	0.175322	1.781843	0.948454	99
Es	-0.073318	1.519390	1.348207	99
Es	-0.384734	-1.023670	0.642358	99
Es	2.212322	0.600812	0.364014	99
Es	-1.616347	-0.605285	0.835287	99
Es	0.568421	1.407972	-1.324737	99
Es	-1.204737	-1.115021	0.561590	99
Es	-0.023296	1.600668	1.091007	99
Es	0.389001	-0.152807	0.234052	99
Es	0.649827	1.884152	-1.788671	99
Es	-0.598814	-0.881209	0.061192	99
Es	1.686725	0.612607	0.472689	99
Es	-0.173185	1.462633	0.828641	99
Es	0.477573	-1.386693	-0.101622	99
Es	0.715688	0.613489	0.225093	99
40
Properties=species:S:1:pos:R:3:Z:I:1 energy=-717.057509810519 field_type=dipole dipole="0.000000 0.000000 0.000000" charge=0
C	-1.204713	-1.115012	0.561581	6
C	0.057397	-0.892472	0.170201	6
S	0.768607	0.671808	0.314311	16
O	-0.023523	1.600908	1.091191	8
O	2.212687	0.600828	0.364001	8
C	0.568377	1.408128	-1.325129	6
N	0.420577	1.842778	-2.396889	7
H	-1.644223	-2.104712	0.475141	1
H	-1.831923	-0.332122	0.982901	1
H	0.676737	-1.680132	-0.237309	1
Es	2.050135	0.481555	0.093234	99
Es	-0.071588	1.528122	1.350109	99
Es	0.181454	1.620444	-1.866600	99
Es	0.389052	-0.152908	0.234083	99
Es	0.874183	0.723135	0.290240	99
Es	0.732876	0.704996	0.420273	99
Es	0.420634	1.842604	-2.396465	99
Es	0.303302	1.213186	0.917749	99
Es	0.057510	-0.892284	0.170203	99
Es	-1.616386	-0.605350	0.835323	99
Es	0.568430	1.407972	-1.324746	99
Es	-0.598739	-0.881038	0.061029	99
Es	0.687952	0.706068	0.233951	99
Es	2.186553	0.896929	0.325270	99
Es	0.176138	1.776710	0.941989	99
Es	-1.204742	-1.115022	0.561591	99
Es	2.212129	0.600768	0.364204	99
Es	-0.174848	1.460541	0.829400	99
Es	0.768603	0.671800	0.314308	99
Es	0.477577	-1.386673	-0.101622	99
Es	-0.384851	-1.023662	0.642464	99
Es	-0.023380	1.600712	1.091046	99
Es	0.376980	1.981027	-2.726621	99
Es	0.779215	0.553078	0.312294	99
Es	0.632000	1.083941	-0.671934	99
Es	0.644207	1.400017	-2.016932	99
Es	-1.491033	-1.769543	0.502443	99
Es	1.685050	0.610102	0.469142	99
Es	0.643198	1.887695	-1.786201	99
Es	2.298195	0.423329	0.556155	99
40
Properties=species:S:1:pos:R:3:Z:I:1 energy=-717.057509810519 field_type=dipole dipole="0.000000 0.000000 0.000000" charge=0
C	-1.204713	-1.115012	0.561581	6
C	0.057397	-0.892472	0.170201	6
S	0.768607	0.671808	0.314311	16
O	-0.023523	1.600908	1.091191	8
O	2.212687	0.600828	0.364001	8
C	0.568377	1.408128	-1.325129	6
N	0.420577	1.842778	-2.396889	7
H	-1.644223	-2.104712	0.475141	1
H	-1.831923	-0.332122	0.982901	1
H	0.676737	-1.680132	-0.237309	1
Es	-0.384870	-1.023547	0.642548	99
Es	2.299215	0.423233	0.554824	99
Es	-1.491010	-1.769593	0.502460	99
Es	0.187123	1.771387	0.948176	99
Es	1.685787	0.608608	0.470657	99
Es	0.792675	0.580580	0.389481	99
Es	0.568428	1.407966	-1.324738	99
Es	0.797256	0.640382	0.208724	99
Es	0.768686	0.671820	0.314455	99
Es	2.185771	0.897896	0.325457	99
Es	0.632047	1.083857	-0.671956	99
Es	0.297772	1.206862	0.923283	99
Es	2.212344	0.600819	0.364010	99
Es	0.420629	1.842613	-2.396492	99
Es	-0.165606	1.469260	0.820593	99
Es	-1.616386	-0.605343	0.835314	99
Es	-1.204742	-1.115023	0.561590	99
Es	0.057507	-0.892281	0.170201	99
Es	0.376950	1.980815	-2.726264	99
Es	0.388987	-0.152865	0.233865	99
Es	-0.023410	1.600737	1.091047	99
Es	0.646145	1.400782	-2.017150	99
Es	0.641467	1.888709	-1.785680	99
Es	0.477553	-1.386733	-0.101622	99
Es	2.048947	0.482125	0.093108	99
Es	-0.598675	-0.881079	0.061153	99
Es	0.831137	0.772105	0.344064	99
Es	0.653123	0.694176	0.314332	99
Es	-0.086249	1.531070	1.347166	99
Es	0.181205	1.618910	-1.867226	99
40
Properties=species:S:1:pos:R:3:Z:I:1 energy=-717.057509810519 field_type=dipole dipole="0.000000 0.000000 0.000000" charge=0
C	-1.204713	-1.115012	0.561581	6
C	0.057397	-0.892472	0.170201	6
S	0.768607	0.671808	0.314311	16
O	-0.023523	1.600908	1.091191	8
O	2.212687	0.600828	0.364001	8
C	0.568377	1.408128	-1.325129	6
N	0.420577	1.842778	-2.396889	7
H	-1.644223	-2.104712	0.475141	1
H	-1.831923	-0.332122	0.982901	1
H	0.676737	-1.680132	-0.237309	1
Es	0.803948	0.630288	0.419838	99
Es	-1.491065	-1.769622	0.502393	99
Es	0.643323	1.887946	-1.786271	99
Es	0.420634	1.842604	-2.396466	99
Es	0.377058	1.980913	-2.726187	99
Es	2.166570	0.897756	0.317845	99
Es	0.749662	0.581285	0.240804	99
Es	0.057507	-0.892280	0.170189	99
Es	2.212534	0.600830	0.364019	99
Es	0.768505	0.671715	0.314420	99
Es	0.667955	0.734186	0.326974	99
Es	-0.599147	-0.881383	0.061416	99
Es	0.852818	0.741592	0.269049	99
Es	0.568422	1.407967	-1.324735	99
Es	0.477558	-1.386571	-0.101707	99
Es	-1.204742	-1.115026	0.561591	99
Es	0.632070	1.083932	-0.671918	99
Es	0.644404	1.399794	-2.017237	99
Es	-0.166946	1.455752	0.826508	99
Es	-0.384342	-1.023513	0.642452	99
Es	2.043008	0.481636	0.095006	99
Es	0.300816	1.208222	0.931435	99
Es	0.180983	1.620528	-1.866673	99
Es	0.388923	-0.152811	0.233805	99
Es	-0.081759	1.545844	1.349844	99
Es	-0.023324	1.600692	1.091005	99
Es	1.689891	0.598321	0.481151	99
Es	0.180837	1.768775	0.931492	99
Es	2.320057	0.434125	0.550060	99
Es	-1.616352	-0.605247	0.835276	99
40
Properties=species:S:1:pos:R:3:Z:I:1 energy=-717.057509810519 field_type=dipole dipole="0.000000 0.000000 0.000000" charge=0
C	-1.204713	-1.115012	0.561581	6
C	0.057397	-0.892472	0.170201	6
S	0.768607	0.671808	0.314311	16
O	-0.023523	1.600908	1.091191	8
O	2.212687	0.600828	0.364001	8
C	0.568377	1.408128	-1.325129	6
N	0.420577	1.842778	-2.396889	7
H	-1.644223	-2.104712	0.475141	1
H	-1.831923	-0.332122	0.982901	1
H	0.676737	-1.680132	-0.237309	1
Es	0.180739	1.619055	-1.867260	99
Es	-1.204742	-1.115023	0.561590	99
Es	0.389047	-0.152956	0.234010	99
Es	2.037984	0.484958	0.092402	99
Es	-0.023345	1.600665	1.091030	99
Es	0.850975	0.620772	0.382767	99
Es	-0.070135	1.544646	1.352986	99
Es	0.646016	1.400517	-2.017335	99
Es	0.674186	0.689163	0.377851	99
Es	0.740751	0.599360	0.222738	99
Es	1.691469	0.602216	0.483977	99
Es	0.057512	-0.892283	0.170203	99
Es	-0.174373	1.452896	0.833645	99
Es	-0.384973	-1.023521	0.642270	99
Es	0.377099	1.980676	-2.725975	99
Es	-0.598758	-0.881006	0.061090	99
Es	-1.491046	-1.769665	0.502444	99
Es	0.303349	1.211218	0.924994	99
Es	0.477582	-1.386767	-0.101523	99
Es	2.172684	0.896998	0.321778	99
Es	-1.616316	-0.605226	0.835342	99
Es	0.174134	1.769840	0.927641	99
Es	0.420634	1.842605	-2.396466	99
Es	0.808392	0.777984	0.273490	99
Es	0.768590	0.671812	0.314224	99
Es	0.641871	1.888907	-1.785786	99
Es	2.317624	0.427692	0.545922	99
Es	0.568429	1.407966	-1.324739	99
Es	2.212293	0.600791	0.363997	99
Es	0.632133	1.083957	-0.671926	99
40
Properties=species:S:1:pos:R:3:Z:I:1 energy=-717.057509810519 field_type=dipole dipole="0.000000 0.000000 0.000000" charge=0
C	-1.204713	-1.115012	0.561581	6
C	0.057397	-0.892472	0.170201	6
S	0.768607	0.671808	0.314311	16
O	-0.023523	1.600908	1.091191	8
O	2.212687	0.600828	0.364001	8
C	0.568377	1.408128	-1.325129	6
N	0.420577	1.842778	-2.396889	7
H	-1.644223	-2.104712	0.475141	1
H	-1.831923	-0.332122	0.982901	1
H	0.676737	-1.680132	-0.237309	1
Es	0.180562	1.621278	-1.866613	99
Es	-1.204741	-1.115024	0.561591	99
Es	0.643797	1.888146	-1.786436	99
Es	2.162231	0.894868	0.309988	99
Es	0.477436	-1.386621	-0.101805	99
Es	2.327574	0.439955	0.549200	99
Es	0.568427	1.407962	-1.324739	99
Es	0.712931	0.573198	0.345604	99
Es	0.774903	0.742710	0.407432	99
Es	-1.491093	-1.769739	0.502418	99
Es	0.708168	0.726702	0.224719	99
Es	0.632099	1.083913	-0.671878	99
Es	2.037020	0.476478	0.096729	99
Es	0.643908	1.399294	-2.017367	99
Es	0.377465	1.980500	-2.725961	99
Es	1.693002	0.600441	0.488151	99
Es	-0.023254	1.600580	1.091059	99
Es	0.389078	-0.152993	0.233985	99
Es	2.212238	0.600898	0.363966	99
Es	-1.616249	-0.605140	0.835339	99
Es	0.057517	-0.892279	0.170206	99
Es	-0.076867	1.547663	1.351691	99
Es	0.768501	0.671780	0.314381	99
Es	0.420634	1.842602	-2.396462	99
Es	-0.598758	-0.880983	0.061298	99
Es	-0.384882	-1.023670	0.642414	99
Es	0.180091	1.766925	0.929034	99
Es	0.878349	0.644680	0.278897	99
Es	0.300005	1.207490	0.928686	99
Es	-0.170286	1.456634	0.829856	99
