45
Properties=species:S:1:pos:R:3:Z:I:1 energy=-739.2730979463427 field_type=dipole dipole="0.000000 0.000000 0.000000" charge=0
O	-2.020713	0.238225	-0.799034	8
C	-0.574863	0.158615	-0.742294	6
C	0.110997	1.145905	0.234506	6
C	1.211797	0.130725	0.605316	6
S	0.130157	-1.205015	0.204136	16
O	-0.724523	-1.582865	1.311346	8
O	0.759567	-2.175154	-0.666244	8
H	-2.322503	-0.688055	-0.854124	1
H	-0.152363	0.170765	-1.753344	1
H	-0.522043	1.433005	1.083536	1
H	0.481687	2.065245	-0.229034	1
H	2.092017	0.158745	-0.045044	1
H	1.530787	0.149855	1.650276	1
Es	0.239876	-1.202203	0.159393	99
Es	-2.107796	0.344978	-0.529066	99
Es	-0.494145	-1.726784	1.421855	99
Es	-0.398449	-1.443293	0.901726	99
Es	-0.272810	0.159367	-1.408682	99
Es	-2.076351	0.369928	-1.064319	99
Es	0.116189	-1.304181	0.267245	99
Es	-0.310344	1.318786	0.800541	99
Es	0.856106	-1.906743	-0.801127	99
Es	0.367283	1.754896	-0.084478	99
Es	-2.160480	-0.259215	-0.832336	99
Es	0.130137	-1.204991	0.204161	99
Es	0.111047	1.145783	0.234464	99
Es	-0.319953	-0.538285	-0.345611	99
Es	0.914006	-2.297784	-0.458466	99
Es	0.051221	-1.203359	0.115424	99
Es	1.211700	0.130668	0.605282	99
Es	-0.752956	-1.284395	1.358809	99
Es	0.478393	-2.251915	-0.739098	99
Es	-0.724489	-1.582793	1.311276	99
Es	-0.575079	0.158565	-0.742204	99
Es	1.777902	0.140727	0.159463	99
Es	1.418963	0.136427	1.296615	99
Es	-1.461096	0.181770	-0.772804	99
Es	-0.265279	0.687153	-0.271991	99
Es	0.529814	-1.846647	-0.308518	99
Es	0.759442	-2.174929	-0.666074	99
Es	-0.897402	-1.707252	1.098252	99
Es	0.775998	-0.543714	0.469576	99
Es	0.692263	0.657623	0.443109	99
Es	0.113321	-1.110265	0.274472	99
Es	-2.020481	0.237909	-0.798954	99
45
Properties=species:S:1:pos:R:3:Z:I:1 energy=-739.2730979463427 field_type=dipole dipole="0.000000 0.000000 0.000000" charge=0
O	-2.020713	0.238225	-0.799034	8
C	-0.574863	0.158615	-0.742294	6
C	0.110997	1.145905	0.234506	6
C	1.211797	0.130725	0.605316	6
S	0.130157	-1.205015	0.204136	16
O	-0.724523	-1.582865	1.311346	8
O	0.759567	-2.175154	-0.666244	8
H	-2.322503	-0.688055	-0.854124	1
H	-0.152363	0.170765	-1.753344	1
H	-0.522043	1.433005	1.083536	1
H	0.481687	2.065245	-0.229034	1
H	2.092017	0.158745	-0.045044	1
H	1.530787	0.149855	1.650276	1
Es	1.211701	0.130668	0.605281	99
Es	0.144761	-1.298540	0.269490	99
Es	-0.265178	0.687292	-0.272073	99
Es	-0.896588	-1.692696	1.088417	99
Es	0.225906	-1.190646	0.128202	99
Es	-0.395486	-1.437987	0.906017	99
Es	-0.501190	-1.743467	1.411483	99
Es	0.131003	-1.205113	0.203583	99
Es	-0.724371	-1.582790	1.311142	99
Es	1.418961	0.136377	1.296568	99
Es	0.025946	-1.215063	0.144460	99
Es	-2.161784	-0.259437	-0.831732	99
Es	-2.020505	0.237952	-0.799057	99
Es	-1.461126	0.181305	-0.776548	99
Es	0.861655	-1.908662	-0.799466	99
Es	1.777917	0.140708	0.159489	99
Es	-0.310453	1.318801	0.800443	99
Es	0.479772	-2.250501	-0.742298	99
Es	-0.749816	-1.287588	1.374841	99
Es	-0.319926	-0.538258	-0.345610	99
Es	-2.103342	0.342381	-0.527809	99
Es	0.111045	1.145783	0.234464	99
Es	0.775999	-0.543658	0.469570	99
Es	-0.575072	0.158564	-0.742207	99
Es	0.123163	-1.115678	0.274969	99
Es	0.367265	1.754863	-0.084418	99
Es	-0.272805	0.159301	-1.408574	99
Es	0.909536	-2.298993	-0.453695	99
Es	0.527348	-1.844910	-0.311734	99
Es	0.759437	-2.174959	-0.666078	99
Es	0.692282	0.657637	0.443218	99
Es	-2.079503	0.373145	-1.062404	99
45
Properties=species:S:1:pos:R:3:Z:I:1 energy=-739.2730979463427 field_type=dipole dipole="0.000000 0.000000 0.000000" charge=0
O	-2.020713	0.238225	-0.799034	8
C	-0.574863	0.158615	-0.742294	6
C	0.110997	1.145905	0.234506	6
C	1.211797	0.130725	0.605316	6
S	0.130157	-1.205015	0.204136	16
O	-0.724523	-1.582865	1.311346	8
O	0.759567	-2.175154	-0.666244	8
H	-2.322503	-0.688055	-0.854124	1
H	-0.152363	0.170765	-1.753344	1
H	-0.522043	1.433005	1.083536	1
H	0.481687	2.065245	-0.229034	1
H	2.092017	0.158745	-0.045044	1
H	1.530787	0.149855	1.650276	1
Es	0.075961	-1.104659	0.241094	99
Es	0.367222	1.754873	-0.084342	99
Es	-0.724303	-1.582734	1.311076	99
Es	-0.319859	-0.538246	-0.345636	99
Es	1.777840	0.140736	0.159539	99
Es	0.172531	-1.269793	0.298716	99
Es	-0.758569	-1.289256	1.373867	99
Es	0.851632	-1.903249	-0.796490	99
Es	1.211701	0.130668	0.605282	99
Es	0.692181	0.657661	0.443188	99
Es	0.217396	-1.176587	0.134375	99
Es	-0.485883	-1.727822	1.407981	99
Es	-2.020492	0.237913	-0.799020	99
Es	0.054610	-1.268691	0.142321	99
Es	-0.265226	0.687344	-0.272105	99
Es	-0.310387	1.318775	0.800415	99
Es	-0.575073	0.158564	-0.742205	99
Es	-2.104722	0.342705	-0.527539	99
Es	-0.404714	-1.433576	0.900479	99
Es	-2.161019	-0.258978	-0.832220	99
Es	-2.079385	0.372071	-1.062395	99
Es	0.130265	-1.205313	0.204201	99
Es	0.111046	1.145783	0.234464	99
Es	0.776167	-0.543743	0.469592	99
Es	0.759369	-2.174918	-0.666051	99
Es	0.921009	-2.275513	-0.443798	99
Es	1.419042	0.136368	1.296518	99
Es	-1.460665	0.181620	-0.776358	99
Es	-0.272859	0.159340	-1.408532	99
Es	0.511143	-1.848742	-0.319417	99
Es	-0.893985	-1.711170	1.098474	99
Es	0.494575	-2.275601	-0.747536	99
45
Properties=species:S:1:pos:R:3:Z:I:1 energy=-739.2730979463427 field_type=dipole dipole="0.000000 0.000000 0.000000" charge=0
O	-2.020713	0.238225	-0.799034	8
C	-0.574863	0.158615	-0.742294	6
C	0.110997	1.145905	0.234506	6
C	1.211797	0.130725	0.605316	6
S	0.130157	-1.205015	0.204136	16
O	-0.724523	-1.582865	1.311346	8
O	0.759567	-2.175154	-0.666244	8
H	-2.322503	-0.688055	-0.854124	1
H	-0.152363	0.170765	-1.753344	1
H	-0.522043	1.433005	1.083536	1
H	0.481687	2.065245	-0.229034	1
H	2.092017	0.158745	-0.045044	1
H	1.530787	0.149855	1.650276	1
Es	-0.272878	0.159195	-1.408524	99
Es	0.367245	1.754899	-0.084241	99
Es	1.777906	0.140742	0.159639	99
Es	-0.310338	1.318808	0.800150	99
Es	1.211700	0.130668	0.605282	99
Es	1.418965	0.136171	1.296514	99
Es	0.122818	-1.118536	0.124284	99
Es	-0.575065	0.158563	-0.742204	99
Es	0.692302	0.657691	0.443499	99
Es	0.168757	-1.159822	0.305242	99
Es	-2.078797	0.372746	-1.061619	99
Es	-2.020490	0.237909	-0.798893	99
Es	0.487892	-2.269729	-0.741783	99
Es	0.130129	-1.205161	0.204212	99
Es	0.111045	1.145783	0.234465	99
Es	0.759458	-2.174973	-0.666086	99
Es	-0.724417	-1.582818	1.311185	99
Es	-0.900116	-1.704722	1.098903	99
Es	0.518260	-1.843649	-0.318955	99
Es	0.916902	-2.280835	-0.444716	99
Es	-0.749339	-1.283945	1.362653	99
Es	-2.105144	0.341879	-0.529201	99
Es	-0.493517	-1.729572	1.417895	99
Es	0.855225	-1.908852	-0.801698	99
Es	-2.161547	-0.259536	-0.833103	99
Es	0.776089	-0.543684	0.469432	99
Es	-0.319885	-0.538191	-0.345648	99
Es	-1.460325	0.182346	-0.774716	99
Es	0.207084	-1.288411	0.166081	99
Es	-0.400089	-1.443467	0.901236	99
Es	-0.265262	0.687445	-0.272217	99
Es	0.021982	-1.253114	0.220865	99
45
Properties=species:S:1:pos:R:3:Z:I:1 energy=-739.2730979463427 field_type=dipole dipole="0.000000 0.000000 0.000000" charge=0
O	-2.020713	0.238225	-0.799034	8
C	-0.574863	0.158615	-0.742294	6
C	0.110997	1.145905	0.234506	6
C	1.211797	0.130725	0.605316	6
S	0.130157	-1.205015	0.204136	16
O	-0.724523	-1.582865	1.311346	8
O	0.759567	-2.175154	-0.666244	8
H	-2.322503	-0.688055	-0.854124	1
H	-0.152363	0.170765	-1.753344	1
H	-0.522043	1.433005	1.083536	1
H	0.481687	2.065245	-0.229034	1
H	2.092017	0.158745	-0.045044	1
H	1.530787	0.149855	1.650276	1
Es	0.532454	-1.846197	-0.308300	99
Es	0.111047	1.145782	0.234464	99
Es	0.692243	0.657803	0.443391	99
Es	-0.510137	-1.748914	1.416785	99
Es	0.922001	-2.296818	-0.461548	99
Es	0.476803	-2.253648	-0.732780	99
Es	-2.020550	0.237954	-0.799053	99
Es	1.418997	0.136193	1.296392	99
Es	1.777894	0.140666	0.159692	99
Es	-0.897056	-1.685793	1.079374	99
Es	0.847002	-1.906397	-0.804461	99
Es	-0.310339	1.318933	0.800221	99
Es	-0.575069	0.158564	-0.742206	99
Es	0.212705	-1.287112	0.236835	99
Es	-0.724374	-1.582791	1.311152	99
Es	-2.104468	0.342301	-0.529651	99
Es	-0.747530	-1.287954	1.371644	99
Es	0.059632	-1.182860	0.293978	99
Es	-0.265259	0.687443	-0.272103	99
Es	-2.161927	-0.259390	-0.831638	99
Es	-2.078888	0.372748	-1.062716	99
Es	-0.272875	0.159220	-1.408468	99
Es	0.065320	-1.245776	0.113558	99
Es	1.211701	0.130669	0.605282	99
Es	0.183217	-1.104296	0.172042	99
Es	-0.388349	-1.439072	0.912946	99
Es	-0.319861	-0.538180	-0.345706	99
Es	0.759469	-2.174994	-0.666127	99
Es	0.129901	-1.205024	0.204290	99
Es	0.776174	-0.543710	0.469501	99
Es	0.367172	1.754779	-0.084351	99
Es	-1.460497	0.181702	-0.774505	99
45
Properties=species:S:1:pos:R:3:Z:I:1 energy=-739.2730979463427 field_type=dipole dipole="0.000000 0.000000 0.000000" charge=0
O	-2.020713	0.238225	-0.799034	8
C	-0.574863	0.158615	-0.742294	6
C	0.110997	1.145905	0.234506	6
C	1.211797	0.130725	0.605316	6
S	0.130157	-1.205015	0.204136	16
O	-0.724523	-1.582865	1.311346	8
O	0.759567	-2.175154	-0.666244	8
H	-2.322503	-0.688055	-0.854124	1
H	-0.152363	0.170765	-1.753344	1
H	-0.522043	1.433005	1.083536	1
H	0.481687	2.065245	-0.229034	1
H	2.092017	0.158745	-0.045044	1
H	1.530787	0.149855	1.650276	1
Es	0.130225	-1.205016	0.204199	99
Es	-0.265257	0.687577	-0.272155	99
Es	-0.724370	-1.582788	1.311141	99
Es	0.111044	1.145786	0.234464	99
Es	0.692355	0.657836	0.443419	99
Es	1.211701	0.130669	0.605282	99
Es	1.777690	0.140576	0.159712	99
Es	-2.020510	0.237945	-0.799037	99
Es	1.419204	0.136104	1.296428	99
Es	0.367149	1.754846	-0.084229	99
Es	0.863756	-1.921613	-0.809539	99
Es	0.158841	-1.087167	0.213680	99
Es	-0.903213	-1.698781	1.100828	99
Es	-1.460312	0.181972	-0.774330	99
Es	-0.575066	0.158564	-0.742206	99
Es	0.029314	-1.215822	0.148632	99
Es	0.908079	-2.288943	-0.438886	99
Es	0.776139	-0.543656	0.469432	99
Es	-0.743249	-1.281740	1.359656	99
Es	-0.310371	1.318830	0.800133	99
Es	-2.077694	0.370874	-1.062452	99
Es	-2.106174	0.343840	-0.529595	99
Es	0.119761	-1.254702	0.311749	99
Es	0.759447	-2.174939	-0.666064	99
Es	0.480320	-2.259795	-0.733962	99
Es	0.526076	-1.832776	-0.324763	99
Es	-0.398315	-1.448832	0.899537	99
Es	-0.272905	0.159356	-1.408309	99
Es	-0.498284	-1.732427	1.420721	99
Es	-0.319788	-0.538317	-0.345774	99
Es	0.212639	-1.262325	0.142448	99
Es	-2.161683	-0.259306	-0.832229	99
45
Properties=species:S:1:pos:R:3:Z:I:1 energy=-739.2730979463427 field_type=dipole dipole="0.000000 0.000000 0.000000" charge=0
O	-2.020713	0.238225	-0.799034	8
C	-0.574863	0.158615	-0.742294	6
C	0.110997	1.145905	0.234506	6
C	1.211797	0.130725	0.605316	6
S	0.130157	-1.205015	0.204136	16
O	-0.724523	-1.582865	1.311346	8
O	0.759567	-2.175154	-0.666244	8
H	-2.322503	-0.688055	-0.854124	1
H	-0.152363	0.170765	-1.753344	1
H	-0.522043	1.433005	1.083536	1
H	0.481687	2.065245	-0.229034	1
H	2.092017	0.158745	-0.045044	1
H	1.530787	0.149855	1.650276	1
Es	0.111046	1.145783	0.234463	99
Es	-0.899862	-1.707583	1.102153	99
Es	1.419076	0.136190	1.296364	99
Es	-0.488255	-1.727960	1.415067	99
Es	-0.319812	-0.538224	-0.345794	99
Es	-2.020450	0.237890	-0.799304	99
Es	-0.724377	-1.582800	1.311157	99
Es	-0.404341	-1.440627	0.898763	99
Es	1.777847	0.140521	0.159678	99
Es	-2.161646	-0.259413	-0.833246	99
Es	0.367140	1.754843	-0.084258	99
Es	0.200948	-1.285157	0.236408	99
Es	1.211700	0.130668	0.605282	99
Es	-0.265257	0.687512	-0.272139	99
Es	0.692353	0.657885	0.443398	99
Es	0.483359	-2.256554	-0.746143	99
Es	0.522914	-1.848497	-0.312084	99
Es	0.131266	-1.206304	0.204851	99
Es	-2.103576	0.339810	-0.528667	99
Es	-2.080794	0.374428	-1.060269	99
Es	-0.310272	1.318862	0.800143	99
Es	0.111940	-1.216233	0.086022	99
Es	0.759465	-2.174987	-0.666107	99
Es	0.854895	-1.903926	-0.794834	99
Es	0.776071	-0.543647	0.469591	99
Es	0.179556	-1.098354	0.229394	99
Es	-0.575070	0.158564	-0.742205	99
Es	0.027100	-1.218986	0.264062	99
Es	0.917052	-2.294096	-0.454057	99
Es	-0.750620	-1.285610	1.364701	99
Es	-1.459935	0.182608	-0.776157	99
Es	-0.272910	0.159221	-1.408300	99
45
Properties=species:S:1:pos:R:3:Z:I:1 energy=-739.2730979463427 field_type=dipole dipole="0.000000 0.000000 0.000000" charge=0
O	-2.020713	0.238225	-0.799034	8
C	-0.574863	0.158615	-0.742294	6
C	0.110997	1.145905	0.234506	6
C	1.211797	0.130725	0.605316	6
S	0.130157	-1.205015	0.204136	16
O	-0.724523	-1.582865	1.311346	8
O	0.759567	-2.175154	-0.666244	8
H	-2.322503	-0.688055	-0.854124	1
H	-0.152363	0.170765	-1.753344	1
H	-0.522043	1.433005	1.083536	1
H	0.481687	2.065245	-0.229034	1
H	2.092017	0.158745	-0.045044	1
H	1.530787	0.149855	1.650276	1
Es	0.914029	-2.310388	-0.465572	99
Es	-2.020506	0.237941	-0.799000	99
Es	0.111046	1.145783	0.234463	99
Es	0.130161	-1.204872	0.204190	99
Es	0.776144	-0.543769	0.469579	99
Es	-0.501569	-1.734288	1.425836	99
Es	-2.104394	0.339997	-0.528154	99
Es	0.532949	-1.851148	-0.304506	99
Es	-0.884947	-1.703686	1.081158	99
Es	1.211698	0.130667	0.605283	99
Es	-0.724364	-1.582787	1.311139	99
Es	0.366949	1.754795	-0.084367	99
Es	-2.161868	-0.259165	-0.834726	99
Es	-0.310146	1.318921	0.800169	99
Es	0.856257	-1.902313	-0.791987	99
Es	0.086758	-1.297312	0.262470	99
Es	0.759463	-2.174982	-0.666095	99
Es	0.172701	-1.240668	0.097971	99
Es	-0.765803	-1.288096	1.361398	99
Es	-0.390734	-1.435764	0.912329	99
Es	-2.079751	0.374247	-1.059881	99
Es	0.217075	-1.151925	0.269653	99
Es	1.777846	0.140359	0.159985	99
Es	0.044085	-1.130212	0.186421	99
Es	-0.575064	0.158564	-0.742205	99
Es	0.692573	0.658046	0.443054	99
Es	-0.319859	-0.538178	-0.345813	99
Es	-0.265329	0.687560	-0.271961	99
Es	0.474976	-2.239225	-0.745060	99
Es	-1.459883	0.182303	-0.775874	99
Es	-0.272940	0.159160	-1.408289	99
Es	1.419000	0.136265	1.296323	99
45
Properties=species:S:1:pos:R:3:Z:I:1 energy=-739.2730979463427 field_type=dipole dipole="0.000000 0.000000 0.000000" charge=0
O	-2.020713	0.238225	-0.799034	8
C	-0.574863	0.158615	-0.742294	6
C	0.110997	1.145905	0.234506	6
C	1.211797	0.130725	0.605316	6
S	0.130157	-1.205015	0.204136	16
O	-0.724523	-1.582865	1.311346	8
O	0.759567	-2.175154	-0.666244	8
H	-2.322503	-0.688055	-0.854124	1
H	-0.152363	0.170765	-1.753344	1
H	-0.522043	1.433005	1.083536	1
H	0.481687	2.065245	-0.229034	1
H	2.092017	0.158745	-0.045044	1
H	1.530787	0.149855	1.650276	1
Es	0.495632	-2.280648	-0.746823	99
Es	-0.272902	0.159190	-1.408230	99
Es	0.120718	-1.235847	0.316978	99
Es	0.141209	-1.087746	0.197543	99
Es	-0.895662	-1.703315	1.092785	99
Es	-2.161986	-0.259088	-0.832923	99
Es	-0.310210	1.318885	0.800037	99
Es	0.856653	-1.908235	-0.798920	99
Es	1.211697	0.130667	0.605280	99
Es	0.111048	1.145781	0.234461	99
Es	-2.079175	0.372767	-1.061303	99
Es	0.031813	-1.238780	0.145890	99
Es	-0.724481	-1.582804	1.311121	99
Es	-0.319776	-0.538144	-0.345789	99
Es	1.777764	0.140543	0.159853	99
Es	-1.459692	0.182221	-0.774719	99
Es	-0.752577	-1.281169	1.351896	99
Es	0.366958	1.754795	-0.084185	99
Es	0.759447	-2.174885	-0.666031	99
Es	0.916318	-2.270155	-0.436836	99
Es	-2.105069	0.341443	-0.529720	99
Es	-2.020515	0.237948	-0.799029	99
Es	-0.392863	-1.448455	0.905959	99
Es	0.776223	-0.543761	0.469477	99
Es	0.692440	0.658055	0.443464	99
Es	-0.575062	0.158564	-0.742205	99
Es	0.226843	-1.257639	0.156157	99
Es	-0.501834	-1.728841	1.430112	99
Es	-0.265341	0.687597	-0.272158	99
Es	0.509622	-1.844149	-0.324575	99
Es	1.419155	0.136079	1.296234	99
Es	0.130158	-1.205044	0.204132	99
45
Properties=species:S:1:pos:R:3:Z:I:1 energy=-739.2730979463427 field_type=dipole dipole="0.000000 0.000000 0.000000" charge=0
O	-2.020713	0.238225	-0.799034	8
C	-0.574863	0.158615	-0.742294	6
C	0.110997	1.145905	0.234506	6
C	1.211797	0.130725	0.605316	6
S	0.130157	-1.205015	0.204136	16
O	-0.724523	-1.582865	1.311346	8
O	0.759567	-2.175154	-0.666244	8
H	-2.322503	-0.688055	-0.854124	1
H	-0.152363	0.170765	-1.753344	1
H	-0.522043	1.433005	1.083536	1
H	0.481687	2.065245	-0.229034	1
H	2.092017	0.158745	-0.045044	1
H	1.530787	0.149855	1.650276	1
Es	-0.310179	1.318879	0.799984	99
Es	0.471188	-2.234525	-0.739902	99
Es	-0.575064	0.158564	-0.742205	99
Es	0.366975	1.754797	-0.084102	99
Es	0.015316	-1.196846	0.180106	99
Es	0.776195	-0.543745	0.469454	99
Es	0.146465	-1.237429	0.320101	99
Es	-0.265329	0.687756	-0.272240	99
Es	-2.104456	0.340673	-0.529609	99
Es	-2.079351	0.373528	-1.060399	99
Es	-2.020592	0.238064	-0.799043	99
Es	-0.319756	-0.538198	-0.345843	99
Es	0.175282	-1.285554	0.135416	99
Es	0.692470	0.657988	0.443454	99
Es	1.419161	0.136075	1.296220	99
Es	0.111045	1.145781	0.234462	99
Es	-0.899869	-1.707816	1.102793	99
Es	0.910082	-2.314573	-0.463190	99
Es	1.777741	0.140530	0.159915	99
Es	-0.485465	-1.729170	1.410799	99
Es	-0.750740	-1.286935	1.369051	99
Es	1.211695	0.130673	0.605281	99
Es	0.859263	-1.909132	-0.796886	99
Es	-1.459623	0.182262	-0.775076	99
Es	0.130408	-1.204833	0.203896	99
Es	0.183313	-1.100374	0.181196	99
Es	-0.724377	-1.582793	1.311158	99
Es	-0.406948	-1.437906	0.898048	99
Es	-2.162448	-0.259219	-0.833566	99
Es	0.759439	-2.174972	-0.666128	99
Es	0.537688	-1.844885	-0.307067	99
Es	-0.272974	0.159164	-1.408146	99
45
Properties=species:S:1:pos:R:3:Z:I:1 energy=-739.2730979463427 field_type=dipole dipole="0.000000 0.000000 0.000000" charge=0
O	-2.020713	0.238225	-0.799034	8
C	-0.574863	0.158615	-0.742294	6
C	0.110997	1.145905	0.234506	6
C	1.211797	0.130725	0.605316	6
S	0.130157	-1.205015	0.204136	16
O	-0.724523	-1.582865	1.311346	8
O	0.759567	-2.175154	-0.666244	8
H	-2.322503	-0.688055	-0.854124	1
H	-0.152363	0.170765	-1.753344	1
H	-0.522043	1.433005	1.083536	1
H	0.481687	2.065245	-0.229034	1
H	2.092017	0.158745	-0.045044	1
H	1.530787	0.149855	1.650276	1
Es	-0.310285	1.318981	0.799909	99
Es	0.130118	-1.205007	0.204165	99
Es	1.777737	0.140470	0.159880	99
Es	0.549677	-1.849909	-0.297119	99
Es	-2.077756	0.372095	-1.060586	99
Es	-0.265275	0.687654	-0.272305	99
Es	-0.575065	0.158563	-0.742204	99
Es	0.366925	1.754686	-0.084128	99
Es	-0.755759	-1.286405	1.363908	99
Es	0.134698	-1.282939	0.291812	99
Es	0.692439	0.658217	0.443668	99
Es	0.463530	-2.214886	-0.734597	99
Es	-0.272933	0.159181	-1.408114	99
Es	0.759454	-2.174947	-0.666088	99
Es	0.022805	-1.210126	0.152484	99
Es	1.419214	0.135955	1.296124	99
Es	1.211700	0.130669	0.605282	99
Es	0.111046	1.145783	0.234464	99
Es	0.215480	-1.230225	0.124016	99
Es	-2.106065	0.342233	-0.530412	99
Es	-0.499346	-1.735867	1.421328	99
Es	-2.162663	-0.259209	-0.833869	99
Es	0.147648	-1.096735	0.248212	99
Es	-0.724256	-1.582716	1.311078	99
Es	-0.893421	-1.700492	1.087609	99
Es	0.857133	-1.905821	-0.795564	99
Es	-0.319775	-0.538213	-0.345800	99
Es	0.907880	-2.332499	-0.479805	99
Es	-2.020499	0.237936	-0.799033	99
Es	-1.459492	0.182249	-0.773849	99
Es	-0.394568	-1.439165	0.907954	99
Es	0.776226	-0.543683	0.469512	99
45
Properties=species:S:1:pos:R:3:Z:I:1 energy=-739.2730979463427 field_type=dipole dipole="0.000000 0.000000 0.000000" charge=0
O	-2.020713	0.238225	-0.799034	8
C	-0.574863	0.158615	-0.742294	6
C	0.110997	1.145905	0.234506	6
C	1.211797	0.130725	0.605316	6
S	0.130157	-1.205015	0.204136	16
O	-0.724523	-1.582865	1.311346	8
O	0.759567	-2.175154	-0.666244	8
H	-2.322503	-0.688055	-0.854124	1
H	-0.152363	0.170765	-1.753344	1
H	-0.522043	1.433005	1.083536	1
H	0.481687	2.065245	-0.229034	1
H	2.092017	0.158745	-0.045044	1
H	1.530787	0.149855	1.650276	1
Es	0.776236	-0.543750	0.469539	99
Es	-0.493830	-1.726459	1.425466	99
Es	-0.399744	-1.446720	0.901041	99
Es	0.759485	-2.175058	-0.665899	99
Es	1.211703	0.130669	0.605284	99
Es	0.130121	-1.205020	0.204109	99
Es	0.917166	-2.260286	-0.431202	99
Es	0.855715	-1.908362	-0.800071	99
Es	1.419119	0.136027	1.296132	99
Es	-0.310126	1.318903	0.799901	99
Es	0.366866	1.754770	-0.084081	99
Es	-2.162421	-0.259290	-0.832783	99
Es	-0.265335	0.687757	-0.272258	99
Es	-1.459418	0.182523	-0.774619	99
Es	-0.575062	0.158564	-0.742205	99
Es	0.111046	1.145782	0.234464	99
Es	-0.273010	0.159109	-1.408047	99
Es	-2.020557	0.237994	-0.799050	99
Es	-0.898324	-1.706567	1.099754	99
Es	0.500425	-2.290092	-0.746588	99
Es	-0.319699	-0.538144	-0.345889	99
Es	0.141080	-1.108933	0.136447	99
Es	-2.105400	0.342115	-0.530452	99
Es	0.692557	0.658297	0.443394	99
Es	-0.724456	-1.582757	1.311244	99
Es	-0.751085	-1.282110	1.354312	99
Es	0.035888	-1.192475	0.276412	99
Es	0.504800	-1.844297	-0.329405	99
Es	-2.078697	0.371928	-1.060834	99
Es	0.228561	-1.218569	0.268785	99
Es	0.115159	-1.300043	0.134970	99
Es	1.777787	0.140322	0.160061	99
45
Properties=species:S:1:pos:R:3:Z:I:1 energy=-739.2730979463427 field_type=dipole dipole="0.000000 0.000000 0.000000" charge=0
O	-2.020713	0.238225	-0.799034	8
C	-0.574863	0.158615	-0.742294	6
C	0.110997	1.145905	0.234506	6
C	1.211797	0.130725	0.605316	6
S	0.130157	-1.205015	0.204136	16
O	-0.724523	-1.582865	1.311346	8
O	0.759567	-2.175154	-0.666244	8
H	-2.322503	-0.688055	-0.854124	1
H	-0.152363	0.170765	-1.753344	1
H	-0.522043	1.433005	1.083536	1
H	0.481687	2.065245	-0.229034	1
H	2.092017	0.158745	-0.045044	1
H	1.530787	0.149855	1.650276	1
Es	-1.458964	0.182841	-0.775144	99
Es	-0.310145	1.318898	0.799838	99
Es	0.230064	-1.265866	0.258726	99
Es	0.366785	1.754778	-0.084092	99
Es	-0.272998	0.159107	-1.407994	99
Es	0.759425	-2.174916	-0.665984	99
Es	0.028949	-1.173262	0.276200	99
Es	-0.724321	-1.582780	1.311128	99
Es	1.777678	0.140449	0.160034	99
Es	0.146782	-1.145281	0.091905	99
Es	-0.575068	0.158564	-0.742206	99
Es	-0.508401	-1.738644	1.428696	99
Es	-2.163047	-0.259464	-0.832281	99
Es	-0.388306	-1.444635	0.911588	99
Es	0.465182	-2.217139	-0.739573	99
Es	-0.265320	0.687748	-0.272284	99
Es	1.211697	0.130673	0.605281	99
Es	0.692507	0.658356	0.443618	99
Es	-2.105164	0.342571	-0.531238	99
Es	0.776300	-0.543787	0.469484	99
Es	-2.078811	0.371284	-1.060098	99
Es	0.120114	-1.226063	0.194664	99
Es	-2.020522	0.238029	-0.799035	99
Es	-0.319707	-0.538186	-0.345868	99
Es	0.906741	-2.330363	-0.476302	99
Es	-0.893217	-1.695028	1.082976	99
Es	0.124888	-1.214557	0.199234	99
Es	1.419255	0.135941	1.296028	99
Es	0.546346	-1.849788	-0.298964	99
Es	0.859938	-1.905879	-0.792328	99
Es	0.111046	1.145780	0.234463	99
Es	-0.753153	-1.283549	1.357460	99
45
Properties=species:S:1:pos:R:3:Z:I:1 energy=-739.2730979463427 field_type=dipole dipole="0.000000 0.000000 0.000000" charge=0
O	-2.020713	0.238225	-0.799034	8
C	-0.574863	0.158615	-0.742294	6
C	0.110997	1.145905	0.234506	6
C	1.211797	0.130725	0.605316	6
S	0.130157	-1.205015	0.204136	16
O	-0.724523	-1.582865	1.311346	8
O	0.759567	-2.175154	-0.666244	8
H	-2.322503	-0.688055	-0.854124	1
H	-0.152363	0.170765	-1.753344	1
H	-0.522043	1.433005	1.083536	1
H	0.481687	2.065245	-0.229034	1
H	2.092017	0.158745	-0.045044	1
H	1.530787	0.149855	1.650276	1
Es	0.559283	-1.855511	-0.289299	99
Es	1.777745	0.140414	0.159971	99
Es	0.906575	-2.345342	-0.494304	99
Es	0.111046	1.145784	0.234463	99
Es	0.188339	-1.163787	0.299059	99
Es	0.167994	-1.148628	0.106159	99
Es	-0.319764	-0.538138	-0.345859	99
Es	-2.077966	0.370998	-1.060437	99
Es	0.776315	-0.543656	0.469505	99
Es	-2.020536	0.237935	-0.799073	99
Es	0.457405	-2.200077	-0.732553	99
Es	0.692431	0.658264	0.443661	99
Es	0.854930	-1.902194	-0.790876	99
Es	-0.575059	0.158564	-0.742205	99
Es	0.366864	1.754734	-0.084034	99
Es	-0.397311	-1.444516	0.904191	99
Es	-0.750664	-1.283564	1.356843	99
Es	-0.310105	1.318942	0.799828	99
Es	0.015217	-1.185426	0.218021	99
Es	-0.496957	-1.731308	1.425196	99
Es	1.419210	0.135825	1.296064	99
Es	-0.898073	-1.702472	1.094457	99
Es	0.130275	-1.205006	0.204160	99
Es	1.211700	0.130671	0.605281	99
Es	-2.162662	-0.259490	-0.832915	99
Es	-0.724375	-1.582791	1.311151	99
Es	0.759443	-2.174966	-0.666102	99
Es	-0.272962	0.159035	-1.407972	99
Es	0.148963	-1.322147	0.193285	99
Es	-1.459088	0.183051	-0.773907	99
Es	-0.265365	0.687835	-0.272332	99
Es	-2.106296	0.342797	-0.531492	99
45
Properties=species:S:1:pos:R:3:Z:I:1 energy=-739.2730979463427 field_type=dipole dipole="0.000000 0.000000 0.000000" charge=0
O	-2.020713	0.238225	-0.799034	8
C	-0.574863	0.158615	-0.742294	6
C	0.110997	1.145905	0.234506	6
C	1.211797	0.130725	0.605316	6
S	0.130157	-1.205015	0.204136	16
O	-0.724523	-1.582865	1.311346	8
O	0.759567	-2.175154	-0.666244	8
H	-2.322503	-0.688055	-0.854124	1
H	-0.152363	0.170765	-1.753344	1
H	-0.522043	1.433005	1.083536	1
H	0.481687	2.065245	-0.229034	1
H	2.092017	0.158745	-0.045044	1
H	1.530787	0.149855	1.650276	1
Es	1.211699	0.130671	0.605285	99
Es	0.776351	-0.543811	0.469475	99
Es	0.852493	-1.912389	-0.804257	99
Es	0.502943	-2.298875	-0.741802	99
Es	-0.575064	0.158565	-0.742206	99
Es	-0.896867	-1.689101	1.083929	99
Es	0.502871	-1.840648	-0.334620	99
Es	-0.310093	1.319095	0.799746	99
Es	0.919828	-2.251205	-0.426327	99
Es	-1.458765	0.182519	-0.774635	99
Es	0.046724	-1.179651	0.286283	99
Es	1.777649	0.140398	0.160092	99
Es	0.224103	-1.257937	0.255619	99
Es	0.130150	-1.205103	0.204186	99
Es	-2.105798	0.343207	-0.531653	99
Es	-0.724337	-1.582775	1.311103	99
Es	-0.513091	-1.741141	1.433778	99
Es	-2.163465	-0.259211	-0.832585	99
Es	-2.020520	0.237995	-0.799019	99
Es	0.084951	-1.277174	0.126492	99
Es	-0.745940	-1.280701	1.352006	99
Es	1.419292	0.135898	1.295978	99
Es	-0.272975	0.159094	-1.407932	99
Es	-0.387162	-1.450903	0.911013	99
Es	0.164838	-1.105193	0.148141	99
Es	0.366836	1.754613	-0.084072	99
Es	-0.265435	0.687827	-0.272275	99
Es	0.759472	-2.174985	-0.666097	99
Es	0.692494	0.658332	0.443679	99
Es	-2.078012	0.370744	-1.059933	99
Es	0.111046	1.145780	0.234462	99
Es	-0.319664	-0.538105	-0.345921	99
45
Properties=species:S:1:pos:R:3:Z:I:1 energy=-739.2730979463427 field_type=dipole dipole="0.000000 0.000000 0.000000" charge=0
O	-2.020713	0.238225	-0.799034	8
C	-0.574863	0.158615	-0.742294	6
C	0.110997	1.145905	0.234506	6
C	1.211797	0.130725	0.605316	6
S	0.130157	-1.205015	0.204136	16
O	-0.724523	-1.582865	1.311346	8
O	0.759567	-2.175154	-0.666244	8
H	-2.322503	-0.688055	-0.854124	1
H	-0.152363	0.170765	-1.753344	1
H	-0.522043	1.433005	1.083536	1
H	0.481687	2.065245	-0.229034	1
H	2.092017	0.158745	-0.045044	1
H	1.530787	0.149855	1.650276	1
Es	0.845335	-1.905183	-0.801674	99
Es	-1.458980	0.182493	-0.773846	99
Es	1.419321	0.135867	1.295907	99
Es	1.211705	0.130673	0.605284	99
Es	0.024500	-1.203547	0.254402	99
Es	0.212104	-1.191588	0.287959	99
Es	-0.310043	1.319041	0.799761	99
Es	-2.106540	0.343951	-0.531888	99
Es	0.139112	-1.116148	0.125519	99
Es	-0.897429	-1.691296	1.085523	99
Es	0.145996	-1.308960	0.149128	99
Es	-0.511499	-1.738787	1.434322	99
Es	-0.265401	0.687842	-0.272253	99
Es	1.777619	0.140289	0.160158	99
Es	0.759395	-2.174883	-0.666001	99
Es	0.776290	-0.543809	0.469540	99
Es	0.473787	-2.248794	-0.733452	99
Es	0.923774	-2.302039	-0.464310	99
Es	0.366817	1.754648	-0.084015	99
Es	-0.319664	-0.538120	-0.346046	99
Es	-0.746121	-1.280280	1.350525	99
Es	0.692537	0.658483	0.443612	99
Es	0.129086	-1.204765	0.203698	99
Es	-0.387973	-1.451492	0.910282	99
Es	0.535289	-1.847219	-0.307652	99
Es	-0.724366	-1.582789	1.311169	99
Es	-2.163391	-0.259270	-0.832669	99
Es	-2.077110	0.370135	-1.060391	99
Es	-0.273008	0.159079	-1.407877	99
Es	-0.575062	0.158565	-0.742204	99
Es	-2.020573	0.237957	-0.799039	99
Es	0.111046	1.145779	0.234461	99
45
Properties=species:S:1:pos:R:3:Z:I:1 energy=-739.2730979463427 field_type=dipole dipole="0.000000 0.000000 0.000000" charge=0
O	-2.020713	0.238225	-0.799034	8
C	-0.574863	0.158615	-0.742294	6
C	0.110997	1.145905	0.234506	6
C	1.211797	0.130725	0.605316	6
S	0.130157	-1.205015	0.204136	16
O	-0.724523	-1.582865	1.311346	8
O	0.759567	-2.175154	-0.666244	8
H	-2.322503	-0.688055	-0.854124	1
H	-0.152363	0.170765	-1.753344	1
H	-0.522043	1.433005	1.083536	1
H	0.481687	2.065245	-0.229034	1
H	2.092017	0.158745	-0.045044	1
H	1.530787	0.149855	1.650276	1
Es	0.907214	-2.354534	-0.506675	99
Es	-0.273060	0.159032	-1.407818	99
Es	1.211696	0.130666	0.605283	99
Es	-2.163110	-0.259157	-0.832651	99
Es	-0.896985	-1.692457	1.085558	99
Es	-0.265438	0.688001	-0.272322	99
Es	0.191239	-1.243080	0.109785	99
Es	0.852873	-1.896277	-0.781842	99
Es	-0.724335	-1.582747	1.311101	99
Es	0.692537	0.658416	0.443688	99
Es	-0.394004	-1.440366	0.908897	99
Es	0.366800	1.754618	-0.084015	99
Es	-1.458625	0.182855	-0.774523	99
Es	-0.310025	1.319087	0.799685	99
Es	-0.749264	-1.286128	1.366542	99
Es	-0.319690	-0.538186	-0.345949	99
Es	0.063620	-1.109754	0.174162	99
Es	0.111048	1.145779	0.234465	99
Es	-0.575062	0.158564	-0.742205	99
Es	1.419372	0.135828	1.295897	99
Es	0.130002	-1.204812	0.204341	99
Es	0.456415	-2.189140	-0.735539	99
Es	0.205463	-1.175790	0.289765	99
Es	-2.020515	0.237959	-0.799044	99
Es	0.759428	-2.174934	-0.666051	99
Es	0.060462	-1.291569	0.242666	99
Es	0.561738	-1.863148	-0.283032	99
Es	-0.502771	-1.743028	1.419706	99
Es	-2.078555	0.371116	-1.059946	99
Es	0.776292	-0.543733	0.469552	99
Es	-2.105795	0.342465	-0.531692	99
Es	1.777586	0.140287	0.160141	99
45
Properties=species:S:1:pos:R:3:Z:I:1 energy=-739.2730979463427 field_type=dipole dipole="0.000000 0.000000 0.000000" charge=0
O	-2.020713	0.238225	-0.799034	8
C	-0.574863	0.158615	-0.742294	6
C	0.110997	1.145905	0.234506	6
C	1.211797	0.130725	0.605316	6
S	0.130157	-1.205015	0.204136	16
O	-0.724523	-1.582865	1.311346	8
O	0.759567	-2.175154	-0.666244	8
H	-2.322503	-0.688055	-0.854124	1
H	-0.152363	0.170765	-1.753344	1
H	-0.522043	1.433005	1.083536	1
H	0.481687	2.065245	-0.229034	1
H	2.092017	0.158745	-0.045044	1
H	1.530787	0.149855	1.650276	1
Es	1.777636	0.140320	0.160313	99
Es	1.419242	0.135901	1.295918	99
Es	-0.310075	1.319010	0.799635	99
Es	0.904440	-2.359788	-0.511273	99
Es	0.692647	0.658370	0.443571	99
Es	-0.265331	0.688118	-0.272403	99
Es	-0.527823	-1.746645	1.444639	99
Es	0.568836	-1.861941	-0.281142	99
Es	0.366719	1.754645	-0.083924	99
Es	0.219917	-1.256631	0.153007	99
Es	0.776368	-0.543851	0.469481	99
Es	0.111047	1.145780	0.234462	99
Es	-0.377952	-1.456528	0.918034	99
Es	-2.020506	0.237913	-0.798977	99
Es	-0.724380	-1.582789	1.311139	99
Es	1.211696	0.130672	0.605283	99
Es	-2.076854	0.368105	-1.061288	99
Es	0.072641	-1.141719	0.123683	99
Es	-1.458708	0.182842	-0.773571	99
Es	0.170818	-1.132595	0.291713	99
Es	0.129579	-1.205031	0.204997	99
Es	-0.273077	0.158932	-1.407796	99
Es	-0.319746	-0.538180	-0.345946	99
Es	-0.743910	-1.278787	1.343773	99
Es	0.852177	-1.898429	-0.785691	99
Es	-2.107153	0.345782	-0.533361	99
Es	0.452781	-2.182950	-0.728933	99
Es	-2.163393	-0.259371	-0.830662	99
Es	-0.893264	-1.679932	1.074252	99
Es	0.759440	-2.174952	-0.666070	99
Es	-0.575060	0.158564	-0.742204	99
Es	0.057799	-1.289004	0.247273	99
45
Properties=species:S:1:pos:R:3:Z:I:1 energy=-739.2730979463427 field_type=dipole dipole="0.000000 0.000000 0.000000" charge=0
O	-2.020713	0.238225	-0.799034	8
C	-0.574863	0.158615	-0.742294	6
C	0.110997	1.145905	0.234506	6