38
Properties=species:S:1:pos:R:3:Z:I:1 energy=-301.742297211529 field_type=dipole dipole="0.000000 0.000000 0.000000" charge=0
C	-1.929580	-0.341116	0.017860	6
C	-0.594320	-0.225516	-0.003000	6
C	0.145040	1.057994	-0.039080	6
C	1.629360	0.843394	0.011410	6
N	2.251820	-0.292326	0.037660	7
N	1.523360	-1.484826	0.024630	7
C	0.232720	-1.444776	0.011120	6
H	-2.566820	0.538524	0.008640	1
H	-2.428190	-1.305526	0.045130	1
H	-0.125500	1.690984	0.813030	1
H	-0.076320	1.611894	-0.957810	1
H	2.248140	1.756274	0.020180	1
H	-0.309710	-2.404976	0.010230	1
Es	2.251161	-0.292262	0.037639	99
Es	1.940139	0.181213	0.313257	99
Es	0.955082	-1.423003	-0.266001	99
Es	0.880514	0.935832	-0.013253	99
Es	-2.265013	-0.990651	0.035794	99
Es	-0.032717	1.471952	0.529443	99
Es	-1.237619	-0.296053	0.330048	99
Es	1.522989	-1.484262	0.024625	99
Es	0.145077	1.057940	-0.039077	99
Es	2.624984	-0.321858	0.048678	99
Es	-1.246879	-0.308365	-0.314552	99
Es	1.835052	-0.856905	0.029234	99
Es	0.232670	-1.444739	0.011124	99
Es	1.721395	-1.804559	0.027131	99
Es	0.000874	1.417590	-0.650863	99
Es	-1.929674	-0.341116	0.017863	99
Es	-0.594173	-0.225514	-0.003007	99
Es	0.949550	-1.421463	0.301905	99
Es	-0.174439	-0.825176	0.003865	99
Es	1.957194	0.175463	-0.260352	99
Es	1.629299	0.843432	0.011398	99
Es	-0.226174	0.416036	-0.020670	99
Es	-2.363416	0.253100	0.012019	99
Es	2.036623	1.464884	0.017220	99
Es	-0.141180	-2.086470	0.010311	99
38
Properties=species:S:1:pos:R:3:Z:I:1 energy=-301.742297211529 field_type=dipole dipole="0.000000 0.000000 0.000000" charge=0
C	-1.929580	-0.341116	0.017860	6
C	-0.594320	-0.225516	-0.003000	6
C	0.145040	1.057994	-0.039080	6
C	1.629360	0.843394	0.011410	6
N	2.251820	-0.292326	0.037660	7
N	1.523360	-1.484826	0.024630	7
C	0.232720	-1.444776	0.011120	6
H	-2.566820	0.538524	0.008640	1
H	-2.428190	-1.305526	0.045130	1
H	-0.125500	1.690984	0.813030	1
H	-0.076320	1.611894	-0.957810	1
H	2.248140	1.756274	0.020180	1
H	-0.309710	-2.404976	0.010230	1
Es	1.957374	0.175472	-0.260554	99
Es	-0.174453	-0.825164	0.004133	99
Es	0.000939	1.417551	-0.650916	99
Es	-0.226165	0.416103	-0.020651	99
Es	1.629301	0.843429	0.011411	99
Es	1.835502	-0.857099	0.029351	99
Es	0.949602	-1.421638	0.301817	99
Es	2.036651	1.464938	0.017208	99
Es	-1.237645	-0.295949	0.329813	99
Es	2.624784	-0.321565	0.049201	99
Es	-2.265015	-0.990695	0.035825	99
Es	1.721096	-1.804376	0.027125	99
Es	1.939959	0.181263	0.312828	99
Es	-0.594166	-0.225512	-0.003011	99
Es	-0.141218	-2.086504	0.010328	99
Es	-1.246867	-0.308497	-0.314474	99
Es	-2.363405	0.253120	0.011957	99
Es	-1.929671	-0.341116	0.017862	99
Es	0.145078	1.057940	-0.039078	99
Es	0.232669	-1.444739	0.011119	99
Es	0.880462	0.935754	-0.013077	99
Es	0.955091	-1.423093	-0.266033	99
Es	1.523012	-1.484266	0.024626	99
Es	-0.032765	1.471976	0.529332	99
Es	2.251171	-0.292289	0.037638	99
38
Properties=species:S:1:pos:R:3:Z:I:1 energy=-301.742297211529 field_type=dipole dipole="0.000000 0.000000 0.000000" charge=0
C	-1.929580	-0.341116	0.017860	6
C	-0.594320	-0.225516	-0.003000	6
C	0.145040	1.057994	-0.039080	6
C	1.629360	0.843394	0.011410	6
N	2.251820	-0.292326	0.037660	7
N	1.523360	-1.484826	0.024630	7
C	0.232720	-1.444776	0.011120	6
H	-2.566820	0.538524	0.008640	1
H	-2.428190	-1.305526	0.045130	1
H	-0.125500	1.690984	0.813030	1
H	-0.076320	1.611894	-0.957810	1
H	2.248140	1.756274	0.020180	1
H	-0.309710	-2.404976	0.010230	1
Es	-1.929670	-0.341115	0.017862	99
Es	2.251158	-0.292279	0.037642	99
Es	2.624506	-0.321410	0.049406	99
Es	0.000915	1.417602	-0.650804	99
Es	0.954868	-1.422757	-0.265170	99
Es	1.957576	0.175481	-0.260594	99
Es	-0.594169	-0.225514	-0.003007	99
Es	-2.363427	0.253122	0.011951	99
Es	-0.032719	1.471937	0.529396	99
Es	0.949779	-1.421999	0.302224	99
Es	2.036741	1.464929	0.017227	99
Es	1.940042	0.181321	0.312568	99
Es	1.523025	-1.484258	0.024627	99
Es	-2.264994	-0.990708	0.035691	99
Es	0.232673	-1.444739	0.011118	99
Es	1.720848	-1.804427	0.025920	99
Es	1.629301	0.843429	0.011406	99
Es	-0.174636	-0.825209	0.003820	99
Es	-0.141175	-2.086537	0.010287	99
Es	0.880456	0.935697	-0.013127	99
Es	0.145077	1.057940	-0.039077	99
Es	-0.226086	0.416136	-0.020738	99
Es	1.835748	-0.857260	0.029439	99
Es	-1.246934	-0.308260	-0.314238	99
Es	-1.237583	-0.296078	0.329951	99
38
Properties=species:S:1:pos:R:3:Z:I:1 energy=-301.742297211529 field_type=dipole dipole="0.000000 0.000000 0.000000" charge=0
C	-1.929580	-0.341116	0.017860	6
C	-0.594320	-0.225516	-0.003000	6
C	0.145040	1.057994	-0.039080	6
C	1.629360	0.843394	0.011410	6
N	2.251820	-0.292326	0.037660	7
N	1.523360	-1.484826	0.024630	7
C	0.232720	-1.444776	0.011120	6
H	-2.566820	0.538524	0.008640	1
H	-2.428190	-1.305526	0.045130	1
H	-0.125500	1.690984	0.813030	1
H	-0.076320	1.611894	-0.957810	1
H	2.248140	1.756274	0.020180	1
H	-0.309710	-2.404976	0.010230	1
Es	0.880300	0.935787	-0.013061	99
Es	-0.032751	1.471931	0.529496	99
Es	2.036768	1.464898	0.017269	99
Es	1.720765	-1.804218	0.026872	99
Es	-0.141162	-2.086553	0.010334	99
Es	1.835798	-0.857285	0.029073	99
Es	-0.226042	0.416126	-0.020801	99
Es	0.145077	1.057941	-0.039077	99
Es	-2.363452	0.253130	0.011891	99
Es	-1.246899	-0.308368	-0.314154	99
Es	-2.264961	-0.990750	0.035694	99
Es	1.522988	-1.484278	0.024626	99
Es	2.624563	-0.321368	0.049890	99
Es	-0.174599	-0.825190	0.003977	99
Es	-1.929672	-0.341115	0.017861	99
Es	0.000934	1.417595	-0.650823	99
Es	0.232673	-1.444739	0.011120	99
Es	0.955058	-1.423217	-0.265661	99
Es	1.629302	0.843426	0.011404	99
Es	0.949621	-1.421773	0.301850	99
Es	1.957861	0.175420	-0.260603	99
Es	-1.237621	-0.295991	0.329800	99
Es	1.939793	0.181389	0.312160	99
Es	2.251145	-0.292242	0.037645	99
Es	-0.594167	-0.225513	-0.003000	99
38
Properties=species:S:1:pos:R:3:Z:I:1 energy=-301.742297211529 field_type=dipole dipole="0.000000 0.000000 0.000000" charge=0
C	-1.929580	-0.341116	0.017860	6
C	-0.594320	-0.225516	-0.003000	6
C	0.145040	1.057994	-0.039080	6
C	1.629360	0.843394	0.011410	6
N	2.251820	-0.292326	0.037660	7
N	1.523360	-1.484826	0.024630	7
C	0.232720	-1.444776	0.011120	6
H	-2.566820	0.538524	0.008640	1
H	-2.428190	-1.305526	0.045130	1
H	-0.125500	1.690984	0.813030	1
H	-0.076320	1.611894	-0.957810	1
H	2.248140	1.756274	0.020180	1
H	-0.309710	-2.404976	0.010230	1
Es	2.036848	1.464921	0.017242	99
Es	-2.363421	0.253210	0.011957	99
Es	-1.246867	-0.308513	-0.314122	99
Es	-1.237641	-0.296083	0.329627	99
Es	1.720563	-1.804159	0.026829	99
Es	2.251148	-0.292264	0.037640	99
Es	2.624556	-0.321144	0.049241	99
Es	-1.929669	-0.341115	0.017862	99
Es	0.232679	-1.444738	0.011101	99
Es	-0.226044	0.416350	-0.020756	99
Es	0.955098	-1.423172	-0.265696	99
Es	0.000904	1.417664	-0.650938	99
Es	-0.032720	1.471832	0.529490	99
Es	-0.594171	-0.225514	-0.003005	99
Es	-0.141117	-2.086596	0.010374	99
Es	1.629302	0.843428	0.011407	99
Es	-0.174645	-0.825181	0.004123	99
Es	1.940107	0.181298	0.312188	99
Es	1.957493	0.175540	-0.260042	99
Es	0.949603	-1.421890	0.301701	99
Es	1.522991	-1.484269	0.024626	99
Es	-2.264990	-0.990729	0.035729	99
Es	0.880226	0.935656	-0.013064	99
Es	0.145077	1.057940	-0.039077	99
Es	1.836010	-0.857423	0.029343	99
38
Properties=species:S:1:pos:R:3:Z:I:1 energy=-301.742297211529 field_type=dipole dipole="0.000000 0.000000 0.000000" charge=0
C	-1.929580	-0.341116	0.017860	6
C	-0.594320	-0.225516	-0.003000	6
C	0.145040	1.057994	-0.039080	6
C	1.629360	0.843394	0.011410	6
N	2.251820	-0.292326	0.037660	7
N	1.523360	-1.484826	0.024630	7
C	0.232720	-1.444776	0.011120	6
H	-2.566820	0.538524	0.008640	1
H	-2.428190	-1.305526	0.045130	1
H	-0.125500	1.690984	0.813030	1
H	-0.076320	1.611894	-0.957810	1
H	2.248140	1.756274	0.020180	1
H	-0.309710	-2.404976	0.010230	1
Es	-2.264975	-0.990774	0.035749	99
Es	-0.174631	-0.825134	0.004019	99
Es	1.720433	-1.804079	0.026902	99
Es	-1.246899	-0.308464	-0.314059	99
Es	0.880168	0.935684	-0.013154	99
Es	2.251166	-0.292286	0.037648	99
Es	-0.141170	-2.086649	0.010308	99
Es	-1.929668	-0.341114	0.017861	99
Es	1.629301	0.843428	0.011408	99
Es	2.624446	-0.321180	0.049131	99
Es	1.835904	-0.857384	0.029262	99
Es	-0.594170	-0.225513	-0.003003	99
Es	-0.226036	0.416288	-0.020689	99
Es	1.957676	0.175510	-0.259820	99
Es	0.145077	1.057940	-0.039077	99
Es	1.523000	-1.484299	0.024625	99
Es	1.940257	0.181429	0.312082	99
Es	0.232673	-1.444739	0.011121	99
Es	-0.032680	1.471902	0.529447	99
Es	0.000908	1.417615	-0.650893	99
Es	0.955065	-1.423306	-0.265432	99
Es	-2.363430	0.253201	0.011924	99
Es	2.036894	1.464926	0.017297	99
Es	-1.237615	-0.296073	0.329555	99
Es	0.949626	-1.421884	0.301569	99
38
Properties=species:S:1:pos:R:3:Z:I:1 energy=-301.742297211529 field_type=dipole dipole="0.000000 0.000000 0.000000" charge=0
C	-1.929580	-0.341116	0.017860	6
C	-0.594320	-0.225516	-0.003000	6
C	0.145040	1.057994	-0.039080	6
C	1.629360	0.843394	0.011410	6
N	2.251820	-0.292326	0.037660	7
N	1.523360	-1.484826	0.024630	7
C	0.232720	-1.444776	0.011120	6
H	-2.566820	0.538524	0.008640	1
H	-2.428190	-1.305526	0.045130	1
H	-0.125500	1.690984	0.813030	1
H	-0.076320	1.611894	-0.957810	1
H	2.248140	1.756274	0.020180	1
H	-0.309710	-2.404976	0.010230	1
Es	-0.594178	-0.225516	-0.003018	99
Es	1.629300	0.843429	0.011408	99
Es	2.251159	-0.292258	0.037640	99
Es	-0.141135	-2.086675	0.010370	99
Es	-1.237513	-0.296201	0.329789	99
Es	2.624162	-0.320912	0.049129	99
Es	0.145078	1.057942	-0.039078	99
Es	-1.929669	-0.341115	0.017858	99
Es	1.836525	-0.857639	0.029329	99
Es	0.000860	1.417628	-0.650807	99
Es	1.720122	-1.803974	0.027021	99
Es	1.522994	-1.484274	0.024625	99
Es	-0.174680	-0.825081	0.003813	99
Es	1.957548	0.175654	-0.259860	99
Es	-0.032674	1.471876	0.529495	99
Es	-2.363420	0.253207	0.011794	99
Es	0.955144	-1.423419	-0.265496	99
Es	0.949582	-1.421949	0.301461	99
Es	0.880164	0.935694	-0.013199	99
Es	1.940312	0.181293	0.312146	99
Es	-1.246975	-0.308416	-0.313832	99
Es	-2.264989	-0.990748	0.035706	99
Es	0.232676	-1.444739	0.011128	99
Es	-0.226032	0.416323	-0.020855	99
Es	2.036958	1.464916	0.017216	99
38
Properties=species:S:1:pos:R:3:Z:I:1 energy=-301.742297211529 field_type=dipole dipole="0.000000 0.000000 0.000000" charge=0
C	-1.929580	-0.341116	0.017860	6
C	-0.594320	-0.225516	-0.003000	6
C	0.145040	1.057994	-0.039080	6
C	1.629360	0.843394	0.011410	6
N	2.251820	-0.292326	0.037660	7
N	1.523360	-1.484826	0.024630	7
C	0.232720	-1.444776	0.011120	6
H	-2.566820	0.538524	0.008640	1
H	-2.428190	-1.305526	0.045130	1
H	-0.125500	1.690984	0.813030	1
H	-0.076320	1.611894	-0.957810	1
H	2.248140	1.756274	0.020180	1
H	-0.309710	-2.404976	0.010230	1
Es	1.957165	0.176073	-0.259031	99
Es	0.880072	0.935588	-0.013288	99
Es	2.251157	-0.292245	0.037640	99
Es	-0.226096	0.416384	-0.020817	99
Es	1.940767	0.180932	0.312633	99
Es	2.036970	1.464938	0.017188	99
Es	-2.264738	-0.990935	0.035786	99
Es	-0.594168	-0.225514	-0.003001	99
Es	-0.141169	-2.086706	0.010371	99
Es	-1.929667	-0.341115	0.017861	99
Es	-2.363641	0.252980	0.012026	99
Es	-1.246849	-0.308384	-0.314081	99
Es	1.629301	0.843428	0.011407	99
Es	0.145078	1.057941	-0.039078	99
Es	0.949460	-1.421972	0.301174	99
Es	0.000994	1.417595	-0.650823	99
Es	1.523006	-1.484268	0.024626	99
Es	-0.174648	-0.825068	0.004158	99
Es	2.624075	-0.320743	0.048228	99
Es	0.955279	-1.423465	-0.265694	99
Es	-0.032690	1.471942	0.529481	99
Es	1.719959	-1.803903	0.027317	99
Es	1.836717	-0.857834	0.029149	99
Es	-1.237685	-0.295867	0.329427	99
Es	0.232674	-1.444739	0.011121	99
38
Properties=species:S:1:pos:R:3:Z:I:1 energy=-301.742297211529 field_type=dipole dipole="0.000000 0.000000 0.000000" charge=0
C	-1.929580	-0.341116	0.017860	6
C	-0.594320	-0.225516	-0.003000	6
C	0.145040	1.057994	-0.039080	6
C	1.629360	0.843394	0.011410	6
N	2.251820	-0.292326	0.037660	7
N	1.523360	-1.484826	0.024630	7
C	0.232720	-1.444776	0.011120	6
H	-2.566820	0.538524	0.008640	1
H	-2.428190	-1.305526	0.045130	1
H	-0.125500	1.690984	0.813030	1
H	-0.076320	1.611894	-0.957810	1
H	2.248140	1.756274	0.020180	1
H	-0.309710	-2.404976	0.010230	1
Es	0.232675	-1.444739	0.011116	99
Es	0.000895	1.417646	-0.650858	99
Es	2.623984	-0.320514	0.049268	99
Es	-1.929667	-0.341114	0.017865	99
Es	1.957774	0.175643	-0.259574	99
Es	1.522989	-1.484275	0.024625	99
Es	2.036986	1.464903	0.017292	99
Es	-1.246887	-0.308516	-0.313760	99
Es	1.836918	-0.858004	0.029086	99
Es	1.719823	-1.803803	0.026926	99
Es	0.145077	1.057941	-0.039077	99
Es	-0.225902	0.416415	-0.020836	99
Es	-2.363506	0.253207	0.011820	99
Es	0.879979	0.935667	-0.013240	99
Es	-1.237629	-0.296030	0.329389	99
Es	2.251139	-0.292282	0.037653	99
Es	-0.174732	-0.825108	0.003913	99
Es	-0.594171	-0.225519	-0.003002	99
Es	0.949587	-1.422029	0.301473	99
Es	-0.032665	1.471845	0.529594	99
Es	1.629301	0.843427	0.011409	99
Es	-2.264880	-0.990848	0.035872	99
Es	0.955136	-1.423492	-0.265319	99
Es	1.940256	0.181366	0.311802	99
Es	-0.141158	-2.086742	0.010345	99
38
Properties=species:S:1:pos:R:3:Z:I:1 energy=-301.742297211529 field_type=dipole dipole="0.000000 0.000000 0.000000" charge=0
C	-1.929580	-0.341116	0.017860	6
C	-0.594320	-0.225516	-0.003000	6
C	0.145040	1.057994	-0.039080	6
C	1.629360	0.843394	0.011410	6
N	2.251820	-0.292326	0.037660	7
N	1.523360	-1.484826	0.024630	7
C	0.232720	-1.444776	0.011120	6
H	-2.566820	0.538524	0.008640	1
H	-2.428190	-1.305526	0.045130	1
H	-0.125500	1.690984	0.813030	1
H	-0.076320	1.611894	-0.957810	1
H	2.248140	1.756274	0.020180	1
H	-0.309710	-2.404976	0.010230	1
Es	-0.174780	-0.825082	0.004118	99
Es	2.037092	1.464936	0.017269	99
Es	2.251159	-0.292256	0.037640	99
Es	-0.225983	0.416421	-0.020602	99
Es	0.879976	0.935589	-0.013168	99
Es	-0.141146	-2.086796	0.010374	99
Es	-0.594174	-0.225515	-0.003000	99
Es	2.623949	-0.320392	0.049107	99
Es	0.232681	-1.444738	0.011112	99
Es	-1.246900	-0.308482	-0.313759	99
Es	0.000934	1.417487	-0.650907	99
Es	1.940249	0.181388	0.311689	99
Es	1.719828	-1.803798	0.027387	99
Es	-2.363425	0.253233	0.011875	99
Es	1.523008	-1.484279	0.024633	99
Es	-1.929669	-0.341115	0.017859	99
Es	-2.264964	-0.990853	0.035655	99
Es	0.955133	-1.423711	-0.265434	99
Es	1.836898	-0.858038	0.028971	99
Es	1.957698	0.175634	-0.259234	99
Es	-0.032622	1.472010	0.529356	99
Es	0.949630	-1.421879	0.301114	99
Es	0.145077	1.057942	-0.039080	99
Es	1.629301	0.843425	0.011412	99
Es	-1.237627	-0.296085	0.329392	99
38
Properties=species:S:1:pos:R:3:Z:I:1 energy=-301.742297211529 field_type=dipole dipole="0.000000 0.000000 0.000000" charge=0
C	-1.929580	-0.341116	0.017860	6
C	-0.594320	-0.225516	-0.003000	6
C	0.145040	1.057994	-0.039080	6
C	1.629360	0.843394	0.011410	6
N	2.251820	-0.292326	0.037660	7
N	1.523360	-1.484826	0.024630	7
C	0.232720	-1.444776	0.011120	6
H	-2.566820	0.538524	0.008640	1
H	-2.428190	-1.305526	0.045130	1
H	-0.125500	1.690984	0.813030	1
H	-0.076320	1.611894	-0.957810	1
H	2.248140	1.756274	0.020180	1
H	-0.309710	-2.404976	0.010230	1
Es	1.629301	0.843427	0.011408	99
Es	-0.174738	-0.825025	0.004067	99
Es	2.623753	-0.320370	0.048336	99
Es	1.719476	-1.803667	0.027496	99
Es	-0.594172	-0.225514	-0.003001	99
Es	1.522993	-1.484273	0.024625	99
Es	2.251160	-0.292260	0.037642	99
Es	0.232675	-1.444739	0.011121	99
Es	0.145077	1.057941	-0.039077	99
Es	-1.929666	-0.341114	0.017861	99
Es	0.000951	1.417553	-0.650832	99
Es	1.940869	0.181082	0.312111	99
Es	0.955384	-1.423645	-0.265581	99
Es	-0.032665	1.471943	0.529469	99
Es	-2.363422	0.253256	0.011893	99
Es	-2.264964	-0.990854	0.035696	99
Es	0.879914	0.935614	-0.013291	99
Es	1.837227	-0.858171	0.029231	99
Es	2.037157	1.464917	0.017151	99
Es	-1.246929	-0.308477	-0.313659	99
Es	0.949381	-1.422069	0.300861	99
Es	-1.237583	-0.296227	0.329347	99
Es	-0.141149	-2.086805	0.010401	99
Es	-0.226010	0.416482	-0.020764	99
Es	1.957301	0.176039	-0.258730	99
38
Properties=species:S:1:pos:R:3:Z:I:1 energy=-301.742297211529 field_type=dipole dipole="0.000000 0.000000 0.000000" charge=0
C	-1.929580	-0.341116	0.017860	6
C	-0.594320	-0.225516	-0.003000	6
C	0.145040	1.057994	-0.039080	6
C	1.629360	0.843394	0.011410	6
N	2.251820	-0.292326	0.037660	7
N	1.523360	-1.484826	0.024630	7
C	0.232720	-1.444776	0.011120	6
H	-2.566820	0.538524	0.008640	1
H	-2.428190	-1.305526	0.045130	1
H	-0.125500	1.690984	0.813030	1
H	-0.076320	1.611894	-0.957810	1
H	2.248140	1.756274	0.020180	1
H	-0.309710	-2.404976	0.010230	1
Es	-0.141163	-2.086830	0.010344	99
Es	0.955163	-1.423613	-0.265188	99
Es	1.719316	-1.803588	0.027003	99
Es	0.000922	1.417599	-0.650824	99
Es	-2.264987	-0.990881	0.035765	99
Es	-0.594173	-0.225514	-0.003005	99
Es	1.837400	-0.858262	0.029188	99
Es	-0.032620	1.471885	0.529470	99
Es	0.145076	1.057945	-0.039084	99
Es	2.251160	-0.292257	0.037640	99
Es	1.957674	0.175781	-0.258953	99
Es	-1.929665	-0.341114	0.017860	99
Es	-1.237631	-0.296144	0.329124	99
Es	0.232676	-1.444738	0.011120	99
Es	2.623645	-0.320276	0.048884	99
Es	-1.246893	-0.308574	-0.313612	99
Es	-2.363389	0.253316	0.011895	99
Es	-0.225997	0.416526	-0.020756	99
Es	1.940538	0.181365	0.311611	99
Es	-0.174756	-0.825057	0.004098	99
Es	0.949614	-1.422169	0.301157	99
Es	0.879877	0.935637	-0.013237	99
Es	1.629305	0.843421	0.011415	99
Es	2.037258	1.464890	0.017241	99
Es	1.522971	-1.484304	0.024626	99
38
Properties=species:S:1:pos:R:3:Z:I:1 energy=-301.742297211529 field_type=dipole dipole="0.000000 0.000000 0.000000" charge=0
C	-1.929580	-0.341116	0.017860	6
C	-0.594320	-0.225516	-0.003000	6
C	0.145040	1.057994	-0.039080	6
C	1.629360	0.843394	0.011410	6
N	2.251820	-0.292326	0.037660	7
N	1.523360	-1.484826	0.024630	7
C	0.232720	-1.444776	0.011120	6
H	-2.566820	0.538524	0.008640	1
H	-2.428190	-1.305526	0.045130	1
H	-0.125500	1.690984	0.813030	1
H	-0.076320	1.611894	-0.957810	1
H	2.248140	1.756274	0.020180	1
H	-0.309710	-2.404976	0.010230	1
Es	2.037246	1.464934	0.017265	99
Es	0.145077	1.057941	-0.039077	99
Es	1.522986	-1.484282	0.024627	99
Es	2.251160	-0.292257	0.037640	99
Es	-0.225999	0.416554	-0.020808	99
Es	0.879817	0.935562	-0.013261	99
Es	1.719156	-1.803529	0.027009	99
Es	0.955183	-1.423655	-0.265100	99
Es	-0.594173	-0.225514	-0.003002	99
Es	-1.929666	-0.341114	0.017861	99
Es	0.001003	1.417456	-0.650763	99
Es	0.949604	-1.422239	0.301079	99
Es	1.940489	0.181493	0.311314	99
Es	-0.174755	-0.825000	0.004002	99
Es	1.837588	-0.858367	0.029244	99
Es	-0.032701	1.472030	0.529515	99
Es	-2.363405	0.253289	0.011909	99
Es	0.232675	-1.444739	0.011120	99
Es	-1.237631	-0.296190	0.329143	99
Es	1.629301	0.843427	0.011407	99
Es	1.957883	0.175717	-0.259039	99
Es	-1.246886	-0.308548	-0.313545	99
Es	-0.141160	-2.086862	0.010340	99
Es	-2.264968	-0.990906	0.035739	99
Es	2.623497	-0.320157	0.049164	99
38
Properties=species:S:1:pos:R:3:Z:I:1 energy=-301.742297211529 field_type=dipole dipole="0.000000 0.000000 0.000000" charge=0
C	-1.929580	-0.341116	0.017860	6
C	-0.594320	-0.225516	-0.003000	6
C	0.145040	1.057994	-0.039080	6
C	1.629360	0.843394	0.011410	6
N	2.251820	-0.292326	0.037660	7
N	1.523360	-1.484826	0.024630	7
C	0.232720	-1.444776	0.011120	6
H	-2.566820	0.538524	0.008640	1
H	-2.428190	-1.305526	0.045130	1
H	-0.125500	1.690984	0.813030	1
H	-0.076320	1.611894	-0.957810	1
H	2.248140	1.756274	0.020180	1
H	-0.309710	-2.404976	0.010230	1
Es	0.145078	1.057941	-0.039077	99
Es	0.949685	-1.422076	0.301025	99
Es	-0.141130	-2.086901	0.010302	99
Es	1.629300	0.843425	0.011404	99
Es	-0.174835	-0.825003	0.004024	99
Es	-0.594170	-0.225513	-0.003003	99
Es	-2.264838	-0.990968	0.035746	99
Es	2.037289	1.464963	0.017228	99
Es	-2.363523	0.253242	0.011921	99
Es	0.879761	0.935495	-0.013164	99
Es	-1.929665	-0.341114	0.017861	99
Es	1.522988	-1.484297	0.024625	99
Es	-1.237635	-0.296134	0.329021	99
Es	2.623334	-0.320164	0.049189	99
Es	0.955113	-1.424134	-0.265293	99
Es	0.000947	1.417539	-0.650864	99
Es	1.718876	-1.803185	0.027571	99
Es	-0.225924	0.416622	-0.020735	99
Es	1.837847	-0.858407	0.029044	99
Es	2.251161	-0.292250	0.037640	99
Es	-1.246897	-0.308510	-0.313505	99
Es	-0.032647	1.471924	0.529486	99
Es	0.232676	-1.444738	0.011120	99
Es	1.940585	0.181546	0.311255	99
Es	1.957947	0.175743	-0.259041	99
