41
Properties=species:S:1:pos:R:3:Z:I:1 energy=-302.9348963288324 field_type=dipole dipole="0.000000 0.000000 0.000000" charge=0
C	-2.224246	-0.419646	-0.142451	6
C	-0.906555	-0.280206	0.046709	6
C	-0.193745	1.021304	0.263909	6
C	1.262525	0.915604	-0.187181	6
N	1.853314	-0.296896	0.381559	7
N	1.261584	-1.497396	0.139309	7
C	-0.029866	-1.484556	0.008049	6
H	-2.883525	0.444204	-0.128481	1
H	-2.686646	-1.388256	-0.305481	1
H	-0.686956	1.834164	-0.282101	1
H	-0.230335	1.269664	1.332279	1
H	1.820525	1.793434	0.155249	1
H	1.329995	0.884434	-1.280791	1
H	2.851435	-0.348036	0.170999	1
H	-0.537506	-2.447816	-0.171571	1
Es	0.682889	-1.432519	-0.213937	99
Es	0.622026	-1.501045	0.357163	99
Es	1.261241	-1.496850	0.139334	99
Es	-0.219870	1.179386	0.983155	99
Es	-0.029870	-1.484518	0.008040	99
Es	1.538239	-0.867195	0.211969	99
Es	0.530318	0.964140	0.034950	99
Es	-2.224341	-0.419651	-0.142452	99
Es	-2.537894	-1.074585	-0.251488	99
Es	-0.555769	0.367645	0.148805	99
Es	-0.906392	-0.280216	0.046729	99
Es	1.647815	1.508836	0.047856	99
Es	1.853226	-0.297151	0.380680	99
Es	-0.459316	-0.873114	0.033392	99
Es	1.792912	-0.302098	0.692720	99
Es	1.588912	0.207156	0.102815	99
Es	1.486138	-1.794750	0.131776	99
Es	1.262543	0.915473	-0.187099	99
Es	-0.193734	1.021249	0.263881	99
Es	1.299424	0.890762	-0.941564	99
Es	-1.598035	-0.398024	0.270325	99
Es	-0.531372	1.569867	-0.109346	99
Es	2.447633	-0.328956	0.229776	99
Es	-2.674903	0.164226	-0.135377	99
Es	-1.519743	-0.332713	-0.369003	99
Es	-0.379729	-2.133865	-0.111660	99
41
Properties=species:S:1:pos:R:3:Z:I:1 energy=-302.9348963288324 field_type=dipole dipole="0.000000 0.000000 0.000000" charge=0
C	-2.224246	-0.419646	-0.142451	6
C	-0.906555	-0.280206	0.046709	6
C	-0.193745	1.021304	0.263909	6
C	1.262525	0.915604	-0.187181	6
N	1.853314	-0.296896	0.381559	7
N	1.261584	-1.497396	0.139309	7
C	-0.029866	-1.484556	0.008049	6
H	-2.883525	0.444204	-0.128481	1
H	-2.686646	-1.388256	-0.305481	1
H	-0.686956	1.834164	-0.282101	1
H	-0.230335	1.269664	1.332279	1
H	1.820525	1.793434	0.155249	1
H	1.329995	0.884434	-1.280791	1
H	2.851435	-0.348036	0.170999	1
H	-0.537506	-2.447816	-0.171571	1
Es	1.486039	-1.794677	0.131698	99
Es	-1.519745	-0.332653	-0.369182	99
Es	-2.674958	0.164207	-0.135355	99
Es	-0.459476	-0.872978	0.033394	99
Es	1.261248	-1.496848	0.139335	99
Es	2.447506	-0.329019	0.229456	99
Es	-2.537838	-1.074585	-0.251502	99
Es	-0.219776	1.179423	0.983138	99
Es	-1.598048	-0.398043	0.270355	99
Es	0.622084	-1.501085	0.356956	99
Es	1.538239	-0.867111	0.212172	99
Es	0.530263	0.964140	0.034861	99
Es	-0.555625	0.367556	0.148980	99
Es	-0.379766	-2.133953	-0.111497	99
Es	-0.193734	1.021249	0.263882	99
Es	-0.531391	1.569855	-0.109308	99
Es	1.588785	0.207365	0.103009	99
Es	1.647784	1.508779	0.047860	99
Es	1.262544	0.915474	-0.187099	99
Es	-0.906388	-0.280214	0.046725	99
Es	1.853224	-0.297134	0.380814	99
Es	-2.224339	-0.419651	-0.142458	99
Es	1.299472	0.890795	-0.941582	99
Es	-0.029870	-1.484521	0.008043	99
Es	1.793284	-0.302284	0.692590	99
Es	0.682834	-1.432593	-0.213848	99
41
Properties=species:S:1:pos:R:3:Z:I:1 energy=-302.9348963288324 field_type=dipole dipole="0.000000 0.000000 0.000000" charge=0
C	-2.224246	-0.419646	-0.142451	6
C	-0.906555	-0.280206	0.046709	6
C	-0.193745	1.021304	0.263909	6
C	1.262525	0.915604	-0.187181	6
N	1.853314	-0.296896	0.381559	7
N	1.261584	-1.497396	0.139309	7
C	-0.029866	-1.484556	0.008049	6
H	-2.883525	0.444204	-0.128481	1
H	-2.686646	-1.388256	-0.305481	1
H	-0.686956	1.834164	-0.282101	1
H	-0.230335	1.269664	1.332279	1
H	1.820525	1.793434	0.155249	1
H	1.329995	0.884434	-1.280791	1
H	2.851435	-0.348036	0.170999	1
H	-0.537506	-2.447816	-0.171571	1
Es	-0.906395	-0.280216	0.046729	99
Es	-1.519713	-0.332975	-0.368945	99
Es	-0.555837	0.367760	0.148868	99
Es	2.447585	-0.329012	0.229761	99
Es	1.853260	-0.297088	0.380805	99
Es	-2.537927	-1.074500	-0.251436	99
Es	-0.193735	1.021249	0.263882	99
Es	0.530232	0.964112	0.034827	99
Es	-2.674895	0.164381	-0.135329	99
Es	1.588880	0.207062	0.102389	99
Es	-0.029861	-1.484519	0.008045	99
Es	-0.459349	-0.873088	0.033393	99
Es	1.647769	1.508818	0.047853	99
Es	-0.379699	-2.133931	-0.111768	99
Es	-0.219848	1.179404	0.983109	99
Es	1.793278	-0.301657	0.692160	99
Es	0.621787	-1.501277	0.357144	99
Es	1.485909	-1.794506	0.131712	99
Es	1.262544	0.915474	-0.187097	99
Es	-1.598005	-0.398121	0.270112	99
Es	1.261250	-1.496843	0.139335	99
Es	-2.224335	-0.419651	-0.142454	99
Es	1.538207	-0.867485	0.212937	99
Es	-0.531380	1.569849	-0.109293	99
Es	1.299541	0.890801	-0.941485	99
Es	0.683088	-1.432551	-0.213815	99
41
Properties=species:S:1:pos:R:3:Z:I:1 energy=-302.9348963288324 field_type=dipole dipole="0.000000 0.000000 0.000000" charge=0
C	-2.224246	-0.419646	-0.142451	6
C	-0.906555	-0.280206	0.046709	6
C	-0.193745	1.021304	0.263909	6
C	1.262525	0.915604	-0.187181	6
N	1.853314	-0.296896	0.381559	7
N	1.261584	-1.497396	0.139309	7
C	-0.029866	-1.484556	0.008049	6
H	-2.883525	0.444204	-0.128481	1
H	-2.686646	-1.388256	-0.305481	1
H	-0.686956	1.834164	-0.282101	1
H	-0.230335	1.269664	1.332279	1
H	1.820525	1.793434	0.155249	1
H	1.329995	0.884434	-1.280791	1
H	2.851435	-0.348036	0.170999	1
H	-0.537506	-2.447816	-0.171571	1
Es	-2.537919	-1.074632	-0.251404	99
Es	-0.531383	1.569849	-0.109237	99
Es	-0.193734	1.021249	0.263882	99
Es	1.538626	-0.867345	0.212598	99
Es	0.530253	0.964167	0.034862	99
Es	0.621971	-1.501312	0.357060	99
Es	1.299528	0.890798	-0.941467	99
Es	-2.224342	-0.419653	-0.142448	99
Es	-0.906394	-0.280214	0.046730	99
Es	1.485595	-1.794588	0.131373	99
Es	-1.597985	-0.397964	0.269920	99
Es	-1.519728	-0.332932	-0.368810	99
Es	-0.555886	0.367838	0.148928	99
Es	1.262543	0.915473	-0.187099	99
Es	-0.459370	-0.873136	0.033449	99
Es	1.793346	-0.301530	0.693002	99
Es	-0.379714	-2.133950	-0.111711	99
Es	1.853246	-0.297103	0.380883	99
Es	-0.219860	1.179388	0.983053	99
Es	-2.674882	0.164319	-0.135356	99
Es	1.647835	1.508758	0.047800	99
Es	1.261257	-1.496852	0.139337	99
Es	1.589082	0.206884	0.102094	99
Es	-0.029864	-1.484519	0.008048	99
Es	2.447256	-0.329071	0.229515	99
Es	0.682875	-1.432434	-0.213561	99
41
Properties=species:S:1:pos:R:3:Z:I:1 energy=-302.9348963288324 field_type=dipole dipole="0.000000 0.000000 0.000000" charge=0
C	-2.224246	-0.419646	-0.142451	6
C	-0.906555	-0.280206	0.046709	6
C	-0.193745	1.021304	0.263909	6
C	1.262525	0.915604	-0.187181	6
N	1.853314	-0.296896	0.381559	7
N	1.261584	-1.497396	0.139309	7
C	-0.029866	-1.484556	0.008049	6
H	-2.883525	0.444204	-0.128481	1
H	-2.686646	-1.388256	-0.305481	1
H	-0.686956	1.834164	-0.282101	1
H	-0.230335	1.269664	1.332279	1
H	1.820525	1.793434	0.155249	1
H	1.329995	0.884434	-1.280791	1
H	2.851435	-0.348036	0.170999	1
H	-0.537506	-2.447816	-0.171571	1
Es	-0.906394	-0.280215	0.046729	99
Es	-2.224339	-0.419651	-0.142450	99
Es	-0.555834	0.367909	0.148848	99
Es	1.647838	1.508704	0.047714	99
Es	0.530350	0.964282	0.034921	99
Es	-1.519759	-0.332884	-0.368682	99
Es	-0.219984	1.179356	0.982998	99
Es	2.448038	-0.328852	0.230589	99
Es	1.538573	-0.867257	0.212390	99
Es	1.299522	0.890805	-0.941425	99
Es	1.262543	0.915475	-0.187100	99
Es	0.622129	-1.501175	0.356840	99
Es	-0.193734	1.021249	0.263882	99
Es	-0.531383	1.569817	-0.109200	99
Es	-1.597980	-0.398003	0.269976	99
Es	-0.459447	-0.873160	0.033434	99
Es	-2.537883	-1.074643	-0.251474	99
Es	-0.029868	-1.484519	0.008045	99
Es	-2.674901	0.164291	-0.135381	99
Es	1.588812	0.207561	0.103073	99
Es	-0.379693	-2.133985	-0.111675	99
Es	0.682742	-1.432543	-0.213585	99
Es	1.792946	-0.302462	0.691253	99
Es	1.485574	-1.794615	0.131593	99
Es	1.853236	-0.297119	0.380796	99
Es	1.261247	-1.496875	0.139330	99
41
Properties=species:S:1:pos:R:3:Z:I:1 energy=-302.9348963288324 field_type=dipole dipole="0.000000 0.000000 0.000000" charge=0
C	-2.224246	-0.419646	-0.142451	6
C	-0.906555	-0.280206	0.046709	6
C	-0.193745	1.021304	0.263909	6
C	1.262525	0.915604	-0.187181	6
N	1.853314	-0.296896	0.381559	7
N	1.261584	-1.497396	0.139309	7
C	-0.029866	-1.484556	0.008049	6
H	-2.883525	0.444204	-0.128481	1
H	-2.686646	-1.388256	-0.305481	1
H	-0.686956	1.834164	-0.282101	1
H	-0.230335	1.269664	1.332279	1
H	1.820525	1.793434	0.155249	1
H	1.329995	0.884434	-1.280791	1
H	2.851435	-0.348036	0.170999	1
H	-0.537506	-2.447816	-0.171571	1
Es	-1.519750	-0.332945	-0.368643	99
Es	1.262543	0.915474	-0.187098	99
Es	1.299573	0.890839	-0.941374	99
Es	-2.537887	-1.074627	-0.251433	99
Es	1.261272	-1.496863	0.139337	99
Es	-0.555871	0.367955	0.148905	99
Es	-0.219925	1.179403	0.983024	99
Es	0.530229	0.964276	0.034859	99
Es	0.622110	-1.501025	0.356740	99
Es	-1.597970	-0.398028	0.269919	99
Es	0.682761	-1.432654	-0.213659	99
Es	1.538850	-0.867318	0.212349	99
Es	-0.459452	-0.873139	0.033339	99
Es	-0.029868	-1.484520	0.008055	99
Es	1.792673	-0.302577	0.690792	99
Es	-0.193734	1.021248	0.263881	99
Es	-2.674903	0.164313	-0.135395	99
Es	-0.531366	1.569796	-0.109205	99
Es	1.647878	1.508663	0.047724	99
Es	1.853267	-0.297037	0.380954	99
Es	-0.379683	-2.134010	-0.111679	99
Es	-0.906396	-0.280215	0.046729	99
Es	-2.224342	-0.419652	-0.142454	99
Es	2.448265	-0.328801	0.231052	99
Es	1.485268	-1.794614	0.131808	99
Es	1.588808	0.207547	0.102912	99
41
Properties=species:S:1:pos:R:3:Z:I:1 energy=-302.9348963288324 field_type=dipole dipole="0.000000 0.000000 0.000000" charge=0
C	-2.224246	-0.419646	-0.142451	6
C	-0.906555	-0.280206	0.046709	6
C	-0.193745	1.021304	0.263909	6
C	1.262525	0.915604	-0.187181	6
N	1.853314	-0.296896	0.381559	7
N	1.261584	-1.497396	0.139309	7
C	-0.029866	-1.484556	0.008049	6
H	-2.883525	0.444204	-0.128481	1
H	-2.686646	-1.388256	-0.305481	1
H	-0.686956	1.834164	-0.282101	1
H	-0.230335	1.269664	1.332279	1
H	1.820525	1.793434	0.155249	1
H	1.329995	0.884434	-1.280791	1
H	2.851435	-0.348036	0.170999	1
H	-0.537506	-2.447816	-0.171571	1
Es	-0.459475	-0.873094	0.033358	99
Es	-0.531333	1.569637	-0.109182	99
Es	0.682791	-1.432585	-0.213385	99
Es	-2.674886	0.164316	-0.135407	99
Es	2.448367	-0.328790	0.231158	99
Es	-0.219970	1.179518	0.983072	99
Es	1.299623	0.890869	-0.941361	99
Es	-1.519765	-0.332976	-0.368517	99
Es	1.647820	1.508664	0.047736	99
Es	0.530240	0.964278	0.034748	99
Es	1.261249	-1.496853	0.139334	99
Es	1.792519	-0.302610	0.691033	99
Es	1.262542	0.915473	-0.187099	99
Es	1.485111	-1.794432	0.131367	99
Es	-0.906398	-0.280217	0.046728	99
Es	-2.224339	-0.419651	-0.142454	99
Es	-1.597956	-0.398071	0.269900	99
Es	-0.379685	-2.134015	-0.111710	99
Es	1.539089	-0.867128	0.212154	99
Es	-2.537886	-1.074666	-0.251511	99
Es	-0.193734	1.021249	0.263882	99
Es	0.622029	-1.501330	0.356917	99
Es	1.853246	-0.297096	0.380818	99
Es	1.588908	0.207475	0.102928	99
Es	-0.029867	-1.484519	0.008045	99
Es	-0.555888	0.368040	0.148884	99
41
Properties=species:S:1:pos:R:3:Z:I:1 energy=-302.9348963288324 field_type=dipole dipole="0.000000 0.000000 0.000000" charge=0
C	-2.224246	-0.419646	-0.142451	6
C	-0.906555	-0.280206	0.046709	6
C	-0.193745	1.021304	0.263909	6
C	1.262525	0.915604	-0.187181	6
N	1.853314	-0.296896	0.381559	7
N	1.261584	-1.497396	0.139309	7
C	-0.029866	-1.484556	0.008049	6
H	-2.883525	0.444204	-0.128481	1
H	-2.686646	-1.388256	-0.305481	1
H	-0.686956	1.834164	-0.282101	1
H	-0.230335	1.269664	1.332279	1
H	1.820525	1.793434	0.155249	1
H	1.329995	0.884434	-1.280791	1
H	2.851435	-0.348036	0.170999	1
H	-0.537506	-2.447816	-0.171571	1
Es	1.262542	0.915476	-0.187100	99
Es	2.448408	-0.328718	0.231573	99
Es	1.299670	0.890871	-0.941299	99
Es	-0.906394	-0.280215	0.046730	99
Es	-2.674908	0.164312	-0.135371	99
Es	-0.193734	1.021249	0.263881	99
Es	1.588939	0.207625	0.102941	99
Es	1.484960	-1.794338	0.131536	99
Es	-0.531391	1.569747	-0.109145	99
Es	0.682724	-1.432718	-0.213513	99
Es	-0.379679	-2.134035	-0.111680	99
Es	1.539335	-0.867083	0.211855	99
Es	0.622117	-1.501291	0.356827	99
Es	1.261246	-1.496852	0.139335	99
Es	-1.597936	-0.398050	0.269748	99
Es	-2.224341	-0.419651	-0.142455	99
Es	-2.537870	-1.074678	-0.251477	99
Es	-0.029865	-1.484519	0.008045	99
Es	1.792341	-0.302851	0.690860	99
Es	0.530225	0.964259	0.034736	99
Es	-1.519754	-0.333017	-0.368526	99
Es	-0.219955	1.179416	0.982970	99
Es	1.647828	1.508652	0.047713	99
Es	-0.555901	0.368109	0.148969	99
Es	-0.459513	-0.873125	0.033433	99
Es	1.853257	-0.297087	0.380854	99
41
Properties=species:S:1:pos:R:3:Z:I:1 energy=-302.9348963288324 field_type=dipole dipole="0.000000 0.000000 0.000000" charge=0
C	-2.224246	-0.419646	-0.142451	6
C	-0.906555	-0.280206	0.046709	6
C	-0.193745	1.021304	0.263909	6
C	1.262525	0.915604	-0.187181	6
N	1.853314	-0.296896	0.381559	7
N	1.261584	-1.497396	0.139309	7
C	-0.029866	-1.484556	0.008049	6
H	-2.883525	0.444204	-0.128481	1
H	-2.686646	-1.388256	-0.305481	1
H	-0.686956	1.834164	-0.282101	1
H	-0.230335	1.269664	1.332279	1
H	1.820525	1.793434	0.155249	1
H	1.329995	0.884434	-1.280791	1
H	2.851435	-0.348036	0.170999	1
H	-0.537506	-2.447816	-0.171571	1
Es	1.484716	-1.794313	0.130706	99
Es	-0.531410	1.569774	-0.109121	99
Es	-2.537874	-1.074703	-0.251524	99
Es	-0.379667	-2.134046	-0.111757	99
Es	-1.597899	-0.398139	0.269658	99
Es	-0.555875	0.368258	0.148938	99
Es	1.261239	-1.496858	0.139331	99
Es	0.530367	0.964240	0.034886	99
Es	-0.459565	-0.873096	0.033388	99
Es	0.621899	-1.501625	0.357030	99
Es	-2.674886	0.164367	-0.135399	99
Es	-0.193734	1.021250	0.263882	99
Es	-2.224342	-0.419651	-0.142453	99
Es	1.299530	0.890857	-0.941315	99
Es	-0.029863	-1.484518	0.008041	99
Es	0.682810	-1.432354	-0.212886	99
Es	1.647859	1.508666	0.047650	99
Es	1.539636	-0.867214	0.212122	99
Es	-0.906395	-0.280214	0.046728	99
Es	2.448532	-0.328633	0.231769	99
Es	1.853232	-0.297116	0.380816	99
Es	1.588895	0.207708	0.103014	99
Es	-0.220029	1.179348	0.982909	99
Es	-1.519787	-0.333050	-0.368335	99
Es	1.262544	0.915471	-0.187098	99
Es	1.792416	-0.302921	0.690461	99
41
Properties=species:S:1:pos:R:3:Z:I:1 energy=-302.9348963288324 field_type=dipole dipole="0.000000 0.000000 0.000000" charge=0
C	-2.224246	-0.419646	-0.142451	6
C	-0.906555	-0.280206	0.046709	6
C	-0.193745	1.021304	0.263909	6
C	1.262525	0.915604	-0.187181	6
N	1.853314	-0.296896	0.381559	7
N	1.261584	-1.497396	0.139309	7
C	-0.029866	-1.484556	0.008049	6
H	-2.883525	0.444204	-0.128481	1
H	-2.686646	-1.388256	-0.305481	1
H	-0.686956	1.834164	-0.282101	1
H	-0.230335	1.269664	1.332279	1
H	1.820525	1.793434	0.155249	1
H	1.329995	0.884434	-1.280791	1
H	2.851435	-0.348036	0.170999	1
H	-0.537506	-2.447816	-0.171571	1
Es	-2.224344	-0.419654	-0.142455	99
Es	-1.519771	-0.333091	-0.368329	99
Es	0.621963	-1.501545	0.356937	99
Es	1.262542	0.915476	-0.187100	99
Es	0.530291	0.964355	0.034869	99
Es	1.853202	-0.297137	0.380802	99
Es	0.682803	-1.432594	-0.213235	99
Es	-0.906397	-0.280214	0.046736	99
Es	-2.537883	-1.074703	-0.251494	99
Es	1.261243	-1.496854	0.139335	99
Es	2.448674	-0.328626	0.232275	99
Es	-0.379665	-2.134070	-0.111717	99
Es	1.484653	-1.794144	0.131102	99
Es	1.299563	0.890915	-0.941282	99
Es	-0.220033	1.179451	0.982953	99
Es	-0.029861	-1.484519	0.008045	99
Es	1.539694	-0.867155	0.211936	99
Es	1.647864	1.508549	0.047593	99
Es	-2.674876	0.164340	-0.135440	99
Es	-0.555850	0.368272	0.148998	99
Es	-0.531383	1.569672	-0.109141	99
Es	-0.459611	-0.873066	0.033343	99
Es	-1.597905	-0.398126	0.269686	99
Es	-0.193736	1.021251	0.263883	99
Es	1.792135	-0.302906	0.690362	99
Es	1.589038	0.207613	0.102775	99
41
Properties=species:S:1:pos:R:3:Z:I:1 energy=-302.9348963288324 field_type=dipole dipole="0.000000 0.000000 0.000000" charge=0
C	-2.224246	-0.419646	-0.142451	6
C	-0.906555	-0.280206	0.046709	6
C	-0.193745	1.021304	0.263909	6
C	1.262525	0.915604	-0.187181	6
N	1.853314	-0.296896	0.381559	7
N	1.261584	-1.497396	0.139309	7
C	-0.029866	-1.484556	0.008049	6
H	-2.883525	0.444204	-0.128481	1
H	-2.686646	-1.388256	-0.305481	1
H	-0.686956	1.834164	-0.282101	1
H	-0.230335	1.269664	1.332279	1
H	1.820525	1.793434	0.155249	1
H	1.329995	0.884434	-1.280791	1
H	2.851435	-0.348036	0.170999	1
H	-0.537506	-2.447816	-0.171571	1
Es	-1.597895	-0.398068	0.269549	99
Es	2.448497	-0.328691	0.231872	99
Es	-0.555856	0.368298	0.148999	99
Es	-0.531393	1.569640	-0.109110	99
Es	-0.220062	1.179447	0.982945	99
Es	1.539574	-0.867328	0.212425	99
Es	1.589051	0.207476	0.102588	99
Es	1.647871	1.508576	0.047608	99
Es	-1.519762	-0.333114	-0.368316	99
Es	1.261248	-1.496852	0.139335	99
Es	-2.224336	-0.419652	-0.142455	99
Es	-0.379656	-2.134062	-0.111780	99
Es	1.484565	-1.794131	0.130969	99
Es	0.682832	-1.432560	-0.213051	99
Es	0.530245	0.964352	0.034779	99
Es	0.621908	-1.501638	0.357008	99
Es	-0.193736	1.021251	0.263884	99
Es	-0.459619	-0.873136	0.033310	99
Es	1.262541	0.915474	-0.187099	99
Es	1.792436	-0.302550	0.690371	99
Es	-2.537873	-1.074710	-0.251473	99
Es	-0.029864	-1.484518	0.008043	99
Es	1.853268	-0.297042	0.380908	99
Es	-2.674895	0.164342	-0.135392	99
Es	1.299657	0.890899	-0.941210	99
Es	-0.906398	-0.280215	0.046731	99
