40
Properties=species:S:1:pos:R:3:Z:I:1 energy=-269.7666998038468 field_type=dipole dipole="0.000000 0.000000 0.000000" charge=0
C	0.913035	-1.288209	0.079816	6
C	-0.573235	-1.432739	0.000066	6
C	-1.554755	-0.526239	-0.048064	6
C	-1.461255	0.906941	-0.014334	6
C	-0.371945	1.679431	-0.014334	6
C	1.011255	1.292771	-0.048514	6
C	1.541985	0.066481	-0.000344	6
H	1.337695	-1.887769	-0.735734	1
H	1.246785	-1.758859	1.012956	1
H	-0.890955	-2.475809	-0.021284	1
H	-2.577245	-0.899939	-0.104894	1
H	-2.427105	1.411221	0.011426	1
H	-0.528485	2.757951	0.011226	1
H	1.702625	2.134251	-0.105724	1
H	2.631595	0.020511	-0.022264	1
Es	-0.779887	-2.146973	-0.014361	99
Es	1.542015	0.066345	-0.000337	99
Es	-1.080129	-0.942606	0.298763	99
Es	1.479648	1.867782	-0.087612	99
Es	1.195424	-1.687154	-0.471857	99
Es	0.913004	-1.288162	0.079809	99
Es	-0.473224	2.415458	0.003230	99
Es	1.247332	0.707112	0.298404	99
Es	-1.487817	0.189018	-0.032758	99
Es	-0.890581	1.256610	0.303982	99
Es	1.194399	-0.592960	0.041096	99
Es	-1.554815	-0.526164	-0.048069	99
Es	1.232386	0.673039	-0.350210	99
Es	0.314263	1.466633	-0.033011	99
Es	-2.122249	1.245976	0.003237	99
Es	1.132931	-1.598493	0.708961	99
Es	2.284416	0.024782	-0.015174	99
Es	1.011203	1.292856	-0.048520	99
Es	-1.461340	0.906867	-0.014335	99
Es	-0.573119	-1.432812	0.000070	99
Es	0.164123	-1.323068	0.041345	99
Es	-1.043297	-0.939961	-0.349828	99
Es	-0.900564	1.270613	-0.332683	99
Es	-0.371846	1.679488	-0.014336	99
Es	-2.252187	-0.777767	-0.086882	99
40
Properties=species:S:1:pos:R:3:Z:I:1 energy=-269.7666998038468 field_type=dipole dipole="0.000000 0.000000 0.000000" charge=0
C	0.913035	-1.288209	0.079816	6
C	-0.573235	-1.432739	0.000066	6
C	-1.554755	-0.526239	-0.048064	6
C	-1.461255	0.906941	-0.014334	6
C	-0.371945	1.679431	-0.014334	6
C	1.011255	1.292771	-0.048514	6
C	1.541985	0.066481	-0.000344	6
H	1.337695	-1.887769	-0.735734	1
H	1.246785	-1.758859	1.012956	1
H	-0.890955	-2.475809	-0.021284	1
H	-2.577245	-0.899939	-0.104894	1
H	-2.427105	1.411221	0.011426	1
H	-0.528485	2.757951	0.011226	1
H	1.702625	2.134251	-0.105724	1
H	2.631595	0.020511	-0.022264	1
Es	-1.043288	-0.939946	-0.349580	99
Es	-0.473280	2.415499	0.003205	99
Es	-1.461329	0.906875	-0.014320	99
Es	-1.080129	-0.942669	0.298868	99
Es	-1.487778	0.189026	-0.032794	99
Es	-0.573121	-1.432810	0.000070	99
Es	-0.900567	1.270591	-0.332585	99
Es	1.232397	0.673101	-0.349958	99
Es	1.011207	1.292850	-0.048516	99
Es	2.284414	0.024849	-0.015188	99
Es	1.132948	-1.598351	0.708964	99
Es	1.247465	0.707069	0.298380	99
Es	-2.252134	-0.777728	-0.087083	99
Es	-0.371850	1.679485	-0.014343	99
Es	1.194335	-0.593023	0.040941	99
Es	0.164010	-1.323196	0.041191	99
Es	-2.122287	1.245978	0.003223	99
Es	0.912999	-1.288160	0.079810	99
Es	1.195587	-1.687150	-0.471611	99
Es	1.542011	0.066363	-0.000339	99
Es	1.479628	1.867805	-0.087806	99
Es	-1.554818	-0.526163	-0.048064	99
Es	-0.779959	-2.147012	-0.014403	99
Es	0.314230	1.466524	-0.032973	99
Es	-0.890603	1.256650	0.303835	99
40
Properties=species:S:1:pos:R:3:Z:I:1 energy=-269.7666998038468 field_type=dipole dipole="0.000000 0.000000 0.000000" charge=0
C	0.913035	-1.288209	0.079816	6
C	-0.573235	-1.432739	0.000066	6
C	-1.554755	-0.526239	-0.048064	6
C	-1.461255	0.906941	-0.014334	6
C	-0.371945	1.679431	-0.014334	6
C	1.011255	1.292771	-0.048514	6
C	1.541985	0.066481	-0.000344	6
H	1.337695	-1.887769	-0.735734	1
H	1.246785	-1.758859	1.012956	1
H	-0.890955	-2.475809	-0.021284	1
H	-2.577245	-0.899939	-0.104894	1
H	-2.427105	1.411221	0.011426	1
H	-0.528485	2.757951	0.011226	1
H	1.702625	2.134251	-0.105724	1
H	2.631595	0.020511	-0.022264	1
Es	0.164031	-1.323105	0.041247	99
Es	0.314234	1.466584	-0.033084	99
Es	-1.461341	0.906867	-0.014333	99
Es	-1.043365	-0.940006	-0.349470	99
Es	1.195562	-1.687128	-0.471646	99
Es	1.011204	1.292854	-0.048522	99
Es	1.232372	0.673089	-0.349894	99
Es	-1.554818	-0.526162	-0.048067	99
Es	-0.900552	1.270602	-0.332264	99
Es	1.247389	0.706997	0.298055	99
Es	-0.371845	1.679489	-0.014328	99
Es	1.479755	1.867781	-0.087581	99
Es	-0.473322	2.415525	0.003084	99
Es	-1.080066	-0.942624	0.298333	99
Es	-0.890596	1.256629	0.303775	99
Es	-0.573120	-1.432811	0.000063	99
Es	1.133068	-1.598302	0.708991	99
Es	2.284449	0.024946	-0.015230	99
Es	1.542012	0.066356	-0.000354	99
Es	-1.487651	0.189006	-0.032773	99
Es	1.194247	-0.593187	0.041038	99
Es	-2.122293	1.246069	0.003247	99
Es	0.912999	-1.288159	0.079812	99
Es	-2.252244	-0.777827	-0.086878	99
Es	-0.780025	-2.147025	-0.014297	99
40
Properties=species:S:1:pos:R:3:Z:I:1 energy=-269.7666998038468 field_type=dipole dipole="0.000000 0.000000 0.000000" charge=0
C	0.913035	-1.288209	0.079816	6
C	-0.573235	-1.432739	0.000066	6
C	-1.554755	-0.526239	-0.048064	6
C	-1.461255	0.906941	-0.014334	6
C	-0.371945	1.679431	-0.014334	6
C	1.011255	1.292771	-0.048514	6
C	1.541985	0.066481	-0.000344	6
H	1.337695	-1.887769	-0.735734	1
H	1.246785	-1.758859	1.012956	1
H	-0.890955	-2.475809	-0.021284	1
H	-2.577245	-0.899939	-0.104894	1
H	-2.427105	1.411221	0.011426	1
H	-0.528485	2.757951	0.011226	1
H	1.702625	2.134251	-0.105724	1
H	2.631595	0.020511	-0.022264	1
Es	1.195623	-1.687221	-0.471604	99
Es	1.011203	1.292857	-0.048522	99
Es	-1.043411	-0.940025	-0.349334	99
Es	-0.473357	2.415572	0.003112	99
Es	1.132891	-1.598276	0.709070	99
Es	1.479792	1.867816	-0.087586	99
Es	1.194104	-0.593079	0.040841	99
Es	2.284545	0.024916	-0.015162	99
Es	-1.487596	0.189022	-0.032811	99
Es	0.913001	-1.288160	0.079811	99
Es	-1.554817	-0.526163	-0.048068	99
Es	0.164217	-1.323065	0.041170	99
Es	-2.252228	-0.777826	-0.086903	99
Es	-1.080083	-0.942725	0.298250	99
Es	1.247311	0.707022	0.297875	99
Es	1.232498	0.673068	-0.349614	99
Es	-1.461340	0.906867	-0.014332	99
Es	-0.573126	-1.432805	0.000068	99
Es	-0.780054	-2.147018	-0.014350	99
Es	-2.122314	1.246125	0.003116	99
Es	-0.900554	1.270621	-0.331982	99
Es	-0.890594	1.256643	0.303713	99
Es	0.314210	1.466459	-0.033171	99
Es	-0.371847	1.679487	-0.014333	99
Es	1.542016	0.066348	-0.000332	99
40
Properties=species:S:1:pos:R:3:Z:I:1 energy=-269.7666998038468 field_type=dipole dipole="0.000000 0.000000 0.000000" charge=0
C	0.913035	-1.288209	0.079816	6
C	-0.573235	-1.432739	0.000066	6
C	-1.554755	-0.526239	-0.048064	6
C	-1.461255	0.906941	-0.014334	6
C	-0.371945	1.679431	-0.014334	6
C	1.011255	1.292771	-0.048514	6
C	1.541985	0.066481	-0.000344	6
H	1.337695	-1.887769	-0.735734	1
H	1.246785	-1.758859	1.012956	1
H	-0.890955	-2.475809	-0.021284	1
H	-2.577245	-0.899939	-0.104894	1
H	-2.427105	1.411221	0.011426	1
H	-0.528485	2.757951	0.011226	1
H	1.702625	2.134251	-0.105724	1
H	2.631595	0.020511	-0.022264	1
Es	-0.371852	1.679485	-0.014335	99
Es	1.247369	0.707056	0.297815	99
Es	2.284560	0.024989	-0.015192	99
Es	-0.780097	-2.147059	-0.014333	99
Es	1.194025	-0.593179	0.040928	99
Es	-2.122297	1.246078	0.003254	99
Es	0.913001	-1.288158	0.079812	99
Es	-1.554816	-0.526164	-0.048068	99
Es	1.133015	-1.598276	0.709051	99
Es	1.542014	0.066349	-0.000341	99
Es	-1.461342	0.906867	-0.014333	99
Es	1.232459	0.673043	-0.349503	99
Es	0.314245	1.466418	-0.033070	99
Es	1.011203	1.292856	-0.048519	99
Es	1.479784	1.867807	-0.087681	99
Es	-1.080066	-0.942662	0.298112	99
Es	-1.043352	-0.940048	-0.349195	99
Es	-0.890648	1.256720	0.303464	99
Es	-1.487510	0.188907	-0.032894	99
Es	1.195570	-1.687179	-0.471688	99
Es	-2.252276	-0.777868	-0.086896	99
Es	-0.900628	1.270702	-0.331968	99
Es	-0.573120	-1.432811	0.000073	99
Es	0.164236	-1.323010	0.041313	99
Es	-0.473393	2.415595	0.003119	99
40
Properties=species:S:1:pos:R:3:Z:I:1 energy=-269.7666998038468 field_type=dipole dipole="0.000000 0.000000 0.000000" charge=0
C	0.913035	-1.288209	0.079816	6
C	-0.573235	-1.432739	0.000066	6
C	-1.554755	-0.526239	-0.048064	6
C	-1.461255	0.906941	-0.014334	6
C	-0.371945	1.679431	-0.014334	6
C	1.011255	1.292771	-0.048514	6
C	1.541985	0.066481	-0.000344	6
H	1.337695	-1.887769	-0.735734	1
H	1.246785	-1.758859	1.012956	1
H	-0.890955	-2.475809	-0.021284	1
H	-2.577245	-0.899939	-0.104894	1
H	-2.427105	1.411221	0.011426	1
H	-0.528485	2.757951	0.011226	1
H	1.702625	2.134251	-0.105724	1
H	2.631595	0.020511	-0.022264	1
Es	0.913000	-1.288160	0.079811	99
Es	-1.043328	-0.940028	-0.348980	99
Es	1.195602	-1.687161	-0.471703	99
Es	1.132934	-1.598325	0.709048	99
Es	0.164334	-1.322950	0.041243	99
Es	2.284600	0.025027	-0.015140	99
Es	-1.487566	0.188964	-0.032835	99
Es	0.314231	1.466347	-0.032993	99
Es	1.479807	1.867832	-0.087606	99
Es	-2.122355	1.246213	0.003227	99
Es	-0.371850	1.679486	-0.014335	99
Es	-1.080081	-0.942657	0.297987	99
Es	-0.473419	2.415638	0.003120	99
Es	1.011204	1.292855	-0.048517	99
Es	1.247398	0.706965	0.297563	99
Es	-0.890629	1.256660	0.303286	99
Es	1.542015	0.066349	-0.000341	99
Es	-0.780164	-2.147063	-0.014391	99
Es	1.232470	0.673129	-0.349458	99
Es	1.193976	-0.593200	0.041042	99
Es	-2.252282	-0.777949	-0.086923	99
Es	-1.554816	-0.526163	-0.048068	99
Es	-0.573120	-1.432811	0.000069	99
Es	-1.461339	0.906869	-0.014335	99
Es	-0.900535	1.270592	-0.331847	99
40
Properties=species:S:1:pos:R:3:Z:I:1 energy=-269.7666998038468 field_type=dipole dipole="0.000000 0.000000 0.000000" charge=0
C	0.913035	-1.288209	0.079816	6
C	-0.573235	-1.432739	0.000066	6
C	-1.554755	-0.526239	-0.048064	6
C	-1.461255	0.906941	-0.014334	6
C	-0.371945	1.679431	-0.014334	6
C	1.011255	1.292771	-0.048514	6
C	1.541985	0.066481	-0.000344	6
H	1.337695	-1.887769	-0.735734	1
H	1.246785	-1.758859	1.012956	1
H	-0.890955	-2.475809	-0.021284	1
H	-2.577245	-0.899939	-0.104894	1
H	-2.427105	1.411221	0.011426	1
H	-0.528485	2.757951	0.011226	1
H	1.702625	2.134251	-0.105724	1
H	2.631595	0.020511	-0.022264	1
Es	-2.122335	1.246256	0.003261	99
Es	0.314222	1.466294	-0.033096	99
Es	-0.900560	1.270625	-0.331772	99
Es	-2.252386	-0.777921	-0.086654	99
Es	0.913001	-1.288161	0.079812	99
Es	-1.043460	-0.940051	-0.349031	99
Es	1.011204	1.292855	-0.048520	99
Es	-1.079937	-0.942686	0.297551	99
Es	-1.487423	0.188902	-0.032701	99
Es	-0.780241	-2.147090	-0.014324	99
Es	-0.371848	1.679488	-0.014339	99
Es	1.542016	0.066351	-0.000341	99
Es	0.164338	-1.322856	0.041137	99
Es	-0.473425	2.415652	0.003145	99
Es	1.247364	0.707048	0.297517	99
Es	1.193973	-0.593250	0.040986	99
Es	-0.890648	1.256690	0.303128	99
Es	1.195785	-1.687332	-0.471566	99
Es	1.479853	1.867840	-0.087726	99
Es	1.232491	0.673009	-0.349087	99
Es	-0.573126	-1.432806	0.000070	99
Es	-1.461337	0.906869	-0.014336	99
Es	-1.554818	-0.526161	-0.048068	99
Es	2.284686	0.025061	-0.015201	99
Es	1.132699	-1.598169	0.709078	99
40
Properties=species:S:1:pos:R:3:Z:I:1 energy=-269.7666998038468 field_type=dipole dipole="0.000000 0.000000 0.000000" charge=0
C	0.913035	-1.288209	0.079816	6
C	-0.573235	-1.432739	0.000066	6
C	-1.554755	-0.526239	-0.048064	6
C	-1.461255	0.906941	-0.014334	6
C	-0.371945	1.679431	-0.014334	6
C	1.011255	1.292771	-0.048514	6
C	1.541985	0.066481	-0.000344	6
H	1.337695	-1.887769	-0.735734	1
H	1.246785	-1.758859	1.012956	1
H	-0.890955	-2.475809	-0.021284	1
H	-2.577245	-0.899939	-0.104894	1
H	-2.427105	1.411221	0.011426	1
H	-0.528485	2.757951	0.011226	1
H	1.702625	2.134251	-0.105724	1
H	2.631595	0.020511	-0.022264	1
Es	1.247367	0.707089	0.297416	99
Es	-1.554816	-0.526161	-0.048079	99
Es	-1.487419	0.188925	-0.032782	99
Es	-0.473495	2.415711	0.003112	99
Es	0.913002	-1.288161	0.079811	99
Es	1.195605	-1.687171	-0.471728	99
Es	-0.573118	-1.432812	0.000070	99
Es	-2.122405	1.246293	0.003223	99
Es	-1.079960	-0.942733	0.297597	99
Es	-0.900534	1.270583	-0.331541	99
Es	-1.461340	0.906867	-0.014336	99
Es	-1.043441	-0.940016	-0.348794	99
Es	2.284666	0.025120	-0.015216	99
Es	1.542014	0.066351	-0.000341	99
Es	1.232527	0.672973	-0.349006	99
Es	-2.252339	-0.777971	-0.086857	99
Es	1.193851	-0.593293	0.041006	99
Es	0.164460	-1.322845	0.041287	99
Es	-0.371847	1.679487	-0.014331	99
Es	1.132919	-1.598317	0.709078	99
Es	-0.890640	1.256689	0.302975	99
Es	-0.780276	-2.147095	-0.014334	99
Es	0.314227	1.466241	-0.033087	99
Es	1.479875	1.867849	-0.087707	99
Es	1.011205	1.292855	-0.048512	99
40
Properties=species:S:1:pos:R:3:Z:I:1 energy=-269.7666998038468 field_type=dipole dipole="0.000000 0.000000 0.000000" charge=0
C	0.913035	-1.288209	0.079816	6
C	-0.573235	-1.432739	0.000066	6
C	-1.554755	-0.526239	-0.048064	6
C	-1.461255	0.906941	-0.014334	6
C	-0.371945	1.679431	-0.014334	6
C	1.011255	1.292771	-0.048514	6
C	1.541985	0.066481	-0.000344	6
H	1.337695	-1.887769	-0.735734	1
H	1.246785	-1.758859	1.012956	1
H	-0.890955	-2.475809	-0.021284	1
H	-2.577245	-0.899939	-0.104894	1
H	-2.427105	1.411221	0.011426	1
H	-0.528485	2.757951	0.011226	1
H	1.702625	2.134251	-0.105724	1
H	2.631595	0.020511	-0.022264	1
Es	-1.554815	-0.526164	-0.048068	99
Es	-0.371850	1.679486	-0.014335	99
Es	-0.573114	-1.432813	0.000070	99
Es	1.479912	1.867894	-0.087565	99
Es	1.232506	0.673112	-0.349146	99
Es	-1.461338	0.906868	-0.014329	99
Es	-0.900543	1.270601	-0.331310	99
Es	1.247346	0.706884	0.297149	99
Es	2.284682	0.025148	-0.015089	99
Es	1.011201	1.292855	-0.048519	99
Es	1.193803	-0.593301	0.041075	99
Es	0.164557	-1.322836	0.041299	99
Es	-0.780394	-2.147116	-0.014293	99
Es	0.314290	1.466192	-0.033073	99
Es	-0.473522	2.415713	0.003067	99
Es	-2.252349	-0.778005	-0.086939	99
Es	-1.080012	-0.942670	0.297447	99
Es	-1.043380	-0.940057	-0.348553	99
Es	-2.122401	1.246341	0.003104	99
Es	1.542015	0.066350	-0.000340	99
Es	-0.890600	1.256684	0.303078	99
Es	1.132922	-1.598375	0.709125	99
Es	0.913001	-1.288161	0.079810	99
Es	-1.487412	0.188945	-0.033014	99
Es	1.195583	-1.687114	-0.471727	99
40
Properties=species:S:1:pos:R:3:Z:I:1 energy=-269.7666998038468 field_type=dipole dipole="0.000000 0.000000 0.000000" charge=0
C	0.913035	-1.288209	0.079816	6
C	-0.573235	-1.432739	0.000066	6
C	-1.554755	-0.526239	-0.048064	6
C	-1.461255	0.906941	-0.014334	6
C	-0.371945	1.679431	-0.014334	6
C	1.011255	1.292771	-0.048514	6
C	1.541985	0.066481	-0.000344	6
H	1.337695	-1.887769	-0.735734	1
H	1.246785	-1.758859	1.012956	1
H	-0.890955	-2.475809	-0.021284	1
H	-2.577245	-0.899939	-0.104894	1
H	-2.427105	1.411221	0.011426	1
H	-0.528485	2.757951	0.011226	1
H	1.702625	2.134251	-0.105724	1
H	2.631595	0.020511	-0.022264	1
Es	0.164622	-1.322716	0.041092	99
Es	-1.080092	-0.942646	0.297453	99
Es	-2.122439	1.246387	0.003268	99
Es	-0.780350	-2.147093	-0.014396	99
Es	1.195638	-1.687233	-0.471620	99
Es	-1.043350	-0.940172	-0.348374	99
Es	1.247389	0.706866	0.296876	99
Es	-0.890639	1.256697	0.302661	99
Es	0.314213	1.466157	-0.032921	99
Es	-1.554815	-0.526164	-0.048067	99
Es	1.232508	0.673173	-0.348870	99
Es	-0.371851	1.679486	-0.014336	99
Es	0.913001	-1.288162	0.079810	99
Es	-0.473604	2.415750	0.003102	99
Es	1.193754	-0.593375	0.040958	99
Es	-1.461338	0.906869	-0.014334	99
Es	1.542015	0.066350	-0.000338	99
Es	-0.573121	-1.432809	0.000069	99
Es	1.132845	-1.598245	0.709234	99
Es	1.011207	1.292846	-0.048510	99
Es	2.284703	0.025174	-0.015127	99
Es	-2.252384	-0.778037	-0.086906	99
Es	-1.487319	0.188885	-0.032997	99
Es	-0.900555	1.270617	-0.331230	99
Es	1.480048	1.867853	-0.087575	99
40
Properties=species:S:1:pos:R:3:Z:I:1 energy=-269.7666998038468 field_type=dipole dipole="0.000000 0.000000 0.000000" charge=0
C	0.913035	-1.288209	0.079816	6
C	-0.573235	-1.432739	0.000066	6
C	-1.554755	-0.526239	-0.048064	6
C	-1.461255	0.906941	-0.014334	6
C	-0.371945	1.679431	-0.014334	6
C	1.011255	1.292771	-0.048514	6
C	1.541985	0.066481	-0.000344	6
H	1.337695	-1.887769	-0.735734	1
H	1.246785	-1.758859	1.012956	1
H	-0.890955	-2.475809	-0.021284	1
H	-2.577245	-0.899939	-0.104894	1
H	-2.427105	1.411221	0.011426	1
H	-0.528485	2.757951	0.011226	1
H	1.702625	2.134251	-0.105724	1
H	2.631595	0.020511	-0.022264	1
Es	-0.900526	1.270587	-0.331002	99
Es	-1.461341	0.906870	-0.014344	99
Es	1.479974	1.867895	-0.087647	99
Es	1.195603	-1.687159	-0.471795	99
Es	-0.890654	1.256706	0.302636	99
Es	-0.573125	-1.432807	0.000067	99
Es	1.193643	-0.593404	0.041084	99
Es	-1.043443	-0.940046	-0.348388	99
Es	-0.473590	2.415824	0.003042	99
Es	2.284763	0.025241	-0.015163	99
Es	0.913003	-1.288164	0.079814	99
Es	1.542013	0.066355	-0.000336	99
Es	0.164634	-1.322694	0.041320	99
Es	-1.079925	-0.942744	0.297185	99
Es	-0.780424	-2.147153	-0.014333	99
Es	-0.371853	1.679484	-0.014321	99
Es	0.314217	1.466057	-0.033072	99
Es	1.247396	0.706926	0.296900	99
Es	-1.554807	-0.526163	-0.048065	99
Es	-1.487244	0.188875	-0.032828	99
Es	-2.252406	-0.778060	-0.086867	99
Es	1.132921	-1.598314	0.709111	99
Es	1.011202	1.292853	-0.048527	99
Es	-2.122482	1.246412	0.003155	99
Es	1.232540	0.673084	-0.348701	99
40
Properties=species:S:1:pos:R:3:Z:I:1 energy=-269.7666998038468 field_type=dipole dipole="0.000000 0.000000 0.000000" charge=0
C	0.913035	-1.288209	0.079816	6
C	-0.573235	-1.432739	0.000066	6
C	-1.554755	-0.526239	-0.048064	6
C	-1.461255	0.906941	-0.014334	6
C	-0.371945	1.679431	-0.014334	6
C	1.011255	1.292771	-0.048514	6
C	1.541985	0.066481	-0.000344	6
H	1.337695	-1.887769	-0.735734	1
H	1.246785	-1.758859	1.012956	1
H	-0.890955	-2.475809	-0.021284	1
H	-2.577245	-0.899939	-0.104894	1
H	-2.427105	1.411221	0.011426	1
H	-0.528485	2.757951	0.011226	1
H	1.702625	2.134251	-0.105724	1
H	2.631595	0.020511	-0.022264	1
Es	0.314222	1.466019	-0.033031	99
Es	-2.252426	-0.778103	-0.086954	99
Es	-0.573122	-1.432809	0.000071	99
Es	1.011205	1.292853	-0.048518	99
Es	1.542014	0.066350	-0.000337	99
Es	-0.473643	2.415859	0.003106	99
Es	0.164706	-1.322645	0.041345	99
Es	-0.371850	1.679485	-0.014339	99
Es	2.284781	0.025283	-0.015172	99
Es	-0.890658	1.256737	0.302437	99
Es	-2.122464	1.246445	0.003190	99
Es	1.132910	-1.598345	0.709067	99
Es	1.247398	0.706928	0.296771	99
Es	-0.780471	-2.147158	-0.014380	99
Es	0.913002	-1.288162	0.079811	99
Es	-1.554813	-0.526166	-0.048068	99
Es	-1.043351	-0.940104	-0.348128	99
Es	1.193563	-0.593444	0.041186	99
Es	-1.487243	0.188863	-0.032872	99
Es	-1.080015	-0.942694	0.297137	99
Es	-1.461337	0.906870	-0.014335	99
Es	-0.900514	1.270562	-0.330976	99
Es	1.195619	-1.687137	-0.471884	99
Es	1.480006	1.867895	-0.087640	99
Es	1.232568	0.673080	-0.348565	99
40
Properties=species:S:1:pos:R:3:Z:I:1 energy=-269.7666998038468 field_type=dipole dipole="0.000000 0.000000 0.000000" charge=0
C	0.913035	-1.288209	0.079816	6
C	-0.573235	-1.432739	0.000066	6
C	-1.554755	-0.526239	-0.048064	6
C	-1.461255	0.906941	-0.014334	6
C	-0.371945	1.679431	-0.014334	6
C	1.011255	1.292771	-0.048514	6
C	1.541985	0.066481	-0.000344	6
H	1.337695	-1.887769	-0.735734	1
H	1.246785	-1.758859	1.012956	1
H	-0.890955	-2.475809	-0.021284	1
H	-2.577245	-0.899939	-0.104894	1
H	-2.427105	1.411221	0.011426	1
H	-0.528485	2.757951	0.011226	1
H	1.702625	2.134251	-0.105724	1
H	2.631595	0.020511	-0.022264	1
Es	1.480051	1.867935	-0.087634	99
Es	1.132902	-1.598289	0.709168	99
Es	-0.573121	-1.432810	0.000069	99
Es	-1.043356	-0.940079	-0.347914	99
Es	-0.780534	-2.147207	-0.014389	99
Es	-0.473686	2.415916	0.003042	99
Es	-2.122524	1.246543	0.003156	99
Es	1.232557	0.673099	-0.348399	99
Es	-0.900468	1.270512	-0.330694	99
Es	1.195627	-1.687170	-0.471832	99
Es	-2.252514	-0.778150	-0.086932	99
Es	0.164752	-1.322588	0.041282	99
Es	-0.371850	1.679485	-0.014335	99
Es	1.542014	0.066350	-0.000341	99
Es	0.314217	1.465931	-0.033065	99
Es	1.193464	-0.593442	0.041093	99
Es	1.011205	1.292852	-0.048518	99
Es	-1.487125	0.188820	-0.032867	99
Es	-0.890656	1.256714	0.302271	99
Es	-1.554815	-0.526165	-0.048068	99
Es	1.247369	0.706871	0.296583	99
Es	0.913002	-1.288162	0.079811	99
Es	-1.079960	-0.942668	0.296924	99
Es	2.284875	0.025291	-0.015152	99
Es	-1.461337	0.906870	-0.014335	99
40
Properties=species:S:1:pos:R:3:Z:I:1 energy=-269.7666998038468 field_type=dipole dipole="0.000000 0.000000 0.000000" charge=0
C	0.913035	-1.288209	0.079816	6
C	-0.573235	-1.432739	0.000066	6
C	-1.554755	-0.526239	-0.048064	6
C	-1.461255	0.906941	-0.014334	6
C	-0.371945	1.679431	-0.014334	6
C	1.011255	1.292771	-0.048514	6
C	1.541985	0.066481	-0.000344	6
H	1.337695	-1.887769	-0.735734	1
H	1.246785	-1.758859	1.012956	1
H	-0.890955	-2.475809	-0.021284	1
H	-2.577245	-0.899939	-0.104894	1
H	-2.427105	1.411221	0.011426	1
H	-0.528485	2.757951	0.011226	1
H	1.702625	2.134251	-0.105724	1
H	2.631595	0.020511	-0.022264	1
Es	-2.122543	1.246549	0.003116	99
Es	1.542014	0.066346	-0.000341	99
Es	-0.573122	-1.432808	0.000069	99
Es	-0.371847	1.679484	-0.014336	99
Es	-1.079917	-0.942730	0.296820	99
Es	-1.043426	-0.940109	-0.347929	99
Es	1.480067	1.867910	-0.087617	99
Es	-0.890658	1.256716	0.302271	99
Es	-0.900516	1.270555	-0.330522	99
Es	-0.780566	-2.147180	-0.014352	99
Es	0.314197	1.465921	-0.033080	99
Es	-1.487084	0.188831	-0.032907	99
Es	0.164817	-1.322555	0.041311	99
Es	2.284860	0.025343	-0.015138	99
Es	-1.461337	0.906870	-0.014338	99
Es	1.011203	1.292855	-0.048519	99
Es	-2.252484	-0.778142	-0.086888	99
Es	1.193447	-0.593501	0.041102	99
Es	1.232573	0.673137	-0.348353	99
Es	0.913004	-1.288162	0.079811	99
Es	-1.554815	-0.526168	-0.048064	99
Es	-0.473696	2.415933	0.003005	99
Es	1.247407	0.706832	0.296463	99
Es	1.132895	-1.598285	0.709172	99
Es	1.195613	-1.687185	-0.471830	99
40
Properties=species:S:1:pos:R:3:Z:I:1 energy=-269.7666998038468 field_type=dipole dipole="0.000000 0.000000 0.000000" charge=0
C	0.913035	-1.288209	0.079816	6
C	-0.573235	-1.432739	0.000066	6
C	-1.554755	-0.526239	-0.048064	6
C	-1.461255	0.906941	-0.014334	6
C	-0.371945	1.679431	-0.014334	6
C	1.011255	1.292771	-0.048514	6
C	1.541985	0.066481	-0.000344	6
H	1.337695	-1.887769	-0.735734	1
H	1.246785	-1.758859	1.012956	1
H	-0.890955	-2.475809	-0.021284	1
H	-2.577245	-0.899939	-0.104894	1
H	-2.427105	1.411221	0.011426	1
H	-0.528485	2.757951	0.011226	1
H	1.702625	2.134251	-0.105724	1
H	2.631595	0.020511	-0.022264	1
Es	0.913002	-1.288162	0.079811	99
Es	1.247434	0.706862	0.296263	99
Es	-0.371848	1.679487	-0.014343	99
Es	-1.554811	-0.526165	-0.048069	99
Es	-0.900469	1.270474	-0.330701	99
Es	0.164861	-1.322525	0.041351	99
Es	1.480109	1.867928	-0.087650	99
Es	-0.780592	-2.147195	-0.014380	99
Es	-1.079961	-0.942714	0.296733	99
Es	1.193403	-0.593514	0.041162	99
Es	1.011205	1.292851	-0.048517	99
Es	-1.461337	0.906870	-0.014335	99
Es	1.195605	-1.687181	-0.471868	99
Es	-2.252520	-0.778133	-0.086879	99
Es	2.284907	0.025415	-0.015165	99
Es	-0.890731	1.256781	0.301899	99
Es	-2.122537	1.246599	0.003272	99
Es	1.132905	-1.598297	0.709122	99
Es	-0.473665	2.415970	0.003107	99
Es	1.232527	0.673102	-0.348222	99
Es	1.542014	0.066350	-0.000341	99
Es	-1.487050	0.188840	-0.032836	99
Es	-0.573120	-1.432810	0.000068	99
Es	0.314171	1.465805	-0.032799	99
Es	-1.043414	-0.940180	-0.347759	99
40
Properties=species:S:1:pos:R:3:Z:I:1 energy=-269.7666998038468 field_type=dipole dipole="0.000000 0.000000 0.000000" charge=0
C	0.913035	-1.288209	0.079816	6
C	-0.573235	-1.432739	0.000066	6
C	-1.554755	-0.526239	-0.048064	6
C	-1.461255	0.906941	-0.014334	6
C	-0.371945	1.679431	-0.014334	6
C	1.011255	1.292771	-0.048514	6
C	1.541985	0.066481	-0.000344	6
H	1.337695	-1.887769	-0.735734	1
H	1.246785	-1.758859	1.012956	1
H	-0.890955	-2.475809	-0.021284	1
H	-2.577245	-0.899939	-0.104894	1
H	-2.427105	1.411221	0.011426	1
H	-0.528485	2.757951	0.011226	1
H	1.702625	2.134251	-0.105724	1
H	2.631595	0.020511	-0.022264	1
Es	0.164914	-1.322414	0.041133	99
Es	-0.371851	1.679485	-0.014336	99
Es	-1.486978	0.188800	-0.032842	99
Es	0.913003	-1.288164	0.079808	99
Es	0.314224	1.465813	-0.033148	99
Es	-2.252486	-0.778140	-0.086927	99
Es	-1.043381	-0.940184	-0.347712	99
Es	1.132761	-1.598156	0.709320	99
Es	-1.461335	0.906873	-0.014335	99
Es	-0.473762	2.415968	0.003048	99
Es	1.193431	-0.593582	0.040917	99
Es	1.195645	-1.687347	-0.471663	99
Es	1.232620	0.673066	-0.348056	99
Es	-2.122590	1.246601	0.003158	99
Es	-0.890705	1.256767	0.301933	99
Es	1.011207	1.292852	-0.048517	99
Es	1.542011	0.066351	-0.000340	99
Es	2.284904	0.025409	-0.015137	99
Es	-0.573123	-1.432806	0.000070	99
Es	-0.780626	-2.147198	-0.014380	99
Es	1.480136	1.867945	-0.087643	99
Es	-0.900523	1.270557	-0.330369	99
Es	1.247365	0.706878	0.296292	99
Es	-1.079957	-0.942747	0.296719	99
Es	-1.554814	-0.526165	-0.048067	99
40
Properties=species:S:1:pos:R:3:Z:I:1 energy=-269.7666998038468 field_type=dipole dipole="0.000000 0.000000 0.000000" charge=0
C	0.913035	-1.288209	0.079816	6
C	-0.573235	-1.432739	0.000066	6
C	-1.554755	-0.526239	-0.048064	6
C	-1.461255	0.906941	-0.014334	6
C	-0.371945	1.679431	-0.014334	6
C	1.011255	1.292771	-0.048514	6
C	1.541985	0.066481	-0.000344	6
H	1.337695	-1.887769	-0.735734	1
H	1.246785	-1.758859	1.012956	1
H	-0.890955	-2.475809	-0.021284	1
H	-2.577245	-0.899939	-0.104894	1
H	-2.427105	1.411221	0.011426	1
H	-0.528485	2.757951	0.011226	1
H	1.702625	2.134251	-0.105724	1
H	2.631595	0.020511	-0.022264	1
Es	1.011205	1.292851	-0.048518	99
Es	1.232591	0.673100	-0.347918	99
Es	0.314207	1.465738	-0.033047	99
Es	-2.252494	-0.778191	-0.087044	99
Es	1.132880	-1.598273	0.709230	99
Es	2.284906	0.025460	-0.015159	99
Es	-0.573122	-1.432809	0.000069	99
Es	1.195617	-1.687190	-0.471882	99
Es	1.247376	0.706826	0.296102	99
Es	-1.043284	-0.940207	-0.347381	99
Es	-1.554813	-0.526166	-0.048069	99
Es	1.193282	-0.593631	0.041101	99
Es	-1.486996	0.188776	-0.032999	99
Es	-1.461337	0.906870	-0.014335	99
Es	0.164938	-1.322384	0.041235	99
Es	-0.900490	1.270519	-0.330247	99
Es	-0.473785	2.416015	0.003049	99
Es	0.913003	-1.288163	0.079811	99
Es	1.542014	0.066351	-0.000340	99
Es	-2.122595	1.246677	0.003173	99
Es	1.480205	1.867990	-0.087647	99
Es	-0.890687	1.256756	0.301790	99
Es	-1.080025	-0.942671	0.296758	99
Es	-0.780658	-2.147272	-0.014471	99
Es	-0.371851	1.679484	-0.014335	99
