41
Properties=species:S:1:pos:R:3:Z:I:1 energy=-302.9727002984491 field_type=dipole dipole="0.000000 0.000000 0.000000" charge=0
C	-2.188602	0.120767	0.361465	6
C	-0.851112	0.141737	0.256305	6
C	-0.011042	1.390777	0.154725	6
N	1.148138	0.894627	-0.539185	7
C	1.267828	-0.454863	-0.438405	6
N	2.349118	-1.099743	-0.708025	7
C	0.001248	-1.094183	0.081455	6
H	-2.737602	-0.816153	0.375065	1
H	-2.765692	1.037657	0.429215	1
H	0.265878	1.751697	1.150135	1
H	-0.501392	2.185147	-0.413875	1
H	2.007178	1.427997	-0.539395	1
H	2.210718	-2.103233	-0.550675	1
H	-0.400992	-1.794863	-0.654365	1
H	0.206328	-1.587373	1.035555	1
Es	-2.188692	0.120767	0.361491	99
Es	-2.563565	-0.512729	0.372682	99
Es	-0.349238	1.931191	-0.224592	99
Es	1.836215	-0.892816	-0.868115	99
Es	2.669404	-0.956893	-0.824331	99
Es	-0.441370	0.776580	0.216154	99
Es	-2.583629	0.741098	0.408557	99
Es	-0.850955	0.141741	0.256304	99
Es	1.267716	-0.454716	-0.438416	99
Es	1.653042	1.212651	-0.522186	99
Es	2.246429	-1.706959	-0.607397	99
Es	2.348668	-1.099869	-0.707870	99
Es	-0.443489	-0.490956	0.183542	99
Es	2.010410	-0.835921	-0.330998	99
Es	0.630273	-0.784899	-0.183634	99
Es	0.140009	-1.416835	0.715913	99
Es	0.001262	-1.094105	0.081448	99
Es	1.148258	0.894452	-0.538671	99
Es	1.232180	0.343159	-0.396773	99
Es	-1.564578	0.142259	-0.013260	99
Es	1.062544	0.773959	-0.813997	99
Es	-1.507598	0.126404	0.642810	99
Es	-0.010920	1.390674	0.154653	99
Es	0.172527	1.633994	0.835113	99
Es	0.668369	1.123703	-0.224288	99
Es	-0.268481	-1.559434	-0.406503	99
41
Properties=species:S:1:pos:R:3:Z:I:1 energy=-302.9727002984491 field_type=dipole dipole="0.000000 0.000000 0.000000" charge=0
C	-2.188602	0.120767	0.361465	6
C	-0.851112	0.141737	0.256305	6
C	-0.011042	1.390777	0.154725	6
N	1.148138	0.894627	-0.539185	7
C	1.267828	-0.454863	-0.438405	6
N	2.349118	-1.099743	-0.708025	7
C	0.001248	-1.094183	0.081455	6
H	-2.737602	-0.816153	0.375065	1
H	-2.765692	1.037657	0.429215	1
H	0.265878	1.751697	1.150135	1
H	-0.501392	2.185147	-0.413875	1
H	2.007178	1.427997	-0.539395	1
H	2.210718	-2.103233	-0.550675	1
H	-0.400992	-1.794863	-0.654365	1
H	0.206328	-1.587373	1.035555	1
Es	-2.583623	0.741165	0.408547	99
Es	-0.850961	0.141741	0.256297	99
Es	-2.563550	-0.512771	0.372805	99
Es	1.232478	0.343362	-0.396553	99
Es	-2.188691	0.120769	0.361490	99
Es	-0.441429	0.776566	0.216124	99
Es	1.062246	0.773845	-0.814286	99
Es	-0.443454	-0.491072	0.183744	99
Es	1.836240	-0.892050	-0.868468	99
Es	2.669624	-0.956925	-0.823251	99
Es	0.172510	1.633894	0.835075	99
Es	-0.349238	1.931243	-0.224463	99
Es	0.668629	1.123694	-0.224065	99
Es	0.140178	-1.416805	0.715815	99
Es	1.652902	1.212779	-0.522412	99
Es	0.630223	-0.784996	-0.183823	99
Es	1.148262	0.894429	-0.538663	99
Es	2.010274	-0.836579	-0.331060	99
Es	0.001270	-1.094100	0.081447	99
Es	-1.564592	0.142200	-0.013138	99
Es	1.267720	-0.454710	-0.438406	99
Es	2.246290	-1.706966	-0.608127	99
Es	-0.010922	1.390676	0.154654	99
Es	-0.268667	-1.559458	-0.406327	99
Es	-1.507587	0.126456	0.642547	99
Es	2.348660	-1.099886	-0.707865	99
41
Properties=species:S:1:pos:R:3:Z:I:1 energy=-302.9727002984491 field_type=dipole dipole="0.000000 0.000000 0.000000" charge=0
C	-2.188602	0.120767	0.361465	6
C	-0.851112	0.141737	0.256305	6
C	-0.011042	1.390777	0.154725	6
N	1.148138	0.894627	-0.539185	7
C	1.267828	-0.454863	-0.438405	6
N	2.349118	-1.099743	-0.708025	7
C	0.001248	-1.094183	0.081455	6
H	-2.737602	-0.816153	0.375065	1
H	-2.765692	1.037657	0.429215	1
H	0.265878	1.751697	1.150135	1
H	-0.501392	2.185147	-0.413875	1
H	2.007178	1.427997	-0.539395	1
H	2.210718	-2.103233	-0.550675	1
H	-0.400992	-1.794863	-0.654365	1
H	0.206328	-1.587373	1.035555	1
Es	1.148269	0.894415	-0.538644	99
Es	-1.564542	0.142169	-0.012978	99
Es	2.246069	-1.706891	-0.608272	99
Es	-0.349266	1.931205	-0.224498	99
Es	-1.507592	0.126472	0.642570	99
Es	-0.441412	0.776665	0.216145	99
Es	-0.443520	-0.491069	0.183552	99
Es	-2.188692	0.120767	0.361489	99
Es	0.172480	1.633945	0.835052	99
Es	-0.850956	0.141740	0.256304	99
Es	-2.563496	-0.512735	0.372775	99
Es	0.140007	-1.416909	0.715891	99
Es	2.348711	-1.099859	-0.707883	99
Es	1.835510	-0.891383	-0.867843	99
Es	0.668681	1.123463	-0.223695	99
Es	0.630223	-0.785089	-0.183713	99
Es	1.267720	-0.454711	-0.438406	99
Es	1.652920	1.212569	-0.521899	99
Es	0.001264	-1.094103	0.081448	99
Es	1.062431	0.775302	-0.813734	99
Es	-2.583691	0.741126	0.408444	99
Es	-0.268488	-1.559361	-0.406437	99
Es	1.232275	0.342361	-0.398037	99
Es	2.669179	-0.957447	-0.824174	99
Es	2.011629	-0.836814	-0.330472	99
Es	-0.010920	1.390675	0.154654	99
41
Properties=species:S:1:pos:R:3:Z:I:1 energy=-302.9727002984491 field_type=dipole dipole="0.000000 0.000000 0.000000" charge=0
C	-2.188602	0.120767	0.361465	6
C	-0.851112	0.141737	0.256305	6
C	-0.011042	1.390777	0.154725	6
N	1.148138	0.894627	-0.539185	7
C	1.267828	-0.454863	-0.438405	6
N	2.349118	-1.099743	-0.708025	7
C	0.001248	-1.094183	0.081455	6
H	-2.737602	-0.816153	0.375065	1
H	-2.765692	1.037657	0.429215	1
H	0.265878	1.751697	1.150135	1
H	-0.501392	2.185147	-0.413875	1
H	2.007178	1.427997	-0.539395	1
H	2.210718	-2.103233	-0.550675	1
H	-0.400992	-1.794863	-0.654365	1
H	0.206328	-1.587373	1.035555	1
Es	-2.563549	-0.512759	0.372716	99
Es	2.669029	-0.957500	-0.823505	99
Es	1.232727	0.343939	-0.395823	99
Es	0.630301	-0.785149	-0.183556	99
Es	0.172535	1.633987	0.835010	99
Es	1.062855	0.772831	-0.813547	99
Es	-0.441496	0.776726	0.216272	99
Es	1.652852	1.213058	-0.523122	99
Es	0.001263	-1.094106	0.081449	99
Es	-2.188690	0.120767	0.361490	99
Es	-0.443504	-0.491073	0.183820	99
Es	-1.507569	0.126477	0.642420	99
Es	-0.010922	1.390675	0.154653	99
Es	0.667843	1.124136	-0.224964	99
Es	-1.564559	0.142119	-0.012946	99
Es	2.348705	-1.099877	-0.707886	99
Es	1.835817	-0.891327	-0.868402	99
Es	-0.850961	0.141740	0.256300	99
Es	-0.268492	-1.559328	-0.406504	99
Es	0.139931	-1.416969	0.715742	99
Es	1.267720	-0.454711	-0.438406	99
Es	1.148290	0.894165	-0.538559	99
Es	2.011321	-0.836600	-0.330732	99
Es	-0.349228	1.931195	-0.224474	99
Es	2.246219	-1.707044	-0.608194	99
Es	-2.583647	0.741130	0.408390	99
41
Properties=species:S:1:pos:R:3:Z:I:1 energy=-302.9727002984491 field_type=dipole dipole="0.000000 0.000000 0.000000" charge=0
C	-2.188602	0.120767	0.361465	6
C	-0.851112	0.141737	0.256305	6
C	-0.011042	1.390777	0.154725	6
N	1.148138	0.894627	-0.539185	7
C	1.267828	-0.454863	-0.438405	6
N	2.349118	-1.099743	-0.708025	7
C	0.001248	-1.094183	0.081455	6
H	-2.737602	-0.816153	0.375065	1
H	-2.765692	1.037657	0.429215	1
H	0.265878	1.751697	1.150135	1
H	-0.501392	2.185147	-0.413875	1
H	2.007178	1.427997	-0.539395	1
H	2.210718	-2.103233	-0.550675	1
H	-0.400992	-1.794863	-0.654365	1
H	0.206328	-1.587373	1.035555	1
Es	-0.850955	0.141741	0.256298	99
Es	-0.443570	-0.491146	0.183683	99
Es	-0.349192	1.931173	-0.224416	99
Es	1.836103	-0.891848	-0.869208	99
Es	0.172494	1.633984	0.834990	99
Es	-2.188689	0.120767	0.361481	99
Es	-0.268445	-1.559509	-0.406346	99
Es	-0.441621	0.776791	0.216226	99
Es	-1.507561	0.126449	0.642430	99
Es	-2.563585	-0.512706	0.372687	99
Es	0.001264	-1.094104	0.081448	99
Es	1.148265	0.894412	-0.538649	99
Es	0.668369	1.123905	-0.224348	99
Es	2.348645	-1.099873	-0.707847	99
Es	2.668718	-0.957396	-0.822925	99
Es	-2.583618	0.741107	0.408418	99
Es	0.140120	-1.416791	0.715792	99
Es	-0.010921	1.390676	0.154655	99
Es	2.246892	-1.707037	-0.607974	99
Es	1.267718	-0.454713	-0.438412	99
Es	0.630166	-0.785212	-0.183652	99
Es	1.652823	1.212688	-0.522430	99
Es	1.232748	0.344122	-0.395870	99
Es	1.062438	0.773028	-0.814759	99
Es	-1.564540	0.142141	-0.012830	99
Es	2.010725	-0.836146	-0.330804	99
41
Properties=species:S:1:pos:R:3:Z:I:1 energy=-302.9727002984491 field_type=dipole dipole="0.000000 0.000000 0.000000" charge=0
C	-2.188602	0.120767	0.361465	6
C	-0.851112	0.141737	0.256305	6
C	-0.011042	1.390777	0.154725	6
N	1.148138	0.894627	-0.539185	7
C	1.267828	-0.454863	-0.438405	6
N	2.349118	-1.099743	-0.708025	7
C	0.001248	-1.094183	0.081455	6
H	-2.737602	-0.816153	0.375065	1
H	-2.765692	1.037657	0.429215	1
H	0.265878	1.751697	1.150135	1
H	-0.501392	2.185147	-0.413875	1
H	2.007178	1.427997	-0.539395	1
H	2.210718	-2.103233	-0.550675	1
H	-0.400992	-1.794863	-0.654365	1
H	0.206328	-1.587373	1.035555	1
Es	2.668591	-0.957342	-0.822978	99
Es	0.001264	-1.094105	0.081448	99
Es	-0.441632	0.776837	0.216254	99
Es	-0.349186	1.931177	-0.224399	99
Es	1.652738	1.212835	-0.522759	99
Es	1.267723	-0.454711	-0.438404	99
Es	-2.563554	-0.512759	0.372701	99
Es	0.668211	1.124105	-0.224677	99
Es	-0.443608	-0.491246	0.183765	99
Es	-0.010920	1.390675	0.154654	99
Es	-2.188685	0.120766	0.361486	99
Es	1.062460	0.771602	-0.815243	99
Es	1.836348	-0.891722	-0.868938	99
Es	0.630218	-0.785307	-0.183594	99
Es	-0.850960	0.141740	0.256294	99
Es	1.148231	0.894499	-0.538756	99
Es	-1.507530	0.126508	0.642187	99
Es	2.246825	-1.707240	-0.608158	99
Es	1.233083	0.345152	-0.394612	99
Es	2.348658	-1.099872	-0.707865	99
Es	2.010648	-0.836071	-0.330853	99
Es	-1.564555	0.142210	-0.012654	99
Es	0.172461	1.633970	0.834985	99
Es	-0.268432	-1.559310	-0.406391	99
Es	0.140034	-1.417007	0.715707	99
Es	-2.583639	0.741120	0.408436	99
41
Properties=species:S:1:pos:R:3:Z:I:1 energy=-302.9727002984491 field_type=dipole dipole="0.000000 0.000000 0.000000" charge=0
C	-2.188602	0.120767	0.361465	6
C	-0.851112	0.141737	0.256305	6
C	-0.011042	1.390777	0.154725	6
N	1.148138	0.894627	-0.539185	7
C	1.267828	-0.454863	-0.438405	6
N	2.349118	-1.099743	-0.708025	7
C	0.001248	-1.094183	0.081455	6
H	-2.737602	-0.816153	0.375065	1
H	-2.765692	1.037657	0.429215	1
H	0.265878	1.751697	1.150135	1
H	-0.501392	2.185147	-0.413875	1
H	2.007178	1.427997	-0.539395	1
H	2.210718	-2.103233	-0.550675	1
H	-0.400992	-1.794863	-0.654365	1
H	0.206328	-1.587373	1.035555	1
Es	0.630186	-0.785371	-0.183631	99
Es	0.668535	1.123988	-0.224276	99
Es	1.062380	0.773124	-0.815128	99
Es	-2.583661	0.741144	0.408376	99
Es	0.001264	-1.094105	0.081447	99
Es	0.172450	1.634012	0.834933	99
Es	-0.441629	0.776870	0.216287	99
Es	1.836316	-0.891723	-0.868883	99
Es	2.247033	-1.707332	-0.608119	99
Es	2.010954	-0.835785	-0.330639	99
Es	-1.507550	0.126517	0.642136	99
Es	1.267719	-0.454709	-0.438403	99
Es	0.140036	-1.417009	0.715756	99
Es	2.348655	-1.099866	-0.707864	99
Es	-0.268395	-1.559298	-0.406340	99
Es	1.232883	0.344185	-0.395719	99
Es	-1.564521	0.142163	-0.012504	99
Es	2.668119	-0.957507	-0.823279	99
Es	-0.850958	0.141741	0.256293	99
Es	-2.188678	0.120766	0.361488	99
Es	1.148263	0.894387	-0.538676	99
Es	-2.563535	-0.512759	0.372697	99
Es	1.652714	1.212551	-0.522272	99
Es	-0.443654	-0.491289	0.183686	99
Es	-0.349211	1.931130	-0.224384	99
Es	-0.010923	1.390677	0.154657	99
41
Properties=species:S:1:pos:R:3:Z:I:1 energy=-302.9727002984491 field_type=dipole dipole="0.000000 0.000000 0.000000" charge=0
C	-2.188602	0.120767	0.361465	6
C	-0.851112	0.141737	0.256305	6
C	-0.011042	1.390777	0.154725	6
N	1.148138	0.894627	-0.539185	7
C	1.267828	-0.454863	-0.438405	6
N	2.349118	-1.099743	-0.708025	7
C	0.001248	-1.094183	0.081455	6
H	-2.737602	-0.816153	0.375065	1
H	-2.765692	1.037657	0.429215	1
H	0.265878	1.751697	1.150135	1
H	-0.501392	2.185147	-0.413875	1
H	2.007178	1.427997	-0.539395	1
H	2.210718	-2.103233	-0.550675	1
H	-0.400992	-1.794863	-0.654365	1
H	0.206328	-1.587373	1.035555	1
Es	0.001264	-1.094105	0.081448	99
Es	-0.268358	-1.559342	-0.406303	99
Es	-0.850961	0.141741	0.256298	99
Es	-0.010921	1.390674	0.154654	99
Es	2.668250	-0.957411	-0.822633	99
Es	1.267723	-0.454711	-0.438397	99
Es	-2.583692	0.741175	0.408362	99
Es	-2.188686	0.120767	0.361489	99
Es	0.668226	1.124328	-0.224738	99
Es	0.630215	-0.785466	-0.183592	99
Es	1.062521	0.771603	-0.815199	99
Es	0.139987	-1.416964	0.715705	99
Es	1.148257	0.894439	-0.538677	99
Es	2.010634	-0.835996	-0.330797	99
Es	2.348663	-1.099875	-0.707866	99
Es	2.247005	-1.707380	-0.608370	99
Es	-0.349233	1.931073	-0.224392	99
Es	1.652713	1.212760	-0.522872	99
Es	-1.507544	0.126482	0.642004	99
Es	1.233137	0.345178	-0.394564	99
Es	-0.443707	-0.491324	0.183662	99
Es	-0.441630	0.776908	0.216323	99
Es	0.172431	1.634068	0.834935	99
Es	-1.564498	0.142160	-0.012352	99
Es	1.836496	-0.891517	-0.869149	99
Es	-2.563503	-0.512765	0.372661	99
41
Properties=species:S:1:pos:R:3:Z:I:1 energy=-302.9727002984491 field_type=dipole dipole="0.000000 0.000000 0.000000" charge=0
C	-2.188602	0.120767	0.361465	6
C	-0.851112	0.141737	0.256305	6
C	-0.011042	1.390777	0.154725	6
N	1.148138	0.894627	-0.539185	7
C	1.267828	-0.454863	-0.438405	6
N	2.349118	-1.099743	-0.708025	7
C	0.001248	-1.094183	0.081455	6
H	-2.737602	-0.816153	0.375065	1
H	-2.765692	1.037657	0.429215	1
H	0.265878	1.751697	1.150135	1
H	-0.501392	2.185147	-0.413875	1
H	2.007178	1.427997	-0.539395	1
H	2.210718	-2.103233	-0.550675	1
H	-0.400992	-1.794863	-0.654365	1
H	0.206328	-1.587373	1.035555	1
Es	1.652800	1.212485	-0.522281	99
Es	-0.010922	1.390675	0.154655	99
Es	0.668384	1.124087	-0.224314	99
Es	2.010765	-0.835874	-0.330872	99
Es	1.267720	-0.454712	-0.438406	99
Es	0.172413	1.633993	0.834894	99
Es	-2.583656	0.741148	0.408357	99
Es	-0.441714	0.776980	0.216323	99
Es	0.630228	-0.785496	-0.183551	99
Es	0.139986	-1.416967	0.715655	99
Es	-1.507537	0.126525	0.641901	99
Es	-1.564492	0.142181	-0.012288	99
Es	2.247110	-1.707397	-0.608203	99
Es	-0.443730	-0.491399	0.183719	99
Es	-0.850960	0.141740	0.256297	99
Es	1.232801	0.343846	-0.396390	99
Es	-0.349163	1.931134	-0.224318	99
Es	1.836416	-0.891481	-0.869266	99
Es	2.668084	-0.957512	-0.822600	99
Es	-0.268363	-1.559350	-0.406285	99
Es	-2.188687	0.120768	0.361489	99
Es	-2.563540	-0.512771	0.372675	99
Es	2.348668	-1.099877	-0.707869	99
Es	0.001264	-1.094105	0.081448	99
Es	1.062629	0.773591	-0.814563	99
Es	1.148289	0.894291	-0.538570	99
41
Properties=species:S:1:pos:R:3:Z:I:1 energy=-302.9727002984491 field_type=dipole dipole="0.000000 0.000000 0.000000" charge=0
C	-2.188602	0.120767	0.361465	6
C	-0.851112	0.141737	0.256305	6
C	-0.011042	1.390777	0.154725	6
N	1.148138	0.894627	-0.539185	7
C	1.267828	-0.454863	-0.438405	6
N	2.349118	-1.099743	-0.708025	7
C	0.001248	-1.094183	0.081455	6
H	-2.737602	-0.816153	0.375065	1
H	-2.765692	1.037657	0.429215	1
H	0.265878	1.751697	1.150135	1
H	-0.501392	2.185147	-0.413875	1
H	2.007178	1.427997	-0.539395	1
H	2.210718	-2.103233	-0.550675	1
H	-0.400992	-1.794863	-0.654365	1
H	0.206328	-1.587373	1.035555	1
Es	-1.564441	0.142182	-0.012169	99
Es	0.001264	-1.094107	0.081449	99
Es	2.667903	-0.957721	-0.822567	99
Es	-0.850960	0.141741	0.256298	99
Es	2.247172	-1.707417	-0.607998	99
Es	2.010665	-0.835460	-0.330934	99
Es	2.348657	-1.099876	-0.707862	99
Es	1.233249	0.345802	-0.394035	99
Es	0.668285	1.124371	-0.224790	99
Es	0.172409	1.634066	0.834825	99
Es	0.139944	-1.417004	0.715650	99
Es	-0.010925	1.390675	0.154656	99
Es	-1.507550	0.126468	0.641822	99
Es	-2.188687	0.120769	0.361488	99
Es	-0.349209	1.931074	-0.224313	99
Es	1.652746	1.212714	-0.522868	99
Es	-2.583637	0.741164	0.408372	99
Es	-0.268349	-1.559312	-0.406287	99
Es	-2.563560	-0.512757	0.372627	99
Es	0.630272	-0.785550	-0.183520	99
Es	1.836639	-0.891625	-0.869501	99
Es	1.062413	0.771007	-0.815754	99
Es	1.267718	-0.454712	-0.438405	99
Es	-0.443723	-0.491464	0.183698	99
Es	1.148252	0.894443	-0.538676	99
Es	-0.441754	0.777031	0.216434	99
41
Properties=species:S:1:pos:R:3:Z:I:1 energy=-302.9727002984491 field_type=dipole dipole="0.000000 0.000000 0.000000" charge=0
C	-2.188602	0.120767	0.361465	6
C	-0.851112	0.141737	0.256305	6
C	-0.011042	1.390777	0.154725	6
N	1.148138	0.894627	-0.539185	7
C	1.267828	-0.454863	-0.438405	6
N	2.349118	-1.099743	-0.708025	7
C	0.001248	-1.094183	0.081455	6
H	-2.737602	-0.816153	0.375065	1
H	-2.765692	1.037657	0.429215	1
H	0.265878	1.751697	1.150135	1
H	-0.501392	2.185147	-0.413875	1
H	2.007178	1.427997	-0.539395	1
H	2.210718	-2.103233	-0.550675	1
H	-0.400992	-1.794863	-0.654365	1
H	0.206328	-1.587373	1.035555	1
Es	1.652481	1.212560	-0.522332	99
Es	-0.010925	1.390680	0.154659	99
Es	1.233590	0.345701	-0.394593	99
Es	-1.507532	0.126511	0.641656	99
Es	-0.268309	-1.559344	-0.406273	99
Es	2.011321	-0.835871	-0.330646	99
Es	0.668179	1.124078	-0.224349	99
Es	-0.349187	1.931078	-0.224308	99
Es	2.247397	-1.707535	-0.608369	99
Es	-0.441753	0.777099	0.216426	99
Es	-2.188688	0.120767	0.361489	99
Es	1.267720	-0.454711	-0.438405	99
Es	0.139954	-1.416979	0.715625	99
Es	-1.564450	0.142176	-0.012031	99
Es	1.836162	-0.891141	-0.869086	99
Es	-2.563547	-0.512781	0.372651	99
Es	0.630217	-0.785604	-0.183518	99
Es	-2.583646	0.741181	0.408352	99
Es	-0.443801	-0.491514	0.183706	99
Es	1.148226	0.894505	-0.538785	99
Es	2.667475	-0.957659	-0.822850	99
Es	0.172397	1.634053	0.834830	99
Es	-0.850956	0.141738	0.256298	99
Es	0.001264	-1.094107	0.081448	99
Es	1.062538	0.771503	-0.816088	99
Es	2.348666	-1.099879	-0.707867	99
