42
Properties=species:S:1:pos:R:3:Z:I:1 energy=-286.96296779328367 field_type=dipole dipole="0.000000 0.000000 0.000000" charge=0
C	-0.026581	-2.211849	-0.387975	6
C	-0.655931	-0.991449	0.264115	6
C	0.285959	0.174561	0.268455	6
C	0.384769	1.080840	-0.929305	6
C	-0.260621	1.584261	0.340885	6
C	0.428239	2.560561	1.138115	6
N	0.984359	3.349041	1.781935	7
H	-0.723301	-3.055540	-0.371095	1
H	0.886459	-2.510809	0.137425	1
H	0.238929	-2.006719	-1.430255	1
H	-0.926551	-1.232479	1.298345	1
H	-1.585351	-0.741769	-0.261275	1
H	1.200079	-0.045629	0.812125	1
H	-0.258751	0.891421	-1.781415	1
H	1.367579	1.452991	-1.200495	1
H	-1.339291	1.702571	0.320415	1
Es	1.160478	3.598598	1.986807	99
Es	0.152287	-2.067100	-1.098199	99
Es	0.853414	3.122367	1.238572	99
Es	0.458429	3.083728	1.597502	99
Es	1.042672	1.336777	-1.103500	99
Es	-0.191287	-0.385530	0.258655	99
Es	0.428072	2.560318	1.137916	99
Es	0.984153	3.348745	1.781695	99
Es	-0.334527	-1.595609	-0.063056	99
Es	0.904170	0.038581	0.634052	99
Es	-0.058511	0.953055	-1.495241	99
Es	0.105436	2.097196	0.757480	99
Es	0.285891	0.174762	0.268394	99
Es	0.595793	-2.410276	-0.025994	99
Es	-0.039280	0.904820	0.500211	99
Es	0.418610	0.492865	-0.437419	99
Es	0.384691	1.080854	-0.929108	99
Es	0.889414	2.766346	1.633189	99
Es	-1.288852	-0.811186	-0.099863	99
Es	-0.836966	-1.153543	0.970406	99
Es	-0.502987	-2.783868	-0.374807	99
Es	-0.260441	1.584249	0.340866	99
Es	-0.655891	-0.991437	0.264095	99
Es	-0.972439	1.668837	0.335938	99
Es	-0.026594	-2.211821	-0.387960	99
Es	0.035548	1.524268	-0.335835	99
42
Properties=species:S:1:pos:R:3:Z:I:1 energy=-286.96296779328367 field_type=dipole dipole="0.000000 0.000000 0.000000" charge=0
C	-0.026581	-2.211849	-0.387975	6
C	-0.655931	-0.991449	0.264115	6
C	0.285959	0.174561	0.268455	6
C	0.384769	1.080840	-0.929305	6
C	-0.260621	1.584261	0.340885	6
C	0.428239	2.560561	1.138115	6
N	0.984359	3.349041	1.781935	7
H	-0.723301	-3.055540	-0.371095	1
H	0.886459	-2.510809	0.137425	1
H	0.238929	-2.006719	-1.430255	1
H	-0.926551	-1.232479	1.298345	1
H	-1.585351	-0.741769	-0.261275	1
H	1.200079	-0.045629	0.812125	1
H	-0.258751	0.891421	-1.781415	1
H	1.367579	1.452991	-1.200495	1
H	-1.339291	1.702571	0.320415	1
Es	-1.288816	-0.811181	-0.099833	99
Es	0.035529	1.524121	-0.335940	99
Es	0.384692	1.080854	-0.929111	99
Es	0.105004	2.097469	0.757142	99
Es	0.428071	2.560321	1.137918	99
Es	-0.334554	-1.595604	-0.063047	99
Es	0.477528	3.022140	1.662012	99
Es	0.152289	-2.067144	-1.098200	99
Es	-0.502938	-2.783855	-0.374810	99
Es	0.984145	3.348735	1.781686	99
Es	-0.039397	0.904979	0.501007	99
Es	1.042445	1.336901	-1.103495	99
Es	0.945390	2.776874	1.562011	99
Es	-0.058400	0.953176	-1.495214	99
Es	-0.260436	1.584242	0.340856	99
Es	0.778271	3.173972	1.245482	99
Es	1.160709	3.597855	1.986720	99
Es	-0.655890	-0.991436	0.264095	99
Es	-0.836995	-1.153512	0.970397	99
Es	-0.191224	-0.385525	0.258774	99
Es	0.418844	0.492539	-0.437794	99
Es	0.595773	-2.410303	-0.026026	99
Es	-0.972156	1.668906	0.335944	99
Es	-0.026594	-2.211821	-0.387960	99
Es	0.285898	0.174740	0.268399	99
Es	0.904092	0.038550	0.633781	99
42
Properties=species:S:1:pos:R:3:Z:I:1 energy=-286.96296779328367 field_type=dipole dipole="0.000000 0.000000 0.000000" charge=0
C	-0.026581	-2.211849	-0.387975	6
C	-0.655931	-0.991449	0.264115	6
C	0.285959	0.174561	0.268455	6
C	0.384769	1.080840	-0.929305	6
C	-0.260621	1.584261	0.340885	6
C	0.428239	2.560561	1.138115	6
N	0.984359	3.349041	1.781935	7
H	-0.723301	-3.055540	-0.371095	1
H	0.886459	-2.510809	0.137425	1
H	0.238929	-2.006719	-1.430255	1
H	-0.926551	-1.232479	1.298345	1
H	-1.585351	-0.741769	-0.261275	1
H	1.200079	-0.045629	0.812125	1
H	-0.258751	0.891421	-1.781415	1
H	1.367579	1.452991	-1.200495	1
H	-1.339291	1.702571	0.320415	1
Es	0.152280	-2.067227	-1.098173	99
Es	0.105052	2.097001	0.757259	99
Es	-0.655892	-0.991438	0.264096	99
Es	-0.837007	-1.153516	0.970380	99
Es	0.984145	3.348735	1.781686	99
Es	-0.260441	1.584246	0.340867	99
Es	0.904036	0.038565	0.633847	99
Es	0.035497	1.524342	-0.336172	99
Es	0.428068	2.560315	1.137924	99
Es	-0.191144	-0.385566	0.258719	99
Es	-0.334595	-1.595556	-0.063116	99
Es	0.827414	2.773148	1.687453	99
Es	1.042290	1.336898	-1.103546	99
Es	0.462300	3.133110	1.534110	99
Es	0.595774	-2.410321	-0.026052	99
Es	0.418991	0.492375	-0.437729	99
Es	0.911972	3.065980	1.248774	99
Es	-0.058251	0.953196	-1.495135	99
Es	0.384690	1.080856	-0.929108	99
Es	1.160155	3.598946	1.985659	99
Es	0.285890	0.174759	0.268396	99
Es	-0.039546	0.904924	0.501215	99
Es	-1.288788	-0.811118	-0.099785	99
Es	-0.972131	1.669000	0.336001	99
Es	-0.026594	-2.211821	-0.387960	99
Es	-0.502884	-2.783839	-0.374814	99
42
Properties=species:S:1:pos:R:3:Z:I:1 energy=-286.96296779328367 field_type=dipole dipole="0.000000 0.000000 0.000000" charge=0
C	-0.026581	-2.211849	-0.387975	6
C	-0.655931	-0.991449	0.264115	6
C	0.285959	0.174561	0.268455	6
C	0.384769	1.080840	-0.929305	6
C	-0.260621	1.584261	0.340885	6
C	0.428239	2.560561	1.138115	6
N	0.984359	3.349041	1.781935	7
H	-0.723301	-3.055540	-0.371095	1
H	0.886459	-2.510809	0.137425	1
H	0.238929	-2.006719	-1.430255	1
H	-0.926551	-1.232479	1.298345	1
H	-1.585351	-0.741769	-0.261275	1
H	1.200079	-0.045629	0.812125	1
H	-0.258751	0.891421	-1.781415	1
H	1.367579	1.452991	-1.200495	1
H	-1.339291	1.702571	0.320415	1
Es	-0.837029	-1.153492	0.970343	99
Es	0.984204	3.348818	1.781752	99
Es	1.159903	3.597926	1.986411	99
Es	-0.026593	-2.211821	-0.387960	99
Es	0.836145	3.136941	1.237882	99
Es	-1.288811	-0.811132	-0.099847	99
Es	0.428074	2.560319	1.137917	99
Es	0.419065	0.492301	-0.437799	99
Es	-0.260441	1.584247	0.340865	99
Es	0.152292	-2.067219	-1.098134	99
Es	-0.502870	-2.783869	-0.374852	99
Es	0.905094	2.767094	1.616880	99
Es	0.595763	-2.410327	-0.026087	99
Es	0.104907	2.097046	0.756997	99
Es	0.035451	1.524758	-0.336280	99
Es	0.285891	0.174760	0.268394	99
Es	0.460570	3.068991	1.614969	99
Es	1.042230	1.336796	-1.103498	99
Es	0.903950	0.038558	0.633767	99
Es	-0.334545	-1.595535	-0.063028	99
Es	0.384690	1.080856	-0.929107	99
Es	-0.971972	1.669044	0.336050	99
Es	-0.655891	-0.991436	0.264095	99
Es	-0.191126	-0.385599	0.258768	99
Es	-0.058144	0.953192	-1.495167	99
Es	-0.039525	0.904778	0.501467	99
42
Properties=species:S:1:pos:R:3:Z:I:1 energy=-286.96296779328367 field_type=dipole dipole="0.000000 0.000000 0.000000" charge=0
C	-0.026581	-2.211849	-0.387975	6
C	-0.655931	-0.991449	0.264115	6
C	0.285959	0.174561	0.268455	6
C	0.384769	1.080840	-0.929305	6
C	-0.260621	1.584261	0.340885	6
C	0.428239	2.560561	1.138115	6
N	0.984359	3.349041	1.781935	7
H	-0.723301	-3.055540	-0.371095	1
H	0.886459	-2.510809	0.137425	1
H	0.238929	-2.006719	-1.430255	1
H	-0.926551	-1.232479	1.298345	1
H	-1.585351	-0.741769	-0.261275	1
H	1.200079	-0.045629	0.812125	1
H	-0.258751	0.891421	-1.781415	1
H	1.367579	1.452991	-1.200495	1
H	-1.339291	1.702571	0.320415	1
Es	-0.971881	1.669099	0.336130	99
Es	-0.655890	-0.991436	0.264095	99
Es	1.159796	3.598623	1.985395	99
Es	-0.260440	1.584252	0.340858	99
Es	0.984143	3.348732	1.781686	99
Es	-0.039592	0.904784	0.501697	99
Es	-0.502922	-2.783890	-0.374813	99
Es	-0.836956	-1.153453	0.970345	99
Es	0.465573	3.144736	1.517899	99
Es	0.285892	0.174759	0.268394	99
Es	0.152356	-2.067287	-1.098122	99
Es	0.595648	-2.410370	-0.026195	99
Es	-0.191091	-0.385586	0.258801	99
Es	0.104847	2.096557	0.757244	99
Es	0.419117	0.492054	-0.437948	99
Es	0.384690	1.080855	-0.929108	99
Es	1.042132	1.336763	-1.103570	99
Es	0.924042	3.051743	1.254277	99
Es	-0.026594	-2.211822	-0.387960	99
Es	0.812310	2.776293	1.698339	99
Es	-1.288816	-0.811129	-0.099693	99
Es	0.903900	0.038593	0.633655	99
Es	-0.058013	0.953234	-1.495054	99
Es	-0.334441	-1.595477	-0.063079	99
Es	0.428077	2.560310	1.137925	99
Es	0.035393	1.525057	-0.336404	99
42
Properties=species:S:1:pos:R:3:Z:I:1 energy=-286.96296779328367 field_type=dipole dipole="0.000000 0.000000 0.000000" charge=0
C	-0.026581	-2.211849	-0.387975	6
C	-0.655931	-0.991449	0.264115	6
C	0.285959	0.174561	0.268455	6
C	0.384769	1.080840	-0.929305	6
C	-0.260621	1.584261	0.340885	6
C	0.428239	2.560561	1.138115	6
N	0.984359	3.349041	1.781935	7
H	-0.723301	-3.055540	-0.371095	1
H	0.886459	-2.510809	0.137425	1
H	0.238929	-2.006719	-1.430255	1
H	-0.926551	-1.232479	1.298345	1
H	-1.585351	-0.741769	-0.261275	1
H	1.200079	-0.045629	0.812125	1
H	-0.258751	0.891421	-1.781415	1
H	1.367579	1.452991	-1.200495	1
H	-1.339291	1.702571	0.320415	1
Es	1.161426	3.596823	1.985855	99
Es	0.595724	-2.410356	-0.026154	99
Es	0.104225	2.096927	0.757154	99
Es	0.152308	-2.067273	-1.098099	99
Es	0.035471	1.525275	-0.336591	99
Es	-0.334600	-1.595615	-0.063050	99
Es	0.903773	0.038567	0.633696	99
Es	0.568331	2.908344	1.740389	99
Es	-0.057931	0.953226	-1.494998	99
Es	-0.191011	-0.385555	0.258832	99
Es	-1.288759	-0.811088	-0.099702	99
Es	-0.026593	-2.211822	-0.387960	99
Es	-0.837048	-1.153396	0.970267	99
Es	0.984161	3.348758	1.781703	99
Es	-0.971805	1.669174	0.336181	99
Es	0.384692	1.080853	-0.929119	99
Es	0.999802	2.844940	1.420831	99
Es	0.285892	0.174758	0.268394	99
Es	1.042013	1.336723	-1.103611	99
Es	-0.655891	-0.991436	0.264096	99
Es	0.419335	0.491899	-0.438012	99
Es	-0.039568	0.904759	0.502005	99
Es	-0.260441	1.584244	0.340865	99
Es	0.632519	3.220826	1.308782	99
Es	0.428066	2.560322	1.137918	99
Es	-0.502811	-2.783881	-0.374877	99
42
Properties=species:S:1:pos:R:3:Z:I:1 energy=-286.96296779328367 field_type=dipole dipole="0.000000 0.000000 0.000000" charge=0
C	-0.026581	-2.211849	-0.387975	6
C	-0.655931	-0.991449	0.264115	6
C	0.285959	0.174561	0.268455	6
C	0.384769	1.080840	-0.929305	6
C	-0.260621	1.584261	0.340885	6
C	0.428239	2.560561	1.138115	6
N	0.984359	3.349041	1.781935	7
H	-0.723301	-3.055540	-0.371095	1
H	0.886459	-2.510809	0.137425	1
H	0.238929	-2.006719	-1.430255	1
H	-0.926551	-1.232479	1.298345	1
H	-1.585351	-0.741769	-0.261275	1
H	1.200079	-0.045629	0.812125	1
H	-0.258751	0.891421	-1.781415	1
H	1.367579	1.452991	-1.200495	1
H	-1.339291	1.702571	0.320415	1
Es	0.035454	1.525536	-0.336695	99
Es	-0.334625	-1.595613	-0.063047	99
Es	1.161279	3.597262	1.985063	99
Es	0.419495	0.491699	-0.438094	99
Es	-1.288735	-0.811081	-0.099677	99
Es	-0.039599	0.904761	0.502211	99
Es	0.384690	1.080856	-0.929107	99
Es	-0.057838	0.953251	-1.494961	99
Es	0.984157	3.348752	1.781698	99
Es	-0.971722	1.669241	0.336239	99
Es	-0.655891	-0.991436	0.264096	99
Es	0.903676	0.038551	0.633670	99
Es	0.285891	0.174764	0.268393	99
Es	1.041902	1.336691	-1.103633	99
Es	0.104092	2.096827	0.757044	99
Es	0.585353	2.894484	1.745546	99
Es	1.001380	2.856931	1.404956	99
Es	-0.190989	-0.385544	0.258837	99
Es	0.595727	-2.410364	-0.026185	99
Es	-0.837066	-1.153362	0.970255	99
Es	-0.260440	1.584243	0.340864	99
Es	0.428066	2.560320	1.137919	99
Es	-0.026593	-2.211822	-0.387960	99
Es	0.614087	3.222243	1.320328	99
Es	-0.502765	-2.783882	-0.374886	99
Es	0.152297	-2.067311	-1.098080	99
