43
Properties=species:S:1:pos:R:3:Z:I:1 energy=-270.935757702631 field_type=dipole dipole="0.000000 0.000000 0.000000" charge=0
C	-2.287783	-0.123859	-0.045241	6
C	-0.833293	0.174581	0.062369	6
C	-0.243503	1.351241	-0.223091	6
C	1.246737	1.241861	-0.023401	6
C	1.478387	-0.190009	0.415519	6
C	1.169557	-1.361109	-0.482551	6
C	0.123157	-0.869279	0.479209	6
H	-2.446523	-1.129199	-0.452831	1
H	-2.793843	0.585011	-0.705261	1
H	-2.758753	-0.074909	0.942759	1
H	-0.746453	2.246941	-0.555501	1
H	1.783907	1.457241	-0.951331	1
H	1.574757	1.939401	0.753159	1
H	2.172267	-0.308719	1.234039	1
H	1.649897	-2.307319	-0.263411	1
H	1.028637	-1.179569	-1.542801	1
H	-0.117153	-1.452309	1.358369	1
Es	1.384783	0.517829	0.174289	99
Es	1.478256	-0.190124	0.415447	99
Es	-0.579238	1.965094	-0.454000	99
Es	-0.833369	0.174448	0.062412	99
Es	0.769288	-0.461091	0.589296	99
Es	1.169499	-1.360998	-0.482417	99
Es	-2.287754	-0.123857	-0.045232	99
Es	-0.585967	0.878504	0.227000	99
Es	-2.596167	-0.091226	0.624531	99
Es	1.071433	-1.234450	-1.200044	99
Es	0.504607	1.334020	-0.131979	99
Es	1.508245	-0.747277	-0.124102	99
Es	-0.243427	1.351327	-0.223128	99
Es	-0.508463	0.686276	-0.397463	99
Es	-2.388714	-0.805820	-0.320153	99
Es	1.472170	1.713781	0.506775	99
Es	-1.564287	0.023033	0.010247	99
Es	1.607298	1.392150	-0.655552	99
Es	-2.628929	0.362040	-0.490198	99
Es	1.494272	-1.999780	-0.325971	99
Es	1.246706	1.241834	-0.023398	99
Es	0.492884	-1.240278	-0.073183	99
Es	0.123302	-0.869268	0.479128	99
Es	-0.378276	-0.382121	0.258531	99
Es	1.957157	-0.280910	0.968376	99
Es	-0.048339	-1.275317	1.068521	99
43
Properties=species:S:1:pos:R:3:Z:I:1 energy=-270.935757702631 field_type=dipole dipole="0.000000 0.000000 0.000000" charge=0
C	-2.287783	-0.123859	-0.045241	6
C	-0.833293	0.174581	0.062369	6
C	-0.243503	1.351241	-0.223091	6
C	1.246737	1.241861	-0.023401	6
C	1.478387	-0.190009	0.415519	6
C	1.169557	-1.361109	-0.482551	6
C	0.123157	-0.869279	0.479209	6
H	-2.446523	-1.129199	-0.452831	1
H	-2.793843	0.585011	-0.705261	1
H	-2.758753	-0.074909	0.942759	1
H	-0.746453	2.246941	-0.555501	1
H	1.783907	1.457241	-0.951331	1
H	1.574757	1.939401	0.753159	1
H	2.172267	-0.308719	1.234039	1
H	1.649897	-2.307319	-0.263411	1
H	1.028637	-1.179569	-1.542801	1
H	-0.117153	-1.452309	1.358369	1
Es	1.478276	-0.190117	0.415434	99
Es	1.384939	0.517854	0.174304	99
Es	-0.579298	1.965039	-0.453975	99
Es	-2.628833	0.361969	-0.490286	99
Es	-1.564400	0.023064	0.010218	99
Es	-0.508399	0.686265	-0.397367	99
Es	1.472110	1.713693	0.506814	99
Es	0.768925	-0.460866	0.589682	99
Es	1.169488	-1.360997	-0.482409	99
Es	1.957080	-0.280942	0.968248	99
Es	-0.585923	0.878435	0.226899	99
Es	1.071341	-1.234481	-1.200018	99
Es	-2.596281	-0.091170	0.624600	99
Es	1.508625	-0.747287	-0.124266	99
Es	1.607368	1.392259	-0.655451	99
Es	1.246707	1.241835	-0.023398	99
Es	-0.048371	-1.275410	1.068344	99
Es	-0.243426	1.351325	-0.223131	99
Es	1.494135	-1.999802	-0.326039	99
Es	-2.287754	-0.123859	-0.045234	99
Es	0.123302	-0.869271	0.479127	99
Es	0.493123	-1.240075	-0.073194	99
Es	-0.833370	0.174444	0.062403	99
Es	0.504559	1.334055	-0.132090	99
Es	-0.378283	-0.382366	0.258650	99
Es	-2.388672	-0.805776	-0.320132	99
43
Properties=species:S:1:pos:R:3:Z:I:1 energy=-270.935757702631 field_type=dipole dipole="0.000000 0.000000 0.000000" charge=0
C	-2.287783	-0.123859	-0.045241	6
C	-0.833293	0.174581	0.062369	6
C	-0.243503	1.351241	-0.223091	6
C	1.246737	1.241861	-0.023401	6
C	1.478387	-0.190009	0.415519	6
C	1.169557	-1.361109	-0.482551	6
C	0.123157	-0.869279	0.479209	6
H	-2.446523	-1.129199	-0.452831	1
H	-2.793843	0.585011	-0.705261	1
H	-2.758753	-0.074909	0.942759	1
H	-0.746453	2.246941	-0.555501	1
H	1.783907	1.457241	-0.951331	1
H	1.574757	1.939401	0.753159	1
H	2.172267	-0.308719	1.234039	1
H	1.649897	-2.307319	-0.263411	1
H	1.028637	-1.179569	-1.542801	1
H	-0.117153	-1.452309	1.358369	1
Es	-2.388701	-0.805829	-0.320150	99
Es	-0.378219	-0.382410	0.258591	99
Es	-0.048437	-1.275388	1.068160	99
Es	1.494243	-1.999657	-0.326025	99
Es	1.478269	-0.190121	0.415437	99
Es	1.246706	1.241836	-0.023398	99
Es	-0.508494	0.686340	-0.397128	99
Es	1.957142	-0.280914	0.968070	99
Es	0.123306	-0.869265	0.479134	99
Es	-0.243432	1.351327	-0.223110	99
Es	0.769431	-0.460398	0.590121	99
Es	1.607359	1.392309	-0.655421	99
Es	1.472118	1.713659	0.506814	99
Es	-0.579279	1.964976	-0.454089	99
Es	1.508118	-0.747260	-0.124078	99
Es	-0.585892	0.878421	0.226885	99
Es	-2.287754	-0.123857	-0.045232	99
Es	-1.564455	0.023124	0.010208	99
Es	-2.628959	0.361997	-0.490180	99
Es	0.504651	1.334043	-0.132136	99
Es	-0.833365	0.174447	0.062387	99
Es	1.169499	-1.360994	-0.482414	99
Es	1.071482	-1.234531	-1.199990	99
Es	0.492836	-1.240600	-0.073515	99
Es	1.384968	0.517787	0.174267	99
Es	-2.596173	-0.091223	0.624523	99
43
Properties=species:S:1:pos:R:3:Z:I:1 energy=-270.935757702631 field_type=dipole dipole="0.000000 0.000000 0.000000" charge=0
C	-2.287783	-0.123859	-0.045241	6
C	-0.833293	0.174581	0.062369	6
C	-0.243503	1.351241	-0.223091	6
C	1.246737	1.241861	-0.023401	6
C	1.478387	-0.190009	0.415519	6
C	1.169557	-1.361109	-0.482551	6
C	0.123157	-0.869279	0.479209	6
H	-2.446523	-1.129199	-0.452831	1
H	-2.793843	0.585011	-0.705261	1
H	-2.758753	-0.074909	0.942759	1
H	-0.746453	2.246941	-0.555501	1
H	1.783907	1.457241	-0.951331	1
H	1.574757	1.939401	0.753159	1
H	2.172267	-0.308719	1.234039	1
H	1.649897	-2.307319	-0.263411	1
H	1.028637	-1.179569	-1.542801	1
H	-0.117153	-1.452309	1.358369	1
Es	-2.388669	-0.805913	-0.320143	99
Es	0.769439	-0.460997	0.589886	99
Es	1.169501	-1.360994	-0.482416	99
Es	-2.628957	0.361868	-0.490150	99
Es	-0.508458	0.686342	-0.397153	99
Es	-2.287754	-0.123857	-0.045232	99
Es	-0.833367	0.174448	0.062398	99
Es	1.071363	-1.234677	-1.199841	99
Es	-0.579347	1.964996	-0.453938	99
Es	1.384905	0.517763	0.174427	99
Es	0.504675	1.334154	-0.132051	99
Es	1.478285	-0.190115	0.415428	99
Es	1.494085	-1.999672	-0.326102	99
Es	-0.585863	0.878270	0.226558	99
Es	1.472150	1.713622	0.506757	99
Es	0.492113	-1.240410	-0.073124	99
Es	0.123301	-0.869271	0.479125	99
Es	-0.243425	1.351327	-0.223128	99
Es	-1.564549	0.023339	0.010232	99
Es	-2.596192	-0.091124	0.624546	99
Es	1.957149	-0.280888	0.967901	99
Es	-0.378100	-0.382436	0.258761	99
Es	1.509053	-0.746807	-0.124308	99
Es	1.607385	1.392301	-0.655417	99
Es	-0.048459	-1.275286	1.068115	99
Es	1.246706	1.241836	-0.023398	99
43
Properties=species:S:1:pos:R:3:Z:I:1 energy=-270.935757702631 field_type=dipole dipole="0.000000 0.000000 0.000000" charge=0
C	-2.287783	-0.123859	-0.045241	6
C	-0.833293	0.174581	0.062369	6
C	-0.243503	1.351241	-0.223091	6
C	1.246737	1.241861	-0.023401	6
C	1.478387	-0.190009	0.415519	6
C	1.169557	-1.361109	-0.482551	6
C	0.123157	-0.869279	0.479209	6
H	-2.446523	-1.129199	-0.452831	1
H	-2.793843	0.585011	-0.705261	1
H	-2.758753	-0.074909	0.942759	1
H	-0.746453	2.246941	-0.555501	1
H	1.783907	1.457241	-0.951331	1
H	1.574757	1.939401	0.753159	1
H	2.172267	-0.308719	1.234039	1
H	1.649897	-2.307319	-0.263411	1
H	1.028637	-1.179569	-1.542801	1
H	-0.117153	-1.452309	1.358369	1
Es	0.123308	-0.869267	0.479127	99
Es	0.492252	-1.240609	-0.073314	99
Es	-0.833366	0.174451	0.062401	99
Es	1.509300	-0.746748	-0.124043	99
Es	0.769207	-0.460805	0.590273	99
Es	-2.388650	-0.805862	-0.320092	99
Es	-0.048431	-1.275398	1.067925	99
Es	1.478275	-0.190120	0.415433	99
Es	-0.243426	1.351325	-0.223132	99
Es	-0.585843	0.878209	0.226358	99
Es	1.494080	-1.999607	-0.326255	99
Es	1.246707	1.241835	-0.023398	99
Es	-2.628983	0.361940	-0.490228	99
Es	0.504783	1.334169	-0.132123	99
Es	1.956899	-0.280816	0.967760	99
Es	-0.508489	0.686405	-0.396858	99
Es	-1.564652	0.023281	0.010211	99
Es	-0.579422	1.964961	-0.453944	99
Es	1.607371	1.392295	-0.655348	99
Es	1.169498	-1.360993	-0.482414	99
Es	-2.287756	-0.123858	-0.045232	99
Es	-2.596183	-0.091184	0.624503	99
Es	1.071370	-1.234635	-1.199762	99
Es	1.385091	0.517758	0.174353	99
Es	1.472137	1.713667	0.506748	99
Es	-0.378109	-0.382577	0.258782	99
43
Properties=species:S:1:pos:R:3:Z:I:1 energy=-270.935757702631 field_type=dipole dipole="0.000000 0.000000 0.000000" charge=0
C	-2.287783	-0.123859	-0.045241	6
C	-0.833293	0.174581	0.062369	6
C	-0.243503	1.351241	-0.223091	6
C	1.246737	1.241861	-0.023401	6
C	1.478387	-0.190009	0.415519	6
C	1.169557	-1.361109	-0.482551	6
C	0.123157	-0.869279	0.479209	6
H	-2.446523	-1.129199	-0.452831	1
H	-2.793843	0.585011	-0.705261	1
H	-2.758753	-0.074909	0.942759	1
H	-0.746453	2.246941	-0.555501	1
H	1.783907	1.457241	-0.951331	1
H	1.574757	1.939401	0.753159	1
H	2.172267	-0.308719	1.234039	1
H	1.649897	-2.307319	-0.263411	1
H	1.028637	-1.179569	-1.542801	1
H	-0.117153	-1.452309	1.358369	1
Es	-2.388733	-0.805867	-0.320107	99
Es	-0.508452	0.686436	-0.396815	99
Es	0.123305	-0.869267	0.479129	99
Es	1.385175	0.517785	0.174408	99
Es	1.478270	-0.190121	0.415436	99
Es	0.769578	-0.460696	0.590324	99
Es	1.494020	-1.999561	-0.326245	99
Es	1.472112	1.713591	0.506708	99
Es	-0.833368	0.174446	0.062402	99
Es	-0.243429	1.351326	-0.223127	99
Es	1.607468	1.392290	-0.655451	99
Es	1.246708	1.241838	-0.023400	99
Es	1.509347	-0.746677	-0.124027	99
Es	-0.585879	0.878135	0.226195	99
Es	1.071483	-1.234711	-1.199691	99
Es	1.169498	-1.360992	-0.482412	99
Es	-2.287755	-0.123857	-0.045231	99
Es	-0.048536	-1.275217	1.067854	99
Es	-2.628954	0.361917	-0.490175	99
Es	-0.377903	-0.382542	0.258926	99
Es	0.491581	-1.240873	-0.073410	99
Es	0.504798	1.334179	-0.132008	99
Es	-2.596168	-0.091131	0.624538	99
Es	-1.564669	0.023289	0.010215	99
Es	-0.579441	1.964937	-0.453966	99
Es	1.956912	-0.280838	0.967662	99
43
Properties=species:S:1:pos:R:3:Z:I:1 energy=-270.935757702631 field_type=dipole dipole="0.000000 0.000000 0.000000" charge=0
C	-2.287783	-0.123859	-0.045241	6
C	-0.833293	0.174581	0.062369	6
C	-0.243503	1.351241	-0.223091	6
C	1.246737	1.241861	-0.023401	6
C	1.478387	-0.190009	0.415519	6
C	1.169557	-1.361109	-0.482551	6
C	0.123157	-0.869279	0.479209	6
H	-2.446523	-1.129199	-0.452831	1
H	-2.793843	0.585011	-0.705261	1
H	-2.758753	-0.074909	0.942759	1
H	-0.746453	2.246941	-0.555501	1
H	1.783907	1.457241	-0.951331	1
H	1.574757	1.939401	0.753159	1
H	2.172267	-0.308719	1.234039	1
H	1.649897	-2.307319	-0.263411	1
H	1.028637	-1.179569	-1.542801	1
H	-0.117153	-1.452309	1.358369	1
Es	1.956882	-0.280778	0.967546	99
Es	0.123313	-0.869268	0.479123	99
Es	1.493994	-1.999480	-0.326244	99
Es	-0.833368	0.174449	0.062406	99
Es	-2.388701	-0.805848	-0.320132	99
Es	1.071544	-1.234802	-1.199634	99
Es	1.246707	1.241834	-0.023398	99
Es	-2.287754	-0.123857	-0.045231	99
Es	1.509708	-0.746525	-0.124136	99
Es	-0.585764	0.878060	0.226080	99
Es	1.478271	-0.190120	0.415436	99
Es	-0.243427	1.351325	-0.223128	99
Es	-2.596155	-0.091198	0.624519	99
Es	0.769178	-0.460647	0.590719	99
Es	-0.579518	1.964902	-0.453925	99
Es	1.472173	1.713719	0.506638	99
Es	-0.377888	-0.382771	0.258770	99
Es	-2.628994	0.361961	-0.490165	99
Es	1.607335	1.392258	-0.655300	99
Es	-0.508538	0.686496	-0.396618	99
Es	-0.048630	-1.275301	1.067633	99
Es	0.504896	1.334243	-0.132108	99
Es	-1.564753	0.023348	0.010245	99
Es	1.385254	0.517597	0.174462	99
Es	1.169499	-1.360993	-0.482413	99
Es	0.491702	-1.240785	-0.073414	99
43
Properties=species:S:1:pos:R:3:Z:I:1 energy=-270.935757702631 field_type=dipole dipole="0.000000 0.000000 0.000000" charge=0
C	-2.287783	-0.123859	-0.045241	6
C	-0.833293	0.174581	0.062369	6
C	-0.243503	1.351241	-0.223091	6
C	1.246737	1.241861	-0.023401	6
C	1.478387	-0.190009	0.415519	6
C	1.169557	-1.361109	-0.482551	6
C	0.123157	-0.869279	0.479209	6
H	-2.446523	-1.129199	-0.452831	1
H	-2.793843	0.585011	-0.705261	1
H	-2.758753	-0.074909	0.942759	1
H	-0.746453	2.246941	-0.555501	1
H	1.783907	1.457241	-0.951331	1
H	1.574757	1.939401	0.753159	1
H	2.172267	-0.308719	1.234039	1
H	1.649897	-2.307319	-0.263411	1
H	1.028637	-1.179569	-1.542801	1
H	-0.117153	-1.452309	1.358369	1
Es	0.504967	1.334166	-0.132170	99
Es	-0.048633	-1.275210	1.067566	99
Es	1.607404	1.392399	-0.655284	99
Es	0.123316	-0.869265	0.479127	99
Es	-0.585780	0.878008	0.225954	99
Es	1.472057	1.713637	0.506718	99
Es	1.246707	1.241838	-0.023399	99
Es	-1.564787	0.023386	0.010217	99
Es	1.169496	-1.360989	-0.482409	99
Es	1.509581	-0.746446	-0.123918	99
Es	1.478277	-0.190128	0.415423	99
Es	1.956870	-0.280810	0.967417	99
Es	0.491306	-1.241153	-0.073546	99
Es	1.385439	0.517608	0.174346	99
Es	1.071517	-1.234816	-1.199578	99
Es	-0.833368	0.174447	0.062402	99
Es	-0.377815	-0.382780	0.258912	99
Es	-0.508542	0.686539	-0.396481	99
Es	1.493954	-1.999440	-0.326331	99
Es	-2.628948	0.361930	-0.490121	99
Es	-2.287755	-0.123857	-0.045233	99
Es	-2.596175	-0.091154	0.624523	99
Es	-0.243427	1.351324	-0.223127	99
Es	-2.388738	-0.805877	-0.320162	99
Es	0.769601	-0.460414	0.590831	99
Es	-0.579555	1.964875	-0.453945	99
43
Properties=species:S:1:pos:R:3:Z:I:1 energy=-270.935757702631 field_type=dipole dipole="0.000000 0.000000 0.000000" charge=0
C	-2.287783	-0.123859	-0.045241	6
C	-0.833293	0.174581	0.062369	6
C	-0.243503	1.351241	-0.223091	6
C	1.246737	1.241861	-0.023401	6
C	1.478387	-0.190009	0.415519	6
C	1.169557	-1.361109	-0.482551	6
C	0.123157	-0.869279	0.479209	6
H	-2.446523	-1.129199	-0.452831	1
H	-2.793843	0.585011	-0.705261	1
H	-2.758753	-0.074909	0.942759	1
H	-0.746453	2.246941	-0.555501	1
H	1.783907	1.457241	-0.951331	1
H	1.574757	1.939401	0.753159	1
H	2.172267	-0.308719	1.234039	1
H	1.649897	-2.307319	-0.263411	1
H	1.028637	-1.179569	-1.542801	1
H	-0.117153	-1.452309	1.358369	1
Es	-0.508558	0.686556	-0.396328	99
Es	-1.564919	0.023561	0.010354	99
Es	1.510009	-0.746500	-0.124157	99
Es	1.246707	1.241835	-0.023399	99
Es	-0.833367	0.174449	0.062396	99
Es	-2.287754	-0.123856	-0.045232	99
Es	0.505060	1.334237	-0.132097	99
Es	-0.243428	1.351320	-0.223132	99
Es	1.607364	1.392294	-0.655331	99
Es	-2.596166	-0.091277	0.624476	99
Es	-2.629004	0.361999	-0.490063	99
Es	1.472149	1.713690	0.506641	99
Es	1.385456	0.517511	0.174357	99
Es	-0.585694	0.877870	0.225594	99
Es	1.169498	-1.360992	-0.482412	99
Es	1.493846	-1.999454	-0.326353	99
Es	1.478268	-0.190124	0.415434	99
Es	0.491153	-1.241001	-0.073448	99
Es	-0.579619	1.964853	-0.453939	99
Es	-0.048634	-1.275104	1.067418	99
Es	1.071481	-1.234914	-1.199490	99
Es	0.769305	-0.460483	0.591259	99
Es	1.956925	-0.280711	0.967124	99
Es	-2.388691	-0.805859	-0.320240	99
Es	0.123303	-0.869274	0.479121	99
Es	-0.377722	-0.382808	0.259177	99
43
Properties=species:S:1:pos:R:3:Z:I:1 energy=-270.935757702631 field_type=dipole dipole="0.000000 0.000000 0.000000" charge=0
C	-2.287783	-0.123859	-0.045241	6
C	-0.833293	0.174581	0.062369	6
C	-0.243503	1.351241	-0.223091	6
C	1.246737	1.241861	-0.023401	6
C	1.478387	-0.190009	0.415519	6
C	1.169557	-1.361109	-0.482551	6
C	0.123157	-0.869279	0.479209	6
H	-2.446523	-1.129199	-0.452831	1
H	-2.793843	0.585011	-0.705261	1
H	-2.758753	-0.074909	0.942759	1
H	-0.746453	2.246941	-0.555501	1
H	1.783907	1.457241	-0.951331	1
H	1.574757	1.939401	0.753159	1
H	2.172267	-0.308719	1.234039	1
H	1.649897	-2.307319	-0.263411	1
H	1.028637	-1.179569	-1.542801	1
H	-0.117153	-1.452309	1.358369	1
Es	1.071449	-1.234985	-1.199450	99
Es	1.472144	1.713694	0.506569	99
Es	-0.833365	0.174448	0.062399	99
Es	-1.564940	0.023496	0.010223	99
Es	-0.243427	1.351324	-0.223126	99
Es	-2.628983	0.361915	-0.490161	99
Es	1.246707	1.241835	-0.023399	99
Es	1.478271	-0.190120	0.415436	99
Es	1.607288	1.392360	-0.655324	99
Es	-2.596166	-0.091143	0.624521	99
Es	-2.388710	-0.805878	-0.320117	99
Es	-0.377728	-0.382949	0.258985	99
Es	1.956807	-0.280675	0.967141	99
Es	-0.579666	1.964806	-0.453926	99
Es	-0.585696	0.877859	0.225631	99
Es	1.385556	0.517522	0.174405	99
Es	-0.048699	-1.275132	1.067308	99
Es	-2.287755	-0.123856	-0.045229	99
Es	1.510204	-0.746194	-0.124055	99
Es	0.490964	-1.241202	-0.073416	99
Es	0.505072	1.334233	-0.132020	99
Es	0.123317	-0.869264	0.479125	99
Es	1.493924	-1.999344	-0.326384	99
Es	1.169500	-1.360999	-0.482416	99
Es	0.769446	-0.460514	0.591231	99
Es	-0.508549	0.686578	-0.396218	99
43
Properties=species:S:1:pos:R:3:Z:I:1 energy=-270.935757702631 field_type=dipole dipole="0.000000 0.000000 0.000000" charge=0
C	-2.287783	-0.123859	-0.045241	6
C	-0.833293	0.174581	0.062369	6
C	-0.243503	1.351241	-0.223091	6
C	1.246737	1.241861	-0.023401	6
C	1.478387	-0.190009	0.415519	6
C	1.169557	-1.361109	-0.482551	6
C	0.123157	-0.869279	0.479209	6
H	-2.446523	-1.129199	-0.452831	1
H	-2.793843	0.585011	-0.705261	1
H	-2.758753	-0.074909	0.942759	1
H	-0.746453	2.246941	-0.555501	1
H	1.783907	1.457241	-0.951331	1
H	1.574757	1.939401	0.753159	1
H	2.172267	-0.308719	1.234039	1
H	1.649897	-2.307319	-0.263411	1
H	1.028637	-1.179569	-1.542801	1
H	-0.117153	-1.452309	1.358369	1
Es	0.505073	1.334285	-0.132026	99
Es	1.956728	-0.280699	0.967030	99
Es	1.510282	-0.746118	-0.123957	99
Es	1.246707	1.241835	-0.023400	99
Es	-0.243427	1.351324	-0.223120	99
Es	-0.377681	-0.383125	0.258948	99
Es	-0.048732	-1.275158	1.067166	99
Es	1.472178	1.713685	0.506571	99
Es	1.607324	1.392323	-0.655266	99
Es	-2.388666	-0.805845	-0.320040	99
Es	-0.508514	0.686622	-0.396081	99
Es	1.071576	-1.234963	-1.199384	99
Es	-2.628989	0.361870	-0.490253	99
Es	0.123317	-0.869265	0.479125	99
Es	-0.579704	1.964804	-0.453955	99
Es	-0.833366	0.174451	0.062399	99
Es	-2.596239	-0.091139	0.624486	99
Es	-1.564956	0.023549	0.010301	99
Es	1.478283	-0.190107	0.415439	99
Es	-0.585719	0.877781	0.225479	99
Es	1.169497	-1.360991	-0.482411	99
Es	1.493842	-1.999319	-0.326443	99
Es	-2.287754	-0.123856	-0.045231	99
Es	0.490913	-1.241361	-0.073615	99
Es	1.385593	0.517530	0.174480	99
Es	0.769403	-0.460295	0.591492	99
43
Properties=species:S:1:pos:R:3:Z:I:1 energy=-270.935757702631 field_type=dipole dipole="0.000000 0.000000 0.000000" charge=0
C	-2.287783	-0.123859	-0.045241	6
C	-0.833293	0.174581	0.062369	6
C	-0.243503	1.351241	-0.223091	6
C	1.246737	1.241861	-0.023401	6
C	1.478387	-0.190009	0.415519	6
C	1.169557	-1.361109	-0.482551	6
C	0.123157	-0.869279	0.479209	6
H	-2.446523	-1.129199	-0.452831	1
H	-2.793843	0.585011	-0.705261	1
H	-2.758753	-0.074909	0.942759	1
H	-0.746453	2.246941	-0.555501	1
H	1.783907	1.457241	-0.951331	1
H	1.574757	1.939401	0.753159	1
H	2.172267	-0.308719	1.234039	1
H	1.649897	-2.307319	-0.263411	1
H	1.028637	-1.179569	-1.542801	1
H	-0.117153	-1.452309	1.358369	1
Es	-2.287755	-0.123856	-0.045231	99
Es	-0.048785	-1.275148	1.067024	99
Es	1.472162	1.713712	0.506522	99
Es	1.478270	-0.190123	0.415434	99
Es	-1.565083	0.023583	0.010217	99
Es	-0.508601	0.686639	-0.395946	99
Es	1.169500	-1.360995	-0.482417	99
Es	1.493827	-1.999328	-0.326447	99
Es	-0.579728	1.964750	-0.453932	99
Es	1.607307	1.392329	-0.655274	99
Es	0.123314	-0.869275	0.479114	99
Es	-2.388717	-0.805877	-0.320186	99
Es	-0.585650	0.877741	0.225370	99
Es	-0.377598	-0.383159	0.258960	99
Es	0.769527	-0.460428	0.591498	99
Es	1.510542	-0.745896	-0.123915	99
Es	1.071544	-1.234994	-1.199355	99
Es	-2.596148	-0.091180	0.624545	99
Es	-2.628986	0.361931	-0.490089	99
Es	-0.243427	1.351321	-0.223127	99
Es	1.246707	1.241836	-0.023399	99
Es	1.385645	0.517475	0.174529	99
Es	0.490581	-1.241327	-0.073491	99
Es	-0.833362	0.174448	0.062399	99
Es	1.956701	-0.280702	0.966958	99
Es	0.505179	1.334341	-0.132029	99
43
Properties=species:S:1:pos:R:3:Z:I:1 energy=-270.935757702631 field_type=dipole dipole="0.000000 0.000000 0.000000" charge=0
C	-2.287783	-0.123859	-0.045241	6
C	-0.833293	0.174581	0.062369	6
C	-0.243503	1.351241	-0.223091	6
C	1.246737	1.241861	-0.023401	6
C	1.478387	-0.190009	0.415519	6
C	1.169557	-1.361109	-0.482551	6
C	0.123157	-0.869279	0.479209	6
H	-2.446523	-1.129199	-0.452831	1
H	-2.793843	0.585011	-0.705261	1
H	-2.758753	-0.074909	0.942759	1
H	-0.746453	2.246941	-0.555501	1
H	1.783907	1.457241	-0.951331	1
H	1.574757	1.939401	0.753159	1
H	2.172267	-0.308719	1.234039	1
H	1.649897	-2.307319	-0.263411	1
H	1.028637	-1.179569	-1.542801	1
H	-0.117153	-1.452309	1.358369	1
Es	-0.585602	0.877822	0.225496	99
Es	-0.377576	-0.383200	0.258937	99
Es	1.385753	0.517446	0.174425	99
Es	1.607257	1.392386	-0.655265	99
Es	-0.579703	1.964757	-0.454069	99
Es	-2.388743	-0.805914	-0.320155	99
Es	-1.565062	0.023595	0.010084	99
Es	-0.048764	-1.275121	1.066929	99
Es	1.478259	-0.190135	0.415432	99
Es	0.490674	-1.241414	-0.073641	99
Es	0.505261	1.334169	-0.132100	99
Es	1.246707	1.241838	-0.023398	99
Es	-2.287755	-0.123856	-0.045232	99
Es	-0.833366	0.174449	0.062398	99
Es	1.493762	-1.999261	-0.326522	99
Es	1.472161	1.713711	0.506544	99
Es	-2.628899	0.361819	-0.490115	99
Es	0.769336	-0.460232	0.591947	99
Es	1.956693	-0.280661	0.966763	99
Es	1.071588	-1.235055	-1.199260	99
Es	1.510612	-0.746071	-0.124004	99
Es	-0.243427	1.351314	-0.223139	99
Es	-2.596229	-0.091045	0.624561	99
Es	1.169486	-1.360991	-0.482405	99
Es	-0.508768	0.686736	-0.395604	99
Es	0.123313	-0.869267	0.479124	99
43
Properties=species:S:1:pos:R:3:Z:I:1 energy=-270.935757702631 field_type=dipole dipole="0.000000 0.000000 0.000000" charge=0
C	-2.287783	-0.123859	-0.045241	6
C	-0.833293	0.174581	0.062369	6
C	-0.243503	1.351241	-0.223091	6
C	1.246737	1.241861	-0.023401	6
C	1.478387	-0.190009	0.415519	6
C	1.169557	-1.361109	-0.482551	6
C	0.123157	-0.869279	0.479209	6
H	-2.446523	-1.129199	-0.452831	1
H	-2.793843	0.585011	-0.705261	1
H	-2.758753	-0.074909	0.942759	1
H	-0.746453	2.246941	-0.555501	1
H	1.783907	1.457241	-0.951331	1
H	1.574757	1.939401	0.753159	1
H	2.172267	-0.308719	1.234039	1
H	1.649897	-2.307319	-0.263411	1
H	1.028637	-1.179569	-1.542801	1
H	-0.117153	-1.452309	1.358369	1
Es	1.956611	-0.280646	0.966694	99
Es	0.490514	-1.241345	-0.073558	99
Es	-0.048829	-1.275122	1.066784	99
Es	-2.287758	-0.123855	-0.045231	99
Es	1.472191	1.713660	0.506502	99
Es	1.385831	0.517354	0.174465	99
Es	-0.508612	0.686705	-0.395707	99
Es	1.071571	-1.235123	-1.199177	99
Es	0.505326	1.334365	-0.131914	99
Es	1.493658	-1.999253	-0.326559	99
Es	-0.833365	0.174454	0.062400	99
Es	-1.565166	0.023628	0.010212	99
Es	1.246706	1.241834	-0.023399	99
Es	-2.628958	0.361830	-0.490206	99
Es	1.511006	-0.745948	-0.124094	99
Es	-2.596197	-0.091040	0.624517	99
Es	1.169499	-1.360994	-0.482413	99
Es	-2.388721	-0.805914	-0.320046	99
Es	-0.585678	0.877624	0.225044	99
Es	-0.243427	1.351319	-0.223128	99
Es	0.769231	-0.460181	0.592106	99
Es	1.607230	1.392433	-0.655272	99
Es	0.123330	-0.869260	0.479121	99
Es	-0.579786	1.964703	-0.453918	99
Es	1.478263	-0.190128	0.415434	99
Es	-0.377500	-0.383283	0.259075	99
43
Properties=species:S:1:pos:R:3:Z:I:1 energy=-270.935757702631 field_type=dipole dipole="0.000000 0.000000 0.000000" charge=0
C	-2.287783	-0.123859	-0.045241	6
C	-0.833293	0.174581	0.062369	6
C	-0.243503	1.351241	-0.223091	6
C	1.246737	1.241861	-0.023401	6
C	1.478387	-0.190009	0.415519	6
C	1.169557	-1.361109	-0.482551	6
C	0.123157	-0.869279	0.479209	6
H	-2.446523	-1.129199	-0.452831	1
H	-2.793843	0.585011	-0.705261	1
H	-2.758753	-0.074909	0.942759	1
H	-0.746453	2.246941	-0.555501	1
H	1.783907	1.457241	-0.951331	1
H	1.574757	1.939401	0.753159	1
H	2.172267	-0.308719	1.234039	1
H	1.649897	-2.307319	-0.263411	1
H	1.028637	-1.179569	-1.542801	1
H	-0.117153	-1.452309	1.358369	1
Es	-0.585619	0.877554	0.224918	99
Es	-2.596210	-0.091124	0.624560	99
Es	-0.377432	-0.383362	0.259143	99
Es	1.472059	1.713705	0.506473	99
Es	-1.565250	0.023678	0.010184	99
Es	0.123305	-0.869255	0.479127	99
Es	1.071564	-1.235096	-1.199037	99
Es	1.607317	1.392443	-0.655217	99
Es	0.490337	-1.241324	-0.073552	99
Es	-0.048917	-1.275175	1.066670	99
Es	-2.388678	-0.805855	-0.320107	99
Es	1.493651	-1.999279	-0.326679	99
Es	1.478264	-0.190126	0.415434	99
Es	-0.508532	0.686704	-0.395563	99
Es	1.956650	-0.280651	0.966562	99
Es	1.511138	-0.745860	-0.124112	99
Es	0.505359	1.334323	-0.132030	99
Es	-0.579861	1.964696	-0.453944	99
Es	1.246706	1.241835	-0.023398	99
Es	1.169497	-1.360990	-0.482410	99
Es	-2.628973	0.361865	-0.490187	99
Es	-0.833367	0.174449	0.062398	99
Es	0.769264	-0.460168	0.592290	99
Es	-0.243427	1.351322	-0.223127	99
Es	1.385878	0.517368	0.174570	99
Es	-2.287755	-0.123858	-0.045232	99
43
Properties=species:S:1:pos:R:3:Z:I:1 energy=-270.935757702631 field_type=dipole dipole="0.000000 0.000000 0.000000" charge=0
C	-2.287783	-0.123859	-0.045241	6
C	-0.833293	0.174581	0.062369	6
C	-0.243503	1.351241	-0.223091	6
C	1.246737	1.241861	-0.023401	6
C	1.478387	-0.190009	0.415519	6
C	1.169557	-1.361109	-0.482551	6
C	0.123157	-0.869279	0.479209	6
H	-2.446523	-1.129199	-0.452831	1
H	-2.793843	0.585011	-0.705261	1
H	-2.758753	-0.074909	0.942759	1
H	-0.746453	2.246941	-0.555501	1
H	1.783907	1.457241	-0.951331	1
H	1.574757	1.939401	0.753159	1
H	2.172267	-0.308719	1.234039	1
H	1.649897	-2.307319	-0.263411	1
H	1.028637	-1.179569	-1.542801	1
H	-0.117153	-1.452309	1.358369	1
Es	1.246709	1.241835	-0.023400	99
Es	-0.048881	-1.274991	1.066641	99
Es	1.493643	-1.999170	-0.326586	99
Es	0.769433	-0.460173	0.592309	99
Es	-2.388715	-0.805949	-0.320104	99
Es	1.071669	-1.235182	-1.199096	99
Es	1.956600	-0.280625	0.966472	99
Es	-0.579897	1.964633	-0.453972	99
Es	1.607258	1.392528	-0.655209	99
Es	-0.243427	1.351320	-0.223128	99
Es	1.472066	1.713678	0.506494	99
Es	-2.628983	0.361897	-0.490149	99
Es	-1.565304	0.023738	0.010189	99
Es	-0.585589	0.877522	0.224855	99
Es	-0.377365	-0.383401	0.259132	99
Es	-2.596153	-0.091083	0.624488	99
Es	0.505506	1.334285	-0.132102	99
Es	-0.833365	0.174451	0.062397	99
Es	-0.508691	0.686829	-0.395272	99
Es	0.123318	-0.869265	0.479123	99
Es	1.511107	-0.745698	-0.123924	99
Es	1.385958	0.517286	0.174485	99
Es	-2.287755	-0.123854	-0.045232	99
Es	1.169499	-1.360993	-0.482415	99
Es	0.490057	-1.241685	-0.073701	99
Es	1.478269	-0.190115	0.415440	99
43
Properties=species:S:1:pos:R:3:Z:I:1 energy=-270.935757702631 field_type=dipole dipole="0.000000 0.000000 0.000000" charge=0
C	-2.287783	-0.123859	-0.045241	6
C	-0.833293	0.174581	0.062369	6
C	-0.243503	1.351241	-0.223091	6
C	1.246737	1.241861	-0.023401	6
C	1.478387	-0.190009	0.415519	6
C	1.169557	-1.361109	-0.482551	6
C	0.123157	-0.869279	0.479209	6
H	-2.446523	-1.129199	-0.452831	1
H	-2.793843	0.585011	-0.705261	1
H	-2.758753	-0.074909	0.942759	1
H	-0.746453	2.246941	-0.555501	1
H	1.783907	1.457241	-0.951331	1
H	1.574757	1.939401	0.753159	1
H	2.172267	-0.308719	1.234039	1
H	1.649897	-2.307319	-0.263411	1
H	1.028637	-1.179569	-1.542801	1
H	-0.117153	-1.452309	1.358369	1
Es	1.472144	1.713675	0.506425	99
Es	0.489714	-1.241802	-0.073709	99
Es	1.956527	-0.280562	0.966386	99
Es	1.511381	-0.745559	-0.123898	99
Es	-0.579938	1.964579	-0.454100	99
Es	1.071575	-1.235183	-1.199002	99
Es	-2.388734	-0.805885	-0.320117	99
Es	-0.243426	1.351315	-0.223131	99
Es	1.478257	-0.190137	0.415430	99
Es	-0.377326	-0.383483	0.259158	99
Es	0.505406	1.334325	-0.132167	99
Es	0.769618	-0.460197	0.592364	99
Es	-0.585377	0.877584	0.225079	99
Es	1.385996	0.517348	0.174511	99
Es	1.169495	-1.360985	-0.482404	99
Es	1.493646	-1.999135	-0.326717	99
Es	1.607242	1.392472	-0.655201	99
Es	-2.596235	-0.091055	0.624551	99
Es	-0.833363	0.174467	0.062394	99
Es	1.246706	1.241835	-0.023399	99
Es	-2.628937	0.361795	-0.490136	99
Es	0.123319	-0.869268	0.479120	99
Es	-0.508833	0.686792	-0.395068	99
Es	-1.565272	0.023756	0.010080	99
Es	-0.048862	-1.275015	1.066514	99
Es	-2.287755	-0.123857	-0.045230	99
43
Properties=species:S:1:pos:R:3:Z:I:1 energy=-270.935757702631 field_type=dipole dipole="0.000000 0.000000 0.000000" charge=0
C	-2.287783	-0.123859	-0.045241	6
C	-0.833293	0.174581	0.062369	6
C	-0.243503	1.351241	-0.223091	6
C	1.246737	1.241861	-0.023401	6
C	1.478387	-0.190009	0.415519	6
C	1.169557	-1.361109	-0.482551	6
C	0.123157	-0.869279	0.479209	6
H	-2.446523	-1.129199	-0.452831	1
H	-2.793843	0.585011	-0.705261	1
H	-2.758753	-0.074909	0.942759	1
H	-0.746453	2.246941	-0.555501	1
H	1.783907	1.457241	-0.951331	1
H	1.574757	1.939401	0.753159	1
H	2.172267	-0.308719	1.234039	1
H	1.649897	-2.307319	-0.263411	1
H	1.028637	-1.179569	-1.542801	1
H	-0.117153	-1.452309	1.358369	1
Es	0.123324	-0.869264	0.479120	99
Es	-1.565442	0.023796	0.010190	99
Es	1.472175	1.713688	0.506435	99
Es	-0.579959	1.964630	-0.453912	99
Es	1.511508	-0.745497	-0.123991	99
Es	-0.508679	0.686835	-0.395180	99
Es	-0.048958	-1.274980	1.066450	99
Es	-0.243425	1.351317	-0.223124	99
Es	1.956527	-0.280578	0.966248	99
Es	0.505497	1.334394	-0.131948	99
Es	-2.388694	-0.805896	-0.320151	99
Es	1.478253	-0.190134	0.415434	99
Es	-2.628984	0.361862	-0.490116	99
Es	-0.377212	-0.383519	0.259146	99
Es	-0.585536	0.877368	0.224518	99
Es	-2.596165	-0.091108	0.624587	99
Es	1.071637	-1.235311	-1.198981	99
Es	1.493572	-1.999065	-0.326658	99
Es	0.489649	-1.241794	-0.073654	99
Es	-2.287751	-0.123856	-0.045232	99
Es	-0.833365	0.174453	0.062398	99
Es	1.246708	1.241836	-0.023401	99
Es	0.769531	-0.460089	0.592599	99
Es	1.386047	0.517253	0.174522	99
Es	1.607214	1.392463	-0.655159	99
Es	1.169497	-1.360989	-0.482409	99
