39
Properties=species:S:1:pos:R:3:Z:I:1 energy=-285.7853144220794 field_type=dipole dipole="0.000000 0.000000 0.000000" charge=0
C	-1.544652	-0.600120	0.293119	6
C	-0.093882	-0.545270	-0.122621	6
C	0.483758	-1.659350	-0.610921	6
C	0.625728	0.734690	0.004179	6
C	0.155278	1.775390	0.717399	6
C	1.878819	0.914700	-0.676151	6
N	2.892138	1.072050	-1.221901	7
H	-2.127412	0.168150	-0.227271	1
H	-1.646342	-0.454500	1.373829	1
H	-2.005261	-1.565390	0.053449	1
H	-0.070312	-2.590070	-0.700991	1
H	1.521139	-1.702830	-0.931091	1
H	-0.778412	1.743140	1.266959	1
H	0.709409	2.709410	0.782009	1
Es	0.568540	1.111092	0.587635	99
Es	-1.927978	-0.075470	-0.056925	99
Es	1.180704	-1.685879	-0.825586	99
Es	1.286514	0.813691	-0.356751	99
Es	0.107843	-2.288029	-0.670746	99
Es	3.212191	1.121851	-1.394487	99
Es	0.296364	-1.157148	-0.062375	99
Es	0.155263	1.775424	0.717432	99
Es	0.284018	0.107194	-0.064447	99
Es	0.524622	2.399314	0.761526	99
Es	-1.544591	-0.600108	0.293111	99
Es	2.456170	0.694545	-1.007693	99
Es	2.281030	1.169914	-1.181364	99
Es	0.264300	1.332225	0.073447	99
Es	1.878512	0.914630	-0.675986	99
Es	-1.844108	-1.255670	0.128874	99
Es	2.891741	1.071988	-1.221687	99
Es	-0.093920	-0.545113	-0.122563	99
Es	-0.811240	-0.557693	0.089749	99
Es	-0.470931	1.749728	1.082586	99
Es	2.540545	1.139864	-0.720353	99
Es	0.114551	-0.996389	-0.663247	99
Es	0.625888	0.734624	0.004066	99
Es	0.483792	-1.659415	-0.610938	99
Es	-1.603009	-0.494179	1.021438	99
39
Properties=species:S:1:pos:R:3:Z:I:1 energy=-285.7853144220794 field_type=dipole dipole="0.000000 0.000000 0.000000" charge=0
C	-1.544652	-0.600120	0.293119	6
C	-0.093882	-0.545270	-0.122621	6
C	0.483758	-1.659350	-0.610921	6
C	0.625728	0.734690	0.004179	6
C	0.155278	1.775390	0.717399	6
C	1.878819	0.914700	-0.676151	6
N	2.892138	1.072050	-1.221901	7
H	-2.127412	0.168150	-0.227271	1
H	-1.646342	-0.454500	1.373829	1
H	-2.005261	-1.565390	0.053449	1
H	-0.070312	-2.590070	-0.700991	1
H	1.521139	-1.702830	-0.931091	1
H	-0.778412	1.743140	1.266959	1
H	0.709409	2.709410	0.782009	1
Es	-1.927929	-0.075522	-0.056897	99
Es	-1.603045	-0.494177	1.021510	99
Es	0.524347	2.399353	0.761316	99
Es	-1.844116	-1.255641	0.128803	99
Es	0.284085	0.107196	-0.064670	99
Es	0.114583	-0.996404	-0.663196	99
Es	-0.093919	-0.545113	-0.122561	99
Es	0.483792	-1.659418	-0.610943	99
Es	0.568907	1.110840	0.587860	99
Es	0.296386	-1.157065	-0.062481	99
Es	-0.811307	-0.557718	0.089777	99
Es	2.569090	0.859109	-0.738880	99
Es	-0.471054	1.749818	1.082379	99
Es	-1.544592	-0.600108	0.293111	99
Es	0.107830	-2.288018	-0.670732	99
Es	0.264265	1.332506	0.073619	99
Es	2.384966	1.306805	-0.958747	99
Es	3.212106	1.122221	-1.393936	99
Es	1.180709	-1.685912	-0.825553	99
Es	2.891743	1.071989	-1.221688	99
Es	1.878504	0.914656	-0.675993	99
Es	2.323905	0.837739	-1.212142	99
Es	1.286406	0.813805	-0.356727	99
Es	0.625891	0.734621	0.004056	99
Es	0.155259	1.775430	0.717430	99
39
Properties=species:S:1:pos:R:3:Z:I:1 energy=-285.7853144220794 field_type=dipole dipole="0.000000 0.000000 0.000000" charge=0
C	-1.544652	-0.600120	0.293119	6
C	-0.093882	-0.545270	-0.122621	6
C	0.483758	-1.659350	-0.610921	6
C	0.625728	0.734690	0.004179	6
C	0.155278	1.775390	0.717399	6
C	1.878819	0.914700	-0.676151	6
N	2.892138	1.072050	-1.221901	7
H	-2.127412	0.168150	-0.227271	1
H	-1.646342	-0.454500	1.373829	1
H	-2.005261	-1.565390	0.053449	1
H	-0.070312	-2.590070	-0.700991	1
H	1.521139	-1.702830	-0.931091	1
H	-0.778412	1.743140	1.266959	1
H	0.709409	2.709410	0.782009	1
Es	3.212048	1.121806	-1.394083	99
Es	1.286374	0.813628	-0.356748	99
Es	0.284008	0.107137	-0.064487	99
Es	0.155261	1.775431	0.717435	99
Es	2.379578	0.744406	-1.138837	99
Es	-0.093922	-0.545109	-0.122563	99
Es	0.296280	-1.157205	-0.062444	99
Es	-1.844150	-1.255644	0.128861	99
Es	-0.470936	1.749603	1.082513	99
Es	-1.603096	-0.494077	1.021495	99
Es	0.483792	-1.659425	-0.610940	99
Es	0.625888	0.734623	0.004055	99
Es	0.264395	1.332234	0.073424	99
Es	0.114630	-0.996322	-0.663192	99
Es	0.568516	1.111166	0.587664	99
Es	-1.544592	-0.600108	0.293111	99
Es	0.107879	-2.287947	-0.670825	99
Es	-0.811312	-0.557768	0.089736	99
Es	1.878499	0.914651	-0.675982	99
Es	2.891741	1.071988	-1.221687	99
Es	0.524566	2.399437	0.761552	99
Es	2.326866	1.274819	-1.070024	99
Es	1.180766	-1.685894	-0.825546	99
Es	-1.927872	-0.075564	-0.056972	99
Es	2.571603	0.985127	-0.700801	99
39
Properties=species:S:1:pos:R:3:Z:I:1 energy=-285.7853144220794 field_type=dipole dipole="0.000000 0.000000 0.000000" charge=0
C	-1.544652	-0.600120	0.293119	6
C	-0.093882	-0.545270	-0.122621	6
C	0.483758	-1.659350	-0.610921	6
C	0.625728	0.734690	0.004179	6
C	0.155278	1.775390	0.717399	6
C	1.878819	0.914700	-0.676151	6
N	2.892138	1.072050	-1.221901	7
H	-2.127412	0.168150	-0.227271	1
H	-1.646342	-0.454500	1.373829	1
H	-2.005261	-1.565390	0.053449	1
H	-0.070312	-2.590070	-0.700991	1
H	1.521139	-1.702830	-0.931091	1
H	-0.778412	1.743140	1.266959	1
H	0.709409	2.709410	0.782009	1
Es	1.878508	0.914649	-0.675984	99
Es	0.296379	-1.157095	-0.062499	99
Es	0.625892	0.734624	0.004058	99
Es	-0.093917	-0.545115	-0.122564	99
Es	2.567280	0.844415	-0.746930	99
Es	0.284080	0.107086	-0.064677	99
Es	0.155257	1.775434	0.717431	99
Es	2.891742	1.071990	-1.221687	99
Es	0.264424	1.332369	0.073437	99
Es	0.114645	-0.996431	-0.663036	99
Es	3.211578	1.122060	-1.393913	99
Es	-1.927952	-0.075460	-0.056788	99
Es	0.107779	-2.287969	-0.670761	99
Es	-1.844218	-1.255570	0.128815	99
Es	-1.544594	-0.600107	0.293114	99
Es	0.483789	-1.659411	-0.610947	99
Es	0.568559	1.111250	0.587714	99
Es	-0.470991	1.749593	1.082500	99
Es	0.524596	2.399429	0.761546	99
Es	1.286305	0.813824	-0.356764	99
Es	2.393036	1.307894	-0.944495	99
Es	1.180762	-1.685909	-0.825617	99
Es	-1.602934	-0.494240	1.021503	99
Es	2.318174	0.851413	-1.218384	99
Es	-0.811370	-0.557729	0.089644	99
39
Properties=species:S:1:pos:R:3:Z:I:1 energy=-285.7853144220794 field_type=dipole dipole="0.000000 0.000000 0.000000" charge=0
C	-1.544652	-0.600120	0.293119	6
C	-0.093882	-0.545270	-0.122621	6
C	0.483758	-1.659350	-0.610921	6
C	0.625728	0.734690	0.004179	6
C	0.155278	1.775390	0.717399	6
C	1.878819	0.914700	-0.676151	6
N	2.892138	1.072050	-1.221901	7
H	-2.127412	0.168150	-0.227271	1
H	-1.646342	-0.454500	1.373829	1
H	-2.005261	-1.565390	0.053449	1
H	-0.070312	-2.590070	-0.700991	1
H	1.521139	-1.702830	-0.931091	1
H	-0.778412	1.743140	1.266959	1
H	0.709409	2.709410	0.782009	1
Es	2.570905	0.867826	-0.733969	99
Es	1.878502	0.914651	-0.675988	99
Es	0.625895	0.734620	0.004067	99
Es	-1.603031	-0.494196	1.021460	99
Es	1.286205	0.813838	-0.356775	99
Es	0.483790	-1.659416	-0.610952	99
Es	2.380321	1.307126	-0.967319	99
Es	0.568590	1.111305	0.587642	99
Es	-1.927957	-0.075517	-0.056838	99
Es	0.524612	2.399469	0.761497	99
Es	-0.471015	1.749570	1.082500	99
Es	0.155258	1.775432	0.717431	99
Es	-1.844146	-1.255635	0.128817	99
Es	-0.093915	-0.545113	-0.122568	99
Es	0.114745	-0.996417	-0.662948	99
Es	-0.811413	-0.557712	0.089718	99
Es	2.891856	1.072008	-1.221749	99
Es	3.210958	1.121972	-1.394410	99
Es	0.284098	0.107008	-0.064613	99
Es	-1.544596	-0.600109	0.293111	99
Es	0.296343	-1.157049	-0.062615	99
Es	0.264461	1.332360	0.073507	99
Es	1.180755	-1.685880	-0.825577	99
Es	0.107773	-2.288003	-0.670798	99
Es	2.327816	0.828854	-1.207914	99
39
Properties=species:S:1:pos:R:3:Z:I:1 energy=-285.7853144220794 field_type=dipole dipole="0.000000 0.000000 0.000000" charge=0
C	-1.544652	-0.600120	0.293119	6
C	-0.093882	-0.545270	-0.122621	6
C	0.483758	-1.659350	-0.610921	6
C	0.625728	0.734690	0.004179	6
C	0.155278	1.775390	0.717399	6
C	1.878819	0.914700	-0.676151	6
N	2.892138	1.072050	-1.221901	7
H	-2.127412	0.168150	-0.227271	1
H	-1.646342	-0.454500	1.373829	1
H	-2.005261	-1.565390	0.053449	1
H	-0.070312	-2.590070	-0.700991	1
H	1.521139	-1.702830	-0.931091	1
H	-0.778412	1.743140	1.266959	1
H	0.709409	2.709410	0.782009	1
Es	0.264435	1.332322	0.073513	99
Es	2.300077	1.232160	-1.130076	99
Es	0.114812	-0.996413	-0.662909	99
Es	-1.927890	-0.075415	-0.056918	99
Es	0.155259	1.775432	0.717430	99
Es	2.561855	1.062984	-0.700527	99
Es	-0.811454	-0.557705	0.089808	99
Es	0.568548	1.111289	0.587525	99
Es	0.296225	-1.157079	-0.062685	99
Es	3.211037	1.121680	-1.393812	99
Es	0.284250	0.106874	-0.064444	99
Es	1.180783	-1.685833	-0.825549	99
Es	0.107755	-2.288029	-0.670838	99
Es	2.417073	0.709267	-1.079521	99
Es	0.483790	-1.659415	-0.610945	99
Es	-1.844147	-1.255603	0.128766	99
Es	0.524652	2.399497	0.761488	99
Es	-1.544592	-0.600108	0.293111	99
Es	2.891742	1.071988	-1.221687	99
Es	-1.603107	-0.494250	1.021443	99
Es	0.625892	0.734622	0.004063	99
Es	-0.471031	1.749551	1.082506	99
Es	-0.093918	-0.545122	-0.122565	99
Es	1.286254	0.813659	-0.356494	99
Es	1.878512	0.914641	-0.675965	99
39
Properties=species:S:1:pos:R:3:Z:I:1 energy=-285.7853144220794 field_type=dipole dipole="0.000000 0.000000 0.000000" charge=0
C	-1.544652	-0.600120	0.293119	6
C	-0.093882	-0.545270	-0.122621	6
C	0.483758	-1.659350	-0.610921	6
C	0.625728	0.734690	0.004179	6
C	0.155278	1.775390	0.717399	6
C	1.878819	0.914700	-0.676151	6
N	2.892138	1.072050	-1.221901	7
H	-2.127412	0.168150	-0.227271	1
H	-1.646342	-0.454500	1.373829	1
H	-2.005261	-1.565390	0.053449	1
H	-0.070312	-2.590070	-0.700991	1
H	1.521139	-1.702830	-0.931091	1
H	-0.778412	1.743140	1.266959	1
H	0.709409	2.709410	0.782009	1
Es	0.284286	0.106851	-0.064556	99
Es	0.483790	-1.659420	-0.610942	99
Es	-0.471150	1.749570	1.082474	99
Es	0.107757	-2.288038	-0.670731	99
Es	1.286110	0.813758	-0.356623	99
Es	-1.544592	-0.600108	0.293111	99
Es	-1.844202	-1.255607	0.128838	99
Es	2.574041	0.910842	-0.716403	99
Es	0.625889	0.734626	0.004061	99
Es	0.264628	1.332355	0.073560	99
Es	-1.927948	-0.075476	-0.056825	99
Es	3.210919	1.121597	-1.393548	99
Es	2.891742	1.071988	-1.221687	99
Es	-1.603019	-0.494211	1.021425	99
Es	2.358834	1.301191	-1.007371	99
Es	1.878508	0.914645	-0.675995	99
Es	0.296146	-1.157094	-0.063070	99
Es	1.180853	-1.685866	-0.825452	99
Es	0.114797	-0.996304	-0.662842	99
Es	2.346296	0.792225	-1.186407	99
Es	0.155259	1.775428	0.717429	99
Es	0.524696	2.399481	0.761422	99
Es	0.568576	1.111422	0.587630	99
Es	-0.093922	-0.545111	-0.122562	99
Es	-0.811483	-0.557753	0.089779	99
39
Properties=species:S:1:pos:R:3:Z:I:1 energy=-285.7853144220794 field_type=dipole dipole="0.000000 0.000000 0.000000" charge=0
C	-1.544652	-0.600120	0.293119	6
C	-0.093882	-0.545270	-0.122621	6
C	0.483758	-1.659350	-0.610921	6
C	0.625728	0.734690	0.004179	6
C	0.155278	1.775390	0.717399	6
C	1.878819	0.914700	-0.676151	6
N	2.892138	1.072050	-1.221901	7
H	-2.127412	0.168150	-0.227271	1
H	-1.646342	-0.454500	1.373829	1
H	-2.005261	-1.565390	0.053449	1
H	-0.070312	-2.590070	-0.700991	1
H	1.521139	-1.702830	-0.931091	1
H	-0.778412	1.743140	1.266959	1
H	0.709409	2.709410	0.782009	1
Es	-1.544593	-0.600107	0.293111	99
Es	2.462192	1.276481	-0.830388	99
Es	-1.603014	-0.494233	1.021438	99
Es	-0.093918	-0.545120	-0.122560	99
Es	-0.471139	1.749505	1.082611	99
Es	1.180783	-1.685782	-0.825586	99
Es	1.286245	0.814012	-0.356379	99
Es	0.155259	1.775431	0.717428	99
Es	2.891752	1.071990	-1.221693	99
Es	2.535637	0.744028	-0.837964	99
Es	0.625881	0.734628	0.004053	99
Es	2.281222	0.983688	-1.241918	99
Es	-1.927990	-0.075493	-0.056809	99
Es	0.264634	1.332356	0.073654	99
Es	-0.811574	-0.557666	0.089692	99
Es	-1.844140	-1.255640	0.128809	99
Es	0.568486	1.111555	0.587541	99
Es	0.483792	-1.659416	-0.610944	99
Es	0.114905	-0.996448	-0.662703	99
Es	0.524720	2.399512	0.761306	99
Es	3.210891	1.121353	-1.393671	99
Es	0.284260	0.106773	-0.064669	99
Es	0.107746	-2.288032	-0.670908	99
Es	1.878508	0.914648	-0.675970	99
Es	0.296265	-1.157027	-0.062766	99
39
Properties=species:S:1:pos:R:3:Z:I:1 energy=-285.7853144220794 field_type=dipole dipole="0.000000 0.000000 0.000000" charge=0
C	-1.544652	-0.600120	0.293119	6
C	-0.093882	-0.545270	-0.122621	6
C	0.483758	-1.659350	-0.610921	6
C	0.625728	0.734690	0.004179	6
C	0.155278	1.775390	0.717399	6
C	1.878819	0.914700	-0.676151	6
N	2.892138	1.072050	-1.221901	7
H	-2.127412	0.168150	-0.227271	1
H	-1.646342	-0.454500	1.373829	1
H	-2.005261	-1.565390	0.053449	1
H	-0.070312	-2.590070	-0.700991	1
H	1.521139	-1.702830	-0.931091	1
H	-0.778412	1.743140	1.266959	1
H	0.709409	2.709410	0.782009	1
Es	0.524703	2.399541	0.761444	99
Es	0.107699	-2.288015	-0.670860	99
Es	2.501007	0.703841	-0.918334	99
Es	0.264623	1.332446	0.073691	99
Es	0.155259	1.775431	0.717429	99
Es	3.210544	1.121287	-1.393775	99
Es	2.505474	1.221416	-0.766187	99
Es	-1.603044	-0.494201	1.021438	99
Es	0.625888	0.734625	0.004060	99
Es	1.286124	0.813927	-0.356419	99
Es	-1.844174	-1.255616	0.128818	99
Es	0.284238	0.106745	-0.064624	99
Es	-1.927963	-0.075526	-0.056812	99
Es	2.272887	1.079119	-1.225749	99
Es	-1.544594	-0.600107	0.293111	99
Es	-0.811582	-0.557724	0.089717	99
Es	0.114938	-0.996471	-0.662619	99
Es	0.568677	1.111466	0.587565	99
Es	1.878507	0.914650	-0.675985	99
Es	1.180805	-1.685809	-0.825623	99
Es	0.483790	-1.659414	-0.610943	99
Es	0.296304	-1.156963	-0.062869	99
Es	2.891742	1.071989	-1.221687	99
Es	-0.093918	-0.545118	-0.122566	99
Es	-0.471125	1.749477	1.082495	99
39
Properties=species:S:1:pos:R:3:Z:I:1 energy=-285.7853144220794 field_type=dipole dipole="0.000000 0.000000 0.000000" charge=0
C	-1.544652	-0.600120	0.293119	6
C	-0.093882	-0.545270	-0.122621	6
C	0.483758	-1.659350	-0.610921	6
C	0.625728	0.734690	0.004179	6
C	0.155278	1.775390	0.717399	6
C	1.878819	0.914700	-0.676151	6
N	2.892138	1.072050	-1.221901	7
H	-2.127412	0.168150	-0.227271	1
H	-1.646342	-0.454500	1.373829	1
H	-2.005261	-1.565390	0.053449	1
H	-0.070312	-2.590070	-0.700991	1
H	1.521139	-1.702830	-0.931091	1
H	-0.778412	1.743140	1.266959	1
H	0.709409	2.709410	0.782009	1
Es	-0.093919	-0.545117	-0.122570	99
Es	3.210160	1.121377	-1.393710	99
Es	2.543236	1.136943	-0.717909	99
Es	-0.811630	-0.557747	0.089689	99
Es	-1.603033	-0.494112	1.021426	99
Es	1.285895	0.813893	-0.356491	99
Es	0.155259	1.775430	0.717429	99
Es	2.281700	1.174484	-1.180328	99
Es	0.524733	2.399579	0.761454	99
Es	0.625884	0.734627	0.004056	99
Es	0.284388	0.106634	-0.064550	99
Es	0.114995	-0.996496	-0.662519	99
Es	-1.544592	-0.600107	0.293111	99
Es	2.454924	0.693048	-1.012092	99
Es	1.180797	-1.685803	-0.825637	99
Es	-1.844185	-1.255649	0.128889	99
Es	0.483795	-1.659418	-0.610945	99
Es	1.878503	0.914649	-0.675983	99
Es	0.296312	-1.156910	-0.062917	99
Es	-1.927972	-0.075602	-0.056820	99
Es	2.891733	1.071986	-1.221684	99
Es	-0.471100	1.749414	1.082545	99
Es	0.568735	1.111559	0.587512	99
Es	0.264511	1.332336	0.073661	99
Es	0.107685	-2.288003	-0.670901	99
39
Properties=species:S:1:pos:R:3:Z:I:1 energy=-285.7853144220794 field_type=dipole dipole="0.000000 0.000000 0.000000" charge=0
C	-1.544652	-0.600120	0.293119	6
C	-0.093882	-0.545270	-0.122621	6
C	0.483758	-1.659350	-0.610921	6
C	0.625728	0.734690	0.004179	6
C	0.155278	1.775390	0.717399	6
C	1.878819	0.914700	-0.676151	6
N	2.892138	1.072050	-1.221901	7
H	-2.127412	0.168150	-0.227271	1
H	-1.646342	-0.454500	1.373829	1
H	-2.005261	-1.565390	0.053449	1
H	-0.070312	-2.590070	-0.700991	1
H	1.521139	-1.702830	-0.931091	1
H	-0.778412	1.743140	1.266959	1
H	0.709409	2.709410	0.782009	1
Es	0.115022	-0.996452	-0.662577	99
Es	0.524632	2.399647	0.761391	99
Es	2.468567	1.271000	-0.820864	99
Es	2.891740	1.071987	-1.221686	99
Es	1.878503	0.914649	-0.675988	99
Es	0.483786	-1.659420	-0.610948	99
Es	0.107679	-2.288056	-0.670915	99
Es	2.531867	0.736764	-0.847846	99
Es	-0.471097	1.749353	1.082520	99
Es	-1.928060	-0.075455	-0.056833	99
Es	0.155259	1.775432	0.717430	99
Es	-1.602997	-0.494251	1.021363	99
Es	0.264682	1.332487	0.073687	99
Es	2.279105	0.996600	-1.241730	99
Es	0.296315	-1.156860	-0.063044	99
Es	1.286108	0.814016	-0.356347	99
Es	0.568705	1.111586	0.587580	99
Es	-1.844127	-1.255618	0.128889	99
Es	-1.544596	-0.600108	0.293112	99
Es	0.625878	0.734633	0.004055	99
Es	0.284325	0.106623	-0.064658	99
Es	3.210364	1.121091	-1.393551	99
Es	-0.093922	-0.545118	-0.122573	99
Es	-0.811667	-0.557759	0.089881	99
Es	1.180739	-1.685777	-0.825633	99
