17
Properties=species:S:1:pos:R:3:Z:I:1 energy=-131.95987953691113 field_type=dipole dipole="0.000000 0.000000 0.000000" charge=0
N	1.260800	0.000000	0.000000	7
C	-1.361300	0.000000	0.000000	6
C	0.100600	0.000000	0.000000	6
H	-1.750000	-0.830100	0.597400	1
H	-1.750100	-0.102200	-1.017500	1
H	-1.750000	0.932400	0.420200	1
Es	-0.589955	0.000002	-0.000013	99
Es	0.733873	0.239169	-0.194764	99
Es	1.260330	-0.000000	-0.000000	99
Es	1.627589	0.000026	0.000008	99
Es	0.100245	0.000000	-0.000000	99
Es	-1.596126	-0.067579	-0.672634	99
Es	0.733871	0.048966	0.304526	99
Es	0.733900	-0.288167	-0.109769	99
Es	-1.596073	-0.548744	0.394911	99
Es	-1.361121	0.000000	0.000000	99
Es	-1.596066	0.616371	0.277786	99
