33
Properties=species:S:1:pos:R:3:Z:I:1 energy=-230.75586901179227 field_type=dipole dipole="0.000000 0.000000 0.000000" charge=0
C	-1.213100	-0.688400	0.000000	6
C	-1.202800	0.706400	0.000100	6
C	-0.010300	-1.394800	0.000000	6
C	0.010400	1.394800	-0.000100	6
C	1.202800	-0.706300	0.000000	6
C	1.213100	0.688400	0.000000	6
H	-2.157700	-1.224400	0.000000	1
H	-2.139300	1.256400	0.000100	1
H	-0.018400	-2.480900	-0.000100	1
H	0.018400	2.480800	0.000000	1
H	2.139400	-1.256300	0.000100	1
H	2.157700	1.224500	0.000000	1
Es	-0.544806	-0.927723	0.283375	99
Es	-0.014387	-2.134931	-0.000057	99
Es	1.856101	1.054962	0.000003	99
Es	0.010399	1.394830	-0.000100	99
Es	-1.202825	0.706416	0.000100	99
Es	1.075869	-0.007945	0.283369	99
Es	-1.841707	1.079975	0.000112	99
Es	0.017298	2.134864	-0.000054	99
Es	1.202826	-0.706314	-0.000000	99
Es	-1.857504	-1.052438	-0.000001	99
Es	-1.213125	-0.688416	0.000000	99
Es	-0.544810	-0.927699	-0.283372	99
Es	-0.531054	0.935717	-0.283372	99
Es	0.603670	-1.063628	-0.000001	99
Es	1.213127	0.688414	-0.000000	99
Es	-1.222972	0.009110	0.000064	99
Es	-0.010301	-1.394830	-0.000000	99
Es	-0.531012	0.935713	0.283366	99
Es	1.075903	-0.007959	-0.283369	99
Es	1.840321	-1.082327	0.000057	99
Es	0.619352	1.054548	-0.000077	99
