17
Properties=species:S:1:pos:R:3:Z:I:1 energy=-79.25981200173598 field_type=dipole dipole="0.000000 0.000000 0.000000" charge=0
C	1.004040	-0.002950	-0.006400	6
C	2.515960	-0.007020	0.000590	6
H	0.622350	1.022400	-0.001640	1
H	0.614110	-0.519740	0.875610	1
H	0.622370	-0.508420	-0.898570	1
H	2.897650	0.502100	0.890620	1
H	2.905890	0.506090	-0.883570	1
H	2.897630	-1.032430	0.000060	1
Es	1.129373	-0.008764	0.034274	99
Es	2.568825	0.035291	-0.220945	99
Es	0.868327	0.077774	0.056954	99
Es	2.269336	0.048064	0.104660	99
Es	0.632481	0.111739	0.013236	99
Es	2.354763	-0.088196	0.206900	99
Es	2.678916	-0.180094	0.029254	99
Es	0.829669	-0.220124	-0.165251	99
Es	2.508308	0.179397	-0.085261	99
