14
Properties=species:S:1:pos:R:3:Z:I:1 energy=-78.06427871491893 field_type=dipole dipole="0.000000 0.000000 0.000000" charge=0
C	0.989160	0.000100	0.000000	6
C	2.324920	-0.000170	-0.000000	6
H	0.429410	0.930140	0.000000	1
H	0.429070	-0.929850	0.000000	1
H	2.885000	0.929800	-0.000000	1
H	2.884670	-0.930200	0.000000	1
Es	2.674983	-0.586719	-0.003510	99
Es	1.654395	0.003003	0.103839	99
Es	0.634303	-0.584918	-0.000558	99
Es	1.656192	-0.000325	-0.092780	99
Es	2.741455	0.576778	-0.001974	99
Es	2.326056	0.000322	0.000601	99
Es	0.978600	0.010238	-0.002814	99
Es	0.590333	0.581356	-0.002804	99
