27
Properties=species:S:1:pos:R:3:Z:I:1 energy=-172.15869190135948 field_type=dipole dipole="0.000000 0.000000 0.000000" charge=0
N	-1.425706	-0.857731	-0.424904	7
C	-0.012166	-0.746121	-0.104294	6
C	0.410474	0.685479	-0.157484	6
C	0.949874	1.355269	0.871456	6
H	-1.704706	-1.834271	-0.356194	1
H	-1.572816	-0.590591	-1.395864	1
H	0.576464	-1.327031	-0.823254	1
H	0.166064	-1.174331	0.888126	1
H	0.273704	1.205949	-1.101704	1
H	1.104254	0.886159	1.837656	1
H	1.234555	2.397219	0.766456	1
Es	-0.552075	-0.734483	-0.132679	99
Es	0.359830	0.609673	-0.253445	99
Es	-1.451957	-0.811205	-0.803080	99
Es	-1.513905	-0.963030	-0.389101	99
Es	-0.204637	-0.869439	-0.154153	99
Es	1.095816	1.156985	1.374743	99
Es	-0.146720	-0.700564	-0.121360	99
Es	0.292818	0.947017	-0.395577	99
Es	0.664302	1.066657	0.219069	99
Es	0.644084	1.003284	0.353975	99
Es	1.060444	1.442022	0.790650	99
Es	-1.576786	-1.163450	-0.570077	99
Es	1.073628	1.679624	0.884071	99
Es	0.159805	-1.006407	0.139583	99
Es	0.209120	0.063653	-0.142333	99
Es	-1.078613	-0.947738	-0.447995	99
