FCHK generated by IOData                                                
NA        NA                                                           NA
Number of atoms                            I                5
Number of electrons                        I               10
Charge                                     I                0
Multiplicity                               I                1
Number of alpha electrons                  I                5
Number of beta electrons                   I                5
Atomic numbers                             I   N=           5
           6           1           1           1           1
Nuclear charges                            R   N=           5
  6.00000000E+00  1.00000000E+00  1.00000000E+00  1.00000000E+00  1.00000000E+00
Current cartesian coordinates              R   N=          15
  1.88643800E+00 -4.64872627E-03 -8.23920591E-03  3.94992444E+00 -4.59203449E-03
  7.82346616E-03  1.19768952E+00  1.94048417E+00  7.82346616E-03  1.18493387E+00
 -9.97265168E-01  1.65938741E+00  1.21199475E+00 -9.58979317E-01 -1.71095803E+00
Number of basis functions                  I               50
Number of independent functions            I               50
Number of contracted shells                I               30
Number of primitive shells                 I               47
Pure/Cartesian d shells                    I                0
Pure/Cartesian f shells                    I                0
Highest angular momentum                   I                2
Largest degree of contraction              I                6
Shell types                                I   N=          30
           0           0           1           0           1           0
           1          -2           0           1           0           0
           0           1           0           0           0           0
           1           0           0           0           0           1
           0           0           0           0           1           0
Number of primitives per shell             I   N=          30
           6           3           3           1           1           1
           1           1           1           1           3           1
           1           1           1           3           1           1
           1           1           3           1           1           1
           1           3           1           1           1           1
Shell to atom map                          I   N=          30
           1           1           1           1           1           1
           1           1           1           1           2           2
           2           2           2           3           3           3
           3           3           4           4           4           4
           4           5           5           5           5           5
Primitive exponents                        R   N=          47
  4.56324000E+03  6.82024000E+02  1.54973000E+02  4.44553000E+01  1.30290000E+01
  1.82773000E+00  2.09642000E+01  4.80331000E+00  1.45933000E+00  2.09642000E+01
  4.80331000E+00  1.45933000E+00  4.83456000E-01  4.83456000E-01  1.45585000E-01
  1.45585000E-01  6.26000000E-01  4.38000000E-02  4.38000000E-02  3.38650000E+01
  5.09479000E+00  1.15879000E+00  3.25840000E-01  1.02741000E-01  7.50000000E-01
  3.60000000E-02  3.38650000E+01  5.09479000E+00  1.15879000E+00  3.25840000E-01
  1.02741000E-01  7.50000000E-01  3.60000000E-02  3.38650000E+01  5.09479000E+00
  1.15879000E+00  3.25840000E-01  1.02741000E-01  7.50000000E-01  3.60000000E-02
  3.38650000E+01  5.09479000E+00  1.15879000E+00  3.25840000E-01  1.02741000E-01
  7.50000000E-01  3.60000000E-02
Contraction coefficients                   R   N=          47
  1.96665000E-03  1.52306000E-02  7.61269000E-02  2.60801000E-01  6.16462000E-01
  2.21006000E-01  1.14660000E-01  9.19999000E-01 -3.03068000E-03  4.02487000E-02
  2.37594000E-01  8.15854000E-01  1.00000000E+00  1.00000000E+00  1.00000000E+00
  1.00000000E+00  1.00000000E+00  1.00000000E+00  1.00000000E+00  2.54938000E-02
  1.90373000E-01  8.52161000E-01  1.00000000E+00  1.00000000E+00  1.00000000E+00
  1.00000000E+00  2.54938000E-02  1.90373000E-01  8.52161000E-01  1.00000000E+00
  1.00000000E+00  1.00000000E+00  1.00000000E+00  2.54938000E-02  1.90373000E-01
  8.52161000E-01  1.00000000E+00  1.00000000E+00  1.00000000E+00  1.00000000E+00
  2.54938000E-02  1.90373000E-01  8.52161000E-01  1.00000000E+00  1.00000000E+00
  1.00000000E+00  1.00000000E+00
Coordinates of each shell                  R   N=          90
  1.88643800E+00 -4.64872627E-03 -8.23920591E-03  1.88643800E+00 -4.64872627E-03
 -8.23920591E-03  1.88643800E+00 -4.64872627E-03 -8.23920591E-03  1.88643800E+00
 -4.64872627E-03 -8.23920591E-03  1.88643800E+00 -4.64872627E-03 -8.23920591E-03
  1.88643800E+00 -4.64872627E-03 -8.23920591E-03  1.88643800E+00 -4.64872627E-03
 -8.23920591E-03  1.88643800E+00 -4.64872627E-03 -8.23920591E-03  1.88643800E+00
 -4.64872627E-03 -8.23920591E-03  1.88643800E+00 -4.64872627E-03 -8.23920591E-03
  3.94992444E+00 -4.59203449E-03  7.82346616E-03  3.94992444E+00 -4.59203449E-03
  7.82346616E-03  3.94992444E+00 -4.59203449E-03  7.82346616E-03  3.94992444E+00
 -4.59203449E-03  7.82346616E-03  3.94992444E+00 -4.59203449E-03  7.82346616E-03
  1.19768952E+00  1.94048417E+00  7.82346616E-03  1.19768952E+00  1.94048417E+00
  7.82346616E-03  1.19768952E+00  1.94048417E+00  7.82346616E-03  1.19768952E+00
  1.94048417E+00  7.82346616E-03  1.19768952E+00  1.94048417E+00  7.82346616E-03
  1.18493387E+00 -9.97265168E-01  1.65938741E+00  1.18493387E+00 -9.97265168E-01
  1.65938741E+00  1.18493387E+00 -9.97265168E-01  1.65938741E+00  1.18493387E+00
 -9.97265168E-01  1.65938741E+00  1.18493387E+00 -9.97265168E-01  1.65938741E+00
  1.21199475E+00 -9.58979317E-01 -1.71095803E+00  1.21199475E+00 -9.58979317E-01
 -1.71095803E+00  1.21199475E+00 -9.58979317E-01 -1.71095803E+00  1.21199475E+00
 -9.58979317E-01 -1.71095803E+00  1.21199475E+00 -9.58979317E-01 -1.71095803E+00
Total Energy                               R       0.00000000E+00
Alpha Orbital Energies                     R   N=          50
 -1.12091764E+01 -9.41832127E-01 -5.44210693E-01 -5.44203190E-01 -5.43877223E-01
  4.19010160E-02  7.84383239E-02  7.84387816E-02  7.84592833E-02  1.52662257E-01
  1.52690218E-01  1.52690858E-01  1.89754061E-01  3.08415628E-01  3.08498558E-01
  3.08500563E-01  3.79845574E-01  5.50639240E-01  5.50730332E-01  5.50732321E-01
  8.63308837E-01  8.72713324E-01  8.72959944E-01  8.72965883E-01  1.03330477E+00
  1.20185000E+00  1.20185037E+00  1.72168295E+00  1.72168442E+00  1.72170836E+00
  1.80536302E+00  1.80548754E+00  1.80549114E+00  2.20183995E+00  2.20184466E+00
  2.20198290E+00  2.61758594E+00  2.61758661E+00  2.67950792E+00  2.80031571E+00
  2.80032158E+00  2.80055916E+00  2.92797899E+00  2.92891862E+00  2.92894090E+00
  3.27306130E+00  4.19635153E+00  4.19769387E+00  4.19772563E+00  2.51916890E+01
Alpha MO coefficients                      R   N=        2500
  3.76204316E-01  3.83865546E-01  7.23990459E-06  2.86601367E-06  3.88717291E-06
 -3.59869050E-01  4.32919585E-05  1.76029426E-05  2.51531418E-05 -2.44835044E-01
  4.14771816E-05  1.69388514E-05  2.43316857E-05  4.56671035E-06  3.90256024E-06
  5.49899426E-06 -7.37759703E-07  2.34867814E-06 -5.86346930E-02  7.04692501E-06
  2.83030611E-06  4.12342083E-06 -7.09597971E-02 -9.93763080E-02  9.68468744E-03
  1.29859925E-04  1.65769918E-02  9.23539629E-07  6.44986498E-03 -7.09604854E-02
 -9.93765625E-02  9.68519542E-03  1.29862537E-04 -5.53267361E-03  1.56265401E-02
  6.44990671E-03 -7.09585220E-02 -9.93762453E-02  9.68326090E-03  1.33970796E-02
 -5.63493803E-03 -7.97334399E-03  6.44958699E-03 -7.09096402E-02 -9.93895567E-02
  9.61214764E-03 -1.36633940E-02 -5.41203280E-03 -7.65797749E-03  6.44106454E-03
 -2.15867892E-01 -1.57293154E-01  1.32270417E-01 -5.56102591E-02 -7.86872320E-02
 -1.09507113E-01  2.07674207E-01 -8.72876521E-02 -1.23509549E-01 -7.19370122E-02
  1.40447315E-01 -5.89965840E-02 -8.34778878E-02  1.35715159E-02 -1.34509537E-02
 -1.90328655E-02 -2.83687250E-03  8.01112291E-03 -1.69450122E-02 -7.27289520E-03
  3.06472937E-03  4.33662483E-03 -7.10988855E-02 -1.08658777E-01 -2.86776813E-02
  7.83820871E-03  1.02385804E-02 -4.59787307E-03 -7.57302100E-03 -7.10993087E-02
 -1.08658661E-01 -2.86769956E-02  7.83828640E-03 -7.75191373E-03  8.11652723E-03
 -7.57301088E-03  1.28035288E-01  2.07812081E-01  9.63519103E-02 -9.01622764E-03
  3.79670725E-03  5.37233944E-03  3.02541680E-02 -7.10627044E-02 -1.08693202E-01
 -2.87691180E-02 -3.39103733E-03 -7.64911294E-03 -1.08233472E-02 -7.57565203E-03
 -2.15847028E-01 -1.57232081E-01 -1.34860686E-01 -5.34177568E-02 -7.55846408E-02
 -1.09749264E-01 -2.11769688E-01 -8.38807020E-02 -1.18688389E-01 -7.18143668E-02
 -1.43282191E-01 -5.67527171E-02 -8.03024767E-02  1.46977797E-02  1.31897693E-02
  1.86633266E-02 -2.61792326E-03  7.39262191E-03 -1.67572080E-02  7.40745745E-03
  2.93413105E-03  4.15187107E-03 -7.10833667E-02 -1.08666431E-01 -2.87443922E-02
 -7.78372372E-03  1.03579584E-02 -4.42089499E-03 -7.59518363E-03 -7.10834403E-02
 -1.08665682E-01 -2.87433443E-02 -7.78380060E-03 -7.62493367E-03  8.28810329E-03
 -7.59511458E-03 -7.10828371E-02 -1.08667426E-01 -2.87462373E-02  3.00735763E-03
 -7.70802675E-03 -1.09066647E-02 -7.59530881E-03  1.27972732E-01  2.07832489E-01
  9.64555736E-02  9.19506422E-03  3.64219897E-03  5.15377082E-03  3.02221281E-02
 -2.15863763E-01 -1.57291233E-01  1.31031316E-03 -5.46016322E-02  1.54264995E-01
 -1.09498915E-01  2.08650365E-03 -8.57031811E-02  2.42187398E-01 -7.19403753E-02
  1.45264294E-03 -5.79235252E-02  1.63759024E-01 -1.41319887E-02 -1.23196549E-04
  3.69101122E-04 -1.90356251E-02 -1.54070722E-02 -1.69503708E-02 -6.36990028E-05
  3.00951214E-03 -8.48795902E-03 -7.11002207E-02 -1.08660051E-01 -2.86765427E-02
  1.83455703E-04  1.02979213E-02  9.01817488E-03 -7.57263565E-03  1.28038318E-01
  2.07813218E-01  9.63494944E-02 -8.21712743E-05  3.72793987E-03 -1.05201553E-02
  3.02553302E-02 -7.10985558E-02 -1.08659346E-01 -2.86778666E-02  1.09789655E-02
 -7.77600792E-03  2.52931416E-03 -7.57253610E-03 -7.10624861E-02 -1.08692032E-01
 -2.87670516E-02 -1.10374527E-02 -7.59014156E-03  2.77781875E-03 -7.57496976E-03
  2.15867262E-01  1.57293495E-01 -1.31018121E-03 -1.63641443E-01 -2.75105598E-05
  1.09502339E-01 -2.08631021E-03 -2.56902323E-01 -6.07722639E-05  7.19400130E-02
 -1.45259429E-03 -1.73701094E-01 -6.61370830E-05  1.41321278E-02 -3.89104939E-04
 -7.10228092E-06 -2.44892370E-02 -5.85428862E-06  1.69488380E-02  6.36585061E-05
  9.00546008E-03 -3.49769768E-06 -1.28036758E-01 -2.07811891E-01 -9.63499933E-02
  8.21776813E-05  1.11609335E-02 -2.57900136E-06 -3.02549118E-02  7.10985735E-02
  1.08656848E-01  2.86750018E-02 -1.83447421E-04 -5.06354352E-03 -1.27174695E-02
  7.57239796E-03  7.10995090E-02  1.08661063E-01  2.86789097E-02 -1.09790856E-02
 -4.97990399E-03  6.48564038E-03  7.57288287E-03  7.10630479E-02  1.08693207E-01
  2.87679928E-02  1.10375230E-02 -5.15216731E-03  6.22746096E-03  7.57523489E-03
  1.90492992E-02  3.27268067E-02  9.37371260E-06  1.36227013E-05  2.29481642E-05
 -1.07144604E-01  2.55328056E-05  3.71171914E-05  6.22754423E-05 -1.34685163E-01
  3.13347916E-05  4.55231880E-05  7.71322209E-05 -6.68446803E-06 -5.72543569E-06
 -8.08204286E-06  1.11204147E-06 -3.41623028E-06 -6.13234670E+00  2.24016980E-04
  3.25334605E-04  5.54488775E-04  1.10226845E-03 -4.49252779E-02  3.99477965E-01
  9.28465911E-03  2.01826974E-06  7.52354180E-05  1.56276935E+00  1.10217273E-03
 -4.49260210E-02  3.99478808E-01 -3.09745230E-03  8.75287766E-03  7.52295029E-05
  1.56278207E+00  1.10249711E-03 -4.49234466E-02  3.99474970E-01 -3.15467575E-03
 -4.46377247E-03  7.50519186E-03  1.56273487E+00  1.11286138E-03 -4.48436729E-02
  3.99391419E-01 -3.02809986E-03 -4.28467930E-03 -7.64490486E-03  1.56139008E+00
  5.06768920E-09  4.18131936E-08  2.40974351E-02 -2.17621033E-02  2.50080544E-03
 -6.74694515E-07  7.10822602E-02 -6.41935307E-02  7.37686843E-03  4.27085464E-06
 -9.11544656E-02  8.23204956E-02 -9.45999997E-03  6.49533384E-04 -2.29957929E-04
 -4.75190333E-04  5.93932035E-03  2.51704313E-03 -2.46457268E-05  9.36343502E-01
 -8.45600529E-01  9.71731300E-02  1.70679867E-02 -2.15319684E-02  4.19633567E-01
 -3.66095685E-03 -2.30579513E-03  2.16927316E-04 -3.47731855E+00 -2.01974965E-02
  2.54797110E-02 -4.96576057E-01  9.86618762E-05  4.62577986E-03  3.21838935E-04
  4.11490708E+00  3.04121953E-03 -3.83672338E-03  7.47713682E-02  2.92960900E-03
 -1.77300042E-03 -6.29879757E-04 -6.19597852E-01  8.82213457E-05 -1.11412908E-04
  2.16876466E-03  2.55746564E-03 -2.28523046E-03  2.90884665E-04 -1.79712028E-02
 -2.44774649E-09  6.05459858E-08 -1.91668289E-02 -1.91468630E-02  1.80722287E-02
 -1.27222364E-06 -5.65367591E-02 -5.64779019E-02  5.33078704E-02  8.47023110E-06
  7.24972422E-02  7.24218326E-02 -6.83566429E-02  4.48168604E-03 -2.17800701E-03
 -3.06046361E-03 -1.76635375E-03  2.23470591E-03 -5.09579405E-05 -7.44723121E-01
 -7.43947868E-01  7.02191159E-01 -1.34661168E-02  1.69891468E-02 -3.31076612E-01
  2.87203084E-03 -2.02865555E-03  1.95268892E-03  2.74342306E+00 -8.14669081E-03
  1.02779193E-02 -2.00293862E-01 -3.02087137E-03  7.67179524E-04  1.93775221E-03
  1.65971086E+00  2.14663357E-02 -2.70832132E-02  5.27768824E-01  6.26660191E-04
  1.73152326E-03 -4.40151285E-03 -4.37327766E+00  1.46353157E-04 -1.84978856E-04
  3.59858940E-03 -2.00828926E-03 -1.99894642E-03  1.95407785E-03 -2.98170139E-02
 -6.15105280E-07 -3.36222428E-06  1.06160413E-02  1.48580974E-02  2.70007550E-02
  4.80014244E-05  3.12845086E-02  4.37853907E-02  7.95684763E-02 -2.94958383E-04
 -4.00104466E-02 -5.59979827E-02 -1.01761422E-01 -3.34724165E-03 -3.04623378E-03
 -4.31082754E-03  6.13236445E-04 -1.67534693E-03  1.65984628E-03  4.11661439E-01
  5.76155976E-01  1.04701276E+00  7.66977329E-03 -9.70838319E-03  1.88552487E-01
 -1.66803717E-03  1.57125043E-03  2.83375008E-03 -1.56066111E+00  7.56083489E-03
 -9.57038936E-03  1.85874390E-01  2.04097980E-03 -1.02191580E-03  2.83412247E-03
 -1.53849235E+00  7.83799612E-03 -9.92144162E-03  1.92687000E-01  2.09226651E-03
  2.94323981E-03  5.50371434E-04 -1.59488211E+00 -2.30634678E-02  2.92202151E-02
 -5.66917885E-01 -1.62865671E-03 -2.32178599E-03 -4.09071600E-03  4.69270335E+00
 -1.40425150E-05 -2.88869636E-05  3.59889833E-03  5.03369531E-03  9.14920710E-03
  1.39497616E-04  9.78468774E-03  1.36854962E-02  2.48745365E-02  1.10470852E-04
  4.11760603E-02  5.75924378E-02  1.04679818E-01 -2.32701463E-02 -2.11772468E-02
 -2.99687650E-02  4.27043278E-03 -1.16444265E-02 -7.49866909E-03 -1.21196638E+00
 -1.69515748E+00 -3.08111709E+00  1.70403188E-02 -4.09461610E-02  3.97978170E-01
  5.64694819E-03 -5.94748839E-03 -1.07335966E-02  1.70707884E+00  1.67840756E-02
 -4.03311803E-02  3.91996283E-01 -7.50693402E-03  3.24359788E-03 -1.07347332E-02
  1.68142259E+00  1.74062589E-02 -4.18236947E-02  4.06517941E-01 -7.68991378E-03
 -1.08117900E-02 -2.63901736E-03  1.74368662E+00 -5.12287855E-02  1.22842832E-01
 -1.19546702E+00  5.45644069E-03  7.79015133E-03  1.37005476E-02 -5.12595513E+00
  4.61396314E-07  9.40132034E-07 -6.45210380E-03 -6.58024810E-03  6.15820965E-03
 -4.42801747E-06 -1.76569903E-02 -1.80077599E-02  1.68526204E-02 -2.94629501E-06
 -7.34769658E-02 -7.49359448E-02  7.01302686E-02  3.12146467E-02 -1.51649530E-02
 -2.13170269E-02 -1.19271362E-02  1.56899794E-02  2.36892190E-04  2.16762891E+00
  2.21067458E+00 -2.06890199E+00 -2.95777639E-02  7.12150098E-02 -6.91505724E-01
 -9.62207692E-03  7.74850975E-03 -7.38674793E-03 -2.96719572E+00 -1.84797860E-02
  4.44951610E-02 -4.32047766E-01  1.11894111E-02 -2.39300799E-03 -7.33627634E-03
 -1.85388783E+00  4.77323815E-02 -1.14920326E-01  1.11592195E+00 -1.84845142E-03
 -5.61783445E-03  1.52062151E-02  4.78830726E+00  3.25158521E-04 -7.80862204E-04
  7.59308864E-03  7.53851205E-03  7.66379411E-03 -7.41010299E-03  3.25812700E-02
  2.12230282E-07  4.35102613E-07  8.25782689E-03 -7.35165180E-03  7.96482798E-04
 -2.08341655E-06  2.26019663E-02 -2.01217486E-02  2.18007634E-03 -1.54185608E-06
  9.40306854E-02 -8.37121292E-02  9.06913334E-03  4.25276604E-03 -1.46012503E-03
 -3.11957474E-03  4.14182272E-02  1.73748617E-02  1.11667403E-04 -2.77411847E+00
  2.46969923E+00 -2.67564273E-01  3.81609740E-02 -9.18845883E-02  8.92191700E-01
  1.24946632E-02  8.65796673E-03 -7.64377174E-04  3.82836758E+00 -4.47016921E-02
  1.07635598E-01 -1.04512046E+00 -1.03702629E-03 -1.58777319E-02 -1.14113313E-03
 -4.48459234E+00  6.33891986E-03 -1.52622465E-02  1.48199327E-01 -1.09787846E-02
  6.88180657E-03  2.04479804E-03  6.35916043E-01  2.01779519E-04 -4.84766711E-04
  4.71306735E-03 -9.76493166E-03  8.60501654E-03 -1.03488555E-03  2.02162332E-02
  3.74863149E-02  6.54083018E-02  2.79517876E-05  4.06261578E-05  6.83198496E-05
 -1.50984378E-01  1.52887112E-05  2.21962381E-05  3.79310802E-05 -5.29784316E-01
  1.44834938E-04  2.10594657E-04  3.51728463E-04  2.20119182E-05  1.89655775E-05
  2.67462954E-05 -3.66966078E-06  1.12593524E-05  1.45857617E+01 -1.06574653E-03
 -1.54863575E-03 -2.61535473E-03 -1.68165836E-02  1.66206025E-01 -1.39437434E+00
  3.06248755E-03  2.77130484E-07  2.41769549E-05 -2.64413994E+00 -1.68167255E-02
  1.66206224E-01 -1.39437790E+00 -1.02187749E-03  2.88650967E-03  2.41790932E-05
 -2.64413053E+00 -1.68163044E-02  1.66205700E-01 -1.39436481E+00 -1.04126567E-03
 -1.47336388E-03  2.47597479E-03 -2.64415732E+00 -1.68004123E-02  1.66183600E-01
 -1.39398700E+00 -1.01588667E-03 -1.43746962E-03 -2.56474601E-03 -2.64521085E+00
  1.64987413E-05  3.16038720E-05  4.95860607E-02  6.95033313E-02  1.26581142E-01
 -1.17961657E-04  3.29274954E-02  4.61535140E-02  8.40557611E-02  4.34668112E-05
  4.98826036E-01  6.99190220E-01  1.27338365E+00  1.47159955E-02  1.34275761E-02
  1.90016102E-02 -2.68488936E-03  7.36790884E-03 -1.07776396E-02 -3.62553417E-01
 -5.08179487E-01 -9.25506884E-01 -1.22583185E-02  4.27704584E-03 -9.68290220E-01
 -1.00923315E-02  2.42343928E-03  4.32221148E-03  1.14245428E+00 -1.21070911E-02
  4.22450574E-03 -9.56380072E-01  5.62668587E-03 -8.58303639E-03  4.32351207E-03
  1.12844157E+00 -1.26065944E-02  4.39828086E-03 -9.95737055E-01  5.86143286E-03
  8.27079525E-03 -5.40965119E-03  1.17473342E+00  3.71826025E-02 -1.29145196E-02
  2.92635580E+00 -9.89982185E-03 -1.40310708E-02 -2.49449757E-02 -3.43893399E+00
 -6.63551586E-07 -1.22442516E-06 -9.03597783E-02 -8.93762875E-02  8.44717192E-02
  3.93521835E-06 -5.97958732E-02 -5.91450197E-02  5.58993330E-02  6.52522748E-06
 -9.09979414E-01 -9.00074982E-01  8.50684175E-01 -1.97519281E-02  9.57491439E-03
  1.34531663E-02  7.90064539E-03 -9.81554502E-03  3.47299313E-04  6.59865149E-01
  6.52683615E-01 -6.16865321E-01  2.17275939E-02 -7.88279171E-03  1.72122956E+00
  1.78464564E-02 -3.10917161E-03  3.10352015E-03 -2.02182562E+00  1.29414465E-02
 -4.69530285E-03  1.02523909E+00 -7.31770354E-03  8.67627159E-03  3.03728777E-03
 -1.20433411E+00 -3.43923534E-02  1.24766617E-02 -2.72428921E+00  8.14878592E-03
  1.28693557E-02 -2.39085029E-02  3.19976438E+00 -2.83804154E-04  1.02499607E-04
 -2.23840332E-02 -3.04257708E-03 -2.97165910E-03  3.15143563E-03  2.61830453E-02
 -2.70409525E-07 -5.09037479E-07  1.12547879E-01 -1.02344180E-01  1.21065068E-02
  1.77825202E-06  7.44727573E-02 -6.77209679E-02  8.01083058E-03  8.92756751E-07
  1.13345596E+00 -1.03069585E+00  1.21923137E-01 -2.94272589E-03  1.06277200E-03
  2.15141210E-03 -2.61393385E-02 -1.11328407E-02  1.59661703E-04 -8.21873377E-01
  7.47361529E-01 -8.84074342E-02 -2.72825720E-02  9.90739597E-03 -2.16141928E+00
 -2.24419683E-02 -3.56243638E-03  2.15253611E-04  2.53860811E+00  3.24420550E-02
 -1.17814702E-02  2.57026061E+00 -6.54546757E-03  2.59863730E-02  6.66266677E-04
 -3.01890830E+00 -5.02724503E-03  1.82541356E-03 -3.98242911E-01  5.56672792E-03
 -1.22510355E-03 -3.50332412E-03  4.67699120E-01 -1.35424598E-04  4.89873999E-05
 -1.06890651E-02  3.94246277E-03 -3.48649069E-03  5.26564258E-04  1.25025678E-02
  5.04489490E-02  8.06525668E-02  1.80668648E-06  2.59654129E-06  5.18693091E-06
 -1.92277230E-02  2.83777322E-05  4.12427641E-05  6.95992281E-05 -4.02209433E+00
 -1.57592718E-04 -2.29542092E-04 -3.72919228E-04 -4.41448230E-06 -3.79360767E-06
 -5.27827268E-06  7.49119074E-07 -2.30327022E-06 -1.47405399E+01  8.51375803E-04
  1.23656262E-03  2.10408084E-03  4.14157248E-02 -2.88703222E-02  3.46678754E+00
 -3.07162715E-03  8.81896801E-07 -2.23037698E-05  2.00469332E+00  4.14155112E-02
 -2.88711808E-02  3.46682742E+00  1.02602573E-03 -2.89482032E-03 -2.22147170E-05
  2.00468192E+00  4.14162617E-02 -2.88674438E-02  3.46667902E+00  1.04541564E-03
  1.47934852E-03 -2.48189323E-03  2.00471013E+00  4.14389930E-02 -2.87811290E-02
  3.46247087E+00  1.01580170E-03  1.43730238E-03  2.56426996E-03  2.00601965E+00
 -1.10624148E-05  2.38454651E-07  2.90463867E-03  4.06096286E-03  7.37298171E-03
 -9.67811137E-05 -1.78848107E-02 -2.50049393E-02 -4.53987444E-02 -3.16652607E-03
 -4.87347108E-01 -6.81379115E-01 -1.23713475E+00  1.71621565E-02  1.56000232E-02
  2.20763442E-02 -3.15322639E-03  8.58769781E-03  2.14451244E-03  5.90564324E-01
  8.25691808E-01  1.49915546E+00  2.25772406E-02  5.53114221E-01 -5.32595033E-01
 -2.64229706E-02 -6.33227528E-03 -1.16665528E-02 -5.14248825E-01  2.22266581E-02
  5.44524738E-01 -5.24312024E-01  2.66568094E-03 -2.66504454E-02 -1.16643583E-02
 -5.06260583E-01  2.30015702E-02  5.63510153E-01 -5.42633136E-01  3.05398794E-03
  4.39768207E-03 -2.95207297E-02 -5.23894930E-01 -6.77405638E-02 -1.65966691E+00
  1.60210064E+00 -2.59188315E-02 -3.65988970E-02 -6.54982335E-02  1.54213146E+00
  3.11738742E-07 -2.04785160E-08 -5.27038796E-03 -5.35900221E-03  5.02748316E-03
  2.62563389E-06  3.23040960E-02  3.28470865E-02 -3.08155555E-02  9.70095778E-05
  8.72918897E-01  8.87583352E-01 -8.32717388E-01 -2.31675822E-02  1.12701862E-02
  1.58429045E-02  8.89580358E-03 -1.16384745E-02 -3.76424842E-05 -1.05743692E+00
 -1.07520085E+00  1.00873892E+00 -3.91673095E-02 -9.60922619E-01  9.24329828E-01
  4.62192970E-02  8.25154681E-03 -7.44302474E-03  8.97090645E-01 -2.43575848E-02
 -5.97584902E-01  5.74813418E-01  2.04365040E-04  3.05892476E-02 -7.55559017E-03
  5.57893521E-01  6.31326448E-02  1.54887805E+00 -1.48998830E+00  2.89920003E-02
  3.77925559E-02 -5.73746746E-02 -1.44597461E+00  3.90907586E-04  9.58840953E-03
 -9.25248235E-03  8.20529097E-03  8.39260089E-03 -7.39637063E-03 -8.95673063E-03
  1.59994126E-07 -6.11230143E-09  6.73255763E-03 -6.00606643E-03  6.55877444E-04
  1.39012189E-06 -4.12620422E-02  3.68095615E-02 -4.01956032E-03  4.71751026E-05
 -1.11476309E+00  9.94471565E-01 -1.08588522E-01 -3.18726526E-03  1.10303361E-03
  2.33230095E-03 -3.07575971E-02 -1.29223358E-02 -2.68998392E-05  1.35039118E+00
 -1.20467363E+00  1.31540699E-01  5.04231552E-02  1.23710541E+00 -1.18997734E+00
 -5.94212825E-02  9.24184389E-03 -1.39202349E-03 -1.15503944E+00 -5.91520444E-02
 -1.45126438E+00  1.39594407E+00 -2.95719218E-02  6.34970272E-02 -5.60480920E-04
  1.35499779E+00  8.45891175E-03  2.07535037E-01 -1.99640420E-01 -7.56341528E-03
  1.32016747E-02 -7.66023988E-03 -1.93768045E-01  2.69126155E-04  6.60262297E-03
 -6.36788220E-03 -1.02348850E-02  9.32737610E-03 -7.89955735E-04 -6.15947849E-03
  1.88991756E-02  3.27977592E-02  1.08037834E-03  1.56953813E-03  2.62655272E-03
  2.45811333E-01  4.18312272E-03  6.07694419E-03  1.01683181E-02 -2.40415798E+00
 -8.66865668E-03 -1.25936228E-02 -2.10602232E-02  5.53411587E-04  4.70778651E-04
  6.66280041E-04 -9.18700670E-05  2.81873042E-04  8.73044647E+00  3.99565866E-03
  5.80475541E-03  9.69183239E-03  5.26473716E-02  1.49007799E+00 -1.66174530E+00
 -2.45120204E-02  2.80201731E-04  2.77748369E-04 -1.28362131E+00  5.26372666E-02
  1.49000291E+00 -1.66140271E+00  8.44600595E-03 -2.30259603E-02  2.77958694E-04
 -1.28398397E+00  5.26738555E-02  1.49027015E+00 -1.66263960E+00  8.57488402E-03
  1.21409453E-02 -1.94543441E-02 -1.28266332E+00  5.37884500E-02  1.49855594E+00
 -1.70037859E+00  7.54624696E-03  1.06848650E-02  1.90327067E-02 -1.24274931E+00
 -1.60480085E-04 -2.58439947E-04  8.37659894E-02  1.17396824E-01  2.13867514E-01
 -4.39021964E-03  3.43885864E-01  4.81950986E-01  8.77992798E-01  3.49434306E-02
 -6.97455255E-01 -9.77473611E-01 -1.78071038E+00  3.74078548E-02  3.41407466E-02
  4.83130987E-02 -6.82704515E-03  1.87276054E-02 -1.03288366E-01  3.46330565E-01
  4.85377126E-01  8.84232484E-01 -2.28910063E-02 -1.93512255E-01  7.80928398E-01
 -2.40738530E-02  2.12250832E-02  3.83631833E-02 -7.76517617E-01 -2.26131676E-02
 -1.91339184E-01  7.71438616E-01  2.80714768E-02 -1.52780473E-02  3.83676311E-02
 -7.66656466E-01 -2.35313787E-02 -1.98520342E-01  8.02798895E-01  2.88646850E-02
  4.06387025E-02  6.05188871E-03 -7.99237792E-01  6.67222099E-02  5.07312839E-01
 -2.27963447E+00 -2.41066086E-02 -3.43148745E-02 -6.04285644E-02  2.40348192E+00
  5.26966600E-06  8.50153207E-06 -1.53162633E-01 -1.50709428E-01  1.42719145E-01
  1.41269907E-04 -6.29122605E-01 -6.19046107E-01  5.86224998E-01 -1.12607428E-03
  1.27509299E+00  1.25466998E+00 -1.18814941E+00 -5.00997150E-02  2.42812381E-02
  3.41079574E-02  2.01816360E-02 -2.48241786E-02  3.38041379E-03 -6.32458469E-01
 -6.22328811E-01  5.89332085E-01  3.96665840E-02  3.11901599E-01 -1.35695680E+00
  4.27279196E-02 -2.72916443E-02  2.63871813E-02  1.40695824E+00  2.34424423E-02
  1.84521415E-01 -8.01932057E-01 -4.16298553E-02  1.19442162E-02  2.61651759E-02
  8.31015314E-01 -6.25328403E-02 -4.90494474E-01  2.13926727E+00  1.00754914E-02
  2.62100071E-02 -6.40221004E-02 -2.22103660E+00 -5.00264543E-04 -3.45931969E-03
  1.71437040E-02 -2.73774636E-02 -2.68070238E-02  2.65685621E-02 -1.89345260E-02
  2.35916267E-06  3.79501470E-06  1.89907555E-01 -1.73333692E-01  2.07660385E-02
  6.48367379E-05  7.80064448E-01 -7.11985721E-01  8.52986246E-02 -5.14989820E-04
 -1.58099261E+00  1.44301432E+00 -1.72878506E-01 -7.57680816E-03  2.73325254E-03
  5.53912703E-03 -6.62586361E-02 -2.82915510E-02  1.52746117E-03  7.84167130E-01
 -7.15730536E-01  8.57471831E-02 -4.95477563E-02 -3.88836465E-01  1.69510095E+00
 -5.37068994E-02 -3.13872181E-02  3.08095959E-03 -1.75945172E+00  5.90964017E-02
  4.64239353E-01 -2.02174484E+00 -6.69628943E-04  6.76128382E-02  4.57061155E-03
  2.09736547E+00 -9.27360962E-03 -7.26032228E-02  3.17274757E-01  4.00005568E-02
 -2.34463431E-02 -9.57839013E-03 -3.29738837E-01 -2.40833704E-04 -1.67746895E-03
  8.25196465E-03  3.44732782E-02 -3.11226308E-02  4.12447563E-03 -9.07804200E-03
  1.18157469E-01  2.50166200E-01 -6.13527078E-05 -8.92084675E-05 -1.49296678E-04
 -2.11105020E+00 -1.27637407E-04 -1.85574727E-04 -3.11640203E-04  6.22869308E+00
  3.46562474E-04  5.04152854E-04  8.37724589E-04 -2.41258145E-04 -2.05963816E-04
 -2.91827433E-04  3.99157108E-05 -1.22659519E-04  3.09448359E+00 -4.38742416E-04
 -6.37401925E-04 -1.08055850E-03  5.57837287E-02 -2.07405535E-01 -1.94045923E+00
  1.59779550E-01 -2.67509176E-05  1.19165622E-03 -1.96275210E-01  5.57840404E-02
 -2.07399741E-01 -1.94050036E+00 -5.33612400E-02  1.50608869E-01  1.19091971E-03
 -1.96249759E-01  5.57829371E-02 -2.07418182E-01 -1.94035918E+00 -5.43436119E-02
 -7.68968077E-02  1.29082454E-01 -1.96328332E-01  5.57494451E-02 -2.08048577E-01
 -1.93594133E+00 -5.20769072E-02 -7.36884899E-02 -1.31471389E-01 -1.99129167E-01
  1.77418058E-07  4.13036001E-07  7.39903635E-06 -1.93501707E-06 -1.80640437E-06
 -4.23014974E-06  1.15790432E-04 -2.99416884E-05 -2.82444189E-05  1.52060992E-05
 -2.81080652E-04  7.42595750E-05  6.86920576E-05  9.20406244E-02 -3.51361594E-01
  2.42756680E-01  5.85254138E-02 -1.48234125E-01  9.00668046E-06  9.22403756E-05
 -2.44663943E-05 -2.25521911E-05 -1.54891857E-05  7.90622432E-05  1.12000256E-04
  2.14131187E-03 -1.18822049E-01 -2.84623496E-01 -1.55946479E-04  9.14495705E-06
 -4.96672530E-05 -7.14977154E-05 -1.17200227E-01 -4.37771051E-02  2.81739895E-01
  8.97713726E-05  6.28748969E-06 -3.47477609E-05 -5.19168592E-05 -1.74220061E-01
  2.43875967E-01  7.19136252E-02  6.28095820E-05 -3.79560638E-08 -1.69063806E-06
 -4.62092011E-06  2.89554234E-01 -8.13501690E-02 -6.90973448E-02 -4.43360408E-07
  6.44047422E-08  1.50645236E-07  1.12070549E-06  6.85037033E-06 -4.00753432E-06
 -1.54902527E-06  1.79947042E-05  1.07666802E-04 -6.25766102E-05  5.54179324E-06
 -4.15725019E-05 -2.59203700E-04  1.52543679E-04  2.13628134E-01  1.44175865E-01
 -1.14789446E-01  1.21085758E-01 -3.49276585E-01  3.24035007E-06  1.35143451E-05
  8.49298575E-05 -5.00980612E-05 -2.08139856E-06  1.02010075E-05  1.59296359E-05
 -9.26658269E-04 -2.84413001E-01  1.18666443E-01 -2.27717971E-05 -1.25505423E-05
  6.49080705E-05  9.37878159E-05 -2.65859191E-01 -9.31694745E-02 -1.25349763E-01
 -1.27083702E-04  1.43495616E-05 -7.56894317E-05 -1.10229395E-04  2.31678587E-01
  1.16532793E-01  1.66910958E-01  1.44524715E-04  2.48349729E-07 -2.00362819E-06
 -5.29282260E-06  3.51471227E-02  2.61302647E-01 -1.60377281E-01  3.96679860E-06
  5.68312986E-10  1.27592779E-09 -2.85586986E-05 -3.71508949E-05  3.28562888E-05
 -6.80390893E-09 -1.89056711E-04 -2.47610129E-04  2.26166981E-04 -2.85833105E-08
 -7.16859532E-04 -9.33882488E-04  8.31937480E-04  8.42507706E-04 -4.29747754E-04
 -6.07269835E-04 -2.07137396E-04  4.68125951E-04  2.56267618E-08  5.32720565E-04
  6.94638694E-04 -6.21577919E-04 -1.75863125E-04  1.18356922E-03 -5.79050052E-04
  3.14995097E-03 -3.10862397E-03 -3.82472158E-01 -4.32762027E-04 -1.57521217E-04
  1.05941418E-03 -5.19002160E-04  1.03869667E-02  6.75104675E-03 -3.52325279E-01
 -3.86666945E-04  3.40212944E-04 -2.28579499E-03  1.12199327E-03  3.05412400E-01
  4.13907018E-01  3.74432108E-01  8.32057463E-04 -6.82976706E-06  4.28497907E-05
 -2.39417617E-05 -3.18518234E-01 -4.16988687E-01  3.59869224E-01 -1.26472795E-05
 -9.37429859E-11 -2.03007543E-10  4.63089454E-05 -3.39575696E-05  1.41532036E-06
  1.08096466E-09  3.08935881E-04 -2.28508467E-04  9.21600379E-06  4.43894867E-09
  1.16440882E-03 -8.55421010E-04  3.54208376E-05  1.94198919E-05 -6.04859363E-06