FCHK generated by IOData                                                
NA        NA                                                           NA
Number of atoms                            I                5
Number of electrons                        I               10
Charge                                     I                0
Multiplicity                               I                1
Number of alpha electrons                  I                5
Number of beta electrons                   I                5
Atomic numbers                             I   N=           5
           6           1           1           1           1
Nuclear charges                            R   N=           5
  6.00000000E+00  1.00000000E+00  1.00000000E+00  1.00000000E+00  1.00000000E+00
Current cartesian coordinates              R   N=          15
  1.88643800E+00 -4.64872627E-03 -8.23920591E-03  3.94992444E+00 -4.59203449E-03
  7.82346616E-03  1.19768952E+00  1.94048417E+00  7.82346616E-03  1.18493387E+00
 -9.97265168E-01  1.65938741E+00  1.21199475E+00 -9.58979317E-01 -1.71095803E+00
Number of basis functions                  I               50
Number of independent functions            I               50
Number of contracted shells                I               30
Number of primitive shells                 I               47
Pure/Cartesian d shells                    I                0
Pure/Cartesian f shells                    I                0
Highest angular momentum                   I                2
Largest degree of contraction              I                6
Shell types                                I   N=          30
           0           0           1           0           1           0
           1          -2           0           1           0           0
           0           1           0           0           0           0
           1           0           0           0           0           1
           0           0           0           0           1           0
Number of primitives per shell             I   N=          30
           6           3           3           1           1           1
           1           1           1           1           3           1
           1           1           1           3           1           1
           1           1           3           1           1           1
           1           3           1           1           1           1
Shell to atom map                          I   N=          30
           1           1           1           1           1           1
           1           1           1           1           2           2
           2           2           2           3           3           3
           3           3           4           4           4           4
           4           5           5           5           5           5
Primitive exponents                        R   N=          47
  4.56324000E+03  6.82024000E+02  1.54973000E+02  4.44553000E+01  1.30290000E+01
  1.82773000E+00  2.09642000E+01  4.80331000E+00  1.45933000E+00  2.09642000E+01
  4.80331000E+00  1.45933000E+00  4.83456000E-01  4.83456000E-01  1.45585000E-01
  1.45585000E-01  6.26000000E-01  4.38000000E-02  4.38000000E-02  3.38650000E+01
  5.09479000E+00  1.15879000E+00  3.25840000E-01  1.02741000E-01  7.50000000E-01
  3.60000000E-02  3.38650000E+01  5.09479000E+00  1.15879000E+00  3.25840000E-01
  1.02741000E-01  7.50000000E-01  3.60000000E-02  3.38650000E+01  5.09479000E+00
  1.15879000E+00  3.25840000E-01  1.02741000E-01  7.50000000E-01  3.60000000E-02
  3.38650000E+01  5.09479000E+00  1.15879000E+00  3.25840000E-01  1.02741000E-01
  7.50000000E-01  3.60000000E-02
Contraction coefficients                   R   N=          47
  1.96665000E-03  1.52306000E-02  7.61269000E-02  2.60801000E-01  6.16462000E-01
  2.21006000E-01  1.14660000E-01  9.19999000E-01 -3.03068000E-03  4.02487000E-02
  2.37594000E-01  8.15854000E-01  1.00000000E+00  1.00000000E+00  1.00000000E+00
  1.00000000E+00  1.00000000E+00  1.00000000E+00  1.00000000E+00  2.54938000E-02
  1.90373000E-01  8.52161000E-01  1.00000000E+00  1.00000000E+00  1.00000000E+00
  1.00000000E+00  2.54938000E-02  1.90373000E-01  8.52161000E-01  1.00000000E+00
  1.00000000E+00  1.00000000E+00  1.00000000E+00  2.54938000E-02  1.90373000E-01
  8.52161000E-01  1.00000000E+00  1.00000000E+00  1.00000000E+00  1.00000000E+00
  2.54938000E-02  1.90373000E-01  8.52161000E-01  1.00000000E+00  1.00000000E+00
  1.00000000E+00  1.00000000E+00
Coordinates of each shell                  R   N=          90
  1.88643800E+00 -4.64872627E-03 -8.23920591E-03  1.88643800E+00 -4.64872627E-03
 -8.23920591E-03  1.88643800E+00 -4.64872627E-03 -8.23920591E-03  1.88643800E+00
 -4.64872627E-03 -8.23920591E-03  1.88643800E+00 -4.64872627E-03 -8.23920591E-03
  1.88643800E+00 -4.64872627E-03 -8.23920591E-03  1.88643800E+00 -4.64872627E-03
 -8.23920591E-03  1.88643800E+00 -4.64872627E-03 -8.23920591E-03  1.88643800E+00
 -4.64872627E-03 -8.23920591E-03  1.88643800E+00 -4.64872627E-03 -8.23920591E-03
  3.94992444E+00 -4.59203449E-03  7.82346616E-03  3.94992444E+00 -4.59203449E-03
  7.82346616E-03  3.94992444E+00 -4.59203449E-03  7.82346616E-03  3.94992444E+00
 -4.59203449E-03  7.82346616E-03  3.94992444E+00 -4.59203449E-03  7.82346616E-03
  1.19768952E+00  1.94048417E+00  7.82346616E-03  1.19768952E+00  1.94048417E+00
  7.82346616E-03  1.19768952E+00  1.94048417E+00  7.82346616E-03  1.19768952E+00
  1.94048417E+00  7.82346616E-03  1.19768952E+00  1.94048417E+00  7.82346616E-03
  1.18493387E+00 -9.97265168E-01  1.65938741E+00  1.18493387E+00 -9.97265168E-01
  1.65938741E+00  1.18493387E+00 -9.97265168E-01  1.65938741E+00  1.18493387E+00
 -9.97265168E-01  1.65938741E+00  1.18493387E+00 -9.97265168E-01  1.65938741E+00
  1.21199475E+00 -9.58979317E-01 -1.71095803E+00  1.21199475E+00 -9.58979317E-01
 -1.71095803E+00  1.21199475E+00 -9.58979317E-01 -1.71095803E+00  1.21199475E+00
 -9.58979317E-01 -1.71095803E+00  1.21199475E+00 -9.58979317E-01 -1.71095803E+00
Total Energy                               R       0.00000000E+00
Alpha Orbital Energies                     R   N=          50
 -1.12091764E+01 -9.41832127E-01 -5.44210693E-01 -5.44203190E-01 -5.43877223E-01
  4.19010160E-02  7.84383239E-02  7.84387816E-02  7.84592833E-02  1.52662257E-01
  1.52690218E-01  1.52690858E-01  1.89754061E-01  3.08415628E-01  3.08498558E-01
  3.08500563E-01  3.79845574E-01  5.50639240E-01  5.50730332E-01  5.50732321E-01
  8.63308837E-01  8.72713324E-01  8.72959944E-01  8.72965883E-01  1.03330477E+00
  1.20185000E+00  1.20185037E+00  1.72168295E+00  1.72168442E+00  1.72170836E+00
  1.80536302E+00  1.80548754E+00  1.80549114E+00  2.20183995E+00  2.20184466E+00
  2.20198290E+00  2.61758594E+00  2.61758661E+00  2.67950792E+00  2.80031571E+00
  2.80032158E+00  2.80055916E+00  2.92797899E+00  2.92891862E+00  2.92894090E+00
  3.27306130E+00  4.19635153E+00  4.19769387E+00  4.19772563E+00  2.51916890E+01
Alpha MO coefficients                      R   N=        2500
 -3.52385278E-02 -7.11831014E-02  1.29616067E-03 -5.46069920E-02  1.54258617E-01
  2.10494322E-01  2.03940518E-03 -8.57218096E-02  2.42162534E-01  1.41659117E-01
  1.40869532E-03 -5.79411119E-02  1.63734955E-01 -1.41363411E-02 -1.26713180E-04
  3.64148753E-04 -1.90350250E-02 -1.54093571E-02  3.37039219E-02 -6.94626947E-05
  3.00718039E-03 -8.49142098E-03 -8.45924520E-03 -2.14054006E-02 -3.66864587E-02
  6.89505974E-05 -4.26517365E-03  9.01720950E-03 -1.31749233E-02  1.90680821E-01
  2.95069524E-01  8.83397293E-02 -1.96680112E-04  8.58830738E-03 -2.42484131E-02
  2.46531754E-02 -8.45964654E-03 -2.14061725E-02 -3.66871652E-02 -7.90730943E-04
 -2.82589347E-03  9.53370616E-03 -1.31747471E-02 -8.45645174E-03 -2.14073762E-02
 -3.67094295E-02  9.67998572E-04 -2.83480107E-03  9.50664508E-03 -1.31671228E-02
  3.52557794E-02  7.11983221E-02 -1.32261084E-01  5.56112693E-02  7.86909193E-02
 -2.10498224E-01 -2.07634677E-01  8.72994517E-02  1.23530187E-01 -1.41670707E-01
 -1.40408488E-01  5.90095522E-02  8.34990982E-02 -1.35664288E-02  1.34549341E-02
  1.90384823E-02  2.83581282E-03 -8.00857490E-03 -3.37112464E-02  7.27892373E-03
 -3.06215837E-03 -4.33301500E-03  8.45151909E-03  2.13944185E-02  3.66854058E-02
 -7.72397589E-03  4.32550559E-03  4.59868104E-03  1.31747637E-02  8.45339329E-03
  2.13973810E-02  3.66864395E-02 -7.72405382E-03  2.89104704E-03  5.61226463E-03
  1.31751867E-02 -1.90677609E-01 -2.95070227E-01 -8.83429327E-02  2.07862349E-02
 -8.74732537E-03 -1.23772417E-02 -2.46519360E-02  8.46034516E-03  2.14148394E-02
  3.67156310E-02 -8.61429683E-03  2.89367637E-03  4.09458716E-03  1.31691722E-02
  5.68285190E-01  4.75432466E-01 -5.74618865E-06 -9.57613404E-06 -7.82546419E-06
 -1.95692483E-02 -3.55555977E-06 -1.27923869E-05 -9.02748297E-06 -1.76806079E-02
 -3.07084812E-06 -8.92062531E-06 -6.49847654E-06  1.10884448E-06 -7.00623403E-08
 -8.62728677E-08 -7.62409299E-07  4.13308771E-07 -4.76588909E-03  8.03505382E-07
  7.21626722E-07  7.12951775E-07 -4.34979789E-03 -6.59427480E-03  1.16260414E-03
  8.21714049E-06  1.09039037E-03 -3.91263218E-07  4.90891533E-04 -4.34489564E-03
 -6.58646591E-03  1.16576246E-03  8.21049550E-06 -3.64388229E-04  1.02715738E-03
  4.91827797E-04 -4.33880500E-03 -6.57684734E-03  1.16931516E-03  8.79802351E-04
 -3.70748378E-04 -5.24267335E-04  4.92958452E-04 -4.32812592E-03 -6.56182629E-03
  1.16733835E-03 -8.95603061E-04 -3.55172163E-04 -5.02229709E-04  4.94516558E-04
  3.52240329E-02  7.11706651E-02 -1.29711100E-03 -1.63638128E-01 -2.40247838E-05
 -2.10492064E-01 -2.04091195E-03 -2.56886904E-01 -4.04502474E-05 -1.41660116E-01
 -1.40979806E-03 -1.73685678E-01 -4.51392178E-05  1.41370168E-02 -3.85490183E-04
 -2.01106503E-06 -2.44899389E-02 -3.28180901E-06 -3.37055863E-02  6.94814661E-05
  9.00790424E-03  1.23338703E-07 -1.90679820E-01 -2.95069800E-01 -8.83412463E-02
  1.96622289E-04  2.57242779E-02 -1.78275707E-06 -2.46529646E-02  8.45398328E-03
  2.13972822E-02  3.66835978E-02 -6.89990826E-05 -9.92415373E-03  1.01096693E-03
  1.31742123E-02  8.46149189E-03  2.14093652E-02  3.66889096E-02  7.90431998E-04
 -9.93008940E-03 -5.18852038E-04  1.31753192E-02  8.45944482E-03  2.14124749E-02
  3.67120425E-02 -9.67655913E-04 -9.90749424E-03 -5.01346187E-04  1.31679058E-02
  3.52264060E-02  7.11341560E-02  1.34870102E-01  5.34213822E-02  7.55938203E-02
 -2.10275986E-01  2.11809352E-01  8.38966084E-02  1.18717651E-01 -1.41806671E-01
  1.43321111E-01  5.67684631E-02  8.03295190E-02 -1.46935891E-02 -1.31857822E-02
 -1.86576962E-02  2.61686818E-03 -7.39062208E-03 -3.39022143E-02 -7.40143271E-03
 -2.93170370E-03 -4.14856313E-03  8.43448747E-03  2.14004329E-02  3.67541191E-02
  7.89796542E-03  4.20677755E-03  4.42202408E-03  1.31977298E-02  8.43755312E-03
  2.14052105E-02  3.67557582E-02  7.89804001E-03  2.76414239E-03  5.44122859E-03
  1.31983866E-02  8.43345573E-03  2.13988226E-02  3.67537340E-02  8.76382657E-03
  2.75706854E-03  3.90138592E-03  1.31972904E-02 -1.90582148E-01 -2.95121310E-01
 -8.85105495E-02 -2.12015886E-02 -8.39795621E-03 -1.18828800E-02 -2.46288588E-02
  1.90492992E-02  3.27268067E-02  9.37371260E-06  1.36227013E-05  2.29481642E-05
 -1.07144604E-01  2.55328056E-05  3.71171916E-05  6.22754424E-05 -1.34685163E-01
  3.13347917E-05  4.55231875E-05  7.71322205E-05 -6.68446801E-06 -5.72543569E-06
 -8.08204285E-06  1.11204148E-06 -3.41623027E-06 -6.13234670E+00  2.24016980E-04
  3.25334609E-04  5.54488777E-04  1.10226845E-03 -4.49252779E-02  3.99477965E-01
  9.28465911E-03  2.01826975E-06  7.52354181E-05  1.56276935E+00  1.10217273E-03
 -4.49260210E-02  3.99478808E-01 -3.09745230E-03  8.75287766E-03  7.52295029E-05
  1.56278207E+00  1.10249711E-03 -4.49234466E-02  3.99474970E-01 -3.15467575E-03
 -4.46377247E-03  7.50519186E-03  1.56273487E+00  1.11286138E-03 -4.48436729E-02
  3.99391419E-01 -3.02809986E-03 -4.28467930E-03 -7.64490486E-03  1.56139008E+00
  5.06771362E-09  4.18132407E-08  2.40974346E-02 -2.17621038E-02  2.50080585E-03
 -6.74694736E-07  7.10822589E-02 -6.41935320E-02  7.37686962E-03  4.27085536E-06
 -9.11544639E-02  8.23204973E-02 -9.46000150E-03  6.49533489E-04 -2.29957978E-04
 -4.75190401E-04  5.93932031E-03  2.51704318E-03 -2.46457241E-05  9.36343485E-01
 -8.45600547E-01  9.71731458E-02  1.70679864E-02 -2.15319680E-02  4.19633559E-01
 -3.66095678E-03 -2.30579518E-03  2.16927360E-04 -3.47731849E+00 -2.01974967E-02
  2.54797112E-02 -4.96576061E-01  9.86618060E-05  4.62577988E-03  3.21838978E-04
  4.11490712E+00  3.04122002E-03 -3.83672400E-03  7.47713803E-02  2.92960901E-03
 -1.77300038E-03 -6.29879858E-04 -6.19597952E-01  8.82213573E-05 -1.11412923E-04
  2.16876494E-03  2.55746559E-03 -2.28523050E-03  2.90884711E-04 -1.79712052E-02
 -2.44773431E-09  6.05460051E-08 -1.91668295E-02 -1.91468625E-02  1.80722287E-02
 -1.27222364E-06 -5.65367607E-02 -5.64779004E-02  5.33078703E-02  8.47023060E-06
  7.24972443E-02  7.24218307E-02 -6.83566427E-02  4.48168602E-03 -2.17800701E-03
 -3.06046360E-03 -1.76635388E-03  2.23470585E-03 -5.09579365E-05 -7.44723143E-01
 -7.43947848E-01  7.02191158E-01 -1.34661171E-02  1.69891473E-02 -3.31076622E-01
  2.87203093E-03 -2.02865550E-03  1.95268891E-03  2.74342314E+00 -8.14669034E-03
  1.02779187E-02 -2.00293850E-01 -3.02087137E-03  7.67179417E-04  1.93775220E-03
  1.65971076E+00  2.14663357E-02 -2.70832131E-02  5.27768822E-01  6.26660125E-04
  1.73152330E-03 -4.40151284E-03 -4.37327765E+00  1.46353139E-04 -1.84978833E-04
  3.59858897E-03 -2.00828932E-03 -1.99894637E-03  1.95407784E-03 -2.98170103E-02
 -6.15105332E-07 -3.36222438E-06  1.06160413E-02  1.48580974E-02  2.70007550E-02
  4.80014247E-05  3.12845086E-02  4.37853907E-02  7.95684763E-02 -2.94958383E-04
 -4.00104467E-02 -5.59979827E-02 -1.01761422E-01 -3.34724165E-03 -3.04623378E-03
 -4.31082754E-03  6.13236448E-04 -1.67534693E-03  1.65984626E-03  4.11661440E-01
  5.76155976E-01  1.04701275E+00  7.66977330E-03 -9.70838321E-03  1.88552487E-01
 -1.66803718E-03  1.57125043E-03  2.83375008E-03 -1.56066111E+00  7.56083489E-03
 -9.57038936E-03  1.85874390E-01  2.04097981E-03 -1.02191580E-03  2.83412247E-03
 -1.53849235E+00  7.83799610E-03 -9.92144160E-03  1.92687000E-01  2.09226651E-03
  2.94323981E-03  5.50371436E-04 -1.59488210E+00 -2.30634678E-02  2.92202151E-02
 -5.66917885E-01 -1.62865671E-03 -2.32178599E-03 -4.09071600E-03  4.69270335E+00
 -1.40425149E-05 -2.88869634E-05  3.59889833E-03  5.03369531E-03  9.14920710E-03
  1.39497615E-04  9.78468772E-03  1.36854962E-02  2.48745365E-02  1.10470853E-04
  4.11760602E-02  5.75924379E-02  1.04679818E-01 -2.32701463E-02 -2.11772468E-02
 -2.99687650E-02  4.27043274E-03 -1.16444266E-02 -7.49866903E-03 -1.21196637E+00
 -1.69515748E+00 -3.08111709E+00  1.70403187E-02 -4.09461609E-02  3.97978169E-01
  5.64694818E-03 -5.94748840E-03 -1.07335966E-02  1.70707883E+00  1.67840756E-02
 -4.03311804E-02  3.91996284E-01 -7.50693402E-03  3.24359789E-03 -1.07347332E-02
  1.68142259E+00  1.74062589E-02 -4.18236947E-02  4.06517941E-01 -7.68991378E-03
 -1.08117900E-02 -2.63901736E-03  1.74368662E+00 -5.12287855E-02  1.22842832E-01
 -1.19546702E+00  5.45644070E-03  7.79015133E-03  1.37005476E-02 -5.12595513E+00
  4.61396291E-07  9.40131995E-07 -6.45210347E-03 -6.58024839E-03  6.15820968E-03
 -4.42801740E-06 -1.76569894E-02 -1.80077607E-02  1.68526205E-02 -2.94629473E-06
 -7.34769620E-02 -7.49359481E-02  7.01302689E-02  3.12146469E-02 -1.51649531E-02
 -2.13170270E-02 -1.19271345E-02  1.56899801E-02  2.36892184E-04  2.16762879E+00
  2.21067468E+00 -2.06890200E+00 -2.95777624E-02  7.12150061E-02 -6.91505688E-01
 -9.62207642E-03  7.74851010E-03 -7.38674796E-03 -2.96719557E+00 -1.84797878E-02
  4.44951653E-02 -4.32047808E-01  1.11894111E-02 -2.39300863E-03 -7.33627639E-03
 -1.85388801E+00  4.77323818E-02 -1.14920326E-01  1.11592196E+00 -1.84845186E-03
 -5.61783418E-03  1.52062151E-02  4.78830729E+00  3.25158526E-04 -7.80862217E-04
  7.59308877E-03  7.53851166E-03  7.66379445E-03 -7.41010303E-03  3.25812705E-02
  2.12230188E-07  4.35102436E-07  8.25782715E-03 -7.35165153E-03  7.96482559E-04
 -2.08341591E-06  2.26019670E-02 -2.01217479E-02  2.18007569E-03 -1.54185604E-06
  9.40306884E-02 -8.37121262E-02  9.06913062E-03  4.25276477E-03 -1.46012444E-03
 -3.11957391E-03  4.14182277E-02  1.73748610E-02  1.11667356E-04 -2.77411856E+00
  2.46969914E+00 -2.67564193E-01  3.81609752E-02 -9.18845912E-02  8.92191728E-01
  1.24946636E-02  8.65796642E-03 -7.64376887E-04  3.82836770E+00 -4.47016913E-02
  1.07635596E-01 -1.04512044E+00 -1.03702675E-03 -1.58777318E-02 -1.14113284E-03
 -4.48459226E+00  6.33891797E-03 -1.52622419E-02  1.48199283E-01 -1.09787846E-02
  6.88180679E-03  2.04479742E-03  6.35915852E-01  2.01779463E-04 -4.84766577E-04
  4.71306605E-03 -9.76493196E-03  8.60501624E-03 -1.03488524E-03  2.02162275E-02
  3.74863149E-02  6.54083018E-02  2.79517876E-05  4.06261579E-05  6.83198496E-05
 -1.50984378E-01  1.52887111E-05  2.21962381E-05  3.79310802E-05 -5.29784316E-01
  1.44834938E-04  2.10594657E-04  3.51728464E-04  2.20119183E-05  1.89655776E-05
  2.67462955E-05 -3.66966075E-06  1.12593525E-05  1.45857617E+01 -1.06574653E-03
 -1.54863574E-03 -2.61535472E-03 -1.68165836E-02  1.66206025E-01 -1.39437434E+00
  3.06248755E-03  2.77130526E-07  2.41769549E-05 -2.64413994E+00 -1.68167255E-02
  1.66206224E-01 -1.39437790E+00 -1.02187749E-03  2.88650967E-03  2.41790932E-05
 -2.64413053E+00 -1.68163044E-02  1.66205700E-01 -1.39436481E+00 -1.04126567E-03
 -1.47336388E-03  2.47597479E-03 -2.64415732E+00 -1.68004123E-02  1.66183600E-01
 -1.39398700E+00 -1.01588667E-03 -1.43746962E-03 -2.56474601E-03 -2.64521085E+00
  1.64987413E-05  3.16038719E-05  4.95860606E-02  6.95033313E-02  1.26581142E-01
 -1.17961657E-04  3.29274954E-02  4.61535140E-02  8.40557611E-02  4.34668142E-05
  4.98826036E-01  6.99190220E-01  1.27338365E+00  1.47159955E-02  1.34275761E-02
  1.90016102E-02 -2.68488936E-03  7.36790884E-03 -1.07776396E-02 -3.62553417E-01
 -5.08179486E-01 -9.25506884E-01 -1.22583185E-02  4.27704584E-03 -9.68290220E-01
 -1.00923315E-02  2.42343928E-03  4.32221148E-03  1.14245428E+00 -1.21070910E-02
  4.22450574E-03 -9.56380072E-01  5.62668587E-03 -8.58303638E-03  4.32351207E-03
  1.12844157E+00 -1.26065944E-02  4.39828087E-03 -9.95737055E-01  5.86143287E-03
  8.27079525E-03 -5.40965119E-03  1.17473342E+00  3.71826025E-02 -1.29145196E-02
  2.92635580E+00 -9.89982185E-03 -1.40310708E-02 -2.49449757E-02 -3.43893399E+00
 -6.63551606E-07 -1.22442519E-06 -9.03597789E-02 -8.93762869E-02  8.44717191E-02
  3.93521834E-06 -5.97958736E-02 -5.91450193E-02  5.58993329E-02  6.52522895E-06
 -9.09979420E-01 -9.00074977E-01  8.50684174E-01 -1.97519281E-02  9.57491438E-03
  1.34531663E-02  7.90064553E-03 -9.81554496E-03  3.47299320E-04  6.59865154E-01
  6.52683611E-01 -6.16865320E-01  2.17275940E-02 -7.88279176E-03  1.72122957E+00
  1.78464566E-02 -3.10917159E-03  3.10352015E-03 -2.02182563E+00  1.29414463E-02
 -4.69530279E-03  1.02523908E+00 -7.31770351E-03  8.67627146E-03  3.03728777E-03
 -1.20433410E+00 -3.43923533E-02  1.24766617E-02 -2.72428921E+00  8.14878589E-03
  1.28693557E-02 -2.39085028E-02  3.19976438E+00 -2.83804163E-04  1.02499610E-04
 -2.23840339E-02 -3.04257710E-03 -2.97165908E-03  3.15143563E-03  2.61830462E-02
 -2.70409508E-07 -5.09037455E-07  1.12547878E-01 -1.02344180E-01  1.21065073E-02
  1.77825208E-06  7.44727570E-02 -6.77209682E-02  8.01083086E-03  8.92754856E-07
  1.13345595E+00 -1.03069586E+00  1.21923142E-01 -2.94272600E-03  1.06277205E-03
  2.15141217E-03 -2.61393385E-02 -1.11328407E-02  1.59661702E-04 -8.21873374E-01
  7.47361532E-01 -8.84074373E-02 -2.72825719E-02  9.90739593E-03 -2.16141927E+00
 -2.24419682E-02 -3.56243640E-03  2.15253626E-04  2.53860810E+00  3.24420551E-02
 -1.17814702E-02  2.57026062E+00 -6.54546761E-03  2.59863731E-02  6.66266692E-04
 -3.01890831E+00 -5.02724521E-03  1.82541362E-03 -3.98242925E-01  5.56672796E-03
 -1.22510349E-03 -3.50332425E-03  4.67699137E-01 -1.35424604E-04  4.89874019E-05
 -1.06890655E-02  3.94246276E-03 -3.48649071E-03  5.26564277E-04  1.25025683E-02
  5.04489490E-02  8.06525668E-02  1.80668643E-06  2.59654137E-06  5.18693103E-06
 -1.92277230E-02  2.83777321E-05  4.12427642E-05  6.95992283E-05 -4.02209433E+00
 -1.57592718E-04 -2.29542091E-04 -3.72919227E-04 -4.41448229E-06 -3.79360767E-06
 -5.27827268E-06  7.49119108E-07 -2.30327020E-06 -1.47405399E+01  8.51375803E-04
  1.23656262E-03  2.10408084E-03  4.14157248E-02 -2.88703222E-02  3.46678754E+00
 -3.07162715E-03  8.81896802E-07 -2.23037698E-05  2.00469332E+00  4.14155112E-02
 -2.88711808E-02  3.46682742E+00  1.02602573E-03 -2.89482032E-03 -2.22147170E-05
  2.00468192E+00  4.14162617E-02 -2.88674438E-02  3.46667902E+00  1.04541564E-03
  1.47934852E-03 -2.48189323E-03  2.00471013E+00  4.14389930E-02 -2.87811290E-02
  3.46247087E+00  1.01580170E-03  1.43730238E-03  2.56426996E-03  2.00601965E+00
 -1.10624148E-05  2.38454624E-07  2.90463867E-03  4.06096286E-03  7.37298171E-03
 -9.67811137E-05 -1.78848107E-02 -2.50049393E-02 -4.53987444E-02 -3.16652607E-03
 -4.87347108E-01 -6.81379115E-01 -1.23713475E+00  1.71621565E-02  1.56000232E-02
  2.20763442E-02 -3.15322639E-03  8.58769781E-03  2.14451245E-03  5.90564324E-01
  8.25691808E-01  1.49915546E+00  2.25772406E-02  5.53114221E-01 -5.32595033E-01
 -2.64229706E-02 -6.33227528E-03 -1.16665528E-02 -5.14248825E-01  2.22266581E-02
  5.44524738E-01 -5.24312024E-01  2.66568094E-03 -2.66504454E-02 -1.16643583E-02
 -5.06260583E-01  2.30015702E-02  5.63510153E-01 -5.42633136E-01  3.05398794E-03
  4.39768207E-03 -2.95207297E-02 -5.23894930E-01 -6.77405638E-02 -1.65966691E+00
  1.60210064E+00 -2.59188315E-02 -3.65988970E-02 -6.54982335E-02  1.54213146E+00
  3.11738746E-07 -2.04785086E-08 -5.27038796E-03 -5.35900221E-03  5.02748316E-03
  2.62563383E-06  3.23040960E-02  3.28470865E-02 -3.08155555E-02  9.70095778E-05
  8.72918897E-01  8.87583352E-01 -8.32717388E-01 -2.31675822E-02  1.12701862E-02
  1.58429045E-02  8.89580357E-03 -1.16384745E-02 -3.76424851E-05 -1.05743692E+00
 -1.07520085E+00  1.00873892E+00 -3.91673095E-02 -9.60922619E-01  9.24329827E-01
  4.62192970E-02  8.25154681E-03 -7.44302474E-03  8.97090645E-01 -2.43575848E-02
 -5.97584902E-01  5.74813418E-01  2.04365036E-04  3.05892476E-02 -7.55559017E-03
  5.57893521E-01  6.31326448E-02  1.54887805E+00 -1.48998830E+00  2.89920003E-02
  3.77925559E-02 -5.73746746E-02 -1.44597461E+00  3.90907585E-04  9.58840952E-03
 -9.25248234E-03  8.20529097E-03  8.39260089E-03 -7.39637063E-03 -8.95673063E-03
  1.59994138E-07 -6.11228021E-09  6.73255763E-03 -6.00606643E-03  6.55877444E-04
  1.39012185E-06 -4.12620423E-02  3.68095615E-02 -4.01956032E-03  4.71751015E-05
 -1.11476309E+00  9.94471565E-01 -1.08588522E-01 -3.18726526E-03  1.10303361E-03
  2.33230095E-03 -3.07575971E-02 -1.29223358E-02 -2.68998440E-05  1.35039118E+00
 -1.20467363E+00  1.31540699E-01  5.04231552E-02  1.23710541E+00 -1.18997734E+00
 -5.94212825E-02  9.24184389E-03 -1.39202349E-03 -1.15503944E+00 -5.91520444E-02
 -1.45126438E+00  1.39594407E+00 -2.95719218E-02  6.34970272E-02 -5.60480920E-04
  1.35499779E+00  8.45891174E-03  2.07535037E-01 -1.99640420E-01 -7.56341528E-03
  1.32016747E-02 -7.66023987E-03 -1.93768045E-01  2.69126150E-04  6.60262286E-03
 -6.36788210E-03 -1.02348850E-02  9.32737610E-03 -7.89955739E-04 -6.15947839E-03
  1.88991756E-02  3.27977592E-02  1.08037834E-03  1.56953813E-03  2.62655272E-03
  2.45811333E-01  4.18312272E-03  6.07694419E-03  1.01683181E-02 -2.40415798E+00
 -8.66865668E-03 -1.25936228E-02 -2.10602232E-02  5.53411586E-04  4.70778651E-04
  6.66280041E-04 -9.18700671E-05  2.81873042E-04  8.73044647E+00  3.99565865E-03
  5.80475540E-03  9.69183239E-03  5.26473716E-02  1.49007799E+00 -1.66174530E+00
 -2.45120204E-02  2.80201731E-04  2.77748369E-04 -1.28362131E+00  5.26372666E-02
  1.49000291E+00 -1.66140271E+00  8.44600595E-03 -2.30259603E-02  2.77958693E-04
 -1.28398397E+00  5.26738555E-02  1.49027015E+00 -1.66263960E+00  8.57488402E-03
  1.21409453E-02 -1.94543441E-02 -1.28266332E+00  5.37884500E-02  1.49855594E+00
 -1.70037859E+00  7.54624696E-03  1.06848650E-02  1.90327067E-02 -1.24274931E+00
 -1.60480085E-04 -2.58439946E-04  8.37659894E-02  1.17396824E-01  2.13867514E-01
 -4.39021964E-03  3.43885864E-01  4.81950986E-01  8.77992798E-01  3.49434306E-02
 -6.97455254E-01 -9.77473611E-01 -1.78071038E+00  3.74078548E-02  3.41407466E-02
  4.83130987E-02 -6.82704515E-03  1.87276054E-02 -1.03288366E-01  3.46330565E-01
  4.85377126E-01  8.84232484E-01 -2.28910063E-02 -1.93512255E-01  7.80928398E-01
 -2.40738530E-02  2.12250832E-02  3.83631833E-02 -7.76517617E-01 -2.26131676E-02
 -1.91339184E-01  7.71438616E-01  2.80714768E-02 -1.52780473E-02  3.83676311E-02
 -7.66656466E-01 -2.35313787E-02 -1.98520342E-01  8.02798896E-01  2.88646850E-02
  4.06387025E-02  6.05188871E-03 -7.99237793E-01  6.67222099E-02  5.07312839E-01
 -2.27963447E+00 -2.41066086E-02 -3.43148745E-02 -6.04285644E-02  2.40348192E+00
  5.26966602E-06  8.50153209E-06 -1.53162633E-01 -1.50709428E-01  1.42719145E-01
  1.41269908E-04 -6.29122605E-01 -6.19046107E-01  5.86224998E-01 -1.12607428E-03
  1.27509299E+00  1.25466998E+00 -1.18814941E+00 -5.00997150E-02  2.42812381E-02
  3.41079574E-02  2.01816360E-02 -2.48241787E-02  3.38041380E-03 -6.32458468E-01
 -6.22328811E-01  5.89332085E-01  3.96665840E-02  3.11901599E-01 -1.35695680E+00
  4.27279196E-02 -2.72916443E-02  2.63871813E-02  1.40695824E+00  2.34424423E-02
  1.84521416E-01 -8.01932058E-01 -4.16298553E-02  1.19442162E-02  2.61651759E-02
  8.31015315E-01 -6.25328403E-02 -4.90494474E-01  2.13926727E+00  1.00754914E-02
  2.62100071E-02 -6.40221004E-02 -2.22103660E+00 -5.00264549E-04 -3.45931973E-03
  1.71437042E-02 -2.73774636E-02 -2.68070238E-02  2.65685621E-02 -1.89345262E-02
  2.35916266E-06  3.79501470E-06  1.89907555E-01 -1.73333692E-01  2.07660384E-02
  6.48367375E-05  7.80064448E-01 -7.11985721E-01  8.52986243E-02 -5.14989818E-04
 -1.58099261E+00  1.44301432E+00 -1.72878506E-01 -7.57680814E-03  2.73325253E-03
  5.53912702E-03 -6.62586361E-02 -2.82915510E-02  1.52746116E-03  7.84167130E-01
 -7.15730536E-01  8.57471828E-02 -4.95477563E-02 -3.88836465E-01  1.69510095E+00
 -5.37068994E-02 -3.13872181E-02  3.08095958E-03 -1.75945172E+00  5.90964017E-02
  4.64239353E-01 -2.02174484E+00 -6.69628925E-04  6.76128382E-02  4.57061154E-03
  2.09736547E+00 -9.27360959E-03 -7.26032226E-02  3.17274756E-01  4.00005568E-02
 -2.34463431E-02 -9.57839010E-03 -3.29738836E-01 -2.40833706E-04 -1.67746896E-03
  8.25196471E-03  3.44732782E-02 -3.11226308E-02  4.12447562E-03 -9.07804206E-03
  1.18157469E-01  2.50166200E-01 -6.13527079E-05 -8.92084676E-05 -1.49296678E-04
 -2.11105020E+00 -1.27637407E-04 -1.85574727E-04 -3.11640203E-04  6.22869308E+00
  3.46562474E-04  5.04152854E-04  8.37724589E-04 -2.41258145E-04 -2.05963816E-04
 -2.91827433E-04  3.99157108E-05 -1.22659519E-04  3.09448359E+00 -4.38742416E-04
 -6.37401925E-04 -1.08055850E-03  5.57837287E-02 -2.07405535E-01 -1.94045923E+00
  1.59779550E-01 -2.67509176E-05  1.19165622E-03 -1.96275210E-01  5.57840404E-02
 -2.07399741E-01 -1.94050036E+00 -5.33612400E-02  1.50608869E-01  1.19091971E-03
 -1.96249759E-01  5.57829371E-02 -2.07418182E-01 -1.94035918E+00 -5.43436119E-02
 -7.68968077E-02  1.29082454E-01 -1.96328332E-01  5.57494451E-02 -2.08048577E-01
 -1.93594133E+00 -5.20769072E-02 -7.36884899E-02 -1.31471389E-01 -1.99129167E-01
  1.77418058E-07  4.13035999E-07  7.39903635E-06 -1.93501705E-06 -1.80640438E-06
 -4.23014973E-06  1.15790432E-04 -2.99416881E-05 -2.82444191E-05  1.52060992E-05
 -2.81080652E-04  7.42595743E-05  6.86920580E-05  9.20406249E-02 -3.51361594E-01
  2.42756680E-01  5.85254141E-02 -1.48234126E-01  9.00668052E-06  9.22403756E-05
 -2.44663941E-05 -2.25521913E-05 -1.54891857E-05  7.90622433E-05  1.12000256E-04
  2.14131186E-03 -1.18822050E-01 -2.84623495E-01 -1.55946479E-04  9.14495702E-06
 -4.96672528E-05 -7.14977152E-05 -1.17200228E-01 -4.37771053E-02  2.81739894E-01
  8.97713723E-05  6.28748973E-06 -3.47477610E-05 -5.19168594E-05 -1.74220061E-01
  2.43875967E-01  7.19136256E-02  6.28095824E-05 -3.79560618E-08 -1.69063806E-06
 -4.62092012E-06  2.89554234E-01 -8.13501683E-02 -6.90973452E-02 -4.43360401E-07
  6.44047417E-08  1.50645234E-07  1.12070547E-06  6.85037033E-06 -4.00753431E-06
 -1.54902525E-06  1.79947039E-05  1.07666803E-04 -6.25766101E-05  5.54179317E-06
 -4.15725012E-05 -2.59203700E-04  1.52543679E-04  2.13628134E-01  1.44175866E-01
 -1.14789447E-01  1.21085758E-01 -3.49276585E-01  3.24035001E-06  1.35143449E-05
  8.49298576E-05 -5.00980612E-05 -2.08139852E-06  1.02010073E-05  1.59296357E-05
 -9.26658274E-04 -2.84413000E-01  1.18666444E-01 -2.27717967E-05 -1.25505423E-05
  6.49080706E-05  9.37878161E-05 -2.65859191E-01 -9.31694744E-02 -1.25349763E-01
 -1.27083702E-04  1.43495615E-05 -7.56894317E-05 -1.10229395E-04  2.31678587E-01
  1.16532792E-01  1.66910957E-01  1.44524715E-04  2.48349729E-07 -2.00362818E-06
 -5.29282258E-06  3.51471220E-02  2.61302647E-01 -1.60377281E-01  3.96679861E-06
  5.68312728E-10  1.27592707E-09 -2.85586987E-05 -3.71508949E-05  3.28562888E-05
 -6.80390129E-09 -1.89056711E-04 -2.47610129E-04  2.26166981E-04 -2.85833444E-08
 -7.16859534E-04 -9.33882486E-04  8.31937480E-04  8.42507705E-04 -4.29747754E-04
 -6.07269834E-04 -2.07137398E-04  4.68125950E-04  2.56266532E-08  5.32720566E-04
  6.94638693E-04 -6.21577918E-04 -1.75863125E-04  1.18356922E-03 -5.79050054E-04
  3.14995098E-03 -3.10862460E-03 -3.82472159E-01 -4.32762028E-04 -1.57521216E-04
  1.05941418E-03 -5.19002158E-04  1.03869673E-02  6.75104695E-03 -3.52325278E-01
 -3.86666943E-04  3.40212944E-04 -2.28579499E-03  1.12199327E-03  3.05412400E-01
  4.13907017E-01  3.74432108E-01  8.32057463E-04 -6.82976706E-06  4.28497907E-05
 -2.39417616E-05 -3.18518235E-01 -4.16988686E-01  3.59869224E-01 -1.26472795E-05
 -9.37428475E-11 -2.03007765E-10  4.63089453E-05 -3.39575697E-05  1.41532042E-06
  1.08096653E-09  3.08935881E-04 -2.28508467E-04  9.21600419E-06  4.43894080E-09
  1.16440882E-03 -8.55421012E-04  3.54208391E-05  1.94198934E-05 -6.04859439E-06