FCHK generated by IOData                                                
NA        NA                                                           NA
Number of atoms                            I                8
Number of electrons                        I               18
Charge                                     I                0
Multiplicity                               I                1
Number of alpha electrons                  I                9
Number of beta electrons                   I                9
Atomic numbers                             I   N=           8
           6           6           1           1           1           1
           1           1
Nuclear charges                            R   N=           8
  6.00000000E+00  6.00000000E+00  1.00000000E+00  1.00000000E+00  1.00000000E+00
  1.00000000E+00  1.00000000E+00  1.00000000E+00
Current cartesian coordinates              R   N=          24
  1.89736062E+00 -5.57469207E-03 -1.20942472E-02  4.75447534E+00 -1.32658774E-02
  1.11493841E-03  1.17607105E+00  1.93205599E+00 -3.09915085E-03  1.16049971E+00
 -9.82166256E-01  1.65466309E+00  1.17610885E+00 -9.60774557E-01 -1.69805120E+00
  5.47576491E+00  9.48831488E-01  1.68302788E+00  5.49133625E+00  9.56371495E-01
 -1.66970531E+00  5.47572711E+00 -1.95100994E+00  1.13383568E-04
Number of basis functions                  I               86
Number of independent functions            I               86
Number of contracted shells                I               50
Number of primitive shells                 I               80
Pure/Cartesian d shells                    I                0
Pure/Cartesian f shells                    I                0
Highest angular momentum                   I                2
Largest degree of contraction              I                6
Shell types                                I   N=          50
           0           0           1           0           1           0
           1          -2           0           1           0           0
           1           0           1           0           1          -2
           0           1           0           0           0           1
           0           0           0           0           1           0
           0           0           0           1           0           0
           0           0           1           0           0           0
           0           1           0           0           0           0
           1           0
Number of primitives per shell             I   N=          50
           6           3           3           1           1           1
           1           1           1           1           6           3
           3           1           1           1           1           1
           1           1           3           1           1           1
           1           3           1           1           1           1
           3           1           1           1           1           3
           1           1           1           1           3           1
           1           1           1           3           1           1
           1           1
Shell to atom map                          I   N=          50
           1           1           1           1           1           1
           1           1           1           1           2           2
           2           2           2           2           2           2
           2           2           3           3           3           3
           3           4           4           4           4           4
           5           5           5           5           5           6
           6           6           6           6           7           7
           7           7           7           8           8           8
           8           8
Primitive exponents                        R   N=          80
  4.56324000E+03  6.82024000E+02  1.54973000E+02  4.44553000E+01  1.30290000E+01
  1.82773000E+00  2.09642000E+01  4.80331000E+00  1.45933000E+00  2.09642000E+01
  4.80331000E+00  1.45933000E+00  4.83456000E-01  4.83456000E-01  1.45585000E-01
  1.45585000E-01  6.26000000E-01  4.38000000E-02  4.38000000E-02  4.56324000E+03
  6.82024000E+02  1.54973000E+02  4.44553000E+01  1.30290000E+01  1.82773000E+00
  2.09642000E+01  4.80331000E+00  1.45933000E+00  2.09642000E+01  4.80331000E+00
  1.45933000E+00  4.83456000E-01  4.83456000E-01  1.45585000E-01  1.45585000E-01
  6.26000000E-01  4.38000000E-02  4.38000000E-02  3.38650000E+01  5.09479000E+00
  1.15879000E+00  3.25840000E-01  1.02741000E-01  7.50000000E-01  3.60000000E-02
  3.38650000E+01  5.09479000E+00  1.15879000E+00  3.25840000E-01  1.02741000E-01
  7.50000000E-01  3.60000000E-02  3.38650000E+01  5.09479000E+00  1.15879000E+00
  3.25840000E-01  1.02741000E-01  7.50000000E-01  3.60000000E-02  3.38650000E+01
  5.09479000E+00  1.15879000E+00  3.25840000E-01  1.02741000E-01  7.50000000E-01
  3.60000000E-02  3.38650000E+01  5.09479000E+00  1.15879000E+00  3.25840000E-01
  1.02741000E-01  7.50000000E-01  3.60000000E-02  3.38650000E+01  5.09479000E+00
  1.15879000E+00  3.25840000E-01  1.02741000E-01  7.50000000E-01  3.60000000E-02
Contraction coefficients                   R   N=          80
  1.96665000E-03  1.52306000E-02  7.61269000E-02  2.60801000E-01  6.16462000E-01
  2.21006000E-01  1.14660000E-01  9.19999000E-01 -3.03068000E-03  4.02487000E-02
  2.37594000E-01  8.15854000E-01  1.00000000E+00  1.00000000E+00  1.00000000E+00
  1.00000000E+00  1.00000000E+00  1.00000000E+00  1.00000000E+00  1.96665000E-03
  1.52306000E-02  7.61269000E-02  2.60801000E-01  6.16462000E-01  2.21006000E-01
  1.14660000E-01  9.19999000E-01 -3.03068000E-03  4.02487000E-02  2.37594000E-01
  8.15854000E-01  1.00000000E+00  1.00000000E+00  1.00000000E+00  1.00000000E+00
  1.00000000E+00  1.00000000E+00  1.00000000E+00  2.54938000E-02  1.90373000E-01
  8.52161000E-01  1.00000000E+00  1.00000000E+00  1.00000000E+00  1.00000000E+00
  2.54938000E-02  1.90373000E-01  8.52161000E-01  1.00000000E+00  1.00000000E+00
  1.00000000E+00  1.00000000E+00  2.54938000E-02  1.90373000E-01  8.52161000E-01
  1.00000000E+00  1.00000000E+00  1.00000000E+00  1.00000000E+00  2.54938000E-02
  1.90373000E-01  8.52161000E-01  1.00000000E+00  1.00000000E+00  1.00000000E+00
  1.00000000E+00  2.54938000E-02  1.90373000E-01  8.52161000E-01  1.00000000E+00
  1.00000000E+00  1.00000000E+00  1.00000000E+00  2.54938000E-02  1.90373000E-01
  8.52161000E-01  1.00000000E+00  1.00000000E+00  1.00000000E+00  1.00000000E+00
Coordinates of each shell                  R   N=         150
  1.89736062E+00 -5.57469207E-03 -1.20942472E-02  1.89736062E+00 -5.57469207E-03
 -1.20942472E-02  1.89736062E+00 -5.57469207E-03 -1.20942472E-02  1.89736062E+00
 -5.57469207E-03 -1.20942472E-02  1.89736062E+00 -5.57469207E-03 -1.20942472E-02
  1.89736062E+00 -5.57469207E-03 -1.20942472E-02  1.89736062E+00 -5.57469207E-03
 -1.20942472E-02  1.89736062E+00 -5.57469207E-03 -1.20942472E-02  1.89736062E+00
 -5.57469207E-03 -1.20942472E-02  1.89736062E+00 -5.57469207E-03 -1.20942472E-02
  4.75447534E+00 -1.32658774E-02  1.11493841E-03  4.75447534E+00 -1.32658774E-02
  1.11493841E-03  4.75447534E+00 -1.32658774E-02  1.11493841E-03  4.75447534E+00
 -1.32658774E-02  1.11493841E-03  4.75447534E+00 -1.32658774E-02  1.11493841E-03
  4.75447534E+00 -1.32658774E-02  1.11493841E-03  4.75447534E+00 -1.32658774E-02
  1.11493841E-03  4.75447534E+00 -1.32658774E-02  1.11493841E-03  4.75447534E+00
 -1.32658774E-02  1.11493841E-03  4.75447534E+00 -1.32658774E-02  1.11493841E-03
  1.17607105E+00  1.93205599E+00 -3.09915085E-03  1.17607105E+00  1.93205599E+00
 -3.09915085E-03  1.17607105E+00  1.93205599E+00 -3.09915085E-03  1.17607105E+00
  1.93205599E+00 -3.09915085E-03  1.17607105E+00  1.93205599E+00 -3.09915085E-03
  1.16049971E+00 -9.82166256E-01  1.65466309E+00  1.16049971E+00 -9.82166256E-01
  1.65466309E+00  1.16049971E+00 -9.82166256E-01  1.65466309E+00  1.16049971E+00
 -9.82166256E-01  1.65466309E+00  1.16049971E+00 -9.82166256E-01  1.65466309E+00
  1.17610885E+00 -9.60774557E-01 -1.69805120E+00  1.17610885E+00 -9.60774557E-01
 -1.69805120E+00  1.17610885E+00 -9.60774557E-01 -1.69805120E+00  1.17610885E+00
 -9.60774557E-01 -1.69805120E+00  1.17610885E+00 -9.60774557E-01 -1.69805120E+00
  5.47576491E+00  9.48831488E-01  1.68302788E+00  5.47576491E+00  9.48831488E-01
  1.68302788E+00  5.47576491E+00  9.48831488E-01  1.68302788E+00  5.47576491E+00
  9.48831488E-01  1.68302788E+00  5.47576491E+00  9.48831488E-01  1.68302788E+00
  5.49133625E+00  9.56371495E-01 -1.66970531E+00  5.49133625E+00  9.56371495E-01
 -1.66970531E+00  5.49133625E+00  9.56371495E-01 -1.66970531E+00  5.49133625E+00
  9.56371495E-01 -1.66970531E+00  5.49133625E+00  9.56371495E-01 -1.66970531E+00
  5.47572711E+00 -1.95100994E+00  1.13383568E-04  5.47572711E+00 -1.95100994E+00
  1.13383568E-04  5.47572711E+00 -1.95100994E+00  1.13383568E-04  5.47572711E+00
 -1.95100994E+00  1.13383568E-04  5.47572711E+00 -1.95100994E+00  1.13383568E-04
Total Energy                               R       0.00000000E+00
Alpha Orbital Energies                     R   N=          86
 -1.12118756E+01 -1.12112334E+01 -1.02193225E+00 -8.37232733E-01 -5.99631536E-01
 -5.99627569E-01 -5.09198907E-01 -4.85058060E-01 -4.85051634E-01  4.42477911E-02
  6.00979910E-02  6.75890133E-02  6.75892816E-02  9.93294898E-02  9.93301331E-02
  1.43070494E-01  1.48496142E-01  1.48497560E-01  1.75050042E-01  1.96523879E-01
  2.03335205E-01  2.03335376E-01  2.07723892E-01  3.00770424E-01  3.00771187E-01
  3.27155064E-01  3.27157215E-01  3.79280473E-01  4.11792322E-01  4.51164468E-01
  5.80835757E-01  5.80837535E-01  5.92155446E-01  5.92165521E-01  6.03239072E-01
  8.67055218E-01  8.67057365E-01  8.73552298E-01  8.73556567E-01  8.85102219E-01
  9.16427993E-01  9.25256387E-01  1.04868979E+00  1.08999537E+00  1.19768984E+00
  1.19769746E+00  1.52251936E+00  1.52253087E+00  1.72470123E+00  1.73406397E+00
  1.79403764E+00  1.79404208E+00  1.82942526E+00  1.82943199E+00  1.84953550E+00
  1.97739578E+00  1.97739784E+00  2.02809760E+00  2.14808524E+00  2.14809927E+00
  2.39424051E+00  2.40077927E+00  2.44105045E+00  2.44105622E+00  2.65748903E+00
  2.65749899E+00  2.77556079E+00  2.77937842E+00  2.77938207E+00  2.84680846E+00
  2.95174302E+00  2.95175233E+00  2.98472809E+00  2.98472944E+00  3.01368933E+00
  3.01372993E+00  3.16447375E+00  3.24520114E+00  3.61757773E+00  4.21916121E+00
  4.21918378E+00  4.23028910E+00  4.23029854E+00  4.66049752E+00  2.50949952E+01
  2.51675394E+01
Alpha MO coefficients                      R   N=        7396
  3.45802492E-02  7.01921069E-02  1.34324848E-01  5.54297137E-02  7.61203748E-02
 -2.08091777E-01  2.12261165E-01  8.55302694E-02  1.20296992E-01 -1.44205112E-01
  1.47140897E-01  5.41168900E-02  8.34086049E-02 -1.47982762E-02 -1.38259983E-02
 -1.94359431E-02  2.35964330E-03 -7.83239367E-03 -7.70240620E-02 -8.47061703E-03
 -1.16423141E-02 -4.72351587E-03 -3.84206031E-03 -6.75392511E-03 -2.58008671E-07
 -1.15450530E-02  6.80246915E-05  2.03724772E-02  2.82597868E-03 -1.46629254E-02
  1.70140851E-03  3.10020336E-02 -1.25400366E-02 -2.65602562E-02 -6.91165127E-03
  2.49669262E-04 -1.15745666E-02 -2.17201816E-03 -3.11164226E-03 -6.54309140E-03
  4.24841751E-02 -3.02057456E-03 -1.53899417E-02 -1.62711982E-03  8.49208600E-03
  2.11561726E-02  4.27891994E-02  7.55445796E-03  2.55329193E-03  5.68902071E-03
  1.51668925E-02  8.49092769E-03  2.11595087E-02  4.28057832E-02  8.76403323E-03
  2.54434783E-03  3.56611105E-03  1.52499351E-02 -1.91320894E-01 -2.98097012E-01
 -9.06895521E-02 -2.06982777E-02 -9.50740120E-03 -1.17210237E-02 -2.34266725E-02
 -9.53171611E-03 -2.78895392E-02 -3.24525470E-02  5.54707889E-04 -1.58932973E-04
  3.20053135E-04  6.06456475E-03  5.08509393E-03  1.10449581E-02  1.34946708E-02
 -3.31173225E-04 -1.25567364E-03 -1.45674291E-04 -7.48160476E-04  5.01185864E-03
  1.09101618E-02  1.33785704E-02 -3.01496782E-04 -1.26756778E-03 -2.00468590E-04
 -7.62460139E-04  3.45802109E-02  7.01935539E-02 -7.23199850E-04  5.54361803E-02
 -1.54393320E-01 -2.08100099E-01 -1.15275804E-03  8.55387376E-02 -2.43974640E-01
 -1.44193616E-01 -8.32021038E-04  5.41216988E-02 -1.69127888E-01  1.48960877E-02
  7.08062011E-05 -2.10136539E-04  1.95028770E-02  1.58915905E-02 -7.70087407E-02
  3.66050005E-05 -1.16419079E-02  9.69900801E-03 -3.82634708E-03 -6.74015930E-03
 -5.07626895E-05 -1.15459911E-02 -3.53997497E-05  2.03689482E-02 -8.00368328E-05
 -1.46641528E-02 -3.30056200E-03  3.09940484E-02  3.42409504E-05 -2.65610835E-02
  1.43149453E-02  3.61985798E-03  5.12994358E-05  4.87491335E-05 -1.16623379E-03
  1.32951291E-02  4.24748705E-02 -4.05148498E-05 -1.53886390E-02  3.43022573E-03
 -1.91325261E-01 -2.98094948E-01 -9.06830129E-02  1.09135293E-04 -9.50840924E-03
  2.37863381E-02 -2.34278590E-02  8.49188478E-03  2.11546468E-02  4.27863743E-02
  1.17336394E-03  2.54212056E-03 -9.38685998E-03  1.51652770E-02  8.49222455E-03
  2.11600607E-02  4.28035385E-02 -1.26989486E-03  2.55587642E-03 -9.37242984E-03
  1.52484971E-02  5.08101947E-03  1.10390373E-02  1.34924080E-02  2.80860283E-05
 -1.25594116E-03  3.59840621E-04 -7.49037391E-04  5.01155629E-03  1.09093320E-02
  1.33779876E-02 -3.50044906E-05 -1.26743268E-03  3.61478271E-04 -7.60964589E-04
 -9.53126571E-03 -2.78878376E-02 -3.24509285E-02 -1.74828605E-06 -1.59181520E-04
 -6.40534779E-04  6.06519706E-03 -3.45812324E-02 -7.01946233E-02  1.32826690E-01
 -5.66723887E-02 -7.78211935E-02  2.08101527E-01  2.09909278E-01 -8.74919818E-02
 -1.22983055E-01  1.44196240E-01  1.45546124E-01 -5.54749974E-02 -8.52810984E-02
  1.41485962E-02 -1.39808697E-02 -1.96461384E-02 -2.47500078E-03  8.19027215E-03
  7.70051398E-02 -8.27321323E-03  1.17188007E-02  4.88206283E-03  3.83415630E-03
  6.74541429E-03  1.13161216E-04  1.15450526E-02 -6.16914185E-05 -2.03626269E-02
  2.95571877E-03  1.46366388E-02 -1.71948016E-03 -3.09889858E-02 -1.21314391E-02
  2.66729222E-02  7.18690806E-03 -4.52622747E-04 -1.14532705E-02 -2.12270681E-03
  3.20807033E-03  6.71171250E-03 -4.24714245E-02 -2.84766159E-03  1.54142454E-02
  1.67879304E-03 -8.49317959E-03 -2.11613873E-02 -4.28037449E-02  7.45822852E-03
 -2.62562396E-03 -5.78573490E-03 -1.52501390E-02  1.91324815E-01  2.98094349E-01
  9.06817143E-02 -2.04554244E-02  9.69975510E-03  1.19877582E-02  2.34284314E-02
 -8.49394487E-03 -2.11575710E-02 -4.27868098E-02  8.69142078E-03 -2.62290919E-03
 -3.67692240E-03 -1.51646876E-02 -5.00969975E-03 -1.09069550E-02 -1.33780427E-02
 -3.18916405E-04  1.27031332E-03  1.50232150E-04  7.61211058E-04  9.53154489E-03
  2.78877060E-02  3.24481575E-02  5.55344354E-04  1.53700746E-04 -3.21706784E-04
 -6.06474185E-03 -5.08061820E-03 -1.10387348E-02 -1.34931129E-02 -2.85803524E-04
  1.25841272E-03  2.04238279E-04  7.48657137E-04  3.82914040E-03  6.74138063E-03
 -1.10479126E-04 -1.15496173E-02  7.10751216E-05 -2.03634881E-02 -2.95362244E-03
 -1.46441278E-02  1.73061345E-03 -3.09897342E-02  1.22275862E-02 -2.66776374E-02
 -7.01657685E-03 -4.66729658E-04 -1.14811022E-02 -2.13175411E-03  3.19904095E-03
  6.66332424E-03 -4.24711263E-02  2.86326855E-03 -1.54142018E-02 -1.65227301E-03
 -3.45593847E-02 -7.01759886E-02 -1.33136061E-01  5.66764375E-02  7.72876678E-02
  2.08098645E-01 -2.10398769E-01  8.74987775E-02  1.22139746E-01  1.44195627E-01
 -1.45892361E-01  5.54795071E-02  8.46850331E-02  1.42842674E-02 -1.40125691E-02
 -1.95573979E-02 -2.39749163E-03  8.13513332E-03  7.70063185E-02  8.32281019E-03
 -1.17187367E-02 -4.79687318E-03 -5.00665161E-03 -1.09029887E-02 -1.33782910E-02
  2.87721250E-04 -1.27038783E-03 -2.03940757E-04  7.62260479E-04  9.53072494E-03
  2.78864490E-02  3.24473680E-02 -5.53465222E-04 -1.53996133E-04  3.24952593E-04
 -6.06513252E-03 -5.07888926E-03 -1.10348263E-02 -1.34897729E-02  3.18615348E-04
 -1.25852907E-03 -1.47916501E-04  7.47951592E-04 -8.47953346E-03 -2.11395779E-02
 -4.27947107E-02 -8.70988536E-03  2.62505666E-03  3.64131575E-03 -1.52478533E-02
  1.91324141E-01  2.98093973E-01  9.06818164E-02  2.05078343E-02 -9.69943735E-03
 -1.18978993E-02  2.34281801E-02 -8.50422931E-03 -2.11737699E-02 -4.27932997E-02
 -7.48004684E-03  2.62377937E-03  5.75252310E-03 -1.51672373E-02 -3.82984514E-03
 -6.74233828E-03 -8.28618416E-06  1.15450887E-02 -5.82400997E-05  2.03652185E-02
 -2.83720927E-03  1.46626614E-02 -1.68958328E-03  3.09905147E-02  1.24397985E-02
  2.65594616E-02  7.08226067E-03  2.35669848E-04 -1.15461846E-02 -2.16224485E-03
 -3.12004691E-03 -6.59158181E-03  4.24721729E-02  3.00557081E-03  1.53879123E-02
  1.65368329E-03  3.45592400E-02  7.01760141E-02 -1.34024037E-01 -5.54338530E-02
 -7.66538436E-02 -2.08099571E-01 -2.11781560E-01 -8.55347330E-02 -1.21137979E-01
 -1.44191295E-01 -1.46794105E-01 -5.41189177E-02 -8.40037949E-02 -1.46638634E-02
 -1.37965899E-02 -1.95278142E-02  2.43594241E-03 -7.88698980E-03 -7.70050859E-02
  8.42400689E-03  1.16414048E-02  4.80793841E-03  5.08260575E-03  1.10409117E-02
  1.34918430E-02  2.99207470E-04  1.25595398E-03  2.01493455E-04 -7.48091396E-04
  5.00873310E-03  1.09059753E-02  1.33788965E-02  3.32208178E-04  1.26721238E-03
  1.47435317E-04 -7.61874306E-04 -9.53127515E-03 -2.78875591E-02 -3.24500829E-02
 -5.56735323E-04  1.59090738E-04 -3.16817974E-04  6.06521744E-03 -1.91325542E-01
 -2.98094427E-01 -9.06823325E-02  2.06473532E-02  9.50859283E-03  1.18103829E-02
 -2.34282958E-02  8.50568358E-03  2.11761630E-02  4.27940702E-02 -8.74597715E-03
 -2.54281895E-03 -3.60209196E-03  1.51676498E-02  8.48164500E-03  2.11431965E-02
  4.27963191E-02 -7.53204092E-03 -2.55511979E-03 -5.72196778E-03  1.52461454E-02
 -3.81564943E-03 -6.73053153E-03  6.27857974E-05  1.15472181E-02  3.57557101E-05
  2.03650565E-02  9.47087902E-05  1.46662722E-02  3.30132136E-03  3.09967952E-02
  1.62981851E-04  2.65625838E-02 -1.43150682E-02  3.61917459E-03 -4.98562304E-06
  2.97962211E-05 -1.16595434E-03  1.32957386E-02  4.24816802E-02  7.11137517E-05
  1.53896886E-02 -3.43043318E-03  3.45578373E-02  7.01729867E-02  1.08823910E-04
 -5.54305162E-02  1.54394089E-01 -2.08088956E-01  1.81587627E-04 -8.55314617E-02
  2.43980135E-01 -1.44202026E-01  1.40945445E-04 -5.41185913E-02  1.69137240E-01
  1.48966509E-02  8.62989799E-06 -3.06180571E-05  1.95038827E-02  1.58902760E-02
 -7.70227425E-02  5.97596943E-05  1.16417859E-02 -9.69823383E-03 -9.53181493E-03
 -2.78895493E-02 -3.24516746E-02  5.51730975E-06  1.59043815E-04  6.40671110E-04
  6.06517140E-03  5.08362702E-03  1.10420545E-02  1.34931371E-02  3.67046190E-05
  1.25566855E-03 -3.59969443E-04 -7.47559771E-04  5.00690005E-03  1.09032938E-02
  1.33785330E-02 -2.66607100E-05  1.26735670E-03 -3.61472943E-04 -7.63426148E-04
  8.50285381E-03  2.11730877E-02  4.27956216E-02  1.23001323E-03 -2.55401419E-03
  9.37579425E-03  1.51692000E-02  8.48074628E-03  2.11432753E-02  4.27989777E-02
 -1.21318641E-03 -2.54376706E-03  9.38453781E-03  1.52477193E-02 -1.91320679E-01
 -2.98096619E-01 -9.06896132E-02 -6.44783158E-06  9.50731920E-03 -2.37865086E-02
 -2.34266065E-02 -3.68836675E-02 -7.39419597E-02  7.25352276E-04  1.56971809E-01
 -4.22977831E-04  2.26299226E-01  1.22380595E-03  2.64818717E-01 -7.13895590E-04
  1.33918499E-01  7.02846787E-04  1.51735654E-01 -4.09036192E-04 -1.49913567E-02
  2.40230931E-04 -3.57710412E-07  2.59666914E-02 -1.39509950E-04  5.69874655E-03
 -2.08842239E-05 -4.70841497E-03  1.24407474E-05 -3.69128036E-02 -7.39668633E-02
 -7.29560795E-04 -1.56971024E-01  4.23164393E-04  2.26302895E-01 -1.23076179E-03
 -2.64817473E-01  7.13905874E-04  1.33921688E-01 -7.06106398E-04 -1.51735178E-01
  4.10589341E-04 -1.49915251E-02  2.39672259E-04 -1.12017234E-06  2.59663581E-02
 -1.40185986E-04  5.70110420E-03  2.15930982E-05  4.70791121E-03 -1.19808771E-05
 -8.47426705E-03 -2.27118739E-02 -3.48313832E-02  3.02017139E-05  9.04902004E-03
 -1.86115097E-03 -7.41877517E-04 -8.47624937E-03 -2.27139933E-02 -3.48290790E-02
 -1.54232704E-03  9.06339985E-03  9.03804694E-04 -7.43183119E-04 -8.47420563E-03
 -2.27121685E-02 -3.48304271E-02  1.63832479E-03  9.04834545E-03  8.83752596E-04
 -7.41709792E-04 -8.47591906E-03 -2.27144067E-02 -3.48325600E-02 -1.63465232E-03
 -9.04891779E-03 -8.90167532E-04 -7.42636704E-04 -8.47229424E-03 -2.27081107E-02
 -3.48276491E-02  1.54654620E-03 -9.06356611E-03 -8.97502055E-04 -7.42446052E-04
 -8.47353915E-03 -2.27112020E-02 -3.48307783E-02 -3.79415044E-05 -9.04841622E-03
  1.86130367E-03 -7.41787793E-04 -8.48192327E-04 -1.52606579E-03  1.35676636E-05
  3.25656962E-03 -1.20585498E-05  4.21404233E-03  2.45561396E-05  5.82098561E-03
 -2.08823112E-05  4.29063152E-04  5.87936346E-06  1.62137378E-03 -7.95805727E-06
 -4.70878637E-04  7.72389379E-06  2.04413713E-07  8.16597288E-04 -4.04126859E-06
 -3.99868018E-03 -7.14705002E-06 -1.57166344E-03  4.42706907E-06 -5.68274465E-01
 -4.75397553E-01  2.27057945E-06  4.64116076E-04 -1.01152140E-06  1.97570851E-02
 -1.53924243E-07 -4.83551456E-05  1.55517267E-07  1.81835591E-02  1.40767328E-06
  2.56896135E-04 -3.06865823E-07 -4.90458258E-05  9.02900434E-07  1.87608937E-08
  8.50289272E-05 -1.86395691E-07  7.87814169E-03 -4.12936638E-06 -9.04365633E-04
  2.50890957E-06 -2.76786461E-04 -4.71324200E-04 -8.58160268E-04  3.52386059E-07
  1.65193518E-04 -6.60583125E-05 -1.33782724E-04 -2.73658996E-04 -4.66296725E-04
 -8.56021256E-04 -5.62265382E-05  1.65911783E-04  3.26107752E-05 -1.33212312E-04
 -2.71414387E-04 -4.62754546E-04 -8.54517784E-04  5.82227460E-05  1.65503666E-04
  3.22010886E-05 -1.32719311E-04  4.40309225E-03  6.58662677E-03 -1.37751566E-03
 -9.07074346E-04 -3.48204079E-04 -5.19079407E-04 -2.64900666E-04  4.40276150E-03
  6.58595180E-03 -1.37797487E-03  9.01433601E-04 -3.56563834E-04 -5.23099881E-04
 -2.64807744E-04  4.40219324E-03  6.58485984E-03 -1.37855235E-03  7.32044276E-07
 -3.48079613E-04  1.04496199E-03 -2.64712297E-04 -5.68272579E-01 -4.75393625E-01
 -1.77661430E-06 -4.49304388E-04  1.62724657E-06  1.97458181E-02  5.79002414E-07
  7.22028030E-05  3.56488050E-07  1.81753785E-02 -9.44501711E-07 -2.41798699E-04
  6.38201471E-07 -5.02659657E-05  8.08254450E-07 -1.61337521E-09  8.71484134E-05
 -1.45780195E-07  7.87162854E-03  4.17013631E-06  9.03514432E-04 -2.51023836E-06
 -8.49396912E-04 -1.52773536E-03 -1.50326372E-05 -3.26839046E-03  1.26180554E-05
  4.21813882E-03 -2.68819512E-05 -5.84000967E-03  2.17561625E-05  4.32667354E-04
 -7.47567888E-06 -1.63457979E-03  8.58358013E-06 -4.71650245E-04  7.54979721E-06
 -1.36028568E-08  8.18025826E-04 -4.05432603E-06 -3.99712219E-03  7.23933265E-06
  1.57069002E-03 -4.44823483E-06  4.39578992E-03  6.57480645E-03 -1.38074991E-03
 -5.02044688E-06  3.48512811E-04 -1.04382043E-03 -2.64367563E-04  4.39586945E-03
  6.57532517E-03 -1.37973786E-03 -8.98139191E-04  3.56900938E-04  5.26272383E-04
 -2.64557217E-04  4.39531248E-03  6.57451498E-03 -1.37965923E-03  9.07988942E-04
  3.48426252E-04  5.14641715E-04 -2.64596311E-04 -2.75357954E-04 -4.69417944E-04
 -8.57214125E-04 -5.77298560E-05 -1.65959444E-04 -3.19533782E-05 -1.32668778E-04
 -2.75489754E-04 -4.69594042E-04 -8.57219708E-04  5.59381779E-05 -1.66476258E-04
 -3.23463771E-05 -1.32718801E-04 -2.80312845E-04 -4.77332542E-04 -8.60416898E-04
 -5.29401076E-07 -1.65645512E-04  6.55169101E-05 -1.33600647E-04  1.13789865E-02
  2.00318072E-02  2.47816395E-02 -6.67225899E-05  1.15523360E-04 -7.31828812E-02
  2.15722506E-02 -5.69151568E-05  1.02018028E-04 -4.65119515E-02  1.05600504E-01
 -2.86188513E-04  4.93745120E-04  1.29725180E-03 -2.11023761E-05 -2.84801327E-07
 -2.24726178E-03  1.21619756E-05 -3.78125143E+00  3.97184285E-01 -1.07615246E-03
  1.83466386E-03  1.13789842E-02  2.00318006E-02 -2.47816387E-02  6.76897691E-05
 -1.14878823E-04 -7.31828265E-02 -2.15722115E-02  6.06571031E-05 -9.94258187E-05
 -4.65122093E-02 -1.05600587E-01  2.89699872E-04 -4.91510154E-04  1.29771684E-03
 -2.09291878E-05  6.94938082E-08 -2.24700318E-03  1.23998337E-05 -3.78126043E+00
 -3.97183940E-01  1.06676821E-03 -1.84336677E-03 -1.88626008E-03 -3.38887316E-02
  3.74032995E-01  1.84137425E-04  7.96998235E-03  4.94929366E-05  1.21364770E+00
 -1.88585970E-03 -3.38882396E-02  3.74029861E-01  1.20108876E-04 -4.02781439E-03
  6.87882053E-03  1.21364754E+00 -1.88515591E-03 -3.38835985E-02  3.74023735E-01
  1.84549263E-04 -3.94296397E-03 -6.92553399E-03  1.21353557E+00 -1.88633930E-03
 -3.38893388E-02  3.74033737E-01 -1.84126178E-04  3.96827740E-03  6.91210347E-03
  1.21366303E+00 -1.88576618E-03 -3.38878170E-02  3.74029186E-01 -1.20127912E-04
  4.00298811E-03 -6.89320673E-03  1.21363678E+00 -1.88519149E-03 -3.38836833E-02
  3.74025298E-01 -1.84529910E-04 -7.96930151E-03 -2.08482081E-05  1.21353649E+00
  1.16269197E-02  2.00194055E-02  3.71974431E-03 -9.60121365E-06  1.74712614E-05
 -6.46912945E-02  1.12860407E-02 -2.86756091E-05  5.34795093E-05 -1.47849319E-01
 -1.09730959E-01  2.95283771E-04 -5.04501026E-04  3.05205064E-04 -5.27558249E-06
 -3.36426795E-07 -5.29126529E-04  2.67321730E-06 -1.02698247E+01 -1.01960429E+00
  2.73224262E-03 -4.69896356E-03 -1.16269087E-02 -2.00193835E-02  3.71972188E-03
 -1.04192383E-05  1.69205528E-05  6.46911784E-02  1.12859820E-02 -3.21417517E-05
  5.10464378E-05  1.47849568E-01 -1.09730949E-01  2.92347758E-04 -5.06267475E-04
 -3.05781590E-04  4.84197912E-06 -1.09598475E-07  5.28790793E-04 -3.28445966E-06
  1.02698262E+01 -1.01960402E+00  2.72748634E-03 -4.69618455E-03 -5.14640546E-04
 -4.05428777E-02  3.22257403E-01 -2.87550598E-03  6.17747143E-03  2.80077740E-05
  1.92668607E+00 -5.14777803E-04 -4.05427795E-02  3.22246050E-01 -2.92514800E-03
 -3.11298180E-03  5.30895140E-03  1.92667994E+00 -5.14696234E-04 -4.05397466E-02
  3.22244612E-01 -2.87517159E-03 -3.04078110E-03 -5.37677256E-03  1.92655685E+00
  5.14639549E-04  4.05431815E-02 -3.22256902E-01 -2.87553104E-03 -3.06677630E-03
 -5.36262479E-03 -1.92669752E+00  5.14786993E-04  4.05424821E-02 -3.22244582E-01
 -2.92512991E-03 -3.08727292E-03  5.32386961E-03 -1.92666380E+00  5.14691269E-04
  4.05398728E-02 -3.22247299E-01 -2.87516774E-03  6.17703277E-03 -1.57981590E-06
 -1.92656216E+00  7.85818860E-08  1.13908323E-07 -1.26092709E-04 -1.04076753E-02
  2.12138090E-02 -2.39798901E-07 -3.47559042E-04 -2.86353930E-02  5.83858650E-02
 -2.76677035E-06  3.64035916E-04  2.99064602E-02 -6.03823391E-02  2.65536111E-04
  5.00511997E-03 -6.11311065E-04  9.36815164E-05 -2.46063376E-03 -3.58499696E-04
 -6.08422424E-03 -4.98239441E-01  1.00261671E+00 -1.97301238E-08 -1.40654759E-08
 -1.26267869E-04 -1.03994834E-02  2.12177873E-02  5.98623132E-10 -3.47761057E-04
 -2.86277264E-02  5.83895732E-02  8.67127600E-07  3.62727982E-04  2.94284175E-02
 -6.06177584E-02 -2.90910341E-04 -5.01051587E-03  5.97361426E-04 -1.08336043E-04
  2.44960534E-03  3.74005067E-04 -6.07550364E-03 -4.87625376E-01  1.00783390E+00
 -3.71148387E-03 -2.61131594E-03 -5.82364268E-02 -1.36350935E-03  2.12773019E-03
  1.20704178E-03  1.37418314E+00  8.52676364E-03  5.65504878E-03  1.34618912E-01
  3.13388724E-03  2.53636628E-03 -4.14134957E-03 -3.13475847E+00 -4.81495265E-03
 -3.04730713E-03 -7.63454220E-02 -1.74230699E-03 -2.31089900E-03 -1.84418686E-03
  1.76064435E+00  4.77852213E-03  3.30583640E-03  7.51134572E-02 -1.74936987E-03
 -2.31716116E-03 -1.83480584E-03 -1.76559606E+00 -8.52989260E-03 -5.63268866E-03
 -1.34724934E-01  3.13330750E-03  2.52119537E-03 -4.15077687E-03  3.13434616E+00
  3.75106183E-03  2.33137874E-03  5.95750933E-02 -1.35584471E-03  2.13308715E-03
  1.19921431E-03 -1.36882926E+00  1.65173859E-07  2.78956912E-07  9.55425375E-06
  2.12140313E-02  1.04083868E-02 -5.59281947E-07  2.55153617E-05  5.83866228E-02
  2.86365769E-02 -6.72683583E-06 -2.14833721E-05 -6.03875795E-02 -2.98981455E-02
 -4.87973194E-04  2.46472360E-03 -2.43966239E-04 -2.77497097E-04  5.01105913E-03
  1.36477137E-04  4.06811113E-04  1.00268448E+00  4.98153041E-01  1.68995529E-07
  2.75435202E-07  8.52934545E-06  2.12184698E-02  1.03993516E-02 -5.24651258E-07
  2.44348314E-05  5.83908879E-02  2.86279108E-02 -7.26083531E-06 -3.18013425E-05
 -6.06129039E-02 -2.94370642E-02  4.76261790E-04 -2.45364268E-03  2.72663209E-04
  2.70653097E-04 -5.01650543E-03 -3.57323764E-05  4.97007707E-04  1.00778660E+00
  4.87725957E-01  7.70264230E-03  5.02687457E-03  1.21798456E-01  2.78721305E-03
 -4.40647566E-03  5.68090292E-04 -2.82647779E+00 -6.36737109E-04 -2.54228322E-04
 -1.04492310E-02 -2.21987454E-04  9.70919819E-04  9.75161196E-04  2.23325258E-01
 -7.06585731E-03 -4.76880387E-03 -1.11351570E-01 -2.56723515E-03 -1.34300201E-03
 -3.89667227E-03  2.60309921E+00  7.09026903E-03  4.59975396E-03  1.12183644E-01
 -2.56261986E-03 -1.35720760E-03 -3.89171485E-03 -2.60000903E+00  5.93602034E-04
  5.59401157E-04  8.98320115E-03 -2.30046317E-04  9.75134646E-04  9.70466444E-04
 -2.28861731E-01 -7.68367191E-03 -5.15744033E-03 -1.21151539E-01  2.79076824E-03
 -4.40449137E-03  5.84197633E-04  2.82885237E+00  1.28113494E-07  2.16461434E-07
 -1.12515661E-04 -9.12452907E-03  1.90099261E-02 -6.70346975E-07 -3.29795076E-04
 -2.66638601E-02  5.55562617E-02 -5.37254717E-06  6.81201969E-04  5.46346752E-02
 -1.14388140E-01 -1.32727639E-03 -3.84262817E-03  3.26423642E-03 -7.20886721E-04
  1.83384028E-03  2.34193134E-05 -9.09029673E-03 -7.31351849E-01  1.53159058E+00
  7.11854856E-08  1.23245481E-07  1.12537595E-04  9.06159132E-03 -1.90398498E-02
 -4.84010757E-07  3.29640304E-04  2.64840286E-02 -5.56419049E-02 -4.14059545E-06
 -6.79742068E-04 -5.46967527E-02  1.14359058E-01 -1.33117311E-03 -3.84320207E-03
  3.26217060E-03 -7.23130541E-04  1.83268169E-03  4.04614212E-05  9.07473415E-03
  7.32463731E-01 -1.53106167E+00 -4.23733202E-03  2.24790994E-03 -1.37123169E-01
 -1.27767626E-03  2.07096918E-03  5.78173221E-03  1.87771383E+00  9.95267376E-03
 -4.92423225E-03  3.20140095E-01  2.97612196E-03  2.92565484E-03 -3.96686101E-03
 -4.39945768E+00 -5.71527441E-03  2.67726086E-03 -1.83010181E-01 -1.70998334E-03
 -5.95469789E-03  1.44897178E-04  2.52170679E+00 -5.65838666E-03  2.93412952E-03
 -1.82742463E-01  1.69440787E-03  5.94507865E-03 -1.74150704E-04  2.50537292E+00
  9.95834464E-03 -4.89828275E-03  3.20165367E-01 -2.97771546E-03 -2.91789238E-03