FCHK generated by IOData                                                
NA        NA                                                           NA
Number of atoms                            I                9
Number of electrons                        I               44
Charge                                     I                0
Multiplicity                               I                1
Number of alpha electrons                  I               22
Number of beta electrons                   I               22
Atomic numbers                             I   N=           9
          16           6           6           6           6           1
           1           1           1
Nuclear charges                            R   N=           9
  1.60000000E+01  6.00000000E+00  6.00000000E+00  6.00000000E+00  6.00000000E+00
  1.00000000E+00  1.00000000E+00  1.00000000E+00  1.00000000E+00
Current cartesian coordinates              R   N=          27
 -9.77952167E-01 -2.40017895E+00 -5.27233589E-03 -2.46214307E+00  4.74245668E-01
 -3.60748717E-02 -7.67323293E-01  2.44948190E+00 -6.79356542E-02  1.78573450E+00
  1.59007225E+00 -6.70096884E-02  1.94088101E+00 -1.00845235E+00 -3.44875018E-02
 -4.50323625E+00  5.73834235E-01 -2.93285495E-02 -1.33191677E+00  4.41702695E+00
 -9.08013403E-02  3.42597898E+00  2.81521950E+00 -8.90816896E-02  3.62674348E+00
 -2.16294273E+00 -2.63994740E-02
Number of basis functions                  I              146
Number of independent functions            I              146
Number of contracted shells                I               74
Number of primitive shells                 I              129
Pure/Cartesian d shells                    I                0
Pure/Cartesian f shells                    I                0
Highest angular momentum                   I                2
Largest degree of contraction              I                6
Shell types                                I   N=          74
           0           0           0           0           0           0
           1           1           1           1           1          -2
           0           1           0           0           1           0
           1           0           1          -2           0           1
           0           0           1           0           1           0
           1          -2           0           1           0           0
           1           0           1           0           1          -2
           0           1           0           0           1           0
           1           0           1          -2           0           1
           0           0           0           1           0           0
           0           0           1           0           0           0
           0           1           0           0           0           0
           1           0
Number of primitives per shell             I   N=          74
           6           3           1           1           1           1
           4           2           1           1           1           1
           1           1           6           3           3           1
           1           1           1           1           1           1
           6           3           3           1           1           1
           1           1           1           1           6           3
           3           1           1           1           1           1
           1           1           6           3           3           1
           1           1           1           1           1           1
           3           1           1           1           1           3
           1           1           1           1           3           1
           1           1           1           3           1           1
           1           1
Shell to atom map                          I   N=          74
           1           1           1           1           1           1
           1           1           1           1           1           1
           1           1           2           2           2           2
           2           2           2           2           2           2
           3           3           3           3           3           3
           3           3           3           3           4           4
           4           4           4           4           4           4
           4           4           5           5           5           5
           5           5           5           5           5           5
           6           6           6           6           6           7
           7           7           7           7           8           8
           8           8           8           9           9           9
           9           9
Primitive exponents                        R   N=         129
  9.34134000E+04  1.39617000E+04  3.16991000E+03  9.02456000E+02  2.97158000E+02
  1.08702000E+02  1.08702000E+02  4.31553000E+01  1.81079000E+01  5.56009000E+00
  2.13183000E+00  4.20403000E-01  1.36045000E-01  4.95040000E+02  1.17221000E+02
  3.77749000E+01  1.40584000E+01  5.56574000E+00  2.26297000E+00  8.07994000E-01
  2.77460000E-01  7.71410000E-02  6.50000000E-01  4.05000000E-02  4.05000000E-02
  4.56324000E+03  6.82024000E+02  1.54973000E+02  4.44553000E+01  1.30290000E+01
  1.82773000E+00  2.09642000E+01  4.80331000E+00  1.45933000E+00  2.09642000E+01
  4.80331000E+00  1.45933000E+00  4.83456000E-01  4.83456000E-01  1.45585000E-01
  1.45585000E-01  6.26000000E-01  4.38000000E-02  4.38000000E-02  4.56324000E+03
  6.82024000E+02  1.54973000E+02  4.44553000E+01  1.30290000E+01  1.82773000E+00
  2.09642000E+01  4.80331000E+00  1.45933000E+00  2.09642000E+01  4.80331000E+00
  1.45933000E+00  4.83456000E-01  4.83456000E-01  1.45585000E-01  1.45585000E-01
  6.26000000E-01  4.38000000E-02  4.38000000E-02  4.56324000E+03  6.82024000E+02
  1.54973000E+02  4.44553000E+01  1.30290000E+01  1.82773000E+00  2.09642000E+01
  4.80331000E+00  1.45933000E+00  2.09642000E+01  4.80331000E+00  1.45933000E+00
  4.83456000E-01  4.83456000E-01  1.45585000E-01  1.45585000E-01  6.26000000E-01
  4.38000000E-02  4.38000000E-02  4.56324000E+03  6.82024000E+02  1.54973000E+02
  4.44553000E+01  1.30290000E+01  1.82773000E+00  2.09642000E+01  4.80331000E+00
  1.45933000E+00  2.09642000E+01  4.80331000E+00  1.45933000E+00  4.83456000E-01
  4.83456000E-01  1.45585000E-01  1.45585000E-01  6.26000000E-01  4.38000000E-02
  4.38000000E-02  3.38650000E+01  5.09479000E+00  1.15879000E+00  3.25840000E-01
  1.02741000E-01  7.50000000E-01  3.60000000E-02  3.38650000E+01  5.09479000E+00
  1.15879000E+00  3.25840000E-01  1.02741000E-01  7.50000000E-01  3.60000000E-02
  3.38650000E+01  5.09479000E+00  1.15879000E+00  3.25840000E-01  1.02741000E-01
  7.50000000E-01  3.60000000E-02  3.38650000E+01  5.09479000E+00  1.15879000E+00
  3.25840000E-01  1.02741000E-01  7.50000000E-01  3.60000000E-02
Contraction coefficients                   R   N=         129
  7.43000000E-04  5.79300000E-03  2.99540000E-02  1.19028000E-01  3.68432000E-01
  5.77299000E-01  1.43186000E-01  6.24465000E-01  2.83366000E-01  1.00000000E+00
  1.00000000E+00  1.00000000E+00  1.00000000E+00  8.30900000E-03  6.40240000E-02
  2.77614000E-01  7.45076000E-01  6.13712000E-01  4.43818000E-01  1.00000000E+00
  1.00000000E+00  1.00000000E+00  1.00000000E+00  1.00000000E+00  1.00000000E+00
  1.96665000E-03  1.52306000E-02  7.61269000E-02  2.60801000E-01  6.16462000E-01
  2.21006000E-01  1.14660000E-01  9.19999000E-01 -3.03068000E-03  4.02487000E-02
  2.37594000E-01  8.15854000E-01  1.00000000E+00  1.00000000E+00  1.00000000E+00
  1.00000000E+00  1.00000000E+00  1.00000000E+00  1.00000000E+00  1.96665000E-03
  1.52306000E-02  7.61269000E-02  2.60801000E-01  6.16462000E-01  2.21006000E-01
  1.14660000E-01  9.19999000E-01 -3.03068000E-03  4.02487000E-02  2.37594000E-01
  8.15854000E-01  1.00000000E+00  1.00000000E+00  1.00000000E+00  1.00000000E+00
  1.00000000E+00  1.00000000E+00  1.00000000E+00  1.96665000E-03  1.52306000E-02
  7.61269000E-02  2.60801000E-01  6.16462000E-01  2.21006000E-01  1.14660000E-01
  9.19999000E-01 -3.03068000E-03  4.02487000E-02  2.37594000E-01  8.15854000E-01
  1.00000000E+00  1.00000000E+00  1.00000000E+00  1.00000000E+00  1.00000000E+00
  1.00000000E+00  1.00000000E+00  1.96665000E-03  1.52306000E-02  7.61269000E-02
  2.60801000E-01  6.16462000E-01  2.21006000E-01  1.14660000E-01  9.19999000E-01
 -3.03068000E-03  4.02487000E-02  2.37594000E-01  8.15854000E-01  1.00000000E+00
  1.00000000E+00  1.00000000E+00  1.00000000E+00  1.00000000E+00  1.00000000E+00
  1.00000000E+00  2.54938000E-02  1.90373000E-01  8.52161000E-01  1.00000000E+00
  1.00000000E+00  1.00000000E+00  1.00000000E+00  2.54938000E-02  1.90373000E-01
  8.52161000E-01  1.00000000E+00  1.00000000E+00  1.00000000E+00  1.00000000E+00
  2.54938000E-02  1.90373000E-01  8.52161000E-01  1.00000000E+00  1.00000000E+00
  1.00000000E+00  1.00000000E+00  2.54938000E-02  1.90373000E-01  8.52161000E-01
  1.00000000E+00  1.00000000E+00  1.00000000E+00  1.00000000E+00
Coordinates of each shell                  R   N=         222
 -9.77952167E-01 -2.40017895E+00 -5.27233589E-03 -9.77952167E-01 -2.40017895E+00
 -5.27233589E-03 -9.77952167E-01 -2.40017895E+00 -5.27233589E-03 -9.77952167E-01
 -2.40017895E+00 -5.27233589E-03 -9.77952167E-01 -2.40017895E+00 -5.27233589E-03
 -9.77952167E-01 -2.40017895E+00 -5.27233589E-03 -9.77952167E-01 -2.40017895E+00
 -5.27233589E-03 -9.77952167E-01 -2.40017895E+00 -5.27233589E-03 -9.77952167E-01
 -2.40017895E+00 -5.27233589E-03 -9.77952167E-01 -2.40017895E+00 -5.27233589E-03
 -9.77952167E-01 -2.40017895E+00 -5.27233589E-03 -9.77952167E-01 -2.40017895E+00
 -5.27233589E-03 -9.77952167E-01 -2.40017895E+00 -5.27233589E-03 -9.77952167E-01
 -2.40017895E+00 -5.27233589E-03 -2.46214307E+00  4.74245668E-01 -3.60748717E-02
 -2.46214307E+00  4.74245668E-01 -3.60748717E-02 -2.46214307E+00  4.74245668E-01
 -3.60748717E-02 -2.46214307E+00  4.74245668E-01 -3.60748717E-02 -2.46214307E+00
  4.74245668E-01 -3.60748717E-02 -2.46214307E+00  4.74245668E-01 -3.60748717E-02
 -2.46214307E+00  4.74245668E-01 -3.60748717E-02 -2.46214307E+00  4.74245668E-01
 -3.60748717E-02 -2.46214307E+00  4.74245668E-01 -3.60748717E-02 -2.46214307E+00
  4.74245668E-01 -3.60748717E-02 -7.67323293E-01  2.44948190E+00 -6.79356542E-02
 -7.67323293E-01  2.44948190E+00 -6.79356542E-02 -7.67323293E-01  2.44948190E+00
 -6.79356542E-02 -7.67323293E-01  2.44948190E+00 -6.79356542E-02 -7.67323293E-01
  2.44948190E+00 -6.79356542E-02 -7.67323293E-01  2.44948190E+00 -6.79356542E-02
 -7.67323293E-01  2.44948190E+00 -6.79356542E-02 -7.67323293E-01  2.44948190E+00
 -6.79356542E-02 -7.67323293E-01  2.44948190E+00 -6.79356542E-02 -7.67323293E-01
  2.44948190E+00 -6.79356542E-02  1.78573450E+00  1.59007225E+00 -6.70096884E-02
  1.78573450E+00  1.59007225E+00 -6.70096884E-02  1.78573450E+00  1.59007225E+00
 -6.70096884E-02  1.78573450E+00  1.59007225E+00 -6.70096884E-02  1.78573450E+00
  1.59007225E+00 -6.70096884E-02  1.78573450E+00  1.59007225E+00 -6.70096884E-02
  1.78573450E+00  1.59007225E+00 -6.70096884E-02  1.78573450E+00  1.59007225E+00
 -6.70096884E-02  1.78573450E+00  1.59007225E+00 -6.70096884E-02  1.78573450E+00
  1.59007225E+00 -6.70096884E-02  1.94088101E+00 -1.00845235E+00 -3.44875018E-02
  1.94088101E+00 -1.00845235E+00 -3.44875018E-02  1.94088101E+00 -1.00845235E+00
 -3.44875018E-02  1.94088101E+00 -1.00845235E+00 -3.44875018E-02  1.94088101E+00
 -1.00845235E+00 -3.44875018E-02  1.94088101E+00 -1.00845235E+00 -3.44875018E-02
  1.94088101E+00 -1.00845235E+00 -3.44875018E-02  1.94088101E+00 -1.00845235E+00
 -3.44875018E-02  1.94088101E+00 -1.00845235E+00 -3.44875018E-02  1.94088101E+00
 -1.00845235E+00 -3.44875018E-02 -4.50323625E+00  5.73834235E-01 -2.93285495E-02
 -4.50323625E+00  5.73834235E-01 -2.93285495E-02 -4.50323625E+00  5.73834235E-01
 -2.93285495E-02 -4.50323625E+00  5.73834235E-01 -2.93285495E-02 -4.50323625E+00
  5.73834235E-01 -2.93285495E-02 -1.33191677E+00  4.41702695E+00 -9.08013403E-02
 -1.33191677E+00  4.41702695E+00 -9.08013403E-02 -1.33191677E+00  4.41702695E+00
 -9.08013403E-02 -1.33191677E+00  4.41702695E+00 -9.08013403E-02 -1.33191677E+00
  4.41702695E+00 -9.08013403E-02  3.42597898E+00  2.81521950E+00 -8.90816896E-02
  3.42597898E+00  2.81521950E+00 -8.90816896E-02  3.42597898E+00  2.81521950E+00
 -8.90816896E-02  3.42597898E+00  2.81521950E+00 -8.90816896E-02  3.42597898E+00
  2.81521950E+00 -8.90816896E-02  3.62674348E+00 -2.16294273E+00 -2.63994740E-02
  3.62674348E+00 -2.16294273E+00 -2.63994740E-02  3.62674348E+00 -2.16294273E+00
 -2.63994740E-02  3.62674348E+00 -2.16294273E+00 -2.63994740E-02  3.62674348E+00
 -2.16294273E+00 -2.63994740E-02
Total Energy                               R       0.00000000E+00
Alpha Orbital Energies                     R   N=         146
 -9.19866552E+01 -1.12657916E+01 -1.12657530E+01 -1.12436486E+01 -1.12426342E+01
 -8.98945348E+00 -6.67153585E+00 -6.67089485E+00 -6.66933419E+00 -1.17504971E+00
 -9.90419715E-01 -9.83671669E-01 -7.67481741E-01 -7.53943008E-01 -6.98909709E-01
 -5.75768217E-01 -5.52077531E-01 -5.32650070E-01 -5.23405842E-01 -4.80019453E-01
 -3.48124766E-01 -3.26230819E-01  4.22015798E-02  4.75936786E-02  5.68266763E-02
  6.90339236E-02  9.60993139E-02  9.97584601E-02  1.07006699E-01  1.21659979E-01
  1.23799846E-01  1.46270418E-01  1.47791307E-01  1.53881529E-01  1.60495071E-01
  1.74275184E-01  1.85691023E-01  1.93204399E-01  1.94382788E-01  1.97763453E-01
  2.07896919E-01  2.11392230E-01  2.22750650E-01  2.23510463E-01  2.43836140E-01
  2.62388128E-01  2.62589089E-01  2.74979289E-01  2.81533228E-01  2.92998560E-01
  3.30168304E-01  4.00188410E-01  4.07651241E-01  4.24764390E-01  4.28491246E-01
  4.47127516E-01  4.57555630E-01  5.28706225E-01  5.88142681E-01  5.92313365E-01
  6.21902547E-01  6.63413637E-01  7.12268503E-01  7.31363067E-01  7.34509047E-01
  7.42345615E-01  7.82653037E-01  8.10554555E-01  8.22605556E-01  8.29381698E-01
  9.06624219E-01  9.47123347E-01  9.63340076E-01  9.74023270E-01  9.80043112E-01
  9.81793948E-01  9.82519379E-01  9.95106530E-01  1.00528871E+00  1.07367787E+00
  1.09499041E+00  1.11553921E+00  1.20991660E+00  1.22700804E+00  1.24283047E+00
  1.28403955E+00  1.30939916E+00  1.31444431E+00  1.34953110E+00  1.57064966E+00
  1.62830070E+00  1.63907364E+00  1.78356629E+00  1.81122335E+00  1.81246774E+00
  1.84053934E+00  1.88141116E+00  1.95896118E+00  1.97937457E+00  1.98019535E+00
  2.00306685E+00  2.03260959E+00  2.08386085E+00  2.09634457E+00  2.18360377E+00
  2.22385799E+00  2.23177340E+00  2.27585935E+00  2.28996730E+00  2.34128391E+00
  2.38900032E+00  2.42536116E+00  2.44033707E+00  2.56038815E+00  2.69261790E+00
  2.71549830E+00  2.80176752E+00  2.90543818E+00  2.94087838E+00  3.00267604E+00
  3.02039781E+00  3.04067155E+00  3.07808931E+00  3.09765763E+00  3.14690796E+00
  3.16880151E+00  3.25853848E+00  3.37553849E+00  3.51747171E+00  3.65802183E+00
  3.72043084E+00  3.75342765E+00  3.89406377E+00  3.91140016E+00  4.42732131E+00
  4.45400109E+00  4.74718384E+00  8.59947598E+00  1.83697823E+01  1.85326676E+01
  1.85685954E+01  2.47707005E+01  2.49995785E+01  2.52565920E+01  2.52957859E+01
  1.92438880E+02
Alpha MO coefficients                      R   N=       21316
 -7.91818931E-04 -2.33997175E-03  5.19113360E-03  1.00520385E-02 -2.16855674E-02
 -1.48263610E-02 -4.17873727E-05 -1.60370158E-03  3.53891490E-03 -8.34556096E-05
 -3.13881543E-03  7.06976257E-03  1.26635456E-04  4.01700314E-03 -1.11852404E-02
  3.02630749E-04  1.10169759E-02 -2.70984356E-02  3.12223924E-04 -2.91341928E-04
 -2.43614310E-02 -6.58166161E-04  1.27707208E-05 -7.68032629E-05 -4.83360835E-03
  1.43165546E-04  6.96648109E-02 -2.67936562E-04  7.30075384E-03  1.87606666E-02
 -7.68818659E-03 -1.41027030E-02 -1.96560278E-04  1.54856506E-02  1.06122389E-02
  4.18205337E-02 -2.36148898E-04  2.14992046E-02  1.18416979E-02  4.72988648E-02
 -4.14499596E-04  9.54082694E-03  2.95221846E-02 -1.48957709E-03 -9.28426708E-05
  1.76645440E-04  1.68325422E-02  1.28903687E-03 -2.66590606E-01  4.27896967E-04
 -6.83871501E-02 -1.24461883E-02  4.05815700E-02  8.14945257E-02  1.85446501E-03
  4.12697387E-02 -1.58184849E-01 -2.39807759E-01  2.82878420E-03  6.13497128E-02
 -2.40801832E-01 -2.08330859E-01  1.77636347E-03  4.33416973E-02 -1.52716089E-01
  8.74453692E-03 -1.68940697E-04  3.80190777E-04  1.84441253E-02  1.22357121E-02
  3.31605410E-01  1.73358327E-03  1.68233293E-02 -1.41137351E-01 -5.64779851E-03
 -1.02582308E-02  2.66884925E-06 -1.54250507E-02  4.53540119E-03  2.93360154E-02
 -1.10770965E-05 -2.19797936E-02  7.62598214E-03  5.13723900E-02 -1.03875921E-04
 -1.72779843E-02  1.34595516E-02 -7.22003479E-04 -1.96841185E-04  5.49764418E-05
  9.31967296E-03  1.21825496E-02 -2.69763651E-01 -9.81099506E-04  4.02320165E-02
  6.45475058E-02  3.26245502E-03  5.82939719E-03  7.68012186E-05  7.37703730E-04
 -6.24414442E-03 -1.89540611E-02  8.25200038E-05  4.20214229E-03 -7.75543232E-03
 -2.96235430E-02  2.63030075E-04  4.66730001E-03 -2.20493682E-02 -1.37228044E-03
  3.46213672E-05 -4.10967225E-05 -1.74160488E-03 -2.91315938E-03  1.12489088E-01
 -4.28164430E-04  1.13429390E-02  3.00968885E-02  4.22901436E-03  7.21748402E-03
  9.90473691E-03 -9.05247326E-06 -2.50518771E-03  1.47771004E-03 -1.81229887E-02
 -1.90425577E-01 -2.90276655E-01 -3.86959316E-02 -3.23702009E-04 -8.69226495E-03
  2.80696170E-02  4.62765130E-02  4.64423682E-03  6.87139419E-03  7.03247349E-03
 -3.64570911E-05  5.98784508E-04  2.67310662E-03 -2.03043025E-02  2.67829301E-03
  5.98045277E-03  3.60902922E-03  7.18558888E-06  1.71722470E-04 -6.16157476E-04
 -4.78554199E-03 -1.64650490E-04 -4.94028477E-04  1.09268149E-03  2.04927752E-03
 -3.64677833E-03 -2.74184261E-05 -8.42325420E-06 -5.83749546E-04  1.00354605E-03
 -1.72074211E-05 -1.18513893E-03  2.02478363E-03  3.13011473E-05  1.76124019E-03
 -2.97960940E-03  5.15964457E-05  2.62569314E-03 -4.86581578E-03  2.59230146E-06
 -1.15954840E-03  1.23194113E-04  7.14120043E-04 -1.39103109E-05  2.31869658E-05
  9.46132655E-04  1.19484337E-03 -1.51759824E-02  5.38278868E-05 -1.34561144E-03
 -3.80069629E-03  5.68399292E-01  4.75620600E-01  3.07317441E-05 -1.07463094E-04
 -2.37812739E-03 -2.09088111E-02  1.06427457E-05 -6.24958872E-04 -6.43456095E-04
 -1.88461096E-02  7.62234892E-06  2.27888303E-04 -6.85864500E-04  6.67316944E-04
  1.41491361E-06  1.53115957E-05  1.07579495E-04  2.15625831E-04  1.69545929E-02
 -3.33097044E-05  9.24063273E-03 -2.47372473E-04  1.52654841E-03  2.84681306E-03
 -5.90628108E-05  3.39867099E-03  3.60969817E-03 -7.93984482E-03 -1.02548197E-04
  6.01570720E-03  6.23146933E-03 -3.43126044E-03 -3.98694741E-05  1.33232581E-03
  2.74877603E-03  4.97280170E-04  1.97751842E-05  1.82481078E-05  1.63265843E-04
 -1.32703758E-03 -6.75949841E-03 -2.67174029E-05  2.29028256E-04  2.02393268E-03
 -2.19519534E-04 -3.86331635E-04  2.55163404E-06 -4.45082867E-04  7.26918791E-07
  1.12383454E-03  5.65204859E-06 -4.92227041E-04 -1.82217048E-04  1.64206343E-03
  5.93162044E-06 -1.22394105E-03  7.91036440E-06  6.43658028E-05  4.71401495E-06
 -3.70974805E-06 -4.54732931E-04 -1.98886122E-04 -6.81499324E-03 -3.98396002E-05
  3.85733543E-03  1.94550015E-03 -1.83670056E-04 -3.24178635E-04 -6.56168323E-07
 -3.22431276E-04  2.08714859E-04  9.25810611E-04  1.63697188E-06 -6.51277437E-04
  1.71764962E-04  1.12403779E-03 -3.12824445E-06 -9.15095603E-04  6.24527054E-04
  6.97212189E-05 -4.05528858E-07  1.16792223E-07 -9.23748116E-05  9.32783364E-05
  1.14265128E-02  2.04650228E-05 -2.93338738E-03 -6.92051224E-04 -4.79680794E-03
 -7.57953189E-03  1.87300407E-03  4.11223518E-06 -1.20224536E-03  4.74712752E-05
  4.23197941E-03  5.51005379E-04  8.91470084E-04  7.62519911E-04 -3.08897712E-06
  1.59879321E-04  1.94905056E-04 -6.51094002E-04 -2.89520794E-04 -5.14863229E-04
 -8.02563607E-04  6.02211186E-07 -6.43010976E-06 -3.99177680E-05 -1.57674471E-03
 -2.26888173E-04 -1.87565958E-04 -1.56534093E-04  2.21394669E-08 -3.71184983E-05
  1.43501300E-05 -1.71200270E-04 -9.05407924E-04 -2.69253292E-03  6.11696641E-03
  1.07411541E-02 -2.01323990E-02 -2.11875573E-02 -4.92864741E-05  1.10418245E-03
  3.27722915E-03 -9.91182514E-05  2.22737955E-03  6.61350437E-03  1.53402255E-04
 -3.64800457E-03 -1.08720424E-02  3.21241359E-04 -7.61665200E-03 -2.27022166E-02
  1.21273264E-04 -2.87174425E-03 -8.56118125E-03 -9.51627311E-04  1.02708227E-05
  2.48091314E-05  2.90557610E-03 -2.20836723E-03  4.17616145E-02 -1.65268173E-04
  3.97515922E-03  1.17315377E-02  6.17645689E-03  1.12226044E-02  2.87939404E-04
 -8.88182380E-03 -1.98189728E-02 -3.52009289E-02  3.82857995E-04 -9.11286000E-03
 -2.71750380E-02 -4.51688781E-02  5.37591446E-04 -4.54436852E-02 -2.81186230E-02
 -2.49239509E-03 -1.58361610E-04  9.40807083E-05  1.38048617E-02  6.83531661E-03
  2.03797717E-02 -1.33514931E-04 -2.38630879E-03  1.12036815E-02 -4.03440004E-02
 -8.11151841E-02 -1.87896013E-04  1.56379238E-01 -3.34750578E-02  2.46499676E-01
 -3.47185002E-04  2.52418781E-01 -5.05935894E-02  1.57529930E-01  1.02538412E-04
  1.17342507E-01 -4.42242968E-02 -1.01294895E-02  6.73545740E-05  1.25165278E-04
  2.19793264E-02 -1.74575542E-02 -3.09929209E-02 -1.76920855E-04 -2.96846131E-03
  1.47798680E-02 -4.03394776E-02 -8.11183337E-02 -2.96927838E-04 -1.44774198E-01
  6.79099269E-02  2.46539849E-01 -5.22495967E-04 -2.31596166E-01  1.12360682E-01
  1.57591554E-01  1.66595418E-05 -1.20190406E-01  3.57374936E-02 -1.01302380E-02
  5.19361733E-05  1.30734869E-04  2.27213968E-02 -1.64793159E-02 -3.11314460E-02
 -1.72100959E-04  1.12620001E-02  1.00325631E-02  6.17948385E-03  1.12290748E-02
  2.89180271E-04 -4.89357165E-03 -2.11576692E-02 -3.52235010E-02  3.82574754E-04
 -9.14628705E-03 -2.71615936E-02 -4.52149390E-02  5.61209895E-04  1.91901933E-02
 -4.99083231E-02 -2.49098199E-03  1.87158874E-04 -3.23488755E-05 -2.88311305E-03
 -1.51255723E-02  2.04842416E-02 -1.30718404E-04  8.71021543E-03  7.55996223E-03
  7.69499293E-03  1.37128345E-02  7.01715080E-03  1.03766231E-05 -2.02987873E-03
 -1.87867763E-04 -6.22563419E-03 -1.33032436E-02 -2.72357470E-02 -2.81701976E-02
 -2.57741598E-05  7.83965407E-03 -3.95523481E-04 -5.17525862E-03 -1.33126725E-02
 -2.72517833E-02 -2.81434095E-02 -3.10468150E-05 -6.47203024E-03  4.42959675E-03
 -5.16333679E-03  7.69234419E-03  1.37096132E-02  7.00696684E-03  1.16347089E-05
  1.50185250E-03 -1.37524745E-03 -6.23356269E-03  5.44385332E-04  1.63384349E-03
 -3.81610643E-03 -6.57444266E-03  1.60787340E-02  3.93543214E-03 -2.34571176E-03
 -3.57599581E-03 -9.20470691E-04 -4.46205518E-03 -6.95279605E-03 -1.75981934E-03
  6.44414490E-03  1.00477173E-02  3.79722083E-03  2.31878884E-02  2.70627487E-02
  7.93814265E-03  5.36092727E-02  1.26499620E-02  2.15809104E-02  8.20735544E-04
 -3.03815392E-02 -2.31697920E-03  5.22264273E-03 -1.08942607E-02 -5.35727237E-02
 -1.16821762E-02  4.88741274E-03 -2.79448532E-02 -2.95326164E-03 -5.37001982E-03
  3.11257153E-02  4.88152401E-03 -2.61381613E-04  1.58797688E-02  5.38743972E-02
  8.43836419E-03 -6.93216843E-03  2.27501984E-02  8.01899975E-02  1.47956742E-02
  3.63509077E-03  8.02068316E-04 -1.74180491E-03 -5.93248483E-03  6.51875679E-05
 -2.07153951E-03  7.89260009E-02  2.37560385E-02  1.33555092E-02 -1.21387767E-02
 -2.23743490E-03 -3.63706244E-03 -2.49548901E-02  6.68085815E-03 -8.03839031E-04
  1.12362422E-02 -4.27375155E-02  5.53310696E-03 -1.46530015E-03  2.18806106E-02
 -2.53494835E-02  2.47978315E-02 -1.30092783E-02  1.56833371E-03 -1.69522704E-02
  2.87535408E-03  1.90153789E-03  1.08365900E-02 -1.09253075E-01  3.35085788E-03
 -1.97555663E-02  2.82438505E-02  2.98798523E-02  6.17443179E-02 -1.15315002E-01
 -1.13043017E-02  1.04598445E-01 -1.88909821E-01 -1.97713063E-01 -2.12492728E-02
  1.63800903E-01 -8.85798994E-02 -1.75998194E-01  6.83738127E-03  6.86197338E-02
  6.46721332E-03  3.76787685E-03  1.86183252E-02  1.95901965E-02  2.50126355E-03
  6.32509864E-02 -2.04640888E-02 -3.42956947E-02 -8.72900309E-03  3.22576400E-02
  6.67009527E-02 -1.11958630E-01  1.58579080E-03 -1.09149003E-01 -2.06972211E-01
 -1.92450820E-01  5.57327645E-03 -1.67763907E-01 -1.16679388E-01 -1.95336854E-01
  3.52723833E-03 -9.83379022E-02  7.51947341E-03  7.84882949E-03 -1.66512914E-02
  1.43296475E-02  4.04881562E-03  1.71517049E-02 -2.34957249E-02 -9.66687308E-05
  1.96095799E-02 -8.32162361E-04  5.23377809E-04  1.49807463E-03  2.84009389E-03
  3.92982503E-04 -3.60601573E-05  6.60695561E-04 -4.60868079E-03 -9.21201770E-03
 -8.62160441E-03 -1.61161959E-03 -1.45496528E-04 -1.07092681E-03 -7.77905639E-03
  6.85165702E-03  1.33470836E-02  2.07478670E-02 -9.66790234E-03 -8.11863683E-04
  5.63856819E-03  1.31352775E-02  7.12058511E-03  1.27753058E-02  1.50028660E-02
 -9.10329749E-03 -6.04765347E-04 -4.49518785E-03  1.94002035E-03 -2.86808458E-02
 -1.13128968E-01  2.70001055E-01  2.99805704E-01  5.51901034E-04 -2.57268623E-02
 -2.22665024E-01 -2.21981592E-01  9.75214147E-02 -4.24055758E-01 -4.22969478E-01
  1.86362434E-01 -1.11498640E-02 -2.34199152E-02  1.26555478E-02  3.67607662E-02
  1.11902450E-02  8.11538063E-04  1.58758779E-02 -2.74127118E-03 -1.59635210E-03
 -1.67023016E-04  4.22045584E-04  1.38985091E-03  8.35573921E-04  1.18582271E-03
 -2.68309540E-02 -8.87076114E-04 -1.35172399E-03 -4.05405426E-03  9.09653568E-04
  1.70826061E-03  2.98927086E-03 -1.09542365E-03  2.71196509E-03 -4.21513408E-03
  5.22744153E-03 -2.81827927E-03  6.06425143E-03 -3.73067859E-03  4.75695596E-03
 -1.00519256E-03  1.09799095E-03  5.09923926E-04  4.49042601E-04 -1.45725263E-03
  1.06116126E-03  1.10092575E-03  2.73823854E-02 -1.04614873E-03  1.22061280E-02
 -1.31318805E-04 -6.19661208E-05 -7.59071116E-05 -1.85574950E-03 -2.64702293E-04
 -1.80878837E-04  9.98312212E-06 -3.04059015E-03 -2.82365781E-05 -7.43761850E-05
  1.45841391E-03 -4.99664898E-03 -6.72470662E-04 -9.84530121E-04 -2.19910128E-05
 -4.53416354E-04 -2.19232940E-04  2.98747688E-04 -2.55453613E-04 -4.97856377E-03
 -6.49282841E-04  2.87905102E-03  7.48019377E-03 -2.47706175E-05 -1.54556580E-05
 -1.94316716E-03 -2.24456618E-04  1.55759627E-04 -1.90989649E-04 -3.18209860E-03
 -2.81065639E-04 -3.33134203E-05  4.66319146E-04 -5.16740621E-03  6.10904150E-05
  1.06161499E-03 -4.76042029E-05  2.12983011E-04 -4.32747148E-04 -7.36426077E-05
  3.06246725E-04 -2.67419652E-02 -6.62641399E-04  1.21811147E-02  3.75757700E-03
 -3.94302475E-04 -6.70467905E-04  2.90384914E-03 -1.18909578E-03 -6.49970195E-04
  1.95705198E-03  5.08937113E-03 -1.24607290E-03 -9.29381528E-04  5.11911698E-03
  4.54220245E-03 -3.78564683E-03 -9.58646779E-04  2.15664189E-04 -1.25173123E-03
 -9.04519886E-04 -1.40483352E-04 -1.27680780E-04  3.01795490E-02 -1.03281267E-03
 -1.37776354E-02  3.23349476E-03  4.55740402E-04  3.73141889E-04  2.63855628E-03
  2.09284166E-04 -3.07827988E-04  3.06990809E-04  6.80842014E-03 -2.14416513E-04
 -2.79123589E-04 -1.08033302E-03 -1.64016887E-04  2.33303199E-05  5.23964116E-05
 -3.59722100E-03  2.18134076E-05  1.73914603E-04 -9.01321814E-04 -1.71233971E-04
  6.53947995E-05  2.31406235E-05 -4.62725845E-03 -1.08264629E-04 -4.04102982E-04
  1.35305087E-03  2.02676395E-04 -1.36402044E-04 -7.12653683E-05  4.98909993E-03
  4.84260074E-05  1.44631224E-04 -3.30227302E-04 -5.83918086E-04  1.20384438E-03
  5.50382021E-04  2.80251406E-06  2.87292906E-05 -2.13047828E-04  5.61454221E-06
  5.55569787E-05 -4.27770775E-04 -8.87929332E-06 -3.69614978E-05  7.09248215E-04
 -1.84786175E-05 -1.87791949E-04  1.50597149E-03 -1.35893905E-05  2.40985503E-04
  9.91272879E-04 -2.47334742E-05 -5.15053843E-07  4.83318732E-06  3.92873077E-04
 -9.41551221E-05 -3.53246351E-03  2.14234402E-05 -1.12662508E-03 -1.33265375E-03
  1.52511461E-03  2.82029660E-03  5.77110270E-05 -2.93318692E-03 -3.62136457E-03
 -7.91171988E-03  9.57519713E-05 -5.05174450E-03 -5.95134401E-03 -3.07632498E-03
  3.56900796E-05 -1.67357956E-03 -2.28332054E-03  4.96495367E-04  1.56368424E-05
  1.52445487E-05  3.52454121E-05 -9.71432990E-04 -1.02857413E-02  1.13559148E-05
 -1.88898319E-03 -3.07111151E-04  5.68447831E-01  4.75776117E-01 -9.01651336E-06
  4.64896476E-04  5.62366230E-04 -2.11356594E-02 -7.99987232E-06  2.79017775E-04
  5.38394026E-04 -1.70930938E-02 -2.78873808E-06 -2.32730234E-04  2.89577125E-04
  5.62412032E-04  4.78319139E-06  1.21443984E-05 -4.13658948E-05 -6.18586410E-05
  1.95799449E-02  1.00604992E-04  2.10820141E-03 -8.53899007E-03  1.19469389E-03
  2.15950954E-03  4.25335021E-06  3.62205333E-03 -1.45087268E-03 -5.94476597E-03
  8.65951693E-06  6.14976830E-03 -2.57622554E-03 -1.93721078E-03 -1.23996454E-06
  1.71506810E-03 -4.32460686E-04  4.24615136E-04 -1.93897419E-07 -3.77396633E-06
 -8.73910026E-04  5.11292927E-04 -1.78266738E-02 -5.54018161E-05  3.41536172E-03
  3.29199816E-03 -2.12156222E-04 -3.76924749E-04 -4.39117617E-06 -1.59042833E-04
  3.92736377E-04  1.12292511E-03 -2.05862934E-06 -4.29330178E-04  2.92611639E-04
  1.29510475E-03 -1.02412041E-05 -9.86557609E-04  1.10636054E-03  7.91901201E-05
 -5.46482591E-06  2.18971656E-06  1.64271883E-04  4.20374750E-04  1.02084079E-02
 -8.69827971E-06 -1.07123996E-03  1.01276662E-03  5.83137222E-04  9.96304076E-04
  1.00716505E-03  2.21224965E-06 -5.17595991E-05 -1.57442105E-04 -3.46247185E-04
 -4.65269315E-03 -7.54797143E-03  1.37948992E-03 -1.29766533E-05 -2.93161726E-04
  1.10814649E-03  3.18945276E-03  4.88392992E-04  9.24608177E-04  7.17502826E-04
  1.03646653E-06  1.22578294E-04 -1.19128892E-04 -1.22756515E-03 -2.65796605E-04
 -3.00404879E-04 -1.80183737E-04 -1.65402457E-07 -6.08833886E-05  3.17055698E-05
  4.56070985E-05  1.79318073E-03  5.31495470E-03 -1.19987240E-02 -2.16143161E-02
  4.24320933E-02  5.13314057E-02  5.92496537E-05 -5.01880000E-03 -2.52301475E-03
  1.16878585E-04 -9.98640851E-03 -4.98955404E-03 -1.42955418E-04  1.70049475E-02
  5.99097299E-03 -3.63611084E-04  3.45806300E-02  1.77479265E-02 -2.15349250E-05
  2.26717898E-02 -5.34385280E-03  1.97201167E-03 -1.34444567E-04 -1.61980872E-04
 -1.14509758E-02  1.51266248E-02 -3.53178718E-02  8.23262595E-05 -1.09391518E-02