FCHK generated by IOData                                                
NA        NA                                                           NA
Number of atoms                            I                8
Number of electrons                        I               16
Charge                                     I                0
Multiplicity                               I                1
Number of alpha electrons                  I                8
Number of beta electrons                   I                8
Atomic numbers                             I   N=           8
           5           5           1           1           1           1
           1           1
Nuclear charges                            R   N=           8
  5.00000000E+00  5.00000000E+00  1.00000000E+00  1.00000000E+00  1.00000000E+00
  1.00000000E+00  1.00000000E+00  1.00000000E+00
Current cartesian coordinates              R   N=          24
  1.67066718E+00  0.00000000E+00  0.00000000E+00 -1.67066718E+00  0.00000000E+00
  0.00000000E+00  2.76421579E+00  0.00000000E+00  1.96386386E+00 -2.76421579E+00
  0.00000000E+00 -1.96386386E+00  2.76421579E+00  0.00000000E+00 -1.96386386E+00
 -2.76421579E+00  0.00000000E+00  1.96386386E+00  0.00000000E+00 -1.84293651E+00
  0.00000000E+00  0.00000000E+00  1.84293651E+00  0.00000000E+00
Number of basis functions                  I               86
Number of independent functions            I               86
Number of contracted shells                I               50
Number of primitive shells                 I               80
Pure/Cartesian d shells                    I                0
Pure/Cartesian f shells                    I                0
Highest angular momentum                   I                2
Largest degree of contraction              I                6
Shell types                                I   N=          50
           0           0           1           0           1           0
           1          -2           0           1           0           0
           1           0           1           0           1          -2
           0           1           0           0           0           1
           0           0           0           0           1           0
           0           0           0           1           0           0
           0           0           1           0           0           0
           0           1           0           0           0           0
           1           0
Number of primitives per shell             I   N=          50
           6           3           3           1           1           1
           1           1           1           1           6           3
           3           1           1           1           1           1
           1           1           3           1           1           1
           1           3           1           1           1           1
           3           1           1           1           1           3
           1           1           1           1           3           1
           1           1           1           3           1           1
           1           1
Shell to atom map                          I   N=          50
           1           1           1           1           1           1
           1           1           1           1           2           2
           2           2           2           2           2           2
           2           2           3           3           3           3
           3           4           4           4           4           4
           5           5           5           5           5           6
           6           6           6           6           7           7
           7           7           7           8           8           8
           8           8
Primitive exponents                        R   N=          80
  2.85889000E+03  4.28140000E+02  9.75282000E+01  2.79693000E+01  8.21577000E+00
  1.11278000E+00  1.32415000E+01  3.00166000E+00  9.12856000E-01  1.32415000E+01
  3.00166000E+00  9.12856000E-01  3.15454000E-01  3.15454000E-01  9.88563000E-02
  9.88563000E-02  4.01000000E-01  3.15000000E-02  3.15000000E-02  2.85889000E+03
  4.28140000E+02  9.75282000E+01  2.79693000E+01  8.21577000E+00  1.11278000E+00
  1.32415000E+01  3.00166000E+00  9.12856000E-01  1.32415000E+01  3.00166000E+00
  9.12856000E-01  3.15454000E-01  3.15454000E-01  9.88563000E-02  9.88563000E-02
  4.01000000E-01  3.15000000E-02  3.15000000E-02  3.38650000E+01  5.09479000E+00
  1.15879000E+00  3.25840000E-01  1.02741000E-01  7.50000000E-01  3.60000000E-02
  3.38650000E+01  5.09479000E+00  1.15879000E+00  3.25840000E-01  1.02741000E-01
  7.50000000E-01  3.60000000E-02  3.38650000E+01  5.09479000E+00  1.15879000E+00
  3.25840000E-01  1.02741000E-01  7.50000000E-01  3.60000000E-02  3.38650000E+01
  5.09479000E+00  1.15879000E+00  3.25840000E-01  1.02741000E-01  7.50000000E-01
  3.60000000E-02  3.38650000E+01  5.09479000E+00  1.15879000E+00  3.25840000E-01
  1.02741000E-01  7.50000000E-01  3.60000000E-02  3.38650000E+01  5.09479000E+00
  1.15879000E+00  3.25840000E-01  1.02741000E-01  7.50000000E-01  3.60000000E-02
Contraction coefficients                   R   N=          80
  2.15375000E-03  1.65823000E-02  8.21870000E-02  2.76618000E-01  6.29316000E-01
  1.73770000E-01  1.17443000E-01  9.18002000E-01 -2.65105000E-03  4.18100000E-02
  2.36575000E-01  8.16214000E-01  1.00000000E+00  1.00000000E+00  1.00000000E+00
  1.00000000E+00  1.00000000E+00  1.00000000E+00  1.00000000E+00  2.15375000E-03
  1.65823000E-02  8.21870000E-02  2.76618000E-01  6.29316000E-01  1.73770000E-01
  1.17443000E-01  9.18002000E-01 -2.65105000E-03  4.18100000E-02  2.36575000E-01
  8.16214000E-01  1.00000000E+00  1.00000000E+00  1.00000000E+00  1.00000000E+00
  1.00000000E+00  1.00000000E+00  1.00000000E+00  2.54938000E-02  1.90373000E-01
  8.52161000E-01  1.00000000E+00  1.00000000E+00  1.00000000E+00  1.00000000E+00
  2.54938000E-02  1.90373000E-01  8.52161000E-01  1.00000000E+00  1.00000000E+00
  1.00000000E+00  1.00000000E+00  2.54938000E-02  1.90373000E-01  8.52161000E-01
  1.00000000E+00  1.00000000E+00  1.00000000E+00  1.00000000E+00  2.54938000E-02
  1.90373000E-01  8.52161000E-01  1.00000000E+00  1.00000000E+00  1.00000000E+00
  1.00000000E+00  2.54938000E-02  1.90373000E-01  8.52161000E-01  1.00000000E+00
  1.00000000E+00  1.00000000E+00  1.00000000E+00  2.54938000E-02  1.90373000E-01
  8.52161000E-01  1.00000000E+00  1.00000000E+00  1.00000000E+00  1.00000000E+00
Coordinates of each shell                  R   N=         150
  1.67066718E+00  0.00000000E+00  0.00000000E+00  1.67066718E+00  0.00000000E+00
  0.00000000E+00  1.67066718E+00  0.00000000E+00  0.00000000E+00  1.67066718E+00
  0.00000000E+00  0.00000000E+00  1.67066718E+00  0.00000000E+00  0.00000000E+00
  1.67066718E+00  0.00000000E+00  0.00000000E+00  1.67066718E+00  0.00000000E+00
  0.00000000E+00  1.67066718E+00  0.00000000E+00  0.00000000E+00  1.67066718E+00
  0.00000000E+00  0.00000000E+00  1.67066718E+00  0.00000000E+00  0.00000000E+00
 -1.67066718E+00  0.00000000E+00  0.00000000E+00 -1.67066718E+00  0.00000000E+00
  0.00000000E+00 -1.67066718E+00  0.00000000E+00  0.00000000E+00 -1.67066718E+00
  0.00000000E+00  0.00000000E+00 -1.67066718E+00  0.00000000E+00  0.00000000E+00
 -1.67066718E+00  0.00000000E+00  0.00000000E+00 -1.67066718E+00  0.00000000E+00
  0.00000000E+00 -1.67066718E+00  0.00000000E+00  0.00000000E+00 -1.67066718E+00
  0.00000000E+00  0.00000000E+00 -1.67066718E+00  0.00000000E+00  0.00000000E+00
  2.76421579E+00  0.00000000E+00  1.96386386E+00  2.76421579E+00  0.00000000E+00
  1.96386386E+00  2.76421579E+00  0.00000000E+00  1.96386386E+00  2.76421579E+00
  0.00000000E+00  1.96386386E+00  2.76421579E+00  0.00000000E+00  1.96386386E+00
 -2.76421579E+00  0.00000000E+00 -1.96386386E+00 -2.76421579E+00  0.00000000E+00
 -1.96386386E+00 -2.76421579E+00  0.00000000E+00 -1.96386386E+00 -2.76421579E+00
  0.00000000E+00 -1.96386386E+00 -2.76421579E+00  0.00000000E+00 -1.96386386E+00
  2.76421579E+00  0.00000000E+00 -1.96386386E+00  2.76421579E+00  0.00000000E+00
 -1.96386386E+00  2.76421579E+00  0.00000000E+00 -1.96386386E+00  2.76421579E+00
  0.00000000E+00 -1.96386386E+00  2.76421579E+00  0.00000000E+00 -1.96386386E+00
 -2.76421579E+00  0.00000000E+00  1.96386386E+00 -2.76421579E+00  0.00000000E+00
  1.96386386E+00 -2.76421579E+00  0.00000000E+00  1.96386386E+00 -2.76421579E+00
  0.00000000E+00  1.96386386E+00 -2.76421579E+00  0.00000000E+00  1.96386386E+00
  0.00000000E+00 -1.84293651E+00  0.00000000E+00  0.00000000E+00 -1.84293651E+00
  0.00000000E+00  0.00000000E+00 -1.84293651E+00  0.00000000E+00  0.00000000E+00
 -1.84293651E+00  0.00000000E+00  0.00000000E+00 -1.84293651E+00  0.00000000E+00
  0.00000000E+00  1.84293651E+00  0.00000000E+00  0.00000000E+00  1.84293651E+00
  0.00000000E+00  0.00000000E+00  1.84293651E+00  0.00000000E+00  0.00000000E+00
  1.84293651E+00  0.00000000E+00  0.00000000E+00  1.84293651E+00  0.00000000E+00
Total Energy                               R       0.00000000E+00
Alpha Orbital Energies                     R   N=          86
 -7.61862804E+00 -7.61803797E+00 -8.87067620E-01 -6.38243830E-01 -5.57453181E-01
 -5.39303020E-01 -5.18518607E-01 -4.71276752E-01  6.05739393E-02  6.41069997E-02
  6.98913600E-02  7.42282706E-02  8.26512087E-02  9.27153330E-02  9.60894389E-02
  1.04412672E-01  1.34530677E-01  1.36935293E-01  1.54109675E-01  1.54874329E-01
  1.56943624E-01  1.68033306E-01  1.82802898E-01  2.43312613E-01  2.85081659E-01
  2.99991710E-01  3.20246130E-01  3.29942253E-01  3.31848648E-01  4.03110708E-01
  4.07980825E-01  4.28693537E-01  4.64172487E-01  5.30792799E-01  5.56920494E-01
  6.48024096E-01  6.49410967E-01  6.86803092E-01  7.12821633E-01  7.15265563E-01
  7.43533043E-01  7.96012922E-01  8.27259028E-01  8.47750942E-01  8.65309162E-01
  1.03197109E+00  1.25394854E+00  1.26131902E+00  1.30301452E+00  1.36622304E+00
  1.39710736E+00  1.39811483E+00  1.40681372E+00  1.60041835E+00  1.60775819E+00
  1.60958472E+00  1.86394309E+00  1.87584270E+00  1.99798155E+00  2.09206367E+00
  2.11421016E+00  2.11886331E+00  2.16368329E+00  2.23029679E+00  2.28700329E+00
  2.29468706E+00  2.35546591E+00  2.43107856E+00  2.44345414E+00  2.47912000E+00
  2.53532420E+00  2.59366613E+00  2.68508498E+00  2.87750393E+00  2.91368226E+00
  2.92924208E+00  2.93479574E+00  3.10886172E+00  3.11117788E+00  3.11211276E+00
  3.19461997E+00  3.19586382E+00  3.44395197E+00  3.84156082E+00  1.55592740E+01
  1.56206989E+01
Alpha MO coefficients                      R   N=        7396
 -2.53345736E-02 -4.86742193E-02  1.83486861E-06 -7.50122208E-02 -7.62390171E-02
  1.32319282E-01  2.66813056E-06 -1.17844715E-01 -1.13973291E-01  3.72219113E-02
  2.01129593E-06 -3.27637934E-02 -4.18551742E-02 -2.37115030E-02  2.59853424E-07
  5.47713200E-14  7.67342628E-03  3.03377961E-02 -6.07403789E-02 -3.34902114E-07
  5.75487824E-03 -4.54527872E-03 -2.53436684E-02 -4.86812609E-02  4.21543763E-10
  7.50123519E-02 -7.62390171E-02  1.32318542E-01  1.48349046E-08  1.17844962E-01
 -1.13973291E-01  3.72213682E-02 -5.33535187E-07  3.27638252E-02 -4.18551742E-02
 -2.37115671E-02  1.74924468E-07 -8.31378774E-14  7.67342794E-03 -3.03377961E-02
 -6.07400553E-02  8.91452085E-08 -5.75480963E-03 -4.54527872E-03 -6.16961755E-03
 -6.00998844E-03 -2.88322977E-02 -1.66468622E-03 -5.17788435E-03 -4.13586785E-03
  1.84417028E-02 -6.17118260E-03 -6.01258171E-03 -2.88332536E-02  1.66450959E-03
  5.17776033E-03 -4.13586785E-03  1.84413260E-02 -6.17241280E-03 -6.01464653E-03
 -2.88339575E-02  1.66443321E-03 -5.17765158E-03 -4.13586785E-03  1.84408859E-02
 -6.17133625E-03 -6.01280950E-03 -2.88332759E-02 -1.66453647E-03  5.17775062E-03
 -4.13586785E-03  1.84412127E-02  1.86546646E-01  3.25427749E-01  1.17136263E-01
  8.07139747E-08  1.43195552E-08  2.78428469E-02  7.60010302E-03 -1.62302703E-02
 -5.45758283E-02 -5.98769677E-02  8.07138920E-08  1.43184635E-08 -1.99165979E-03
  5.50361774E-02 -3.98155270E-02 -7.93274312E-02  1.29372149E-01  7.32958634E-02
  2.17827459E-07  2.23745735E-01  1.88125661E-01  1.07048252E-01  3.25634385E-07
  1.81646102E-01  1.41757008E-01  3.62887085E-02  1.19605984E-07  2.26364018E-02
  1.83068759E-02 -1.45667133E-13 -5.00520218E-04 -8.66783533E-08 -7.71509952E-02
 -2.34604248E-02  9.73969897E-03  1.29852353E-08  5.87083308E-03  1.06167707E-02
  1.88652757E-04 -1.55535649E-02  2.17827353E-07 -3.18830397E-02  1.27532367E-03
 -2.34435429E-02  3.25634873E-07 -3.15603610E-02 -3.74323121E-02 -2.20013405E-02
  1.19605138E-07  1.52307923E-03  1.23113884E-02 -3.18961225E-14  1.41084999E-03
  8.66785338E-08  8.01324568E-02  6.09135960E-03  1.85051547E-02  1.29851516E-08
  1.87030178E-01  3.08791948E-01  1.10497252E-01 -2.21743128E-02 -1.18077659E-02
  1.18166958E-08  3.88866069E-02  7.04398041E-03  1.27227441E-02  8.01413545E-03
 -8.91577195E-04 -3.61945031E-04  1.18167248E-08 -4.68481731E-03 -1.00429700E-02
 -1.96169800E-02 -6.54993597E-03  4.33310726E-03  4.60315663E-03  1.18167140E-08
 -1.84394862E-02 -3.54792147E-03 -2.93191567E-03  6.55290220E-03 -1.02587931E-03
 -1.02667012E-03  1.18167404E-08 -1.22761958E-02 -5.02194299E-03 -1.53220909E-02
 -2.95394858E-02  5.69790950E-03  5.15671335E-03 -3.40798341E-04 -1.40428991E-03
 -5.02136363E-03 -1.53210052E-02 -2.95389801E-02  5.69790950E-03  5.15671335E-03
  3.40724479E-04 -1.40442542E-03 -2.53096214E-02 -4.86539044E-02  1.87808720E-06
 -7.50124402E-02  7.62394216E-02  1.32316653E-01  2.73145329E-06 -1.17844816E-01
  1.13973896E-01  3.72200204E-02  2.04063273E-06 -3.27639512E-02  4.18553963E-02
 -2.37115110E-02  2.60049611E-07 -4.69377692E-14  7.67338393E-03 -3.03379571E-02
 -6.07390966E-02 -3.40253794E-07  5.75479293E-03  4.54530271E-03 -2.53401591E-02
 -4.86781915E-02  6.25630884E-08  7.50121921E-02  7.62394216E-02  1.32317227E-01
  1.05528410E-07  1.17844644E-01  1.13973896E-01  3.72207418E-02 -4.77998545E-07
  3.27638879E-02  4.18553963E-02 -2.37114737E-02  1.70244535E-07  5.92432233E-14
  7.67336685E-03  3.03379571E-02 -6.07398784E-02  8.01502578E-08 -5.75490100E-03
  4.54530272E-03 -6.17028869E-03 -6.01116318E-03 -2.88324824E-02 -1.66456371E-03
 -5.17782156E-03  4.13588979E-03  1.84413936E-02 -6.17146837E-03 -6.01310610E-03
 -2.88332730E-02  1.66445014E-03  5.17771307E-03  4.13588979E-03  1.84411559E-02
 -6.17314456E-03 -6.01592323E-03 -2.88341804E-02  1.66430383E-03 -5.17758364E-03
  4.13588979E-03  1.84405603E-02 -6.17153099E-03 -6.01318152E-03 -2.88332397E-02
 -1.66448622E-03  5.17771101E-03  4.13588979E-03  1.84410674E-02 -1.62313406E-02
 -5.45776107E-02 -5.98772478E-02  8.53472391E-08 -1.35647960E-08  1.99149243E-03
  5.50359294E-02  1.86546652E-01  3.25427983E-01  1.17136922E-01  8.53473086E-08
 -1.35635877E-08 -2.78428167E-02  7.59960414E-03 -3.98024273E-02 -7.93154746E-02
 -1.29378493E-01  7.32900431E-02  2.43170434E-07  2.23738255E-01 -1.88134885E-01
  1.07039598E-01  3.63525722E-07  1.81637943E-01 -1.41764004E-01  3.62859571E-02
  1.33496616E-07  2.26346117E-02 -1.83077882E-02  8.89557835E-14 -5.00275360E-04
 -9.67648070E-08 -7.71486331E-02  2.34615897E-02  9.73936639E-03  1.45491920E-08
  5.86982113E-03  1.06148815E-02 -1.88510011E-04 -1.55506660E-02  2.43170463E-07
 -3.18777910E-02 -1.27516526E-03 -2.34390455E-02  3.63525798E-07 -3.15578095E-02
  3.74343150E-02 -2.19993127E-02  1.33496571E-07  1.52233653E-03 -1.23120136E-02
  2.57870012E-14  1.41099470E-03  9.67646880E-08  8.01268196E-02 -6.09169314E-03
  1.85040636E-02  1.45490112E-08 -1.00524207E-02 -1.96324857E-02 -6.55619852E-03
 -4.33205113E-03  4.60359551E-03  1.31917163E-08 -1.84409571E-02 -3.54858094E-03
 -2.93294691E-03  6.55162142E-03  1.02595455E-03 -1.02651827E-03  1.31917047E-08
 -1.22755087E-02  1.87030404E-01  3.08792567E-01  1.10496730E-01  2.21741294E-02
 -1.18081326E-02  1.31916716E-08  3.88879699E-02  7.04407191E-03  1.27228665E-02
  8.01306257E-03  8.91575008E-04 -3.61741303E-04  1.31917007E-08 -4.68367684E-03
 -5.01933824E-03 -1.53175930E-02 -2.95372021E-02 -5.69818224E-03  5.15645581E-03
 -3.40367366E-04 -1.40340722E-03 -5.01869147E-03 -1.53163809E-02 -2.95366374E-02
 -5.69818224E-03  5.15645581E-03  3.40284911E-04 -1.40355885E-03 -5.82696400E-01
 -4.64478662E-01 -2.63685625E-06  3.34364824E-03  3.21731862E-06  1.54533221E-02
 -3.83449767E-06  7.26967260E-04  4.80972024E-06  1.61771207E-02 -2.88436474E-06
  1.20402979E-03  1.76630757E-06 -4.62908881E-05 -3.71515356E-07 -2.55273631E-15
 -2.63498578E-05 -1.28026750E-06 -1.70935363E-02  4.77411842E-07  1.27579341E-03
  1.91809970E-07 -6.56595097E-04 -1.05088802E-03 -2.07735862E-08  1.94412119E-03
  3.21731862E-06  2.03688010E-03 -5.06095836E-08  3.34579723E-03  4.80972030E-06
  3.57298648E-04  7.44390720E-07  1.41939551E-04  1.76630754E-06 -9.64230787E-04
 -2.48532308E-07 -1.01291304E-15  3.17567667E-04  1.28026754E-06 -7.00717823E-04
 -1.21118869E-07  1.04491432E-03  1.91810027E-07  4.64311718E-03  8.77867756E-03
  6.70806418E-04 -8.61373224E-04 -4.04130679E-04  1.74535359E-07  4.16519503E-03
 -3.33187695E-04 -1.88503189E-04 -1.19186146E-03  7.74571006E-05  1.82547876E-04
  1.74535357E-07  1.41326453E-03  4.64713249E-03  8.78536907E-03  6.73191842E-04
  8.61737110E-04 -4.04465075E-04  1.74535358E-07  4.16636253E-03 -3.32997601E-04
 -1.88227093E-04 -1.19184700E-03 -7.74156848E-05  1.82559277E-04  1.74535357E-07
  1.41341181E-03  2.61286059E-03  4.00186625E-03 -1.66074356E-03 -1.16878961E-07
  3.08646979E-04  4.73267805E-04  4.65147221E-03  2.62141786E-03  4.01790256E-03
 -1.65327354E-03 -1.16878960E-07  3.08646979E-04 -4.74358736E-04  4.64947040E-03
 -5.87110336E-03 -1.06160798E-02  1.87805984E-04 -1.55523953E-02 -1.26170287E-07
  3.18787403E-02  1.27411576E-03 -2.34416872E-02 -1.88618944E-07  3.15579157E-02
 -3.74341193E-02 -2.20005009E-02 -6.92778728E-08 -1.52278770E-03 -1.23117963E-02
  3.21056855E-14 -1.41094191E-03  5.02070550E-08 -8.01291288E-02  6.09165880E-03
  1.85045687E-02 -7.41359040E-09  3.98146573E-02  7.93260645E-02  1.29375169E-01
  7.32929970E-02 -1.26170324E-07 -2.23742510E-01  1.88130046E-01  1.07043935E-01
 -1.88618687E-07 -1.81642278E-01  1.41760565E-01  3.62874489E-02 -6.92785578E-08
 -2.26354886E-02 -1.83073845E-02  7.02896697E-14  5.00372340E-04 -5.02069205E-08
  7.71497046E-02 -2.34610151E-02  9.73945550E-03 -7.41190577E-09 -7.04514434E-03
 -1.27246656E-02 -8.01420482E-03 -8.91434809E-04 -3.61759339E-04 -6.84454501E-09
  4.68397680E-03 -1.87030353E-01 -3.08792384E-01 -1.10496975E-01 -2.21742329E-02
 -1.18079572E-02 -6.84454952E-09 -3.88873152E-02  3.54830151E-03  2.93252051E-03
 -6.55216796E-03 -1.02594909E-03 -1.02660792E-03 -6.84452569E-09  1.22759149E-02
  1.00474671E-02  1.96243180E-02  6.55295571E-03  4.33262328E-03  4.60335300E-03
 -6.84453422E-09  1.84401709E-02  5.02031958E-03  1.53193481E-02  2.95383894E-02
  5.69800509E-03  5.15656161E-03  3.40529087E-04  1.40378260E-03  5.01998400E-03
  1.53187192E-02  2.95380965E-02  5.69800509E-03  5.15656161E-03 -3.40486306E-04
  1.40386041E-03  5.87107161E-03  1.06161094E-02  1.87765288E-04  1.55523072E-02
  8.95873922E-08 -3.18789862E-02  1.27405895E-03  2.34415601E-02  1.33935475E-07
 -3.15580699E-02 -3.74342520E-02  2.20004217E-02  4.91573782E-08  1.52276834E-03
 -1.23118309E-02  6.78119937E-14  1.41093572E-03 -3.56531464E-08  8.01290553E-02
  6.09168590E-03 -1.85045388E-02  5.44966732E-09 -3.98144147E-02 -7.93257545E-02
  1.29375471E-01 -7.32928401E-02  8.95872433E-08  2.23741963E-01  1.88130484E-01
 -1.07043709E-01  1.33935717E-07  1.81641871E-01  1.41760908E-01 -3.62873527E-02
  4.91559773E-08  2.26354444E-02 -1.83074311E-02  1.15625040E-13 -5.00376203E-04
  3.56532492E-08 -7.71495857E-02 -2.34610774E-02 -9.73945120E-03  5.45154518E-09
 -3.54844978E-03 -2.93276841E-03  6.55208323E-03 -1.02593211E-03  1.02661622E-03
  4.86009322E-09 -1.22759377E-02 -1.00479055E-02 -1.96250460E-02 -6.55320915E-03
  4.33257084E-03 -4.60338221E-03  4.86013678E-09 -1.84402677E-02  7.04508343E-03
  1.27245587E-02  8.01415992E-03 -8.91450577E-04  3.61760864E-04  4.86011535E-09
 -4.68395375E-03  1.87030378E-01  3.08792426E-01  1.10496994E-01 -2.21742215E-02
  1.18079664E-02  4.86010509E-09  3.88873654E-02 -5.02029154E-03 -1.53192639E-02
 -2.95382560E-02  5.69801657E-03 -5.15655553E-03 -3.40528382E-04 -1.40380268E-03
 -5.02005325E-03 -1.53188174E-02 -2.95380478E-02  5.69801657E-03 -5.15655553E-03
  3.40498008E-04 -1.40385914E-03  6.69267760E-04  1.05898255E-03 -5.11806726E-09
  1.93946487E-03 -4.27827897E-07 -2.02801004E-03 -7.69409160E-09  3.33854626E-03
 -6.39580087E-07 -3.55099084E-04  3.79773273E-09  1.40216650E-04 -2.34878000E-07
  9.62719812E-04  2.35413046E-09 -1.41347842E-15 -3.17016917E-04  1.70245645E-07
  6.98231077E-04 -7.66150722E-10  1.04495972E-03 -2.55028665E-08  5.82693948E-01
  4.64473888E-01 -3.22918043E-08  3.34728339E-03 -4.27827877E-07 -1.54401788E-02
 -4.69932571E-08  7.32828456E-04 -6.39580125E-07 -1.61712424E-02 -3.39228011E-08
  1.20549908E-03 -2.34877971E-07  4.51281418E-05  4.08515612E-09 -1.15564804E-15
  2.68626206E-05 -1.70245665E-07  1.70882190E-02  5.79117139E-09  1.27525515E-03
 -2.55029405E-08  3.32904336E-04  1.88344882E-04  1.19018794E-03  7.72954707E-05
  1.82209774E-04 -2.32090990E-08 -1.41230401E-03 -4.64382560E-03 -8.77962266E-03
 -6.72913614E-04 -8.61188680E-04 -4.03880070E-04 -2.32090980E-08 -4.16438088E-03
  3.32909418E-04  1.88353846E-04  1.19019219E-03 -7.72942933E-05  1.82209297E-04
 -2.32090988E-08 -1.41230396E-03 -4.64387437E-03 -8.77970400E-03 -6.72942732E-04
  8.61193208E-04 -4.03884140E-04 -2.32090972E-08 -4.16439522E-03 -2.61092151E-03
 -3.99999713E-03  1.65883740E-03 -1.64523040E-09  3.08559836E-04 -4.72739433E-04
 -4.64860840E-03 -2.61205943E-03 -4.00212958E-03  1.65784407E-03 -1.64522918E-09
  3.08559836E-04  4.72884501E-04 -4.64834223E-03  1.67965498E-02  2.94946180E-02
 -1.03091038E-02  1.43085207E-09 -5.34867758E-11 -7.78851692E-02  6.28862628E-03
 -4.20617437E-10 -1.56092995E-10 -9.56690299E-02 -9.90892489E-02  2.14260550E-08
 -3.87202265E-09 -1.83978803E-02  4.60744511E-11 -1.38734074E-14 -1.08740806E-02
 -9.57768875E-10  8.22050216E+00  2.51914580E-01 -2.34410454E-07  5.87394517E-08
  1.67965500E-02  2.94946183E-02  1.03091041E-02  1.40186513E-09  1.26716081E-10
 -7.78851706E-02 -6.28862833E-03 -5.13720951E-10 -1.50927173E-09 -9.56690285E-02
  9.90892638E-02  2.14709906E-08  1.02446697E-08 -1.83978799E-02  3.05077805E-10
 -7.15382976E-14 -1.08740803E-02  9.65632626E-10  8.22050209E+00 -2.51914743E-01
 -2.35424980E-07 -1.18378099E-07 -2.08726251E-02  3.58361505E-02 -3.45394269E-01
  1.70034954E-03 -2.47110203E-10  2.56171755E-03 -2.21184894E+00 -2.08726249E-02
  3.58361453E-02 -3.45394241E-01 -1.70034988E-03 -2.52112119E-10 -2.56171788E-03
 -2.21184918E+00 -2.08726250E-02  3.58361496E-02 -3.45394272E-01  1.70034955E-03
 -2.46988503E-10 -2.56171755E-03 -2.21184887E+00 -2.08726252E-02  3.58361485E-02
 -3.45394268E-01 -1.70034984E-03 -2.52127410E-10  2.56171753E-03 -2.21184892E+00
  5.63037719E-03  4.85280566E-02 -2.29766990E-01 -7.21423808E-11 -7.10314006E-03
 -2.90080721E-11 -3.44294637E+00  5.63037956E-03  4.85280711E-02 -2.29767076E-01
 -6.41902905E-11  7.10313927E-03 -2.85592203E-11 -3.44294519E+00 -1.24195584E-09
 -2.33034391E-09  7.95629204E-10  1.98412231E-02 -1.75381968E-10  8.77458734E-09
 -1.26915238E-09 -2.26014061E-03  8.89078128E-10 -2.45278238E-08  7.66710939E-09
  2.43972486E-01 -1.21286290E-08  1.41832838E-09  1.79185998E-10  9.90385446E-14
  1.38002328E-09 -1.62822112E-02  1.12360649E-06 -1.24443791E-08 -2.44392179E+00
  2.89484338E-07 -1.68884866E-09 -3.13133477E-09 -9.27258238E-10  1.98412231E-02
  1.79789783E-10  1.22559787E-08  1.20934075E-09 -2.26014056E-03 -7.05566386E-10
 -3.67347779E-08 -1.86466470E-08  2.43972486E-01  1.14656859E-08  1.98820407E-09
  1.77186948E-10  2.06334220E-13  7.80644180E-10  1.62822112E-02  1.70066914E-06
  2.12401741E-07 -2.44392179E+00 -2.76140734E-07  1.66027558E-09 -4.16975485E-09
  5.63435059E-08 -1.03338299E-10 -3.12841309E-03 -1.66989670E-10 -6.57248442E-07
  1.90854505E-09 -3.54445210E-09  5.34835324E-08  2.67702623E-10 -3.12841309E-03
  2.11593391E-10 -6.38628219E-07  1.63753486E-09 -2.38350850E-09  2.91039883E-08
 -9.78513918E-11 -3.12841309E-03  3.85662787E-10 -1.28478663E-07  1.88003638E-09
 -2.17421554E-09  2.88565301E-08  2.64557046E-10 -3.12841309E-03 -3.99509520E-10
 -1.52388264E-07 -1.98405738E-02 -6.37593122E-02  3.33892177E-01 -1.28252129E-10
 -5.22090329E-03  6.59148642E-12 -5.72910754E+00  1.98405730E-02  6.37593017E-02
 -3.33892066E-01 -1.21253814E-10 -5.22090502E-03  6.45889271E-12  5.72910579E+00
  1.38595393E-02  2.44302907E-02 -6.86509135E-03 -4.06917022E-10  9.24878999E-11
 -8.95332915E-02 -7.84384177E-04 -1.73139700E-10 -4.49654664E-10  2.70072133E-01
 -3.21262879E-01 -2.52687383E-09  4.40265784E-09 -1.85123382E-02 -1.57486098E-10
 -4.59885541E-15  1.49648865E-02  4.41605629E-10 -9.63814888E+00  3.79433588E+00
  2.50247304E-08 -1.38881880E-07 -1.38595388E-02 -2.44302896E-02 -6.86509126E-03
 -3.97120174E-10 -6.13703208E-11  8.95332828E-02 -7.84388524E-04 -1.61198863E-10
 -1.76733062E-10 -2.70072063E-01 -3.21262860E-01 -2.51285939E-09 -3.75164992E-09
  1.85123381E-02  1.36437946E-10 -1.24785852E-16 -1.49648871E-02 -4.46982833E-10
  9.63814569E+00  3.79433567E+00  2.52028596E-08  1.49796374E-07 -1.03958759E-02
  7.77988756E-03 -7.90283702E-02  4.36542456E-03  5.17574116E-11  1.17002115E-03
 -6.46028821E-02  1.03958756E-02 -7.77988934E-03  7.90283409E-02  4.36542423E-03
  5.31267925E-11  1.17002086E-03  6.46039446E-02 -1.03958759E-02  7.77988640E-03
 -7.90283591E-02  4.36542460E-03  5.17476576E-11 -1.17002130E-03 -6.46031220E-02
  1.03958754E-02 -7.77988891E-03  7.90283480E-02  4.36542430E-03  5.30107834E-11
 -1.17002094E-03  6.46036755E-02  3.52467071E-10  4.25778296E-09 -4.62013446E-08
 -6.21987944E-03 -1.52673030E-10  7.95624932E-12  1.01672531E-06 -7.43498454E-10
  4.30310323E-09 -5.25019520E-08 -6.21987944E-03  3.54272554E-10  8.09245095E-12
  9.36980821E-07 -7.29815778E-12 -1.85100486E-11  3.79978562E-12  7.66780595E-02
  3.70435879E-12  1.58219727E-10 -5.19659260E-11  1.60300699E-01 -7.77486332E-12
 -1.33998394E-09  2.16296407E-10  1.53159567E-01  1.66880671E-10 -3.96318981E-12
 -2.01109877E-12 -3.05759409E-13  8.06100551E-12  9.13237245E-03  5.36001748E-08
 -2.61254503E-09  1.38689005E+00 -5.57393556E-09 -9.20261745E-12 -2.17978666E-11
 -4.98523753E-12 -7.66780595E-02 -3.41958232E-12  1.67898859E-10  5.34598560E-11
 -1.60300699E-01  9.57971536E-12 -1.35374097E-09 -2.53804506E-10 -1.53159567E-01
 -1.71351225E-10 -2.04482850E-12 -2.11596567E-12 -2.08246869E-13  6.62308282E-12
  9.13237244E-03  5.42866438E-08  2.94088836E-09 -1.38689005E+00  5.65993656E-09
  8.21738634E-12  1.86528361E-11  3.39231761E-10 -3.94445171E-12  9.96164538E-03
 -7.85696284E-12 -9.60294029E-09  9.58829580E-12  1.83866168E-11  3.42215858E-10
  4.49731979E-12 -9.96164538E-03  8.22032496E-12 -9.43844740E-09  7.15889537E-12
 -1.62840933E-12  6.99334348E-10 -3.76002892E-12  9.96164538E-03  5.01531058E-12
 -1.93442251E-08  8.81667215E-12 -5.80399802E-12  7.26741407E-10  4.37508510E-12
 -9.96164538E-03 -5.18808990E-12 -1.94705975E-08  1.35256112E-11 -1.79610203E-10
  1.80276307E-09 -1.49741419E-02  1.92153038E-12  7.36014449E-14 -3.20166328E-08
  7.44132599E-12 -1.02061382E-10  1.41735309E-09  1.49741419E-02 -9.97151024E-12
  2.47878500E-14 -3.07056723E-08  4.38854804E-11  8.98084015E-11 -3.76436499E-11
  4.69975829E-12  3.95283693E-02 -4.75380992E-10  1.33489131E-10 -9.17337478E-12
  5.59553807E-02  2.82665496E-09 -7.89368299E-10  8.35194966E-11  1.49127465E-01
 -3.66924938E-11  1.50671737E-02 -1.08199907E-13 -4.72806500E-11  2.79869578E-13
 -1.60603104E-07  7.91348116E-09 -1.65407241E-12 -5.30910885E-01  1.63646062E-11
  4.98138100E-11 -4.19435878E-12  5.30566903E-12  3.95283691E-02 -5.74458543E-10
  3.13904535E-11 -8.52403290E-12  5.59553809E-02  4.79237497E-09  1.44721624E-10
  8.53124697E-11  1.49127460E-01 -3.20614558E-11 -1.50671737E-02 -5.09627063E-14
 -1.27828139E-11 -4.92967062E-13 -2.13536893E-07 -8.10981067E-09  4.96835096E-12
 -5.30910733E-01  2.04761933E-02 -5.68940453E-02  3.18751985E-01 -1.30657881E-03
 -4.14862653E-13 -1.66216616E-03 -3.43914207E-01 -2.04761934E-02  5.68940457E-02
 -3.18751994E-01 -1.30657882E-03 -3.67106575E-13 -1.66216615E-03  3.43914444E-01
 -2.04761934E-02  5.68940454E-02 -3.18751989E-01  1.30657883E-03 -4.35666975E-13
 -1.66216619E-03  3.43914296E-01  2.04761933E-02 -5.68940455E-02  3.18751989E-01
  1.30657882E-03 -3.31203436E-13 -1.66216612E-03 -3.43914323E-01 -5.54214954E-12
  1.50405444E-10 -3.61259307E-09  9.57607715E-12 -3.58430275E-11 -1.19287949E-04
  1.03559741E-07 -3.82545542E-12  1.90863909E-10 -3.81876422E-09  9.21694441E-12
  3.06182002E-11 -1.19287949E-04  1.03170514E-07 -5.38954764E-10 -1.04499409E-09
  3.66113756E-09  2.86445231E-10  2.52478262E-02  4.70223283E-09  1.23410612E-08
  4.87936697E-11  3.37676094E-02 -1.82629238E-08 -7.15403428E-09  8.15520699E-10
  2.59767180E-01  5.89670616E-10  1.04219459E-02  1.37234238E-12 -8.50560716E-10
 -2.94464178E-10 -1.48177361E-06  4.03496177E-07  2.30534689E-08 -1.70191333E+01
 -4.68456683E-10 -9.27329245E-10 -3.49481575E-09  3.29415505E-10 -2.52478266E-02
  4.29657409E-09 -1.19902627E-08  9.88340833E-11 -3.37676086E-02 -1.23934493E-08
  1.55400263E-08  1.01661878E-09 -2.59767183E-01 -1.95571188E-11  1.04219454E-02
  1.57171309E-12 -6.19515161E-10  2.88978936E-10 -9.31884155E-07 -3.45957170E-07
  2.32352119E-08  1.70191333E+01  1.31415213E-02 -1.77099890E-02 -6.60871121E-02
 -1.28053004E-03 -1.93101786E-11 -1.05663647E-03  1.36779469E+01  1.31415209E-02
 -1.77099869E-02 -6.60871195E-02  1.28053017E-03 -1.44882833E-11  1.05663678E-03
  1.36779468E+01 -1.31415202E-02  1.77099659E-02  6.60872309E-02  1.28053120E-03
 -1.85461555E-11 -1.05663545E-03 -1.36779469E+01 -1.31415205E-02  1.77099656E-02
  6.60872262E-02 -1.28053133E-03 -1.55258425E-11  1.05663568E-03 -1.36779470E+01
  4.34807556E-10  1.67346412E-08 -4.80001736E-08  3.84054948E-11 -1.49454385E-10