FCHK generated by IOData                                                
NA        NA                                                           NA
Number of atoms                            I               12
Number of electrons                        I               42
Charge                                     I                0
Multiplicity                               I                1
Number of alpha electrons                  I               21
Number of beta electrons                   I               21
Atomic numbers                             I   N=          12
           6           6           6           6           6           6
           1           1           1           1           1           1
Nuclear charges                            R   N=          12
  6.00000000E+00  6.00000000E+00  6.00000000E+00  6.00000000E+00  6.00000000E+00
  6.00000000E+00  1.00000000E+00  1.00000000E+00  1.00000000E+00  1.00000000E+00
  1.00000000E+00  1.00000000E+00
Current cartesian coordinates              R   N=          36
 -2.29242676E+00 -1.30088746E+00  0.00000000E+00 -2.27296258E+00  1.33490254E+00
  1.88972613E-04 -1.94641791E-02 -2.63579000E+00  0.00000000E+00  1.96531517E-02
  2.63579000E+00 -1.88972613E-04  2.27296258E+00 -1.33471356E+00  0.00000000E+00
  2.29242676E+00  1.30088746E+00  0.00000000E+00 -4.07746206E+00 -2.31378067E+00
  0.00000000E+00 -4.04269110E+00  2.37425190E+00  1.88972613E-04 -3.47709607E-02
 -4.68822154E+00 -1.88972613E-04  3.47709607E-02  4.68803257E+00  0.00000000E+00
  4.04288007E+00 -2.37406293E+00  1.88972613E-04  4.07746206E+00  2.31396964E+00
  0.00000000E+00
Number of basis functions                  I              174
Number of independent functions            I              174
Number of contracted shells                I               90
Number of primitive shells                 I              156
Pure/Cartesian d shells                    I                0
Pure/Cartesian f shells                    I                0
Highest angular momentum                   I                2
Largest degree of contraction              I                6
Shell types                                I   N=          90
           0           0           1           0           1           0
           1          -2           0           1           0           0
           1           0           1           0           1          -2
           0           1           0           0           1           0
           1           0           1          -2           0           1
           0           0           1           0           1           0
           1          -2           0           1           0           0
           1           0           1           0           1          -2
           0           1           0           0           1           0
           1           0           1          -2           0           1
           0           0           0           1           0           0
           0           0           1           0           0           0
           0           1           0           0           0           0
           1           0           0           0           0           1
           0           0           0           0           1           0
Number of primitives per shell             I   N=          90
           6           3           3           1           1           1
           1           1           1           1           6           3
           3           1           1           1           1           1
           1           1           6           3           3           1
           1           1           1           1           1           1
           6           3           3           1           1           1
           1           1           1           1           6           3
           3           1           1           1           1           1
           1           1           6           3           3           1
           1           1           1           1           1           1
           3           1           1           1           1           3
           1           1           1           1           3           1
           1           1           1           3           1           1
           1           1           3           1           1           1
           1           3           1           1           1           1
Shell to atom map                          I   N=          90
           1           1           1           1           1           1
           1           1           1           1           2           2
           2           2           2           2           2           2
           2           2           3           3           3           3
           3           3           3           3           3           3
           4           4           4           4           4           4
           4           4           4           4           5           5
           5           5           5           5           5           5
           5           5           6           6           6           6
           6           6           6           6           6           6
           7           7           7           7           7           8
           8           8           8           8           9           9
           9           9           9          10          10          10
          10          10          11          11          11          11
          11          12          12          12          12          12
Primitive exponents                        R   N=         156
  4.56324000E+03  6.82024000E+02  1.54973000E+02  4.44553000E+01  1.30290000E+01
  1.82773000E+00  2.09642000E+01  4.80331000E+00  1.45933000E+00  2.09642000E+01
  4.80331000E+00  1.45933000E+00  4.83456000E-01  4.83456000E-01  1.45585000E-01
  1.45585000E-01  6.26000000E-01  4.38000000E-02  4.38000000E-02  4.56324000E+03
  6.82024000E+02  1.54973000E+02  4.44553000E+01  1.30290000E+01  1.82773000E+00
  2.09642000E+01  4.80331000E+00  1.45933000E+00  2.09642000E+01  4.80331000E+00
  1.45933000E+00  4.83456000E-01  4.83456000E-01  1.45585000E-01  1.45585000E-01
  6.26000000E-01  4.38000000E-02  4.38000000E-02  4.56324000E+03  6.82024000E+02
  1.54973000E+02  4.44553000E+01  1.30290000E+01  1.82773000E+00  2.09642000E+01
  4.80331000E+00  1.45933000E+00  2.09642000E+01  4.80331000E+00  1.45933000E+00
  4.83456000E-01  4.83456000E-01  1.45585000E-01  1.45585000E-01  6.26000000E-01
  4.38000000E-02  4.38000000E-02  4.56324000E+03  6.82024000E+02  1.54973000E+02
  4.44553000E+01  1.30290000E+01  1.82773000E+00  2.09642000E+01  4.80331000E+00
  1.45933000E+00  2.09642000E+01  4.80331000E+00  1.45933000E+00  4.83456000E-01
  4.83456000E-01  1.45585000E-01  1.45585000E-01  6.26000000E-01  4.38000000E-02
  4.38000000E-02  4.56324000E+03  6.82024000E+02  1.54973000E+02  4.44553000E+01
  1.30290000E+01  1.82773000E+00  2.09642000E+01  4.80331000E+00  1.45933000E+00
  2.09642000E+01  4.80331000E+00  1.45933000E+00  4.83456000E-01  4.83456000E-01
  1.45585000E-01  1.45585000E-01  6.26000000E-01  4.38000000E-02  4.38000000E-02
  4.56324000E+03  6.82024000E+02  1.54973000E+02  4.44553000E+01  1.30290000E+01
  1.82773000E+00  2.09642000E+01  4.80331000E+00  1.45933000E+00  2.09642000E+01
  4.80331000E+00  1.45933000E+00  4.83456000E-01  4.83456000E-01  1.45585000E-01
  1.45585000E-01  6.26000000E-01  4.38000000E-02  4.38000000E-02  3.38650000E+01
  5.09479000E+00  1.15879000E+00  3.25840000E-01  1.02741000E-01  7.50000000E-01
  3.60000000E-02  3.38650000E+01  5.09479000E+00  1.15879000E+00  3.25840000E-01
  1.02741000E-01  7.50000000E-01  3.60000000E-02  3.38650000E+01  5.09479000E+00
  1.15879000E+00  3.25840000E-01  1.02741000E-01  7.50000000E-01  3.60000000E-02
  3.38650000E+01  5.09479000E+00  1.15879000E+00  3.25840000E-01  1.02741000E-01
  7.50000000E-01  3.60000000E-02  3.38650000E+01  5.09479000E+00  1.15879000E+00
  3.25840000E-01  1.02741000E-01  7.50000000E-01  3.60000000E-02  3.38650000E+01
  5.09479000E+00  1.15879000E+00  3.25840000E-01  1.02741000E-01  7.50000000E-01
  3.60000000E-02
Contraction coefficients                   R   N=         156
  1.96665000E-03  1.52306000E-02  7.61269000E-02  2.60801000E-01  6.16462000E-01
  2.21006000E-01  1.14660000E-01  9.19999000E-01 -3.03068000E-03  4.02487000E-02
  2.37594000E-01  8.15854000E-01  1.00000000E+00  1.00000000E+00  1.00000000E+00
  1.00000000E+00  1.00000000E+00  1.00000000E+00  1.00000000E+00  1.96665000E-03
  1.52306000E-02  7.61269000E-02  2.60801000E-01  6.16462000E-01  2.21006000E-01
  1.14660000E-01  9.19999000E-01 -3.03068000E-03  4.02487000E-02  2.37594000E-01
  8.15854000E-01  1.00000000E+00  1.00000000E+00  1.00000000E+00  1.00000000E+00
  1.00000000E+00  1.00000000E+00  1.00000000E+00  1.96665000E-03  1.52306000E-02
  7.61269000E-02  2.60801000E-01  6.16462000E-01  2.21006000E-01  1.14660000E-01
  9.19999000E-01 -3.03068000E-03  4.02487000E-02  2.37594000E-01  8.15854000E-01
  1.00000000E+00  1.00000000E+00  1.00000000E+00  1.00000000E+00  1.00000000E+00
  1.00000000E+00  1.00000000E+00  1.96665000E-03  1.52306000E-02  7.61269000E-02
  2.60801000E-01  6.16462000E-01  2.21006000E-01  1.14660000E-01  9.19999000E-01
 -3.03068000E-03  4.02487000E-02  2.37594000E-01  8.15854000E-01  1.00000000E+00
  1.00000000E+00  1.00000000E+00  1.00000000E+00  1.00000000E+00  1.00000000E+00
  1.00000000E+00  1.96665000E-03  1.52306000E-02  7.61269000E-02  2.60801000E-01
  6.16462000E-01  2.21006000E-01  1.14660000E-01  9.19999000E-01 -3.03068000E-03
  4.02487000E-02  2.37594000E-01  8.15854000E-01  1.00000000E+00  1.00000000E+00
  1.00000000E+00  1.00000000E+00  1.00000000E+00  1.00000000E+00  1.00000000E+00
  1.96665000E-03  1.52306000E-02  7.61269000E-02  2.60801000E-01  6.16462000E-01
  2.21006000E-01  1.14660000E-01  9.19999000E-01 -3.03068000E-03  4.02487000E-02
  2.37594000E-01  8.15854000E-01  1.00000000E+00  1.00000000E+00  1.00000000E+00
  1.00000000E+00  1.00000000E+00  1.00000000E+00  1.00000000E+00  2.54938000E-02
  1.90373000E-01  8.52161000E-01  1.00000000E+00  1.00000000E+00  1.00000000E+00
  1.00000000E+00  2.54938000E-02  1.90373000E-01  8.52161000E-01  1.00000000E+00
  1.00000000E+00  1.00000000E+00  1.00000000E+00  2.54938000E-02  1.90373000E-01
  8.52161000E-01  1.00000000E+00  1.00000000E+00  1.00000000E+00  1.00000000E+00
  2.54938000E-02  1.90373000E-01  8.52161000E-01  1.00000000E+00  1.00000000E+00
  1.00000000E+00  1.00000000E+00  2.54938000E-02  1.90373000E-01  8.52161000E-01
  1.00000000E+00  1.00000000E+00  1.00000000E+00  1.00000000E+00  2.54938000E-02
  1.90373000E-01  8.52161000E-01  1.00000000E+00  1.00000000E+00  1.00000000E+00
  1.00000000E+00
Coordinates of each shell                  R   N=         270
 -2.29242676E+00 -1.30088746E+00  0.00000000E+00 -2.29242676E+00 -1.30088746E+00
  0.00000000E+00 -2.29242676E+00 -1.30088746E+00  0.00000000E+00 -2.29242676E+00
 -1.30088746E+00  0.00000000E+00 -2.29242676E+00 -1.30088746E+00  0.00000000E+00
 -2.29242676E+00 -1.30088746E+00  0.00000000E+00 -2.29242676E+00 -1.30088746E+00
  0.00000000E+00 -2.29242676E+00 -1.30088746E+00  0.00000000E+00 -2.29242676E+00
 -1.30088746E+00  0.00000000E+00 -2.29242676E+00 -1.30088746E+00  0.00000000E+00
 -2.27296258E+00  1.33490254E+00  1.88972613E-04 -2.27296258E+00  1.33490254E+00
  1.88972613E-04 -2.27296258E+00  1.33490254E+00  1.88972613E-04 -2.27296258E+00
  1.33490254E+00  1.88972613E-04 -2.27296258E+00  1.33490254E+00  1.88972613E-04
 -2.27296258E+00  1.33490254E+00  1.88972613E-04 -2.27296258E+00  1.33490254E+00
  1.88972613E-04 -2.27296258E+00  1.33490254E+00  1.88972613E-04 -2.27296258E+00
  1.33490254E+00  1.88972613E-04 -2.27296258E+00  1.33490254E+00  1.88972613E-04
 -1.94641791E-02 -2.63579000E+00  0.00000000E+00 -1.94641791E-02 -2.63579000E+00
  0.00000000E+00 -1.94641791E-02 -2.63579000E+00  0.00000000E+00 -1.94641791E-02
 -2.63579000E+00  0.00000000E+00 -1.94641791E-02 -2.63579000E+00  0.00000000E+00
 -1.94641791E-02 -2.63579000E+00  0.00000000E+00 -1.94641791E-02 -2.63579000E+00
  0.00000000E+00 -1.94641791E-02 -2.63579000E+00  0.00000000E+00 -1.94641791E-02
 -2.63579000E+00  0.00000000E+00 -1.94641791E-02 -2.63579000E+00  0.00000000E+00
  1.96531517E-02  2.63579000E+00 -1.88972613E-04  1.96531517E-02  2.63579000E+00
 -1.88972613E-04  1.96531517E-02  2.63579000E+00 -1.88972613E-04  1.96531517E-02
  2.63579000E+00 -1.88972613E-04  1.96531517E-02  2.63579000E+00 -1.88972613E-04
  1.96531517E-02  2.63579000E+00 -1.88972613E-04  1.96531517E-02  2.63579000E+00
 -1.88972613E-04  1.96531517E-02  2.63579000E+00 -1.88972613E-04  1.96531517E-02
  2.63579000E+00 -1.88972613E-04  1.96531517E-02  2.63579000E+00 -1.88972613E-04
  2.27296258E+00 -1.33471356E+00  0.00000000E+00  2.27296258E+00 -1.33471356E+00
  0.00000000E+00  2.27296258E+00 -1.33471356E+00  0.00000000E+00  2.27296258E+00
 -1.33471356E+00  0.00000000E+00  2.27296258E+00 -1.33471356E+00  0.00000000E+00
  2.27296258E+00 -1.33471356E+00  0.00000000E+00  2.27296258E+00 -1.33471356E+00
  0.00000000E+00  2.27296258E+00 -1.33471356E+00  0.00000000E+00  2.27296258E+00
 -1.33471356E+00  0.00000000E+00  2.27296258E+00 -1.33471356E+00  0.00000000E+00
  2.29242676E+00  1.30088746E+00  0.00000000E+00  2.29242676E+00  1.30088746E+00
  0.00000000E+00  2.29242676E+00  1.30088746E+00  0.00000000E+00  2.29242676E+00
  1.30088746E+00  0.00000000E+00  2.29242676E+00  1.30088746E+00  0.00000000E+00
  2.29242676E+00  1.30088746E+00  0.00000000E+00  2.29242676E+00  1.30088746E+00
  0.00000000E+00  2.29242676E+00  1.30088746E+00  0.00000000E+00  2.29242676E+00
  1.30088746E+00  0.00000000E+00  2.29242676E+00  1.30088746E+00  0.00000000E+00
 -4.07746206E+00 -2.31378067E+00  0.00000000E+00 -4.07746206E+00 -2.31378067E+00
  0.00000000E+00 -4.07746206E+00 -2.31378067E+00  0.00000000E+00 -4.07746206E+00
 -2.31378067E+00  0.00000000E+00 -4.07746206E+00 -2.31378067E+00  0.00000000E+00
 -4.04269110E+00  2.37425190E+00  1.88972613E-04 -4.04269110E+00  2.37425190E+00
  1.88972613E-04 -4.04269110E+00  2.37425190E+00  1.88972613E-04 -4.04269110E+00
  2.37425190E+00  1.88972613E-04 -4.04269110E+00  2.37425190E+00  1.88972613E-04
 -3.47709607E-02 -4.68822154E+00 -1.88972613E-04 -3.47709607E-02 -4.68822154E+00
 -1.88972613E-04 -3.47709607E-02 -4.68822154E+00 -1.88972613E-04 -3.47709607E-02
 -4.68822154E+00 -1.88972613E-04 -3.47709607E-02 -4.68822154E+00 -1.88972613E-04
  3.47709607E-02  4.68803257E+00  0.00000000E+00  3.47709607E-02  4.68803257E+00
  0.00000000E+00  3.47709607E-02  4.68803257E+00  0.00000000E+00  3.47709607E-02
  4.68803257E+00  0.00000000E+00  3.47709607E-02  4.68803257E+00  0.00000000E+00
  4.04288007E+00 -2.37406293E+00  1.88972613E-04  4.04288007E+00 -2.37406293E+00
  1.88972613E-04  4.04288007E+00 -2.37406293E+00  1.88972613E-04  4.04288007E+00
 -2.37406293E+00  1.88972613E-04  4.04288007E+00 -2.37406293E+00  1.88972613E-04
  4.07746206E+00  2.31396964E+00  0.00000000E+00  4.07746206E+00  2.31396964E+00
  0.00000000E+00  4.07746206E+00  2.31396964E+00  0.00000000E+00  4.07746206E+00
  2.31396964E+00  0.00000000E+00  4.07746206E+00  2.31396964E+00  0.00000000E+00
Total Energy                               R       0.00000000E+00
Alpha Orbital Energies                     R   N=         174
 -1.12394313E+01 -1.12388642E+01 -1.12388589E+01 -1.12376351E+01 -1.12376293E+01
 -1.12370295E+01 -1.15208471E+00 -1.01622929E+00 -1.01620295E+00 -8.24945759E-01
 -8.24916814E-01 -7.10135214E-01 -6.43824467E-01 -6.20806461E-01 -5.89149269E-01
 -5.89133275E-01 -5.02003145E-01 -4.95867581E-01 -4.95832709E-01 -3.37122226E-01
 -3.37095892E-01  4.21094092E-02  4.89599733E-02  4.89606725E-02  6.62532110E-02
  6.62537506E-02  8.80792121E-02  1.09107997E-01  1.09126246E-01  1.29347014E-01
  1.52606568E-01  1.52608682E-01  1.57978600E-01  1.62780435E-01  1.81014742E-01
  1.81015963E-01  1.83413143E-01  1.83414762E-01  1.92429228E-01  2.09205362E-01
  2.12258147E-01  2.12259670E-01  2.16182938E-01  2.16193901E-01  2.17060793E-01
  2.28161197E-01  2.28163232E-01  2.50293728E-01  2.50294194E-01  2.89013024E-01
  2.89015226E-01  3.03043202E-01  3.33228433E-01  3.33778586E-01  3.68383031E-01
  4.07851456E-01  4.07864305E-01  4.29381266E-01  4.29393234E-01  4.39217866E-01
  4.97967218E-01  4.97983726E-01  5.08571617E-01  5.08593639E-01  6.04049650E-01
  6.08846179E-01  7.15404705E-01  7.22441718E-01  7.22458184E-01  7.27230696E-01
  7.49843519E-01  7.49867039E-01  7.50742548E-01  7.57696376E-01  7.57708278E-01
  7.96550884E-01  8.19515448E-01  8.19526573E-01  8.85796584E-01  9.39513163E-01
  9.39550206E-01  9.50250890E-01  9.50284800E-01  9.74882187E-01  1.01584542E+00
  1.01585116E+00  1.01790791E+00  1.05936445E+00  1.05936764E+00  1.10424417E+00
  1.12038646E+00  1.12041189E+00  1.12956742E+00  1.16944751E+00  1.21675012E+00
  1.21676721E+00  1.24906165E+00  1.32307641E+00  1.32309126E+00  1.39087867E+00
  1.39089521E+00  1.52210757E+00  1.55547344E+00  1.71125492E+00  1.78460409E+00
  1.78462718E+00  1.79520428E+00  1.82485783E+00  1.84371966E+00  1.84374090E+00
  1.90653797E+00  1.90655724E+00  1.93181250E+00  1.93185092E+00  1.98858331E+00
  2.05286223E+00  2.05288082E+00  2.10228127E+00  2.10231451E+00  2.12663489E+00
  2.23602130E+00  2.23608631E+00  2.23879766E+00  2.24744820E+00  2.24747127E+00
  2.29455619E+00  2.34479270E+00  2.34483623E+00  2.37587737E+00  2.37590059E+00
  2.63541677E+00  2.66160242E+00  2.73957077E+00  2.73959096E+00  2.73979206E+00
  2.81189640E+00  2.81191276E+00  2.95677502E+00  2.95683085E+00  2.98891874E+00
  2.99350948E+00  3.02212837E+00  3.02213375E+00  3.04720207E+00  3.04720963E+00
  3.05763437E+00  3.09077885E+00  3.19105730E+00  3.19106937E+00  3.25899748E+00
  3.29274546E+00  3.29275804E+00  3.32217128E+00  3.32218970E+00  3.48082753E+00
  3.54662997E+00  3.77361302E+00  3.77371189E+00  3.90287430E+00  3.90293322E+00
  3.91710072E+00  4.07028331E+00  4.40253734E+00  4.40255858E+00  4.49306311E+00
  4.57159159E+00  4.57160703E+00  5.27724996E+00  2.47438771E+01  2.51323459E+01
  2.51325214E+01  2.52546649E+01  2.52548625E+01  2.53654684E+01
Alpha MO coefficients                      R   N=       30276
 -1.58158481E-04 -2.78977011E-04  5.33127902E-07  4.42514726E-04 -2.13925801E-04
  7.97186584E-04  9.00025739E-07  4.84269084E-04 -1.51371484E-04  2.97993849E-04
  1.43518496E-06  7.32772015E-04 -1.23663487E-04  2.67626863E-05 -2.27960402E-07
  2.97383584E-07 -3.76792451E-04 -8.63570855E-05  4.54216695E-03  5.38082002E-07
  4.75191821E-04 -2.45309941E-03 -1.38207714E-04 -2.30849033E-04  1.09752641E-06
  2.38207579E-04 -1.07577055E-04  5.55031940E-04  1.88357838E-06  3.14119961E-04
 -1.46158125E-04  1.02587588E-03  2.46159427E-06  4.43155040E-04 -2.18934819E-04
  2.16094998E-05 -6.98288043E-08 -1.16809163E-07  7.38809259E-05 -1.26825521E-04
  5.81679535E-03  2.18585881E-08  2.69302888E-04 -1.29543793E-04  1.28339235E-03
  2.34448611E-03 -1.97447158E-06 -3.66646134E-03 -2.05095806E-03 -6.49755947E-03
 -3.42127422E-06 -6.24697236E-03 -3.49312539E-03 -1.52459710E-03 -2.66644056E-06
 -1.81243852E-03 -7.64500564E-04  4.20984729E-04 -5.07838464E-07 -2.48071548E-07
 -4.79510241E-04 -9.16518009E-04 -1.71712129E-02 -1.11951547E-07  1.97917091E-03
 -3.16352018E-03 -1.72658819E-04 -3.04761742E-04 -7.12307245E-07  4.04562813E-04
 -2.97674993E-04  8.72451512E-04 -1.23891665E-06  3.68942688E-04 -3.70626742E-04
  4.05099845E-04 -7.62063172E-07  4.78063148E-04 -6.85427635E-04  2.59875137E-05
 -5.12586399E-07  1.78381177E-07  3.06862751E-04  3.00073115E-04  4.03386579E-03
  4.72974238E-07  2.37508132E-03  9.11373896E-04  5.68500275E-01  4.75896829E-01
 -3.88687772E-06  2.01518636E-04 -4.89911987E-04 -2.14467662E-02 -6.67846621E-06
  8.87036506E-05 -6.36042134E-04 -1.79758844E-02 -5.83685555E-06  3.36378121E-04
 -4.52499359E-04  5.37393307E-04  2.78800365E-07 -3.39280955E-07  8.00602655E-05
 -3.00012898E-05  1.71777053E-02 -1.13275225E-06 -8.79095892E-03  5.18110977E-03
  1.39183460E-03  2.56414537E-03 -3.25544559E-06 -6.93304270E-06  4.59722994E-03
 -7.16901337E-03 -5.61445289E-06 -1.04762727E-05  7.76704197E-03 -1.98234322E-03
 -4.82765729E-06 -1.21129263E-04  2.31813110E-03  4.41460200E-04  1.80463232E-07
  4.91472604E-07  1.08998529E-03 -4.09768228E-05 -1.67146947E-02 -3.81914988E-07
  3.54485782E-03 -2.83832115E-04 -2.46264815E-04 -4.58638244E-04 -4.46132072E-04
  5.90070171E-08  2.09444571E-05  4.83463850E-06 -6.69091571E-04 -6.21137913E-05
 -8.71687519E-05  1.02206312E-04  1.05446229E-07 -3.58772393E-05  2.30593067E-05
 -1.42421267E-04  4.87026249E-04  9.28966763E-04  1.28858890E-03 -1.40625622E-07
 -1.68253784E-04 -9.21724423E-05 -4.58051152E-04 -2.66827328E-04 -4.96571972E-04
 -4.89529204E-04 -4.68787335E-08  4.06727912E-06 -2.58548267E-05 -6.96788544E-04
 -4.61915728E-03 -7.56321906E-03  1.70165946E-03 -1.93149170E-07  9.79565756E-04
 -5.94191656E-04  3.95741193E-03  5.30227983E-04  1.01676240E-03  1.40381562E-03
 -2.52108443E-07  2.15919772E-06  2.12560213E-04 -3.85758179E-04 -9.40349201E-04
 -1.69916646E-03 -3.57130324E-07  1.93029154E-03  8.66829511E-04  5.99023295E-03
 -6.62986411E-07  3.00406471E-03  1.40187729E-03  7.63999838E-05 -2.26975694E-07
 -5.17502269E-03 -3.17293769E-03  5.86436868E-04  1.49952221E-07 -2.97033215E-07
  2.96296791E-04  3.96891875E-04  9.51748461E-02  1.03399719E-06  2.90323051E-02
  1.63405881E-02 -2.82027640E-03 -4.94581317E-03 -2.34657895E-06  6.78287550E-03
  4.76327884E-03  1.48515831E-02 -3.76283842E-06  9.72530958E-03  4.92972534E-03
  2.90003226E-02 -3.32928783E-06  2.24474926E-02  8.72164112E-03  9.13590032E-04
  2.30008982E-07  3.30490159E-07 -2.09509048E-03 -4.22237436E-04 -2.50571998E-01
  9.90345570E-06 -4.27132228E-02 -1.22455552E-02 -3.01860148E-03 -5.33240211E-03
  1.10600480E-06  7.80913336E-03  3.68756067E-03  1.60221663E-02  1.65855960E-06
  9.59953334E-03  6.28370880E-03  3.00653045E-02  2.62386140E-06  1.92160059E-02
  1.56382951E-02  8.85767262E-04  1.80853831E-08  3.56779886E-08  8.62772230E-04
 -2.15012145E-03 -2.53583128E-01  1.35967120E-06 -3.24643421E-02 -3.12584386E-02
  5.38493191E-03  9.74355046E-03  3.73670241E-07 -1.24067960E-02  9.12785763E-03
 -2.86701413E-02  6.53656176E-07 -1.75122843E-02  1.16931065E-02 -4.53457686E-02
 -2.29870447E-07 -2.33815105E-02 -1.54690044E-03 -9.35708269E-05  9.44340663E-08
  3.94016938E-07  1.55712093E-02  6.42237209E-03  3.96071044E-01  1.32009164E-05
 -2.94159142E-02 -9.71134264E-02  5.94192178E-03  1.08468637E-02  1.71059537E-07
  1.08275337E-03 -1.78342006E-02 -3.19952515E-02  4.44754266E-08  4.46223183E-04
 -2.48980536E-02 -4.76833228E-02 -5.49717466E-07 -1.30060521E-02 -2.15210580E-02
  5.60073679E-06 -6.51665653E-07  3.07642168E-07 -1.34729853E-03  1.65949029E-02
  3.98923221E-01  6.17609415E-07 -9.94524324E-02  2.51308836E-02 -3.92262189E-02
 -7.92613481E-02  2.75211985E-06  1.41694408E-01  8.26203478E-02  2.33752749E-01
  4.53927702E-06  2.17571166E-01  1.26931016E-01  1.94151795E-01  3.50636303E-06
  1.44555028E-01  8.35871918E-02 -8.90001348E-03 -1.06827418E-06  2.30781193E-07
  1.25835851E-02  2.04761623E-02 -3.89078274E-01 -1.42381500E-07  1.45847828E-01
  8.26954708E-02  5.77968088E-04 -2.96553321E-04  3.88087917E-03 -5.53701432E-08
  8.26061561E-05  3.11604778E-05  7.89020324E-03 -2.68909993E-03 -7.29178661E-03
 -2.11079286E-03 -2.60916047E-07  2.31672590E-04  4.19615279E-04  2.21795700E-03
 -2.85386736E-03 -7.60273286E-03 -2.46618137E-03  4.59102625E-08  4.79908338E-04
  2.36857184E-05  2.00684115E-03 -6.86753689E-03 -1.20912010E-02 -1.01070922E-02
 -3.88867179E-07 -1.55382633E-03 -1.80943455E-03  2.50747056E-02 -6.61882579E-03
 -1.15986573E-02 -9.49133979E-03 -3.00462457E-07 -2.34593718E-03 -5.36372102E-04
  2.54527945E-02  1.91074693E-01  2.93134894E-01  4.46378757E-02  2.16162576E-07
 -2.49589342E-02 -1.40547447E-02 -5.17171877E-02 -1.37978109E-04 -2.30495132E-04
  3.65774761E-07  2.39434172E-04  1.03949324E-04  5.54171942E-04  6.06233667E-07
  3.15865340E-04  1.41395551E-04  1.02540215E-03  7.18720252E-07  4.46385808E-04
  2.12552579E-04  2.15904921E-05 -6.69613549E-09  1.25555314E-08  7.75790139E-05
  1.24441537E-04  5.81457236E-03  6.96606269E-07  2.70896266E-04  1.25359967E-04
 -1.57984182E-04 -2.78722039E-04  6.50872352E-08  4.45007804E-04  2.07245055E-04
  7.96557624E-04  1.04672905E-07  4.85635105E-04  1.44198263E-04  2.96430430E-04
  4.75415524E-07  7.32704568E-04  1.12837520E-04  2.67021427E-05 -5.30701506E-08
 -1.19397136E-07 -3.73732126E-04  9.74601043E-05  4.54558309E-03 -6.99073048E-07
  5.12021853E-04  2.44544914E-03 -1.71659346E-04 -3.03959293E-04 -1.34316383E-07
  4.08969175E-04  2.91418570E-04  8.72615957E-04 -2.52423774E-07  3.74767996E-04
  3.64862852E-04  4.04195001E-04 -5.78865717E-08  4.87661418E-04  6.77088274E-04
  2.59400298E-05 -1.46407969E-07 -4.74828868E-08  2.97577441E-04 -3.08685168E-04
  4.03287188E-03 -3.43706991E-07  2.36056689E-03 -9.46461104E-04  1.28243643E-03
  2.34265617E-03 -6.48818626E-07 -3.63288195E-03  2.10398346E-03 -6.49217279E-03
 -1.07619091E-06 -6.19009164E-03  3.58366910E-03 -1.52130766E-03 -8.53348270E-07
 -1.79905060E-03  7.90431993E-04  4.20761327E-04 -3.04129162E-07  1.62205314E-07
 -4.52239429E-04  9.29600791E-04 -1.71707735E-02 -2.42845145E-07  2.02702546E-03
  3.13467590E-03  1.39352679E-03  2.56462452E-03 -8.51570599E-07 -7.56562471E-05
 -4.59366503E-03 -7.16433035E-03 -1.45364259E-06 -1.26457019E-04 -7.76120529E-03
 -1.97960439E-03 -1.41369107E-06 -1.56193493E-04 -2.31431251E-03  4.41261844E-04
  5.19556606E-08 -1.74951217E-07  1.09008173E-03  8.41768116E-06 -1.67152363E-02
  5.12608468E-08  3.54830682E-03  2.29721932E-04  5.68498744E-01  4.75893816E-01
 -1.06746875E-06  2.04853055E-04  4.84788599E-04 -2.14369086E-02 -1.66838817E-06
  9.18466608E-05  6.31858175E-04 -1.79708436E-02 -1.68670733E-06  3.39528840E-04
  4.45821781E-04  5.36994251E-04  1.65998112E-08  1.31365712E-07  8.06780142E-05
  2.70350854E-05  1.71788000E-02 -4.77253982E-07 -8.86540395E-03 -5.05175427E-03
 -6.20804854E-05 -8.69500021E-05  1.02203913E-04  3.53022984E-08 -3.61753087E-05
 -2.24905426E-05 -1.42413266E-04 -2.45765847E-04 -4.57801873E-04 -4.45985153E-04
  9.60970053E-09  2.08831082E-05 -5.17071385E-06 -6.69010581E-04 -2.66463391E-04
 -4.95957536E-04 -4.89434648E-04 -1.06625917E-08  4.47598457E-06  2.58059732E-05
 -6.96710719E-04  4.87265585E-04  9.29208917E-04  1.28841719E-03 -6.04688168E-08
 -1.66743394E-04  9.46182202E-05 -4.58619690E-04  5.29534339E-04  1.01569875E-03
  1.40323316E-03 -7.37158065E-08 -8.70860390E-07 -2.12462080E-04 -3.86114373E-04
 -4.62104176E-03 -7.56642663E-03  1.69995115E-03 -9.15624479E-08  9.88327542E-04
  5.79713276E-04  3.95713211E-03 -5.38642248E-03 -9.74511725E-03  1.24223703E-06
  1.69815033E-03  1.53089677E-02  2.86708512E-02  2.03063074E-06  1.36804225E-03
  2.10153555E-02  4.53494028E-02  3.19073325E-06 -1.30240691E-02  1.94794666E-02
  9.32204187E-05  6.94825103E-07 -4.29946262E-07  2.22116657E-03  1.66931464E-02
 -3.95904383E-01 -6.77785846E-06 -9.87737004E-02 -2.30713527E-02  3.92446231E-02
  7.92825610E-02 -8.70454925E-06  1.42396208E-01 -8.14053098E-02 -2.33786674E-01
 -1.44330452E-05  2.18700106E-01 -1.24957627E-01 -1.94163030E-01 -1.05313391E-05
  1.44638581E-01 -8.33740048E-02  8.90084950E-03 -1.85358909E-06  1.12523502E-07
 -1.14402630E-02  2.11360393E-02  3.88813192E-01 -5.94570493E-06  1.44474852E-01
 -8.49303363E-02  2.82037446E-03  4.94540425E-03  5.65735702E-07  7.51564844E-03
 -3.49151601E-03 -1.48489543E-02  1.20471390E-06  9.13120464E-03 -5.95674754E-03
 -2.89979771E-02 -7.07753621E-08  1.87721790E-02 -1.50788000E-02 -9.13411746E-04
 -1.97530033E-07  8.89417929E-08 -6.81727029E-04 -2.02478928E-03  2.50463923E-01
 -1.07594138E-06 -3.19551003E-02  3.08423552E-02 -5.94336565E-03 -1.08480829E-02
  5.37022707E-07 -1.49085792E-02 -9.84983066E-03  3.19957268E-02  8.40860473E-07
 -2.13488216E-02 -1.28320360E-02  4.76894372E-02  1.10066750E-07 -2.51380110E-02
  4.83555523E-04 -5.92028248E-06  5.64940537E-07 -9.62361763E-07 -1.50386510E-02
  7.13039700E-03 -3.98732624E-01 -1.48023213E-05 -2.79635395E-02  9.86387673E-02
  9.40373050E-04  1.69932155E-03 -3.08499700E-07  1.71472206E-03 -1.23736874E-03
 -5.99057911E-03 -3.58470202E-07  2.71466122E-03 -1.89893896E-03 -7.35761784E-05
 -1.45038447E-06 -5.33927715E-03  2.89556250E-03 -5.86147286E-04 -1.09341726E-07
 -3.82774049E-08 -1.95904473E-04  4.55383454E-04 -9.50695038E-02 -1.50809980E-06
  2.86499415E-02 -1.69500768E-02  3.01765200E-03  5.33064195E-03  5.32476360E-07
  7.09595065E-03 -4.91833873E-03 -1.60164557E-02  8.03952530E-07  1.02397675E-02
 -5.17035221E-03 -3.00640987E-02 -8.28803370E-07  2.31506966E-02 -8.81982177E-03
 -8.85444430E-04  6.46138658E-08 -1.00973148E-07  2.29298930E-03 -3.27446989E-04
  2.53487369E-01 -5.58178352E-06 -4.32918685E-02  1.25103209E-02  6.86814877E-03
  1.20952580E-02  1.01054049E-02  2.58628439E-07 -2.34197539E-03  4.42009368E-04
 -2.50680229E-02 -1.91081750E-01 -2.93130558E-01 -4.46258042E-02 -7.16812825E-07
 -2.46519746E-02  1.45897054E-02  5.17080866E-02  2.68873716E-03  7.29034097E-03
  2.11028975E-03  1.36811657E-07  4.79268972E-04  9.02570359E-06 -2.22412372E-03
  6.61478782E-03  1.15931160E-02  9.48706278E-03  5.54124296E-07 -1.63838665E-03
  1.76211477E-03 -2.54435181E-02 -5.79402864E-04  2.94196364E-04 -3.88008620E-03
  1.61531543E-08  6.84130362E-05 -5.60162970E-05 -7.88157042E-03  2.85339925E-03
  7.60072298E-03  2.46677182E-03  1.32361873E-07  2.60884505E-04 -4.03716601E-04
 -2.00956718E-03 -5.68499056E-01 -4.75894225E-01  1.18490385E-07  5.20903932E-04
 -7.17676620E-05  2.14392368E-02  3.04148470E-07  5.90791073E-04 -2.44258245E-04
  1.79725090E-02  1.35682656E-07  5.57696427E-04  6.34825943E-05 -5.37165894E-04
  2.21023882E-08  5.95656033E-08  1.44671196E-05 -8.42419398E-05 -1.71761628E-02
 -3.05863179E-07 -8.88268358E-03 -5.02054764E-03 -1.28150039E-03 -2.34205222E-03
 -1.72133557E-07 -5.69767344E-05 -4.19846026E-03  6.49307411E-03 -2.60449124E-07