FCHK generated by IOData                                                
NA        NA                                                           NA
Number of atoms                            I                3
Number of electrons                        I               14
Charge                                     I                0
Multiplicity                               I                1
Number of alpha electrons                  I                7
Number of beta electrons                   I                7
Atomic numbers                             I   N=           3
           7           6           1
Nuclear charges                            R   N=           3
  7.00000000E+00  6.00000000E+00  1.00000000E+00
Current cartesian coordinates              R   N=           9
 -1.09604115E+00  0.00000000E+00  0.00000000E+00  1.09604115E+00  0.00000000E+00
  0.00000000E+00  3.10859948E+00  0.00000000E+00  0.00000000E+00
Number of basis functions                  I               51
Number of independent functions            I               51
Number of contracted shells                I               25
Number of primitive shells                 I               45
Pure/Cartesian d shells                    I                0
Pure/Cartesian f shells                    I                0
Highest angular momentum                   I                2
Largest degree of contraction              I                6
Shell types                                I   N=          25
           0           0           1           0           1           0
           1          -2           0           1           0           0
           1           0           1           0           1          -2
           0           1           0           0           0           1
           0
Number of primitives per shell             I   N=          25
           6           3           3           1           1           1
           1           1           1           1           6           3
           3           1           1           1           1           1
           1           1           3           1           1           1
           1
Shell to atom map                          I   N=          25
           1           1           1           1           1           1
           1           1           1           1           2           2
           2           2           2           2           2           2
           2           2           3           3           3           3
           3
Primitive exponents                        R   N=          45
  6.29348000E+03  9.49044000E+02  2.18776000E+02  6.36916000E+01  1.88282000E+01
  2.72023000E+00  3.06331000E+01  7.02614000E+00  2.11205000E+00  3.06331000E+01
  7.02614000E+00  2.11205000E+00  6.84009000E-01  6.84009000E-01  2.00878000E-01
  2.00878000E-01  9.13000000E-01  6.39000000E-02  6.39000000E-02  4.56324000E+03
  6.82024000E+02  1.54973000E+02  4.44553000E+01  1.30290000E+01  1.82773000E+00
  2.09642000E+01  4.80331000E+00  1.45933000E+00  2.09642000E+01  4.80331000E+00
  1.45933000E+00  4.83456000E-01  4.83456000E-01  1.45585000E-01  1.45585000E-01
  6.26000000E-01  4.38000000E-02  4.38000000E-02  3.38650000E+01  5.09479000E+00
  1.15879000E+00  3.25840000E-01  1.02741000E-01  7.50000000E-01  3.60000000E-02
Contraction coefficients                   R   N=          45
  1.96979000E-03  1.49613000E-02  7.35006000E-02  2.48937000E-01  6.02460000E-01
  2.56202000E-01  1.11906000E-01  9.21666000E-01 -2.56919000E-03  3.83119000E-02
  2.37403000E-01  8.17592000E-01  1.00000000E+00  1.00000000E+00  1.00000000E+00
  1.00000000E+00  1.00000000E+00  1.00000000E+00  1.00000000E+00  1.96665000E-03
  1.52306000E-02  7.61269000E-02  2.60801000E-01  6.16462000E-01  2.21006000E-01
  1.14660000E-01  9.19999000E-01 -3.03068000E-03  4.02487000E-02  2.37594000E-01
  8.15854000E-01  1.00000000E+00  1.00000000E+00  1.00000000E+00  1.00000000E+00
  1.00000000E+00  1.00000000E+00  1.00000000E+00  2.54938000E-02  1.90373000E-01
  8.52161000E-01  1.00000000E+00  1.00000000E+00  1.00000000E+00  1.00000000E+00
Coordinates of each shell                  R   N=          75
 -1.09604115E+00  0.00000000E+00  0.00000000E+00 -1.09604115E+00  0.00000000E+00
  0.00000000E+00 -1.09604115E+00  0.00000000E+00  0.00000000E+00 -1.09604115E+00
  0.00000000E+00  0.00000000E+00 -1.09604115E+00  0.00000000E+00  0.00000000E+00
 -1.09604115E+00  0.00000000E+00  0.00000000E+00 -1.09604115E+00  0.00000000E+00
  0.00000000E+00 -1.09604115E+00  0.00000000E+00  0.00000000E+00 -1.09604115E+00
  0.00000000E+00  0.00000000E+00 -1.09604115E+00  0.00000000E+00  0.00000000E+00
  1.09604115E+00  0.00000000E+00  0.00000000E+00  1.09604115E+00  0.00000000E+00
  0.00000000E+00  1.09604115E+00  0.00000000E+00  0.00000000E+00  1.09604115E+00
  0.00000000E+00  0.00000000E+00  1.09604115E+00  0.00000000E+00  0.00000000E+00
  1.09604115E+00  0.00000000E+00  0.00000000E+00  1.09604115E+00  0.00000000E+00
  0.00000000E+00  1.09604115E+00  0.00000000E+00  0.00000000E+00  1.09604115E+00
  0.00000000E+00  0.00000000E+00  1.09604115E+00  0.00000000E+00  0.00000000E+00
  3.10859948E+00  0.00000000E+00  0.00000000E+00  3.10859948E+00  0.00000000E+00
  0.00000000E+00  3.10859948E+00  0.00000000E+00  0.00000000E+00  3.10859948E+00
  0.00000000E+00  0.00000000E+00  3.10859948E+00  0.00000000E+00  0.00000000E+00
Total Energy                               R       0.00000000E+00
Alpha Orbital Energies                     R   N=          51
 -1.56051292E+01 -1.12971638E+01 -1.23834778E+00 -8.15237994E-01 -5.83828879E-01
 -4.96226311E-01 -4.96226311E-01  3.57817708E-02  8.72001937E-02  8.99352365E-02
  8.99352365E-02  1.68261002E-01  1.73298398E-01  1.73298398E-01  2.08660088E-01
  2.75417393E-01  2.75417393E-01  2.82966331E-01  3.38052828E-01  5.34500315E-01
  7.02868167E-01  7.02868167E-01  7.55915120E-01  9.38219989E-01  9.69199886E-01
  1.06149847E+00  1.06149847E+00  1.28196654E+00  1.39585610E+00  1.39585610E+00
  1.46640129E+00  1.49661913E+00  1.49661913E+00  2.07424465E+00  2.07424465E+00
  2.23587061E+00  2.38251092E+00  2.38251092E+00  2.82237075E+00  2.97589850E+00
  2.97589850E+00  3.21020006E+00  3.23402859E+00  3.23402859E+00  3.44644783E+00
  3.76937813E+00  4.39371677E+00  4.39371677E+00  5.03376213E+00  2.54665617E+01
  3.71649208E+01
Alpha MO coefficients                      R   N=        2601
 -2.93584776E-02 -6.07413045E-02  1.49616928E-01  8.86788478E-02  4.98602029E-02
  1.90001952E-01  2.40355710E-01  1.29539008E-01  8.00991213E-02  9.64532158E-02
  1.89026670E-01  6.42766598E-02  6.29935947E-02 -9.98892144E-03  2.89262160E-02
 -1.58626250E-16  1.73013194E-02  9.63973138E-03 -5.08345019E-02  6.56468109E-03
 -9.96011734E-03  2.18769584E-03 -2.92700650E-02 -6.12504349E-02  1.33773586E-01
 -8.36399044E-02  4.45803709E-02  1.90902039E-01  2.22797186E-01 -9.61008090E-02
  7.42477006E-02  7.09494876E-02  1.65716110E-01 -8.74730886E-03  5.52252942E-02
 -9.38907476E-03 -3.24930921E-02 -4.95410299E-16  1.62623545E-02 -1.08284014E-02
  2.62439434E-02  1.30738851E-02 -5.45460228E-03  4.35690381E-03 -7.20971296E-03
 -2.72013039E-02 -9.92697986E-03  1.22775305E-02  6.33658616E-03  4.09151670E-03
 -2.20802242E-03 -5.64956209E-01 -4.81498728E-01  4.53816277E-08 -4.84702728E-03
 -4.75130930E-08  3.48937264E-02  7.29044052E-08 -3.80678163E-03 -7.63285506E-08
  3.69345288E-02  5.73353426E-08 -4.96282366E-03 -6.00282461E-08 -1.94182885E-04
  8.77386508E-09  3.02591824E-17  3.36334622E-04 -9.18595286E-09 -1.48638963E-03
  1.99119135E-09 -6.14318614E-04 -2.08471257E-09 -1.61201351E-03 -2.83797124E-03
  4.05760442E-08 -4.59776907E-03 -4.24818032E-08  7.09115133E-03  6.75785750E-08
 -4.74317570E-03 -7.07525780E-08 -2.06209811E-03  5.02648124E-08  2.30745279E-03
 -5.26256293E-08 -6.41627249E-04 -9.85576623E-09 -1.23809654E-17  1.11133099E-03
  1.03186673E-08  9.63478868E-04  3.96555486E-09 -1.71624424E-03 -4.15180738E-09
 -6.80837010E-04 -2.28023908E-03 -3.14572025E-05  3.72400598E-09  5.74181522E-04
 -3.89891387E-09  1.15707135E-03 -2.93576875E-02 -6.07397074E-02 -3.16563793E-02
  8.86681364E-02 -1.54502808E-01  1.89997918E-01 -5.08551514E-02  1.29523267E-01
 -2.48204750E-01  9.64581326E-02 -3.99948057E-02  6.42679339E-02 -1.95199512E-01
 -9.98803360E-03 -6.12029184E-03  2.47061352E-16  1.72997817E-02 -2.98708285E-02
 -5.08288088E-02 -1.38897407E-03 -9.95890357E-03 -6.77905686E-03 -2.92603367E-02
 -6.12374187E-02 -2.83041995E-02 -8.36358675E-02 -1.38142087E-01  1.90876220E-01
 -4.71400684E-02 -9.60967922E-02 -2.30072836E-01  7.09343028E-02 -3.50626904E-02
 -8.74759683E-03 -1.71127724E-01 -9.38800659E-03  6.87498172E-03 -3.65992583E-16
  1.62605044E-02  3.35541842E-02  2.62411931E-02 -2.76621015E-03 -5.45469586E-03
 -1.35008250E-02 -7.21340730E-03 -2.72054651E-02 -9.92616609E-03 -2.59771515E-03
  6.33689821E-03 -1.26784647E-02 -2.20756680E-03 -5.99434858E-02 -1.25511362E-01
  2.97786099E-06 -1.92523376E-01  1.50106748E-06  4.25060061E-01  4.78385635E-06
 -2.91320329E-01  2.41142593E-06  5.30941532E-01  3.76224238E-06 -1.85943862E-01
  1.89645510E-06  8.52778205E-03  5.75725296E-07  4.39414747E-16 -1.47705518E-02
  2.90209152E-07  7.41513020E-02  1.30658394E-07  2.59380839E-03  6.58617284E-08
  2.12734929E-02  4.06944245E-02  2.66252722E-06  5.16474352E-02  1.34211537E-06
 -1.35610291E-01  4.43438491E-06  6.88172871E-02  2.23526585E-06 -1.34886692E-01
  3.29828680E-06  6.57961392E-02  1.66258635E-06 -7.94161896E-06 -6.46717670E-07
  5.92554359E-16  1.37552875E-05 -3.25994687E-07 -3.01402546E-02  2.60212617E-07
 -1.42249999E-02  1.31166867E-07  1.01873718E-02  1.93642580E-02  1.16323914E-02
  2.44362583E-07 -1.19197347E-03  1.23177249E-07  2.15225438E-02 -2.93491839E-02
 -6.07219122E-02 -1.18003282E-01  8.86426590E-02  1.04665986E-01  1.89940888E-01
 -1.89569209E-01  1.29485547E-01  1.68143188E-01  9.64288292E-02 -1.49085854E-01
  6.42492573E-02  1.32235456E-01 -9.98504365E-03 -2.28141860E-02  2.84736846E-16
  1.72946029E-02  2.02356173E-02 -5.08154656E-02 -5.17758200E-03 -9.95763417E-03
  4.59238686E-03 -2.92596002E-02 -6.12327209E-02 -1.05507595E-01 -8.35996306E-02
  9.35826206E-02  1.90854844E-01 -1.75720753E-01 -9.60520967E-02  1.55859951E-01
  7.09404387E-02 -1.30700751E-01 -8.73615972E-03  1.15928326E-01 -9.38676669E-03
  2.56273909E-02 -3.10114390E-16  1.62583568E-02 -2.27308604E-02  2.62342215E-02
 -1.03114091E-02 -5.45245087E-03  9.14596421E-03 -7.19457792E-03 -2.71728856E-02
 -9.92266130E-03 -9.68332201E-03  6.33206887E-03  8.58886654E-03 -2.20624089E-03
 -2.18275159E-03 -4.13665229E-03 -1.04882922E-06  8.12266532E-03 -8.96904798E-07
  1.21338921E-02 -1.68491691E-06  1.26661451E-02 -1.44085427E-06  4.75202142E-03
 -1.32509535E-06  6.68942052E-03 -1.13315338E-06 -8.20851953E-04 -2.02775588E-07
 -2.76418114E-17  1.42175729E-03 -1.73403252E-07 -5.82020662E-03 -4.60190533E-08
 -1.75779666E-03 -3.93531271E-08 -5.68911078E-01 -4.76801611E-01 -9.37765852E-07
 -3.37925454E-03 -8.01929118E-07  2.39084276E-02 -1.56182994E-06 -1.01945511E-03
 -1.33559663E-06  1.55462434E-02 -1.16168605E-06  1.91083874E-03 -9.93414155E-07
 -4.04463938E-04  2.27779736E-07 -1.32041677E-16  7.00552090E-04  1.94785513E-07
  4.12570190E-03 -9.16492066E-08  3.21477061E-04 -7.83736868E-08  5.36989771E-03
  7.79460202E-03 -1.09345036E-03 -8.60666827E-08 -1.13087571E-03 -7.35998002E-08
 -8.73248934E-04  9.56024032E-03  1.86439994E-02  7.21471172E-06 -3.29747120E-02
 -1.07813169E-05 -6.49641295E-02  1.15902470E-05 -5.40977055E-02 -1.73199056E-05
 -2.46784839E-02  9.11509780E-06 -2.80139396E-02 -1.36211621E-05  4.51737511E-03
  1.39485760E-06  7.79132598E-18 -7.82432321E-03 -2.08440786E-06  3.79619002E-03
  3.16556971E-07 -1.43763901E-02 -4.73047454E-07 -5.09971805E-02 -1.02043145E-01
  6.45072634E-06  1.59243356E-01 -9.63965401E-06  3.04920015E-01  1.07435535E-05
  2.16625163E-01 -1.60546476E-05  2.63554654E-01  7.99103401E-06  1.02386086E-01
 -1.19414154E-05 -1.32260473E-02 -1.56685674E-06 -8.57111927E-16  2.29081859E-02
  2.34143506E-06 -2.59917557E-03  6.30438769E-07  8.39869401E-03 -9.42097261E-07
  1.85214324E-01  2.78588503E-01  1.04463450E-02  5.92037574E-07 -3.46591872E-02
 -8.84712368E-07  9.04173799E-03  1.48773436E-03  3.00417877E-03  1.21254256E-02
 -2.67185997E-15 -2.48372580E-15 -1.50880016E-02  1.76925331E-02 -6.21710137E-15
 -7.07379023E-15  2.47253210E-03 -2.75694248E-02  4.45219092E-15  1.05927829E-14
  1.89442173E-03 -5.87439191E-17 -7.97180746E-18 -3.28123469E-03  4.69144596E-17
 -1.94415397E-01  3.58735802E-01 -4.85288533E-14 -6.90490553E-14  1.40478550E-02
  2.44974350E-02 -2.92407112E-02 -2.81446349E-16 -7.05640721E-16 -8.29592955E-02
 -6.01077986E-02  3.88872471E-15  4.62985467E-15 -2.80953823E-03  3.20568423E-03
 -1.41015170E-14 -2.29458538E-14 -3.50595794E-03  1.48801172E-15  2.37867331E-16
  6.07249728E-03  1.43816995E-15 -3.75630227E+00 -1.49815338E+00  8.70764360E-14
  1.18578907E-13 -1.03334031E-02 -5.81820026E-02  1.87236344E-01  1.78560896E-02
  1.01381428E-15  1.23919339E-15  4.55325057E+00  1.92263277E-02  3.38363233E-02
  5.83573991E-04 -1.34781152E-14  3.38448269E-14 -1.19727874E-01  2.59214404E-02
 -2.26560649E-14  6.43084335E-14 -2.54938266E-01 -2.35271579E-01 -1.76826779E-14
  2.28166871E-14  9.30628058E-04 -5.46159064E-16 -2.76717690E-17 -1.61189508E-03
 -2.64896193E-16 -5.08296549E+00 -7.56524361E-01 -1.09409082E-13  3.89968958E-13
 -4.55644075E-03 -5.63922878E-03  7.43522056E-03  1.86329699E-15 -9.44318503E-15
 -2.92691934E-02  3.87754323E-02  9.75874613E-15 -2.86255070E-14  8.55110004E-01
 -5.41335039E-01 -1.13904502E-14  8.61414030E-15  7.91207357E-03 -1.33661181E-14
 -6.70482087E-17 -1.37041134E-02  4.76217754E-15  4.94543301E+00 -2.11283395E+00
  2.36006124E-13 -6.61927704E-13 -2.91431818E-02 -3.56968896E-02  2.96008992E-01
 -4.84350396E-03  2.95560385E-15 -8.26148447E-15 -5.60096399E-01  2.61259575E-15
  4.38733236E-15  9.26166480E-16  8.49389766E-02  2.26387751E-03 -1.30827228E-14
  7.99696375E-15  1.50600257E-01  4.01394683E-03 -4.32229209E-14 -3.15911303E-14
  8.97158996E-02  2.39119678E-03  6.00429854E-17  7.63311638E-06  7.75324106E-17
  5.71008802E-16  2.86388769E-04 -7.32706436E-13 -8.89719486E-14  8.41270208E-01
  2.24223646E-02  2.62891460E-16  4.01171106E-16 -6.73551694E-16 -2.03188259E-02
 -5.41557419E-04 -1.56689730E-15  3.68871472E-15 -6.64650946E-02 -1.77149336E-03
  6.80625231E-14 -9.82919662E-14  3.36451563E-02  8.96743943E-04  2.51132671E-15
 -8.44948724E-04  2.62265226E-16 -3.68659745E-15 -3.17018388E-02  5.86440814E-13
 -3.59836189E-13 -1.56889505E+00 -4.18157408E-02 -4.60617166E-15 -4.71023100E-15
  9.90549146E-14 -1.35617478E-15 -1.98273812E-02 -5.28458949E-04  7.76893690E-14
 -7.97065266E-15 -1.37829760E-14  2.36211172E-16 -2.26387751E-03  8.49389766E-02
  4.67424390E-14 -4.38548967E-15 -4.01394683E-03  1.50600257E-01  1.66342767E-13
  1.28174464E-13 -2.39119678E-03  8.97158995E-02 -1.52029108E-15  2.86388769E-04
 -1.12552627E-16  2.94406332E-15 -7.63311638E-06  2.16129160E-12  2.86369780E-13
 -2.24223646E-02  8.41270208E-01  4.89238327E-15  7.22151689E-15 -9.11660356E-15
  5.41557419E-04 -2.03188259E-02  5.21190609E-15 -1.72736041E-14  1.77149336E-03
 -6.64650946E-02 -5.15336023E-13  2.45551414E-13 -8.96743943E-04  3.36451563E-02
  1.31789935E-15 -3.17018388E-02 -2.19854435E-16 -1.65258974E-15  8.44948724E-04
 -1.52685255E-12  1.14939783E-12  4.18157408E-02 -1.56889505E+00  1.14352941E-14
  2.16646054E-14 -2.13860144E-13  9.84905397E-16  5.28458949E-04 -1.98273812E-02
 -1.43172382E-13  1.00210433E-03  2.53070299E-03  1.96279253E-02  2.52971506E-14
  9.84752544E-14 -4.48552906E-03 -6.03667129E-03  4.23484450E-14  1.64467553E-13
 -2.87240374E-01 -1.09103355E-01  6.50098721E-14  2.50853809E-13  4.84396724E-03
 -2.01820768E-14 -9.36493023E-17 -8.38999737E-03 -5.63041717E-15 -5.06447031E-01
  6.56720408E-01  2.22382174E-13  8.08969993E-13 -1.99382513E-02 -3.67415230E-02
  2.44494860E-02 -4.33761070E-14 -1.58477617E-13  8.64023075E-02  3.45693114E-02
 -5.02511353E-14 -1.81487915E-13  7.21665103E-01 -1.43538109E-01 -2.23661735E-13
 -8.10813261E-13 -3.58152894E-02 -3.30485151E-14 -3.93285832E-16  6.20339010E-02
 -8.73715474E-15 -8.65217367E+00 -4.40759994E+00  3.68485327E-14  6.30016245E-14
  4.88405812E-02 -1.85034617E-01  1.97143598E+00  1.87580736E-02 -7.89862518E-15
 -2.68717627E-14  7.25478994E+00 -6.81299882E-16 -1.13155792E-15 -4.56797548E-15
  9.40396473E-02 -2.91467112E-04  3.50633781E-15  4.58326642E-15  1.59134441E-01
 -4.93222353E-04  1.02549747E-13  4.57265124E-14  2.39276000E-01 -7.41613634E-04
 -1.25132587E-15  6.78472836E-05  9.60983397E-17  3.61100595E-15 -2.18904101E-02
  2.53237282E-13 -1.12747789E-13  8.30612032E-01 -2.57440449E-03  4.89397031E-15
  8.85591931E-15 -5.68906920E-15 -1.66555021E-01  5.16221745E-04 -1.40476688E-14
 -6.27000938E-15 -1.94908877E-01  6.04101877E-04 -2.72275761E-13  6.19793979E-14
 -8.46842322E-01  2.62470876E-03  1.21516331E-14  9.85926266E-05  2.16785685E-16
 -1.90951901E-14 -3.18101612E-02  2.12031822E-12  1.14349728E-12  1.78095237E-01
 -5.51989568E-04 -1.10458150E-14  5.67500241E-14 -5.14247337E-13 -8.19932417E-15
 -2.68702733E-02  8.32819048E-05 -1.84900463E-12 -1.96384819E-15 -3.36142772E-15
 -1.97533547E-14  2.91467112E-04  9.40396473E-02 -4.24708458E-16  4.34446405E-15
  4.93222353E-04  1.59134441E-01  3.98361915E-13  1.41310864E-13  7.41613634E-04
  2.39276000E-01 -4.83484098E-15 -2.18904101E-02  1.93175118E-16  8.28927075E-15
 -6.78472836E-05  6.23511673E-13 -5.19637163E-13  2.57440449E-03  8.30612032E-01
  1.90682886E-14  3.33928140E-14 -2.00527623E-14 -5.16221745E-04 -1.66555021E-01
 -7.82432559E-14 -2.96293823E-14 -6.04101877E-04 -1.94908877E-01 -7.80231832E-13
  2.65835072E-13 -2.62470876E-03 -8.46842322E-01  3.54102540E-14 -3.18101612E-02
 -2.11762652E-16 -5.83660694E-14 -9.85926266E-05  7.84227678E-12  4.08175031E-12
  5.51989568E-04  1.78095236E-01 -4.33314485E-14  1.43578318E-13 -1.88261986E-12
 -1.80914238E-14 -8.32819048E-05 -2.68702733E-02 -6.66233044E-12  7.09598189E-03
  1.31290565E-02 -6.76745017E-02 -2.97643331E-16 -3.27761060E-16 -5.50474912E-02
 -7.69746110E-02  3.29469502E-16  1.59966565E-15  4.62449450E-01 -2.54828086E-02
 -3.98519105E-15 -8.39183713E-15  8.39175525E-03  6.32636030E-16  1.15197528E-16
 -1.45349465E-02  1.13716896E-16  3.03220331E+00  2.12428312E+00  4.89276157E-15
  3.03146077E-15 -2.32408765E-02 -4.14502167E-02  9.02169944E-02  1.36780868E-15
  3.49276998E-15  1.25766083E-01  4.88074569E-02  1.42343826E-15  1.63079799E-15
  3.01278045E-02  1.29880929E+00  9.37912288E-15  1.97133979E-14  2.24837893E-02
 -4.04698200E-16 -3.91278914E-16 -3.89430653E-02  4.27665903E-16 -5.32757101E+00
 -8.68324841E-01 -1.98161602E-14 -3.26185364E-14 -4.52975444E-02 -1.82282641E-01
 -2.10870050E+00 -3.36576292E-02 -1.53396797E-16  1.91850964E-16  3.56765726E+00
  3.40024622E-15  5.68866087E-15  6.58624417E-17  1.70980627E-01 -2.32849740E-04
 -1.15203142E-14 -1.58234664E-14  1.69994246E-01 -2.31506438E-04 -9.85069456E-14
  3.35423543E-14  8.92028169E-01 -1.21480738E-03  2.01526926E-16 -1.03785589E-05
 -4.50616779E-16  6.74287590E-16  7.62093407E-03  3.68851051E-13 -3.12341460E-13
 -2.02091077E+00  2.75217465E-03 -5.55360398E-15 -8.42568577E-15  6.41142452E-15
 -7.79081400E-02  1.06099097E-04  6.57707790E-15  5.35424130E-15 -1.42096891E-01
  1.93514462E-04  2.89777927E-13  7.71590679E-14 -4.42256235E-01  6.02286066E-04
 -5.94939003E-16  4.05931416E-05 -5.48562233E-16  2.11006328E-15 -2.98073805E-02
  6.22927946E-13  6.99622378E-13  1.42174133E+00 -1.93619654E-03 -1.08696939E-14
 -1.01201891E-14 -5.10909711E-13  9.31619858E-17 -2.08054415E-02  2.83338628E-05
 -6.38208426E-13  1.33220270E-14  2.26250794E-14  1.48183859E-15  2.32849740E-04
  1.70980627E-01 -5.95980769E-14 -4.70296777E-14  2.31506438E-04  1.69994246E-01
 -2.38339582E-13  1.83475857E-13  1.21480738E-03  8.92028169E-01  1.95579234E-16
  7.62093407E-03 -2.11226549E-16 -6.37504708E-16  1.03785589E-05  1.87830340E-12
 -7.66208927E-13 -2.75217465E-03 -2.02091077E+00 -1.27151501E-14 -2.18660102E-14
  1.69462229E-14 -1.06099097E-04 -7.79081400E-02  1.02661846E-14  9.40617531E-15
 -1.93514462E-04 -1.42096891E-01  5.83625295E-13  3.90939107E-13 -6.02286066E-04
 -4.42256235E-01 -1.78278229E-15 -2.98073805E-02  6.94648869E-17  4.73339799E-15
 -4.05931416E-05  1.32501222E-12  2.22545213E-12  1.93619654E-03  1.42174133E+00
 -3.48705416E-14 -9.01200193E-14 -1.48232957E-12  3.47252525E-15 -2.83338628E-05
 -2.08054415E-02 -1.89069415E-12  3.17570859E-02  5.49054287E-02  9.70113111E-03
 -2.30493689E-14 -7.16893354E-14 -1.62971424E-01 -1.05380519E-01 -2.36723551E-14
 -6.93787956E-14 -1.95609303E-01  6.31383781E-01 -1.16647334E-13 -3.76480626E-13
 -8.21199930E-04 -3.60008790E-15 -1.48660052E-16  1.42236000E-03 -1.08976533E-15
  5.42381995E+00 -1.44539504E+00  2.89616372E-13  8.86762034E-13 -2.88487204E-02
 -5.02833483E-02  3.46960235E-02  8.81952823E-15  3.08705864E-14  3.75258738E-02
  2.53363906E-02  1.61321992E-14  5.13990592E-14  8.22283713E-01  1.38564227E+00
  5.38770696E-14  1.82168573E-13 -4.28165447E-03  1.31399538E-14 -3.83730856E-16
  7.41604309E-03  4.00014116E-15  1.45899550E+00  4.96241822E+00 -2.03492712E-13
 -6.19830839E-13 -7.25832768E-02 -3.33186323E-01 -3.37755737E+00  1.53545040E-02
  2.88461881E-15  8.11284736E-15 -3.57825371E+00  2.60390772E-02  4.17574406E-02
  3.21274738E-02  4.83686522E-15  3.57342503E-15 -6.79836488E-02  2.96388278E-03
  2.16163793E-15  1.10655410E-14 -6.81993085E-01  5.20655972E-01  3.63610234E-14
  7.71348581E-16  6.82804064E-03 -6.52416022E-16  9.66581911E-17 -1.18265133E-02
  7.78664204E-16  7.75379540E+00  2.61520119E+00 -8.61138315E-14 -3.57227023E-14
  2.52573651E-02  3.67168570E-02 -3.16625649E-02 -1.08888321E-15 -2.21313548E-15
  1.88905380E-02 -4.76962799E-02  1.87908273E-15 -4.82005953E-15 -2.99564764E+00
  2.85244788E-01 -2.14824888E-14 -6.13079336E-15  8.86360865E-03 -2.58533860E-15
  5.08767471E-16 -1.53522205E-02  4.43187413E-17 -9.38618829E+00 -9.34525246E-01
  6.47697906E-14  4.46538951E-14  1.34317345E-02 -3.09120128E-01  2.41206142E+00
  9.54219891E-03  1.19032804E-15 -6.82099511E-16  3.12745704E+00  1.61061015E-02
  2.58124612E-02 -1.26807655E-01  4.89218790E-16 -1.59852294E-15  1.12638553E-02
 -1.96067214E-01  1.20161760E-15 -7.64515731E-15 -2.77002815E+00 -1.70419332E+00
 -2.35979692E-17  5.15736782E-15  1.31121482E-02  4.30714270E-16  8.81640475E-17
 -2.27109069E-02 -1.03234074E-15 -6.91211401E+00 -7.48469859E-01  1.27907521E-15
 -1.27840226E-15 -2.70831702E-02 -4.98226678E-02  1.03525158E-02 -4.76703993E-15
 -2.58962943E-15  2.85135748E-02  9.57302715E-02 -1.50689309E-14 -4.06448345E-14
  4.07671547E+00 -3.47374954E+00  1.86477686E-14  6.23678685E-14 -2.65797066E-03
  2.16502075E-15 -9.75226747E-16  4.60374023E-03  2.01411170E-15  1.89186152E-03
 -3.53577223E+00 -6.05544663E-15 -2.88175900E-14 -1.36010340E-01 -1.06319844E+00
  4.71155206E+00  2.86674532E-02  8.87862989E-16  6.64236643E-17  2.06042893E+00
 -6.00949157E-16 -1.47920724E-15  9.53531093E-15 -5.86851449E-04  2.29468926E-02
  1.96823847E-15 -1.89270516E-14 -6.33271104E-04  2.47619803E-02 -2.22461806E-13
 -8.58031259E-14  1.52267707E-03 -5.95392706E-02  7.05445809E-15 -3.81957597E-02
 -2.92770112E-16 -1.27104627E-14  9.76831039E-04 -1.76323811E-13 -8.76903106E-14
  4.84390143E-03 -1.89404808E-01  7.22045229E-15  1.30645941E-14  5.31682624E-16
  5.85566797E-03 -2.28966605E-01 -9.18885975E-14 -4.98904680E-14  2.56291273E-02
 -1.00214259E+00  3.98851418E-13 -1.36262730E-13 -4.15702210E-02  1.62546655E+00
 -2.40254719E-14  2.04343027E-02  7.80906688E-16  3.63964345E-14 -5.22593640E-04
  1.37807098E-13  3.86812364E-14  1.30803380E-02 -5.11463527E-01  7.30379107E-15
  8.32209327E-14 -1.49053326E-13  1.47151538E-14  2.38730128E-04 -9.33475517E-03
 -5.52775424E-15 -9.79967176E-17 -2.45952233E-17  4.51267281E-15  2.29468926E-02
  5.86851449E-04 -6.16679517E-15  2.89568479E-15  2.47619803E-02  6.33271104E-04
  7.91651623E-14  3.70558852E-14 -5.95392706E-02 -1.52267707E-03  1.00745950E-15
 -9.76831039E-04  2.98264022E-16 -1.53276217E-15 -3.81957597E-02  1.77455876E-13
  3.09826057E-14 -1.89404808E-01 -4.84390143E-03  2.97652166E-15  6.33431897E-15
 -2.90742404E-15 -2.28966605E-01 -5.85566797E-03 -4.10335225E-14 -1.08809661E-14
 -1.00214259E+00 -2.56291273E-02 -5.92053751E-15  1.38047290E-13  1.62546655E+00
  4.15702210E-02 -5.38712663E-15  5.22593640E-04 -4.72632002E-15  5.39568654E-15
  2.04343027E-02 -1.56574054E-13  2.92539633E-14 -5.11463527E-01 -1.30803380E-02
  2.71248298E-15 -1.07441099E-14 -1.19056597E-13  6.27217956E-15 -9.33475517E-03
 -2.38730128E-04  6.65488101E-14  1.63778511E-02  2.14997261E-02 -2.24606829E-02
 -3.13522817E-15 -4.34611775E-15  5.34135609E-02  8.24002421E-02 -1.27820698E-14
 -1.48437261E-14 -3.87029597E+00 -1.11045353E+00  6.68450121E-15  1.18775070E-14
 -4.41184834E-03 -1.26926929E-15  6.48445612E-16  7.64154548E-03 -1.01434162E-15
 -4.75682393E+00 -1.52569460E+00 -2.35446771E-15  1.33077501E-14 -2.67347966E-02
 -4.72805034E-02  1.05341756E-01 -1.42984773E-15 -3.09871880E-15  3.49814287E-01
  4.60052683E-01 -1.39874914E-14  7.47251998E-16  1.30838894E+00 -6.39775993E+00
  3.18517390E-14  3.51501403E-15  7.42414234E-02  1.65433907E-15 -2.69543034E-15
 -1.28589917E-01 -1.34628678E-15  6.05628737E+00  7.90601036E-01 -1.22628718E-14
 -7.45385121E-15 -1.07039764E-02  1.93667965E+00  2.40219074E+00 -1.47601569E-01
 -1.45896417E-15 -4.21884452E-15 -3.16418099E+00  4.63511160E-02  7.57410622E-02
  3.71906565E-03  2.28974986E-15  2.60955307E-15 -5.18737134E-02  4.04734910E-01
  1.53694267E-14  2.03450538E-14 -3.84957401E+00 -3.49757003E+00 -3.15781898E-14
 -3.76389830E-14 -3.96620163E-02 -3.09210219E-15 -1.87040865E-15  6.86966273E-02
  1.61676788E-16 -3.30180785E+00  6.36113488E-01  1.60257969E-14  2.27670835E-14
 -5.77512577E-02 -1.17997872E-01 -1.26978754E-01 -2.17324263E-15 -4.12300527E-15
  1.08086494E+00 -7.16007208E-01 -5.15845431E-15 -9.27727049E-15  2.61239439E+00
 -3.61450234E+00  1.56867108E-14  2.41902523E-14  1.06260417E-01  2.81171458E-15
 -3.30157653E-15 -1.84048441E-01 -4.25479946E-15  5.26282340E-01 -1.53599046E+00
 -1.15649067E-14 -1.61617284E-14 -1.97901908E-02  1.22322088E+00  1.56607435E+00
 -1.56283552E-01  2.33721243E-15  1.33706589E-15  7.80398415E-01  1.81038483E-02
  3.67321594E-02  1.42309253E-03  1.27971408E-15 -1.53511589E-14 -7.68731399E-02
 -2.16333643E-01  4.73564242E-15 -5.99372741E-14 -4.54504507E+00 -2.17766786E+00
 -8.62072724E-15  1.18938019E-13  5.85423531E-02  2.28528139E-15  8.89233834E-16
 -1.01398330E-01 -5.19370821E-16 -5.75517679E+00 -1.83053956E+00  2.21339270E-14
 -4.16465813E-14  8.47246587E-02  1.73057037E-01 -1.11730256E-01  2.22058183E-15
  2.52177554E-14 -1.42516721E+00 -6.63394345E-01  1.43735302E-14  4.79077518E-14
  7.73187042E+00 -4.05160272E+00 -2.72498702E-14 -1.24337859E-13 -1.19000378E-01
  7.20907287E-15  2.77027969E-15  2.06114700E-01  4.34460904E-16  3.63595010E+00
 -9.82921328E-02 -5.47043396E-15  5.00011311E-14  5.46213811E-02  1.38662593E+00
 -6.26672869E-01  2.15251503E-01  1.60525073E-15 -7.82622478E-16 -4.89385530E-01
 -1.74022849E-15 -2.52862914E-15  1.07236995E-15  2.37335123E-01  2.07138459E-04
  1.81996722E-14 -9.26376778E-15  9.48382729E-01  8.27717929E-04 -2.75048788E-14
  3.51225315E-14 -1.95211175E+00 -1.70374032E-03  4.72974127E-15  2.02999884E-05
 -7.60901936E-16 -3.54719228E-15  2.32593227E-02  1.02315060E-13 -2.11735163E-15
  1.17190916E+00  1.02280461E-03 -6.08202224E-17  5.50731377E-17  5.90494062E-15
 -5.34193006E-02 -4.66226466E-05  3.72479106E-15  8.33898264E-15 -4.35258105E-02
 -3.79879268E-05 -4.02744298E-14 -4.75649798E-15  5.35754572E-01  4.67589351E-04
 -3.60616693E-15 -9.81463837E-05 -1.92793588E-16  7.13546947E-15 -1.12454173E-01
 -4.37184495E-14  3.70146374E-14 -6.55211567E-01 -5.71847572E-04  4.37244620E-17
 -1.13664552E-14  1.40948107E-14 -9.90411615E-17  5.60024983E-02  4.88771785E-05
 -1.74323862E-14 -3.38141704E-16 -6.54322232E-16 -4.69498517E-15 -2.07138459E-04
  2.37335123E-01  1.31023975E-14 -2.85374521E-14 -8.27717929E-04  9.48382729E-01
 -3.44066646E-13 -1.20266432E-13  1.70374032E-03 -1.95211175E+00  3.23231644E-15
  2.32593227E-02  2.50323813E-15 -9.99834579E-15 -2.02999884E-05 -4.82720009E-13
 -1.84820751E-13 -1.02280461E-03  1.17190916E+00  5.14391898E-15  1.01435832E-14
 -3.35184511E-15  4.66226466E-05 -5.34193006E-02 -9.27589955E-14 -3.62721564E-14
  3.79879268E-05 -4.35258105E-02  5.32106667E-13 -3.35679892E-13 -4.67589351E-04
  5.35754572E-01 -8.70060712E-15 -1.12454173E-01  6.28794630E-16  1.33352027E-14
  9.81463837E-05  4.09544575E-13  3.01934803E-14  5.71847572E-04 -6.55211567E-01
  2.91266763E-15  1.02531353E-13 -1.87200296E-14  1.27868617E-14 -4.88771785E-05
  5.60024983E-02 -1.22490708E-13  4.26763900E-03  1.16607060E-03 -2.90883225E-01
 -7.06032369E-16 -1.46711820E-15  1.13530109E-01 -8.08783192E-01  1.05718847E-15
 -2.00926670E-15  9.79816128E-01  1.96767193E+00 -6.46882209E-15  2.68790051E-14
 -6.76680738E-02  4.65619207E-15 -1.09329138E-15  1.17204542E-01 -8.52947886E-17
  4.98632255E+00  2.81488245E-01  4.67024268E-15 -1.72313165E-14 -5.64346574E-02
 -1.14999701E-01 -2.35678408E-01 -2.34477327E-15 -2.11754757E-15  6.70310828E-01
 -6.04851739E-01 -6.54339197E-15 -1.53116043E-14 -3.44948717E+00  1.86907701E+00
  1.12299089E-14  7.95665167E-15  1.58812989E-01  1.94142344E-14 -7.76059109E-15
 -2.75072166E-01 -2.46965034E-15 -5.91218523E-01  2.14948851E+00 -5.51655936E-15
  5.88492571E-15 -2.95157709E-02  9.57616316E-01 -2.04961157E+00  1.48269422E-02
  5.32833925E-15  2.57090730E-15 -1.28672892E+00 -3.75449927E-15 -9.33801668E-15
  2.83203175E-15  5.19198123E-02 -4.01919481E-04  7.76265697E-14 -8.74309726E-15
  1.58604645E-01 -1.22778365E-03 -3.34090979E-13 -1.12655391E-13  3.55572284E-01
 -2.75254130E-03  5.92391228E-15  9.51186042E-04  5.00001674E-15 -2.60480027E-15
 -1.22873867E-01 -3.98894900E-14 -1.07214958E-14 -7.96028109E-02  6.16217953E-04
 -7.12513514E-16 -2.76789379E-15  7.63915230E-15 -2.09392073E-02  1.62093717E-04