FCHK generated by IOData                                                
NA        NA                                                           NA
Number of atoms                            I                6
Number of electrons                        I               22
Charge                                     I                0
Multiplicity                               I                1
Number of alpha electrons                  I               11
Number of beta electrons                   I               11
Atomic numbers                             I   N=           6
           7           6           6           1           1           1
Nuclear charges                            R   N=           6
  7.00000000E+00  6.00000000E+00  6.00000000E+00  1.00000000E+00  1.00000000E+00
  1.00000000E+00
Current cartesian coordinates              R   N=          18
  2.38256670E+00  0.00000000E+00  0.00000000E+00 -2.57248417E+00  0.00000000E+00
  0.00000000E+00  1.90106448E-01  0.00000000E+00  0.00000000E+00 -3.30702072E+00
 -1.56866166E+00  1.12892239E+00 -3.30720969E+00 -1.93130010E-01 -1.92279633E+00
 -3.30702072E+00  1.76198064E+00  7.94062918E-01
Number of basis functions                  I               87
Number of independent functions            I               87
Number of contracted shells                I               45
Number of primitive shells                 I               78
Pure/Cartesian d shells                    I                0
Pure/Cartesian f shells                    I                0
Highest angular momentum                   I                2
Largest degree of contraction              I                6
Shell types                                I   N=          45
           0           0           1           0           1           0
           1          -2           0           1           0           0
           1           0           1           0           1          -2
           0           1           0           0           1           0
           1           0           1          -2           0           1
           0           0           0           1           0           0
           0           0           1           0           0           0
           0           1           0
Number of primitives per shell             I   N=          45
           6           3           3           1           1           1
           1           1           1           1           6           3
           3           1           1           1           1           1
           1           1           6           3           3           1
           1           1           1           1           1           1
           3           1           1           1           1           3
           1           1           1           1           3           1
           1           1           1
Shell to atom map                          I   N=          45
           1           1           1           1           1           1
           1           1           1           1           2           2
           2           2           2           2           2           2
           2           2           3           3           3           3
           3           3           3           3           3           3
           4           4           4           4           4           5
           5           5           5           5           6           6
           6           6           6
Primitive exponents                        R   N=          78
  6.29348000E+03  9.49044000E+02  2.18776000E+02  6.36916000E+01  1.88282000E+01
  2.72023000E+00  3.06331000E+01  7.02614000E+00  2.11205000E+00  3.06331000E+01
  7.02614000E+00  2.11205000E+00  6.84009000E-01  6.84009000E-01  2.00878000E-01
  2.00878000E-01  9.13000000E-01  6.39000000E-02  6.39000000E-02  4.56324000E+03
  6.82024000E+02  1.54973000E+02  4.44553000E+01  1.30290000E+01  1.82773000E+00
  2.09642000E+01  4.80331000E+00  1.45933000E+00  2.09642000E+01  4.80331000E+00
  1.45933000E+00  4.83456000E-01  4.83456000E-01  1.45585000E-01  1.45585000E-01
  6.26000000E-01  4.38000000E-02  4.38000000E-02  4.56324000E+03  6.82024000E+02
  1.54973000E+02  4.44553000E+01  1.30290000E+01  1.82773000E+00  2.09642000E+01
  4.80331000E+00  1.45933000E+00  2.09642000E+01  4.80331000E+00  1.45933000E+00
  4.83456000E-01  4.83456000E-01  1.45585000E-01  1.45585000E-01  6.26000000E-01
  4.38000000E-02  4.38000000E-02  3.38650000E+01  5.09479000E+00  1.15879000E+00
  3.25840000E-01  1.02741000E-01  7.50000000E-01  3.60000000E-02  3.38650000E+01
  5.09479000E+00  1.15879000E+00  3.25840000E-01  1.02741000E-01  7.50000000E-01
  3.60000000E-02  3.38650000E+01  5.09479000E+00  1.15879000E+00  3.25840000E-01
  1.02741000E-01  7.50000000E-01  3.60000000E-02
Contraction coefficients                   R   N=          78
  1.96979000E-03  1.49613000E-02  7.35006000E-02  2.48937000E-01  6.02460000E-01
  2.56202000E-01  1.11906000E-01  9.21666000E-01 -2.56919000E-03  3.83119000E-02
  2.37403000E-01  8.17592000E-01  1.00000000E+00  1.00000000E+00  1.00000000E+00
  1.00000000E+00  1.00000000E+00  1.00000000E+00  1.00000000E+00  1.96665000E-03
  1.52306000E-02  7.61269000E-02  2.60801000E-01  6.16462000E-01  2.21006000E-01
  1.14660000E-01  9.19999000E-01 -3.03068000E-03  4.02487000E-02  2.37594000E-01
  8.15854000E-01  1.00000000E+00  1.00000000E+00  1.00000000E+00  1.00000000E+00
  1.00000000E+00  1.00000000E+00  1.00000000E+00  1.96665000E-03  1.52306000E-02
  7.61269000E-02  2.60801000E-01  6.16462000E-01  2.21006000E-01  1.14660000E-01
  9.19999000E-01 -3.03068000E-03  4.02487000E-02  2.37594000E-01  8.15854000E-01
  1.00000000E+00  1.00000000E+00  1.00000000E+00  1.00000000E+00  1.00000000E+00
  1.00000000E+00  1.00000000E+00  2.54938000E-02  1.90373000E-01  8.52161000E-01
  1.00000000E+00  1.00000000E+00  1.00000000E+00  1.00000000E+00  2.54938000E-02
  1.90373000E-01  8.52161000E-01  1.00000000E+00  1.00000000E+00  1.00000000E+00
  1.00000000E+00  2.54938000E-02  1.90373000E-01  8.52161000E-01  1.00000000E+00
  1.00000000E+00  1.00000000E+00  1.00000000E+00
Coordinates of each shell                  R   N=         135
  2.38256670E+00  0.00000000E+00  0.00000000E+00  2.38256670E+00  0.00000000E+00
  0.00000000E+00  2.38256670E+00  0.00000000E+00  0.00000000E+00  2.38256670E+00
  0.00000000E+00  0.00000000E+00  2.38256670E+00  0.00000000E+00  0.00000000E+00
  2.38256670E+00  0.00000000E+00  0.00000000E+00  2.38256670E+00  0.00000000E+00
  0.00000000E+00  2.38256670E+00  0.00000000E+00  0.00000000E+00  2.38256670E+00
  0.00000000E+00  0.00000000E+00  2.38256670E+00  0.00000000E+00  0.00000000E+00
 -2.57248417E+00  0.00000000E+00  0.00000000E+00 -2.57248417E+00  0.00000000E+00
  0.00000000E+00 -2.57248417E+00  0.00000000E+00  0.00000000E+00 -2.57248417E+00
  0.00000000E+00  0.00000000E+00 -2.57248417E+00  0.00000000E+00  0.00000000E+00
 -2.57248417E+00  0.00000000E+00  0.00000000E+00 -2.57248417E+00  0.00000000E+00
  0.00000000E+00 -2.57248417E+00  0.00000000E+00  0.00000000E+00 -2.57248417E+00
  0.00000000E+00  0.00000000E+00 -2.57248417E+00  0.00000000E+00  0.00000000E+00
  1.90106448E-01  0.00000000E+00  0.00000000E+00  1.90106448E-01  0.00000000E+00
  0.00000000E+00  1.90106448E-01  0.00000000E+00  0.00000000E+00  1.90106448E-01
  0.00000000E+00  0.00000000E+00  1.90106448E-01  0.00000000E+00  0.00000000E+00
  1.90106448E-01  0.00000000E+00  0.00000000E+00  1.90106448E-01  0.00000000E+00
  0.00000000E+00  1.90106448E-01  0.00000000E+00  0.00000000E+00  1.90106448E-01
  0.00000000E+00  0.00000000E+00  1.90106448E-01  0.00000000E+00  0.00000000E+00
 -3.30702072E+00 -1.56866166E+00  1.12892239E+00 -3.30702072E+00 -1.56866166E+00
  1.12892239E+00 -3.30702072E+00 -1.56866166E+00  1.12892239E+00 -3.30702072E+00
 -1.56866166E+00  1.12892239E+00 -3.30702072E+00 -1.56866166E+00  1.12892239E+00
 -3.30720969E+00 -1.93130010E-01 -1.92279633E+00 -3.30720969E+00 -1.93130010E-01
 -1.92279633E+00 -3.30720969E+00 -1.93130010E-01 -1.92279633E+00 -3.30720969E+00
 -1.93130010E-01 -1.92279633E+00 -3.30720969E+00 -1.93130010E-01 -1.92279633E+00
 -3.30702072E+00  1.76198064E+00  7.94062918E-01 -3.30702072E+00  1.76198064E+00
  7.94062918E-01 -3.30702072E+00  1.76198064E+00  7.94062918E-01 -3.30702072E+00
  1.76198064E+00  7.94062918E-01 -3.30702072E+00  1.76198064E+00  7.94062918E-01
Total Energy                               R       0.00000000E+00
Alpha Orbital Energies                     R   N=          87
 -1.55765565E+01 -1.12892899E+01 -1.12843370E+01 -1.22308129E+00 -1.04104298E+00
 -7.03000074E-01 -6.28287800E-01 -6.28271640E-01 -5.58568944E-01 -4.62663303E-01
 -4.62660630E-01  3.15276065E-02  6.49035324E-02  6.49057689E-02  8.49489380E-02
  1.33443582E-01  1.37695420E-01  1.37696007E-01  1.44692093E-01  1.44697636E-01
  1.76164514E-01  1.90380871E-01  1.90523414E-01  1.90524122E-01  2.80397856E-01
  2.80404664E-01  3.16483193E-01  3.23621118E-01  3.23622139E-01  3.29028566E-01
  3.63187767E-01  4.16151332E-01  5.82540582E-01  5.82568015E-01  6.03130644E-01
  7.37377795E-01  7.37379345E-01  8.09545719E-01  8.09557536E-01  8.49920143E-01
  8.84668026E-01  9.37330619E-01  1.01655252E+00  1.09912037E+00  1.11199921E+00
  1.11200268E+00  1.24845703E+00  1.24847616E+00  1.35470029E+00  1.49403300E+00
  1.49403631E+00  1.65293812E+00  1.67357266E+00  1.71441789E+00  1.71444694E+00
  1.80008753E+00  1.80012966E+00  1.99691993E+00  2.11917794E+00  2.11919489E+00
  2.28780500E+00  2.39307991E+00  2.39308689E+00  2.48547920E+00  2.48551475E+00
  2.71915494E+00  2.78790574E+00  2.78795561E+00  2.84354070E+00  2.84356968E+00
  2.91741745E+00  3.16148684E+00  3.16153077E+00  3.21987736E+00  3.26190011E+00
  3.26191012E+00  3.40252163E+00  3.56038657E+00  4.16084792E+00  4.16093904E+00
  4.28471134E+00  4.46929411E+00  4.46930065E+00  5.05071440E+00  2.50216879E+01
  2.54555853E+01  3.72576150E+01
Alpha MO coefficients                      R   N=        7569
 -5.96178087E-02 -1.24566463E-01  2.06004276E-06  1.91621085E-01 -1.54709585E-05
  4.17875509E-01  3.38195631E-06  2.89250899E-01 -2.47851873E-05  5.61212692E-01
  2.59340140E-06  1.78344725E-01 -1.97454083E-05  8.47290720E-03 -4.42476579E-07
  5.15421113E-09 -1.46755379E-02  2.89909018E-06  1.06801829E-01 -2.51793178E-07
 -2.25856242E-02  6.60347848E-08 -3.03841466E-03 -5.56775040E-03  5.73268888E-06
  8.60290111E-03  2.71440156E-06  1.76319972E-02  9.60324066E-06  1.60040156E-02
  3.48808711E-06 -1.93897878E-02  5.62450301E-06 -1.00049392E-03  6.03739914E-06
 -6.36349096E-04 -3.88573883E-07  3.11677389E-07  1.10006501E-03 -1.69477342E-06
  2.63850761E-01 -1.49757538E-06  6.09744956E-02  2.47855410E-06  2.13579505E-02
  4.10543384E-02  2.26037263E-06 -5.29766489E-02 -1.32492460E-05 -1.37421221E-01
  3.75972379E-06 -7.13244038E-02 -2.20088430E-05 -1.49110277E-01  1.80450615E-06
 -1.05254887E-01 -1.80561069E-05 -1.21858447E-04 -1.48831777E-07  6.40450929E-08
  2.10897427E-04 -3.52140770E-06 -2.67863859E-01  9.51606393E-07  9.51134563E-02
 -3.57219573E-06 -1.15581313E-04  1.89322095E-03 -1.08023375E-02 -3.69727597E-04
  6.80261590E-04  5.14298504E-04 -1.60977438E-03 -1.21055287E-04  1.88596312E-03
 -1.08043442E-02  6.29606067E-04  6.80265132E-04  6.33416045E-05 -1.61243112E-03
 -1.10862177E-04  1.90166205E-03 -1.07972271E-02 -2.60172717E-04  6.80595728E-04
 -5.77848060E-04 -1.61124785E-03 -2.94482422E-02 -6.08010573E-02 -1.09160906E-01
 -8.76930305E-02 -1.15530818E-01  1.88772505E-01 -1.75298956E-01 -1.27869897E-01
 -1.85531302E-01  1.07524567E-01 -1.38511762E-01 -6.74099271E-02 -1.46588716E-01
 -9.98233335E-03  2.08362943E-02  1.22060425E-05  1.72467285E-02  2.20560470E-02
 -4.44302568E-02 -8.56036020E-05  1.32252329E-02 -8.87037481E-05  1.86654938E-03
  3.59909648E-03  1.17622273E-03 -4.41077336E-03  1.08402817E-03 -9.38160505E-03
 -2.99035377E-03 -1.67694508E-02 -3.42367437E-03 -3.87332376E-02  2.33874191E-02
 -1.95842247E-02  2.45745206E-02  7.20478666E-04 -1.12670691E-02  1.01038939E-03
 -4.89750290E-03 -1.19137919E-02 -8.36884178E-02  1.02749402E-02 -1.93016512E-02
  1.08909963E-02 -2.91237581E-02 -6.08172617E-02 -9.61109614E-02  8.41515155E-02
 -1.01744351E-01  1.86755358E-01 -1.59840205E-01  1.00184637E-01 -1.69210864E-01
  7.75378541E-02 -1.27839329E-01 -8.44816334E-03 -1.35302655E-01 -8.89895763E-03
 -2.31339618E-02  1.96377408E-04  1.47113931E-02 -2.44689507E-02  1.00435594E-01
 -2.21393928E-02 -2.45786874E-02 -2.34286072E-02 -2.23685014E-03 -4.43258898E-03
 -4.00239591E-04  3.20653791E-04 -8.61052537E-04 -9.78260300E-04  2.90140966E-04
 -8.75409888E-03 -1.70417665E-02 -1.44148665E-02 -8.66791165E-04 -1.28730606E-03
 -3.00915502E-04  1.09974351E-03  1.03753724E-02  2.01285899E-02  2.74223712E-02
  4.02070278E-04 -3.66594244E-05  1.13164528E-03 -1.43590717E-03 -9.37034925E-04
 -1.59378267E-03 -6.27318451E-03 -3.52732468E-03 -1.36571252E-02  4.58913027E-03
 -8.81468894E-03 -4.72979621E-03 -1.91372791E-02 -1.36920940E-03 -1.03619754E-02
 -3.59907605E-03 -2.26594365E-02 -1.01289147E-04 -4.16978574E-04 -7.47950814E-05
  3.07611910E-04 -9.75300431E-04 -5.95580490E-03 -9.93506932E-04 -1.11269321E-04
 -2.20132495E-03 -3.53628790E-02 -7.22789451E-02  6.51880993E-02 -5.43760298E-02
  1.44644282E-01  2.16707807E-01  1.04512081E-01 -8.39064711E-02  2.31909791E-01
  1.67600950E-01  7.29649798E-02 -4.47450372E-02  1.61840569E-01 -7.74360859E-03
 -4.81348246E-03  1.68376048E-02 -1.63624909E-02 -1.06549883E-02  1.12758643E-01
 -6.77911055E-03  1.88717985E-02 -1.50606029E-02  4.03058696E-03  6.90978355E-03
  4.87465725E-03  9.97936149E-03  1.10468725E-02 -2.04502781E-02  8.85304273E-03
  1.23769057E-02  2.00277156E-02 -4.12116722E-02 -5.37493178E-03  2.60987270E-02
 -1.16193914E-02 -2.90991182E-03 -7.42487191E-03  1.24061734E-03  2.84608190E-03
 -1.64195730E-02 -7.64006360E-02 -1.92367990E-03  2.14940331E-02 -4.22160751E-03
 -7.28127209E-03 -1.87157948E-02 -3.73440745E-02  2.78773016E-03 -2.53124138E-03
  9.06425902E-03 -2.19090893E-02 -7.28406119E-03 -1.87290648E-02 -3.73765532E-02
  4.94677804E-03 -2.53111004E-03  8.09336362E-03 -2.19108550E-02  1.88749972E-01
  2.86741863E-01  5.76579489E-02 -1.00861992E-02  1.02774115E-02 -2.23795960E-02
  3.07152204E-02 -2.94443076E-02 -6.07928109E-02  1.54662617E-01 -8.76748385E-02
 -3.67011579E-02  1.88746640E-01  2.48371684E-01 -1.27843223E-01 -5.89360516E-02
  1.07516482E-01  1.96242660E-01 -6.73957118E-02 -4.65719468E-02 -9.94329130E-03
 -2.95248271E-02  1.25418441E-05  1.72650772E-02  7.00346958E-03 -4.44186318E-02
  1.19307861E-04  1.32212083E-02 -2.98784965E-05  1.86669588E-03  3.59950024E-03
 -1.53626451E-03 -4.40669489E-03  4.73495888E-04 -9.38328730E-03  4.44547670E-03
 -1.67618570E-02 -8.79933653E-04 -3.87306044E-02 -3.29931396E-02 -1.95819231E-02
  7.94909400E-03  3.84981210E-03  1.59558861E-02  1.07402575E-03 -3.08821353E-03
 -3.79312359E-03 -8.36265724E-02 -1.45721372E-02 -1.92896769E-02  3.44556870E-03
 -2.91195496E-02 -6.08089751E-02  1.36194752E-01  8.41337271E-02 -3.23012041E-02
  1.86730971E-01  2.26504367E-01  1.00162508E-01 -5.37185150E-02  7.75340027E-02
  1.81132716E-01 -8.45512569E-03 -4.29793101E-02 -8.29389398E-03  3.27648432E-02
  2.05441417E-04  1.50574258E-02 -7.78524807E-03  1.00381921E-01  3.13662147E-02
 -2.45633882E-02 -7.44434998E-03 -8.75610368E-03 -1.70439763E-02 -1.44173832E-02
  6.94545017E-04 -1.28655316E-03 -6.01278082E-04  1.09631443E-03  1.03838174E-02
  2.01399644E-02  2.74216522E-02 -1.18193702E-03 -3.59234531E-05 -2.17611383E-04
 -1.43758485E-03 -2.24946967E-03 -4.45423182E-03 -4.21091503E-04  6.86768584E-04
 -8.61334672E-04  7.67370933E-04  2.88479669E-04  1.73396243E-04  3.04166853E-04
 -1.50766760E-08  6.57866894E-04 -2.43421090E-08 -9.87794397E-04 -2.79030519E-08
  9.77771717E-04 -3.85728343E-08  2.52960837E-04 -1.07708855E-08  3.39535745E-04
 -3.06013149E-08  7.83205175E-05  1.69393358E-09  3.09425451E-10 -1.35655186E-04
  5.14369426E-09 -1.04606527E-04 -1.03549353E-07 -2.46246559E-04  4.02281537E-08
 -5.68316967E-01 -4.75491109E-01 -3.09885395E-07 -1.97562203E-03  5.83082093E-08
  2.00748071E-02 -9.53171508E-08 -4.17027133E-04 -2.26858841E-09  1.80347062E-02
 -4.53758476E-08 -1.60664853E-03  2.20434120E-08 -1.18333933E-04 -9.99477891E-10
 -6.47888743E-08  2.04882833E-04 -3.24201831E-09  1.64451087E-02 -2.52046907E-07
  3.04363911E-03  3.83689437E-07 -1.12386686E-03 -1.99642661E-03 -1.21102742E-08
 -2.99084850E-03 -2.80707122E-08  5.57383775E-03 -3.05864786E-08 -4.54350882E-03
 -4.07732947E-08  1.44708822E-03  6.32015664E-09 -7.50771084E-04 -5.17690388E-08
 -3.73937209E-04 -1.09439871E-10 -6.14841011E-09  6.47678122E-04 -4.35320209E-09
 -1.31405693E-02  2.20886216E-07  4.23958591E-03 -1.34479579E-07  4.60562110E-03
  7.05987870E-03 -1.90667077E-03 -6.95584113E-04  3.45012063E-04  9.66503520E-04
 -2.26675286E-04  4.60627774E-03  7.06080594E-03 -1.90722322E-03  1.18498548E-03
  3.45209215E-04  1.19043347E-04 -2.27138587E-04  4.60564132E-03  7.05987217E-03
 -1.90697758E-03 -4.89303586E-04  3.45013707E-04 -1.08565065E-03 -2.27256788E-04
  9.36028436E-04  1.59129616E-03  8.68524236E-03  3.51791423E-03 -1.22586303E-02
 -4.58078930E-03  1.21572131E-02  4.71590772E-03 -1.71982024E-02  1.36419845E-03
  1.44348973E-02  3.59302817E-03 -2.02997983E-02  1.30186041E-04  6.37220076E-04
 -9.46323226E-05 -2.88925042E-04 -8.49065604E-04  5.94676216E-03  1.41117308E-03
  1.12771695E-04 -1.96014922E-03  3.53643361E-02  7.22815717E-02 -9.26757097E-02
  5.43787418E-02  1.28769689E-01 -2.16716635E-01 -1.48591118E-01  8.39102036E-02
  2.06454502E-01 -1.67602279E-01 -1.03680774E-01  4.47521318E-02  1.44099902E-01
  1.03199839E-03  6.82068850E-03  2.13105935E-02  1.24866555E-02 -9.49576291E-03
 -1.12729349E-01  9.65935230E-03 -1.88666522E-02 -1.34041272E-02 -4.07568482E-03
 -6.95109654E-03 -7.13461771E-03 -9.97339618E-03  9.74595591E-03  2.04710186E-02
 -1.29261382E-02 -1.23704645E-02  1.76822556E-02  4.12209627E-02  7.37006370E-03
 -2.60908031E-02 -1.04618105E-02  2.41439802E-03  1.05061359E-02  1.57025479E-03
 -3.13056428E-03 -1.46386610E-02  7.63854139E-02  2.68919577E-03 -2.14876467E-02
 -3.77711734E-03 -1.88748758E-01 -2.86740383E-01 -5.76564898E-02  1.43390568E-02
 -1.02774317E-02 -1.99247953E-02 -3.07207445E-02  7.28211347E-03  1.87134411E-02
  3.73412159E-02 -6.45612212E-03  2.53095410E-03  6.94680604E-03  2.19117569E-02
  7.28686637E-03  1.87275265E-02  3.73680832E-02 -4.53584712E-03  2.53151388E-03
  8.32918744E-03  2.19073540E-02  9.38836454E-04  1.59770883E-03 -1.49587494E-02
  3.51619229E-03 -1.40379993E-03 -4.60291745E-03 -2.09724870E-02  4.71337807E-03
 -1.94766579E-03  1.34247471E-03 -2.47962372E-02  3.59040759E-03 -2.36642540E-03
  2.42632678E-04 -1.05381153E-03  1.98373713E-05 -2.24668596E-04 -1.25168370E-04
  5.94679394E-03 -2.40220073E-03  1.12704396E-04 -2.42228807E-04  3.53656604E-02
  7.22845317E-02  1.57857492E-01  5.43891865E-02  1.58697565E-02 -2.16727036E-01
  2.53086856E-01  8.39241182E-02  2.54488394E-02 -1.67589773E-01  1.76627842E-01
  4.47548341E-02  1.77395014E-02 -2.42215715E-02 -1.16384536E-02 -4.47023656E-03
 -2.09608901E-03 -1.15868749E-03 -1.12737880E-01 -1.64334797E-02 -1.88730883E-02
 -1.66485222E-03 -4.04319128E-03 -6.92306847E-03  1.20055104E-02 -9.97625946E-03
  1.29607004E-03  2.04650995E-02  2.17732660E-02 -1.23724634E-02  2.33711159E-03
  4.12141756E-02 -1.27476896E-02 -2.60855944E-02 -1.16297376E-03  5.54193622E-04
 -1.79300305E-02 -3.29498382E-04 -4.20470287E-03 -1.78173292E-03  7.63943974E-02
 -4.61697541E-03 -2.14914880E-02 -4.42363484E-04  7.28696916E-03  1.87260022E-02
  3.73633678E-02  9.48080819E-03  2.53195650E-03 -2.36507251E-04  2.19027914E-02
 -1.88755646E-01 -2.86736898E-01 -5.76468910E-02 -2.44241750E-02 -1.02803874E-02
 -2.45222869E-03 -3.07174058E-02  7.28191477E-03  1.87186803E-02  3.73500412E-02
  9.24348287E-03  2.53156120E-03  2.11870180E-03  2.19124538E-02  5.64867343E-01
  4.81327729E-01  8.32284198E-09 -4.78660365E-03  1.48157588E-07 -3.39862711E-02
 -7.78231070E-09 -3.75937101E-03  2.33507218E-07 -3.93559734E-02 -8.66878773E-09
 -4.16382382E-03  1.91390730E-07  1.97383838E-04 -9.24411008E-10  1.04141948E-09
 -3.41881535E-04 -2.63364141E-08 -8.69424590E-04  1.26365900E-09  3.15598337E-04
 -5.29198894E-09 -1.14982777E-04 -2.32380319E-04  7.84928375E-08  4.12948543E-04
 -7.96635835E-08  5.06149113E-04  1.25715250E-07  1.39030330E-03 -1.23415038E-07
  4.79788912E-03  8.99817972E-08  2.15440737E-03 -1.02434305E-07 -2.09583283E-04
 -1.49708127E-08 -1.22570049E-08  3.62983641E-04  2.02768159E-08 -9.66364046E-03
 -1.53004476E-08 -2.07438369E-03 -6.44899551E-08  1.65701307E-03  2.84552929E-03
  9.85289039E-09 -4.53217032E-03  1.18211354E-07 -6.66650622E-03  1.48273614E-08
 -5.03917830E-03  1.94826238E-07  2.03486995E-03  6.15840829E-09  6.19825138E-03
  1.68359412E-07  5.88541967E-04 -7.07148759E-09 -1.21957882E-10 -1.01938628E-03
  3.93597046E-08  7.23499881E-03 -1.51863062E-08 -4.09909208E-03  5.00895751E-08
 -8.33069940E-06 -1.95584930E-04  2.33335583E-04 -2.89945738E-05  5.00618618E-05
  4.02868958E-05  2.22894169E-04 -8.49273644E-06 -1.95848477E-04  2.33313873E-04
  4.93764882E-05  5.00539246E-05  4.95309625E-06  2.22835512E-04 -8.46364342E-06
 -1.95817847E-04  2.33262792E-04 -2.03838577E-05  5.00523049E-05 -4.52437100E-05
  2.22941288E-04  9.39128376E-03  1.82440626E-02  3.73835564E-07  3.25341227E-02
 -4.58575251E-06 -6.47975358E-02  4.25924154E-07  4.80990122E-02 -7.32507038E-06
  3.44811679E-02  1.25068095E-06  1.10180674E-02 -6.13690407E-06  3.53445448E-03
  1.34306779E-07  2.48999517E-09 -6.12182548E-03  9.20587379E-07  2.82428150E-02
  2.56268821E-07 -7.62305914E-03 -1.23134921E-07 -3.27808349E-02 -6.55117520E-02
 -5.23374485E-06  1.46306648E-01 -1.40449277E-06  2.02001587E-01 -8.42401737E-06
  2.52159105E-01 -3.61622833E-06 -3.00096599E-03 -8.92954944E-06  8.05605678E-02
 -1.99768191E-06 -1.84956871E-02 -1.60157744E-06  4.28294596E-07  3.20350400E-02
  1.99100163E-07  1.17795032E-01 -8.49997734E-07  3.28707322E-02  9.16991092E-07
 -5.13252213E-02 -1.02505460E-01 -1.64189668E-06 -1.55257563E-01 -4.21897620E-06
  3.14194641E-01 -2.72602495E-06 -2.34786161E-01 -7.16428520E-06  2.32093121E-01
 -1.13342205E-06 -1.68929626E-01 -4.41119183E-06 -1.27774266E-02  8.63922568E-07
 -3.96905883E-08  2.21311826E-02 -8.26832798E-07 -1.59145477E-01  3.06934585E-07
  5.83529346E-02 -8.87820120E-07 -1.08226499E-02 -1.46749750E-02 -2.63102876E-02
 -1.74285225E-03  8.73317809E-03  2.42114623E-03  9.72157149E-03 -1.08226234E-02
 -1.46693996E-02 -2.63049740E-02  2.96739669E-03  8.73437745E-03  2.97927515E-04
  9.72049151E-03 -1.08224690E-02 -1.46720506E-02 -2.63075246E-02 -1.22604295E-03
  8.73350240E-03 -2.71999095E-03  9.71985630E-03 -2.94283213E-02 -6.07594637E-02
 -4.55182244E-02 -8.75934718E-02  1.52362785E-01  1.88644713E-01 -7.30991727E-02
 -1.27723643E-01  2.44677236E-01  1.07490251E-01 -5.77520502E-02 -6.73313945E-02
  1.93327007E-01 -9.95358941E-03  8.69157548E-03 -2.47645664E-05  1.72404469E-02
 -2.90842490E-02 -4.43753537E-02 -3.33911044E-05  1.32103836E-02  1.18746516E-04
  1.86489383E-03  3.59612791E-03  3.62548589E-04 -4.39876842E-03 -1.56868785E-03
 -9.37361295E-03 -1.45274905E-03 -1.67409815E-02  4.29203063E-03 -3.87129715E-02
  9.61198321E-03 -1.95637388E-02 -3.25626236E-02  2.32866087E-03 -4.68998868E-03
 -2.08764880E-03 -3.96189342E-03  1.57209020E-02 -8.35991272E-02  4.29992752E-03
 -1.92796524E-02 -1.43489688E-02 -2.90936334E-02 -6.07594822E-02 -4.00971888E-02
  8.40649254E-02  1.34159212E-01  1.86586625E-01 -6.66861523E-02  1.00079083E-01
  2.23118293E-01  7.74651524E-02 -5.33116280E-02 -8.46299392E-03  1.78434983E-01
 -8.58316728E-03 -9.63447407E-03 -4.02335411E-04  1.48767491E-02  3.22828254E-02
  1.00322635E-01 -9.23114682E-03 -2.45488180E-02  3.08999393E-02  1.03880945E-02
  2.01511472E-02  2.74322663E-02  7.78251373E-04 -3.46960644E-05 -9.12584037E-04
 -1.43395952E-03 -2.25113208E-03 -4.45405932E-03 -4.13023183E-04 -1.00729626E-03
 -8.61053083E-04  2.11233672E-04  2.91402033E-04 -8.76118237E-03 -1.70535737E-02
 -1.44280795E-02  1.73463435E-04 -1.28631735E-03  9.01260715E-04  1.10011159E-03
  2.14142058E-03  4.09427626E-03  5.27803371E-07  8.13311769E-03 -1.97860008E-06
 -1.19000772E-02  7.74583161E-07  1.28207777E-02 -2.99122233E-06 -8.35663401E-03
  7.97490310E-07  7.95775729E-03 -2.85757969E-06  8.62806788E-04 -2.45399866E-09
 -6.50804209E-09 -1.49442548E-03  1.33479465E-07  4.32151939E-03  5.12790339E-08
 -1.54989562E-03 -1.46385076E-07  1.09132044E-03  1.99836429E-03 -3.92487157E-06
 -4.07057518E-03  9.86760021E-06 -5.87931256E-03 -6.30422681E-06 -7.07301405E-03
  1.58244950E-05  3.79520227E-03 -4.33925226E-06 -6.14874524E-04  1.13349852E-05
  5.26306289E-04  3.65522758E-07  1.50212948E-06 -9.11297711E-04 -8.58166155E-07
  7.85867317E-03  4.15165766E-07  1.87542935E-03 -9.36299542E-07  5.68893527E-01
  4.76769424E-01 -1.23522296E-07 -3.72556009E-03 -1.72734662E-07 -2.39554838E-02
 -3.17122265E-07 -6.66796737E-04 -1.70083308E-07 -1.47518207E-02  5.23325153E-07
  6.31965175E-03 -2.06465408E-06  3.89131589E-04  4.66664798E-07  1.16717207E-07
 -6.73976186E-04 -1.34018634E-06 -9.14569368E-03  1.48193749E-07  2.21364500E-03
 -5.01592001E-07  2.88258825E-04  1.71126523E-04  5.72722473E-04  7.18502871E-05
 -2.52036577E-04 -9.95990806E-05 -1.65097561E-04  2.99377306E-04  1.88283509E-04
  5.78089604E-04 -1.21182461E-04 -2.51356750E-04 -1.16133032E-05 -1.62137389E-04
  3.02920305E-04  1.93911629E-04  5.79992867E-04  4.95154784E-05 -2.51091715E-04
  1.10885657E-04 -1.61179274E-04  5.67461365E-03  9.90057740E-03  5.39845804E-03
 -8.82305547E-08  1.46065102E-06 -2.91416105E-02  1.92428809E-02 -2.52466897E-07
  2.76686441E-06 -1.07228056E-01  2.85294713E-02 -9.74807327E-08  7.78466502E-07
  2.89492032E-03  1.71512474E-08 -2.98031811E-08 -5.01419228E-03  6.69590534E-08
 -9.90419860E-02  1.02794075E-01 -1.30210360E-05  3.70112177E-05  2.07652422E-02
  3.62806231E-02  1.54160628E-02 -1.26327934E-06 -1.67563196E-06 -1.19442788E-01
  8.55063143E-03  5.65462308E-07 -5.34938731E-06 -1.92561695E-01  3.63800994E-02
 -1.58108182E-05 -8.72741915E-06  1.95272380E-03  9.39565418E-07 -8.17678074E-08
 -3.38106166E-03 -4.33272706E-07 -8.82382758E+00 -6.06221984E-01 -1.80100628E-04
  1.07330322E-04 -1.30873905E-03 -1.89916281E-03 -1.00496482E-02 -2.53676832E-07
 -6.62153455E-07 -2.02656716E-02  4.93691468E-03 -1.56466630E-06 -9.47773034E-08
  2.85756211E-01 -1.29094176E-02  5.91788511E-06 -5.50774368E-06 -4.55733579E-04
  8.43409957E-07 -3.05981861E-08  7.89301647E-04 -2.54795521E-09  3.76541417E+00
 -1.14677129E+00  4.76292045E-05 -9.57542523E-05 -8.53000296E-04 -3.92095670E-02
  4.35447696E-01 -2.53667079E-03 -8.63630096E-03  6.21532672E-03  1.77596461E+00
 -8.54884329E-04 -3.92257362E-02  4.35512105E-01 -2.53795801E-03 -1.06373279E-03
 -1.05888446E-02  1.77641792E+00 -8.53181028E-04 -3.92145188E-02  4.35513800E-01
 -2.53659777E-03  9.70138886E-03  4.37227403E-03  1.77626265E+00  9.19536999E-07
  1.57209597E-06  3.59079544E-08 -1.19174425E-03  1.83289456E-03 -4.43723059E-06
 -8.51556408E-07  5.88027336E-04 -9.07094526E-04 -2.61401874E-05  1.44058485E-05
 -1.43775578E-02  2.21256192E-02 -4.34092619E-04  2.19652130E-03 -6.02699207E-04
 -2.51091787E-04 -1.42754978E-03 -1.46088792E-04 -6.90311670E-06  4.61376064E-02
 -7.10303393E-02  1.30839068E-06  2.38828844E-06 -3.19224375E-07  1.98148113E-02
 -3.04884004E-02 -9.69668868E-06 -1.57357812E-06  5.20581736E-02 -8.01024490E-02
  3.27632577E-05  2.51485444E-05 -4.59163824E-02  7.06614559E-02 -2.45641577E-04
 -2.96004179E-03 -3.41018571E-04 -1.41483806E-04  1.92424595E-03  8.90026695E-04
  3.45099901E-05  8.85641383E-01 -1.36291169E+00  1.94770632E-07  3.76995400E-07
 -1.39991736E-08  9.66131741E-03 -1.48654516E-02 -2.04061508E-06  1.19123750E-06
  1.68867885E-02 -2.59828208E-02  1.27618150E-05  4.30237339E-05  2.94942831E-02
 -4.53850602E-02 -1.22618694E-03  6.13338547E-03 -1.70241692E-03 -7.09234653E-04
 -3.98635925E-03 -4.58345029E-04  2.65412423E-04 -1.51247345E-01  2.32851445E-01
 -9.79156207E-03  1.54647458E-02 -2.71934401E-01 -4.23743343E-03 -5.92477240E-03
  2.45594251E-03  4.25675313E+00  8.19193257E-03 -1.29226858E-02  2.27407166E-01
  3.54492885E-03  3.04504344E-03  4.94145540E-03 -3.56160125E+00  1.59927569E-03
 -2.52034348E-03  4.43679238E-02  6.92212396E-04  7.15249551E-04 -4.06864157E-03
 -6.95307119E-01  2.36317083E-07  4.01325120E-07 -2.37553394E-07  1.83420208E-03
  1.19143399E-03 -7.36989685E-07  3.45361832E-07 -9.03895117E-04 -5.88901387E-04
 -1.75658117E-05  5.28545596E-06  2.21235932E-02  1.43791868E-02 -5.21795657E-04
  1.42746395E-03  5.01532476E-04 -3.01687081E-04  2.19660847E-03 -2.55176828E-05
  5.10003161E-06 -7.09846009E-02 -4.61552751E-02 -1.52101375E-07 -3.08989451E-07
 -6.42574096E-07 -3.04900043E-02 -1.98139254E-02  7.39580665E-07 -4.07569160E-06
 -8.01072186E-02 -5.20591248E-02  8.86968993E-06  2.11155607E-05  7.06479059E-02
  4.59179567E-02 -2.93499889E-04 -1.92291104E-03  2.82402434E-04 -1.69756829E-04
 -2.95974105E-03 -1.82955962E-04 -1.27577800E-04 -1.36260825E+00 -8.85623608E-01
  1.72326514E-07  2.71001118E-07  2.10462736E-07 -1.48667455E-02 -9.66108717E-03
 -1.37307418E-06  1.48336355E-06 -2.59835356E-02 -1.68851847E-02  5.48518879E-06
  2.36564133E-05 -4.53888469E-02 -2.94980000E-02 -1.47481736E-03  3.98587972E-03
  1.41677740E-03 -8.50888927E-04  6.13383401E-03  2.10796365E-04 -4.16396632E-05
  2.32697335E-01  1.51304197E-01  3.80659967E-03 -6.02075250E-03  1.05741177E-01
  1.64660197E-03 -2.35803910E-04 -4.48141552E-03 -1.65451429E+00  6.57782359E-03
 -1.03952709E-02  1.82686227E-01  2.84519560E-03 -2.72376852E-03  4.48570350E-03
 -2.85931912E+00 -1.03832845E-02  1.64069015E-02 -2.88360403E-01 -4.49239660E-03
  6.28756833E-03  2.15733244E-03  4.51380055E+00  1.36715817E-02  2.35598830E-02
 -9.57437966E-03 -2.64843217E-07  1.24128333E-06 -7.19390816E-02 -4.69816042E-02
 -6.88305827E-07  2.38927160E-06 -3.96358110E-01  3.13075638E-01  1.04872086E-06