FCHK generated by IOData                                                
NA        NA                                                           NA
Number of atoms                            I                3
Number of electrons                        I               22
Charge                                     I                0
Multiplicity                               I                1
Number of alpha electrons                  I               11
Number of beta electrons                   I               11
Atomic numbers                             I   N=           3
           8           8           6
Nuclear charges                            R   N=           3
  8.00000000E+00  8.00000000E+00  6.00000000E+00
Current cartesian coordinates              R   N=           9
 -2.18748838E+00  0.00000000E+00  0.00000000E+00  2.18748838E+00  0.00000000E+00
  0.00000000E+00  0.00000000E+00  0.00000000E+00  0.00000000E+00
Number of basis functions                  I               66
Number of independent functions            I               66
Number of contracted shells                I               30
Number of primitive shells                 I               57
Pure/Cartesian d shells                    I                0
Pure/Cartesian f shells                    I                0
Highest angular momentum                   I                2
Largest degree of contraction              I                6
Shell types                                I   N=          30
           0           0           1           0           1           0
           1          -2           0           1           0           0
           1           0           1           0           1          -2
           0           1           0           0           1           0
           1           0           1          -2           0           1
Number of primitives per shell             I   N=          30
           6           3           3           1           1           1
           1           1           1           1           6           3
           3           1           1           1           1           1
           1           1           6           3           3           1
           1           1           1           1           1           1
Shell to atom map                          I   N=          30
           1           1           1           1           1           1
           1           1           1           1           2           2
           2           2           2           2           2           2
           2           2           3           3           3           3
           3           3           3           3           3           3
Primitive exponents                        R   N=          57
  8.58850000E+03  1.29723000E+03  2.99296000E+02  8.73771000E+01  2.56789000E+01
  3.74004000E+00  4.21175000E+01  9.62837000E+00  2.85332000E+00  4.21175000E+01
  9.62837000E+00  2.85332000E+00  9.05661000E-01  9.05661000E-01  2.55611000E-01
  2.55611000E-01  1.29200000E+00  8.45000000E-02  8.45000000E-02  8.58850000E+03
  1.29723000E+03  2.99296000E+02  8.73771000E+01  2.56789000E+01  3.74004000E+00
  4.21175000E+01  9.62837000E+00  2.85332000E+00  4.21175000E+01  9.62837000E+00
  2.85332000E+00  9.05661000E-01  9.05661000E-01  2.55611000E-01  2.55611000E-01
  1.29200000E+00  8.45000000E-02  8.45000000E-02  4.56324000E+03  6.82024000E+02
  1.54973000E+02  4.44553000E+01  1.30290000E+01  1.82773000E+00  2.09642000E+01
  4.80331000E+00  1.45933000E+00  2.09642000E+01  4.80331000E+00  1.45933000E+00
  4.83456000E-01  4.83456000E-01  1.45585000E-01  1.45585000E-01  6.26000000E-01
  4.38000000E-02  4.38000000E-02
Contraction coefficients                   R   N=          57
  1.89515000E-03  1.43859000E-02  7.07320000E-02  2.40001000E-01  5.94797000E-01
  2.80802000E-01  1.13889000E-01  9.20811000E-01 -3.27447000E-03  3.65114000E-02
  2.37153000E-01  8.19702000E-01  1.00000000E+00  1.00000000E+00  1.00000000E+00
  1.00000000E+00  1.00000000E+00  1.00000000E+00  1.00000000E+00  1.89515000E-03
  1.43859000E-02  7.07320000E-02  2.40001000E-01  5.94797000E-01  2.80802000E-01
  1.13889000E-01  9.20811000E-01 -3.27447000E-03  3.65114000E-02  2.37153000E-01
  8.19702000E-01  1.00000000E+00  1.00000000E+00  1.00000000E+00  1.00000000E+00
  1.00000000E+00  1.00000000E+00  1.00000000E+00  1.96665000E-03  1.52306000E-02
  7.61269000E-02  2.60801000E-01  6.16462000E-01  2.21006000E-01  1.14660000E-01
  9.19999000E-01 -3.03068000E-03  4.02487000E-02  2.37594000E-01  8.15854000E-01
  1.00000000E+00  1.00000000E+00  1.00000000E+00  1.00000000E+00  1.00000000E+00
  1.00000000E+00  1.00000000E+00
Coordinates of each shell                  R   N=          90
 -2.18748838E+00  0.00000000E+00  0.00000000E+00 -2.18748838E+00  0.00000000E+00
  0.00000000E+00 -2.18748838E+00  0.00000000E+00  0.00000000E+00 -2.18748838E+00
  0.00000000E+00  0.00000000E+00 -2.18748838E+00  0.00000000E+00  0.00000000E+00
 -2.18748838E+00  0.00000000E+00  0.00000000E+00 -2.18748838E+00  0.00000000E+00
  0.00000000E+00 -2.18748838E+00  0.00000000E+00  0.00000000E+00 -2.18748838E+00
  0.00000000E+00  0.00000000E+00 -2.18748838E+00  0.00000000E+00  0.00000000E+00
  2.18748838E+00  0.00000000E+00  0.00000000E+00  2.18748838E+00  0.00000000E+00
  0.00000000E+00  2.18748838E+00  0.00000000E+00  0.00000000E+00  2.18748838E+00
  0.00000000E+00  0.00000000E+00  2.18748838E+00  0.00000000E+00  0.00000000E+00
  2.18748838E+00  0.00000000E+00  0.00000000E+00  2.18748838E+00  0.00000000E+00
  0.00000000E+00  2.18748838E+00  0.00000000E+00  0.00000000E+00  2.18748838E+00
  0.00000000E+00  0.00000000E+00  2.18748838E+00  0.00000000E+00  0.00000000E+00
  0.00000000E+00  0.00000000E+00  0.00000000E+00  0.00000000E+00  0.00000000E+00
  0.00000000E+00  0.00000000E+00  0.00000000E+00  0.00000000E+00  0.00000000E+00
  0.00000000E+00  0.00000000E+00  0.00000000E+00  0.00000000E+00  0.00000000E+00
  0.00000000E+00  0.00000000E+00  0.00000000E+00  0.00000000E+00  0.00000000E+00
  0.00000000E+00  0.00000000E+00  0.00000000E+00  0.00000000E+00  0.00000000E+00
  0.00000000E+00  0.00000000E+00  0.00000000E+00  0.00000000E+00  0.00000000E+00
Total Energy                               R       0.00000000E+00
Alpha Orbital Energies                     R   N=          66
 -2.06547934E+01 -2.06547478E+01 -1.14652161E+01 -1.53844209E+00 -1.48558749E+00
 -8.02186495E-01 -7.46374381E-01 -7.18876391E-01 -7.18876391E-01 -5.46468741E-01
 -5.46468741E-01  5.56781814E-02  9.50997215E-02  9.50997215E-02  9.94524500E-02
  2.05067989E-01  2.05067989E-01  2.36421925E-01  2.75257718E-01  2.75257718E-01
  2.83254174E-01  3.15882299E-01  3.43808749E-01  3.43808749E-01  3.76817378E-01
  5.05771000E-01  7.06479287E-01  7.06479287E-01  8.12539473E-01  1.00950515E+00
  1.11388043E+00  1.22231765E+00  1.22231765E+00  1.26063340E+00  1.33626525E+00
  1.33626525E+00  1.41384142E+00  1.41384142E+00  1.47343295E+00  1.60202586E+00
  1.66323044E+00  1.66323044E+00  2.12629081E+00  2.92581832E+00  2.92581832E+00
  3.07834651E+00  3.10200005E+00  3.10200005E+00  3.22304256E+00  3.22304256E+00
  3.48486137E+00  3.48486137E+00  3.58758812E+00  4.08269568E+00  4.08269568E+00
  4.19400771E+00  4.24418244E+00  5.50117314E+00  5.50117314E+00  5.57697210E+00
  5.57697210E+00  6.20751715E+00  6.21099624E+00  2.55207947E+01  5.16045958E+01
  5.17644835E+01
Alpha MO coefficients                      R   N=        4356
  2.85038105E-02  6.11241356E-02  2.09525983E-01 -8.56022342E-02  3.21613352E-02
 -2.05984644E-01  3.27212369E-01 -1.27413739E-01  5.02256998E-02 -1.08776188E-01
  2.78642959E-01 -6.23523287E-02  4.27704631E-02  8.04017915E-03  2.32600025E-02
 -4.78151849E-16 -1.39259988E-02  3.57032482E-03  2.06589573E-02  1.08189219E-02
 -3.13446570E-04  1.66061280E-03 -1.97243114E-03 -4.06402034E-03 -2.54459609E-02
 -7.11405182E-03 -3.90553295E-03  1.51831198E-02 -3.20418597E-02 -1.76882786E-02
 -4.91779812E-03  2.65746117E-02 -5.35752968E-02 -1.13227115E-02 -8.22316534E-03
 -1.93046367E-03 -6.89472805E-03  1.38090494E-16  3.34366116E-03 -1.05834750E-03
  2.54400723E-02 -3.10993912E-02 -1.07647837E-02 -4.77361184E-03  2.68823297E-02
  5.55761436E-02  9.03783301E-02  8.56672236E-02  1.38728374E-02 -1.82297500E-01
  1.49781139E-01  1.07747058E-01  2.29910134E-02 -7.64127933E-02  7.19757904E-02
 -1.72753329E-02  1.10480957E-02  1.43013684E-02 -5.59767177E-02 -7.12358543E-16
 -2.47706968E-02 -8.59211045E-03 -1.14631492E-02  1.56393432E-02  1.68222054E-03
  2.40059830E-03 -1.97600475E-03 -4.06617686E-03 -1.10020109E-02  7.10823620E-03
 -2.32753856E-02  1.51782806E-02 -1.38541644E-02  1.76794847E-02 -2.93086822E-02
  2.65744263E-02 -2.31634572E-02  1.13180492E-02 -4.90051560E-02 -1.92999658E-03
  2.98067867E-03  4.90678102E-17  3.34285214E-03  6.30655167E-03  2.54412090E-02
 -1.34452105E-02  1.07646953E-02 -2.84464277E-02  2.84341538E-02  6.10634335E-02
  9.05842155E-02  8.56018435E-02  1.91652140E-01 -2.05978778E-01  1.41463448E-01
  1.27412423E-01  2.99299155E-01 -1.08770417E-01  1.20465600E-01  6.23518413E-02
  2.54873027E-01  8.04000991E-03 -1.00559339E-02 -8.53016879E-17 -1.39257057E-02
 -2.12757768E-02  2.06598931E-02  4.67747760E-03  3.12939177E-04  9.89601924E-03
  2.69467560E-02  5.56309633E-02  3.90727177E-02 -8.56618060E-02  8.26684485E-02
 -1.82305411E-01  6.47539755E-02 -1.07740157E-01  1.37003797E-01 -7.64172562E-02
  3.11168588E-02  1.72745864E-02  6.58357696E-02  1.43017450E-02  2.42006063E-02
  5.88256456E-17 -2.47713491E-02  5.12015911E-02 -1.14633929E-02  6.76126282E-03
 -1.68212766E-03  1.43052017E-02  5.58882329E-01  4.85266857E-01 -3.32547506E-07
  3.61195436E-03 -1.21926109E-08 -3.66087201E-02 -4.57514048E-07  1.45548184E-03
 -7.41066679E-08 -3.81848932E-02 -6.00759760E-07  2.31279236E-03  1.24983901E-07
  3.21293457E-04  4.11500189E-08  5.28896222E-16 -5.56496591E-04 -7.08928298E-08
 -1.74977563E-03 -2.56406761E-07 -1.05063507E-03  2.12473107E-07 -6.81096293E-05
 -1.40036164E-04  1.69846806E-06 -3.97267455E-04 -1.47548027E-06  4.14010735E-04
  2.64775426E-06 -1.26421199E-03 -2.31136219E-06  3.53289108E-03  2.27081902E-06
 -1.30438436E-03 -1.94390511E-06 -1.62351188E-04 -1.82605746E-07  3.59025348E-16
  2.81200506E-04  1.72807568E-07  4.25810256E-03  1.05920523E-07 -1.62637423E-03
 -4.85731648E-08  1.63672942E-03  2.90619820E-03  6.70630182E-07  4.79057112E-03
 -7.30407290E-07 -7.41787356E-03  1.11141412E-06  4.27496985E-03 -1.21048083E-06
  4.24203336E-04  5.34078660E-07 -6.84989150E-03 -5.81684149E-07  1.09890087E-03
  4.83843232E-07  1.88895135E-18 -1.90335214E-03 -3.48594979E-07 -1.62610582E-03
  1.16047902E-07  6.91526249E-04 -1.26391919E-07 -2.85047649E-02 -6.11263212E-02
  1.32610004E-01  8.56034464E-02 -1.65374980E-01  2.05992505E-01  2.07094363E-01
  1.27415637E-01 -2.58262707E-01  1.08782142E-01  1.76354267E-01  6.23531793E-02
 -2.19927622E-01 -8.04035957E-03  1.47214677E-02 -1.14077775E-15  1.39263113E-02
 -1.83587421E-02 -2.06587534E-02  6.84704106E-03  3.13664633E-04 -8.53901320E-03
  1.97432707E-03  4.06606237E-03 -1.61027456E-02  7.11531426E-03  2.00829062E-02
 -1.51854656E-02 -2.02761183E-02  1.76903416E-02  2.52882931E-02 -2.65762210E-02
 -3.39052613E-02  1.13238144E-02  4.22845140E-02  1.93060901E-03 -4.36395469E-03
 -6.08622157E-17 -3.34391290E-03  5.44201190E-03 -2.54405701E-02 -1.96828820E-02
  1.07650953E-02  2.45461356E-02 -2.68925892E-02 -5.55849241E-02  5.72019239E-02
 -8.56700798E-02 -7.13344925E-02  1.82298822E-01  9.47989338E-02 -1.07750515E-01
 -1.18220391E-01  7.64128763E-02  4.55546554E-02  1.72763883E-02 -5.68095966E-02
 -1.43015324E-02 -3.54274278E-02  6.73909914E-16  2.47709807E-02  4.41811203E-02
  1.14633311E-02  9.89839621E-03 -1.68231560E-03 -1.23439392E-02 -1.97419588E-03
 -4.06439544E-03  2.56574533E-02  7.11062935E-03  2.10835488E-03  1.51768259E-02
  3.23081824E-02  1.76831179E-02  2.65463534E-03  2.65713465E-02  5.40205616E-02
  1.13199857E-02  4.43963486E-03 -1.93015939E-03 -6.95202190E-03 -1.42497609E-16
  3.34313412E-03 -5.71561788E-04  2.54403699E-02  3.13578374E-02  1.07645973E-02
  2.57766831E-03  2.84339463E-02  6.10628340E-02 -2.11267206E-01  8.56054234E-02
 -1.73667018E-02 -2.05976100E-01 -3.29931600E-01  1.27417796E-01 -2.71212448E-02
 -1.08765391E-01 -2.80958567E-01  6.23547210E-02 -2.30954369E-02  8.04023654E-03
  2.34532987E-02 -2.05973343E-16 -1.39260982E-02  1.92795627E-03  2.06611960E-02
 -1.09088345E-02  3.12756593E-04 -8.96625291E-04  2.69437995E-02  5.56287987E-02
 -9.11293866E-02 -8.56649075E-02 -7.49143712E-03 -1.82307103E-01 -1.51025841E-01
 -1.07744633E-01 -1.24153211E-02 -7.64183090E-02 -7.25739192E-02  1.72731719E-02
 -5.96605521E-03  1.43018291E-02 -5.64419077E-02 -1.35194093E-15 -2.47714947E-02
 -4.63948899E-03 -1.14634301E-02 -1.57693083E-02 -1.68202382E-03 -1.29634124E-03
  6.44689309E-02  1.31154251E-01  8.06860165E-06  1.94616467E-01  1.78361739E-05
 -4.54651312E-01  1.26175449E-05  2.89392152E-01  2.79185272E-05 -5.34261692E-01
  1.06866823E-05  1.63109934E-01  2.35553663E-05 -8.58482711E-03  9.17155616E-07
  1.69287264E-15  1.48693567E-02  2.06104381E-06 -8.31898419E-02  3.50921355E-07
 -1.64755536E-02  6.72733777E-07  3.10024781E-03  5.80274351E-03 -5.24525234E-07
  1.20448902E-02 -4.45623985E-07 -2.07383155E-02 -5.20692423E-07  1.73287831E-02
 -3.29510926E-08  1.17814401E-02 -1.46282617E-06  4.85024963E-03 -2.29260047E-06
  9.14074444E-04 -3.18663398E-07  9.50014771E-17 -1.58322338E-03 -7.87757161E-07
  2.96791885E-02 -1.18206755E-06 -8.88502695E-03 -2.58868593E-06 -2.51388866E-02
 -4.88749842E-02  3.70393821E-06 -6.92923175E-02  8.53829134E-06  1.79128086E-01
  6.13841929E-06 -1.16091222E-01  1.41502394E-05  1.51780303E-01  2.94975443E-06
 -8.87778668E-02  6.79975240E-06 -2.39320336E-03 -2.04711690E-06  3.37134071E-16
  4.14514981E-03 -4.35522225E-06 -4.10516289E-03  6.40940818E-07  6.92114821E-03
  1.47749210E-06 -1.98007342E-03 -4.06869451E-03 -1.46566984E-02  7.10895293E-03
  2.11654153E-02  1.51724483E-02 -1.84563090E-02  1.76813319E-02  2.66521523E-02
  2.65728913E-02 -3.08579300E-02  1.13197720E-02  4.45617616E-02 -1.93012271E-03
  3.97078774E-03  5.54306879E-17  3.34307060E-03 -5.73437576E-03  2.54460664E-02
 -1.79114168E-02  1.07664967E-02  2.58662444E-02  2.84423343E-02  6.10817919E-02
  1.20674307E-01  8.55901422E-02 -1.74268389E-01 -2.06045429E-01  1.88454504E-01
  1.27394980E-01 -2.72151268E-01 -1.08835544E-01  1.60481639E-01  6.23410502E-02
 -2.31754961E-01  8.03989869E-03 -1.33962919E-02  5.58956702E-16 -1.39255130E-02
  1.93459065E-02  2.06537180E-02  6.23124189E-03  3.14528987E-04 -8.99857928E-03
  2.69424016E-02  5.56275974E-02  5.20517886E-02 -8.56630912E-02 -7.51694341E-02
 -1.82303896E-01  8.62637779E-02 -1.07739054E-01 -1.24575918E-01 -7.64080511E-02
  4.14531738E-02  1.72844987E-02 -5.98636800E-02  1.43029341E-02  3.22395319E-02
  5.54960149E-16 -2.47734085E-02 -4.65576558E-02 -1.14650075E-02  9.00720102E-03
 -1.68293177E-03 -1.30075493E-02  2.85108292E-02  6.11393540E-02 -7.69085998E-02
 -8.55881168E-02 -1.97530383E-01 -2.06039072E-01 -1.20106569E-01 -1.27392810E-01
 -3.08479106E-01 -1.08833204E-01 -1.02278653E-01 -6.23400463E-02 -2.62690292E-01
  8.03979065E-03 -8.53782612E-03  7.91452728E-16 -1.39253259E-02 -2.19283614E-02
  2.06519473E-02 -3.97116107E-03 -3.15099045E-04 -1.01994637E-02 -1.97497022E-03
 -4.06607028E-03  9.33997173E-03 -7.11449301E-03  2.39887167E-02  1.51821232E-02
  1.17609366E-02 -1.76893701E-02  3.02067471E-02  2.65763570E-02  1.96650542E-02
 -1.13237855E-02  5.05074781E-02 -1.93056369E-03  2.53080451E-03 -2.34602310E-17
  3.34383440E-03  6.50004771E-03  2.54438263E-02  1.14153339E-02 -1.07661466E-02
  2.93189010E-02  2.68900383E-02  5.55812316E-02 -3.31743754E-02  8.56658890E-02
 -8.52042813E-02 -1.82287811E-01 -5.49788400E-02  1.07742691E-01 -1.41206352E-01
 -7.64011532E-02 -2.64195177E-02 -1.72846069E-02 -6.78552644E-02  1.43017504E-02
  2.05467591E-02 -1.38995389E-16 -2.47713583E-02  5.27718838E-02 -1.14640611E-02
 -5.74059560E-03  1.68296398E-03 -1.47440100E-02 -1.71469919E-03 -3.20770014E-03
 -3.62172847E-06  7.52471483E-03 -3.79308998E-07  9.59010373E-03 -5.64550934E-06
  1.12437531E-02 -5.40349278E-07  1.97402306E-03 -4.84328266E-06  5.99984616E-03
 -6.37795119E-07 -5.05298252E-04 -3.88836847E-07 -1.53466285E-16  8.75202246E-04
  2.35719732E-08 -3.92449145E-03 -2.27522202E-07 -8.02273199E-04 -2.20861629E-07
 -1.68819488E-03 -3.17569470E-03  7.20630538E-07 -7.49165757E-03  1.44105809E-06
  9.53815432E-03  9.93627273E-07 -1.11923618E-02  2.24285353E-06  1.95017947E-03
  1.29622025E-06 -5.97340885E-03  1.93595547E-06 -5.02105139E-04  8.64011785E-08
 -2.29906937E-16  8.69671612E-04 -1.50356503E-07 -3.92261795E-03  5.47142045E-07
  8.04792750E-04  1.03886578E-07 -5.69175076E-01 -4.77072293E-01 -1.42436090E-06
 -2.70788106E-05  5.21290191E-07  2.75019296E-02 -2.36054813E-06 -3.48857353E-05
  8.63917699E-07  1.29785624E-02 -1.13433720E-06  2.51043898E-06  4.15146788E-07
 -1.29073322E-03  1.03446820E-06  6.77850855E-18  2.23561551E-03  4.33661028E-07
  1.75631763E-03 -2.46475776E-07 -2.98269100E-07  9.02056526E-08  7.11123301E-05
  1.45799512E-04  7.98484137E-07 -4.10689573E-04  4.49869405E-07 -4.34461167E-04
  1.23445706E-06 -1.28644440E-03  7.16594009E-07 -3.53384476E-03  1.09398354E-06
 -1.31399072E-03  5.62262143E-07  1.63884422E-04  7.28321954E-08  1.92830205E-17
 -2.83856145E-04  6.76743515E-08 -4.24720784E-03  8.96780768E-08 -1.62446953E-03
 -3.11142317E-08 -5.58850492E-01 -4.85203404E-01 -4.32754250E-07  3.45126572E-03
  3.22005461E-07  3.63869223E-02 -6.48012775E-07  1.21634435E-03  5.21099768E-07
  3.78740990E-02 -6.46819477E-07  2.18155638E-03  3.81479981E-07 -3.30017571E-04
  1.29208257E-08 -7.72981683E-16  5.71607201E-04 -5.87689107E-08  1.68746465E-03
 -1.29971279E-07 -1.04004184E-03 -5.39247882E-08 -1.68255889E-03 -2.97438614E-03
  1.79563518E-07  4.87050383E-03  3.78969758E-07  7.59988884E-03  2.97584922E-07
  4.39475840E-03  6.28054558E-07 -2.97826380E-04  1.43001383E-07 -6.79764819E-03
  3.01805177E-07 -1.10554378E-03 -2.93314523E-07  4.97821715E-16  1.91485799E-03
 -3.04606739E-08  1.62752623E-03  3.10722201E-08  6.87585804E-04  6.55780888E-08
  3.10198253E-03  5.80201206E-03  2.21910580E-06 -1.20474921E-02 -1.65962469E-06
 -2.07252681E-02  2.91485660E-06 -1.73321859E-02 -1.94132669E-06  1.17968571E-02
  4.36315914E-06 -4.85189271E-03 -3.87502537E-06  9.14026507E-04 -4.49066611E-07
 -3.40236624E-17 -1.58314035E-03  6.37207493E-07  2.96835730E-02  2.24567851E-06
  8.88649780E-03 -2.60301215E-06  6.48372078E-02  1.31474139E-01 -1.50395797E-05
 -1.94618673E-01  1.76484447E-05 -4.54676069E-01 -2.34723606E-05 -2.89392753E-01
  2.75792428E-05 -5.34287933E-01 -2.00382663E-05 -1.63111183E-01  2.34239493E-05
 -8.58457480E-03  1.65109575E-06 -3.48921046E-16  1.48689197E-02 -1.98197168E-06
 -8.31919176E-02 -8.33220903E-07  1.64765915E-02  8.41491419E-07 -2.51548933E-02
 -4.88869822E-02 -6.29450716E-06  6.92890560E-02  7.85007975E-06  1.79121231E-01
 -1.04316870E-05  1.16088889E-01  1.30096881E-05  1.51778127E-01 -5.01284021E-06
  8.87845929E-02  6.25167221E-06 -2.39255319E-03 -4.11148900E-06  1.18163659E-16
  4.14402368E-03  4.59970809E-06 -4.10602438E-03 -1.08922081E-06 -6.92178181E-03
  1.35840186E-06  1.71113638E-02  3.00197938E-02 -1.97000970E-02 -2.01211938E-15
 -2.67469024E-17 -1.06976421E-01 -2.38712522E-02 -2.85742798E-15  2.86599100E-15
 -7.76797405E-02 -8.08101471E-02 -1.56236774E-15 -7.49342191E-15  1.54211862E-03
  5.26712165E-16  3.03841035E-16 -2.67102780E-03 -1.58561714E-16 -1.43140608E+00
 -3.17797359E-01  1.27356535E-15  3.67889739E-14  1.71113638E-02  3.00197938E-02
  1.97000970E-02  3.94095315E-16  1.23077339E-15 -1.06976421E-01  2.38712522E-02
  3.72042523E-15  4.14782703E-15 -7.76797406E-02  8.08101472E-02 -1.08423741E-14
 -4.96444360E-15  1.54211862E-03 -5.01993352E-16  4.38272918E-17 -2.67102780E-03
 -4.82929042E-18 -1.43140608E+00  3.17797359E-01  1.74469888E-14  3.07402490E-14
 -2.60524913E-03 -1.93266464E-03  2.07825116E-12 -1.19660857E-15  9.23497095E-16
 -6.48693361E-02 -1.00910840E-11  7.54664975E-16 -2.77706831E-15  9.46347725E-01
  1.78228902E-10 -7.66744048E-15  5.67771179E-15  1.74775638E-02  4.29062562E-16
 -3.36923297E-16 -3.02720285E-02  2.10634965E-15  2.74493778E+00  5.23149865E-11
  1.08158286E-14 -8.38468959E-14 -1.03404912E-15 -1.62973647E-15 -2.27178231E-15
  3.36014631E-02 -1.87506131E-05  6.72723214E-16 -8.34321852E-15  7.09425858E-02
 -3.95880671E-05  1.06328385E-13  5.43551151E-14 -1.86689775E-02  1.04178432E-05
  7.99448421E-17 -2.00254945E-06  7.27930365E-18  3.22309766E-17  3.58860754E-03
  6.69677160E-13  1.43998593E-13  5.38417465E-01 -3.00452916E-04  1.58817615E-15
  2.61544459E-15 -1.67797071E-15  3.36014631E-02 -1.87506131E-05 -6.42339230E-15
 -7.52501550E-15  7.09425858E-02 -3.95880671E-05 -1.02369511E-13  6.37088748E-14
 -1.86689775E-02  1.04178432E-05  1.01652573E-17  2.00254945E-06 -5.96397411E-17
 -2.14843486E-16 -3.58860754E-03 -7.79432901E-13  1.72771276E-13  5.38417465E-01
 -3.00452916E-04 -1.19788178E-16 -2.42196184E-17  2.82288709E-15  1.54824093E-02
 -8.63964363E-06 -3.71898400E-15  5.11823398E-15  1.67681430E-02 -9.35712114E-06
  5.41500917E-14  4.02985365E-13  3.20118820E-02 -1.78635797E-05 -3.50255176E-18
 -3.64692106E-16  1.11255812E-17 -6.43912425E-17  9.30974127E-13  6.96949928E-14
  4.27936541E-13 -1.73627289E+00  9.68891773E-04  2.69458228E-15  4.48182300E-15
  8.20295759E-15  1.87506131E-05  3.36014631E-02 -7.87933498E-15  1.91866588E-14
  3.95880671E-05  7.09425858E-02 -1.88074181E-13 -1.12882623E-13 -1.04178432E-05
 -1.86689775E-02  2.09616533E-16  3.58860754E-03 -9.39316253E-17 -1.24067568E-15
  2.00254945E-06 -1.37178216E-12 -1.98099288E-13  3.00452916E-04  5.38417465E-01
 -4.87520673E-15 -7.72696358E-15  4.57585622E-15  1.87506131E-05  3.36014631E-02
  1.65867164E-14  1.54305419E-14  3.95880671E-05  7.09425858E-02  2.14557784E-13
 -1.15078950E-13 -1.04178432E-05 -1.86689775E-02 -6.05151346E-16 -3.58860754E-03
  3.04897205E-17  1.03811220E-15 -2.00254945E-06  1.35234346E-12 -1.82470610E-13
  3.00452916E-04  5.38417465E-01  1.98581613E-16  3.28300543E-16 -4.77596289E-15
  8.63964363E-06  1.54824093E-02 -1.40067257E-15 -2.54982059E-14  9.35712115E-06
  1.67681430E-02  2.05240441E-14 -6.86437112E-13  1.78635796E-05  3.20118820E-02
 -2.78001848E-15  3.70245621E-13  9.62034549E-16  2.82212846E-15  8.73555907E-16
 -4.51101475E-14 -1.07048662E-12 -9.68891773E-04 -1.73627289E+00  9.55895741E-03
  1.61727161E-02  1.58667874E-02  4.28048441E-15 -1.18789046E-14 -4.01826188E-02
  4.30166648E-02  1.08472528E-14 -2.71396238E-14 -4.11045675E-01 -2.48718515E-01
 -7.18350132E-15  1.50952771E-14  1.25368930E-03 -1.12350559E-15  1.99097530E-16
 -2.17145356E-03  7.56944705E-17 -3.16948225E+00 -3.63023904E-01  1.03578339E-13
 -2.28298331E-13 -9.55895741E-03 -1.61727161E-02  1.58667874E-02  7.03827087E-15
 -1.34679476E-14  4.01826188E-02  4.30166648E-02  1.12085151E-14 -2.78828060E-14
  4.11045675E-01 -2.48718514E-01  1.14463251E-14  4.67964498E-15 -1.25368929E-03
  1.96231867E-15  1.94110251E-16  2.17145355E-03 -4.06172970E-16  3.16948225E+00
 -3.63023904E-01  6.57513991E-14 -2.03061603E-13 -1.34040706E-12 -3.02122754E-12
 -1.10834782E-02  6.17084965E-16 -7.15110265E-15 -1.30592322E-11 -5.79103316E-02
  2.35874528E-16 -7.98745594E-15  5.81993706E-10 -1.47513949E+00 -8.07522117E-15
 -1.51417432E-14 -1.04186449E-11  9.35485039E-16  9.43606702E-16  1.82718329E-11
  5.05075834E-18  2.94633668E-10 -2.69094274E+00 -2.60626645E-13  6.90878354E-13
  2.04140935E-18 -2.97902233E-17  1.50220412E-15  1.34648508E-01  5.34548216E-05
 -4.65400948E-16 -2.34658663E-15  2.03154508E-01  8.06513797E-05 -1.84670182E-14
 -8.23974720E-15  3.65901005E-01  1.45260970E-04  4.78977419E-16 -7.58002923E-06
 -7.85030147E-17 -5.43757869E-16 -1.90934999E-02 -1.01681693E-13 -6.11788793E-14
  4.28475495E-01  1.70102747E-04 -5.70918134E-17 -1.93169600E-16 -1.32575002E-15
  1.34648508E-01  5.34548216E-05 -2.89164582E-15  1.88874000E-15  2.03154508E-01
  8.06513797E-05  2.54690471E-14 -1.31590469E-14  3.65901005E-01  1.45260970E-04
 -2.00613890E-16  7.58002923E-06 -1.21239320E-16 -7.35579685E-16  1.90934999E-02
  2.81553832E-14 -3.96678507E-15  4.28475495E-01  1.70102747E-04 -3.84355888E-16
 -1.22959390E-15 -1.62786230E-15 -2.43892107E-01 -9.68240143E-05  3.84807091E-15
 -6.74029510E-17 -3.89080921E-01 -1.54463287E-04  4.89133760E-14 -6.74774660E-14
 -1.03982671E+00 -4.12806290E-04 -1.46194254E-15 -4.54040121E-16  6.51354766E-16
  4.09863338E-15  3.59219981E-13  3.13632056E-14  1.25730679E-14 -1.27069409E-01
 -5.04459549E-05  1.13772407E-17 -1.21799909E-15  4.65487934E-15 -5.34548216E-05
  1.34648508E-01  4.14816761E-16  1.43242423E-15 -8.06513797E-05  2.03154508E-01
  3.24290833E-14  2.34342330E-14 -1.45260970E-04  3.65901005E-01 -8.09415402E-16
 -1.90934999E-02 -3.51362511E-16  3.34598898E-16  7.58002923E-06  6.75556672E-14
 -6.40562394E-15 -1.70102747E-04  4.28475495E-01 -8.45982517E-16 -1.82878069E-15
 -4.02692163E-15 -5.34548216E-05  1.34648508E-01  7.35397285E-15 -4.65633018E-15
 -8.06513797E-05  2.03154508E-01 -1.61372830E-14  8.92623609E-15 -1.45260970E-04
  3.65901005E-01  1.04570555E-16  1.90934999E-02 -1.18587111E-16  1.04297565E-15
 -7.58002923E-06 -2.87443285E-13  1.36715620E-13 -1.70102747E-04  4.28475495E-01
 -2.26780906E-16  3.36998030E-16  1.46517010E-15  9.68240143E-05 -2.43892107E-01
 -1.06714972E-14 -1.00726907E-15  1.54463287E-04 -3.89080921E-01  1.36712809E-13
  1.11851020E-13  4.12806290E-04 -1.03982671E+00 -5.59583565E-16  1.85087603E-13
 -1.32387958E-15  3.46795602E-15 -6.59544883E-16  1.02740122E-13  3.40152452E-14
  5.04459549E-05 -1.27069409E-01  1.01446715E-02  1.63235972E-02 -6.79300201E-02
  7.88424865E-15  9.80976161E-15 -3.40774307E-02 -6.33892256E-02  4.65397714E-15
  1.34404556E-14 -1.30798929E-01 -1.15488585E-01  5.08439510E-14  3.87465691E-14
  2.75818884E-03  1.19817355E-16  3.02841551E-16 -4.77732321E-03  9.09983271E-16
  1.90719979E+00  1.33692634E+00 -1.06500645E-13 -3.98321920E-14  1.01446715E-02
  1.63235972E-02  6.79300201E-02  6.38126619E-16  6.47246276E-15 -3.40774306E-02
  6.33892256E-02  8.15846909E-15  1.31007329E-14 -1.30798930E-01  1.15488585E-01
 -2.14541860E-14  9.01693352E-15  2.75818884E-03  7.82344306E-16  1.54471968E-16
 -4.77732321E-03  8.36741939E-16  1.90719978E+00 -1.33692633E+00  6.03417387E-14
  3.52858903E-14  3.84816023E-03  1.13424473E-03 -1.65953419E-12 -5.29102351E-15
 -1.28546585E-14  1.28674049E-01  4.06387021E-11 -1.24298181E-14 -2.90396008E-14
 -2.41922832E+00  9.39888323E-10 -9.26052058E-15 -3.26601741E-14  5.29076636E-02
  1.01601781E-15 -2.38341011E-16 -9.16387614E-02  5.68282544E-15 -1.81815252E+00
  1.95791153E-10  2.54735139E-14 -2.07022720E-16 -5.97765505E-15 -1.03848601E-14
  1.17142712E-14  6.70034098E-02 -3.16925315E-05  2.68758140E-14  2.80309866E-14
  4.77252851E-02 -2.25740019E-05  1.43677890E-13 -8.70606446E-15  4.06627837E-01
 -1.92334474E-04 -4.37943233E-16 -5.62300696E-06 -9.42391599E-18  1.12051419E-15
  1.18879945E-02 -5.03394528E-13 -3.10732052E-14 -1.20967488E+00  5.72174753E-04
 -6.87246388E-15 -1.15706908E-14 -1.11567343E-14 -6.70034098E-02  3.16925315E-05
  3.05415568E-14 -2.48088445E-14 -4.77252851E-02  2.25740019E-05  1.85963757E-13
 -1.26644653E-14 -4.06627837E-01  1.92334474E-04 -6.95780937E-16 -5.62300696E-06
  1.19491038E-16  1.60271115E-15  1.18879945E-02 -4.22312764E-13  2.96119107E-14
  1.20967488E+00 -5.72174753E-04  4.19601027E-15  7.38972111E-15  9.90326679E-17
  4.52772698E-12 -4.89577295E-15 -2.31240309E-15 -3.89778653E-15  1.79499863E-11
 -7.36158870E-15 -7.32754422E-15 -4.42760258E-14 -1.31334192E-11 -2.60549423E-14
 -4.53374580E-15  2.13480464E-06 -4.86295236E-16  8.92872070E-15 -4.51334062E-03
  5.41045735E-13 -3.26770602E-14 -5.68865900E-11 -4.69009849E-14 -1.51148130E-15
 -2.01979053E-15  5.24442777E-16  3.16925315E-05  6.70034098E-02  5.97787333E-15
  2.28066881E-15  2.25740019E-05  4.77252851E-02  1.61948130E-14 -3.18878897E-14
  1.92334474E-04  4.06627837E-01  6.77073929E-18  1.18879945E-02 -4.43943226E-16
 -1.12952098E-15  5.62300696E-06 -1.66570999E-13  4.68225518E-14 -5.72174753E-04
 -1.20967488E+00 -6.26260792E-17 -1.42140783E-16 -3.36603973E-15 -3.16925315E-05
 -6.70034098E-02  1.35858185E-16 -3.07484791E-15 -2.25740019E-05 -4.77252851E-02
  1.92857737E-15 -1.60401742E-14 -1.92334474E-04 -4.06627837E-01 -7.21467728E-16
  1.18879945E-02 -2.75652729E-16  4.92694686E-16  5.62300696E-06 -7.29847871E-14
  1.32635640E-13  5.72174753E-04  1.20967488E+00  3.28704622E-17  4.51037216E-16
  2.35130931E-15 -1.22623972E-15  2.40609760E-12 -4.44893337E-15 -4.34755094E-15
  2.43717518E-15  5.65202047E-12  1.21941433E-13 -1.99579011E-14 -1.96526724E-14
  5.24943960E-12 -3.32596821E-15 -4.51334062E-03 -1.23457888E-15  4.01346423E-15
 -2.13480464E-06  1.14933283E-13 -9.41613365E-14 -4.89489514E-14  1.97219153E-11
  3.23133778E-02  5.38385077E-02 -3.40338269E-02  1.25372410E-14 -4.66893251E-16
 -1.20923919E-01 -1.10634539E-01  9.69559074E-15  8.84379961E-16 -9.48580474E-01
  7.07875203E-02  8.16631402E-14  6.64860083E-16  1.77187947E-03  1.11411953E-15
  8.68652710E-16 -3.06898527E-03  2.61686941E-15  2.54875775E+00 -1.87218904E-01
 -2.65084274E-13  1.14552551E-14  3.23133778E-02  5.38385077E-02  3.40338269E-02
 -6.92150916E-15 -1.69396408E-15 -1.20923919E-01  1.10634539E-01 -1.08180729E-15
  1.66045234E-15 -9.48580474E-01 -7.07875202E-02 -5.93669829E-14 -1.38793140E-14
  1.77187947E-03 -2.72642797E-16  2.16024522E-16 -3.06898527E-03  8.44630420E-16
  2.54875775E+00  1.87218903E-01  1.37086871E-13  4.86000942E-14 -2.73831322E-02
 -5.14970238E-02 -8.97609039E-12 -9.28231086E-17  6.50901105E-16  9.74284127E-02
  3.09410725E-12 -5.98419440E-16 -5.07314647E-15  1.72958198E-01 -4.25994071E-10
  1.87336983E-14 -2.50033229E-15  1.45631831E-02  1.47532504E-15  7.52992899E-16
 -2.52241731E-02  1.65629820E-15 -2.92381386E+00  3.33099670E-10  6.43049211E-14
 -4.31788377E-14  1.56428410E-03  4.83255340E-03 -1.10163809E-02  5.83419663E-16