10
Properties=species:S:1:pos:R:3:Z:I:1 energy=-40.213432119065864 field_type=dipole dipole="0.000000 0.000000 0.000000" charge=0
C	0.998260	-0.002460	-0.004360	6
H	2.090210	-0.002430	0.004140	1
H	0.633790	1.026860	0.004140	1
H	0.627040	-0.527730	0.878110	1
H	0.641360	-0.507470	-0.905400	1
Es	0.998261	-0.002460	-0.004361	99
Es	0.756711	-0.344346	-0.614318	99
Es	0.746920	-0.358019	0.593140	99
Es	0.751511	0.694410	0.001406	99
Es	1.737563	-0.002372	0.001511	99
