14
Properties=species:S:1:pos:R:3:Z:I:1 energy=-78.0642787162377 field_type=dipole dipole="0.000000 0.000000 0.000000" charge=0
C	0.989160	0.000100	0.000000	6
C	2.324920	-0.000170	-0.000000	6
H	0.429410	0.930140	0.000000	1
H	0.429070	-0.929850	0.000000	1
H	2.885000	0.929800	-0.000000	1
H	2.884670	-0.930200	0.000000	1
Es	1.657042	-0.000009	0.322866	99
Es	0.989054	0.000100	0.000001	99
Es	2.325030	-0.000170	0.000007	99
Es	0.602497	-0.625587	0.000015	99
Es	2.711546	0.625538	0.000018	99
Es	2.711353	-0.625954	0.000021	99
Es	1.657041	-0.000031	-0.322911	99
Es	0.602752	0.625849	-0.000016	99
