21
Properties=species:S:1:pos:R:3:Z:I:1 energy=-117.11286671681707 field_type=dipole dipole="0.000000 0.000000 0.000000" charge=0
C	0.975120	-0.010440	0.007820	6
C	2.467370	0.026250	0.010910	6
C	3.175720	1.162210	-0.010090	6
H	0.628360	-1.048000	-0.037040	1
H	0.571030	0.514130	-0.863620	1
H	0.572630	0.438070	0.921390	1
H	2.989930	-0.927010	0.030150	1
H	2.691540	2.133860	-0.027710	1
H	4.261420	1.140940	-0.007570	1
Es	0.975161	-0.010445	0.007821	99
Es	2.835836	0.599867	-0.325235	99
Es	3.912715	1.156569	-0.008317	99
Es	0.740037	-0.716805	-0.022605	99
Es	2.467280	0.026154	0.010914	99
Es	0.711844	0.296496	0.622838	99
Es	1.720874	0.005555	0.009202	99
Es	3.175774	1.162301	-0.010096	99
Es	2.834289	0.612810	0.324794	99
Es	0.709932	0.348849	-0.578394	99
Es	2.849474	1.825590	-0.022573	99
Es	2.815722	-0.626419	0.024479	99
