18
Properties=species:S:1:pos:R:3:Z:I:1 energy=-168.5903033827899 field_type=dipole dipole="0.000000 0.000000 0.000000" charge=0
C	0.939530	0.000000	0.000000	6
C	2.140230	0.000000	0.000000	6
C	3.676370	0.000000	0.000000	6
N	4.836330	0.000000	0.000000	7
H	-0.126000	0.000000	0.000000	1
Es	0.255075	0.000034	0.000083	99
Es	1.578226	-0.354906	-0.000312	99
Es	1.578214	0.177605	-0.307160	99
Es	4.835851	0.000001	0.000000	99
Es	2.923599	0.000172	0.000031	99
Es	2.140737	-0.000001	-0.000000	99
Es	4.285193	-0.199093	-0.233838	99
Es	3.675793	0.000001	-0.000001	99
Es	4.285130	0.302344	-0.055597	99
Es	0.939346	0.000006	-0.000009	99
Es	5.198234	0.000162	0.000030	99
Es	1.578220	0.177189	0.307392	99
Es	4.285166	-0.103514	0.289380	99
