28
Properties=species:S:1:pos:R:3:Z:I:1 energy=-156.14701531730978 field_type=dipole dipole="0.000000 0.000000 0.000000" charge=0
C	0.337230	1.022780	-0.130480	6
C	0.996070	-0.330620	0.211200	6
C	-0.329850	-0.996290	-0.211340	6
C	-1.020690	0.340490	0.130550	6
H	0.587670	1.854830	0.531910	1
H	0.483160	1.334570	-1.170720	1
H	1.231930	-0.451040	1.274870	1
H	1.873610	-0.596750	-0.382850	1
H	-0.374140	-1.257300	-1.274790	1
H	-0.640580	-1.858720	0.382910	1
H	-1.838650	0.637070	-0.532210	1
H	-1.358670	0.410020	1.170840	1
Es	-0.758985	-0.369858	-0.045495	99
Es	-0.356085	-1.163133	-0.940663	99
Es	-0.383756	0.765314	-0.000041	99
Es	0.511186	1.600176	0.322714	99
Es	1.604481	-0.515414	-0.194601	99
Es	0.433185	1.224511	-0.844853	99
Es	-0.545062	-1.594434	0.194533	99
Es	0.337212	1.022726	-0.130465	99
Es	-1.588332	0.546101	-0.322766	99
Es	0.375123	-0.747227	-0.000023	99
Es	0.750314	0.388140	0.045318	99
Es	-0.329835	-0.996236	-0.211321	99
Es	0.996018	-0.330603	0.211182	99
Es	1.145625	-0.409197	0.940653	99
Es	-1.020636	0.340472	0.130535	99
Es	-1.240117	0.384132	0.845013	99
