24
Properties=species:S:1:pos:R:3:Z:I:1 energy=-170.95003817801353 field_type=dipole dipole="0.000000 0.000000 0.000000" charge=0
N	1.014680	-0.015170	0.018190	7
C	2.470000	0.000000	0.000000	6
C	2.952020	1.361170	0.000000	6
C	3.349300	2.483070	0.000000	6
H	0.691170	-0.976210	-0.074410	1
H	0.669540	0.485690	-0.799120	1
H	2.826590	-0.532030	-0.888360	1
H	2.844630	-0.539730	0.875600	1
H	3.697870	3.489080	0.006240	1
Es	1.014896	-0.015420	0.017695	99
Es	2.820078	2.039268	0.052040	99
Es	0.836863	-0.601264	-0.055994	99
Es	3.364470	1.855400	0.273403	99
Es	2.720886	0.706629	-0.001401	99
Es	2.951940	1.360912	-0.000006	99
Es	0.822508	0.272860	-0.488964	99
Es	2.726686	-0.345506	-0.605362	99
Es	1.660123	-0.010281	-0.011226	99
Es	3.349384	2.483320	-0.000007	99
Es	2.469899	0.000120	-0.000003	99
Es	3.277844	1.893709	-0.336298	99
Es	2.727872	-0.350073	0.589038	99
Es	0.889461	0.127880	0.311641	99
Es	3.577633	3.140390	0.003136	99
