26
Properties=species:S:1:pos:R:3:Z:I:1 energy=-191.9791308469655 field_type=dipole dipole="0.000000 0.000000 0.000000" charge=0
C	1.004100	-0.004480	-0.058220	6
C	2.480660	-0.142480	0.047430	6
C	3.283140	-0.770870	-1.058960	6
O	3.222880	0.653650	-0.881720	8
H	0.649400	0.782050	0.615320	1
H	0.517640	-0.942500	0.227080	1
H	0.685640	0.249710	-1.074840	1
H	2.838820	-0.215100	1.064520	1
H	2.763530	-1.192500	-1.909890	1
H	4.211810	-1.264790	-0.803040	1
Es	3.488383	0.751561	-0.756075	99
Es	1.739591	-0.075722	-0.012533	99
Es	2.480806	-0.142335	0.047216	99
Es	3.920786	-1.102243	-0.891378	99
Es	3.283119	-0.770564	-1.058911	99
Es	3.222810	0.653370	-0.881627	99
Es	2.918684	0.445539	-0.473506	99
Es	0.796119	0.161735	-0.746659	99
Es	3.311073	0.122318	-1.038127	99
Es	0.769974	0.528381	0.400667	99
Es	2.731127	-0.185042	0.741792	99
Es	2.932169	-1.052469	-1.644334	99
Es	3.021368	0.767894	-1.084804	99
Es	0.681545	-0.642853	0.140743	99
Es	1.004117	-0.004493	-0.058203	99
Es	2.813670	-0.683568	-0.439354	99
