26
Properties=species:S:1:pos:R:3:Z:I:1 energy=-192.0213780471328 field_type=dipole dipole="0.000000 0.000000 0.000000" charge=0
C	0.984690	-0.032190	-0.053830	6
C	2.493930	0.024130	0.074180	6
C	2.969730	1.451610	0.037400	6
O	3.716710	1.935590	0.882450	8
H	0.636930	-1.069200	-0.025510	1
H	0.652260	0.415480	-0.996170	1
H	0.502040	0.515490	0.762210	1
H	2.967430	-0.513260	-0.753430	1
H	2.813600	-0.435390	1.014780	1
H	2.653620	2.042540	-0.839390	1
Es	2.816151	-0.319814	-0.489742	99
Es	3.643717	1.684092	0.443431	99
Es	0.754123	-0.734648	-0.035273	99
Es	3.791206	2.234260	0.822719	99
Es	2.722425	0.739209	0.052918	99
Es	0.765689	0.275715	-0.697446	99
Es	2.493898	0.024182	0.074145	99
Es	2.969721	1.451607	0.037403	99
Es	0.663785	0.342248	0.501620	99
Es	3.716508	1.935475	0.882215	99
Es	2.739533	1.847787	-0.568383	99
Es	0.984744	-0.032180	-0.053832	99
Es	3.240031	1.836807	0.705494	99
Es	2.707754	-0.284272	0.706435	99
Es	3.787065	1.732144	1.109389	99
Es	1.748886	0.008170	0.004655	99
