25
Properties=species:S:1:pos:R:3:Z:I:1 energy=-208.062029355542 field_type=dipole dipole="0.000000 0.000000 0.000000" charge=0
C	1.016550	-0.022010	-0.005930	6
C	2.516470	0.034920	-0.001750	6
N	3.129950	-1.181650	0.002920	7
O	3.159110	1.076420	-0.003960	8
H	0.610920	0.993700	0.007770	1
H	0.662240	-0.555300	0.880490	1
H	0.667270	-0.530300	-0.908820	1
H	2.625250	-2.056070	0.001220	1
H	4.141480	-1.198520	0.004250	1
Es	0.744200	0.652822	0.003127	99
Es	3.723344	-1.204473	-0.001763	99
Es	3.158932	1.076080	-0.003962	99
Es	2.978960	1.329437	-0.005565	99
Es	1.760710	-0.003200	-0.003623	99
Es	3.129920	-1.181621	0.002893	99
Es	0.792389	-0.388593	0.586654	99
Es	0.796232	-0.371440	-0.609434	99
Es	3.470181	1.015671	-0.002474	99
Es	2.516490	0.034743	-0.001748	99
Es	1.016597	-0.022043	-0.005930	99
Es	2.938846	0.730474	0.245709	99
Es	2.939836	0.727267	-0.252164	99
Es	2.976726	-0.903208	0.269774	99
Es	2.947893	-0.845455	-0.254033	99
Es	2.829024	-1.700656	-0.003780	99
