25
Properties=species:S:1:pos:R:3:Z:I:1 energy=-207.9465000258843 field_type=dipole dipole="0.000000 0.000000 0.000000" charge=0
C	0.955340	-0.345970	0.030090	6
O	2.329630	-0.066670	-0.210670	8
N	2.484450	1.322280	-0.331920	7
C	3.728580	1.578840	-0.550120	6
H	0.834030	-1.428190	0.124620	1
H	0.344840	0.005860	-0.807200	1
H	0.629700	0.128380	0.960940	1
H	4.061080	2.620600	-0.675880	1
H	4.501040	0.794230	-0.620130	1
Es	2.493175	-0.136251	0.041915	99
Es	0.534766	-0.105411	-0.540157	99
Es	2.404749	-0.170821	-0.490395	99
Es	0.728972	-0.021730	0.665316	99
Es	1.803059	-0.145309	-0.119989	99
Es	2.329351	-0.066437	-0.210607	99
Es	3.728604	1.578870	-0.550115	99
Es	3.087912	1.460215	-0.143916	99
Es	2.996054	1.420246	-0.715386	99
Es	4.247152	1.056272	-0.597423	99
Es	2.389253	0.546341	-0.262417	99
Es	3.950942	2.275408	-0.634276	99
Es	2.174667	1.535860	-0.297353	99
Es	0.955570	-0.345937	0.030050	99
Es	2.484935	1.321867	-0.331970	99
Es	0.879371	-1.082666	0.093484	99
