27
Properties=species:S:1:pos:R:3:Z:I:1 energy=-228.67020761304423 field_type=dipole dipole="0.000000 0.000000 0.000000" charge=0
C	0.991760	-0.003400	-0.005880	6
C	2.490880	-0.055360	0.001670	6
O	3.128080	-1.101280	0.006470	8
C	3.189940	1.210750	0.000400	6
C	3.777250	2.259680	-0.000540	6
H	0.629670	1.028610	0.007200	1
H	0.610140	-0.518700	0.879620	1
H	0.619910	-0.493720	-0.909480	1
H	4.306780	3.184010	-0.000880	1
Es	2.899769	-0.706688	0.255864	99
Es	0.755405	0.693920	0.002768	99
Es	2.935125	-1.350203	0.006955	99
Es	0.991824	-0.003399	-0.005880	99
Es	2.900820	-0.708286	-0.246452	99
Es	2.846832	0.618392	0.001946	99
Es	3.777369	2.259886	-0.000539	99
Es	2.490919	-0.055228	0.001671	99
Es	0.761762	-0.329891	-0.606124	99
Es	3.649240	1.600380	0.278767	99
Es	3.127958	-1.101093	0.006476	99
Es	3.573609	1.618666	-0.320486	99
Es	3.189815	1.210558	0.000395	99
Es	0.754407	-0.346897	0.582403	99
Es	3.178045	1.931798	0.040745	99
Es	3.434965	-1.059684	0.007047	99
Es	4.119651	2.858773	-0.001109	99
Es	1.744626	-0.009036	-0.001725	99
