33
Properties=species:S:1:pos:R:3:Z:I:1 energy=-231.04854802388436 field_type=dipole dipole="0.000000 0.000000 0.000000" charge=0
C	0.890680	-0.124920	-0.082780	6
C	2.392180	0.059230	0.087060	6
O	3.068830	-0.717760	-0.893590	8
C	2.798340	1.493790	-0.083620	6
C	3.440420	2.211500	0.848380	6
H	0.329720	0.445830	0.664310	1
H	0.624620	-1.183240	0.015630	1
H	0.560870	0.187490	-1.080540	1
H	2.692750	-0.321580	1.069130	1
H	2.900280	-0.313330	-1.760250	1
H	2.549280	1.973960	-1.026930	1
H	3.719530	1.782670	1.806090	1
H	3.710040	3.247100	0.665550	1
Es	3.629242	1.925025	1.499693	99
Es	0.890685	-0.124906	-0.082784	99
Es	3.068683	-0.717411	-0.893647	99
Es	2.798284	1.493740	-0.083694	99
Es	2.805527	-0.403696	-0.541988	99
Es	1.629907	-0.018488	0.001711	99
Es	2.622928	1.804162	-0.734776	99
Es	0.514229	0.266625	0.426156	99
Es	2.831071	1.952415	0.512091	99
Es	3.440462	2.211556	0.848453	99
Es	0.676596	0.096547	-0.767365	99
Es	3.369579	-0.685603	-0.842231	99
Es	3.625820	2.914161	0.731517	99
Es	3.405725	1.760959	0.266497	99
Es	2.598243	-0.194132	0.758495	99
Es	2.928195	-0.989431	-0.896314	99
Es	2.961913	-0.481510	-1.351280	99
Es	2.591416	0.793637	0.003428	99
Es	0.714949	-0.841063	-0.011433	99
Es	2.392253	0.059157	0.086866	99
