33
Properties=species:S:1:pos:R:3:Z:I:1 energy=-231.03939616514924 field_type=dipole dipole="0.000000 0.000000 0.000000" charge=0
C	1.196720	-0.052730	-0.598780	6
O	2.534920	-0.093280	-0.111520	8
C	3.124740	1.141300	-0.106050	6
C	4.448600	1.279310	0.010990	6
C	5.154560	2.593120	0.036840	6
H	0.808930	-1.075490	-0.612980	1
H	1.165700	0.341520	-1.620360	1
H	0.560800	0.546420	0.061840	1
H	2.448460	1.982800	-0.183240	1
H	5.064290	0.387150	0.094630	1
H	4.462740	3.437240	-0.049520	1
H	5.867260	2.649820	-0.791810	1
H	5.707550	2.700870	0.975010	1
Es	2.524383	-0.147503	0.175091	99
Es	1.196936	-0.052730	-0.598700	99
Es	3.833671	1.221534	-0.383922	99
Es	2.031330	-0.041572	-0.299776	99
Es	0.932364	-0.746559	-0.608357	99
Es	3.768837	1.235057	0.282619	99
Es	5.154535	2.593081	0.036839	99
Es	3.124495	1.141076	-0.106071	99
Es	0.762065	0.367056	-0.149785	99
Es	2.731892	0.395354	-0.129175	99
Es	2.654473	1.712157	-0.162208	99
Es	4.791045	1.938439	0.024643	99
Es	5.527325	2.661002	0.672077	99
Es	2.534755	-0.092954	-0.111638	99
Es	5.635308	2.625919	-0.524418	99
Es	1.174088	0.225482	-1.296784	99
Es	4.448689	1.279352	0.011002	99
Es	2.698825	-0.255747	-0.302228	99
Es	4.678094	3.163848	-0.022595	99
Es	4.870219	0.679785	0.067365	99
