32
Properties=species:S:1:pos:R:3:Z:I:1 energy=-194.00353160341317 field_type=dipole dipole="0.000000 0.000000 0.000000" charge=0
C	1.910490	-0.660830	-1.190420	6
C	2.068250	0.296400	-0.267060	6
C	3.236950	1.166540	-0.130810	6
C	3.510150	2.197690	-1.194440	6
C	3.018760	2.629280	0.155980	6
H	1.012070	-1.268680	-1.216120	1
H	2.674320	-0.851690	-1.937340	1
H	1.270420	0.436480	0.461890	1
H	4.095720	0.696850	0.338930	1
H	2.827070	2.282100	-2.032460	1
H	4.544760	2.398440	-1.448090	1
H	3.720750	3.124570	0.817320	1
H	2.005440	3.008930	0.225600	1
Es	1.304213	-1.077863	-1.213432	99
Es	3.018812	2.629161	0.155862	99
Es	2.649726	0.736789	-0.203956	99
Es	3.510104	2.197642	-1.194271	99
Es	4.214568	2.333936	-1.362504	99
Es	3.236922	1.166699	-0.130870	99
Es	2.425053	-0.795896	-1.701274	99
Es	3.068130	1.856976	0.191594	99
Es	3.498243	2.963812	0.604160	99
Es	1.528705	0.399108	0.232296	99
Es	3.421953	1.534572	-0.785226	99
Es	2.128573	-0.403947	-0.538048	99
Es	3.044844	2.250011	-1.757764	99
Es	1.844659	0.028113	-0.935405	99
Es	2.327873	2.877119	0.202237	99
Es	3.270574	2.594382	-0.572440	99
Es	3.813704	0.849382	0.183876	99
Es	1.910479	-0.660907	-1.190498	99
Es	2.068272	0.296482	-0.266981	99
