32
Properties=species:S:1:pos:R:3:Z:I:1 energy=-247.02056951311704 field_type=dipole dipole="0.000000 0.000000 0.000000" charge=0
C	1.002620	0.008060	-0.004780	6
C	2.508470	0.031310	-0.002030	6
C	3.226920	-1.295360	-0.006150	6
N	3.109280	1.183930	0.000760	7
O	4.500100	1.031600	0.000500	8
H	0.598790	1.024210	0.003720	1
H	0.647710	-0.525290	0.881280	1
H	0.651120	-0.509180	-0.901680	1
H	2.507180	-2.118400	0.003290	1
H	3.860850	-1.374240	0.881320	1
H	3.842030	-1.377590	-0.906450	1
H	4.810440	1.956280	0.002880	1
Es	0.775194	-0.356668	0.591845	99
Es	4.499992	1.031875	0.000536	99
Es	0.777652	-0.345921	-0.608596	99
Es	3.109580	1.183400	0.000761	99
Es	2.974357	1.543668	0.001983	99
Es	4.660464	1.528570	0.001944	99
Es	2.730065	-1.849292	0.000154	99
Es	1.002683	0.008039	-0.004780	99
Es	1.760291	0.024848	-0.003037	99
Es	4.566007	0.898774	0.271999	99
Es	2.854091	0.690063	-0.293884	99
Es	3.898316	1.093549	0.000598	99
Es	2.508437	0.031272	-0.002030	99
Es	2.854001	0.688219	0.292894	99
Es	0.729806	0.688773	0.000810	99
Es	3.226871	-1.295302	-0.006150	99
Es	3.643089	-1.341517	0.586946	99
Es	3.630485	-1.343430	-0.607856	99
Es	4.565370	0.901453	-0.271810	99
Es	2.864852	-0.629218	-0.003797	99
