35
Properties=species:S:1:pos:R:3:Z:I:1 energy=-248.2403377781731 field_type=dipole dipole="0.000000 0.000000 0.000000" charge=0
C	0.982210	-0.037110	-0.045850	6
C	2.497640	0.047980	0.078090	6
N	3.160440	-0.659420	-1.033750	7
C	2.980560	1.508500	0.108290	6
O	4.407000	1.533860	0.121700	8
H	0.498140	0.469470	0.795330	1
H	0.646800	-1.079560	-0.045340	1
H	0.628280	0.431670	-0.970310	1
H	2.817860	-0.443590	1.005840	1
H	2.826420	-0.281230	-1.921940	1
H	2.865780	-1.637050	-1.026760	1
H	2.618050	2.025450	1.001860	1
H	2.641160	2.060350	-0.774750	1
H	4.668500	0.756070	-0.414900	1
Es	1.725038	0.010000	0.013919	99
Es	2.937308	-0.429165	-1.562929	99
Es	2.854095	-0.358879	-0.570544	99
Es	2.497669	0.047929	0.077946	99
Es	0.982211	-0.037107	-0.045848	99
Es	2.980765	1.508460	0.108291	99
Es	0.655360	0.310140	0.528210	99
Es	3.860235	1.510844	0.105107	99
Es	2.723060	1.856542	0.720173	99
Es	4.531642	1.128813	-0.166925	99
Es	2.712178	-0.288785	0.711855	99
Es	2.727715	0.776046	0.086307	99
Es	0.749426	0.283753	-0.680664	99
Es	4.486830	1.468319	0.409692	99
Es	3.159904	-0.659443	-1.033780	99
Es	4.406788	1.533589	0.121543	99
Es	4.494960	1.790702	-0.021943	99
Es	2.730108	1.878587	-0.507248	99
Es	2.965927	-1.242942	-1.025808	99
Es	3.524139	-0.625602	-1.012483	99
Es	0.760036	-0.750707	-0.047271	99
