32
Properties=species:S:1:pos:R:3:Z:I:1 energy=-247.09417450160083 field_type=dipole dipole="0.000000 0.000000 0.000000" charge=0
C	0.948780	-0.213430	0.086590	6
C	2.439270	0.063060	0.006250	6
N	2.728390	1.474550	0.136010	7
C	2.685710	2.326180	-0.937400	6
O	2.440230	2.012010	-2.092120	8
H	0.755150	-1.287410	0.006680	1
H	0.408250	0.293190	-0.719640	1
H	0.536700	0.140490	1.037440	1
H	2.836860	-0.300260	-0.947410	1
H	2.963660	-0.452460	0.816880	1
H	2.883270	1.861900	1.057470	1
H	2.903570	3.366120	-0.642630	1
Es	2.595492	0.885573	0.084750	99
Es	2.807053	1.704133	0.687228	99
Es	2.836323	3.037564	-0.722772	99
Es	2.440292	2.012084	-2.091815	99
Es	0.948808	-0.213436	0.086602	99
Es	2.384479	1.707677	-2.116169	99
Es	2.995935	1.618003	-0.117839	99
Es	0.588122	0.129906	-0.456573	99
Es	2.685719	2.326092	-0.937247	99
Es	2.486673	1.791730	-0.182112	99
Es	1.691045	-0.070407	0.047547	99
Es	2.765420	2.074366	-1.742349	99
Es	2.451807	2.255618	-2.276893	99
Es	2.728217	1.474626	0.135956	99
Es	2.439274	0.063258	0.006295	99
Es	0.674780	0.029350	0.740828	99
Es	0.823520	-0.946783	0.033787	99
Es	2.708941	-0.179163	-0.632076	99
Es	2.279785	2.156520	-1.664252	99
Es	2.795215	-0.284478	0.566575	99
