32
Properties=species:S:1:pos:R:3:Z:I:1 energy=-247.0548396691961 field_type=dipole dipole="0.000000 0.000000 0.000000" charge=0
C	0.972190	-0.071640	-0.035400	6
N	2.427350	-0.000550	-0.096430	7
C	2.878350	1.392400	0.011270	6
C	4.391340	1.415910	-0.009830	6
O	5.049030	2.018340	-0.854500	8
H	0.655070	-1.115590	-0.119660	1
H	0.508360	0.488740	-0.853620	1
H	0.597410	0.310930	0.919320	1
H	2.733960	-0.374910	-0.997260	1
H	2.556600	1.840620	0.957210	1
H	2.502840	1.996920	-0.821280	1
H	4.887900	0.868510	0.810010	1
Es	5.048861	2.018199	-0.854283	99
Es	2.668842	1.690541	0.653147	99
Es	5.357927	1.994382	-0.808689	99
Es	0.722922	0.197452	0.614437	99
Es	1.794977	-0.008959	-0.087778	99
Es	2.575156	-0.188178	0.166696	99
Es	3.634461	1.401141	0.000241	99
Es	4.811367	1.588108	-0.691180	99
Es	4.869025	2.161791	-1.066427	99
Es	4.802099	2.004129	-0.402662	99
Es	0.652474	0.320585	-0.598533	99
Es	0.757321	-0.781835	-0.097552	99
Es	4.391326	1.415920	-0.009846	99
Es	0.972330	-0.071630	-0.035407	99
Es	2.427116	-0.000181	-0.096864	99
Es	4.719123	1.037787	0.553943	99
Es	2.620446	1.807541	-0.553990	99
Es	2.878370	1.392258	0.011290	99
Es	2.616201	0.622933	-0.066483	99
Es	2.601636	-0.204962	-0.651862	99
