32
Properties=species:S:1:pos:R:3:Z:I:1 energy=-194.02008611238855 field_type=dipole dipole="0.000000 0.000000 0.000000" charge=0
C	1.621260	-0.960640	0.746000	6
C	2.395390	-0.298860	-0.124950	6
C	3.305040	0.837010	0.241310	6
C	4.736560	0.503400	-0.063650	6
C	5.500920	1.173030	-0.935910	6
H	0.981210	-1.772120	0.413480	1
H	1.608470	-0.711860	1.802500	1
H	2.368710	-0.583520	-1.175040	1
H	3.222920	1.076750	1.307960	1
H	2.986040	1.730270	-0.308490	1
H	5.167230	-0.337260	0.477780	1
H	5.119210	2.020440	-1.497250	1
H	6.532870	0.881580	-1.107480	1
Es	5.245027	1.749444	-1.319434	99
Es	1.621201	-0.960692	0.746068	99
Es	2.858596	0.264585	0.061075	99
Es	3.305058	0.836960	0.241286	99
Es	2.384915	-0.484651	-0.839449	99
Es	6.201992	0.981333	-1.057552	99
Es	5.220676	1.046723	-0.271821	99
Es	5.028236	0.643311	-0.748814	99
Es	5.500981	1.173084	-0.935981	99
Es	4.736462	0.503351	-0.063573	99
Es	4.015905	0.665724	0.081832	99
Es	2.244691	-0.849676	0.373642	99
Es	3.253136	0.990676	0.964037	99
Es	1.760490	-0.423485	0.268506	99
Es	1.609964	-0.794629	1.465005	99
Es	3.090302	1.435608	-0.138182	99
Es	5.019173	-0.068831	0.308285	99
Es	1.184172	-1.512268	0.527906	99
Es	2.395474	-0.298782	-0.125010	99
