32
Properties=species:S:1:pos:R:3:Z:I:1 energy=-247.02644715694547 field_type=dipole dipole="0.000000 0.000000 0.000000" charge=0
N	1.012010	-0.067590	-0.115940	7
C	2.469370	-0.025880	-0.012810	6
C	3.287900	-0.705650	-1.071390	6
C	3.263690	0.793170	-0.998100	6
O	4.447160	1.430680	-0.492670	8
H	0.596170	0.718810	0.383790	1
H	0.640440	-0.910150	0.321380	1
H	2.850260	-0.068980	1.004780	1
H	2.771250	-1.171280	-1.903460	1
H	4.185500	-1.228280	-0.766680	1
H	2.714270	1.319070	-1.773030	1
H	4.955050	0.854110	0.101950	1
Es	4.626316	1.474760	-0.734607	99
Es	3.287847	-0.705523	-1.071301	99
Es	3.263880	0.793112	-0.997926	99
Es	0.918412	-0.056758	-0.451263	99
Es	2.469308	-0.025909	-0.012976	99
Es	0.777681	0.402019	0.205327	99
Es	4.005386	1.158689	-0.664327	99
Es	2.785581	0.542261	-0.416053	99
Es	2.903524	1.154703	-1.514828	99
Es	4.447041	1.430391	-0.492556	99
Es	3.901945	-1.048779	-0.856547	99
Es	2.744216	-0.054109	0.680963	99
Es	4.692460	1.094162	-0.177628	99
Es	0.805105	-0.573027	0.167328	99
Es	1.646090	-0.051948	-0.047287	99
Es	2.826523	-0.539981	-0.479897	99
Es	4.350082	1.662215	-0.320185	99
Es	2.935674	-1.019252	-1.626610	99
Es	1.012193	-0.067603	-0.115372	99
Es	3.390562	0.034069	-1.184819	99
