32
Properties=species:S:1:pos:R:3:Z:I:1 energy=-247.0233746751115 field_type=dipole dipole="0.000000 0.000000 0.000000" charge=0
N	0.991090	0.008390	0.076700	7
C	2.449680	0.029690	-0.071080	6
C	3.080110	1.019580	0.918290	6
O	3.936810	-0.024690	1.456580	8
C	3.100320	-1.034230	0.823270	6
H	0.544290	-0.783980	-0.383860	1
H	0.529540	0.840360	-0.289800	1
H	2.826560	0.081340	-1.095430	1
H	2.435680	1.435760	1.700440	1
H	3.664780	1.821860	0.458500	1
H	3.701250	-1.778200	0.293240	1
H	2.465860	-1.532650	1.563940	1
Es	4.195363	-0.014535	1.291031	99
Es	0.923946	-0.011437	0.413127	99
Es	3.632069	-0.430817	1.235553	99
Es	2.717791	0.594279	0.375883	99
Es	0.739997	-0.466918	-0.227274	99
Es	3.918077	-0.038932	1.767766	99
Es	3.623919	0.393304	1.273061	99
Es	0.991186	0.008426	0.076106	99
Es	1.611984	0.020552	-0.042059	99
Es	3.936512	-0.024687	1.456386	99
Es	0.731191	0.510836	-0.171046	99
Es	3.511925	-1.550557	0.458249	99
Es	2.449531	0.029684	-0.071030	99
Es	3.100455	-1.034060	0.823336	99
Es	2.711196	0.064952	-0.773310	99
Es	3.480345	1.576048	0.601979	99
Es	2.655797	-1.371986	1.318886	99
Es	3.080254	1.019408	0.918338	99
Es	2.628659	1.301907	1.442095	99
Es	2.729538	-0.568372	0.322031	99
