35
Properties=species:S:1:pos:R:3:Z:I:1 energy=-248.2360432150403 field_type=dipole dipole="0.000000 0.000000 0.000000" charge=0
N	1.168150	-0.176750	0.053200	7
C	2.626830	-0.119310	0.098200	6
C	3.100820	1.328310	-0.028910	6
C	4.620690	1.432010	-0.019470	6
O	5.159330	0.947580	1.203970	8
H	0.870540	-1.148420	0.134630	1
H	0.839450	0.144110	-0.856400	1
H	3.039160	-0.728060	-0.713690	1
H	2.967200	-0.550390	1.045470	1
H	2.692570	1.913490	0.805080	1
H	2.720700	1.768460	-0.958800	1
H	4.933640	2.473390	-0.142210	1
H	5.056490	0.850010	-0.836710	1
H	4.767750	1.473210	1.923920	1
Es	2.869371	0.608198	0.031438	99
Es	4.620737	1.431930	-0.019264	99
Es	2.841741	1.626064	-0.669946	99
Es	5.459316	1.010751	1.202152	99
Es	2.854898	-0.412683	0.742922	99
Es	1.168383	-0.177068	0.052769	99
Es	4.828583	2.156348	-0.109200	99
Es	1.022910	0.019885	0.310160	99
Es	2.923040	-0.535368	-0.468348	99
Es	3.854213	1.377284	-0.027317	99
Es	5.159115	0.947815	1.203940	99
Es	3.100839	1.328294	-0.028920	99
Es	2.626687	-0.119271	0.098178	99
Es	2.831166	1.729985	0.545315	99
Es	0.985267	0.004972	-0.510489	99
Es	5.049652	0.663118	1.239503	99
Es	4.941937	1.146964	0.754397	99
Es	4.935894	1.245303	1.576062	99
Es	1.001174	-0.771256	0.086199	99
Es	1.799010	-0.165182	0.050046	99
Es	4.914589	1.030106	-0.579035	99
