29
Properties=species:S:1:pos:R:3:Z:I:1 energy=-245.9179965746102 field_type=dipole dipole="0.000000 0.000000 0.000000" charge=0
N	1.026520	-0.012380	0.245130	7
C	2.279520	-0.007320	-0.280370	6
O	2.808730	-1.023280	-0.706180	8
C	2.920910	1.326640	-0.282770	6
C	4.157760	1.481660	-0.771530	6
H	0.560140	0.806430	0.605040	1
H	0.540690	-0.899070	0.271710	1
H	2.371730	2.168970	0.116730	1
H	4.716820	0.640920	-1.174860	1
H	4.637600	2.453910	-0.778480	1
Es	1.026550	-0.012365	0.245084	99
Es	2.279372	-0.007253	-0.280287	99
Es	2.542783	-0.638369	-0.790695	99
Es	2.920801	1.326597	-0.282732	99
Es	3.614797	1.328350	-0.221904	99
Es	2.590424	0.671951	-0.275042	99
Es	4.157834	1.481697	-0.771561	99
Es	3.371803	1.444353	-0.800657	99
Es	2.535101	1.891208	-0.007573	99
Es	2.808619	-1.023078	-0.706095	99
Es	2.617323	-1.270342	-0.676420	99
Es	2.728977	-0.728349	-0.340671	99
Es	3.095826	-0.968646	-0.814244	99
Es	1.448608	-0.045136	0.353155	99
Es	0.729371	-0.527260	0.265369	99
Es	4.536016	0.934120	-1.040237	99
Es	1.262299	0.050633	-0.130346	99
Es	0.751875	0.475322	0.456790	99
Es	4.484440	2.137061	-0.777612	99
