29
Properties=species:S:1:pos:R:3:Z:I:1 energy=-192.8105199645563 field_type=dipole dipole="0.000000 0.000000 0.000000" charge=0
C	1.748040	-0.621740	1.054450	6
C	2.475640	-0.092140	0.061500	6
C	3.154920	1.244430	0.123490	6
C	4.604920	1.075330	-0.039270	6
C	5.791590	0.943240	-0.171700	6
H	1.280970	-1.595350	0.941020	1
H	1.607300	-0.105140	1.998810	1
H	2.584690	-0.651780	-0.865570	1
H	2.943340	1.751310	1.071990	1
H	2.759810	1.880580	-0.676440	1
H	6.844240	0.822730	-0.287630	1
Es	5.152667	0.849498	-0.427119	99
Es	2.831350	0.581972	0.096055	99
Es	5.791825	0.943199	-0.171737	99
Es	1.428833	-1.279679	0.983894	99
Es	1.835525	-0.211515	0.446798	99
Es	3.026176	1.577006	0.759224	99
Es	1.747985	-0.621773	1.054522	99
Es	2.372313	-0.500184	0.685087	99
Es	5.251423	1.364504	-0.087734	99
Es	6.478389	0.864634	-0.247610	99
Es	4.604635	1.075359	-0.039242	99
Es	2.475717	-0.092047	0.061427	99
Es	5.221879	0.808406	0.191660	99
Es	1.650360	-0.273134	1.696525	99
Es	2.556297	-0.461183	-0.570369	99
Es	2.904839	1.660039	-0.414039	99
Es	3.904961	1.153796	0.037306	99
Es	3.155037	1.244374	0.123464	99
