29
Properties=species:S:1:pos:R:3:Z:I:1 energy=-245.8617248378991 field_type=dipole dipole="0.000000 0.000000 0.000000" charge=0
O	1.039170	0.005620	0.211180	8
C	2.244490	-0.005770	0.080190	6
C	3.345650	1.062070	0.004600	6
N	4.232960	-0.008760	-0.496280	7
C	3.316020	-1.092680	-0.081410	6
H	3.632390	1.465830	0.978750	1
H	3.154970	1.870410	-0.704010	1
H	4.365760	0.029280	-1.510200	1
H	3.105580	-1.836720	-0.850470	1
H	3.591910	-1.579870	0.858590	1
Es	2.739570	0.601931	0.066231	99
Es	1.452380	0.013912	-0.092732	99
Es	3.494029	-1.408122	0.554525	99
Es	3.530947	1.321453	0.662746	99
Es	4.232379	-0.008747	-0.496540	99
Es	3.216041	1.604868	-0.475373	99
Es	4.544684	-0.019253	-0.339155	99
Es	2.244537	-0.005771	0.080170	99
Es	1.493465	-0.008722	0.415069	99
Es	3.854162	-0.512738	-0.342477	99
Es	3.345707	1.061951	0.004552	99
Es	1.039493	0.005641	0.211150	99
Es	4.271800	0.014819	-1.108153	99
Es	3.868024	0.491029	-0.302592	99
Es	0.926090	-0.278365	0.207660	99
Es	3.173036	-1.591959	-0.602109	99
Es	0.927954	0.289995	0.232871	99
Es	3.316081	-1.092560	-0.081447	99
Es	2.722770	-0.623126	0.017146	99
