29
Properties=species:S:1:pos:R:3:Z:I:1 energy=-245.85678774196595 field_type=dipole dipole="0.000000 0.000000 0.000000" charge=0
O	2.307180	0.021120	-1.156540	8
C	2.247430	0.367150	0.016360	6
N	2.873010	1.461070	0.598050	7
C	4.188750	1.849510	0.175730	6
C	3.006250	2.689460	-0.132540	6
H	1.659130	-0.185710	0.767310	1
H	4.625330	1.246930	-0.610490	1
H	4.838360	2.128900	0.992780	1
H	2.810970	3.568790	0.464350	1
H	2.603730	2.682750	-1.137420	1
Es	2.621776	0.999699	0.303356	99
Es	4.188474	1.849480	0.175790	99
Es	3.733806	2.424902	-0.078301	99
Es	2.084664	0.287785	-0.791566	99
Es	2.142652	-0.232365	-1.217766	99
Es	4.483774	1.448652	-0.352157	99
Es	2.488054	0.001060	-0.686602	99
Es	2.874526	3.286154	0.268311	99
Es	2.247508	0.367258	0.016397	99
Es	2.873174	1.461057	0.597410	99
Es	2.488467	0.216341	-1.321124	99
Es	3.458498	1.473649	0.441874	99
Es	2.807198	1.496674	0.947627	99
Es	1.846993	-0.009180	0.527445	99
Es	4.630739	2.038895	0.726071	99
Es	2.738812	2.687992	-0.806939	99
Es	2.307184	0.021234	-1.156248	99
Es	2.777797	1.958244	0.264088	99
Es	3.006284	2.689215	-0.132403	99
