30
Properties=species:S:1:pos:R:3:Z:I:1 energy=-567.3773093775264 field_type=dipole dipole="0.000000 0.000000 0.000000" charge=0
S	-0.394880	-1.165770	0.004570	16
C	-1.306010	0.284300	-0.023540	6
C	-0.434490	1.352600	-0.040750	6
C	0.911330	0.886670	-0.029330	6
N	1.093940	-0.430280	-0.005260	7
H	-2.386330	0.280050	-0.025920	1
H	-0.736610	2.390560	-0.060080	1
H	1.797720	1.508560	-0.038480	1
Es	-0.394874	-1.165745	0.004577	99
Es	0.246552	1.160840	-0.035632	99
Es	-2.021040	0.272945	-0.024931	99
Es	-0.461103	-1.300130	-0.420592	99
Es	0.956133	0.125433	0.257202	99
Es	-0.783734	0.843690	0.270638	99
Es	-0.781975	0.832866	-0.335406	99
Es	-0.346734	-1.144862	-0.099065	99
Es	-0.416007	-1.281318	0.016273	99
Es	0.452124	-0.717768	-0.001443	99
Es	-0.462971	-1.286329	0.434102	99
Es	1.498543	1.316560	-0.035673	99
Es	-0.912568	-0.416098	-0.010222	99
Es	1.379278	-0.645219	-0.000456	99
Es	-0.497232	-1.103947	0.012862	99
Es	0.911335	0.886609	-0.029330	99
Es	1.093438	-0.430018	-0.005269	99
Es	0.957594	0.115578	-0.288514	99
Es	-0.434484	1.352602	-0.040752	99
Es	-1.305992	0.284128	-0.023531	99
Es	-0.631712	2.049831	-0.053711	99
Es	-0.319646	-1.129286	0.088120	99
