32
Properties=species:S:1:pos:R:3:Z:I:1 energy=-194.01381282099342 field_type=dipole dipole="0.000000 0.000000 0.000000" charge=0
C	1.000100	-0.054430	0.003300	6
C	2.520000	0.000000	0.000000	6
C	3.002020	1.361170	0.000000	6
C	3.399300	2.483070	0.000000	6
C	3.881320	3.844240	0.000000	6
H	0.658010	-1.093690	0.002930	1
H	0.585000	0.441080	-0.880450	1
H	0.588880	0.439250	0.889780	1
H	2.895610	-0.532710	-0.880860	1
H	2.899470	-0.534100	0.878360	1
H	3.087590	4.543290	-0.280880	1
H	4.704760	3.970710	-0.709590	1
H	4.246140	4.133100	0.990470	1
Es	4.428380	3.914539	-0.475991	99
Es	1.000148	-0.054435	0.003299	99
Es	0.724859	0.280305	0.608089	99
Es	2.779702	-0.346003	0.594052	99
Es	3.633195	3.144697	0.000021	99
Es	3.536600	1.804724	0.063965	99
Es	3.001934	1.360924	0.000006	99
Es	4.120913	4.023504	0.664340	99
Es	1.771961	-0.010582	0.001638	99
Es	3.399391	2.483344	0.000001	99
Es	0.772095	-0.766615	0.002993	99
Es	3.881285	3.844142	0.000000	99
Es	2.777122	-0.345092	-0.595759	99
Es	0.722187	0.281632	-0.599601	99
Es	3.082879	1.963729	-0.341812	99
Es	2.520002	0.000104	-0.000000	99
Es	2.977777	2.000233	0.277827	99
Es	2.770142	0.704352	0.000013	99
Es	3.343875	4.298699	-0.188322	99
