35
Properties=species:S:1:pos:R:3:Z:I:1 energy=-195.21197963151565 field_type=dipole dipole="0.000000 0.000000 0.000000" charge=0
C	0.978040	-0.074660	0.021010	6
C	2.498770	-0.056980	0.028330	6
C	3.040780	1.371280	-0.030800	6
C	4.542800	1.385850	-0.014070	6
C	5.299420	1.881030	-1.000700	6
H	0.610710	-1.104730	0.065220	1
H	0.584880	0.387280	-0.890270	1
H	0.575210	0.467050	0.882780	1
H	2.868100	-0.635160	-0.827120	1
H	2.857820	-0.559380	0.935180	1
H	2.679020	1.942370	0.832610	1
H	2.659010	1.874250	-0.927690	1
H	5.029690	0.973160	0.867520	1
H	4.861660	2.308150	-1.897920	1
H	6.383260	1.868440	-0.929560	1
Es	0.712843	0.243607	-0.602678	99
Es	5.299481	1.881066	-1.000780	99
Es	2.799824	1.756203	0.560371	99
Es	0.978059	-0.074661	0.021010	99
Es	2.781197	0.663364	-0.000148	99
Es	2.747295	-0.397026	0.653286	99
Es	5.005453	2.172583	-1.612660	99
Es	4.542720	1.385804	-0.013989	99
Es	3.798379	1.378596	-0.024905	99
Es	2.751770	-0.448664	-0.559422	99
Es	0.705957	0.298094	0.610905	99
Es	1.733464	-0.060480	0.025449	99
Es	4.864402	1.100522	0.590094	99
Es	3.040824	1.371255	-0.030791	99
Es	4.936431	1.344435	-0.663594	99
Es	6.036753	1.875590	-0.960239	99
Es	0.727632	-0.778539	0.051131	99
Es	2.498744	-0.056939	0.028334	99
Es	2.783331	1.712232	-0.647471	99
Es	4.927562	1.932306	-0.377823	99
