34
Properties=species:S:1:pos:R:3:Z:I:1 energy=-211.19439653004807 field_type=dipole dipole="0.000000 0.000000 0.000000" charge=0
C	1.033390	0.014830	-0.068870	6
C	2.523100	0.007860	-0.012540	6
C	3.312180	-0.706340	-1.076780	6
C	3.324340	0.795170	-1.013540	6
N	4.537870	1.481530	-0.585630	7
H	0.635690	0.788270	0.596060	1
H	0.639180	-0.952180	0.259580	1
H	0.658500	0.210120	-1.079270	1
H	2.882260	-0.067830	1.007040	1
H	2.779630	-1.169450	-1.899690	1
H	4.202990	-1.246070	-0.776050	1
H	2.779740	1.309040	-1.803620	1
H	5.008150	0.976790	0.164450	1
H	4.314860	2.401350	-0.206770	1
Es	3.324440	0.795082	-1.013428	99
Es	0.764490	-0.644874	0.155799	99
Es	4.381549	2.025689	-0.341736	99
Es	4.001176	1.178689	-0.741466	99
Es	4.757744	1.519908	-0.854088	99
Es	1.033401	0.014833	-0.068872	99
Es	3.919412	-1.065323	-0.867909	99
Es	4.537480	1.481465	-0.585161	99
Es	3.436271	0.037518	-1.193271	99
Es	0.784385	0.147715	-0.762111	99
Es	1.776981	0.009395	-0.055940	99
Es	2.523163	0.007815	-0.012675	99
Es	2.782501	-0.038174	0.679474	99
Es	4.796063	1.169451	-0.121021	99
Es	3.312130	-0.706197	-1.076706	99
Es	0.764159	0.544286	0.384935	99
Es	2.948514	1.148148	-1.543752	99
Es	2.850354	0.562465	-0.419930	99
Es	2.943514	-1.018477	-1.632247	99
Es	2.862123	-0.520404	-0.485937	99
