34
Properties=species:S:1:pos:R:3:Z:I:1 energy=-211.1932951942158 field_type=dipole dipole="0.000000 0.000000 0.000000" charge=0
C	0.999620	-0.035260	0.045210	6
C	2.510220	0.054650	0.013910	6
C	3.170630	1.098270	0.941950	6
C	4.195470	-0.013480	1.223500	6
N	3.155900	-0.995720	0.843360	7
H	0.649460	-0.903200	-0.524030	1
H	0.554780	0.858150	-0.405400	1
H	0.612460	-0.121520	1.066960	1
H	2.900750	0.089140	-1.012400	1
H	2.574090	1.384430	1.816000	1
H	3.558310	1.997320	0.457890	1
H	5.062420	-0.005980	0.550440	1
H	4.544390	-0.087400	2.256200	1
H	3.498320	-1.801480	0.323590	1
Es	4.790100	-0.005111	0.751485	99
Es	2.510269	0.054566	0.014007	99
Es	0.999619	-0.035252	0.045185	99
Es	2.782452	0.081014	-0.694808	99
Es	3.170652	1.098222	0.941929	99
Es	0.765633	-0.629152	-0.345519	99
Es	3.375418	-1.476539	0.512135	99
Es	0.700762	0.578055	-0.266382	99
Es	2.865673	-0.591964	0.434904	99
Es	3.659842	-0.624459	1.010444	99
Es	0.743235	-0.089932	0.739848	99
Es	2.760882	1.283563	1.535176	99
Es	1.742322	0.012120	0.021918	99
Es	3.435664	1.719023	0.609758	99
Es	4.444012	-0.067167	1.933978	99
Es	2.947593	-1.076653	1.121209	99
Es	2.786751	0.650493	0.445803	99
Es	3.741072	0.609638	1.124016	99
Es	4.195353	-0.013554	1.223446	99
Es	3.156252	-0.995549	0.842930	99
