34
Properties=species:S:1:pos:R:3:Z:I:1 energy=-211.1948263715258 field_type=dipole dipole="0.000000 0.000000 0.000000" charge=0
C	0.846250	-0.009770	-0.234000	6
C	2.323250	-0.029410	0.050410	6
C	2.691400	-0.007000	1.508360	6
C	3.227490	-0.769330	-0.911580	6
N	3.189120	0.689290	-0.892110	7
H	0.631830	-0.003600	-1.308490	1
H	0.384490	0.880880	0.204990	1
H	0.365830	-0.893740	0.198050	1
H	3.775930	-0.029350	1.661980	1
H	2.264430	-0.875790	2.020090	1
H	2.302950	0.898390	1.986310	1
H	2.790030	-1.240450	-1.783640	1
H	4.132700	-1.236250	-0.542620	1
H	4.011540	1.071870	-0.422550	1
Es	0.707023	-0.009335	-0.961528	99
Es	3.189327	0.688926	-0.891644	99
Es	2.425291	0.610157	1.828698	99
Es	3.042644	0.866516	-1.169446	99
Es	0.525825	-0.613169	0.066273	99
Es	2.781211	0.508540	-0.420854	99
Es	2.323402	-0.029338	0.050263	99
Es	2.691398	-0.007000	1.508345	99
Es	1.585142	-0.014324	-0.097654	99
Es	0.536280	0.596015	0.069929	99
Es	3.845852	-1.088861	-0.654928	99
Es	3.433596	-0.020868	1.603173	99
Es	3.313500	0.055812	-0.987698	99
Es	0.846269	-0.009777	-0.233983	99
Es	2.930836	-1.092397	-1.506270	99
Es	2.517676	-0.015045	0.781370	99
Es	3.227472	-0.769088	-0.911543	99
Es	3.685601	0.901092	-0.593247	99
Es	2.398126	-0.596621	1.852328	99
Es	2.708777	-0.607479	-0.357830	99
