34
Properties=species:S:1:pos:R:3:Z:I:1 energy=-211.1826263508994 field_type=dipole dipole="0.000000 0.000000 0.000000" charge=0
C	1.019210	0.002450	-0.067230	6
C	2.507050	0.050280	-0.021200	6
C	3.319010	-0.707230	-1.045990	6
N	3.226710	0.749730	-1.079250	7
C	4.446060	1.410620	-0.622960	6
H	0.596610	0.783510	0.573050	1
H	0.662210	-0.965430	0.299630	1
H	0.628330	0.146780	-1.080310	1
H	2.883160	0.094550	0.994470	1
H	2.797680	-1.226470	-1.842260	1
H	4.250730	-1.160420	-0.736440	1
H	4.235350	2.467230	-0.429860	1
H	5.209650	1.363420	-1.406020	1
H	4.876170	0.983980	0.292280	1
Es	2.775608	0.088258	0.670038	99
Es	2.883755	0.577934	-0.548859	99
Es	0.783113	-0.656779	0.186851	99
Es	2.965333	-1.063686	-1.587253	99
Es	4.445954	1.410557	-0.622994	99
Es	1.019226	0.002447	-0.067215	99
Es	3.763146	1.009682	-0.854681	99
Es	4.967474	1.374018	-1.156669	99
Es	0.760165	0.095816	-0.754111	99
Es	2.861476	-0.528210	-0.447807	99
Es	1.761740	0.032010	-0.056372	99
Es	4.301791	2.129994	-0.485540	99
Es	4.736222	1.105489	0.008912	99
Es	3.959886	-1.009456	-0.835996	99
Es	2.507166	0.050322	-0.021401	99
Es	3.037394	0.900418	-1.338901	99
Es	3.227010	0.749397	-1.078773	99
Es	3.369594	0.110368	-1.165545	99
Es	0.735073	0.535251	0.370731	99
Es	3.318971	-0.706994	-1.045946	99
