34
Properties=species:S:1:pos:R:3:Z:I:1 energy=-211.2094931159858 field_type=dipole dipole="0.000000 0.000000 0.000000" charge=0
C	1.034590	0.017920	0.161910	6
C	2.527520	-0.122620	0.052400	6
C	3.109600	-1.333400	-0.000910	6
C	3.330540	1.147660	-0.035810	6
N	3.278620	1.896910	1.210440	7
H	0.757750	0.500070	1.104530	1
H	0.527330	-0.952280	0.126450	1
H	0.648470	0.621620	-0.665940	1
H	2.527700	-2.248080	0.054470	1
H	4.186970	-1.440610	-0.082530	1
H	2.954730	1.766750	-0.858510	1
H	4.379680	0.926990	-0.264090	1
H	2.333140	2.243960	1.355060	1
H	3.870290	2.720800	1.125300	1
Es	1.778730	-0.047609	0.110531	99
Es	3.278440	1.897259	1.209963	99
Es	3.380231	1.700937	1.483115	99
Es	3.286370	1.585919	0.656185	99
Es	3.109643	-1.333491	-0.000915	99
Es	3.061568	1.565837	-0.608407	99
Es	2.527440	-0.122489	0.052403	99
Es	4.047766	0.994527	-0.190294	99
Es	0.782780	0.431945	-0.399339	99
Es	2.800921	-0.746024	-0.308343	99
Es	2.715913	-1.959062	0.035347	99
Es	3.843039	-1.411106	-0.058756	99
Es	0.857442	0.350416	0.797548	99
Es	2.704095	2.114047	1.276878	99
Es	1.034624	0.017930	0.161910	99
Es	0.695667	-0.641335	0.138815	99
Es	2.921782	0.511474	0.012778	99
Es	3.625968	2.400807	1.136810	99
Es	2.856497	-0.746394	0.346446	99
Es	3.330499	1.147707	-0.035684	99
