28
Properties=species:S:1:pos:R:3:Z:I:1 energy=-208.87481229097347 field_type=dipole dipole="0.000000 0.000000 0.000000" charge=0
C	0.986040	0.014820	-0.006540	6
C	2.485870	-0.000070	-0.003150	6
C	3.167600	-1.158180	0.005160	6
C	3.190710	1.242490	-0.006230	6
N	3.760850	2.252600	-0.008030	7
H	0.593040	1.037080	0.021920	1
H	0.592040	-0.513860	0.868020	1
H	0.598060	-0.463660	-0.912110	1
H	2.654580	-2.115340	0.007890	1
H	4.254640	-1.181890	0.008420	1
Es	3.943551	2.576146	-0.008557	99
Es	2.834936	-0.531637	0.321738	99
Es	3.501105	1.785095	-0.006393	99
Es	0.986126	0.014819	-0.006540	99
Es	2.850572	0.656737	-0.005250	99
Es	3.190533	1.242177	-0.006229	99
Es	3.760628	2.252208	-0.008030	99
Es	3.167630	-1.158230	0.005166	99
Es	2.485872	0.000148	-0.003149	99
Es	3.765470	1.633458	0.082294	99
Es	0.729786	0.703872	0.012559	99
Es	2.836513	-0.535216	-0.319994	99
Es	3.228344	1.936506	-0.097550	99
Es	2.820470	-1.800902	0.007240	99
Es	3.894181	-1.178567	0.007239	99
Es	0.735222	-0.346222	0.579988	99
Es	1.757038	0.030279	-0.004796	99
Es	0.739385	-0.311890	-0.613999	99
