35
Properties=species:S:1:pos:R:3:Z:I:1 energy=-195.20121477280418 field_type=dipole dipole="0.000000 0.000000 0.000000" charge=0
C	0.873640	0.029970	-0.250170	6
C	2.348710	-0.000090	0.048230	6
C	2.687060	-0.028010	1.514510	6
C	3.250330	-0.753720	-0.903520	6
C	3.276670	0.749530	-0.880970	6
H	0.673020	0.051500	-1.327110	1
H	0.413060	0.918590	0.194390	1
H	0.382770	-0.856730	0.164640	1
H	3.768790	-0.050190	1.685410	1
H	2.254380	-0.915220	1.988340	1
H	2.286650	0.859910	2.014590	1
H	2.807880	-1.239840	-1.766420	1
H	4.108140	-1.281540	-0.501210	1
H	4.152220	1.234630	-0.463480	1
H	2.852050	1.276530	-1.728560	1
Es	2.736691	-0.553305	-0.368848	99
Es	3.276624	0.749374	-0.880927	99
Es	2.982323	1.105290	-1.457158	99
Es	2.687063	-0.028010	1.514494	99
Es	2.756095	0.551417	-0.352378	99
Es	2.348816	-0.000090	0.048120	99
Es	3.426484	-0.043050	1.624709	99
Es	1.611870	0.015107	-0.110588	99
Es	0.541273	-0.575633	0.035612	99
Es	3.833601	-1.110078	-0.624380	99
Es	3.871969	1.076641	-0.591555	99
Es	0.561962	0.636684	0.055929	99
Es	2.943937	-1.081491	-1.489972	99
Es	0.743308	0.044562	-0.986522	99
Es	2.411023	0.578412	1.853214	99
Es	3.392982	-0.002412	-1.025331	99
Es	2.527579	-0.014269	0.780242	99
Es	0.873654	0.029970	-0.250168	99
Es	3.250289	-0.753563	-0.903473	99
Es	2.388996	-0.633731	1.835389	99
