37
Properties=species:S:1:pos:R:3:Z:I:1 energy=-212.40002692548347 field_type=dipole dipole="0.000000 0.000000 0.000000" charge=0
C	1.009800	-0.022160	0.018290	6
C	2.538770	-0.006200	-0.039880	6
C	3.020240	-0.799120	-1.258020	6
C	3.046710	1.445580	-0.055620	6
N	4.502680	1.516570	-0.006390	7
H	0.648970	0.506330	0.906690	1
H	0.633210	-1.049200	0.065670	1
H	0.573400	0.458720	-0.863500	1
H	2.914500	-0.504680	0.863750	1
H	2.693880	-0.328100	-2.191310	1
H	2.621760	-1.819010	-1.237580	1
H	4.111860	-0.874690	-1.278730	1
H	2.640660	1.989650	0.805000	1
H	2.697240	1.958350	-0.959010	1
H	4.838770	1.069580	0.845530	1
H	4.792330	2.491610	0.048180	1
Es	1.009813	-0.022157	0.018291	99
Es	3.873306	1.495220	-0.006944	99
Es	2.538746	-0.006182	-0.039907	99
Es	2.801758	-0.344401	0.585463	99
Es	4.502433	1.516848	-0.005878	99
Es	1.765669	-0.009420	-0.012127	99
Es	4.689327	1.257312	0.524257	99
Es	2.741431	-1.496013	-1.239423	99
Es	2.753952	1.819559	0.543540	99
Es	0.764700	0.341596	0.626633	99
Es	3.020219	-0.799113	-1.258002	99
Es	2.782447	-0.399223	-0.655405	99
Es	3.046855	1.445566	-0.055612	99
Es	4.663211	2.111235	0.044095	99
Es	0.716675	0.308303	-0.586636	99
Es	4.650831	1.362956	-0.286079	99
Es	0.755414	-0.724604	0.049594	99
Es	2.805499	1.795738	-0.677827	99
Es	2.799083	0.721461	-0.051372	99
Es	3.758074	-0.852905	-1.270702	99
Es	2.791436	-0.472613	-1.892974	99
