37
Properties=species:S:1:pos:R:3:Z:I:1 energy=-212.39119366944206 field_type=dipole dipole="0.000000 0.000000 0.000000" charge=0
C	1.165880	-0.494200	-0.083660	6
C	2.677720	-0.334630	-0.144020	6
C	3.091950	1.122660	0.059710	6
N	4.550080	1.232490	0.002710	7
C	4.978240	2.613880	0.177750	6
H	0.889090	-1.543320	-0.230300	1
H	0.676860	0.098300	-0.864030	1
H	0.775690	-0.172660	0.887620	1
H	3.034680	-0.696590	-1.116120	1
H	3.134220	-0.967460	0.625480	1
H	2.729000	1.471040	1.034080	1
H	2.633390	1.746670	-0.716860	1
H	4.882980	0.888140	-0.897640	1
H	4.664600	3.005340	1.150810	1
H	4.583450	3.260030	-0.613040	1
H	6.070830	2.664180	0.139530	1
Es	1.914936	-0.410108	-0.115277	99
Es	2.845105	1.365131	0.728851	99
Es	0.902396	-0.271509	0.581181	99
Es	2.925714	-0.576495	-0.816071	99
Es	2.768127	1.557266	-0.480848	99
Es	3.092082	1.122644	0.059700	99
Es	4.689471	1.033077	0.258500	99
Es	4.755969	2.879521	0.840776	99
Es	0.976992	-1.210417	-0.183975	99
Es	4.735646	1.043899	-0.558192	99
Es	4.721112	1.847485	0.057319	99
Es	4.978206	2.613769	0.177733	99
Es	5.725217	2.650451	0.146775	99
Es	2.677676	-0.334603	-0.144032	99
Es	1.165899	-0.494197	-0.083662	99
Es	2.987621	-0.764282	0.383091	99
Es	2.882784	0.395028	-0.044820	99
Es	4.700440	3.065097	-0.368504	99
Es	4.549829	1.232860	0.002261	99
Es	3.914064	1.207886	0.004794	99
Es	0.833735	-0.086385	-0.617889	99
