34
Properties=species:S:1:pos:R:3:Z:I:1 energy=-211.1889019746873 field_type=dipole dipole="0.000000 0.000000 0.000000" charge=0
N	1.045650	0.008570	0.081520	7
C	2.493140	0.029730	-0.070100	6
C	3.093170	1.061510	0.910290	6
C	4.157060	-0.007810	1.246840	6
C	3.114860	-1.067520	0.820340	6
H	0.599060	-0.784760	-0.376800	1
H	0.584410	0.840320	-0.284980	1
H	2.871560	0.077750	-1.095680	1
H	2.466840	1.329850	1.770200	1
H	3.478890	1.978040	0.455550	1
H	5.040970	0.028340	0.599370	1
H	4.478830	-0.048510	2.290310	1
H	3.519730	-1.934490	0.291180	1
H	2.495560	-1.420010	1.654590	1
Es	4.157001	-0.007809	1.246812	99
Es	2.761838	0.062600	-0.773363	99
Es	2.662098	1.230634	1.489282	99
Es	4.755107	0.017431	0.794266	99
Es	3.392030	-1.670048	0.454827	99
Es	2.761768	-0.587009	0.327403	99
Es	3.691684	-0.607409	1.069520	99
Es	0.782407	0.512441	-0.167198	99
Es	3.093209	1.061460	0.910267	99
Es	3.356926	1.698111	0.596528	99
Es	0.977667	-0.010682	0.418182	99
Es	2.688379	-1.293409	1.382844	99
Es	4.383799	-0.035755	1.964841	99
Es	0.791001	-0.468995	-0.222366	99
Es	1.045723	0.008603	0.080945	99
Es	3.114898	-1.067467	0.820324	99
Es	2.749261	0.616468	0.378517	99
Es	2.493007	0.029727	-0.070046	99
Es	3.679251	0.594623	1.120279	99
Es	1.657322	0.020598	-0.041991	99
