38
Properties=species:S:1:pos:R:3:Z:I:1 energy=-196.40308517955933 field_type=dipole dipole="0.000000 0.000000 0.000000" charge=0
C	0.997820	-0.067240	0.013060	6
C	2.517800	-0.031700	0.024550	6
C	3.043930	1.402840	-0.012450	6
C	4.571780	1.435180	-0.013020	6
C	5.100470	2.860170	-0.046890	6
H	0.642690	-1.102420	0.042190	1
H	0.600900	0.402330	-0.892790	1
H	0.586070	0.457610	0.881120	1
H	2.896460	-0.589770	-0.839520	1
H	2.882670	-0.538910	0.924290	1
H	2.665050	1.955870	0.855820	1
H	2.666150	1.910760	-0.908250	1
H	4.955710	0.888230	-0.882840	1
H	4.955940	0.930010	0.882240	1
H	4.758050	3.383580	-0.945010	1
H	6.194350	2.858720	-0.050500	1
H	4.763940	3.423610	0.828970	1
Es	4.836937	2.154902	-0.030038	99
Es	0.754120	-0.775490	0.032946	99
Es	2.517767	-0.031676	0.024549	99
Es	4.863343	3.216120	-0.662055	99
Es	2.779715	0.685434	0.005977	99
Es	2.785141	1.750396	-0.630794	99
Es	4.571771	1.435216	-0.013020	99
Es	0.997834	-0.067242	0.013061	99
Es	4.867351	3.243701	0.553102	99
Es	2.784318	1.781779	0.586988	99
Es	4.832723	1.088069	0.604416	99
Es	2.779060	-0.412505	-0.571552	99
Es	4.832536	1.059357	-0.613037	99
Es	1.750645	-0.047911	0.018971	99
Es	0.729298	0.256221	-0.607450	99
Es	3.043949	1.402814	-0.012450	99
Es	3.808406	1.420341	-0.012645	99
Es	5.100467	2.860156	-0.046890	99
Es	0.719144	0.293821	0.607666	99
Es	5.849209	2.859853	-0.049382	99
Es	2.769640	-0.377483	0.644959	99
