27
Properties=species:S:1:pos:R:3:Z:I:1 energy=-224.84795128380637 field_type=dipole dipole="0.000000 0.000000 0.000000" charge=0
N	0.958890	-0.049820	-0.116520	7
C	2.119210	-0.014680	-0.083660	6
C	3.555060	-0.000290	-0.010630	6
C	4.340470	-0.770320	-1.043620	6
N	4.347690	0.685800	-1.041550	7
H	3.963510	0.044810	0.993150	1
H	3.812960	-1.237870	-1.867240	1
H	5.254390	-1.264610	-0.738860	1
H	5.213700	1.052430	-0.643350	1
Es	3.812888	0.029161	0.660724	99
Es	4.347906	0.685415	-1.041073	99
Es	1.507634	-0.067512	-0.408991	99
Es	2.119568	-0.014672	-0.083651	99
Es	4.956352	-1.103587	-0.829014	99
Es	3.836669	-0.560597	-0.418911	99
Es	0.592813	-0.062849	-0.127640	99
Es	3.983275	-1.084420	-1.592008	99
Es	3.941885	0.499274	-0.514942	99
Es	0.959345	-0.049807	-0.116507	99
Es	4.178611	0.859267	-1.295074	99
Es	4.861814	0.884212	-0.782289	99
Es	2.800711	0.010920	-0.057367	99
Es	1.499194	-0.284695	0.081356	99
Es	3.555045	-0.000212	-0.010867	99
Es	4.446657	0.052209	-1.140887	99
Es	4.340417	-0.770070	-1.043521	99
Es	1.470027	0.246601	0.024175	99
