33
Properties=species:S:1:pos:R:3:Z:I:1 energy=-231.03436541262556 field_type=dipole dipole="0.000000 0.000000 0.000000" charge=0
C	0.835490	-0.017060	-0.230180	6
C	2.288920	-0.127230	0.101900	6
C	2.665220	-0.058290	1.545840	6
C	3.233630	-0.771730	-0.887050	6
O	3.136250	0.654330	-0.753850	8
H	0.661870	-0.009890	-1.311650	1
H	0.415280	0.905660	0.182750	1
H	0.285640	-0.864160	0.192890	1
H	3.750910	-0.086820	1.687820	1
H	2.232500	-0.903990	2.090880	1
H	2.292590	0.867430	1.997110	1
H	2.828870	-1.217410	-1.787200	1
H	4.134480	-1.247000	-0.519820	1
Es	1.558734	-0.076118	-0.065548	99
Es	2.960815	-1.070951	-1.506107	99
Es	2.969132	0.766898	-0.990785	99
Es	2.365149	-0.633686	1.909343	99
Es	2.478561	-0.096815	0.827091	99
Es	3.136180	0.654025	-0.753728	99
Es	3.233599	-0.771434	-0.887012	99
Es	2.665201	-0.058302	1.545825	99
Es	3.399324	-0.081780	1.634537	99
Es	0.835504	-0.017073	-0.230162	99
Es	0.558087	0.607834	0.055428	99
Es	2.289104	-0.127078	0.101717	99
Es	0.468628	-0.593715	0.063176	99
Es	3.380174	0.755335	-0.590596	99
Es	2.690660	-0.680239	-0.325049	99
Es	3.249640	0.120637	-0.883285	99
Es	2.406715	0.568859	1.844403	99
Es	3.853252	-1.091083	-0.639922	99
Es	0.725384	-0.016529	-0.961775	99
Es	2.781624	0.452842	-0.393040	99
