33
Properties=species:S:1:pos:R:3:Z:I:1 energy=-231.04988731277902 field_type=dipole dipole="0.000000 0.000000 0.000000" charge=0
C	0.958210	0.011010	0.046010	6
C	2.459830	-0.042120	0.026860	6
C	3.127880	-1.203770	0.137980	6
C	3.165940	1.273230	-0.144800	6
O	2.913710	2.089690	0.988000	8
H	0.605430	0.609050	0.892270	1
H	0.513140	-0.985660	0.135600	1
H	0.582540	0.460160	-0.879120	1
H	2.606330	-2.149380	0.253160	1
H	4.212860	-1.241930	0.114940	1
H	2.805710	1.791960	-1.038860	1
H	4.249730	1.151450	-0.243470	1
H	3.101800	1.543050	1.769910	1
Es	3.119184	2.315200	0.980616	99
Es	3.912063	1.175380	-0.216033	99
Es	1.711213	-0.014734	0.039534	99
Es	2.811886	0.603400	-0.063805	99
Es	2.777256	-1.848715	0.217492	99
Es	0.662942	-0.669546	0.106655	99
Es	3.165865	1.273321	-0.144608	99
Es	2.612519	2.139125	0.992592	99
Es	2.912758	1.620339	-0.752472	99
Es	2.913782	2.089310	0.987999	99
Es	2.819783	-0.596344	0.417712	99
Es	3.866190	-1.232940	0.122855	99
Es	0.958256	0.011009	0.046004	99
Es	3.012196	1.758460	0.570252	99
Es	2.459758	-0.042010	0.026854	99
Es	2.800457	-0.673190	-0.237689	99
Es	0.716218	0.317486	-0.581010	99
Es	3.023289	1.780574	1.396652	99
Es	3.127933	-1.203854	0.137989	99
Es	0.730098	0.412290	0.614303	99
