34
Properties=species:S:1:pos:R:3:Z:I:1 energy=-263.8570751033633 field_type=dipole dipole="0.000000 0.000000 0.000000" charge=0
C	0.398340	1.562160	0.468350	6
C	0.890490	0.355860	-0.277410	6
N	0.940400	-0.961120	0.374670	7
N	-0.365380	-1.390770	0.501960	7
C	-1.203650	-0.461810	0.163900	6
C	-0.558010	0.748310	-0.356960	6
H	0.687060	2.537790	0.097360	1
H	0.331760	1.501040	1.548750	1
H	1.521370	0.503290	-1.145460	1
H	1.496070	-1.655760	-0.128580	1
H	-2.297670	-0.557210	0.213880	1
H	-0.923440	1.148280	-1.292190	1
Es	1.328898	0.455295	-0.860446	99
Es	0.940035	-0.961147	0.374051	99
Es	-0.557860	0.748335	-0.356881	99
Es	0.928918	-0.384561	0.073237	99
Es	-0.254088	1.246677	0.116705	99
Es	0.129601	0.457479	-0.445740	99
Es	0.398279	1.562010	0.468216	99
Es	-0.815991	1.027755	-0.981964	99
Es	-0.739228	-0.867869	0.618765	99
Es	-0.365231	-1.390182	0.501757	99
Es	-0.917921	0.191463	-0.067567	99
Es	1.254696	-1.366524	0.050556	99
Es	0.588839	2.215522	0.206405	99
Es	-0.750198	-1.059444	0.071812	99
Es	0.285384	-1.159015	0.397079	99
Es	1.020853	-0.924728	0.678267	99
Es	0.890384	0.355849	-0.277270	99
Es	-0.426450	-1.742376	0.629178	99
Es	0.831853	0.985014	0.178719	99
Es	-1.937056	-0.529254	0.196619	99
Es	-1.203663	-0.461765	0.163933	99
Es	0.348475	1.517832	1.192861	99
