32
Properties=species:S:1:pos:R:3:Z:I:1 energy=-246.77741693126615 field_type=dipole dipole="0.000000 0.000000 0.000000" charge=0
C	-1.397680	-0.076400	-0.017850	6
C	-0.759060	1.158980	0.004910	6
C	0.626510	1.180240	0.043590	6
N	1.394390	0.069430	0.060510	7
C	0.746150	-1.115780	0.037680	6
C	-0.633160	-1.237660	-0.001240	6
H	-2.482420	-0.132620	-0.048300	1
H	-1.325530	2.083150	-0.007150	1
H	1.171160	2.119570	0.062540	1
H	1.385730	-1.993240	0.051960	1
H	-1.101310	-2.216380	-0.018220	1
Es	-2.133275	-0.116589	-0.038513	99
Es	0.997279	0.398483	-0.200951	99
Es	-0.888861	0.596094	-0.284082	99
Es	0.626583	1.180180	0.043597	99
Es	1.083931	-0.447707	0.051070	99
Es	-0.067825	-1.040301	-0.271052	99
Es	-0.951964	-1.900877	-0.012650	99
Es	-0.633190	-1.237681	-0.001242	99
Es	-1.397721	-0.076402	-0.017851	99
Es	0.983993	0.402444	0.299662	99
Es	1.393794	0.069408	0.060492	99
Es	-0.073636	1.183533	0.024303	99
Es	-0.904443	0.593928	0.281540	99
Es	-1.141507	1.787119	-0.003215	99
Es	1.772330	0.083784	0.072220	99
Es	-0.083039	-1.043346	0.300871	99
Es	-0.759089	1.158990	0.004908	99
Es	0.987044	1.826581	0.056304	99
Es	-1.033992	-0.669031	-0.009939	99
Es	1.174526	-1.718823	0.047183	99
Es	0.746213	-1.115714	0.037683	99
