34
Properties=species:S:1:pos:R:3:Z:I:1 energy=-263.91989544700465 field_type=dipole dipole="0.000000 0.000000 0.000000" charge=0
C	1.417400	-0.205140	0.060880	6
C	0.414070	-1.326530	-0.001130	6
C	-0.896440	-1.067360	-0.036640	6
N	-1.323850	0.225470	-0.018330	7
C	-0.428240	1.254040	0.030570	6
N	0.854040	1.162920	0.069100	7
H	2.024310	-0.327950	0.964790	1
H	2.091060	-0.289940	-0.799040	1
H	0.782580	-2.345590	-0.015580	1
H	-1.660550	-1.835150	-0.080720	1
H	-2.318590	0.407770	-0.047320	1
H	-0.913120	2.244160	0.034460	1
Es	-0.233883	-1.222079	0.311728	99
Es	-1.267440	0.241338	0.019532	99
Es	-0.428421	1.253929	0.030566	99
Es	0.853666	1.162482	0.069069	99
Es	-1.917876	0.341186	-0.040618	99
Es	1.417266	-0.205049	0.060877	99
Es	0.899237	-0.770834	0.029076	99
Es	-0.768637	1.920518	0.032770	99
Es	-1.141874	-0.337239	-0.034954	99
Es	-0.932799	0.666961	-0.010561	99
Es	0.414144	-1.326525	-0.001126	99
Es	-0.212580	-1.205345	-0.349229	99
Es	-0.896635	-1.067179	-0.036640	99
Es	1.870411	-0.267955	-0.526240	99
Es	0.320027	1.172880	0.342277	99
Es	-1.307942	0.230160	-0.025186	99
Es	0.338497	1.184481	-0.236681	99
Es	0.669735	-2.015045	-0.010590	99
Es	1.824632	-0.293912	0.677373	99
Es	1.058221	0.548999	0.063798	99
Es	1.077205	1.449292	0.081878	99
Es	-1.424699	-1.576524	-0.066645	99
