34
Properties=species:S:1:pos:R:3:Z:I:1 energy=-263.87815263595064 field_type=dipole dipole="0.000000 0.000000 0.000000" charge=0
C	0.315320	-1.420270	0.097280	6
C	-1.102180	-0.953500	-0.091140	6
C	-1.243120	0.522870	0.062110	6
N	-0.275050	1.379390	0.068040	7
N	1.038680	0.945190	-0.081120	7
C	1.307750	-0.319040	-0.066170	6
H	0.556360	-2.215080	-0.616960	1
H	0.458390	-1.843390	1.097920	1
H	-1.766800	-1.442870	0.628700	1
H	-1.471080	-1.215150	-1.088780	1
H	-2.271760	0.913400	0.139570	1
H	2.366010	-0.618480	-0.143520	1
Es	-0.653312	0.955753	0.351908	99
Es	-1.940642	0.776637	0.116216	99
Es	-0.683695	1.009373	-0.219143	99
Es	1.147940	0.406962	0.210117	99
Es	0.800791	-0.865610	0.009579	99
Es	1.090360	0.377326	-0.360433	99
Es	0.315316	-1.420217	0.097273	99
Es	-0.274976	1.378721	0.067978	99
Es	0.481763	-1.948716	-0.386957	99
Es	-1.346289	-1.115280	-0.764100	99
Es	1.299701	1.211770	-0.121768	99
Es	-0.326147	1.749158	0.105750	99
Es	-1.161557	-0.218431	-0.008572	99
Es	2.018849	-0.530844	-0.120149	99
Es	1.307737	-0.319096	-0.066162	99
Es	-1.102145	-0.953460	-0.091133	99
Es	-1.243144	0.522816	0.062104	99
Es	0.362266	1.103041	-0.006522	99
Es	0.416914	-1.691061	0.771973	99
Es	-1.549200	-1.275133	0.396618	99
Es	1.038228	0.944702	-0.081054	99
Es	-0.391141	-1.179747	0.003326	99
