42
Properties=species:S:1:pos:R:3:Z:I:1 energy=-234.2477510335873 field_type=dipole dipole="0.000000 0.000000 0.000000" charge=0
C	3.061590	-1.167390	-0.496710	6
C	2.472830	0.062250	0.175420	6
C	3.440840	1.206560	0.168250	6
C	3.533320	2.122240	-1.027040	6
C	2.928770	2.623610	0.259230	6
C	3.652680	3.630210	1.086550	6
H	2.346570	-1.995470	-0.471490	1
H	3.977910	-1.490380	0.008630	1
H	3.311280	-0.961220	-1.542790	1
H	2.217320	-0.179630	1.213200	1
H	1.539260	0.336420	-0.329830	1
H	4.359540	0.964910	0.692880	1
H	2.867330	1.951740	-1.865690	1
H	4.516300	2.478840	-1.314430	1
H	1.856530	2.785460	0.280890	1
H	4.736890	3.480210	1.063090	1
H	3.322600	3.567590	2.127900	1
H	3.440500	4.639600	0.721280	1
Es	3.077689	1.999825	-1.594725	99
Es	2.472860	0.062236	0.175407	99
Es	3.205492	2.541509	-0.472929	99
Es	3.440805	1.206691	0.168170	99
Es	3.305367	3.122176	0.668273	99
Es	1.834612	0.255658	-0.175113	99
Es	4.201958	2.369492	-1.217176	99
Es	2.952736	0.644375	0.160107	99
Es	2.195074	2.723283	0.269462	99
Es	3.569356	1.526025	-0.539730	99
Es	3.507066	4.319116	0.836748	99
Es	3.688489	-1.385149	-0.147654	99
Es	3.652675	3.630202	1.086544	99
Es	2.771880	-0.555661	-0.163241	99
Es	2.928866	2.623511	0.259139	99
Es	4.071748	1.050116	0.525000	99
Es	2.300109	-0.104079	0.888444	99
Es	3.061582	-1.167378	-0.496700	99
Es	3.426197	3.586088	1.797148	99
Es	3.533276	2.122209	-1.026883	99
Es	2.571950	-1.734176	-0.478860	99
Es	3.132970	1.885680	0.399199	99
Es	4.393068	3.522650	1.066698	99
Es	3.230297	-1.024272	-1.210754	99
