31
Properties=species:S:1:pos:R:3:Z:I:1 energy=-262.78044415488296 field_type=dipole dipole="0.000000 0.000000 0.000000" charge=0
C	-0.752160	1.162630	0.008410	6
C	0.623290	1.182470	0.025200	6
N	1.382900	0.072090	0.053740	7
C	0.711660	-1.090580	0.065130	6
N	-0.622950	-1.232090	0.050800	7
C	-1.329430	-0.086670	0.022380	6
H	-1.341430	2.068320	-0.014510	1
H	1.171750	2.119580	0.016150	1
H	1.302450	-1.999530	0.088220	1
H	-2.408730	-0.207040	0.010940	1
Es	-0.446738	-0.926832	-0.127606	99
Es	-1.032968	0.554027	-0.082211	99
Es	1.382300	0.072070	0.053735	99
Es	-0.051839	-1.124810	0.154641	99
Es	-0.534419	0.829287	0.223001	99
Es	-0.082921	1.171631	-0.091898	99
Es	1.019918	0.534062	-0.053218	99
Es	-2.064291	-0.158552	0.014040	99
Es	0.623372	1.182412	0.025193	99
Es	-1.329410	-0.086769	0.022379	99
Es	0.711614	-1.090510	0.065129	99
Es	1.022388	0.048952	0.254223	99
Es	0.987394	1.824591	0.017098	99
Es	-0.902439	-0.705717	0.111307	99
Es	-0.790376	-1.573193	0.064048	99
Es	-0.622695	-1.231564	0.050801	99
Es	-1.150442	1.774968	-0.009955	99
Es	1.112856	-1.707876	0.080592	99
Es	-0.752164	1.162632	0.008335	99
Es	1.761898	0.085585	0.049529	99
Es	1.056681	-0.408824	-0.044248	99
