37
Properties=species:S:1:pos:R:3:Z:I:1 energy=-265.1068139608481 field_type=dipole dipole="0.000000 0.000000 0.000000" charge=0
C	0.391120	1.349150	0.325670	6
C	1.394700	0.352550	-0.227690	6
N	0.963570	-0.972270	0.146540	7
C	-0.368770	-1.253880	0.194620	6
N	-1.348660	-0.434180	0.093030	7
C	-1.008380	0.975340	-0.147940	6
H	0.642360	2.365480	0.004500	1
H	0.421100	1.334450	1.422550	1
H	2.391330	0.548370	0.179890	1
H	1.456010	0.426580	-1.319020	1
H	1.604840	-1.735690	-0.033740	1
H	-0.569030	-2.327510	0.353940	1
H	-1.116210	1.184350	-1.218770	1
H	-1.739650	1.601770	0.375010	1
Es	-1.348109	-0.434053	0.092994	99
Es	-1.503590	1.406355	0.210563	99
Es	1.337255	-1.428577	0.015265	99
Es	-0.935418	-0.702564	0.418394	99
Es	2.078420	0.479997	0.050023	99
Es	0.963273	-0.972338	0.145941	99
Es	0.414024	-1.089289	0.040790	99
Es	-1.160969	0.173857	-0.008531	99
Es	-0.493817	-1.986614	0.301276	99
Es	0.864182	-0.983487	0.435804	99
Es	-0.293863	1.162294	0.088459	99
Es	-1.697086	-0.535114	0.116302	99
Es	0.415094	1.332532	1.072990	99
Es	-1.070064	1.113681	-0.882543	99
Es	-0.953350	-0.789453	-0.152412	99
Es	0.565794	2.041681	0.100520	99
Es	0.901665	0.846492	0.044056	99
Es	1.394636	0.352393	-0.227634	99
Es	1.432267	0.406374	-0.980123	99
Es	1.145147	-0.416525	-0.037267	99
Es	0.391145	1.349113	0.325636	99
Es	-1.008350	0.975202	-0.147900	99
Es	-0.368577	-1.253907	0.194635	99
