37
Properties=species:S:1:pos:R:3:Z:I:1 energy=-265.06977146000867 field_type=dipole dipole="0.000000 0.000000 0.000000" charge=0
C	0.424270	1.418130	0.265110	6
C	1.371040	0.329230	-0.207130	6
N	0.921950	-0.924770	0.385640	7
N	-0.344830	-1.358170	0.182910	7
C	-1.251890	-0.443940	0.012350	6
C	-1.011470	1.042900	-0.056610	6
H	0.678180	2.378340	-0.198310	1
H	0.530550	1.552400	1.349540	1
H	2.391150	0.551120	0.119920	1
H	1.375390	0.255030	-1.300580	1
H	1.589620	-1.677170	0.204190	1
H	-2.291490	-0.777270	-0.140990	1
H	-1.270210	1.360480	-1.073300	1
H	-1.707470	1.543420	0.624540	1
Es	2.068131	0.471983	0.016833	99
Es	-0.344680	-1.357541	0.182900	99
Es	-1.251874	-0.443918	0.012333	99
Es	1.370968	0.329119	-0.207055	99
Es	0.899675	0.878917	0.019553	99
Es	-1.482361	1.374273	0.406456	99
Es	-0.793815	-0.916086	0.388777	99
Es	-1.011451	1.042847	-0.056605	99
Es	0.497659	1.503751	1.003767	99
Es	0.424245	1.418098	0.265077	99
Es	-0.396098	-1.726951	0.196215	99
Es	1.317654	-1.376286	0.248735	99
Es	-1.185473	1.247574	-0.747175	99
Es	-1.117887	0.298508	-0.011682	99
Es	-0.707052	-0.945019	-0.189665	99
Es	0.921807	-0.924879	0.384955	99
Es	-0.297100	1.225031	0.101364	99
Es	0.597210	2.073861	-0.057364	99
Es	1.096875	-0.392891	0.091969	99
Es	1.365152	0.282646	-0.963914	99
Es	0.296175	-1.107278	0.234322	99
Es	0.885644	-0.878352	0.694185	99
Es	-1.960551	-0.662551	-0.089855	99
