34
Properties=species:S:1:pos:R:3:Z:I:1 energy=-263.8794298954376 field_type=dipole dipole="0.000000 0.000000 0.000000" charge=0
C	0.266340	-1.402160	0.062940	6
N	-1.025340	-0.824690	-0.311040	7
N	-1.343340	0.456700	0.015570	7
C	-0.337570	1.274740	0.078230	6
C	1.092480	0.922570	-0.080820	6
C	1.364800	-0.387950	-0.045790	6
H	0.479310	-2.242510	-0.605400	1
H	0.229040	-1.786300	1.088060	1
H	-1.790240	-1.461300	-0.086860	1
H	-0.534920	2.337180	0.295540	1
H	1.833420	1.704080	-0.153280	1
H	2.388330	-0.741900	-0.097180	1
Es	1.236077	0.304666	0.250355	99
Es	-0.470131	1.996295	0.225022	99
Es	-1.145554	-0.200907	-0.098437	99
Es	1.092402	0.922656	-0.080823	99
Es	-0.839993	0.765105	0.333360	99
Es	1.587699	1.454504	-0.130108	99
Es	-1.704193	0.533254	0.057238	99
Es	0.382067	1.105511	-0.015853	99
Es	-0.337534	1.274729	0.078227	99
Es	2.054356	-0.641375	-0.077530	99
Es	0.249662	-1.660917	0.768278	99
Es	0.816936	-0.890936	0.009278	99
Es	1.196376	0.274787	-0.389345	99
Es	-0.465040	-1.052914	-0.108602	99
Es	-1.342731	0.456515	0.015488	99
Es	-1.012692	-0.759593	-0.614579	99
Es	0.266248	-1.402040	0.062901	99
Es	-1.477936	-1.205078	-0.149643	99
Es	0.411438	-1.970333	-0.388577	99
Es	-0.883500	0.874559	-0.231920	99
Es	-1.025337	-0.824525	-0.310221	99
Es	1.364793	-0.388081	-0.045808	99
