41
Properties=species:S:1:pos:R:3:Z:I:1 energy=-250.24519320995407 field_type=dipole dipole="0.000000 0.000000 0.000000" charge=0
C	1.058920	-0.065710	-0.007120	6
C	2.548040	-0.028530	-0.057880	6
C	3.280520	-0.589960	-1.249230	6
C	3.250590	0.903050	-1.017800	6
C	4.479050	1.636180	-0.588850	6
N	5.264120	1.922810	-1.778750	7
H	0.686390	0.716770	0.661030	1
H	0.719900	-1.032600	0.377140	1
H	0.608730	0.085710	-0.993590	1
H	2.985300	-0.187980	0.921630	1
H	2.704020	-0.978930	-2.081230	1
H	4.204970	-1.126190	-1.067130	1
H	2.635960	1.504650	-1.680390	1
H	5.075230	1.048820	0.117890	1
H	4.197640	2.572750	-0.097300	1
H	5.531530	1.043330	-2.218020	1
H	6.131830	2.378480	-1.503200	1
Es	2.883652	-0.853498	-1.810611	99
Es	3.250572	0.902875	-1.017743	99
Es	2.869350	-0.490918	-0.609630	99
Es	3.866183	1.251499	-0.792826	99
Es	5.083409	2.124150	-2.007193	99
Es	0.806759	0.468716	0.449356	99
Es	5.433769	1.382395	-2.023246	99
Es	4.479115	1.636198	-0.588974	99
Es	4.885081	1.221847	-0.092877	99
Es	3.280479	-0.589822	-1.249136	99
Es	2.825334	1.302472	-1.465955	99
Es	2.844320	0.589183	-0.429529	99
Es	5.796243	2.185072	-1.597903	99
Es	2.857043	-0.133786	0.606366	99
Es	0.757497	0.038040	-0.683420	99
Es	4.945981	1.787977	-1.252252	99
Es	1.058934	-0.065710	-0.007120	99
Es	0.828805	-0.726048	0.255638	99
Es	3.379723	0.175349	-1.292262	99
Es	2.548111	-0.028516	-0.058031	99
Es	3.914862	-0.948419	-1.124513	99
Es	1.802599	-0.045949	-0.048445	99
Es	4.287486	2.278731	-0.251718	99
Es	5.264424	1.922481	-1.778389	99
