41
Properties=species:S:1:pos:R:3:Z:I:1 energy=-250.24279146688937 field_type=dipole dipole="0.000000 0.000000 0.000000" charge=0
C	1.064760	0.103330	-0.115410	6
C	2.553890	0.073280	-0.050060	6
C	3.343270	-0.628660	-1.122460	6
C	3.450360	0.872800	-0.982820	6
C	2.858760	1.713030	-2.088930	6
N	4.691240	1.417080	-0.409170	7
H	0.678840	0.903060	0.522940	1
H	0.659860	-0.845140	0.250860	1
H	0.679980	0.257030	-1.126080	1
H	2.883180	-0.070640	0.974250	1
H	2.812830	-1.032590	-1.977510	1
H	4.188370	-1.236740	-0.819760	1
H	2.037690	1.210870	-2.609900	1
H	3.623020	1.941220	-2.839690	1
H	2.481230	2.658150	-1.686690	1
H	5.049040	0.820130	0.333710	1
H	4.513100	2.323330	0.022170	1
Es	2.884977	-0.444745	-0.538590	99
Es	2.793275	-0.019272	0.647238	99
Es	2.602094	2.358828	-1.810404	99
Es	4.882015	1.051638	0.048719	99
Es	2.553956	0.073247	-0.050194	99
Es	4.690850	1.417016	-0.408801	99
Es	3.450422	0.872721	-0.982721	99
Es	1.064774	0.103333	-0.115408	99
Es	0.809342	0.208496	-0.807484	99
Es	3.522347	0.110430	-1.196468	99
Es	2.975852	-0.896290	-1.703225	99
Es	4.141455	1.176940	-0.629744	99
Es	0.802591	0.650899	0.320469	99
Es	4.935697	1.455553	-0.659305	99
Es	3.343225	-0.628523	-1.122380	99
Es	2.922598	0.637050	-0.422083	99
Es	0.791492	-0.543580	0.135683	99
Es	3.919920	-1.037815	-0.910912	99
Es	3.144115	1.291681	-1.529426	99
Es	1.808281	0.094341	-0.104446	99
Es	2.858760	1.713013	-2.088896	99
Es	3.376490	1.864816	-2.593191	99
Es	2.298820	1.364946	-2.432566	99
Es	4.559575	1.954985	-0.136493	99
