41
Properties=species:S:1:pos:R:3:Z:I:1 energy=-250.24057969907287 field_type=dipole dipole="0.000000 0.000000 0.000000" charge=0
C	1.031380	0.015290	-0.057210	6
C	2.521760	-0.008200	-0.011510	6
C	3.346400	-0.755180	-1.036560	6
C	2.729710	-1.514690	-2.160900	6
C	3.324630	0.751830	-1.036480	6
N	4.517190	1.481270	-0.616430	7
H	0.646510	0.735180	0.673090	1
H	0.628540	-0.970930	0.195680	1
H	0.645410	0.303790	-1.040930	1
H	2.876560	-0.043260	1.013140	1
H	4.243230	-1.252750	-0.681290	1
H	1.869010	-1.000260	-2.596810	1
H	2.401160	-2.498060	-1.812210	1
H	3.466210	-1.665510	-2.955960	1
H	2.778870	1.232280	-1.845970	1
H	4.995650	1.004830	0.146970	1
H	4.265480	2.401470	-0.257530	1
Es	3.990038	1.161586	-0.769080	99
Es	2.729715	-1.514679	-2.160883	99
Es	2.142572	-1.158917	-2.453207	99
Es	0.773800	0.210583	-0.731824	99
Es	2.848804	0.532549	-0.438891	99
Es	1.774536	-0.002782	-0.053541	99
Es	3.458212	-0.001581	-1.183960	99
Es	4.516810	1.481200	-0.615968	99
Es	2.947031	1.079122	-1.583149	99
Es	2.505368	-2.185464	-1.921367	99
Es	0.773147	0.507308	0.441032	99
Es	0.755807	-0.657722	0.115708	99
Es	4.780784	1.186358	-0.143554	99
Es	3.346318	-0.755056	-1.036506	99
Es	3.019916	-1.122731	-1.596637	99
Es	3.324718	0.751763	-1.036350	99
Es	2.778329	-0.025594	0.685069	99
Es	1.031394	0.015291	-0.057211	99
Es	4.738770	1.520566	-0.884373	99
Es	2.521821	-0.008234	-0.011640	99
Es	2.867507	-0.550105	-0.455917	99
Es	4.344375	2.026679	-0.384511	99
Es	3.961228	-1.083548	-0.785325	99
Es	3.232516	-1.615950	-2.699299	99
