35
Properties=species:S:1:pos:R:3:Z:I:1 energy=-247.93841881200214 field_type=dipole dipole="0.000000 0.000000 0.000000" charge=0
C	0.969340	-0.019390	-0.008090	6
C	2.450250	0.060260	-0.000410	6
C	3.296490	1.151730	0.003800	6
C	4.624490	0.664780	0.010300	6
C	4.556590	-0.709200	0.009920	6
N	3.233910	-1.068080	0.003310	7
H	0.521990	0.979860	0.000790	1
H	0.608380	-0.560070	0.872930	1
H	0.617010	-0.540770	-0.903900	1
H	2.989030	2.190110	0.002230	1
H	5.532180	1.253360	0.014840	1
H	5.333730	-1.462160	0.013690	1
H	2.888870	-2.019090	0.001430	1
Es	2.875399	-0.622159	0.087445	99
Es	5.077389	-1.225172	0.012876	99
Es	3.296486	1.151767	0.003798	99
Es	2.922128	0.634297	0.312059	99
Es	3.088852	1.858147	0.002986	99
Es	3.797703	-0.956703	0.078915	99
Es	3.233947	-1.067966	0.003747	99
Es	5.238155	1.067713	0.013634	99
Es	0.969394	-0.019396	-0.008092	99
Es	3.026889	-1.633943	0.017364	99
Es	2.450240	0.060027	-0.000419	99
Es	4.580353	0.004123	0.320953	99
Es	4.556431	-0.709362	0.009923	99
Es	2.932602	0.634404	-0.312807	99
Es	0.734641	-0.389893	0.586628	99
Es	1.711559	0.013566	-0.003882	99
Es	4.624520	0.664803	0.010304	99
Es	4.578182	0.008317	-0.305834	99
Es	3.280344	-0.913617	-0.165068	99
Es	0.673670	0.654972	-0.002256	99
Es	3.982072	0.963805	0.010150	99
Es	0.740545	-0.376870	-0.612613	99
