41
Properties=species:S:1:pos:R:3:Z:I:1 energy=-250.23008593822874 field_type=dipole dipole="0.000000 0.000000 0.000000" charge=0
C	0.992640	-0.059160	0.074540	6
C	2.506750	-0.003460	0.032720	6
C	3.181010	1.078780	0.909560	6
C	4.200400	-0.028780	1.242820	6
N	3.135130	-1.015130	0.929970	7
C	3.678070	-2.126280	0.156080	6
H	0.621900	-0.952670	-0.439500	1
H	0.564830	0.814420	-0.428800	1
H	0.608730	-0.074750	1.101010	1
H	2.884540	0.003570	-1.000010	1
H	2.590610	1.412820	1.771060	1
H	3.575680	1.950840	0.382130	1
H	5.072740	-0.033980	0.577220	1
H	4.547640	-0.043980	2.279910	1
H	2.861370	-2.752760	-0.219760	1
H	4.301910	-2.757520	0.798140	1
H	4.285200	-1.812960	-0.702010	1
Es	2.788907	0.613237	0.434174	99
Es	2.774845	-0.006051	-0.677131	99
Es	3.383448	-1.498034	0.576798	99
Es	4.200287	-0.028836	1.242780	99
Es	3.135497	-1.014950	0.929483	99
Es	3.678028	-2.126205	0.156136	99
Es	4.109651	-2.554985	0.593913	99
Es	4.097778	-1.898606	-0.436859	99
Es	3.118271	-2.551728	-0.107031	99
Es	2.774657	1.297282	1.495364	99
Es	4.793767	-0.039840	0.772408	99
Es	2.847857	-0.623800	0.496731	99
Es	0.738366	-0.066328	0.772437	99
Es	2.506788	-0.003526	0.032821	99
Es	0.992644	-0.059156	0.074515	99
Es	3.451265	1.682239	0.547038	99
Es	1.737844	-0.031392	0.045185	99
Es	0.705880	0.539477	-0.273024	99
Es	3.751209	0.595195	1.115316	99
Es	2.931582	-1.098505	1.206119	99
Es	3.648704	-0.635625	1.074769	99
Es	3.181034	1.078734	0.909544	99
Es	0.744202	-0.670658	-0.278258	99
Es	4.448924	-0.045233	1.955077	99
