41
Properties=species:S:1:pos:R:3:Z:I:1 energy=-250.23435459852632 field_type=dipole dipole="0.000000 0.000000 0.000000" charge=0
C	0.899850	-0.018960	0.106840	6
C	2.417210	-0.005400	-0.035150	6
C	2.847650	0.020670	-1.502540	6
C	3.137100	1.029020	0.866180	6
N	4.122850	-0.010590	1.233570	7
C	3.157560	-1.056240	0.830030	6
H	0.592230	-0.038970	1.157980	1
H	0.469720	-0.899820	-0.381290	1
H	0.457760	0.872540	-0.350610	1
H	3.937820	0.034000	-1.609890	1
H	2.454340	0.909130	-2.006570	1
H	2.474300	-0.862730	-2.031520	1
H	2.554350	1.383930	1.725260	1
H	3.561220	1.900880	0.359230	1
H	4.957620	0.007980	0.646920	1
H	3.599570	-1.901220	0.293120	1
H	2.581950	-1.452470	1.675320	1
Es	3.137197	1.028917	0.866202	99
Es	2.577251	0.628145	-1.840961	99
Es	3.594035	0.029717	-1.568657	99
Es	3.157657	-1.056137	0.830058	99
Es	1.642099	-0.012786	0.027690	99
Es	4.601569	0.000981	0.845677	99
Es	2.756377	-1.318441	1.409084	99
Es	2.590790	-0.583363	-1.857876	99
Es	0.608999	-0.622597	-0.229148	99
Es	0.696365	-0.032686	0.827177	99
Es	3.745014	-0.506948	1.061263	99
Es	3.735219	0.483801	1.078575	99
Es	3.431095	1.630556	0.514421	99
Es	3.463704	-1.639191	0.457652	99
Es	2.732384	-0.604747	0.358742	99
Es	4.122661	-0.010585	1.232991	99
Es	2.721159	0.585927	0.379019	99
Es	2.417206	-0.005400	-0.035155	99
Es	2.644859	0.008202	-0.771369	99
Es	0.899845	-0.018960	0.106834	99
Es	0.601119	0.592159	-0.208039	99
Es	4.227402	-0.015561	1.579393	99
Es	2.847649	0.020665	-1.502519	99
Es	2.731081	1.262869	1.454141	99
