37
Properties=species:S:1:pos:R:3:Z:I:1 energy=-265.0508982888804 field_type=dipole dipole="0.000000 0.000000 0.000000" charge=0
C	1.257160	0.265590	0.022510	6
C	2.686570	-0.148490	0.003050	6
C	3.255280	-0.937580	-1.132870	6
N	3.690700	0.448500	-0.888320	7
C	3.303230	1.394790	-1.799550	6
N	3.954660	2.474960	-2.066510	7
H	1.158650	1.275490	0.432980	1
H	0.684450	-0.414010	0.662040	1
H	0.795380	0.246940	-0.969510	1
H	3.078470	-0.317010	0.999150	1
H	2.677290	-1.092490	-2.033250	1
H	4.033330	-1.659420	-0.925710	1
H	2.365480	1.182100	-2.339700	1
H	4.789070	2.474530	-1.468100	1
Es	3.535278	2.148809	-1.741759	99
Es	3.870031	2.738870	-2.305552	99
Es	3.954727	2.474562	-2.066188	99
Es	3.255326	-0.937322	-1.132808	99
Es	2.953123	-0.266194	0.677818	99
Es	3.564683	-0.124929	-1.126498	99
Es	0.881749	-0.198546	0.455445	99
Es	4.453175	2.471041	-1.705752	99
Es	2.853601	-1.040171	-1.738909	99
Es	2.658376	1.238542	-2.165344	99
Es	4.014695	0.492169	-0.749942	99
Es	3.690086	0.448372	-0.888561	99
Es	1.197260	0.947133	0.299460	99
Es	3.827747	1.873447	-2.147683	99
Es	3.230851	0.354914	-0.480981	99
Es	1.257198	0.265578	0.022505	99
Es	2.686708	-0.148405	0.002834	99
Es	2.854519	-0.732450	-0.510079	99
Es	3.485685	0.843477	-1.286682	99
Es	3.303223	1.394659	-1.799464	99
Es	3.776783	-1.430573	-0.999458	99
Es	1.977765	0.069023	-0.011726	99
Es	0.953219	0.252978	-0.655592	99
