34
Properties=species:S:1:pos:R:3:Z:I:1 energy=-263.95018476570436 field_type=dipole dipole="0.000000 0.000000 0.000000" charge=0
C	0.961350	-0.013350	-0.007670	6
C	2.437530	0.044410	-0.000930	6
C	3.323710	1.099400	0.002500	6
N	4.619090	0.651080	0.008750	7
C	4.532610	-0.658600	0.009210	6
N	3.232020	-1.074610	0.003270	7
H	0.529070	0.992270	0.001960	1
H	0.592150	-0.548960	0.872700	1
H	0.599820	-0.528890	-0.903060	1
H	3.098260	2.158440	0.000690	1
H	5.365030	-1.349310	0.013630	1
H	2.919040	-2.035570	0.002300	1
Es	0.961416	-0.013357	-0.007669	99
Es	3.323799	1.099406	0.002499	99
Es	3.164576	1.817731	0.001058	99
Es	3.662147	-0.946819	-0.222804	99
Es	4.532461	-0.658702	0.009200	99
Es	0.727626	-0.366311	-0.611370	99
Es	1.705247	0.006842	-0.004377	99
Es	2.897608	0.570521	0.323692	99
Es	2.437525	0.044168	-0.000934	99
Es	2.853502	-0.635614	-0.022118	99
Es	4.539293	0.124973	-0.259349	99
Es	3.041333	-1.640875	-0.005714	99
Es	4.047673	0.856568	0.004124	99
Es	4.925450	0.861791	0.009523	99
Es	3.490317	-0.944695	0.260767	99
Es	2.896931	0.570278	-0.318997	99
Es	4.532535	0.129830	0.280508	99
Es	5.085600	-1.136023	0.011760	99
Es	3.232041	-1.074602	0.003249	99
Es	0.722493	-0.380104	0.585998	99
Es	0.678420	0.663705	-0.001151	99
Es	4.618630	0.650732	0.008749	99
