31
Properties=species:S:1:pos:R:3:Z:I:1 energy=-262.699144235507 field_type=dipole dipole="0.000000 0.000000 0.000000" charge=0
C	0.910330	0.000510	0.001400	6
C	2.241400	-0.000050	-0.000220	6
C	3.163480	1.125160	-0.002090	6
N	4.401150	0.726200	-0.003330	7
N	4.400750	-0.727290	-0.002360	7
C	3.163110	-1.125690	-0.000590	6
H	0.348500	0.928770	0.001460	1
H	0.348000	-0.927530	0.002700	1
H	2.812040	2.164810	-0.002350	1
H	2.810940	-2.165100	0.000530	1
Es	3.163425	1.125159	-0.002105	99
Es	4.400189	-0.726969	-0.002358	99
Es	3.841718	-0.887931	0.281909	99
Es	2.655234	-0.589862	-0.000342	99
Es	3.163049	-1.125691	-0.000592	99
Es	3.841190	0.886893	-0.285724	99
Es	4.728507	0.913504	-0.004363	99
Es	0.910237	0.000510	0.001402	99
Es	2.928454	-1.822070	0.000123	99
Es	3.842137	0.887238	0.280851	99
Es	4.400591	0.725886	-0.003331	99
Es	0.530976	0.618827	0.001428	99
Es	3.840895	-0.888101	-0.284664	99
Es	4.728072	-0.914597	-0.002987	99
Es	0.530649	-0.617632	0.002239	99
Es	1.659409	0.000387	0.315070	99
Es	2.655508	0.589628	-0.001141	99
Es	2.241473	-0.000050	-0.000220	99
Es	4.364390	-0.000528	-0.002792	99
Es	2.929205	1.821678	-0.002342	99
Es	1.658629	-0.000007	-0.314051	99
