37
Properties=species:S:1:pos:R:3:Z:I:1 energy=-265.06707842582455 field_type=dipole dipole="0.000000 0.000000 0.000000" charge=0
C	0.974690	0.031370	-0.058140	6
C	2.491100	-0.048870	0.001980	6
C	3.017820	-1.300340	0.690560	6
N	3.198840	-0.823720	2.058340	7
N	3.428820	0.512100	2.099140	7
C	3.017810	0.973380	0.963280	6
H	0.571230	-0.763390	-0.693410	1
H	0.656730	0.994410	-0.471830	1
H	0.520020	-0.061980	0.934420	1
H	2.936310	0.097430	-0.986360	1
H	3.986810	-1.588670	0.267170	1
H	2.336920	-2.153980	0.634040	1
H	3.893470	-1.356860	2.583160	1
H	3.034400	2.039940	0.698210	1
Es	3.428584	0.511783	2.098659	99
Es	3.573314	0.667803	2.405540	99
Es	2.790917	0.050756	-0.672151	99
Es	0.705401	-0.512089	-0.492495	99
Es	3.017780	0.973406	0.963265	99
Es	2.752904	0.481090	0.461046	99
Es	3.634931	-1.135747	2.357063	99
Es	3.686497	-1.498162	0.395941	99
Es	3.516166	0.703526	1.462131	99
Es	1.737168	-0.009660	-0.020368	99
Es	2.911519	-0.820883	2.201161	99
Es	3.017836	-1.300275	0.690684	99
Es	3.023664	1.695421	0.782833	99
Es	2.739934	-0.698383	0.321116	99
Es	3.149595	-1.033792	1.458274	99
Es	2.491088	-0.048868	0.002022	99
Es	0.974727	0.031373	-0.058147	99
Es	2.983923	0.761100	1.687787	99
Es	0.675075	-0.034590	0.615228	99
Es	0.764634	0.689391	-0.341953	99
Es	3.199350	-0.823564	2.058032	99
Es	3.346678	-0.169482	2.046530	99
Es	2.553284	-1.883325	0.653122	99
