45
Properties=species:S:1:pos:R:3:Z:I:1 energy=-235.4506542024435 field_type=dipole dipole="0.000000 0.000000 0.000000" charge=0
C	0.596790	0.306280	0.574050	6
C	1.925360	-0.364160	0.263760	6
C	3.020440	0.665100	-0.016470	6
C	4.359680	-0.012880	-0.310190	6
C	5.452320	1.016250	-0.597730	6
C	6.787830	0.346600	-0.880300	6
H	-0.172600	-0.447980	0.766120	1
H	0.263970	0.925450	-0.264990	1
H	0.676860	0.943080	1.460880	1
H	1.802580	-1.022130	-0.604500	1
H	2.215670	-0.996130	1.111290	1
H	3.128220	1.331630	0.847920	1
H	2.728120	1.288260	-0.870420	1
H	4.251320	-0.684130	-1.170870	1
H	4.653480	-0.631340	0.546750	1
H	5.563220	1.691570	0.258490	1
H	5.168170	1.629810	-1.460480	1
H	7.117720	-0.248030	-0.022370	1
H	7.554150	1.100720	-1.085550	1
H	6.719430	-0.313960	-1.750640	1
Es	5.254416	1.435928	-1.192320	99
Es	0.372400	0.730293	-0.001587	99
Es	0.596801	0.306272	0.574047	99
Es	4.562544	-0.436386	0.281373	99
Es	4.284733	-0.472758	-0.904567	99
Es	3.094922	1.121825	0.580440	99
Es	2.127501	-0.796520	0.847952	99
Es	2.818795	1.091821	-0.605991	99
Es	1.842532	-0.814517	-0.335675	99
Es	0.655227	0.742510	1.180687	99
Es	3.690042	0.326053	-0.163507	99
Es	2.471387	0.150997	0.124192	99
Es	6.125791	0.676873	-0.740241	99
Es	6.787819	0.346607	-0.880297	99
Es	7.010130	-0.060623	-0.291802	99
Es	6.737399	-0.105884	-1.475630	99
Es	5.526844	1.478584	-0.006546	99
Es	7.312976	0.862225	-1.020894	99
Es	1.925342	-0.364125	0.263764	99
Es	0.069578	-0.209423	0.705590	99
Es	5.452339	1.016214	-0.597729	99
Es	4.359675	-0.012848	-0.310190	99
Es	1.255345	-0.024477	0.419990	99
Es	4.907509	0.501239	-0.454223	99
Es	3.020446	0.665068	-0.016471	99
