32
Properties=species:S:1:pos:R:3:Z:I:1 energy=-698.1300910505249 field_type=dipole dipole="0.000000 0.000000 0.000000" charge=0
S	0.000200	-0.000200	-0.118100	16
O	1.274400	0.035500	0.897500	8
O	-1.276500	-0.032600	0.894900	8
O	-0.033600	1.257700	-0.839100	8
O	0.035400	-1.260400	-0.835100	8
H	1.211100	0.691200	1.631200	1
H	-1.214800	-0.685900	1.630700	1
Es	0.000197	-0.000198	-0.116940	99
Es	1.274857	0.035409	0.897310	99
Es	-1.276958	-0.032509	0.894708	99
Es	0.035479	-1.260930	-0.835625	99
Es	-0.044534	1.351092	-1.014120	99
Es	0.000131	-0.000146	-0.078834	99
Es	0.000219	-0.000199	-0.118125	99
Es	0.001118	-0.020489	-0.138137	99
Es	-0.000664	0.020033	-0.138208	99
Es	-0.846710	-0.067909	0.613787	99
Es	-1.247346	-0.057427	0.861234	99
Es	0.037247	-0.814202	-0.531645	99
Es	-0.036053	0.812480	-0.534274	99
Es	1.192833	0.385544	1.227289	99
Es	0.845288	0.069876	0.615354	99
Es	-0.033678	1.258228	-0.839627	99
Es	0.046795	-1.354316	-1.009779	99
Es	1.452486	-0.207014	0.836969	99
Es	1.245289	0.060210	0.863662	99
Es	-1.454410	0.209731	0.833182	99
Es	-1.195675	-0.381596	1.225989	99
Es	-0.040483	1.156408	-0.706604	99
Es	-0.008265	1.119140	-0.758961	99
Es	0.009845	-1.121579	-0.755437	99
Es	0.041999	-1.158715	-0.702919	99
