29
Properties=species:S:1:pos:R:3:Z:I:1 energy=-192.8147952435218 field_type=dipole dipole="0.000000 0.000000 0.000000" charge=0
C	-1.861959	-0.535585	0.005443	6
C	-0.369839	-0.500255	0.015153	6
C	0.333931	0.640924	-0.008037	6
C	1.739931	0.640924	-0.008037	6
C	2.930091	0.640924	-0.008037	6
H	-2.209119	-1.571025	-0.064937	1
H	-2.262309	0.008395	-0.856757	1
H	-2.267409	-0.106835	0.925713	1
H	0.146071	-1.457355	0.038663	1
H	-0.174489	1.600594	-0.031167	1
H	3.995100	0.639295	-0.007997	1
Es	1.057909	0.647961	-0.007264	99
Es	2.342879	0.993437	0.055874	99
Es	3.626336	0.639790	-0.008044	99
Es	-2.122887	-0.242403	0.623670	99
Es	1.739673	0.640928	-0.008037	99
Es	2.331233	0.515446	-0.339399	99
Es	-1.861909	-0.535587	0.005442	99
Es	0.031031	0.092937	-0.318027	99
Es	-2.121096	-0.163378	-0.572830	99
Es	-0.026850	-1.149020	0.031656	99
Es	-0.369922	-0.500328	0.015152	99
Es	-2.095292	-1.238787	-0.041900	99
Es	0.334078	0.641014	-0.008038	99
Es	0.004021	1.288279	-0.023953	99
Es	2.334863	0.404970	0.259474	99
Es	0.028232	0.108195	0.324102	99
Es	-1.114061	-0.516650	0.010387	99
Es	2.930359	0.640926	-0.008036	99
29
Properties=species:S:1:pos:R:3:Z:I:1 energy=-192.8147952435218 field_type=dipole dipole="0.000000 0.000000 0.000000" charge=0
C	-1.861959	-0.535585	0.005443	6
C	-0.369839	-0.500255	0.015153	6
C	0.333931	0.640924	-0.008037	6
C	1.739931	0.640924	-0.008037	6
C	2.930091	0.640924	-0.008037	6
H	-2.209119	-1.571025	-0.064937	1
H	-2.262309	0.008395	-0.856757	1
H	-2.267409	-0.106835	0.925713	1
H	0.146071	-1.457355	0.038663	1
H	-0.174489	1.600594	-0.031167	1
H	3.995100	0.639295	-0.007997	1
Es	0.334082	0.641017	-0.008010	99
Es	2.930367	0.640929	-0.008033	99
Es	2.341847	0.999555	0.005763	99
Es	-2.123067	-0.243035	0.617416	99
Es	-2.121641	-0.164800	-0.566920	99
Es	-0.369925	-0.500330	0.015158	99
Es	2.334175	0.442742	0.277419	99
Es	1.739660	0.640917	-0.008035	99
Es	0.027796	0.108328	0.320255	99
Es	-0.026715	-1.145674	0.031687	99
Es	-1.111939	-0.514921	0.010527	99
Es	2.332569	0.471552	-0.307020	99
Es	-2.099870	-1.239406	-0.041662	99
Es	0.030691	0.093300	-0.314228	99
Es	-1.861908	-0.535587	0.005443	99
Es	1.060574	0.644131	-0.007180	99
Es	3.628299	0.644299	-0.008381	99
Es	0.003604	1.284710	-0.023969	99
29
Properties=species:S:1:pos:R:3:Z:I:1 energy=-192.8147952435218 field_type=dipole dipole="0.000000 0.000000 0.000000" charge=0
C	-1.861959	-0.535585	0.005443	6
C	-0.369839	-0.500255	0.015153	6
C	0.333931	0.640924	-0.008037	6
C	1.739931	0.640924	-0.008037	6
C	2.930091	0.640924	-0.008037	6
H	-2.209119	-1.571025	-0.064937	1
H	-2.262309	0.008395	-0.856757	1
H	-2.267409	-0.106835	0.925713	1
H	0.146071	-1.457355	0.038663	1
H	-0.174489	1.600594	-0.031167	1
H	3.995100	0.639295	-0.007997	1
Es	2.930370	0.640924	-0.008037	99
Es	-1.110945	-0.513771	0.010966	99
Es	2.336445	0.370620	-0.233669	99
Es	-0.369927	-0.500330	0.015152	99
Es	0.004083	1.281616	-0.024474	99
Es	0.030981	0.093517	-0.312710	99
Es	3.628822	0.646749	-0.008030	99
Es	1.061980	0.642941	-0.007113	99
Es	2.330990	0.553249	0.302766	99
Es	0.334084	0.641018	-0.008035	99
Es	-2.104076	-1.239703	-0.041143	99
Es	1.739657	0.640924	-0.008031	99
Es	-2.121354	-0.165390	-0.562025	99
Es	-2.121452	-0.244216	0.611665	99
Es	-1.861908	-0.535587	0.005443	99
Es	2.341015	0.989705	-0.093500	99
Es	0.027192	0.108393	0.319037	99
Es	-0.027358	-1.142932	0.031965	99
29
Properties=species:S:1:pos:R:3:Z:I:1 energy=-192.8147952435218 field_type=dipole dipole="0.000000 0.000000 0.000000" charge=0
C	-1.861959	-0.535585	0.005443	6
C	-0.369839	-0.500255	0.015153	6
C	0.333931	0.640924	-0.008037	6
C	1.739931	0.640924	-0.008037	6
C	2.930091	0.640924	-0.008037	6
H	-2.209119	-1.571025	-0.064937	1
H	-2.262309	0.008395	-0.856757	1
H	-2.267409	-0.106835	0.925713	1
H	0.146071	-1.457355	0.038663	1
H	-0.174489	1.600594	-0.031167	1
H	3.995100	0.639295	-0.007997	1
Es	-1.861910	-0.535587	0.005443	99
Es	2.930373	0.640932	-0.008034	99
Es	-2.121146	-0.243416	0.607948	99
Es	2.329674	0.593668	-0.299867	99
Es	-2.107796	-1.239271	-0.041403	99
Es	0.334081	0.641018	-0.008035	99
Es	1.739656	0.640914	-0.008035	99
Es	1.062658	0.642930	-0.007390	99
Es	0.005369	1.278772	-0.023521	99
Es	0.027780	0.108289	0.319285	99
Es	3.628968	0.648260	-0.008898	99
Es	0.030402	0.093578	-0.313164	99
Es	2.338175	0.335265	0.178950	99
Es	-0.028830	-1.139977	0.031487	99
Es	-1.110540	-0.513462	0.010286	99
Es	-2.119018	-0.167874	-0.557405	99
Es	2.340632	0.984021	0.097426	99
Es	-0.369928	-0.500331	0.015156	99
29
Properties=species:S:1:pos:R:3:Z:I:1 energy=-192.8147952435218 field_type=dipole dipole="0.000000 0.000000 0.000000" charge=0
C	-1.861959	-0.535585	0.005443	6
C	-0.369839	-0.500255	0.015153	6
C	0.333931	0.640924	-0.008037	6
C	1.739931	0.640924	-0.008037	6
C	2.930091	0.640924	-0.008037	6
H	-2.209119	-1.571025	-0.064937	1
H	-2.262309	0.008395	-0.856757	1
H	-2.267409	-0.106835	0.925713	1
H	0.146071	-1.457355	0.038663	1
H	-0.174489	1.600594	-0.031167	1
H	3.995100	0.639295	-0.007997	1
Es	-2.111806	-1.238366	-0.039029	99
Es	0.334084	0.641019	-0.008033	99
Es	-1.861909	-0.535582	0.005437	99
Es	1.063009	0.643273	-0.007214	99
Es	2.329613	0.619784	0.262423	99
Es	0.026278	0.108090	0.320810	99
Es	0.032019	0.093487	-0.314320	99
Es	-2.118989	-0.167476	-0.554651	99
Es	3.629061	0.648768	-0.008062	99
Es	2.338319	0.313305	-0.159271	99
Es	-2.117749	-0.245312	0.602350	99
Es	2.340562	0.979672	-0.127577	99
Es	-0.030977	-1.136945	0.032160	99
Es	-1.110320	-0.513312	0.010925	99
Es	1.739655	0.640909	-0.008036	99
Es	0.007303	1.275808	-0.024803	99
Es	-0.369928	-0.500329	0.015155	99
Es	2.930374	0.640934	-0.008038	99
29
Properties=species:S:1:pos:R:3:Z:I:1 energy=-192.8147952435218 field_type=dipole dipole="0.000000 0.000000 0.000000" charge=0
C	-1.861959	-0.535585	0.005443	6
C	-0.369839	-0.500255	0.015153	6
C	0.333931	0.640924	-0.008037	6
C	1.739931	0.640924	-0.008037	6
C	2.930091	0.640924	-0.008037	6
H	-2.209119	-1.571025	-0.064937	1
H	-2.262309	0.008395	-0.856757	1
H	-2.267409	-0.106835	0.925713	1
H	0.146071	-1.457355	0.038663	1
H	-0.174489	1.600594	-0.031167	1
H	3.995100	0.639295	-0.007997	1
Es	-1.110209	-0.513414	0.010758	99
Es	2.338632	0.298188	-0.127366	99
Es	1.739654	0.640912	-0.008036	99
Es	-2.116304	-1.236637	-0.039051	99
Es	-2.116520	-0.245048	0.598387	99
Es	-1.861911	-0.535586	0.005443	99
Es	0.009477	1.273028	-0.024332	99
Es	1.063147	0.643805	-0.007354	99
Es	-2.116040	-0.169577	-0.550531	99
Es	2.340509	0.976768	-0.134981	99
Es	2.930374	0.640935	-0.008038	99
Es	3.629140	0.648847	-0.008213	99
Es	0.030316	0.092238	-0.316178	99
Es	0.334085	0.641018	-0.008050	99
Es	-0.033409	-1.133705	0.031585	99
Es	0.028204	0.108755	0.322932	99
Es	-0.369928	-0.500327	0.015157	99
Es	2.329381	0.637527	0.238099	99
29
Properties=species:S:1:pos:R:3:Z:I:1 energy=-192.8147952435218 field_type=dipole dipole="0.000000 0.000000 0.000000" charge=0
C	-1.861959	-0.535585	0.005443	6
C	-0.369839	-0.500255	0.015153	6
C	0.333931	0.640924	-0.008037	6
C	1.739931	0.640924	-0.008037	6
C	2.930091	0.640924	-0.008037	6
H	-2.209119	-1.571025	-0.064937	1
H	-2.262309	0.008395	-0.856757	1
H	-2.267409	-0.106835	0.925713	1
H	0.146071	-1.457355	0.038663	1
H	-0.174489	1.600594	-0.031167	1
H	3.995100	0.639295	-0.007997	1
Es	1.063213	0.644142	-0.007209	99
Es	2.341049	0.992049	0.073641	99
Es	-2.111674	-0.173611	-0.545472	99
Es	3.629247	0.648384	-0.008713	99
Es	0.027587	0.107472	0.325018	99
Es	0.334085	0.641017	-0.008039	99
Es	-2.116826	-0.243330	0.595710	99
Es	-0.036039	-1.130080	0.031320	99
Es	0.011755	1.270342	-0.023698	99
Es	2.338435	0.303906	0.127190	99
Es	-1.861915	-0.535581	0.005443	99
Es	2.930374	0.640939	-0.008040	99
Es	0.031251	0.092636	-0.318822	99
Es	2.329027	0.616641	-0.224583	99
Es	-2.120562	-1.234143	-0.040898	99
Es	-0.369929	-0.500330	0.015154	99
Es	1.739653	0.640912	-0.008036	99
Es	-1.110133	-0.513637	0.010264	99
29
Properties=species:S:1:pos:R:3:Z:I:1 energy=-192.8147952435218 field_type=dipole dipole="0.000000 0.000000 0.000000" charge=0
C	-1.861959	-0.535585	0.005443	6
C	-0.369839	-0.500255	0.015153	6
C	0.333931	0.640924	-0.008037	6
C	1.739931	0.640924	-0.008037	6
C	2.930091	0.640924	-0.008037	6
H	-2.209119	-1.571025	-0.064937	1
H	-2.262309	0.008395	-0.856757	1
H	-2.267409	-0.106835	0.925713	1
H	0.146071	-1.457355	0.038663	1
H	-0.174489	1.600594	-0.031167	1
H	3.995100	0.639295	-0.007997	1
Es	0.031883	0.091393	-0.320856	99
Es	-0.038654	-1.126380	0.031669	99
Es	0.013846	1.267917	-0.024300	99
Es	1.739654	0.640904	-0.008035	99
Es	-1.110102	-0.513621	0.010533	99
Es	-2.111309	-0.173366	-0.543434	99
Es	2.338552	0.289259	-0.102093	99
Es	2.340915	0.987277	-0.107685	99
Es	0.334086	0.641019	-0.008037	99
Es	0.027456	0.107435	0.327450	99
Es	-2.112199	-0.246748	0.588748	99
Es	-1.861911	-0.535587	0.005442	99
Es	2.930374	0.640935	-0.008048	99
Es	-2.125690	-1.230672	-0.036278	99
Es	2.329066	0.635885	0.185558	99
Es	-0.369929	-0.500328	0.015154	99
Es	1.063227	0.644433	-0.007294	99
Es	3.629333	0.647972	-0.008265	99
29
Properties=species:S:1:pos:R:3:Z:I:1 energy=-192.8147952435218 field_type=dipole dipole="0.000000 0.000000 0.000000" charge=0
C	-1.861959	-0.535585	0.005443	6
C	-0.369839	-0.500255	0.015153	6
C	0.333931	0.640924	-0.008037	6
C	1.739931	0.640924	-0.008037	6
C	2.930091	0.640924	-0.008037	6
H	-2.209119	-1.571025	-0.064937	1
H	-2.262309	0.008395	-0.856757	1
H	-2.267409	-0.106835	0.925713	1
H	0.146071	-1.457355	0.038663	1
H	-0.174489	1.600594	-0.031167	1
H	3.995100	0.639295	-0.007997	1
Es	1.063244	0.644468	-0.007276	99
Es	3.629422	0.647403	-0.008230	99
Es	2.328920	0.636148	0.153729	99
Es	2.930375	0.640932	-0.008038	99
Es	1.739654	0.640910	-0.008034	99
Es	-2.129936	-1.226821	-0.036132	99
Es	0.033889	0.091695	-0.322846	99
Es	-1.861910	-0.535586	0.005441	99
Es	-0.369930	-0.500329	0.015155	99
Es	0.334086	0.641018	-0.008033	99
Es	-1.110070	-0.513786	0.010393	99
Es	-2.110231	-0.248252	0.584930	99
Es	-2.109135	-0.175258	-0.539674	99
Es	0.015798	1.265632	-0.024239	99
Es	2.338521	0.284774	-0.085245	99
Es	-0.041117	-1.122496	0.031678	99
Es	0.025947	0.105618	0.329259	99
Es	2.341070	0.991657	-0.092608	99
29
Properties=species:S:1:pos:R:3:Z:I:1 energy=-192.8147952435218 field_type=dipole dipole="0.000000 0.000000 0.000000" charge=0
C	-1.861959	-0.535585	0.005443	6
C	-0.369839	-0.500255	0.015153	6
C	0.333931	0.640924	-0.008037	6
C	1.739931	0.640924	-0.008037	6
C	2.930091	0.640924	-0.008037	6
H	-2.209119	-1.571025	-0.064937	1
H	-2.262309	0.008395	-0.856757	1
H	-2.267409	-0.106835	0.925713	1
H	0.146071	-1.457355	0.038663	1
H	-0.174489	1.600594	-0.031167	1
H	3.995100	0.639295	-0.007997	1
Es	1.739653	0.640911	-0.008036	99
Es	-2.107702	-0.176634	-0.536927	99
Es	0.334086	0.641018	-0.008037	99
Es	-0.369930	-0.500326	0.015153	99
Es	-2.133494	-1.223051	-0.035080	99
Es	-0.043269	-1.118797	0.031712	99
Es	3.629489	0.646904	-0.008425	99
Es	2.338511	0.281462	-0.069006	99
Es	0.026614	0.105896	0.331713	99
Es	0.017476	1.263531	-0.024778	99
Es	-1.110042	-0.513962	0.010444	99
Es	1.063236	0.644608	-0.007357	99
Es	2.930375	0.640935	-0.008044	99
Es	-2.108184	-0.250192	0.581181	99
Es	0.033684	0.089896	-0.324767	99
Es	2.328786	0.634673	0.116639	99
Es	-1.861912	-0.535580	0.005457	99
Es	2.341221	0.996435	-0.071613	99
29
Properties=species:S:1:pos:R:3:Z:I:1 energy=-192.8147952435218 field_type=dipole dipole="0.000000 0.000000 0.000000" charge=0
C	-1.861959	-0.535585	0.005443	6
C	-0.369839	-0.500255	0.015153	6
C	0.333931	0.640924	-0.008037	6
C	1.739931	0.640924	-0.008037	6
C	2.930091	0.640924	-0.008037	6
H	-2.209119	-1.571025	-0.064937	1
H	-2.262309	0.008395	-0.856757	1
H	-2.267409	-0.106835	0.925713	1
H	0.146071	-1.457355	0.038663	1
H	-0.174489	1.600594	-0.031167	1
H	3.995100	0.639295	-0.007997	1
Es	0.035498	0.090994	-0.325665	99
Es	2.930375	0.640935	-0.008037	99
Es	0.025738	0.102548	0.331960	99
Es	0.334086	0.641023	-0.008034	99
Es	-1.110018	-0.514157	0.010310	99
Es	2.341341	1.001312	0.019304	99
Es	0.018337	1.262435	-0.023784	99
Es	2.328609	0.630513	-0.092102	99
Es	-2.109078	-0.248693	0.579766	99
Es	-2.136557	-1.219254	-0.038324	99
Es	1.739653	0.640911	-0.008038	99
Es	2.338558	0.280815	0.048785	99
Es	-2.103807	-0.181531	-0.532220	99
Es	-0.045069	-1.115438	0.031268	99
Es	-0.369929	-0.500328	0.015157	99
Es	1.063223	0.644777	-0.007236	99
Es	3.629548	0.646445	-0.008313	99
Es	-1.861911	-0.535579	0.005433	99
29
Properties=species:S:1:pos:R:3:Z:I:1 energy=-192.8147952435218 field_type=dipole dipole="0.000000 0.000000 0.000000" charge=0
C	-1.861959	-0.535585	0.005443	6
C	-0.369839	-0.500255	0.015153	6
C	0.333931	0.640924	-0.008037	6
C	1.739931	0.640924	-0.008037	6
C	2.930091	0.640924	-0.008037	6
H	-2.209119	-1.571025	-0.064937	1
H	-2.262309	0.008395	-0.856757	1
H	-2.267409	-0.106835	0.925713	1
H	0.146071	-1.457355	0.038663	1
H	-0.174489	1.600594	-0.031167	1
H	3.995100	0.639295	-0.007997	1
Es	2.930375	0.640930	-0.008038	99
Es	-0.046149	-1.113393	0.031658	99
Es	2.338533	0.277471	-0.035932	99
Es	2.341340	1.000552	-0.043717	99
Es	0.018465	1.262344	-0.024391	99
Es	-1.861908	-0.535588	0.005443	99
Es	-0.369930	-0.500329	0.015156	99
Es	3.629581	0.646173	-0.008194	99
Es	0.037485	0.090360	-0.325106	99
Es	0.024698	0.101249	0.331555	99
Es	-2.140409	-1.214358	-0.035101	99
Es	1.063230	0.644746	-0.007215	99
Es	-2.103261	-0.182153	-0.530230	99
Es	2.328639	0.634570	0.055590	99
Es	0.334087	0.641017	-0.008037	99
Es	-1.110020	-0.514081	0.010466	99
Es	1.739653	0.640929	-0.008035	99
Es	-2.105812	-0.252712	0.574356	99
29
Properties=species:S:1:pos:R:3:Z:I:1 energy=-192.8147952435218 field_type=dipole dipole="0.000000 0.000000 0.000000" charge=0
C	-1.861959	-0.535585	0.005443	6
C	-0.369839	-0.500255	0.015153	6
C	0.333931	0.640924	-0.008037	6
C	1.739931	0.640924	-0.008037	6
C	2.930091	0.640924	-0.008037	6
H	-2.209119	-1.571025	-0.064937	1
H	-2.262309	0.008395	-0.856757	1
H	-2.267409	-0.106835	0.925713	1
H	0.146071	-1.457355	0.038663	1
H	-0.174489	1.600594	-0.031167	1
H	3.995100	0.639295	-0.007997	1
Es	-0.369930	-0.500327	0.015152	99
Es	-2.143757	-1.209525	-0.033610	99
Es	2.930375	0.640935	-0.008036	99
Es	-1.861908	-0.535583	0.005440	99
Es	0.036609	0.088217	-0.325874	99
Es	0.018397	1.262462	-0.024846	99
Es	-2.100650	-0.185980	-0.527024	99
Es	2.341384	1.002376	-0.005497	99
Es	0.334086	0.641022	-0.008053	99
Es	2.338557	0.276714	0.004268	99
Es	-2.105101	-0.253578	0.569872	99
Es	1.739653	0.640912	-0.008038	99
Es	0.026422	0.101789	0.333110	99
Es	-1.110017	-0.514037	0.010287	99
Es	1.063235	0.644733	-0.007366	99
Es	2.328569	0.633541	-0.022769	99
Es	-0.046939	-1.111830	0.031512	99
Es	3.629614	0.645885	-0.008298	99
29
Properties=species:S:1:pos:R:3:Z:I:1 energy=-192.8147952435218 field_type=dipole dipole="0.000000 0.000000 0.000000" charge=0
C	-1.861959	-0.535585	0.005443	6
C	-0.369839	-0.500255	0.015153	6
C	0.333931	0.640924	-0.008037	6
C	1.739931	0.640924	-0.008037	6
C	2.930091	0.640924	-0.008037	6
H	-2.209119	-1.571025	-0.064937	1
H	-2.262309	0.008395	-0.856757	1
H	-2.267409	-0.106835	0.925713	1
H	0.146071	-1.457355	0.038663	1
H	-0.174489	1.600594	-0.031167	1
H	3.995100	0.639295	-0.007997	1
Es	2.341020	0.999634	-0.055328	99
Es	1.739653	0.640911	-0.008040	99
Es	-0.038296	-1.126887	0.032121	99
Es	-1.861908	-0.535589	0.005442	99
Es	0.034482	0.089590	-0.317424	99
Es	-1.110297	-0.512286	0.012802	99
Es	2.930375	0.640932	-0.008033	99
Es	-2.079315	-0.219389	-0.479436	99
Es	1.063383	0.643606	-0.007615	99
Es	0.334085	0.641016	-0.008038	99
Es	-2.147986	-1.201649	-0.008700	99
Es	2.335061	0.416675	-0.232255	99
Es	-0.369929	-0.500328	0.015154	99
Es	-2.121795	-0.230613	0.493867	99
Es	0.026780	0.107720	0.324837	99
Es	3.629432	0.647118	-0.005950	99
Es	0.011543	1.270097	-0.026507	99
Es	2.332310	0.497167	0.263331	99
29
Properties=species:S:1:pos:R:3:Z:I:1 energy=-192.8147952435218 field_type=dipole dipole="0.000000 0.000000 0.000000" charge=0
C	-1.861959	-0.535585	0.005443	6
C	-0.369839	-0.500255	0.015153	6
C	0.333931	0.640924	-0.008037	6
C	1.739931	0.640924	-0.008037	6
C	2.930091	0.640924	-0.008037	6
H	-2.209119	-1.571025	-0.064937	1
H	-2.262309	0.008395	-0.856757	1
H	-2.267409	-0.106835	0.925713	1
H	0.146071	-1.457355	0.038663	1
H	-0.174489	1.600594	-0.031167	1
H	3.995100	0.639295	-0.007997	1
Es	2.338551	0.276619	-0.000638	99
Es	-1.110016	-0.513980	0.010531	99
Es	0.029584	0.101602	0.332650	99
Es	-0.369930	-0.500326	0.015158	99
Es	-2.094266	-0.195681	-0.518280	99
Es	-2.150584	-1.198362	-0.032176	99
Es	3.629650	0.645546	-0.008146	99
Es	-1.861908	-0.535586	0.005441	99
Es	0.334085	0.641012	-0.008009	99
Es	2.328586	0.634019	0.001633	99
Es	2.930375	0.640932	-0.008037	99
Es	1.739653	0.640915	-0.008031	99
Es	0.035158	0.085802	-0.326188	99
Es	1.063237	0.644671	-0.007292	99
Es	-0.047380	-1.111003	0.031307	99
Es	0.017118	1.264392	-0.024018	99
Es	-2.104687	-0.254845	0.559340	99
Es	2.341371	1.002002	-0.025014	99
29
Properties=species:S:1:pos:R:3:Z:I:1 energy=-192.8147952435218 field_type=dipole dipole="0.000000 0.000000 0.000000" charge=0
C	-1.861959	-0.535585	0.005443	6
C	-0.369839	-0.500255	0.015153	6
C	0.333931	0.640924	-0.008037	6
C	1.739931	0.640924	-0.008037	6
C	2.930091	0.640924	-0.008037	6
H	-2.209119	-1.571025	-0.064937	1
H	-2.262309	0.008395	-0.856757	1
H	-2.267409	-0.106835	0.925713	1
H	0.146071	-1.457355	0.038663	1
H	-0.174489	1.600594	-0.031167	1
H	3.995100	0.639295	-0.007997	1
Es	3.629539	0.646543	-0.007513	99
Es	-1.861910	-0.535583	0.005439	99
Es	0.334086	0.641016	-0.008023	99
Es	2.341649	0.998537	0.030864	99
Es	0.066525	0.124275	-0.134741	99
Es	2.930375	0.640936	-0.008033	99
Es	2.335554	0.400249	0.228873	99
Es	-2.107350	-0.251211	0.577475	99
Es	1.739653	0.640911	-0.008040	99
Es	-2.101388	-0.185003	-0.525988	99
Es	-1.110050	-0.513853	0.010536	99
Es	-0.369929	-0.500326	0.015154	99
Es	-0.014577	0.084521	0.139310	99
Es	-0.040098	-1.124062	0.031439	99
Es	1.063287	0.644332	-0.006719	99
Es	2.331275	0.514088	-0.283789	99
Es	-2.140667	-1.213659	-0.043060	99
Es	0.022625	1.256017	-0.022956	99
29
Properties=species:S:1:pos:R:3:Z:I:1 energy=-192.8147952435218 field_type=dipole dipole="0.000000 0.000000 0.000000" charge=0
C	-1.861959	-0.535585	0.005443	6
C	-0.369839	-0.500255	0.015153	6
C	0.333931	0.640924	-0.008037	6
C	1.739931	0.640924	-0.008037	6
C	2.930091	0.640924	-0.008037	6
H	-2.209119	-1.571025	-0.064937	1
H	-2.262309	0.008395	-0.856757	1
H	-2.267409	-0.106835	0.925713	1
H	0.146071	-1.457355	0.038663	1
H	-0.174489	1.600594	-0.031167	1
H	3.995100	0.639295	-0.007997	1
Es	-0.048285	-1.109094	0.031710	99
Es	-2.152249	-1.195241	-0.032673	99
Es	0.018777	1.262049	-0.025339	99
Es	-2.097196	-0.191760	-0.518873	99
Es	2.341382	1.001899	0.008770	99
Es	3.629683	0.645229	-0.007822	99
Es	-0.369930	-0.500327	0.015155	99
Es	2.930376	0.640931	-0.008037	99
Es	-1.110002	-0.514154	0.010569	99
Es	-1.861909	-0.535588	0.005443	99
Es	0.334086	0.641014	-0.008035	99
Es	2.338523	0.276738	-0.002523	99
Es	2.328600	0.634045	-0.030236	99
Es	1.063225	0.644854	-0.007105	99
Es	-2.100131	-0.261463	0.560133	99
Es	0.046653	0.095807	-0.310170	99
Es	0.017344	0.091873	0.317299	99
Es	1.739653	0.640915	-0.008038	99
29
Properties=species:S:1:pos:R:3:Z:I:1 energy=-192.8147952435218 field_type=dipole dipole="0.000000 0.000000 0.000000" charge=0
C	-1.861959	-0.535585	0.005443	6
C	-0.369839	-0.500255	0.015153	6
C	0.333931	0.640924	-0.008037	6
C	1.739931	0.640924	-0.008037	6
C	2.930091	0.640924	-0.008037	6
H	-2.209119	-1.571025	-0.064937	1
H	-2.262309	0.008395	-0.856757	1
H	-2.267409	-0.106835	0.925713	1
H	0.146071	-1.457355	0.038663	1
H	-0.174489	1.600594	-0.031167	1
H	3.995100	0.639295	-0.007997	1
Es	-2.103014	-0.259248	0.545097	99
Es	2.328578	0.633554	-0.014391	99
Es	-1.861908	-0.535585	0.005443	99
Es	-2.090116	-0.202119	-0.511870	99
Es	0.016227	1.265465	-0.024180	99
Es	2.338538	0.276750	0.001164	99
Es	-0.048248	-1.109298	0.031138	99
Es	-0.369928	-0.500325	0.015151	99
Es	0.334086	0.641025	-0.008037	99
Es	3.629683	0.645213	-0.008346	99
Es	2.341386	1.002419	-0.010719	99
Es	0.034302	0.103819	0.331399	99
Es	-1.110022	-0.513856	0.010538	99
Es	0.032209	0.080597	-0.324424	99
Es	1.739653	0.640914	-0.008031	99
Es	1.063232	0.644763	-0.007469	99
Es	2.930376	0.640929	-0.008038	99
Es	-2.156434	-1.187289	-0.024194	99
