29
Properties=species:S:1:pos:R:3:Z:I:1 energy=-192.81319929536596 field_type=dipole dipole="0.000000 0.000000 0.000000" charge=0
C	-1.440354	-0.200146	-0.004593	6
C	0.060525	-0.211656	-0.000503	6
C	0.745795	-1.364916	0.007357	6
C	0.776056	1.022484	-0.002003	6
C	1.375565	2.061674	-0.001953	6
H	-1.834454	0.821664	0.022177	1
H	-1.833385	-0.728286	0.870697	1
H	-1.826774	-0.680636	-0.909703	1
H	0.235836	-2.322796	0.009297	1
H	1.831655	-1.382296	0.011147	1
H	1.909535	2.984914	-0.001923	1
Es	0.399860	-2.015091	0.008804	99
Es	1.271036	1.424279	0.270971	99
Es	0.418010	-0.765994	-0.317649	99
Es	0.745833	-1.364996	0.007354	99
Es	0.775931	1.022269	-0.002006	99
Es	1.476833	-1.383226	0.009795	99
Es	-1.689532	-0.528650	-0.613386	99
Es	-1.701678	0.490460	0.013560	99
Es	1.375687	2.061883	-0.001956	99
Es	-0.675645	-0.186494	-0.002478	99
Es	1.723817	2.663349	-0.002033	99
Es	-1.440291	-0.200149	-0.004592	99
Es	0.416119	-0.762936	0.324588	99
Es	0.773978	1.731365	0.052919	99
Es	0.421006	0.432702	-0.001601	99
Es	0.060498	-0.211465	-0.000485	99
Es	1.184394	1.465661	-0.330155	99
Es	-1.694150	-0.561632	0.583955	99
29
Properties=species:S:1:pos:R:3:Z:I:1 energy=-192.81319929536596 field_type=dipole dipole="0.000000 0.000000 0.000000" charge=0
C	-1.440354	-0.200146	-0.004593	6
C	0.060525	-0.211656	-0.000503	6
C	0.745795	-1.364916	0.007357	6
C	0.776056	1.022484	-0.002003	6
C	1.375565	2.061674	-0.001953	6
H	-1.834454	0.821664	0.022177	1
H	-1.833385	-0.728286	0.870697	1
H	-1.826774	-0.680636	-0.909703	1
H	0.235836	-2.322796	0.009297	1
H	1.831655	-1.382296	0.011147	1
H	1.909535	2.984914	-0.001923	1
Es	1.375686	2.061897	-0.001953	99
Es	0.398583	-2.018958	0.008721	99
Es	-1.692531	-0.562990	0.582032	99
Es	1.473911	-1.380940	0.009833	99
Es	-0.675229	-0.190289	-0.002676	99
Es	1.394832	1.372304	-0.030389	99
Es	0.941272	1.607703	0.306153	99
Es	0.416257	-0.763141	0.319805	99
Es	0.894190	1.640432	-0.281901	99
Es	0.775926	1.022258	-0.002004	99
Es	-1.440289	-0.200150	-0.004594	99
Es	0.425774	0.432686	-0.001789	99
Es	0.060488	-0.211450	-0.000507	99
Es	1.719406	2.667984	-0.001755	99
Es	-1.703237	0.494866	0.013331	99
Es	0.745832	-1.364997	0.007355	99
Es	-1.687415	-0.529769	-0.611087	99
Es	0.418249	-0.766112	-0.312966	99
29
Properties=species:S:1:pos:R:3:Z:I:1 energy=-192.81319929536596 field_type=dipole dipole="0.000000 0.000000 0.000000" charge=0
C	-1.440354	-0.200146	-0.004593	6
C	0.060525	-0.211656	-0.000503	6
C	0.745795	-1.364916	0.007357	6
C	0.776056	1.022484	-0.002003	6
C	1.375565	2.061674	-0.001953	6
H	-1.834454	0.821664	0.022177	1
H	-1.833385	-0.728286	0.870697	1
H	-1.826774	-0.680636	-0.909703	1
H	0.235836	-2.322796	0.009297	1
H	1.831655	-1.382296	0.011147	1
H	1.909535	2.984914	-0.001923	1
Es	1.114703	1.500715	-0.311244	99
Es	-0.675133	-0.192792	-0.002889	99
Es	0.398472	-2.020769	0.008745	99
Es	1.375687	2.061903	-0.001956	99
Es	1.332756	1.398017	0.198497	99
Es	0.417997	-0.766017	-0.310471	99
Es	1.471324	-1.379874	0.009543	99
Es	0.060492	-0.211455	-0.000506	99
Es	0.782438	1.721881	0.107294	99
Es	-1.692437	-0.564803	0.581372	99
Es	-1.702817	0.497260	0.013006	99
Es	0.416225	-0.762873	0.317741	99
Es	0.427524	0.433030	-0.001815	99
Es	0.745832	-1.364997	0.007356	99
Es	1.718654	2.669151	-0.002625	99
Es	0.775930	1.022250	-0.002005	99
Es	-1.440287	-0.200150	-0.004593	99
Es	-1.685653	-0.529142	-0.609844	99
29
Properties=species:S:1:pos:R:3:Z:I:1 energy=-192.81319929536596 field_type=dipole dipole="0.000000 0.000000 0.000000" charge=0
C	-1.440354	-0.200146	-0.004593	6
C	0.060525	-0.211656	-0.000503	6
C	0.745795	-1.364916	0.007357	6
C	0.776056	1.022484	-0.002003	6
C	1.375565	2.061674	-0.001953	6
H	-1.834454	0.821664	0.022177	1
H	-1.833385	-0.728286	0.870697	1
H	-1.826774	-0.680636	-0.909703	1
H	0.235836	-2.322796	0.009297	1
H	1.831655	-1.382296	0.011147	1
H	1.909535	2.984914	-0.001923	1
Es	0.060493	-0.211452	-0.000502	99
Es	1.364992	1.383243	-0.151052	99
Es	0.418526	-0.765619	-0.310296	99
Es	-1.691285	-0.564855	0.581149	99
Es	0.775933	1.022246	-0.002008	99
Es	1.468244	-1.379557	0.010111	99
Es	-1.440286	-0.200151	-0.004594	99
Es	0.787776	1.717470	-0.132871	99
Es	0.428230	0.433433	-0.001956	99
Es	1.077646	1.519635	0.277513	99
Es	0.415795	-0.762926	0.317096	99
Es	0.745831	-1.364998	0.007357	99
Es	0.398721	-2.021906	0.008471	99
Es	-1.700801	0.499354	0.013301	99
Es	-1.685190	-0.530267	-0.610083	99
Es	1.375685	2.061906	-0.001950	99
Es	-0.675906	-0.194296	-0.003072	99
Es	1.717301	2.670074	-0.001005	99
29
Properties=species:S:1:pos:R:3:Z:I:1 energy=-192.81319929536596 field_type=dipole dipole="0.000000 0.000000 0.000000" charge=0
C	-1.440354	-0.200146	-0.004593	6
C	0.060525	-0.211656	-0.000503	6
C	0.745795	-1.364916	0.007357	6
C	0.776056	1.022484	-0.002003	6
C	1.375565	2.061674	-0.001953	6
H	-1.834454	0.821664	0.022177	1
H	-1.833385	-0.728286	0.870697	1
H	-1.826774	-0.680636	-0.909703	1
H	0.235836	-2.322796	0.009297	1
H	1.831655	-1.382296	0.011147	1
H	1.909535	2.984914	-0.001923	1
Es	-1.440286	-0.200150	-0.004594	99
Es	0.416860	-0.761976	0.317009	99
Es	0.745831	-1.364997	0.007358	99
Es	-1.693504	-0.569710	0.580557	99
Es	0.428520	0.433688	-0.001587	99
Es	1.717008	2.670363	-0.002272	99
Es	0.775938	1.022242	-0.002001	99
Es	1.465594	-1.379572	0.008792	99
Es	1.090749	1.511486	-0.252657	99
Es	0.060492	-0.211453	-0.000505	99
Es	0.777152	1.724999	0.094329	99
Es	0.417667	-0.765947	-0.310166	99
Es	-1.697979	0.501044	0.012935	99
Es	0.398884	-2.022514	0.008461	99
Es	1.375686	2.061906	-0.001959	99
Es	-1.681841	-0.526378	-0.608821	99
Es	-0.677511	-0.195575	-0.002079	99
Es	1.362446	1.383880	0.152807	99
29
Properties=species:S:1:pos:R:3:Z:I:1 energy=-192.81319929536596 field_type=dipole dipole="0.000000 0.000000 0.000000" charge=0
C	-1.440354	-0.200146	-0.004593	6
C	0.060525	-0.211656	-0.000503	6
C	0.745795	-1.364916	0.007357	6
C	0.776056	1.022484	-0.002003	6
C	1.375565	2.061674	-0.001953	6
H	-1.834454	0.821664	0.022177	1
H	-1.833385	-0.728286	0.870697	1
H	-1.826774	-0.680636	-0.909703	1
H	0.235836	-2.322796	0.009297	1
H	1.831655	-1.382296	0.011147	1
H	1.909535	2.984914	-0.001923	1
Es	0.416227	-0.761821	0.319059	99
Es	1.384196	1.373362	-0.102061	99
Es	1.375682	2.061910	-0.001952	99
Es	0.775997	1.725582	-0.095591	99
Es	0.428297	0.434017	-0.002157	99
Es	0.418937	-0.765234	-0.311798	99
Es	-1.693092	0.502493	0.013369	99
Es	-1.682991	-0.529716	-0.610569	99
Es	1.716848	2.670507	-0.000897	99
Es	0.398986	-2.022892	0.008322	99
Es	0.060495	-0.211451	-0.000509	99
Es	0.775937	1.022242	-0.002003	99
Es	-1.440287	-0.200151	-0.004593	99
Es	-0.680111	-0.195870	-0.003472	99
Es	1.070431	1.521304	0.191352	99
Es	0.745831	-1.364998	0.007356	99
Es	1.461385	-1.380303	0.010054	99
Es	-1.691061	-0.567647	0.581696	99
29
Properties=species:S:1:pos:R:3:Z:I:1 energy=-192.81319929536596 field_type=dipole dipole="0.000000 0.000000 0.000000" charge=0
C	-1.440354	-0.200146	-0.004593	6
C	0.060525	-0.211656	-0.000503	6
C	0.745795	-1.364916	0.007357	6
C	0.776056	1.022484	-0.002003	6
C	1.375565	2.061674	-0.001953	6
H	-1.834454	0.821664	0.022177	1
H	-1.833385	-0.728286	0.870697	1
H	-1.826774	-0.680636	-0.909703	1
H	0.235836	-2.322796	0.009297	1
H	1.831655	-1.382296	0.011147	1
H	1.909535	2.984914	-0.001923	1
Es	0.417827	-0.765715	-0.313172	99
Es	1.717011	2.670490	-0.001370	99
Es	1.457986	-1.380818	0.008611	99
Es	-1.695123	-0.574966	0.579264	99
Es	0.770150	1.729756	0.059642	99
Es	-1.688256	0.503428	0.013487	99
Es	0.417851	-0.760614	0.320226	99
Es	-0.683047	-0.196071	-0.001806	99
Es	1.073333	1.518906	-0.150957	99
Es	0.428182	0.434171	-0.001865	99
Es	-1.677995	-0.523304	-0.608325	99
Es	0.398939	-2.023044	0.008065	99
Es	0.745829	-1.364997	0.007365	99
Es	1.375682	2.061910	-0.001952	99
Es	0.060492	-0.211448	-0.000512	99
Es	-1.440285	-0.200151	-0.004593	99
Es	1.387193	1.371559	0.085505	99
Es	0.775934	1.022242	-0.002003	99
29
Properties=species:S:1:pos:R:3:Z:I:1 energy=-192.81319929536596 field_type=dipole dipole="0.000000 0.000000 0.000000" charge=0
C	-1.440354	-0.200146	-0.004593	6
C	0.060525	-0.211656	-0.000503	6
C	0.745795	-1.364916	0.007357	6
C	0.776056	1.022484	-0.002003	6
C	1.375565	2.061674	-0.001953	6
H	-1.834454	0.821664	0.022177	1
H	-1.833385	-0.728286	0.870697	1
H	-1.826774	-0.680636	-0.909703	1
H	0.235836	-2.322796	0.009297	1
H	1.831655	-1.382296	0.011147	1
H	1.909535	2.984914	-0.001923	1
Es	1.393363	1.368358	0.048791	99
Es	-1.676543	-0.522105	-0.607689	99
Es	1.717225	2.670422	-0.000821	99
Es	1.454248	-1.381362	0.008519	99
Es	-1.440288	-0.200151	-0.004592	99
Es	-0.686548	-0.196172	-0.001709	99
Es	-1.695736	-0.576957	0.578238	99
Es	1.070655	1.519658	-0.080876	99
Es	-1.683192	0.503961	0.013844	99
Es	0.060494	-0.211451	-0.000500	99
Es	0.418468	-0.765418	-0.314578	99
Es	0.418599	-0.760002	0.321629	99
Es	1.375685	2.061909	-0.001946	99
Es	0.745829	-1.364998	0.007351	99
Es	0.766684	1.732196	0.026046	99
Es	0.775939	1.022241	-0.002000	99
Es	0.398774	-2.023084	0.007750	99
Es	0.428048	0.434288	-0.001850	99
29
Properties=species:S:1:pos:R:3:Z:I:1 energy=-192.81319929536596 field_type=dipole dipole="0.000000 0.000000 0.000000" charge=0
C	-1.440354	-0.200146	-0.004593	6
C	0.060525	-0.211656	-0.000503	6
C	0.745795	-1.364916	0.007357	6
C	0.776056	1.022484	-0.002003	6
C	1.375565	2.061674	-0.001953	6
H	-1.834454	0.821664	0.022177	1
H	-1.833385	-0.728286	0.870697	1
H	-1.826774	-0.680636	-0.909703	1
H	0.235836	-2.322796	0.009297	1
H	1.831655	-1.382296	0.011147	1
H	1.909535	2.984914	-0.001923	1
Es	0.428101	0.434313	-0.002026	99
Es	1.717286	2.670380	0.000126	99
Es	-1.699438	-0.583700	0.572207	99
Es	0.398627	-2.023074	0.007085	99
Es	0.766053	1.732668	0.009158	99
Es	-0.690009	-0.195960	-0.001116	99
Es	-1.671912	-0.516004	-0.602543	99
Es	0.745828	-1.364997	0.007352	99
Es	1.452596	-1.381477	0.007955	99
Es	-1.440284	-0.200152	-0.004593	99
Es	1.394453	1.367772	0.036817	99
Es	0.060491	-0.211448	-0.000495	99
Es	0.775935	1.022242	-0.002008	99
Es	1.070231	1.519756	-0.051995	99
Es	0.417579	-0.766550	-0.313791	99
Es	-1.678748	0.504197	0.014559	99
Es	0.419239	-0.758543	0.320868	99
Es	1.375676	2.061913	-0.001952	99
29
Properties=species:S:1:pos:R:3:Z:I:1 energy=-192.81319929536596 field_type=dipole dipole="0.000000 0.000000 0.000000" charge=0
C	-1.440354	-0.200146	-0.004593	6
C	0.060525	-0.211656	-0.000503	6
C	0.745795	-1.364916	0.007357	6
C	0.776056	1.022484	-0.002003	6
C	1.375565	2.061674	-0.001953	6
H	-1.834454	0.821664	0.022177	1
H	-1.833385	-0.728286	0.870697	1
H	-1.826774	-0.680636	-0.909703	1
H	0.235836	-2.322796	0.009297	1
H	1.831655	-1.382296	0.011147	1
H	1.909535	2.984914	-0.001923	1
Es	-1.704476	-0.591658	0.561075	99
Es	0.398550	-2.023047	0.006327	99
Es	0.420088	-0.757220	0.319688	99
Es	1.450200	-1.381687	0.007540	99
Es	-1.675809	0.504186	0.015485	99
Es	-1.440287	-0.200152	-0.004593	99
Es	0.428041	0.434370	-0.002075	99
Es	1.071778	1.519051	-0.076091	99
Es	0.745829	-1.364998	0.007352	99
Es	1.375681	2.061910	-0.001945	99
Es	1.392319	1.368705	0.053062	99
Es	0.417525	-0.767586	-0.312600	99
Es	0.060494	-0.211451	-0.000509	99
Es	0.775937	1.022241	-0.002011	99
Es	-1.666386	-0.508357	-0.592626	99
Es	-0.691807	-0.195711	-0.000581	99
Es	0.766667	1.732422	0.017103	99
Es	1.717362	2.670314	0.001008	99
29
Properties=species:S:1:pos:R:3:Z:I:1 energy=-192.81319929536596 field_type=dipole dipole="0.000000 0.000000 0.000000" charge=0
C	-1.440354	-0.200146	-0.004593	6
C	0.060525	-0.211656	-0.000503	6
C	0.745795	-1.364916	0.007357	6
C	0.776056	1.022484	-0.002003	6
C	1.375565	2.061674	-0.001953	6
H	-1.834454	0.821664	0.022177	1
H	-1.833385	-0.728286	0.870697	1
H	-1.826774	-0.680636	-0.909703	1
H	0.235836	-2.322796	0.009297	1
H	1.831655	-1.382296	0.011147	1
H	1.909535	2.984914	-0.001923	1
Es	-1.663555	-0.504731	-0.586392	99
Es	0.398515	-2.023040	0.005905	99
Es	0.060490	-0.211448	-0.000499	99
Es	1.392127	1.368783	0.053343	99
Es	-0.693926	-0.195186	-0.000565	99
Es	1.072051	1.518903	-0.072241	99
Es	0.766531	1.732515	0.012915	99
Es	0.416716	-0.768755	-0.309612	99
Es	-1.706765	-0.595646	0.554318	99
Es	0.775937	1.022241	-0.002013	99
Es	1.448565	-1.381751	0.006924	99
Es	1.717486	2.670230	0.001642	99
Es	0.428076	0.434378	-0.002192	99
Es	-1.672424	0.504061	0.015913	99
Es	-1.440286	-0.200152	-0.004594	99
Es	0.745830	-1.364999	0.007360	99
Es	0.420656	-0.755979	0.317346	99
Es	1.375681	2.061910	-0.001948	99
29
Properties=species:S:1:pos:R:3:Z:I:1 energy=-192.81319929536596 field_type=dipole dipole="0.000000 0.000000 0.000000" charge=0
C	-1.440354	-0.200146	-0.004593	6
C	0.060525	-0.211656	-0.000503	6
C	0.745795	-1.364916	0.007357	6
C	0.776056	1.022484	-0.002003	6
C	1.375565	2.061674	-0.001953	6
H	-1.834454	0.821664	0.022177	1
H	-1.833385	-0.728286	0.870697	1
H	-1.826774	-0.680636	-0.909703	1
H	0.235836	-2.322796	0.009297	1
H	1.831655	-1.382296	0.011147	1
H	1.909535	2.984914	-0.001923	1
Es	0.428102	0.434388	-0.002264	99
Es	0.775939	1.022240	-0.002010	99
Es	1.717585	2.670161	0.002105	99
Es	0.745830	-1.364998	0.007347	99
Es	-1.670143	0.503906	0.016350	99
Es	-1.661030	-0.501478	-0.579934	99
Es	0.421136	-0.754966	0.314356	99
Es	1.375687	2.061908	-0.001944	99
Es	0.398364	-2.022977	0.005559	99
Es	0.766742	1.732449	0.014541	99
Es	1.447121	-1.381854	0.006621	99
Es	-1.440287	-0.200151	-0.004594	99
Es	0.060495	-0.211448	-0.000511	99
Es	-0.694696	-0.194669	-0.000124	99
Es	1.072967	1.518474	-0.080574	99
Es	0.415811	-0.769796	-0.306679	99
Es	-1.708898	-0.599136	0.547305	99
Es	1.390981	1.369283	0.060057	99
29
Properties=species:S:1:pos:R:3:Z:I:1 energy=-192.81319929536596 field_type=dipole dipole="0.000000 0.000000 0.000000" charge=0
C	-1.440354	-0.200146	-0.004593	6
C	0.060525	-0.211656	-0.000503	6
C	0.745795	-1.364916	0.007357	6
C	0.776056	1.022484	-0.002003	6
C	1.375565	2.061674	-0.001953	6
H	-1.834454	0.821664	0.022177	1
H	-1.833385	-0.728286	0.870697	1
H	-1.826774	-0.680636	-0.909703	1
H	0.235836	-2.322796	0.009297	1
H	1.831655	-1.382296	0.011147	1
H	1.909535	2.984914	-0.001923	1
Es	1.384865	1.372183	0.090174	99
Es	0.745830	-1.364997	0.007359	99
Es	1.445786	-1.381760	0.005308	99
Es	1.078207	1.516032	-0.121806	99
Es	0.414503	-0.769787	-0.309110	99
Es	-0.694853	-0.194544	0.001571	99
Es	0.767654	1.731965	0.025727	99
Es	1.375682	2.061910	-0.001943	99
Es	0.060490	-0.211446	-0.000492	99
Es	0.428099	0.434402	-0.002238	99
Es	-1.440285	-0.200153	-0.004593	99
Es	-1.656891	-0.495636	-0.566273	99
Es	0.422745	-0.755046	0.316499	99
Es	-1.669139	0.503803	0.017016	99
Es	0.775936	1.022242	-0.002017	99
Es	-1.712876	-0.605010	0.532833	99
Es	0.398442	-2.022969	0.004886	99
Es	1.717509	2.670145	0.002707	99
29
Properties=species:S:1:pos:R:3:Z:I:1 energy=-192.81319929536596 field_type=dipole dipole="0.000000 0.000000 0.000000" charge=0
C	-1.440354	-0.200146	-0.004593	6
C	0.060525	-0.211656	-0.000503	6
C	0.745795	-1.364916	0.007357	6
C	0.776056	1.022484	-0.002003	6
C	1.375565	2.061674	-0.001953	6
H	-1.834454	0.821664	0.022177	1
H	-1.833385	-0.728286	0.870697	1
H	-1.826774	-0.680636	-0.909703	1
H	0.235836	-2.322796	0.009297	1
H	1.831655	-1.382296	0.011147	1
H	1.909535	2.984914	-0.001923	1
Es	-1.713675	-0.606660	0.528702	99
Es	0.422232	-0.754301	0.313359	99
Es	0.767958	1.731860	0.027501	99
Es	-0.694651	-0.193995	0.001059	99
Es	0.428045	0.434443	-0.002341	99
Es	0.398370	-2.022940	0.004752	99
Es	1.078250	1.516025	-0.124741	99
Es	0.060487	-0.211446	-0.000487	99
Es	0.775935	1.022243	-0.002023	99
Es	1.717665	2.670061	0.002958	99
Es	1.445256	-1.381778	0.005325	99
Es	0.745828	-1.364998	0.007352	99
Es	-1.655771	-0.494195	-0.562312	99
Es	-1.667538	0.503667	0.017233	99
Es	0.413430	-0.770712	-0.305563	99
Es	-1.440287	-0.200152	-0.004595	99
Es	1.384489	1.372303	0.091375	99
Es	1.375683	2.061910	-0.001946	99
29
Properties=species:S:1:pos:R:3:Z:I:1 energy=-192.81319929536596 field_type=dipole dipole="0.000000 0.000000 0.000000" charge=0
C	-1.440354	-0.200146	-0.004593	6
C	0.060525	-0.211656	-0.000503	6
C	0.745795	-1.364916	0.007357	6
C	0.776056	1.022484	-0.002003	6
C	1.375565	2.061674	-0.001953	6
H	-1.834454	0.821664	0.022177	1
H	-1.833385	-0.728286	0.870697	1
H	-1.826774	-0.680636	-0.909703	1
H	0.235836	-2.322796	0.009297	1
H	1.831655	-1.382296	0.011147	1
H	1.909535	2.984914	-0.001923	1
Es	1.444320	-1.381732	0.004706	99
Es	1.717666	2.670029	0.003299	99
Es	1.080865	1.514772	-0.133756	99
Es	0.745827	-1.364998	0.007357	99
Es	-1.715619	-0.609429	0.520373	99
Es	-1.653609	-0.491505	-0.554564	99
Es	-1.440285	-0.200153	-0.004594	99
Es	1.382004	1.373516	0.100848	99
Es	-1.666000	0.503500	0.017633	99
Es	0.412581	-0.770665	-0.307328	99
Es	1.375681	2.061910	-0.001942	99
Es	0.428048	0.434441	-0.002219	99
Es	0.767858	1.731887	0.027023	99
Es	0.060492	-0.211448	-0.000495	99
Es	0.775936	1.022242	-0.002016	99
Es	0.398355	-2.022916	0.004397	99
Es	0.423030	-0.754325	0.314722	99
Es	-0.695444	-0.193792	0.002165	99
29
Properties=species:S:1:pos:R:3:Z:I:1 energy=-192.81319929536596 field_type=dipole dipole="0.000000 0.000000 0.000000" charge=0
C	-1.440354	-0.200146	-0.004593	6
C	0.060525	-0.211656	-0.000503	6
C	0.745795	-1.364916	0.007357	6
C	0.776056	1.022484	-0.002003	6
C	1.375565	2.061674	-0.001953	6
H	-1.834454	0.821664	0.022177	1
H	-1.833385	-0.728286	0.870697	1
H	-1.826774	-0.680636	-0.909703	1
H	0.235836	-2.322796	0.009297	1
H	1.831655	-1.382296	0.011147	1
H	1.909535	2.984914	-0.001923	1
Es	-1.650832	-0.487494	-0.541910	99
Es	0.398381	-2.022898	0.004089	99
Es	0.060487	-0.211445	-0.000492	99
Es	1.087284	1.511823	-0.170008	99
Es	1.717582	2.670023	0.003700	99
Es	-0.694144	-0.193645	0.002442	99
Es	1.375683	2.061909	-0.001940	99
Es	0.428097	0.434438	-0.002326	99
Es	0.423184	-0.754341	0.314839	99
Es	0.411761	-0.770918	-0.307267	99
Es	0.769385	1.731052	0.039008	99
Es	0.745829	-1.364998	0.007350	99
Es	0.775938	1.022241	-0.002017	99
Es	-1.666277	0.503497	0.017960	99
Es	-1.718423	-0.613351	0.507240	99
Es	1.374068	1.377286	0.125160	99
Es	-1.440285	-0.200152	-0.004595	99
Es	1.443988	-1.381693	0.004374	99
29
Properties=species:S:1:pos:R:3:Z:I:1 energy=-192.81319929536596 field_type=dipole dipole="0.000000 0.000000 0.000000" charge=0
C	-1.440354	-0.200146	-0.004593	6
C	0.060525	-0.211656	-0.000503	6
C	0.745795	-1.364916	0.007357	6
C	0.776056	1.022484	-0.002003	6
C	1.375565	2.061674	-0.001953	6
H	-1.834454	0.821664	0.022177	1
H	-1.833385	-0.728286	0.870697	1
H	-1.826774	-0.680636	-0.909703	1
H	0.235836	-2.322796	0.009297	1
H	1.831655	-1.382296	0.011147	1
H	1.909535	2.984914	-0.001923	1
Es	-1.695335	-0.580624	0.576088	99
Es	1.394959	1.367457	0.022373	99
Es	-1.440288	-0.200152	-0.004594	99
Es	-1.658628	0.502855	0.015298	99
Es	0.424733	-0.747566	-0.199303	99
Es	0.427906	0.434435	-0.001650	99
Es	0.745828	-1.364998	0.007353	99
Es	0.060485	-0.211444	-0.000499	99
Es	1.375683	2.061909	-0.001940	99
Es	0.766547	1.732474	0.011308	99
Es	0.419128	-0.775745	0.207042	99
Es	1.438497	-1.382151	0.009510	99
Es	1.718012	2.670070	0.000959	99
Es	1.069152	1.520297	-0.039729	99
Es	-0.705860	-0.193594	-0.003573	99
Es	0.775934	1.022243	-0.002012	99
Es	0.398037	-2.022946	0.006158	99
Es	-1.673085	-0.521185	-0.607180	99
29
Properties=species:S:1:pos:R:3:Z:I:1 energy=-192.81319929536596 field_type=dipole dipole="0.000000 0.000000 0.000000" charge=0
C	-1.440354	-0.200146	-0.004593	6
C	0.060525	-0.211656	-0.000503	6
C	0.745795	-1.364916	0.007357	6
C	0.776056	1.022484	-0.002003	6
C	1.375565	2.061674	-0.001953	6
H	-1.834454	0.821664	0.022177	1
H	-1.833385	-0.728286	0.870697	1
H	-1.826774	-0.680636	-0.909703	1
H	0.235836	-2.322796	0.009297	1
H	1.831655	-1.382296	0.011147	1
H	1.909535	2.984914	-0.001923	1
Es	1.374987	1.376731	0.122724	99
Es	-1.719256	-0.614686	0.502607	99
Es	0.060493	-0.211448	-0.000488	99
Es	0.769107	1.731356	0.033801	99
Es	1.717684	2.669946	0.004040	99
Es	0.428043	0.434470	-0.002314	99
Es	0.775936	1.022242	-0.002018	99
Es	-1.649733	-0.486318	-0.537564	99
Es	-1.440288	-0.200152	-0.004594	99
Es	1.086680	1.512061	-0.162394	99
Es	0.424069	-0.753762	0.313019	99
Es	1.375681	2.061910	-0.001941	99
Es	0.398258	-2.022837	0.003789	99
Es	-1.663537	0.503201	0.018240	99
Es	-0.695453	-0.193232	0.002714	99
Es	0.745828	-1.364998	0.007351	99
Es	0.411100	-0.771476	-0.305205	99
Es	1.442106	-1.381676	0.003842	99
29
Properties=species:S:1:pos:R:3:Z:I:1 energy=-192.81319929536596 field_type=dipole dipole="0.000000 0.000000 0.000000" charge=0
C	-1.440354	-0.200146	-0.004593	6
C	0.060525	-0.211656	-0.000503	6
C	0.745795	-1.364916	0.007357	6
C	0.776056	1.022484	-0.002003	6
C	1.375565	2.061674	-0.001953	6
H	-1.834454	0.821664	0.022177	1
H	-1.833385	-0.728286	0.870697	1
H	-1.826774	-0.680636	-0.909703	1
H	0.235836	-2.322796	0.009297	1
H	1.831655	-1.382296	0.011147	1
H	1.909535	2.984914	-0.001923	1
Es	1.370961	1.378541	0.133454	99
Es	0.060492	-0.211447	-0.000493	99
Es	1.442348	-1.381681	0.004071	99
Es	0.775936	1.022243	-0.002019	99
Es	0.770670	1.730607	0.041473	99
Es	0.398270	-2.022830	0.003631	99
Es	-0.695192	-0.193027	0.002269	99
Es	0.428083	0.434471	-0.002402	99
Es	0.423278	-0.753808	0.313035	99
Es	-1.720627	-0.616833	0.494631	99
Es	0.410911	-0.771535	-0.304960	99
Es	1.717690	2.669918	0.004269	99
Es	1.089099	1.511011	-0.180749	99
Es	-1.648222	-0.484207	-0.529881	99
Es	-1.440287	-0.200152	-0.004594	99
Es	0.745828	-1.364997	0.007351	99
Es	-1.663215	0.503151	0.018461	99
Es	1.375681	2.061910	-0.001941	99
29
Properties=species:S:1:pos:R:3:Z:I:1 energy=-192.81319929536596 field_type=dipole dipole="0.000000 0.000000 0.000000" charge=0
C	-1.440354	-0.200146	-0.004593	6
C	0.060525	-0.211656	-0.000503	6
C	0.745795	-1.364916	0.007357	6
C	0.776056	1.022484	-0.002003	6
C	1.375565	2.061674	-0.001953	6
H	-1.834454	0.821664	0.022177	1
H	-1.833385	-0.728286	0.870697	1
H	-1.826774	-0.680636	-0.909703	1
H	0.235836	-2.322796	0.009297	1
H	1.831655	-1.382296	0.011147	1
H	1.909535	2.984914	-0.001923	1
Es	-1.723160	-0.620335	0.479993	99
Es	0.424074	-0.754815	0.318505	99
Es	-1.440286	-0.200152	-0.004594	99
Es	1.361241	1.383158	0.155267	99
Es	0.060491	-0.211447	-0.000491	99
Es	1.441655	-1.381605	0.003585	99
Es	0.775938	1.022243	-0.002027	99
Es	0.745828	-1.364998	0.007350	99
Es	1.375680	2.061910	-0.001939	99
Es	-1.664258	0.503217	0.018841	99
Es	-0.694075	-0.193224	0.003326	99
Es	0.428133	0.434461	-0.002408	99
Es	0.771087	1.730414	0.042899	99
Es	-1.645719	-0.480602	-0.515729	99
Es	0.398355	-2.022820	0.003255	99
Es	1.098396	1.506582	-0.203966	99
Es	1.717563	2.669928	0.004618	99
Es	0.410762	-0.770580	-0.310878	99
29
Properties=species:S:1:pos:R:3:Z:I:1 energy=-192.81319929536596 field_type=dipole dipole="0.000000 0.000000 0.000000" charge=0
C	-1.440354	-0.200146	-0.004593	6
C	0.060525	-0.211656	-0.000503	6
C	0.745795	-1.364916	0.007357	6
C	0.776056	1.022484	-0.002003	6
C	1.375565	2.061674	-0.001953	6
H	-1.834454	0.821664	0.022177	1
H	-1.833385	-0.728286	0.870697	1
H	-1.826774	-0.680636	-0.909703	1
H	0.235836	-2.322796	0.009297	1
H	1.831655	-1.382296	0.011147	1
H	1.909535	2.984914	-0.001923	1
Es	1.441462	-1.381560	0.003375	99
Es	-0.695140	-0.192984	0.002882	99
Es	-1.440286	-0.200152	-0.004595	99
Es	-1.662948	0.503084	0.018859	99
Es	1.361574	1.382953	0.154704	99
Es	0.410554	-0.771067	-0.308345	99
Es	0.745829	-1.364997	0.007350	99
Es	1.717580	2.669908	0.004730	99
Es	1.375687	2.061907	-0.001938	99
Es	1.097565	1.507007	-0.204754	99
Es	0.424087	-0.754400	0.316652	99
Es	0.428139	0.434474	-0.002517	99
Es	-1.723305	-0.620675	0.478661	99
Es	0.060491	-0.211447	-0.000491	99
Es	0.771576	1.730198	0.044241	99
Es	-1.645437	-0.480334	-0.514441	99
Es	0.398340	-2.022822	0.003256	99
Es	0.775938	1.022242	-0.002020	99
29
Properties=species:S:1:pos:R:3:Z:I:1 energy=-192.81319929536596 field_type=dipole dipole="0.000000 0.000000 0.000000" charge=0
C	-1.440354	-0.200146	-0.004593	6
C	0.060525	-0.211656	-0.000503	6
C	0.745795	-1.364916	0.007357	6
C	0.776056	1.022484	-0.002003	6
C	1.375565	2.061674	-0.001953	6
H	-1.834454	0.821664	0.022177	1
H	-1.833385	-0.728286	0.870697	1
H	-1.826774	-0.680636	-0.909703	1
H	0.235836	-2.322796	0.009297	1
H	1.831655	-1.382296	0.011147	1
H	1.909535	2.984914	-0.001923	1
Es	0.428127	0.434489	-0.002581	99
Es	0.745828	-1.364998	0.007350	99
Es	0.772163	1.729961	0.045187	99
Es	1.717615	2.669875	0.004887	99
Es	-0.693929	-0.192951	0.003249	99
Es	1.359011	1.384105	0.160040	99
Es	1.440745	-1.381599	0.003494	99
Es	-1.644468	-0.478962	-0.508717	99
Es	0.775935	1.022243	-0.002021	99
Es	0.060492	-0.211447	-0.000491	99
Es	1.375680	2.061910	-0.001939	99
Es	0.424157	-0.754697	0.318183	99
Es	-1.724302	-0.621976	0.472596	99
Es	0.398301	-2.022798	0.003178	99
Es	0.410388	-0.770839	-0.310313	99
Es	-1.440285	-0.200152	-0.004596	99
Es	-1.663311	0.503094	0.019098	99
Es	1.099559	1.506075	-0.210997	99
