40
Properties=species:S:1:pos:R:3:Z:I:1 energy=-266.2357840345104 field_type=dipole dipole="0.000000 0.000000 0.000000" charge=0
C	-1.640401	0.008508	0.623455	6
C	-0.150431	-0.022992	0.666175	6
C	0.674979	-0.760803	-0.356835	6
N	0.044629	-1.509302	-1.443805	7
C	0.647619	0.751107	-0.347765	6
N	1.819859	1.509748	0.090905	7
H	-2.018131	0.764247	1.320245	1
H	-2.048831	-0.962302	0.924115	1
H	-2.028611	0.251018	-0.371885	1
H	0.204589	-0.063412	1.690525	1
H	1.586509	-1.229442	0.010175	1
H	-0.735181	-0.999912	-1.853815	1
H	-0.333561	-2.390832	-1.101855	1
H	0.104279	1.228997	-1.160525	1
H	2.332429	1.019637	0.822485	1
H	1.540259	2.405737	0.488405	1
Es	0.044225	-1.509172	-1.443369	99
Es	0.268354	1.073950	-0.894597	99
Es	1.819478	1.509637	0.091366	99
Es	2.034951	1.569046	-0.177082	99
Es	-0.896836	-0.015591	0.623372	99
Es	0.193270	-0.551745	0.236660	99
Es	0.277823	-1.574012	-1.688301	99
Es	0.105594	-0.042008	1.363166	99
Es	-1.640386	0.008507	0.623449	99
Es	1.293110	-1.077536	-0.100263	99
Es	-0.150377	-0.022993	0.666056	99
Es	-1.899167	0.172254	-0.061483	99
Es	-0.434510	-1.193823	-1.663936	99
Es	-0.195285	-2.027470	-1.214803	99
Es	0.784604	-0.001516	-0.504204	99
Es	1.629048	2.036605	0.346404	99
Es	-1.919768	-0.654649	0.828324	99
Es	0.174917	0.520421	0.242783	99
Es	-1.893209	0.523987	1.097024	99
Es	0.674833	-0.760729	-0.356895	99
Es	1.302486	1.172057	-0.070858	99
Es	0.284768	-1.174439	-0.955289	99
Es	2.102839	1.205245	0.545592	99
Es	0.647714	0.751023	-0.347647	99
40
Properties=species:S:1:pos:R:3:Z:I:1 energy=-266.2357840345104 field_type=dipole dipole="0.000000 0.000000 0.000000" charge=0
C	-1.640401	0.008508	0.623455	6
C	-0.150431	-0.022992	0.666175	6
C	0.674979	-0.760803	-0.356835	6
N	0.044629	-1.509302	-1.443805	7
C	0.647619	0.751107	-0.347765	6
N	1.819859	1.509748	0.090905	7
H	-2.018131	0.764247	1.320245	1
H	-2.048831	-0.962302	0.924115	1
H	-2.028611	0.251018	-0.371885	1
H	0.204589	-0.063412	1.690525	1
H	1.586509	-1.229442	0.010175	1
H	-0.735181	-0.999912	-1.853815	1
H	-0.333561	-2.390832	-1.101855	1
H	0.104279	1.228997	-1.160525	1
H	2.332429	1.019637	0.822485	1
H	1.540259	2.405737	0.488405	1
Es	-1.893009	0.524769	1.097324	99
Es	0.174785	0.522109	0.242869	99
Es	1.292544	-1.077653	-0.100282	99
Es	1.628940	2.038321	0.346107	99
Es	0.674838	-0.760728	-0.356903	99
Es	-0.896837	-0.015315	0.623221	99
Es	1.819477	1.509636	0.091390	99
Es	0.282992	-1.174612	-0.955038	99
Es	-1.898443	0.172226	-0.061318	99
Es	0.278756	-1.571929	-1.687994	99
Es	-1.919581	-0.655574	0.828244	99
Es	0.104891	-0.041975	1.363039	99
Es	0.044323	-1.509196	-1.443441	99
Es	0.785100	-0.001550	-0.504597	99
Es	0.647720	0.751033	-0.347649	99
Es	0.193364	-0.553493	0.236408	99
Es	-1.640387	0.008506	0.623449	99
Es	1.302973	1.172468	-0.069820	99
Es	0.268348	1.074141	-0.894228	99
Es	2.101573	1.205155	0.545518	99
Es	-0.433985	-1.194032	-1.663693	99
Es	-0.194924	-2.029288	-1.215218	99
Es	-0.150380	-0.023000	0.666057	99
Es	2.035400	1.567032	-0.177975	99
40
Properties=species:S:1:pos:R:3:Z:I:1 energy=-266.2357840345104 field_type=dipole dipole="0.000000 0.000000 0.000000" charge=0
C	-1.640401	0.008508	0.623455	6
C	-0.150431	-0.022992	0.666175	6
C	0.674979	-0.760803	-0.356835	6
N	0.044629	-1.509302	-1.443805	7
C	0.647619	0.751107	-0.347765	6
N	1.819859	1.509748	0.090905	7
H	-2.018131	0.764247	1.320245	1
H	-2.048831	-0.962302	0.924115	1
H	-2.028611	0.251018	-0.371885	1
H	0.204589	-0.063412	1.690525	1
H	1.586509	-1.229442	0.010175	1
H	-0.735181	-0.999912	-1.853815	1
H	-0.333561	-2.390832	-1.101855	1
H	0.104279	1.228997	-1.160525	1
H	2.332429	1.019637	0.822485	1
H	1.540259	2.405737	0.488405	1
Es	-1.897805	0.172164	-0.061241	99
Es	0.674834	-0.760732	-0.356895	99
Es	-1.640386	0.008507	0.623448	99
Es	0.104514	-0.042086	1.362880	99
Es	0.281427	-1.174753	-0.954732	99
Es	1.819471	1.509643	0.091380	99
Es	1.628915	2.039522	0.345922	99
Es	-0.433664	-1.194362	-1.663225	99
Es	1.303282	1.172868	-0.069423	99
Es	0.279892	-1.570319	-1.688182	99
Es	0.193164	-0.554695	0.236128	99
Es	-1.919474	-0.656209	0.828189	99
Es	-0.896957	-0.015107	0.623297	99
Es	-1.892841	0.525408	1.097497	99
Es	0.647715	0.751040	-0.347641	99
Es	-0.194562	-2.030489	-1.215742	99
Es	0.044253	-1.509172	-1.443367	99
Es	-0.150375	-0.022992	0.666054	99
Es	0.785594	-0.001525	-0.504717	99
Es	2.035823	1.565654	-0.178145	99
Es	0.268493	1.074381	-0.894157	99
Es	0.174675	0.523306	0.242754	99
Es	1.292033	-1.077819	-0.100159	99
Es	2.100453	1.204816	0.545544	99
40
Properties=species:S:1:pos:R:3:Z:I:1 energy=-266.2357840345104 field_type=dipole dipole="0.000000 0.000000 0.000000" charge=0
C	-1.640401	0.008508	0.623455	6
C	-0.150431	-0.022992	0.666175	6
C	0.674979	-0.760803	-0.356835	6
N	0.044629	-1.509302	-1.443805	7
C	0.647619	0.751107	-0.347765	6
N	1.819859	1.509748	0.090905	7
H	-2.018131	0.764247	1.320245	1
H	-2.048831	-0.962302	0.924115	1
H	-2.028611	0.251018	-0.371885	1
H	0.204589	-0.063412	1.690525	1
H	1.586509	-1.229442	0.010175	1
H	-0.735181	-0.999912	-1.853815	1
H	-0.333561	-2.390832	-1.101855	1
H	0.104279	1.228997	-1.160525	1
H	2.332429	1.019637	0.822485	1
H	1.540259	2.405737	0.488405	1
Es	1.819505	1.509649	0.091319	99
Es	-1.897404	0.172105	-0.061190	99
Es	0.785884	-0.001447	-0.504858	99
Es	0.268398	1.074533	-0.893966	99
Es	0.647714	0.751031	-0.347644	99
Es	1.628893	2.040641	0.345249	99
Es	2.099619	1.204845	0.545847	99
Es	0.174703	0.524092	0.242789	99
Es	-0.195062	-2.030740	-1.215340	99
Es	-1.919290	-0.656668	0.828148	99
Es	1.303482	1.173176	-0.068899	99
Es	0.281033	-1.570020	-1.688223	99
Es	0.280373	-1.174914	-0.954888	99
Es	-1.892697	0.525859	1.097680	99
Es	0.104169	-0.042073	1.362756	99
Es	-1.640386	0.008507	0.623449	99
Es	-0.150372	-0.022997	0.666049	99
Es	0.193168	-0.555743	0.235952	99
Es	-0.433098	-1.194328	-1.663289	99
Es	1.291800	-1.077821	-0.100133	99
Es	0.044230	-1.509175	-1.443364	99
Es	-0.897054	-0.014958	0.623254	99
Es	2.036038	1.564226	-0.178335	99
Es	0.674831	-0.760732	-0.356894	99
40
Properties=species:S:1:pos:R:3:Z:I:1 energy=-266.2357840345104 field_type=dipole dipole="0.000000 0.000000 0.000000" charge=0
C	-1.640401	0.008508	0.623455	6
C	-0.150431	-0.022992	0.666175	6
C	0.674979	-0.760803	-0.356835	6
N	0.044629	-1.509302	-1.443805	7
C	0.647619	0.751107	-0.347765	6
N	1.819859	1.509748	0.090905	7
H	-2.018131	0.764247	1.320245	1
H	-2.048831	-0.962302	0.924115	1
H	-2.028611	0.251018	-0.371885	1
H	0.204589	-0.063412	1.690525	1
H	1.586509	-1.229442	0.010175	1
H	-0.735181	-0.999912	-1.853815	1
H	-0.333561	-2.390832	-1.101855	1
H	0.104279	1.228997	-1.160525	1
H	2.332429	1.019637	0.822485	1
H	1.540259	2.405737	0.488405	1
Es	0.647715	0.751029	-0.347645	99
Es	0.279512	-1.175099	-0.954644	99
Es	1.819490	1.509638	0.091351	99
Es	-1.640387	0.008507	0.623449	99
Es	-1.897128	0.172017	-0.061092	99
Es	2.099475	1.204548	0.545767	99
Es	1.628613	2.041083	0.345266	99
Es	0.103897	-0.042035	1.362840	99
Es	-0.194253	-2.031982	-1.216100	99
Es	0.193011	-0.556090	0.235930	99
Es	0.174374	0.524674	0.242802	99
Es	1.303953	1.173513	-0.068374	99
Es	-1.919187	-0.657014	0.828196	99
Es	0.044222	-1.509165	-1.443338	99
Es	-0.150378	-0.022998	0.666055	99
Es	-0.896869	-0.015024	0.623138	99
Es	0.786321	-0.001480	-0.505244	99
Es	1.291507	-1.077988	-0.100102	99
Es	0.674835	-0.760731	-0.356900	99
Es	2.035850	1.563724	-0.178913	99
Es	-1.892589	0.526209	1.097702	99
Es	0.268459	1.074600	-0.893785	99
Es	-0.433204	-1.194448	-1.662940	99
Es	0.281237	-1.568439	-1.687952	99
40
Properties=species:S:1:pos:R:3:Z:I:1 energy=-266.2357840345104 field_type=dipole dipole="0.000000 0.000000 0.000000" charge=0
C	-1.640401	0.008508	0.623455	6
C	-0.150431	-0.022992	0.666175	6
C	0.674979	-0.760803	-0.356835	6
N	0.044629	-1.509302	-1.443805	7
C	0.647619	0.751107	-0.347765	6
N	1.819859	1.509748	0.090905	7
H	-2.018131	0.764247	1.320245	1
H	-2.048831	-0.962302	0.924115	1
H	-2.028611	0.251018	-0.371885	1
H	0.204589	-0.063412	1.690525	1
H	1.586509	-1.229442	0.010175	1
H	-0.735181	-0.999912	-1.853815	1
H	-0.333561	-2.390832	-1.101855	1
H	0.104279	1.228997	-1.160525	1
H	2.332429	1.019637	0.822485	1
H	1.540259	2.405737	0.488405	1
Es	-1.919021	-0.657294	0.828169	99
Es	0.103658	-0.042061	1.362707	99
Es	1.291401	-1.077911	-0.100115	99
Es	-1.896887	0.172027	-0.061140	99
Es	1.628342	2.041132	0.345357	99
Es	-0.194056	-2.032622	-1.216218	99
Es	0.268478	1.074691	-0.893763	99
Es	1.819492	1.509634	0.091347	99
Es	2.036188	1.563348	-0.179961	99
Es	-0.897000	-0.014770	0.623171	99
Es	0.174486	0.525108	0.242805	99
Es	2.099074	1.204736	0.545757	99
Es	0.647717	0.751034	-0.347646	99
Es	-0.433136	-1.194373	-1.662692	99
Es	-1.892494	0.526410	1.097824	99
Es	0.044224	-1.509171	-1.443352	99
Es	0.786429	-0.001355	-0.505246	99
Es	-0.150376	-0.023009	0.666049	99
Es	0.192896	-0.556863	0.235930	99
Es	0.279807	-1.175187	-0.954826	99
Es	0.280802	-1.567853	-1.687823	99
Es	1.304005	1.173618	-0.067416	99
Es	0.674836	-0.760726	-0.356897	99
Es	-1.640387	0.008507	0.623449	99
40
Properties=species:S:1:pos:R:3:Z:I:1 energy=-266.2357840345104 field_type=dipole dipole="0.000000 0.000000 0.000000" charge=0
C	-1.640401	0.008508	0.623455	6
C	-0.150431	-0.022992	0.666175	6
C	0.674979	-0.760803	-0.356835	6
N	0.044629	-1.509302	-1.443805	7
C	0.647619	0.751107	-0.347765	6
N	1.819859	1.509748	0.090905	7
H	-2.018131	0.764247	1.320245	1
H	-2.048831	-0.962302	0.924115	1
H	-2.028611	0.251018	-0.371885	1
H	0.204589	-0.063412	1.690525	1
H	1.586509	-1.229442	0.010175	1
H	-0.735181	-0.999912	-1.853815	1
H	-0.333561	-2.390832	-1.101855	1
H	0.104279	1.228997	-1.160525	1
H	2.332429	1.019637	0.822485	1
H	1.540259	2.405737	0.488405	1
Es	-0.194172	-2.032773	-1.216209	99
Es	-1.640387	0.008507	0.623449	99
Es	0.674837	-0.760731	-0.356901	99
Es	-1.896705	0.172027	-0.061149	99
Es	0.278628	-1.175291	-0.954703	99
Es	0.647707	0.751023	-0.347645	99
Es	0.103529	-0.042080	1.362743	99
Es	1.819516	1.509649	0.091360	99
Es	-0.432882	-1.194554	-1.662673	99
Es	0.192851	-0.557135	0.235710	99
Es	0.044246	-1.509175	-1.443376	99
Es	-1.918886	-0.657546	0.828181	99
Es	-0.897047	-0.014647	0.623141	99
Es	2.098419	1.204499	0.545970	99
Es	2.036325	1.562467	-0.180009	99
Es	1.628615	2.041758	0.344981	99
Es	0.786618	-0.001384	-0.505268	99
Es	-0.150374	-0.023000	0.666051	99
Es	0.268457	1.074830	-0.893725	99
Es	1.291239	-1.078009	-0.100010	99
Es	0.281819	-1.567446	-1.687893	99
Es	-1.892392	0.526587	1.097894	99
Es	0.174449	0.525444	0.242771	99
Es	1.304068	1.174029	-0.067223	99
40
Properties=species:S:1:pos:R:3:Z:I:1 energy=-266.2357840345104 field_type=dipole dipole="0.000000 0.000000 0.000000" charge=0
C	-1.640401	0.008508	0.623455	6
C	-0.150431	-0.022992	0.666175	6
C	0.674979	-0.760803	-0.356835	6
N	0.044629	-1.509302	-1.443805	7
C	0.647619	0.751107	-0.347765	6
N	1.819859	1.509748	0.090905	7
H	-2.018131	0.764247	1.320245	1
H	-2.048831	-0.962302	0.924115	1
H	-2.028611	0.251018	-0.371885	1
H	0.204589	-0.063412	1.690525	1
H	1.586509	-1.229442	0.010175	1
H	-0.735181	-0.999912	-1.853815	1
H	-0.333561	-2.390832	-1.101855	1
H	0.104279	1.228997	-1.160525	1
H	2.332429	1.019637	0.822485	1
H	1.540259	2.405737	0.488405	1
Es	-0.150375	-0.022997	0.666052	99
Es	0.103357	-0.042028	1.362647	99
Es	0.278144	-1.175430	-0.954535	99
Es	-1.640387	0.008507	0.623449	99
Es	0.786672	-0.001404	-0.505268	99
Es	-1.918841	-0.657692	0.828125	99
Es	0.647718	0.751026	-0.347649	99
Es	1.819489	1.509638	0.091374	99
Es	0.044287	-1.509177	-1.443400	99
Es	1.628588	2.042105	0.344888	99
Es	2.036150	1.562139	-0.179997	99
Es	0.268476	1.074872	-0.893737	99
Es	2.098359	1.204324	0.545916	99
Es	0.192912	-0.557547	0.235754	99
Es	-0.432871	-1.194559	-1.662655	99
Es	-1.892360	0.526785	1.097955	99
Es	-0.897043	-0.014749	0.623190	99
Es	1.291139	-1.078016	-0.100075	99
Es	-1.896480	0.171987	-0.061125	99
Es	0.674832	-0.760728	-0.356893	99
Es	0.282252	-1.567253	-1.687881	99
Es	0.174346	0.525906	0.242753	99
Es	-0.194138	-2.032822	-1.216288	99
Es	1.304249	1.174163	-0.067131	99
40
Properties=species:S:1:pos:R:3:Z:I:1 energy=-266.2357840345104 field_type=dipole dipole="0.000000 0.000000 0.000000" charge=0
C	-1.640401	0.008508	0.623455	6
C	-0.150431	-0.022992	0.666175	6
C	0.674979	-0.760803	-0.356835	6
N	0.044629	-1.509302	-1.443805	7
C	0.647619	0.751107	-0.347765	6
N	1.819859	1.509748	0.090905	7
H	-2.018131	0.764247	1.320245	1
H	-2.048831	-0.962302	0.924115	1
H	-2.028611	0.251018	-0.371885	1
H	0.204589	-0.063412	1.690525	1
H	1.586509	-1.229442	0.010175	1
H	-0.735181	-0.999912	-1.853815	1
H	-0.333561	-2.390832	-1.101855	1
H	0.104279	1.228997	-1.160525	1
H	2.332429	1.019637	0.822485	1
H	1.540259	2.405737	0.488405	1
Es	0.281903	-1.566557	-1.687803	99
Es	-0.150375	-0.022997	0.666051	99
Es	2.098342	1.204289	0.545763	99
Es	-1.896359	0.172000	-0.061164	99
Es	-0.897077	-0.014631	0.623168	99
Es	0.268507	1.074911	-0.893651	99
Es	-1.918705	-0.657858	0.828128	99
Es	-1.892301	0.526874	1.098022	99
Es	-0.193742	-2.033499	-1.216452	99
Es	0.174311	0.526156	0.242677	99
Es	0.103242	-0.042051	1.362682	99
Es	2.036225	1.562246	-0.180869	99
Es	0.786809	-0.001398	-0.505338	99
Es	1.291050	-1.078088	-0.099996	99
Es	0.647717	0.751027	-0.347647	99
Es	0.192777	-0.557846	0.235622	99
Es	0.044235	-1.509171	-1.443359	99
Es	0.674835	-0.760731	-0.356898	99
Es	1.628226	2.041874	0.345270	99
Es	1.304390	1.174340	-0.066427	99
Es	1.819493	1.509632	0.091347	99
Es	0.278234	-1.175271	-0.954677	99
Es	-1.640387	0.008507	0.623449	99
Es	-0.432872	-1.194709	-1.662429	99
40
Properties=species:S:1:pos:R:3:Z:I:1 energy=-266.2357840345104 field_type=dipole dipole="0.000000 0.000000 0.000000" charge=0
C	-1.640401	0.008508	0.623455	6
C	-0.150431	-0.022992	0.666175	6
C	0.674979	-0.760803	-0.356835	6
N	0.044629	-1.509302	-1.443805	7
C	0.647619	0.751107	-0.347765	6
N	1.819859	1.509748	0.090905	7
H	-2.018131	0.764247	1.320245	1
H	-2.048831	-0.962302	0.924115	1
H	-2.028611	0.251018	-0.371885	1
H	0.204589	-0.063412	1.690525	1
H	1.586509	-1.229442	0.010175	1
H	-0.735181	-0.999912	-1.853815	1
H	-0.333561	-2.390832	-1.101855	1
H	0.104279	1.228997	-1.160525	1
H	2.332429	1.019637	0.822485	1
H	1.540259	2.405737	0.488405	1
Es	1.628340	2.042285	0.345019	99
Es	0.268474	1.074989	-0.893641	99
Es	1.290981	-1.078048	-0.099902	99
Es	-0.150380	-0.022995	0.666058	99
Es	-1.918642	-0.657997	0.828124	99
Es	-1.896206	0.171958	-0.061157	99
Es	-0.193971	-2.033483	-1.216254	99
Es	2.036427	1.561691	-0.180758	99
Es	0.044275	-1.509187	-1.443368	99
Es	0.647717	0.751026	-0.347646	99
Es	0.192776	-0.558023	0.235505	99
Es	0.786853	-0.001466	-0.505306	99
Es	0.174303	0.526329	0.242723	99
Es	0.282057	-1.566529	-1.688053	99
Es	2.097819	1.204137	0.545919	99
Es	0.103150	-0.042006	1.362642	99
Es	0.674834	-0.760734	-0.356899	99
Es	-0.432746	-1.194601	-1.662179	99
Es	-1.640387	0.008507	0.623449	99
Es	0.278199	-1.175495	-0.954884	99
Es	1.819482	1.509635	0.091336	99
Es	-1.892283	0.527015	1.098030	99
Es	-0.897127	-0.014546	0.623181	99
Es	1.304530	1.174587	-0.066470	99
40
Properties=species:S:1:pos:R:3:Z:I:1 energy=-266.2357840345104 field_type=dipole dipole="0.000000 0.000000 0.000000" charge=0
C	-1.640401	0.008508	0.623455	6
C	-0.150431	-0.022992	0.666175	6
C	0.674979	-0.760803	-0.356835	6
N	0.044629	-1.509302	-1.443805	7
C	0.647619	0.751107	-0.347765	6
N	1.819859	1.509748	0.090905	7
H	-2.018131	0.764247	1.320245	1
H	-2.048831	-0.962302	0.924115	1
H	-2.028611	0.251018	-0.371885	1
H	0.204589	-0.063412	1.690525	1
H	1.586509	-1.229442	0.010175	1
H	-0.735181	-0.999912	-1.853815	1
H	-0.333561	-2.390832	-1.101855	1
H	0.104279	1.228997	-1.160525	1
H	2.332429	1.019637	0.822485	1
H	1.540259	2.405737	0.488405	1
Es	-0.194065	-2.033391	-1.216295	99
Es	-0.896944	-0.014578	0.623253	99
Es	-0.150375	-0.022998	0.666051	99
Es	-1.895956	0.171892	-0.061194	99
Es	0.647718	0.751027	-0.347645	99
Es	0.102925	-0.042000	1.362676	99
Es	1.819487	1.509639	0.091365	99
Es	2.036420	1.561260	-0.181157	99
Es	0.044236	-1.509163	-1.443355	99
Es	-0.432692	-1.194551	-1.662328	99
Es	-1.892314	0.527165	1.097925	99
Es	1.628418	2.042486	0.344755	99
Es	-1.918651	-0.658118	0.828160	99
Es	1.304622	1.174857	-0.066056	99
Es	0.277763	-1.175628	-0.954734	99
Es	-1.640384	0.008506	0.623448	99
Es	0.174216	0.526688	0.242662	99
Es	0.282561	-1.566568	-1.687963	99
Es	1.291016	-1.078074	-0.099894	99
Es	0.786812	-0.001552	-0.505432	99
Es	2.097620	1.204120	0.546112	99
Es	0.192734	-0.558234	0.235511	99
Es	0.268475	1.074993	-0.893502	99
Es	0.674835	-0.760729	-0.356898	99
40
Properties=species:S:1:pos:R:3:Z:I:1 energy=-266.2357840345104 field_type=dipole dipole="0.000000 0.000000 0.000000" charge=0
C	-1.640401	0.008508	0.623455	6
C	-0.150431	-0.022992	0.666175	6
C	0.674979	-0.760803	-0.356835	6
N	0.044629	-1.509302	-1.443805	7
C	0.647619	0.751107	-0.347765	6
N	1.819859	1.509748	0.090905	7
H	-2.018131	0.764247	1.320245	1
H	-2.048831	-0.962302	0.924115	1
H	-2.028611	0.251018	-0.371885	1
H	0.204589	-0.063412	1.690525	1
H	1.586509	-1.229442	0.010175	1
H	-0.735181	-0.999912	-1.853815	1
H	-0.333561	-2.390832	-1.101855	1
H	0.104279	1.228997	-1.160525	1
H	2.332429	1.019637	0.822485	1
H	1.540259	2.405737	0.488405	1
Es	1.304600	1.174828	-0.065879	99
Es	-1.918533	-0.658203	0.828086	99
Es	0.268479	1.075068	-0.893551	99
Es	0.102964	-0.042041	1.362607	99
Es	-0.897105	-0.014490	0.623199	99
Es	0.044309	-1.509193	-1.443436	99
Es	-1.892253	0.527199	1.098075	99
Es	1.819473	1.509627	0.091376	99
Es	-0.432734	-1.194621	-1.662172	99
Es	1.628420	2.042647	0.344840	99
Es	0.674841	-0.760727	-0.356911	99
Es	0.282250	-1.566055	-1.687804	99
Es	0.787174	-0.001432	-0.505548	99
Es	-0.193768	-2.033846	-1.216458	99
Es	0.647715	0.751033	-0.347644	99
Es	2.036362	1.561094	-0.181293	99
Es	0.277756	-1.175595	-0.954745	99
Es	-0.150374	-0.022995	0.666052	99
Es	0.174216	0.526641	0.242824	99
Es	0.192698	-0.558296	0.235483	99
Es	-1.895977	0.171929	-0.061138	99
Es	2.097564	1.204095	0.545945	99
Es	1.290784	-1.078126	-0.099889	99
Es	-1.640387	0.008506	0.623450	99
40
Properties=species:S:1:pos:R:3:Z:I:1 energy=-266.2357840345104 field_type=dipole dipole="0.000000 0.000000 0.000000" charge=0
C	-1.640401	0.008508	0.623455	6
C	-0.150431	-0.022992	0.666175	6
C	0.674979	-0.760803	-0.356835	6
N	0.044629	-1.509302	-1.443805	7
C	0.647619	0.751107	-0.347765	6
N	1.819859	1.509748	0.090905	7
H	-2.018131	0.764247	1.320245	1
H	-2.048831	-0.962302	0.924115	1
H	-2.028611	0.251018	-0.371885	1
H	0.204589	-0.063412	1.690525	1
H	1.586509	-1.229442	0.010175	1
H	-0.735181	-0.999912	-1.853815	1
H	-0.333561	-2.390832	-1.101855	1
H	0.104279	1.228997	-1.160525	1
H	2.332429	1.019637	0.822485	1
H	1.540259	2.405737	0.488405	1
Es	0.192775	-0.558335	0.235379	99
Es	0.282571	-1.565872	-1.687883	99
Es	0.268464	1.075090	-0.893561	99
Es	-1.892166	0.527309	1.098114	99
Es	-1.918521	-0.658281	0.828084	99
Es	0.277450	-1.175619	-0.954747	99
Es	-0.193777	-2.033966	-1.216447	99
Es	-0.432634	-1.194691	-1.662115	99
Es	-0.897127	-0.014633	0.623136	99
Es	1.290771	-1.078133	-0.099882	99
Es	-0.150373	-0.023000	0.666050	99
Es	0.102899	-0.042100	1.362623	99
Es	-1.640386	0.008507	0.623449	99
Es	1.819484	1.509637	0.091343	99
Es	0.044223	-1.509176	-1.443375	99
Es	1.628310	2.042710	0.344816	99
Es	-1.895894	0.171922	-0.061112	99
Es	0.647717	0.751030	-0.347648	99
Es	1.304717	1.174929	-0.065829	99
Es	0.174131	0.527001	0.242813	99
Es	2.036420	1.560974	-0.181362	99
Es	2.097431	1.204027	0.546002	99
Es	0.674838	-0.760728	-0.356902	99
Es	0.787156	-0.001556	-0.505478	99
40
Properties=species:S:1:pos:R:3:Z:I:1 energy=-266.2357840345104 field_type=dipole dipole="0.000000 0.000000 0.000000" charge=0
C	-1.640401	0.008508	0.623455	6
C	-0.150431	-0.022992	0.666175	6
C	0.674979	-0.760803	-0.356835	6
N	0.044629	-1.509302	-1.443805	7
C	0.647619	0.751107	-0.347765	6
N	1.819859	1.509748	0.090905	7
H	-2.018131	0.764247	1.320245	1
H	-2.048831	-0.962302	0.924115	1
H	-2.028611	0.251018	-0.371885	1
H	0.204589	-0.063412	1.690525	1
H	1.586509	-1.229442	0.010175	1
H	-0.735181	-0.999912	-1.853815	1
H	-0.333561	-2.390832	-1.101855	1
H	0.104279	1.228997	-1.160525	1
H	2.332429	1.019637	0.822485	1
H	1.540259	2.405737	0.488405	1
Es	1.819472	1.509634	0.091372	99
Es	0.174148	0.526922	0.242770	99
Es	0.192503	-0.558509	0.235555	99
Es	1.304942	1.175006	-0.065734	99
Es	0.787229	-0.001538	-0.505667	99
Es	-0.150374	-0.022998	0.666050	99
Es	0.674836	-0.760731	-0.356900	99
Es	1.628280	2.043007	0.344635	99
Es	-1.892163	0.527419	1.098106	99
Es	-0.432598	-1.194619	-1.662411	99
Es	-0.897126	-0.014445	0.623156	99
Es	0.282561	-1.565666	-1.687476	99
Es	-1.640386	0.008507	0.623449	99
Es	0.268516	1.075120	-0.893488	99
Es	-1.895827	0.171854	-0.061101	99
Es	2.036351	1.560621	-0.181365	99
Es	0.102877	-0.042033	1.362614	99
Es	-1.918450	-0.658360	0.828110	99
Es	-0.193637	-2.034224	-1.216455	99
Es	2.097310	1.203963	0.546054	99
Es	1.290732	-1.078056	-0.099914	99
Es	0.044226	-1.509172	-1.443348	99
Es	0.277335	-1.175677	-0.954896	99
Es	0.647719	0.751025	-0.347649	99
40
Properties=species:S:1:pos:R:3:Z:I:1 energy=-266.2357840345104 field_type=dipole dipole="0.000000 0.000000 0.000000" charge=0
C	-1.640401	0.008508	0.623455	6
C	-0.150431	-0.022992	0.666175	6
C	0.674979	-0.760803	-0.356835	6
N	0.044629	-1.509302	-1.443805	7
C	0.647619	0.751107	-0.347765	6
N	1.819859	1.509748	0.090905	7
H	-2.018131	0.764247	1.320245	1
H	-2.048831	-0.962302	0.924115	1
H	-2.028611	0.251018	-0.371885	1
H	0.204589	-0.063412	1.690525	1
H	1.586509	-1.229442	0.010175	1
H	-0.735181	-0.999912	-1.853815	1
H	-0.333561	-2.390832	-1.101855	1
H	0.104279	1.228997	-1.160525	1
H	2.332429	1.019637	0.822485	1
H	1.540259	2.405737	0.488405	1
Es	0.174270	0.526892	0.242982	99
Es	2.097216	1.203899	0.546098	99
Es	-1.892052	0.527400	1.098193	99
Es	0.674835	-0.760731	-0.356898	99
Es	0.268419	1.075141	-0.893470	99
Es	1.628282	2.042767	0.344777	99
Es	-0.432567	-1.194733	-1.662026	99
Es	-1.918413	-0.658422	0.828089	99
Es	-0.193569	-2.034413	-1.216664	99
Es	0.044235	-1.509170	-1.443360	99
Es	0.282551	-1.565355	-1.687749	99
Es	-0.150371	-0.022995	0.666048	99
Es	0.277232	-1.175630	-0.954750	99
Es	0.102780	-0.042187	1.362520	99
Es	2.036487	1.560777	-0.181679	99
Es	0.192496	-0.558771	0.235333	99
Es	1.304739	1.175234	-0.065593	99
Es	1.290733	-1.078135	-0.099918	99
Es	1.819475	1.509640	0.091378	99
Es	-1.895858	0.171937	-0.061088	99
Es	-0.897123	-0.014265	0.623115	99
Es	0.647716	0.751028	-0.347647	99
Es	-1.640387	0.008507	0.623449	99
Es	0.787352	-0.001367	-0.505673	99
40
Properties=species:S:1:pos:R:3:Z:I:1 energy=-266.2357840345104 field_type=dipole dipole="0.000000 0.000000 0.000000" charge=0
C	-1.640401	0.008508	0.623455	6
C	-0.150431	-0.022992	0.666175	6
C	0.674979	-0.760803	-0.356835	6
N	0.044629	-1.509302	-1.443805	7
C	0.647619	0.751107	-0.347765	6
N	1.819859	1.509748	0.090905	7
H	-2.018131	0.764247	1.320245	1
H	-2.048831	-0.962302	0.924115	1
H	-2.028611	0.251018	-0.371885	1
H	0.204589	-0.063412	1.690525	1
H	1.586509	-1.229442	0.010175	1
H	-0.735181	-0.999912	-1.853815	1
H	-0.333561	-2.390832	-1.101855	1
H	0.104279	1.228997	-1.160525	1
H	2.332429	1.019637	0.822485	1
H	1.540259	2.405737	0.488405	1
Es	0.787327	-0.001450	-0.505614	99
Es	1.290710	-1.078208	-0.099914	99
Es	2.096898	1.203987	0.546130	99
Es	0.174248	0.527082	0.242728	99
Es	-1.895638	0.171886	-0.061147	99
Es	0.277024	-1.175591	-0.954661	99
Es	2.036619	1.560309	-0.181536	99
Es	-1.892158	0.527467	1.098086	99
Es	0.282738	-1.565193	-1.687933	99
Es	1.819459	1.509626	0.091358	99
Es	-0.150373	-0.023001	0.666046	99
Es	0.102668	-0.042011	1.362603	99
Es	1.304880	1.175129	-0.065508	99
Es	-0.193414	-2.034416	-1.216744	99
Es	0.044229	-1.509178	-1.443367	99
Es	0.674834	-0.760733	-0.356897	99
Es	-0.897136	-0.014393	0.623174	99
Es	-1.640386	0.008507	0.623449	99
Es	0.268456	1.075245	-0.893476	99
Es	-1.918409	-0.658502	0.828101	99
Es	1.628322	2.043151	0.344537	99
Es	0.192559	-0.558840	0.235533	99
Es	-0.432696	-1.194852	-1.661833	99
Es	0.647716	0.751029	-0.347646	99
40
Properties=species:S:1:pos:R:3:Z:I:1 energy=-266.2357840345104 field_type=dipole dipole="0.000000 0.000000 0.000000" charge=0
C	-1.640401	0.008508	0.623455	6
C	-0.150431	-0.022992	0.666175	6
C	0.674979	-0.760803	-0.356835	6
N	0.044629	-1.509302	-1.443805	7
C	0.647619	0.751107	-0.347765	6
N	1.819859	1.509748	0.090905	7
H	-2.018131	0.764247	1.320245	1
H	-2.048831	-0.962302	0.924115	1
H	-2.028611	0.251018	-0.371885	1
H	0.204589	-0.063412	1.690525	1
H	1.586509	-1.229442	0.010175	1
H	-0.735181	-0.999912	-1.853815	1
H	-0.333561	-2.390832	-1.101855	1
H	0.104279	1.228997	-1.160525	1
H	2.332429	1.019637	0.822485	1
H	1.540259	2.405737	0.488405	1
Es	-0.432483	-1.194774	-1.662070	99
Es	-1.640386	0.008507	0.623449	99
Es	0.674834	-0.760731	-0.356897	99
Es	-0.193511	-2.034624	-1.216650	99
Es	0.787337	-0.001463	-0.505570	99
Es	-1.892141	0.527503	1.098091	99
Es	1.290688	-1.078092	-0.099985	99
Es	0.276761	-1.175683	-0.954823	99
Es	2.097052	1.203872	0.546086	99
Es	0.192535	-0.558999	0.235539	99
Es	2.036285	1.560126	-0.181523	99
Es	1.628385	2.043352	0.344457	99
Es	1.304925	1.175191	-0.065497	99
Es	0.268527	1.075174	-0.893523	99
Es	0.282886	-1.565051	-1.687634	99
Es	1.819495	1.509639	0.091371	99
Es	-1.918321	-0.658555	0.828145	99
Es	0.647716	0.751029	-0.347646	99
Es	0.102739	-0.041952	1.362573	99
Es	-0.897169	-0.014280	0.623218	99
Es	-1.895655	0.171851	-0.061151	99
Es	-0.150372	-0.022998	0.666049	99
Es	0.044248	-1.509169	-1.443360	99
Es	0.174104	0.527174	0.242820	99
40
Properties=species:S:1:pos:R:3:Z:I:1 energy=-266.2357840345104 field_type=dipole dipole="0.000000 0.000000 0.000000" charge=0
C	-1.640401	0.008508	0.623455	6
C	-0.150431	-0.022992	0.666175	6
C	0.674979	-0.760803	-0.356835	6
N	0.044629	-1.509302	-1.443805	7
C	0.647619	0.751107	-0.347765	6
N	1.819859	1.509748	0.090905	7
H	-2.018131	0.764247	1.320245	1
H	-2.048831	-0.962302	0.924115	1
H	-2.028611	0.251018	-0.371885	1
H	0.204589	-0.063412	1.690525	1
H	1.586509	-1.229442	0.010175	1
H	-0.735181	-0.999912	-1.853815	1
H	-0.333561	-2.390832	-1.101855	1
H	0.104279	1.228997	-1.160525	1
H	2.332429	1.019637	0.822485	1
H	1.540259	2.405737	0.488405	1
Es	0.268465	1.075251	-0.893433	99
Es	1.819487	1.509641	0.091387	99
Es	2.096870	1.203969	0.546025	99
Es	0.277181	-1.175889	-0.954860	99
Es	0.787375	-0.001383	-0.505662	99
Es	1.628074	2.043096	0.344744	99
Es	0.647714	0.751030	-0.347644	99
Es	-1.640387	0.008506	0.623449	99
Es	-0.150375	-0.022999	0.666051	99
Es	-0.897160	-0.014427	0.623170	99
Es	-0.432557	-1.194475	-1.662068	99
Es	0.192589	-0.559107	0.235410	99
Es	2.036602	1.560303	-0.181924	99
Es	-1.918279	-0.658571	0.828070	99
Es	0.674833	-0.760733	-0.356898	99
Es	1.305131	1.175178	-0.065294	99
Es	-1.895570	0.171829	-0.061140	99
Es	1.290545	-1.078160	-0.099869	99
Es	0.174088	0.527308	0.242781	99
Es	0.282732	-1.565289	-1.687594	99
Es	-0.193640	-2.034478	-1.216598	99
Es	0.044257	-1.509178	-1.443380	99
Es	0.102632	-0.041968	1.362564	99
Es	-1.892130	0.527594	1.098183	99
40
Properties=species:S:1:pos:R:3:Z:I:1 energy=-266.2357840345104 field_type=dipole dipole="0.000000 0.000000 0.000000" charge=0
C	-1.640401	0.008508	0.623455	6
C	-0.150431	-0.022992	0.666175	6
C	0.674979	-0.760803	-0.356835	6
N	0.044629	-1.509302	-1.443805	7
C	0.647619	0.751107	-0.347765	6
N	1.819859	1.509748	0.090905	7
H	-2.018131	0.764247	1.320245	1
H	-2.048831	-0.962302	0.924115	1
H	-2.028611	0.251018	-0.371885	1
H	0.204589	-0.063412	1.690525	1
H	1.586509	-1.229442	0.010175	1
H	-0.735181	-0.999912	-1.853815	1
H	-0.333561	-2.390832	-1.101855	1
H	0.104279	1.228997	-1.160525	1
H	2.332429	1.019637	0.822485	1
H	1.540259	2.405737	0.488405	1
Es	1.290650	-1.078171	-0.099910	99
Es	0.268470	1.075267	-0.893378	99
Es	1.628044	2.043297	0.344519	99
Es	-1.892179	0.527571	1.098155	99
Es	0.174100	0.527225	0.242795	99
Es	2.036317	1.560162	-0.181747	99
Es	0.192478	-0.559122	0.235452	99
Es	-1.640386	0.008507	0.623449	99
Es	-0.150378	-0.022994	0.666057	99
Es	-1.895461	0.171886	-0.061116	99
Es	2.096982	1.203730	0.546145	99
Es	-0.432375	-1.194823	-1.661946	99
Es	0.102680	-0.041989	1.362507	99
Es	1.305281	1.175368	-0.065336	99
Es	0.276828	-1.175647	-0.954666	99
Es	-0.193634	-2.034582	-1.216692	99
Es	0.787386	-0.001349	-0.505811	99
Es	-1.918283	-0.658677	0.828017	99
Es	1.819487	1.509638	0.091350	99
Es	0.044248	-1.509173	-1.443358	99
Es	0.647714	0.751026	-0.347645	99
Es	-0.897176	-0.014295	0.623321	99
Es	0.282848	-1.565078	-1.687795	99
Es	0.674834	-0.760729	-0.356896	99
40
Properties=species:S:1:pos:R:3:Z:I:1 energy=-266.2357840345104 field_type=dipole dipole="0.000000 0.000000 0.000000" charge=0
C	-1.640401	0.008508	0.623455	6
C	-0.150431	-0.022992	0.666175	6
C	0.674979	-0.760803	-0.356835	6
N	0.044629	-1.509302	-1.443805	7
C	0.647619	0.751107	-0.347765	6
N	1.819859	1.509748	0.090905	7
H	-2.018131	0.764247	1.320245	1
H	-2.048831	-0.962302	0.924115	1
H	-2.028611	0.251018	-0.371885	1
H	0.204589	-0.063412	1.690525	1
H	1.586509	-1.229442	0.010175	1
H	-0.735181	-0.999912	-1.853815	1
H	-0.333561	-2.390832	-1.101855	1
H	0.104279	1.228997	-1.160525	1
H	2.332429	1.019637	0.822485	1
H	1.540259	2.405737	0.488405	1
Es	0.192521	-0.559144	0.235422	99
Es	1.628324	2.043365	0.344565	99
Es	0.044236	-1.509178	-1.443374	99
Es	-0.150374	-0.022997	0.666051	99
Es	-1.892033	0.527662	1.098170	99
Es	0.674835	-0.760729	-0.356899	99
Es	1.819485	1.509629	0.091319	99
Es	2.097080	1.203798	0.545987	99
Es	-1.895478	0.171878	-0.061094	99
Es	-0.432457	-1.194771	-1.662027	99
Es	1.290586	-1.078164	-0.099919	99
Es	2.036173	1.559998	-0.182025	99
Es	0.647714	0.751030	-0.347644	99
Es	-1.918301	-0.658708	0.828074	99
Es	1.304987	1.175392	-0.064901	99
Es	0.283296	-1.564639	-1.687518	99
Es	-0.193398	-2.034829	-1.216968	99
Es	0.787470	-0.001385	-0.505754	99
Es	0.102596	-0.042004	1.362589	99
Es	0.268478	1.075278	-0.893415	99
Es	-1.640386	0.008507	0.623449	99
Es	-0.897185	-0.014387	0.623139	99
Es	0.276257	-1.175892	-0.954565	99
Es	0.174053	0.527337	0.242808	99
40
Properties=species:S:1:pos:R:3:Z:I:1 energy=-266.2357840345104 field_type=dipole dipole="0.000000 0.000000 0.000000" charge=0
C	-1.640401	0.008508	0.623455	6
C	-0.150431	-0.022992	0.666175	6
C	0.674979	-0.760803	-0.356835	6
N	0.044629	-1.509302	-1.443805	7
C	0.647619	0.751107	-0.347765	6
N	1.819859	1.509748	0.090905	7
H	-2.018131	0.764247	1.320245	1
H	-2.048831	-0.962302	0.924115	1
H	-2.028611	0.251018	-0.371885	1
H	0.204589	-0.063412	1.690525	1
H	1.586509	-1.229442	0.010175	1
H	-0.735181	-0.999912	-1.853815	1