38
Properties=species:S:1:pos:R:3:Z:I:1 energy=-249.04661225586733 field_type=dipole dipole="0.000000 0.000000 0.000000" charge=0
C	-1.723009	-0.931795	-0.268191	6
C	-0.209198	-0.834085	-0.134841	6
C	0.328182	0.606225	-0.230861	6
N	-0.140229	1.439305	0.873599	7
C	1.772181	0.606225	-0.230861	6
C	2.962342	0.606225	-0.230861	6
H	-2.029228	-1.982535	-0.290911	1
H	-2.067599	-0.459545	-1.193961	1
H	-2.234689	-0.457785	0.574939	1
H	0.242722	-1.440325	-0.930431	1
H	0.097862	-1.295725	0.812379	1
H	-0.028789	1.053885	-1.165921	1
H	0.158231	1.021845	1.753439	1
H	-1.156389	1.452395	0.890429	1
H	4.027612	0.615685	-0.227941	1
Es	2.962598	0.606210	-0.230849	99
Es	1.080933	0.603555	-0.229223	99
Es	-1.927501	-1.645711	-0.282568	99
Es	-0.755000	1.419976	0.878082	99
Es	0.096836	0.903647	-0.863380	99
Es	-0.018444	1.764862	0.846315	99
Es	2.373405	0.482754	0.111186	99
Es	0.000350	-1.138812	0.518489	99
Es	-2.069473	-0.601694	0.308455	99
Es	0.030886	1.163839	1.396728	99
Es	-1.954039	-0.604877	-0.900080	99
Es	-1.722984	-0.931786	-0.268186	99
Es	0.328251	0.606270	-0.230736	99
Es	2.383939	0.954385	-0.297121	99
Es	-0.972334	-0.865837	-0.198769	99
Es	0.072289	-0.112298	-0.181934	99
Es	0.059676	1.052734	0.399278	99
Es	3.658895	0.610661	-0.229295	99
Es	-0.140472	1.438714	0.873656	99
Es	1.771929	0.606227	-0.230865	99
Es	-0.209233	-0.834049	-0.134843	99
Es	0.097444	-1.242907	-0.682054	99
Es	2.375032	0.366751	-0.503994	99
38
Properties=species:S:1:pos:R:3:Z:I:1 energy=-249.04661225586733 field_type=dipole dipole="0.000000 0.000000 0.000000" charge=0
C	-1.723009	-0.931795	-0.268191	6
C	-0.209198	-0.834085	-0.134841	6
C	0.328182	0.606225	-0.230861	6
N	-0.140229	1.439305	0.873599	7
C	1.772181	0.606225	-0.230861	6
C	2.962342	0.606225	-0.230861	6
H	-2.029228	-1.982535	-0.290911	1
H	-2.067599	-0.459545	-1.193961	1
H	-2.234689	-0.457785	0.574939	1
H	0.242722	-1.440325	-0.930431	1
H	0.097862	-1.295725	0.812379	1
H	-0.028789	1.053885	-1.165921	1
H	0.158231	1.021845	1.753439	1
H	-1.156389	1.452395	0.890429	1
H	4.027612	0.615685	-0.227941	1
Es	-0.209232	-0.834051	-0.134849	99
Es	2.372757	0.499698	0.113325	99
Es	0.328251	0.606269	-0.230735	99
Es	-0.760734	1.424052	0.877777	99
Es	-1.955406	-0.606280	-0.899104	99
Es	0.061397	1.054600	0.398648	99
Es	3.660520	0.610343	-0.229318	99
Es	0.072230	-0.112112	-0.181998	99
Es	-1.722985	-0.931785	-0.268188	99
Es	0.001555	-1.137889	0.516939	99
Es	0.033932	1.166068	1.395749	99
Es	1.771914	0.606219	-0.230867	99
Es	-0.018271	1.755788	0.847094	99
Es	-2.070832	-0.602810	0.307422	99
Es	2.962614	0.606213	-0.230856	99
Es	2.383936	0.946874	-0.314798	99
Es	-1.928346	-1.642798	-0.282676	99
Es	2.375469	0.357510	-0.488168	99
Es	0.095444	0.902727	-0.861727	99
Es	-0.972033	-0.866175	-0.198686	99
Es	1.082744	0.603379	-0.229701	99
Es	-0.140448	1.438734	0.873641	99
Es	0.098505	-1.241965	-0.680631	99
38
Properties=species:S:1:pos:R:3:Z:I:1 energy=-249.04661225586733 field_type=dipole dipole="0.000000 0.000000 0.000000" charge=0
C	-1.723009	-0.931795	-0.268191	6
C	-0.209198	-0.834085	-0.134841	6
C	0.328182	0.606225	-0.230861	6
N	-0.140229	1.439305	0.873599	7
C	1.772181	0.606225	-0.230861	6
C	2.962342	0.606225	-0.230861	6
H	-2.029228	-1.982535	-0.290911	1
H	-2.067599	-0.459545	-1.193961	1
H	-2.234689	-0.457785	0.574939	1
H	0.242722	-1.440325	-0.930431	1
H	0.097862	-1.295725	0.812379	1
H	-0.028789	1.053885	-1.165921	1
H	0.158231	1.021845	1.753439	1
H	-1.156389	1.452395	0.890429	1
H	4.027612	0.615685	-0.227941	1
Es	0.328251	0.606270	-0.230735	99
Es	-1.928706	-1.640957	-0.282979	99
Es	2.383934	0.946764	-0.300268	99
Es	1.083837	0.603237	-0.230025	99
Es	-1.956034	-0.607093	-0.898202	99
Es	-0.209230	-0.834053	-0.134849	99
Es	0.099055	-1.241348	-0.679463	99
Es	0.062794	1.056142	0.398391	99
Es	0.035692	1.167658	1.394873	99
Es	2.373104	0.484298	0.108118	99
Es	0.072293	-0.112025	-0.182083	99
Es	-2.071671	-0.603578	0.306818	99
Es	-0.140455	1.438741	0.873639	99
Es	0.002201	-1.137202	0.515824	99
Es	2.962619	0.606216	-0.230860	99
Es	-0.019036	1.750727	0.847667	99
Es	1.771914	0.606230	-0.230866	99
Es	0.094641	0.901993	-0.860491	99
Es	-0.763463	1.425480	0.877589	99
Es	3.661254	0.610259	-0.229389	99
Es	-0.971991	-0.866497	-0.198753	99
Es	2.374963	0.373134	-0.497477	99
Es	-1.722985	-0.931787	-0.268186	99
38
Properties=species:S:1:pos:R:3:Z:I:1 energy=-249.04661225586733 field_type=dipole dipole="0.000000 0.000000 0.000000" charge=0
C	-1.723009	-0.931795	-0.268191	6
C	-0.209198	-0.834085	-0.134841	6
C	0.328182	0.606225	-0.230861	6
N	-0.140229	1.439305	0.873599	7
C	1.772181	0.606225	-0.230861	6
C	2.962342	0.606225	-0.230861	6
H	-2.029228	-1.982535	-0.290911	1
H	-2.067599	-0.459545	-1.193961	1
H	-2.234689	-0.457785	0.574939	1
H	0.242722	-1.440325	-0.930431	1
H	0.097862	-1.295725	0.812379	1
H	-0.028789	1.053885	-1.165921	1
H	0.158231	1.021845	1.753439	1
H	-1.156389	1.452395	0.890429	1
H	4.027612	0.615685	-0.227941	1
Es	-2.072195	-0.604111	0.306407	99
Es	1.771910	0.606221	-0.230868	99
Es	3.661639	0.610243	-0.229353	99
Es	0.099244	-1.240764	-0.678777	99
Es	0.063432	1.056980	0.398438	99
Es	0.002769	-1.136850	0.514808	99
Es	-0.019224	1.747749	0.847913	99
Es	-1.928836	-1.639355	-0.283015	99
Es	0.328252	0.606269	-0.230736	99
Es	2.376530	0.339448	-0.459762	99
Es	2.371697	0.532637	0.119581	99
Es	-0.209233	-0.834050	-0.134847	99
Es	-1.956579	-0.607833	-0.897607	99
Es	-0.971897	-0.866939	-0.198649	99
Es	0.036762	1.168441	1.393933	99
Es	2.383748	0.932325	-0.349312	99
Es	0.072294	-0.111810	-0.182015	99
Es	1.084606	0.603056	-0.230387	99
Es	0.093985	0.901534	-0.859535	99
Es	-1.722984	-0.931787	-0.268186	99
Es	-0.140444	1.438738	0.873649	99
Es	2.962622	0.606215	-0.230860	99
Es	-0.765115	1.426254	0.877472	99
38
Properties=species:S:1:pos:R:3:Z:I:1 energy=-249.04661225586733 field_type=dipole dipole="0.000000 0.000000 0.000000" charge=0
C	-1.723009	-0.931795	-0.268191	6
C	-0.209198	-0.834085	-0.134841	6
C	0.328182	0.606225	-0.230861	6
N	-0.140229	1.439305	0.873599	7
C	1.772181	0.606225	-0.230861	6
C	2.962342	0.606225	-0.230861	6
H	-2.029228	-1.982535	-0.290911	1
H	-2.067599	-0.459545	-1.193961	1
H	-2.234689	-0.457785	0.574939	1
H	0.242722	-1.440325	-0.930431	1
H	0.097862	-1.295725	0.812379	1
H	-0.028789	1.053885	-1.165921	1
H	0.158231	1.021845	1.753439	1
H	-1.156389	1.452395	0.890429	1
H	4.027612	0.615685	-0.227941	1
Es	2.382081	0.281383	-0.086552	99
Es	2.373752	0.648579	-0.578003	99
Es	3.661881	0.611193	-0.229416	99
Es	-0.140478	1.438709	0.873644	99
Es	0.072172	-0.111658	-0.182205	99
Es	-0.209233	-0.834050	-0.134848	99
Es	0.038231	1.170247	1.393517	99
Es	0.002858	-1.136425	0.513911	99
Es	0.328251	0.606269	-0.230736	99
Es	2.962623	0.606219	-0.230857	99
Es	0.099437	-1.240577	-0.678033	99
Es	2.376119	0.873856	-0.025534	99
Es	-0.766101	1.425503	0.877751	99
Es	-1.956650	-0.608545	-0.896776	99
Es	0.093990	0.901232	-0.858577	99
Es	1.771911	0.606216	-0.230864	99
Es	0.065341	1.058849	0.397206	99
Es	-0.971813	-0.867166	-0.198754	99
Es	-0.021722	1.744563	0.848704	99
Es	-1.928862	-1.638394	-0.283339	99
Es	-2.072864	-0.604384	0.306132	99
Es	1.085041	0.602776	-0.229894	99
Es	-1.722984	-0.931786	-0.268186	99
38
Properties=species:S:1:pos:R:3:Z:I:1 energy=-249.04661225586733 field_type=dipole dipole="0.000000 0.000000 0.000000" charge=0
C	-1.723009	-0.931795	-0.268191	6
C	-0.209198	-0.834085	-0.134841	6
C	0.328182	0.606225	-0.230861	6
N	-0.140229	1.439305	0.873599	7
C	1.772181	0.606225	-0.230861	6
C	2.962342	0.606225	-0.230861	6
H	-2.029228	-1.982535	-0.290911	1
H	-2.067599	-0.459545	-1.193961	1
H	-2.234689	-0.457785	0.574939	1
H	0.242722	-1.440325	-0.930431	1
H	0.097862	-1.295725	0.812379	1
H	-0.028789	1.053885	-1.165921	1
H	0.158231	1.021845	1.753439	1
H	-1.156389	1.452395	0.890429	1
H	4.027612	0.615685	-0.227941	1
Es	-0.140480	1.438693	0.873646	99
Es	-0.209233	-0.834050	-0.134849	99
Es	2.383676	0.943452	-0.308330	99
Es	0.039302	1.170714	1.393132	99
Es	2.375297	0.374435	-0.487723	99
Es	-0.022787	1.741355	0.849314	99
Es	1.085484	0.602966	-0.230690	99
Es	0.066269	1.060352	0.396469	99
Es	-2.073402	-0.604791	0.305866	99
Es	2.962628	0.606219	-0.230872	99
Es	0.099606	-1.240396	-0.677411	99
Es	3.662057	0.610378	-0.229473	99
Es	0.093537	0.900948	-0.858029	99
Es	0.072333	-0.111580	-0.181961	99
Es	1.771909	0.606215	-0.230866	99
Es	0.328252	0.606269	-0.230736	99
Es	-0.971755	-0.867452	-0.198685	99
Es	0.002912	-1.136063	0.513130	99
Es	-1.928801	-1.637060	-0.283479	99
Es	2.372941	0.486546	0.106772	99
Es	-1.722986	-0.931786	-0.268185	99
Es	-1.956833	-0.609114	-0.896351	99
Es	-0.766943	1.426361	0.877603	99
38
Properties=species:S:1:pos:R:3:Z:I:1 energy=-249.04661225586733 field_type=dipole dipole="0.000000 0.000000 0.000000" charge=0
C	-1.723009	-0.931795	-0.268191	6
C	-0.209198	-0.834085	-0.134841	6
C	0.328182	0.606225	-0.230861	6
N	-0.140229	1.439305	0.873599	7
C	1.772181	0.606225	-0.230861	6
C	2.962342	0.606225	-0.230861	6
H	-2.029228	-1.982535	-0.290911	1
H	-2.067599	-0.459545	-1.193961	1
H	-2.234689	-0.457785	0.574939	1
H	0.242722	-1.440325	-0.930431	1
H	0.097862	-1.295725	0.812379	1
H	-0.028789	1.053885	-1.165921	1
H	0.158231	1.021845	1.753439	1
H	-1.156389	1.452395	0.890429	1
H	4.027612	0.615685	-0.227941	1
Es	1.085762	0.602962	-0.230720	99
Es	-0.767526	1.426286	0.877641	99
Es	2.373625	0.430160	-0.526246	99
Es	0.040013	1.171939	1.392756	99
Es	-0.140438	1.438756	0.873631	99
Es	2.962626	0.606214	-0.230863	99
Es	-0.971757	-0.867599	-0.198718	99
Es	-1.928646	-1.636197	-0.283710	99
Es	0.072130	-0.111613	-0.182058	99
Es	-1.956867	-0.609645	-0.895839	99
Es	0.099714	-1.240167	-0.676931	99
Es	2.375029	0.425027	0.080030	99
Es	0.003055	-1.135738	0.512540	99
Es	3.662174	0.610658	-0.229603	99
Es	-0.024255	1.738827	0.849802	99
Es	2.383252	0.948992	-0.243049	99
Es	-1.722984	-0.931786	-0.268185	99
Es	0.328253	0.606269	-0.230736	99
Es	-0.209233	-0.834052	-0.134848	99
Es	0.067493	1.061519	0.395840	99
Es	0.093599	0.900648	-0.857334	99
Es	1.771910	0.606224	-0.230860	99
Es	-2.073945	-0.605073	0.305750	99
38
Properties=species:S:1:pos:R:3:Z:I:1 energy=-249.04661225586733 field_type=dipole dipole="0.000000 0.000000 0.000000" charge=0
C	-1.723009	-0.931795	-0.268191	6
C	-0.209198	-0.834085	-0.134841	6
C	0.328182	0.606225	-0.230861	6
N	-0.140229	1.439305	0.873599	7
C	1.772181	0.606225	-0.230861	6
C	2.962342	0.606225	-0.230861	6
H	-2.029228	-1.982535	-0.290911	1
H	-2.067599	-0.459545	-1.193961	1
H	-2.234689	-0.457785	0.574939	1
H	0.242722	-1.440325	-0.930431	1
H	0.097862	-1.295725	0.812379	1
H	-0.028789	1.053885	-1.165921	1
H	0.158231	1.021845	1.753439	1
H	-1.156389	1.452395	0.890429	1
H	4.027612	0.615685	-0.227941	1
Es	2.375514	0.376180	-0.482570	99
Es	-0.209234	-0.834050	-0.134849	99
Es	-1.722984	-0.931786	-0.268186	99
Es	-0.140479	1.438687	0.873644	99
Es	0.093366	0.900548	-0.856809	99
Es	-1.928659	-1.635426	-0.283853	99
Es	2.962626	0.606210	-0.230862	99
Es	-0.025736	1.736490	0.849600	99
Es	0.328253	0.606268	-0.230737	99
Es	-1.956811	-0.610155	-0.895309	99
Es	0.002802	-1.135439	0.511645	99
Es	1.085994	0.602845	-0.230937	99
Es	0.068297	1.062384	0.395451	99
Es	-0.767928	1.426159	0.877603	99
Es	2.372889	0.485678	0.106091	99
Es	3.662268	0.610565	-0.229261	99
Es	-2.074364	-0.605189	0.305495	99
Es	1.771907	0.606216	-0.230865	99
Es	0.099830	-1.240204	-0.676350	99
Es	0.072374	-0.111395	-0.181851	99
Es	-0.971721	-0.867844	-0.198709	99
Es	2.383492	0.942627	-0.312988	99
Es	0.041286	1.173240	1.392898	99
38
Properties=species:S:1:pos:R:3:Z:I:1 energy=-249.04661225586733 field_type=dipole dipole="0.000000 0.000000 0.000000" charge=0
C	-1.723009	-0.931795	-0.268191	6
C	-0.209198	-0.834085	-0.134841	6
C	0.328182	0.606225	-0.230861	6
N	-0.140229	1.439305	0.873599	7
C	1.772181	0.606225	-0.230861	6
C	2.962342	0.606225	-0.230861	6
H	-2.029228	-1.982535	-0.290911	1
H	-2.067599	-0.459545	-1.193961	1
H	-2.234689	-0.457785	0.574939	1
H	0.242722	-1.440325	-0.930431	1
H	0.097862	-1.295725	0.812379	1
H	-0.028789	1.053885	-1.165921	1
H	0.158231	1.021845	1.753439	1
H	-1.156389	1.452395	0.890429	1
H	4.027612	0.615685	-0.227941	1
Es	0.002766	-1.135174	0.511149	99
Es	2.383279	0.937818	-0.334524	99
Es	-0.209234	-0.834050	-0.134848	99
Es	2.376279	0.360266	-0.465579	99
Es	0.093212	0.900479	-0.856322	99
Es	0.042080	1.173919	1.392605	99
Es	-2.074767	-0.605309	0.305268	99
Es	0.072394	-0.111355	-0.181878	99
Es	1.086171	0.602860	-0.231167	99
Es	-0.026857	1.734663	0.849861	99
Es	0.099829	-1.240168	-0.675844	99
Es	1.771907	0.606216	-0.230866	99
Es	0.328252	0.606269	-0.230736	99
Es	-1.956724	-0.610581	-0.894971	99
Es	0.069162	1.063476	0.395001	99
Es	-1.722983	-0.931786	-0.268184	99
Es	2.962627	0.606216	-0.230858	99
Es	-0.140478	1.438687	0.873653	99
Es	-0.971709	-0.868021	-0.198636	99
Es	3.662339	0.610608	-0.229167	99
Es	2.372325	0.506400	0.110679	99
Es	-1.928608	-1.634731	-0.283963	99
Es	-0.768279	1.425908	0.877620	99
38
Properties=species:S:1:pos:R:3:Z:I:1 energy=-249.04661225586733 field_type=dipole dipole="0.000000 0.000000 0.000000" charge=0
C	-1.723009	-0.931795	-0.268191	6
C	-0.209198	-0.834085	-0.134841	6
C	0.328182	0.606225	-0.230861	6
N	-0.140229	1.439305	0.873599	7
C	1.772181	0.606225	-0.230861	6
C	2.962342	0.606225	-0.230861	6
H	-2.029228	-1.982535	-0.290911	1
H	-2.067599	-0.459545	-1.193961	1
H	-2.234689	-0.457785	0.574939	1
H	0.242722	-1.440325	-0.930431	1
H	0.097862	-1.295725	0.812379	1
H	-0.028789	1.053885	-1.165921	1
H	0.158231	1.021845	1.753439	1
H	-1.156389	1.452395	0.890429	1
H	4.027612	0.615685	-0.227941	1
Es	-0.971696	-0.868194	-0.198655	99
Es	0.072338	-0.111189	-0.181743	99
Es	0.070971	1.065616	0.393625	99
Es	-0.209234	-0.834049	-0.134847	99
Es	-0.768540	1.425999	0.877627	99
Es	-1.956660	-0.610984	-0.894535	99
Es	-1.928191	-1.633842	-0.284404	99
Es	2.374110	0.448903	0.090765	99
Es	0.328253	0.606269	-0.230736	99
Es	-1.722988	-0.931785	-0.268185	99
Es	0.042888	1.174714	1.392541	99
Es	2.962628	0.606214	-0.230862	99
Es	1.771906	0.606216	-0.230867	99
Es	-0.029016	1.731352	0.850866	99
Es	3.662381	0.610815	-0.229221	99
Es	1.086332	0.602824	-0.231280	99
Es	0.002551	-1.134863	0.510465	99
Es	2.383212	0.948998	-0.277330	99
Es	0.099955	-1.240229	-0.675425	99
Es	2.374559	0.406437	-0.502809	99
Es	0.093171	0.900418	-0.855804	99
Es	-0.140491	1.438736	0.873662	99
Es	-2.075457	-0.605766	0.305441	99
38
Properties=species:S:1:pos:R:3:Z:I:1 energy=-249.04661225586733 field_type=dipole dipole="0.000000 0.000000 0.000000" charge=0
C	-1.723009	-0.931795	-0.268191	6
C	-0.209198	-0.834085	-0.134841	6
C	0.328182	0.606225	-0.230861	6
N	-0.140229	1.439305	0.873599	7
C	1.772181	0.606225	-0.230861	6
C	2.962342	0.606225	-0.230861	6
H	-2.029228	-1.982535	-0.290911	1
H	-2.067599	-0.459545	-1.193961	1
H	-2.234689	-0.457785	0.574939	1
H	0.242722	-1.440325	-0.930431	1
H	0.097862	-1.295725	0.812379	1
H	-0.028789	1.053885	-1.165921	1
H	0.158231	1.021845	1.753439	1
H	-1.156389	1.452395	0.890429	1
H	4.027612	0.615685	-0.227941	1
Es	2.962627	0.606218	-0.230859	99
Es	0.002361	-1.134684	0.509848	99
Es	-1.722983	-0.931786	-0.268186	99
Es	-2.075846	-0.605630	0.305298	99
Es	-1.928281	-1.633670	-0.284676	99
Es	0.328252	0.606270	-0.230734	99
Es	-0.209234	-0.834050	-0.134850	99
Es	-0.140450	1.438732	0.873633	99
Es	-1.956337	-0.611377	-0.893868	99
Es	2.380051	0.915862	-0.112011	99
Es	2.379118	0.323066	-0.007865	99
Es	0.072142	1.066814	0.392933	99
Es	0.072382	-0.111219	-0.181927	99
Es	-0.971699	-0.868189	-0.198712	99
Es	1.086421	0.603084	-0.231119	99
Es	-0.768694	1.425135	0.877597	99
Es	0.042886	1.174853	1.391972	99
Es	2.372713	0.564888	-0.569472	99
Es	0.099758	-1.240350	-0.674858	99
Es	-0.029909	1.730714	0.851706	99
Es	3.662417	0.611281	-0.229490	99
Es	0.093378	0.900421	-0.855204	99
Es	1.771908	0.606224	-0.230864	99
38
Properties=species:S:1:pos:R:3:Z:I:1 energy=-249.04661225586733 field_type=dipole dipole="0.000000 0.000000 0.000000" charge=0
C	-1.723009	-0.931795	-0.268191	6
C	-0.209198	-0.834085	-0.134841	6
C	0.328182	0.606225	-0.230861	6
N	-0.140229	1.439305	0.873599	7
C	1.772181	0.606225	-0.230861	6
C	2.962342	0.606225	-0.230861	6
H	-2.029228	-1.982535	-0.290911	1
H	-2.067599	-0.459545	-1.193961	1
H	-2.234689	-0.457785	0.574939	1
H	0.242722	-1.440325	-0.930431	1
H	0.097862	-1.295725	0.812379	1
H	-0.028789	1.053885	-1.165921	1
H	0.158231	1.021845	1.753439	1
H	-1.156389	1.452395	0.890429	1
H	4.027612	0.615685	-0.227941	1
Es	1.771906	0.606216	-0.230866	99
Es	0.002027	-1.134366	0.509241	99
Es	-1.928383	-1.633180	-0.284891	99
Es	3.662458	0.610773	-0.228997	99
Es	2.962628	0.606208	-0.230856	99
Es	-0.971698	-0.868418	-0.198698	99
Es	0.072657	1.066801	0.392907	99
Es	-2.076273	-0.605508	0.305032	99
Es	-0.032323	1.726882	0.850148	99
Es	2.373750	0.456396	0.094359	99
Es	2.383174	0.947532	-0.290552	99
Es	0.328253	0.606269	-0.230737	99
Es	2.374947	0.400588	-0.493237	99
Es	1.086544	0.602810	-0.231457	99
Es	-0.768895	1.425462	0.877514	99
Es	0.093251	0.900351	-0.854955	99
Es	-0.140498	1.438656	0.873648	99
Es	-1.955968	-0.611740	-0.893428	99
Es	0.100102	-1.240408	-0.674572	99
Es	0.072392	-0.111085	-0.181533	99
Es	-1.722985	-0.931785	-0.268184	99
Es	-0.209234	-0.834049	-0.134847	99
Es	0.045148	1.178206	1.393252	99
38
Properties=species:S:1:pos:R:3:Z:I:1 energy=-249.04661225586733 field_type=dipole dipole="0.000000 0.000000 0.000000" charge=0
C	-1.723009	-0.931795	-0.268191	6
C	-0.209198	-0.834085	-0.134841	6
C	0.328182	0.606225	-0.230861	6
N	-0.140229	1.439305	0.873599	7
C	1.772181	0.606225	-0.230861	6
C	2.962342	0.606225	-0.230861	6
H	-2.029228	-1.982535	-0.290911	1
H	-2.067599	-0.459545	-1.193961	1
H	-2.234689	-0.457785	0.574939	1
H	0.242722	-1.440325	-0.930431	1
H	0.097862	-1.295725	0.812379	1
H	-0.028789	1.053885	-1.165921	1
H	0.158231	1.021845	1.753439	1
H	-1.156389	1.452395	0.890429	1
H	4.027612	0.615685	-0.227941	1
Es	2.374306	0.422511	-0.506436	99
Es	2.374611	0.431332	0.082412	99
Es	3.662478	0.610845	-0.228995	99
Es	0.046707	1.180284	1.393765	99
Es	2.962628	0.606219	-0.230857	99
Es	-0.769011	1.425065	0.877661	99
Es	0.099953	-1.240566	-0.674088	99
Es	-2.076727	-0.605518	0.304953	99
Es	0.328252	0.606269	-0.230738	99
Es	-0.971684	-0.868437	-0.198703	99
Es	0.001821	-1.134176	0.508755	99
Es	0.072267	-0.111054	-0.181631	99
Es	0.074638	1.068943	0.391455	99
Es	0.093436	0.900444	-0.854461	99
Es	-1.955869	-0.612276	-0.893204	99
Es	1.086609	0.602847	-0.231531	99
Es	-1.928132	-1.632688	-0.284906	99
Es	1.771906	0.606219	-0.230855	99
Es	-0.140415	1.438799	0.873619	99
Es	-0.035531	1.722779	0.850510	99
Es	-1.722984	-0.931787	-0.268185	99
Es	2.382955	0.950605	-0.265400	99
Es	-0.209234	-0.834049	-0.134848	99
38
Properties=species:S:1:pos:R:3:Z:I:1 energy=-249.04661225586733 field_type=dipole dipole="0.000000 0.000000 0.000000" charge=0
C	-1.723009	-0.931795	-0.268191	6
C	-0.209198	-0.834085	-0.134841	6
C	0.328182	0.606225	-0.230861	6
N	-0.140229	1.439305	0.873599	7
C	1.772181	0.606225	-0.230861	6
C	2.962342	0.606225	-0.230861	6
H	-2.029228	-1.982535	-0.290911	1
H	-2.067599	-0.459545	-1.193961	1
H	-2.234689	-0.457785	0.574939	1
H	0.242722	-1.440325	-0.930431	1
H	0.097862	-1.295725	0.812379	1
H	-0.028789	1.053885	-1.165921	1
H	0.158231	1.021845	1.753439	1
H	-1.156389	1.452395	0.890429	1
H	4.027612	0.615685	-0.227941	1
Es	2.382663	0.951523	-0.242220	99
Es	-2.077504	-0.605748	0.304962	99
Es	2.373810	0.444886	-0.516793	99
Es	0.072581	-0.110871	-0.181374	99
Es	1.771906	0.606212	-0.230870	99
Es	3.662495	0.611068	-0.228889	99
Es	-0.140532	1.438554	0.873639	99
Es	0.100073	-1.240738	-0.673767	99
Es	0.328253	0.606268	-0.230737	99
Es	-1.927749	-1.632005	-0.285274	99
Es	2.962629	0.606214	-0.230859	99
Es	1.086662	0.602805	-0.231631	99
Es	-0.037675	1.719875	0.850724	99
Es	2.375394	0.407981	0.069540	99
Es	-0.971661	-0.868478	-0.198676	99
Es	0.047861	1.181801	1.394085	99
Es	-0.209234	-0.834050	-0.134848	99
Es	0.075920	1.070761	0.390710	99
Es	0.001490	-1.133926	0.508194	99
Es	-1.955576	-0.612788	-0.892787	99
Es	-1.722986	-0.931784	-0.268182	99
Es	0.093256	0.900380	-0.854299	99
Es	-0.769094	1.424670	0.877645	99
38
Properties=species:S:1:pos:R:3:Z:I:1 energy=-249.04661225586733 field_type=dipole dipole="0.000000 0.000000 0.000000" charge=0
C	-1.723009	-0.931795	-0.268191	6
C	-0.209198	-0.834085	-0.134841	6
C	0.328182	0.606225	-0.230861	6
N	-0.140229	1.439305	0.873599	7
C	1.772181	0.606225	-0.230861	6
C	2.962342	0.606225	-0.230861	6
H	-2.029228	-1.982535	-0.290911	1
H	-2.067599	-0.459545	-1.193961	1
H	-2.234689	-0.457785	0.574939	1
H	0.242722	-1.440325	-0.930431	1
H	0.097862	-1.295725	0.812379	1
H	-0.028789	1.053885	-1.165921	1
H	0.158231	1.021845	1.753439	1
H	-1.156389	1.452395	0.890429	1
H	4.027612	0.615685	-0.227941	1
Es	1.771906	0.606215	-0.230865	99
Es	-0.971682	-0.868430	-0.198730	99
Es	-0.209234	-0.834051	-0.134848	99
Es	-0.038224	1.719870	0.851073	99
Es	2.382000	0.260190	-0.144297	99
Es	0.076620	1.071667	0.389918	99
Es	0.093734	0.900529	-0.853526	99
Es	0.099780	-1.240737	-0.673169	99
Es	2.374147	0.819166	0.009732	99
Es	-2.077524	-0.605436	0.304587	99
Es	0.328253	0.606269	-0.230737	99
Es	1.086718	0.602859	-0.231549	99
Es	-1.955285	-0.612960	-0.892352	99
Es	2.962628	0.606224	-0.230849	99
Es	3.662495	0.611857	-0.228584	99
Es	0.072083	-0.110981	-0.181754	99
Es	-1.928046	-1.632417	-0.285323	99
Es	2.375735	0.724454	-0.555327	99
Es	0.048060	1.181624	1.393832	99
Es	0.001410	-1.133837	0.507930	99
Es	-0.769099	1.423671	0.877662	99
Es	-0.140509	1.438648	0.873652	99
Es	-1.722984	-0.931786	-0.268185	99
38
Properties=species:S:1:pos:R:3:Z:I:1 energy=-249.04661225586733 field_type=dipole dipole="0.000000 0.000000 0.000000" charge=0
C	-1.723009	-0.931795	-0.268191	6
C	-0.209198	-0.834085	-0.134841	6
C	0.328182	0.606225	-0.230861	6
N	-0.140229	1.439305	0.873599	7
C	1.772181	0.606225	-0.230861	6
C	2.962342	0.606225	-0.230861	6
H	-2.029228	-1.982535	-0.290911	1
H	-2.067599	-0.459545	-1.193961	1
H	-2.234689	-0.457785	0.574939	1
H	0.242722	-1.440325	-0.930431	1
H	0.097862	-1.295725	0.812379	1
H	-0.028789	1.053885	-1.165921	1
H	0.158231	1.021845	1.753439	1
H	-1.156389	1.452395	0.890429	1
H	4.027612	0.615685	-0.227941	1
Es	0.049226	1.183331	1.394146	99
Es	0.077900	1.072926	0.389247	99
Es	2.381702	0.261704	-0.132840	99
Es	-0.209234	-0.834050	-0.134853	99
Es	1.086738	0.602932	-0.231610	99
Es	1.771905	0.606213	-0.230864	99
Es	2.375524	0.715348	-0.557426	99
Es	0.000815	-1.133517	0.507140	99
Es	0.099934	-1.241073	-0.672714	99
Es	-0.769186	1.423528	0.877684	99
Es	0.072255	-0.110914	-0.181424	99
Es	0.093706	0.900767	-0.853287	99
Es	-2.077911	-0.605181	0.304426	99
Es	-1.954917	-0.613328	-0.891976	99
Es	-1.722984	-0.931785	-0.268185	99
Es	3.662504	0.611832	-0.228520	99
Es	2.962628	0.606220	-0.230856	99
Es	0.328253	0.606269	-0.230737	99
Es	2.374656	0.826764	0.000413	99
Es	-0.040248	1.716783	0.851087	99
Es	-0.971686	-0.868608	-0.198739	99
Es	-1.928087	-1.632196	-0.285475	99
Es	-0.140511	1.438648	0.873652	99
38
Properties=species:S:1:pos:R:3:Z:I:1 energy=-249.04661225586733 field_type=dipole dipole="0.000000 0.000000 0.000000" charge=0
C	-1.723009	-0.931795	-0.268191	6
C	-0.209198	-0.834085	-0.134841	6
C	0.328182	0.606225	-0.230861	6
N	-0.140229	1.439305	0.873599	7
C	1.772181	0.606225	-0.230861	6
C	2.962342	0.606225	-0.230861	6
H	-2.029228	-1.982535	-0.290911	1
H	-2.067599	-0.459545	-1.193961	1
H	-2.234689	-0.457785	0.574939	1
H	0.242722	-1.440325	-0.930431	1
H	0.097862	-1.295725	0.812379	1
H	-0.028789	1.053885	-1.165921	1
H	0.158231	1.021845	1.753439	1
H	-1.156389	1.452395	0.890429	1
H	4.027612	0.615685	-0.227941	1
Es	-0.041204	1.714706	0.853037	99
Es	-0.769262	1.423853	0.877450	99
Es	1.086786	0.603180	-0.231758	99
Es	2.377958	0.886291	-0.063237	99
Es	1.771905	0.606217	-0.230868	99
Es	3.662522	0.611617	-0.228818	99
Es	2.962628	0.606225	-0.230853	99
Es	2.380186	0.287481	-0.060238	99
Es	0.099480	-1.241148	-0.672157	99
Es	-1.927753	-1.631542	-0.285714	99
Es	0.072286	-0.110768	-0.181325	99
Es	-0.140507	1.438627	0.873647	99
Es	-1.954839	-0.613563	-0.891809	99
Es	-1.722984	-0.931786	-0.268185	99
Es	0.048511	1.181836	1.393470	99
Es	2.373733	0.629940	-0.565982	99
Es	0.000820	-1.133447	0.506913	99
Es	0.328253	0.606268	-0.230737	99
Es	-2.078390	-0.605518	0.304513	99
Es	0.093437	0.900969	-0.853083	99
Es	-0.209235	-0.834049	-0.134849	99
Es	0.080328	1.075862	0.387478	99
Es	-0.971679	-0.868642	-0.198606	99
38
Properties=species:S:1:pos:R:3:Z:I:1 energy=-249.04661225586733 field_type=dipole dipole="0.000000 0.000000 0.000000" charge=0
C	-1.723009	-0.931795	-0.268191	6
C	-0.209198	-0.834085	-0.134841	6
C	0.328182	0.606225	-0.230861	6
N	-0.140229	1.439305	0.873599	7
C	1.772181	0.606225	-0.230861	6
C	2.962342	0.606225	-0.230861	6
H	-2.029228	-1.982535	-0.290911	1
H	-2.067599	-0.459545	-1.193961	1
H	-2.234689	-0.457785	0.574939	1
H	0.242722	-1.440325	-0.930431	1
H	0.097862	-1.295725	0.812379	1
H	-0.028789	1.053885	-1.165921	1
H	0.158231	1.021845	1.753439	1
H	-1.156389	1.452395	0.890429	1
H	4.027612	0.615685	-0.227941	1
Es	0.072625	-0.110674	-0.180940	99
Es	0.078953	1.073671	0.388504	99
Es	-0.209235	-0.834049	-0.134849	99
Es	-1.927919	-1.631223	-0.286022	99
Es	2.372763	0.499137	0.102061	99
Es	1.771905	0.606215	-0.230867	99
Es	0.051804	1.185990	1.394934	99
Es	-0.971662	-0.868781	-0.198563	99
Es	1.086839	0.602994	-0.231897	99
Es	0.328254	0.606268	-0.230736	99
Es	3.662543	0.610664	-0.228236	99
Es	0.100021	-1.241663	-0.671814	99
Es	-2.079185	-0.604875	0.303991	99
Es	2.382178	0.942064	-0.340446	99
Es	-0.140527	1.438575	0.873648	99
Es	-0.042743	1.711499	0.850442	99
Es	0.000158	-1.132832	0.506237	99
Es	-1.722987	-0.931788	-0.268186	99
Es	2.962629	0.606214	-0.230853	99
Es	2.376921	0.363657	-0.451387	99
Es	-1.953962	-0.614283	-0.891045	99
Es	-0.769374	1.424614	0.877346	99
Es	0.092982	0.901216	-0.853031	99
