39
Properties=species:S:1:pos:R:3:Z:I:1 energy=-233.09144520034334 field_type=dipole dipole="0.000000 0.000000 0.000000" charge=0
C	-1.559233	0.002685	0.837600	6
C	-0.028243	-0.005215	0.795310	6
C	0.503267	-1.224155	0.023080	6
C	0.799097	-0.663805	-1.329810	6
C	0.806127	0.672585	-1.322650	6
C	0.515547	1.218255	0.039310	6
H	-1.924393	0.883405	1.376250	1
H	-1.934333	-0.886045	1.355920	1
H	-1.994243	0.016775	-0.167340	1
H	0.338027	-0.013735	1.828920	1
H	-0.226003	-2.038365	-0.026970	1
H	1.425797	-1.606895	0.472950	1
H	1.014007	-1.275465	-2.195670	1
H	1.027717	1.293395	-2.179510	1
H	1.442267	1.586015	0.493520	1
H	-0.205403	2.040565	-0.000910	1
Es	-1.559221	0.002685	0.837602	99
Es	0.799085	-0.663934	-1.329797	99
Es	0.659375	0.980898	-0.660146	99
Es	0.242498	0.622990	0.428572	99
Es	1.115661	0.002456	-1.273145	99
Es	0.806132	0.672717	-1.322633	99
Es	0.022475	1.778927	0.013114	99
Es	0.503275	-1.224133	0.023054	99
Es	-0.028269	-0.005215	0.795273	99
Es	1.134286	-1.481438	0.324137	99
Es	0.515555	1.218234	0.039281	99
Es	0.649545	-0.978987	-0.672254	99
Es	0.222642	-0.011142	1.508668	99
Es	0.944161	-1.090077	-1.914397	99
Es	-1.850800	0.012191	0.150694	99
Es	0.481018	0.006709	-1.423496	99
Es	0.236192	-0.631344	0.420134	99
Es	1.149392	1.465395	0.343343	99
Es	-0.801478	-0.001224	0.806569	99
Es	-1.813064	-0.607702	1.192140	99
Es	0.004495	-1.779274	-0.010133	99
Es	-1.806287	0.607600	1.205960	99
Es	0.955768	1.104801	-1.901155	99
39
Properties=species:S:1:pos:R:3:Z:I:1 energy=-233.09144520034334 field_type=dipole dipole="0.000000 0.000000 0.000000" charge=0
C	-1.559233	0.002685	0.837600	6
C	-0.028243	-0.005215	0.795310	6
C	0.503267	-1.224155	0.023080	6
C	0.799097	-0.663805	-1.329810	6
C	0.806127	0.672585	-1.322650	6
C	0.515547	1.218255	0.039310	6
H	-1.924393	0.883405	1.376250	1
H	-1.934333	-0.886045	1.355920	1
H	-1.994243	0.016775	-0.167340	1
H	0.338027	-0.013735	1.828920	1
H	-0.226003	-2.038365	-0.026970	1
H	1.425797	-1.606895	0.472950	1
H	1.014007	-1.275465	-2.195670	1
H	1.027717	1.293395	-2.179510	1
H	1.442267	1.586015	0.493520	1
H	-0.205403	2.040565	-0.000910	1
Es	0.943507	-1.090447	-1.914271	99
Es	0.221228	-0.011118	1.508004	99
Es	0.799094	-0.663938	-1.329798	99
Es	-0.801593	-0.001249	0.806535	99
Es	0.660128	0.981101	-0.659190	99
Es	0.503275	-1.224133	0.023053	99
Es	0.242556	0.623739	0.428631	99
Es	0.004229	-1.780598	-0.010552	99
Es	0.022139	1.780250	0.012613	99
Es	0.806135	0.672724	-1.322632	99
Es	0.480432	0.006701	-1.422905	99
Es	0.515556	1.218233	0.039281	99
Es	1.148948	1.464835	0.342308	99
Es	-1.559220	0.002686	0.837598	99
Es	-1.813068	-0.609627	1.192019	99
Es	1.133888	-1.480850	0.322952	99
Es	0.955135	1.105192	-1.901036	99
Es	-1.806151	0.609468	1.205988	99
Es	0.650178	-0.979293	-0.671275	99
Es	0.236259	-0.632049	0.420253	99
Es	-1.848929	0.012273	0.151525	99
Es	-0.028266	-0.005215	0.795272	99
Es	1.116979	0.002450	-1.272987	99
39
Properties=species:S:1:pos:R:3:Z:I:1 energy=-233.09144520034334 field_type=dipole dipole="0.000000 0.000000 0.000000" charge=0
C	-1.559233	0.002685	0.837600	6
C	-0.028243	-0.005215	0.795310	6
C	0.503267	-1.224155	0.023080	6
C	0.799097	-0.663805	-1.329810	6
C	0.806127	0.672585	-1.322650	6
C	0.515547	1.218255	0.039310	6
H	-1.924393	0.883405	1.376250	1
H	-1.934333	-0.886045	1.355920	1
H	-1.994243	0.016775	-0.167340	1
H	0.338027	-0.013735	1.828920	1
H	-0.226003	-2.038365	-0.026970	1
H	1.425797	-1.606895	0.472950	1
H	1.014007	-1.275465	-2.195670	1
H	1.027717	1.293395	-2.179510	1
H	1.442267	1.586015	0.493520	1
H	-0.205403	2.040565	-0.000910	1
Es	1.148634	1.464216	0.341425	99
Es	0.236128	-0.632604	0.420206	99
Es	0.806124	0.672719	-1.322633	99
Es	0.004113	-1.781664	-0.010892	99
Es	0.220003	-0.011103	1.507501	99
Es	-1.805849	0.610956	1.205933	99
Es	-1.812796	-0.611079	1.192001	99
Es	0.503277	-1.224134	0.023054	99
Es	0.479966	0.006698	-1.422328	99
Es	0.799085	-0.663935	-1.329799	99
Es	0.242384	0.624292	0.428596	99
Es	0.022032	1.781376	0.012318	99
Es	-0.028266	-0.005214	0.795272	99
Es	0.942948	-1.090814	-1.914194	99
Es	1.133590	-1.480269	0.322099	99
Es	0.650685	-0.979516	-0.670453	99
Es	0.660679	0.981334	-0.658324	99
Es	1.118005	0.002446	-1.272908	99
Es	-1.847476	0.012226	0.152098	99
Es	-1.559219	0.002685	0.837602	99
Es	-0.801727	-0.001270	0.806470	99
Es	0.515555	1.218233	0.039282	99
Es	0.954563	1.105553	-1.900942	99
39
Properties=species:S:1:pos:R:3:Z:I:1 energy=-233.09144520034334 field_type=dipole dipole="0.000000 0.000000 0.000000" charge=0
C	-1.559233	0.002685	0.837600	6
C	-0.028243	-0.005215	0.795310	6
C	0.503267	-1.224155	0.023080	6
C	0.799097	-0.663805	-1.329810	6
C	0.806127	0.672585	-1.322650	6
C	0.515547	1.218255	0.039310	6
H	-1.924393	0.883405	1.376250	1
H	-1.934333	-0.886045	1.355920	1
H	-1.994243	0.016775	-0.167340	1
H	0.338027	-0.013735	1.828920	1
H	-0.226003	-2.038365	-0.026970	1
H	1.425797	-1.606895	0.472950	1
H	1.014007	-1.275465	-2.195670	1
H	1.027717	1.293395	-2.179510	1
H	1.442267	1.586015	0.493520	1
H	-0.205403	2.040565	-0.000910	1
Es	-1.805563	0.612091	1.205855	99
Es	-0.801837	-0.001140	0.806535	99
Es	0.235784	-0.632912	0.419949	99
Es	0.942569	-1.091154	-1.914087	99
Es	0.479300	0.006700	-1.421744	99
Es	0.515555	1.218233	0.039283	99
Es	0.661113	0.981581	-0.657430	99
Es	-1.812370	-0.612289	1.191948	99
Es	0.503275	-1.224133	0.023053	99
Es	0.242083	0.624585	0.428319	99
Es	-1.846293	0.012188	0.152597	99
Es	1.118692	0.002446	-1.273040	99
Es	0.021911	1.782149	0.012003	99
Es	0.003985	-1.782508	-0.011143	99
Es	0.954179	1.105866	-1.900818	99
Es	1.148545	1.463809	0.340752	99
Es	0.651088	-0.979741	-0.669617	99
Es	0.219228	-0.011114	1.507151	99
Es	1.133466	-1.479774	0.321380	99
Es	0.806124	0.672719	-1.322633	99
Es	0.799093	-0.663941	-1.329802	99
Es	-1.559221	0.002685	0.837602	99
Es	-0.028266	-0.005215	0.795272	99
39
Properties=species:S:1:pos:R:3:Z:I:1 energy=-233.09144520034334 field_type=dipole dipole="0.000000 0.000000 0.000000" charge=0
C	-1.559233	0.002685	0.837600	6
C	-0.028243	-0.005215	0.795310	6
C	0.503267	-1.224155	0.023080	6
C	0.799097	-0.663805	-1.329810	6
C	0.806127	0.672585	-1.322650	6
C	0.515547	1.218255	0.039310	6
H	-1.924393	0.883405	1.376250	1
H	-1.934333	-0.886045	1.355920	1
H	-1.994243	0.016775	-0.167340	1
H	0.338027	-0.013735	1.828920	1
H	-0.226003	-2.038365	-0.026970	1
H	1.425797	-1.606895	0.472950	1
H	1.014007	-1.275465	-2.195670	1
H	1.027717	1.293395	-2.179510	1
H	1.442267	1.586015	0.493520	1
H	-0.205403	2.040565	-0.000910	1
Es	0.235326	-0.633211	0.419712	99
Es	-1.805167	0.612961	1.205788	99
Es	0.218501	-0.011057	1.506834	99
Es	0.661489	0.981910	-0.656584	99
Es	-1.845206	0.012260	0.152849	99
Es	0.503276	-1.224133	0.023054	99
Es	0.651535	-0.979958	-0.668741	99
Es	-1.812104	-0.613218	1.191825	99
Es	0.953721	1.106151	-1.900702	99
Es	0.241695	0.624713	0.427912	99
Es	0.806121	0.672720	-1.322634	99
Es	0.942107	-1.091437	-1.913960	99
Es	-1.559220	0.002685	0.837603	99
Es	1.133348	-1.479477	0.320896	99
Es	0.003861	-1.783097	-0.011538	99
Es	-0.028266	-0.005215	0.795271	99
Es	-0.801733	-0.001134	0.806830	99
Es	0.799092	-0.663939	-1.329798	99
Es	0.021815	1.782827	0.011739	99
Es	1.148420	1.463414	0.340189	99
Es	0.515555	1.218234	0.039282	99
Es	1.119440	0.002440	-1.273049	99
Es	0.478834	0.006695	-1.421396	99
39
Properties=species:S:1:pos:R:3:Z:I:1 energy=-233.09144520034334 field_type=dipole dipole="0.000000 0.000000 0.000000" charge=0
C	-1.559233	0.002685	0.837600	6
C	-0.028243	-0.005215	0.795310	6
C	0.503267	-1.224155	0.023080	6
C	0.799097	-0.663805	-1.329810	6
C	0.806127	0.672585	-1.322650	6
C	0.515547	1.218255	0.039310	6
H	-1.924393	0.883405	1.376250	1
H	-1.934333	-0.886045	1.355920	1
H	-1.994243	0.016775	-0.167340	1
H	0.338027	-0.013735	1.828920	1
H	-0.226003	-2.038365	-0.026970	1
H	1.425797	-1.606895	0.472950	1
H	1.014007	-1.275465	-2.195670	1
H	1.027717	1.293395	-2.179510	1
H	1.442267	1.586015	0.493520	1
H	-0.205403	2.040565	-0.000910	1
Es	0.217986	-0.011066	1.506662	99
Es	0.651637	-0.980159	-0.668045	99
Es	0.953374	1.106426	-1.900642	99
Es	0.515555	1.218234	0.039282	99
Es	0.941828	-1.091742	-1.913856	99
Es	0.806123	0.672719	-1.322635	99
Es	0.003826	-1.783628	-0.011766	99
Es	1.120001	0.002438	-1.272971	99
Es	0.241248	0.624924	0.427588	99
Es	-0.802119	-0.001329	0.806713	99
Es	0.234959	-0.633240	0.419334	99
Es	-1.559220	0.002685	0.837603	99
Es	1.133341	-1.479120	0.320489	99
Es	-0.028266	-0.005214	0.795271	99
Es	-1.811645	-0.613883	1.191839	99
Es	0.503275	-1.224135	0.023054	99
Es	0.478634	0.006689	-1.421065	99
Es	0.799091	-0.663939	-1.329797	99
Es	-1.844539	0.012200	0.153079	99
Es	-1.804483	0.613839	1.205837	99
Es	1.148438	1.463087	0.339824	99
Es	0.021766	1.783358	0.011396	99
Es	0.661630	0.981990	-0.655811	99
39
Properties=species:S:1:pos:R:3:Z:I:1 energy=-233.09144520034334 field_type=dipole dipole="0.000000 0.000000 0.000000" charge=0
C	-1.559233	0.002685	0.837600	6
C	-0.028243	-0.005215	0.795310	6
C	0.503267	-1.224155	0.023080	6
C	0.799097	-0.663805	-1.329810	6
C	0.806127	0.672585	-1.322650	6
C	0.515547	1.218255	0.039310	6
H	-1.924393	0.883405	1.376250	1
H	-1.934333	-0.886045	1.355920	1
H	-1.994243	0.016775	-0.167340	1
H	0.338027	-0.013735	1.828920	1
H	-0.226003	-2.038365	-0.026970	1
H	1.425797	-1.606895	0.472950	1
H	1.014007	-1.275465	-2.195670	1
H	1.027717	1.293395	-2.179510	1
H	1.442267	1.586015	0.493520	1
H	-0.205403	2.040565	-0.000910	1
Es	0.240885	0.624924	0.427265	99
Es	0.799097	-0.663941	-1.329799	99
Es	0.941571	-1.091949	-1.913762	99
Es	0.806115	0.672722	-1.322639	99
Es	0.003797	-1.784157	-0.011934	99
Es	0.651958	-0.980426	-0.667321	99
Es	-1.804107	0.614361	1.205807	99
Es	-0.028266	-0.005215	0.795271	99
Es	-1.844065	0.012185	0.153342	99
Es	-1.811056	-0.614537	1.191872	99
Es	0.515555	1.218234	0.039282	99
Es	-1.559221	0.002685	0.837600	99
Es	0.661838	0.982209	-0.655037	99
Es	1.133239	-1.478756	0.320070	99
Es	0.478252	0.006699	-1.420726	99
Es	1.148394	1.462841	0.339455	99
Es	1.120347	0.002440	-1.273135	99
Es	0.234626	-0.633205	0.418961	99
Es	0.503274	-1.224134	0.023054	99
Es	-0.802131	-0.001214	0.806613	99
Es	0.217508	-0.011095	1.506501	99
Es	0.953125	1.106692	-1.900544	99
Es	0.021701	1.783769	0.011188	99
39
Properties=species:S:1:pos:R:3:Z:I:1 energy=-233.09144520034334 field_type=dipole dipole="0.000000 0.000000 0.000000" charge=0
C	-1.559233	0.002685	0.837600	6
C	-0.028243	-0.005215	0.795310	6
C	0.503267	-1.224155	0.023080	6
C	0.799097	-0.663805	-1.329810	6
C	0.806127	0.672585	-1.322650	6
C	0.515547	1.218255	0.039310	6
H	-1.924393	0.883405	1.376250	1
H	-1.934333	-0.886045	1.355920	1
H	-1.994243	0.016775	-0.167340	1
H	0.338027	-0.013735	1.828920	1
H	-0.226003	-2.038365	-0.026970	1
H	1.425797	-1.606895	0.472950	1
H	1.014007	-1.275465	-2.195670	1
H	1.027717	1.293395	-2.179510	1
H	1.442267	1.586015	0.493520	1
H	-0.205403	2.040565	-0.000910	1
Es	1.133351	-1.478605	0.319850	99
Es	0.515555	1.218233	0.039283	99
Es	-0.801900	-0.001148	0.806670	99
Es	1.120589	0.002445	-1.273248	99
Es	0.952880	1.107008	-1.900449	99
Es	0.799092	-0.663939	-1.329798	99
Es	0.003725	-1.784422	-0.012240	99
Es	1.148354	1.462577	0.339159	99
Es	-1.559224	0.002683	0.837604	99
Es	0.941374	-1.092126	-1.913693	99
Es	0.662124	0.982274	-0.654385	99
Es	0.021642	1.784159	0.011042	99
Es	0.503275	-1.224134	0.023053	99
Es	-1.810675	-0.615006	1.191825	99
Es	0.806119	0.672727	-1.322635	99
Es	0.651987	-0.980640	-0.666531	99
Es	-0.028266	-0.005215	0.795271	99
Es	0.234075	-0.633279	0.418488	99
Es	0.217125	-0.011121	1.506388	99
Es	-1.803773	0.614847	1.205752	99
Es	-1.843567	0.012152	0.153550	99
Es	0.240528	0.624963	0.426897	99
Es	0.478050	0.006700	-1.420470	99
39
Properties=species:S:1:pos:R:3:Z:I:1 energy=-233.09144520034334 field_type=dipole dipole="0.000000 0.000000 0.000000" charge=0
C	-1.559233	0.002685	0.837600	6
C	-0.028243	-0.005215	0.795310	6
C	0.503267	-1.224155	0.023080	6
C	0.799097	-0.663805	-1.329810	6
C	0.806127	0.672585	-1.322650	6
C	0.515547	1.218255	0.039310	6
H	-1.924393	0.883405	1.376250	1
H	-1.934333	-0.886045	1.355920	1
H	-1.994243	0.016775	-0.167340	1
H	0.338027	-0.013735	1.828920	1
H	-0.226003	-2.038365	-0.026970	1
H	1.425797	-1.606895	0.472950	1
H	1.014007	-1.275465	-2.195670	1
H	1.027717	1.293395	-2.179510	1
H	1.442267	1.586015	0.493520	1
H	-0.205403	2.040565	-0.000910	1
Es	-1.803143	0.615318	1.205824	99
Es	0.941148	-1.092340	-1.913659	99
Es	-1.843157	0.012234	0.153716	99
Es	-0.028266	-0.005215	0.795273	99
Es	0.240118	0.624953	0.426561	99
Es	1.148393	1.462392	0.338884	99
Es	0.003677	-1.784720	-0.012419	99
Es	0.662153	0.982497	-0.653755	99
Es	0.477766	0.006688	-1.420244	99
Es	1.133349	-1.478391	0.319668	99
Es	-1.559219	0.002684	0.837603	99
Es	-0.802316	-0.001260	0.806584	99
Es	0.216803	-0.011069	1.506252	99
Es	0.503275	-1.224134	0.023052	99
Es	0.652230	-0.980737	-0.666010	99
Es	1.120889	0.002438	-1.273217	99
Es	0.806122	0.672720	-1.322634	99
Es	0.515554	1.218233	0.039282	99
Es	-1.810241	-0.615516	1.191770	99
Es	0.233833	-0.633291	0.418207	99
Es	0.799093	-0.663939	-1.329796	99
Es	0.021653	1.784457	0.010800	99
Es	0.952724	1.107129	-1.900356	99
39
Properties=species:S:1:pos:R:3:Z:I:1 energy=-233.09144520034334 field_type=dipole dipole="0.000000 0.000000 0.000000" charge=0
C	-1.559233	0.002685	0.837600	6
C	-0.028243	-0.005215	0.795310	6
C	0.503267	-1.224155	0.023080	6
C	0.799097	-0.663805	-1.329810	6
C	0.806127	0.672585	-1.322650	6
C	0.515547	1.218255	0.039310	6
H	-1.924393	0.883405	1.376250	1
H	-1.934333	-0.886045	1.355920	1
H	-1.994243	0.016775	-0.167340	1
H	0.338027	-0.013735	1.828920	1
H	-0.226003	-2.038365	-0.026970	1
H	1.425797	-1.606895	0.472950	1
H	1.014007	-1.275465	-2.195670	1
H	1.027717	1.293395	-2.179510	1
H	1.442267	1.586015	0.493520	1
H	-0.205403	2.040565	-0.000910	1
Es	-1.559221	0.002683	0.837604	99
Es	-1.802869	0.615630	1.205828	99
Es	-1.842858	0.012153	0.153727	99
Es	0.652329	-0.980953	-0.665199	99
Es	1.121169	0.002425	-1.273289	99
Es	-1.809756	-0.615791	1.191791	99
Es	-0.028266	-0.005215	0.795271	99
Es	0.952568	1.107292	-1.900328	99
Es	0.503274	-1.224133	0.023054	99
Es	0.515554	1.218234	0.039283	99
Es	1.148380	1.462300	0.338732	99
Es	0.021566	1.784631	0.010622	99
Es	-0.802213	-0.001169	0.806498	99
Es	0.806122	0.672720	-1.322635	99
Es	0.477528	0.006695	-1.420003	99
Es	0.216410	-0.011136	1.506298	99
Es	0.239906	0.624862	0.426226	99
Es	0.662316	0.982709	-0.653253	99
Es	0.940982	-1.092545	-1.913543	99
Es	0.799091	-0.663941	-1.329799	99
Es	1.133371	-1.478219	0.319449	99
Es	0.003603	-1.784992	-0.012697	99
Es	0.233449	-0.633108	0.417748	99
39
Properties=species:S:1:pos:R:3:Z:I:1 energy=-233.09144520034334 field_type=dipole dipole="0.000000 0.000000 0.000000" charge=0
C	-1.559233	0.002685	0.837600	6
C	-0.028243	-0.005215	0.795310	6
C	0.503267	-1.224155	0.023080	6
C	0.799097	-0.663805	-1.329810	6
C	0.806127	0.672585	-1.322650	6
C	0.515547	1.218255	0.039310	6
H	-1.924393	0.883405	1.376250	1
H	-1.934333	-0.886045	1.355920	1
H	-1.994243	0.016775	-0.167340	1
H	0.338027	-0.013735	1.828920	1
H	-0.226003	-2.038365	-0.026970	1
H	1.425797	-1.606895	0.472950	1
H	1.014007	-1.275465	-2.195670	1
H	1.027717	1.293395	-2.179510	1
H	1.442267	1.586015	0.493520	1
H	-0.205403	2.040565	-0.000910	1
Es	0.503274	-1.224134	0.023054	99
Es	-1.809337	-0.616150	1.191820	99
Es	0.233169	-0.633076	0.417485	99
Es	0.662458	0.982769	-0.652720	99
Es	0.799090	-0.663938	-1.329789	99
Es	0.652451	-0.981157	-0.664821	99
Es	1.148372	1.462140	0.338614	99
Es	1.133357	-1.478108	0.319293	99
Es	0.515555	1.218234	0.039283	99
Es	-0.802489	-0.001177	0.806642	99
Es	-1.559217	0.002685	0.837602	99
Es	-0.028266	-0.005214	0.795271	99
Es	0.239493	0.624803	0.425792	99
Es	0.216361	-0.011073	1.506111	99
Es	0.021527	1.784851	0.010461	99
Es	0.477326	0.006694	-1.419885	99
Es	-1.802476	0.615962	1.205773	99
Es	0.940849	-1.092635	-1.913494	99
Es	0.003591	-1.785158	-0.012805	99
Es	1.121359	0.002431	-1.273318	99
Es	-1.842544	0.012139	0.153846	99
Es	0.952418	1.107526	-1.900198	99
Es	0.806117	0.672719	-1.322632	99
39
Properties=species:S:1:pos:R:3:Z:I:1 energy=-233.09144520034334 field_type=dipole dipole="0.000000 0.000000 0.000000" charge=0
C	-1.559233	0.002685	0.837600	6
C	-0.028243	-0.005215	0.795310	6
C	0.503267	-1.224155	0.023080	6
C	0.799097	-0.663805	-1.329810	6
C	0.806127	0.672585	-1.322650	6
C	0.515547	1.218255	0.039310	6
H	-1.924393	0.883405	1.376250	1
H	-1.934333	-0.886045	1.355920	1
H	-1.994243	0.016775	-0.167340	1
H	0.338027	-0.013735	1.828920	1
H	-0.226003	-2.038365	-0.026970	1
H	1.425797	-1.606895	0.472950	1
H	1.014007	-1.275465	-2.195670	1
H	1.027717	1.293395	-2.179510	1
H	1.442267	1.586015	0.493520	1
H	-0.205403	2.040565	-0.000910	1
Es	0.662577	0.982956	-0.652279	99
Es	-1.842300	0.012161	0.153929	99
Es	1.133339	-1.478006	0.319189	99
Es	0.216294	-0.011081	1.506034	99
Es	-1.809043	-0.616420	1.191821	99
Es	0.806120	0.672718	-1.322634	99
Es	0.799094	-0.663939	-1.329795	99
Es	0.952275	1.107624	-1.900109	99
Es	0.940680	-1.092823	-1.913426	99
Es	0.003563	-1.785306	-0.012910	99
Es	0.477157	0.006704	-1.419718	99
Es	-0.802478	-0.001147	0.806749	99
Es	0.515555	1.218234	0.039283	99
Es	-0.028273	-0.005214	0.795269	99
Es	0.503275	-1.224134	0.023053	99
Es	0.232787	-0.632968	0.417051	99
Es	-1.802131	0.616199	1.205742	99
Es	0.652510	-0.981305	-0.664340	99
Es	0.021532	1.785047	0.010339	99
Es	1.148336	1.461992	0.338502	99
Es	1.121632	0.002436	-1.273402	99
Es	0.239157	0.624720	0.425432	99
Es	-1.559218	0.002685	0.837603	99
39
Properties=species:S:1:pos:R:3:Z:I:1 energy=-233.09144520034334 field_type=dipole dipole="0.000000 0.000000 0.000000" charge=0
C	-1.559233	0.002685	0.837600	6
C	-0.028243	-0.005215	0.795310	6
C	0.503267	-1.224155	0.023080	6
C	0.799097	-0.663805	-1.329810	6
C	0.806127	0.672585	-1.322650	6
C	0.515547	1.218255	0.039310	6
H	-1.924393	0.883405	1.376250	1
H	-1.934333	-0.886045	1.355920	1
H	-1.994243	0.016775	-0.167340	1
H	0.338027	-0.013735	1.828920	1
H	-0.226003	-2.038365	-0.026970	1
H	1.425797	-1.606895	0.472950	1
H	1.014007	-1.275465	-2.195670	1
H	1.027717	1.293395	-2.179510	1
H	1.442267	1.586015	0.493520	1
H	-0.205403	2.040565	-0.000910	1
Es	0.952049	1.107765	-1.900159	99
Es	0.515555	1.218234	0.039282	99
Es	0.503274	-1.224134	0.023053	99
Es	0.477409	0.006695	-1.419610	99
Es	-1.559220	0.002685	0.837602	99
Es	-1.801780	0.616448	1.205748	99
Es	-0.802639	-0.001178	0.806734	99
Es	1.133368	-1.477927	0.319117	99
Es	0.940527	-1.092982	-1.913389	99
Es	0.232594	-0.632987	0.416836	99
Es	-1.808753	-0.616628	1.191793	99
Es	1.121729	0.002434	-1.273276	99
Es	0.216092	-0.011090	1.505862	99
Es	1.148414	1.462011	0.338395	99
Es	0.652485	-0.981339	-0.664024	99
Es	-0.028266	-0.005215	0.795271	99
Es	0.806123	0.672720	-1.322634	99
Es	0.003534	-1.785416	-0.013006	99
Es	-1.842112	0.012154	0.154020	99
Es	0.799090	-0.663941	-1.329798	99
Es	0.662515	0.983051	-0.651860	99
Es	0.238996	0.624696	0.425231	99
Es	0.021453	1.785078	0.010193	99
39
Properties=species:S:1:pos:R:3:Z:I:1 energy=-233.09144520034334 field_type=dipole dipole="0.000000 0.000000 0.000000" charge=0
C	-1.559233	0.002685	0.837600	6
C	-0.028243	-0.005215	0.795310	6
C	0.503267	-1.224155	0.023080	6
C	0.799097	-0.663805	-1.329810	6
C	0.806127	0.672585	-1.322650	6
C	0.515547	1.218255	0.039310	6
H	-1.924393	0.883405	1.376250	1
H	-1.934333	-0.886045	1.355920	1
H	-1.994243	0.016775	-0.167340	1
H	0.338027	-0.013735	1.828920	1
H	-0.226003	-2.038365	-0.026970	1
H	1.425797	-1.606895	0.472950	1
H	1.014007	-1.275465	-2.195670	1
H	1.027717	1.293395	-2.179510	1
H	1.442267	1.586015	0.493520	1
H	-0.205403	2.040565	-0.000910	1
Es	-1.801538	0.616609	1.205754	99
Es	0.799094	-0.663939	-1.329797	99
Es	0.806129	0.672719	-1.322635	99
Es	1.133384	-1.477866	0.319041	99
Es	-0.028268	-0.005215	0.795273	99
Es	1.148351	1.461895	0.338285	99
Es	0.940470	-1.093059	-1.913332	99
Es	0.952015	1.107811	-1.900087	99
Es	-0.802606	-0.001153	0.806714	99
Es	0.662696	0.983292	-0.651315	99
Es	1.121818	0.002436	-1.273421	99
Es	-1.559220	0.002685	0.837603	99
Es	-1.841892	0.012184	0.154054	99
Es	0.021429	1.785245	0.010064	99
Es	0.215869	-0.011073	1.505868	99
Es	0.232373	-0.632875	0.416516	99
Es	0.003488	-1.785514	-0.013154	99
Es	-1.808483	-0.616846	1.191753	99
Es	0.652635	-0.981546	-0.663533	99
Es	0.515554	1.218233	0.039283	99
Es	0.238805	0.624546	0.424876	99
Es	0.477061	0.006697	-1.419478	99
Es	0.503275	-1.224134	0.023054	99
39
Properties=species:S:1:pos:R:3:Z:I:1 energy=-233.09144520034334 field_type=dipole dipole="0.000000 0.000000 0.000000" charge=0
C	-1.559233	0.002685	0.837600	6
C	-0.028243	-0.005215	0.795310	6
C	0.503267	-1.224155	0.023080	6
C	0.799097	-0.663805	-1.329810	6
C	0.806127	0.672585	-1.322650	6
C	0.515547	1.218255	0.039310	6
H	-1.924393	0.883405	1.376250	1
H	-1.934333	-0.886045	1.355920	1
H	-1.994243	0.016775	-0.167340	1
H	0.338027	-0.013735	1.828920	1
H	-0.226003	-2.038365	-0.026970	1
H	1.425797	-1.606895	0.472950	1
H	1.014007	-1.275465	-2.195670	1
H	1.027717	1.293395	-2.179510	1
H	1.442267	1.586015	0.493520	1
H	-0.205403	2.040565	-0.000910	1
Es	-1.841806	0.012214	0.154186	99
Es	0.940466	-1.093134	-1.913287	99
Es	0.021462	1.785398	0.009909	99
Es	1.133417	-1.477817	0.318926	99
Es	-1.808251	-0.617023	1.191695	99
Es	0.238416	0.624497	0.424557	99
Es	0.515554	1.218234	0.039282	99
Es	-1.559219	0.002685	0.837603	99
Es	0.951971	1.107912	-1.900035	99
Es	0.003455	-1.785600	-0.013265	99
Es	0.662822	0.983358	-0.650952	99
Es	-0.028266	-0.005215	0.795271	99
Es	-0.802399	-0.001149	0.806681	99
Es	0.232058	-0.632853	0.416288	99
Es	0.503275	-1.224132	0.023052	99
Es	-1.801285	0.616760	1.205776	99
Es	0.476829	0.006703	-1.419319	99
Es	0.215812	-0.011047	1.505903	99
Es	0.652639	-0.981650	-0.663221	99
Es	0.799092	-0.663939	-1.329797	99
Es	0.806120	0.672719	-1.322636	99
Es	1.121922	0.002441	-1.273470	99
Es	1.148355	1.461771	0.338237	99
39
Properties=species:S:1:pos:R:3:Z:I:1 energy=-233.09144520034334 field_type=dipole dipole="0.000000 0.000000 0.000000" charge=0
C	-1.559233	0.002685	0.837600	6
C	-0.028243	-0.005215	0.795310	6
C	0.503267	-1.224155	0.023080	6
C	0.799097	-0.663805	-1.329810	6
C	0.806127	0.672585	-1.322650	6
C	0.515547	1.218255	0.039310	6
H	-1.924393	0.883405	1.376250	1
H	-1.934333	-0.886045	1.355920	1
H	-1.994243	0.016775	-0.167340	1
H	0.338027	-0.013735	1.828920	1
H	-0.226003	-2.038365	-0.026970	1
H	1.425797	-1.606895	0.472950	1
H	1.014007	-1.275465	-2.195670	1
H	1.027717	1.293395	-2.179510	1
H	1.442267	1.586015	0.493520	1
H	-0.205403	2.040565	-0.000910	1
Es	0.951880	1.108136	-1.899958	99
Es	-0.802751	-0.001192	0.806732	99
Es	-1.559213	0.002685	0.837603	99
Es	0.662675	0.983298	-0.650694	99
Es	-1.807926	-0.617171	1.191730	99
Es	0.652657	-0.981697	-0.662824	99
Es	0.021429	1.785452	0.009819	99
Es	0.806121	0.672719	-1.322634	99
Es	-1.841639	0.012152	0.154217	99
Es	1.122017	0.002432	-1.273365	99
Es	0.476951	0.006695	-1.419322	99
Es	0.799093	-0.663940	-1.329798	99
Es	0.231915	-0.632739	0.416019	99
Es	0.940327	-1.093242	-1.913287	99
Es	0.238219	0.624484	0.424418	99
Es	0.215785	-0.011094	1.505816	99
Es	-1.801000	0.616970	1.205744	99
Es	1.148431	1.461741	0.338138	99
Es	0.003457	-1.785750	-0.013415	99
Es	0.515555	1.218234	0.039282	99
Es	0.503276	-1.224134	0.023054	99
Es	1.133446	-1.477692	0.318837	99
Es	-0.028267	-0.005215	0.795272	99
39
Properties=species:S:1:pos:R:3:Z:I:1 energy=-233.09144520034334 field_type=dipole dipole="0.000000 0.000000 0.000000" charge=0
C	-1.559233	0.002685	0.837600	6
C	-0.028243	-0.005215	0.795310	6
C	0.503267	-1.224155	0.023080	6
C	0.799097	-0.663805	-1.329810	6
C	0.806127	0.672585	-1.322650	6
C	0.515547	1.218255	0.039310	6
H	-1.924393	0.883405	1.376250	1
H	-1.934333	-0.886045	1.355920	1
H	-1.994243	0.016775	-0.167340	1
H	0.338027	-0.013735	1.828920	1
H	-0.226003	-2.038365	-0.026970	1
H	1.425797	-1.606895	0.472950	1
H	1.014007	-1.275465	-2.195670	1
H	1.027717	1.293395	-2.179510	1
H	1.442267	1.586015	0.493520	1
H	-0.205403	2.040565	-0.000910	1
Es	0.237961	0.624417	0.424062	99
Es	0.515554	1.218234	0.039283	99
Es	1.122082	0.002430	-1.273445	99
Es	0.662673	0.983445	-0.650316	99
Es	0.021383	1.785463	0.009720	99
Es	-1.841544	0.012153	0.154171	99
Es	0.215693	-0.011096	1.505777	99
Es	0.951898	1.108222	-1.899918	99
Es	1.133400	-1.477651	0.318809	99
Es	-1.559218	0.002684	0.837603	99
Es	0.652700	-0.981895	-0.662510	99
Es	0.799093	-0.663939	-1.329795	99
Es	0.476802	0.006695	-1.419230	99
Es	0.940309	-1.093361	-1.913211	99
Es	1.148490	1.461744	0.338127	99
Es	-0.028266	-0.005214	0.795271	99
Es	0.503275	-1.224132	0.023053	99
Es	-1.800804	0.617057	1.205764	99
Es	0.806121	0.672719	-1.322634	99
Es	-1.807708	-0.617269	1.191750	99
Es	0.003467	-1.785802	-0.013426	99
Es	0.231651	-0.632582	0.415671	99
Es	-0.802574	-0.001190	0.806811	99
39
Properties=species:S:1:pos:R:3:Z:I:1 energy=-233.09144520034334 field_type=dipole dipole="0.000000 0.000000 0.000000" charge=0
C	-1.559233	0.002685	0.837600	6
C	-0.028243	-0.005215	0.795310	6
C	0.503267	-1.224155	0.023080	6
C	0.799097	-0.663805	-1.329810	6
C	0.806127	0.672585	-1.322650	6
C	0.515547	1.218255	0.039310	6
H	-1.924393	0.883405	1.376250	1
H	-1.934333	-0.886045	1.355920	1
H	-1.994243	0.016775	-0.167340	1
H	0.338027	-0.013735	1.828920	1
H	-0.226003	-2.038365	-0.026970	1
H	1.425797	-1.606895	0.472950	1
H	1.014007	-1.275465	-2.195670	1
H	1.027717	1.293395	-2.179510	1
H	1.442267	1.586015	0.493520	1
H	-0.205403	2.040565	-0.000910	1
Es	1.133396	-1.477606	0.318762	99
Es	0.476679	0.006697	-1.419092	99
Es	0.215590	-0.011046	1.505793	99
Es	0.799099	-0.663939	-1.329796	99
Es	0.237958	0.624271	0.423895	99
Es	0.940202	-1.093480	-1.913174	99
Es	0.003431	-1.785873	-0.013511	99
Es	-0.028266	-0.005215	0.795273	99
Es	0.806123	0.672719	-1.322635	99
Es	0.231543	-0.632546	0.415517	99
Es	0.951817	1.108278	-1.899879	99
Es	-1.807398	-0.617437	1.191765	99
Es	0.503274	-1.224134	0.023054	99
Es	-1.841437	0.012153	0.154226	99
Es	0.021359	1.785555	0.009668	99
Es	0.662798	0.983524	-0.650089	99
Es	-1.800623	0.617165	1.205726	99
Es	-1.559219	0.002685	0.837602	99
Es	0.652796	-0.981903	-0.662243	99
Es	1.148420	1.461691	0.338038	99
Es	1.122163	0.002429	-1.273521	99
Es	-0.802822	-0.001090	0.806723	99
Es	0.515555	1.218235	0.039283	99
39
Properties=species:S:1:pos:R:3:Z:I:1 energy=-233.09144520034334 field_type=dipole dipole="0.000000 0.000000 0.000000" charge=0
C	-1.559233	0.002685	0.837600	6
C	-0.028243	-0.005215	0.795310	6
C	0.503267	-1.224155	0.023080	6
C	0.799097	-0.663805	-1.329810	6
C	0.806127	0.672585	-1.322650	6
C	0.515547	1.218255	0.039310	6
H	-1.924393	0.883405	1.376250	1
H	-1.934333	-0.886045	1.355920	1
H	-1.994243	0.016775	-0.167340	1
H	0.338027	-0.013735	1.828920	1
H	-0.226003	-2.038365	-0.026970	1
H	1.425797	-1.606895	0.472950	1
H	1.014007	-1.275465	-2.195670	1
H	1.027717	1.293395	-2.179510	1
H	1.442267	1.586015	0.493520	1
H	-0.205403	2.040565	-0.000910	1
Es	0.662800	0.983590	-0.649785	99
Es	0.503276	-1.224135	0.023053	99
Es	0.231503	-0.632457	0.415389	99
Es	-1.800337	0.617299	1.205709	99
Es	-0.802851	-0.001198	0.806712	99
Es	0.237814	0.624248	0.423742	99
Es	-0.028266	-0.005215	0.795271	99
Es	-1.559224	0.002685	0.837598	99
Es	0.021374	1.785598	0.009639	99
Es	0.806122	0.672721	-1.322637	99
Es	1.133379	-1.477606	0.318695	99
Es	0.215538	-0.011044	1.505686	99
Es	0.652867	-0.981974	-0.661938	99
Es	0.940119	-1.093554	-1.913143	99
Es	0.515555	1.218234	0.039282	99
Es	-1.807323	-0.617502	1.191772	99
Es	1.122173	0.002434	-1.273615	99
Es	0.003395	-1.785906	-0.013619	99
Es	1.148429	1.461671	0.337934	99
Es	0.799091	-0.663940	-1.329798	99
Es	-1.841404	0.012146	0.154306	99
Es	0.951637	1.108347	-1.899923	99
Es	0.476771	0.006689	-1.418947	99
39
Properties=species:S:1:pos:R:3:Z:I:1 energy=-233.09144520034334 field_type=dipole dipole="0.000000 0.000000 0.000000" charge=0
C	-1.559233	0.002685	0.837600	6
C	-0.028243	-0.005215	0.795310	6
C	0.503267	-1.224155	0.023080	6
C	0.799097	-0.663805	-1.329810	6
C	0.806127	0.672585	-1.322650	6
C	0.515547	1.218255	0.039310	6
H	-1.924393	0.883405	1.376250	1
H	-1.934333	-0.886045	1.355920	1
H	-1.994243	0.016775	-0.167340	1
H	0.338027	-0.013735	1.828920	1
H	-0.226003	-2.038365	-0.026970	1
H	1.425797	-1.606895	0.472950	1
H	1.014007	-1.275465	-2.195670	1
H	1.027717	1.293395	-2.179510	1
H	1.442267	1.586015	0.493520	1
H	-0.205403	2.040565	-0.000910	1
Es	0.215515	-0.011023	1.505683	99
Es	0.652793	-0.981921	-0.661747	99
Es	0.503275	-1.224134	0.023054	99
Es	0.231321	-0.632508	0.415202	99
Es	0.237627	0.624192	0.423552	99
Es	-0.028266	-0.005215	0.795271	99
Es	-1.800220	0.617399	1.205733	99
Es	-1.807077	-0.617638	1.191701	99
Es	1.133445	-1.477571	0.318690	99
Es	0.799089	-0.663941	-1.329798	99
Es	-1.559218	0.002685	0.837603	99
Es	-0.802962	-0.001166	0.806773	99
Es	1.122256	0.002426	-1.273489	99
Es	0.021376	1.785709	0.009578	99
Es	-1.841249	0.012154	0.154331	99
Es	0.515555	1.218234	0.039283	99
Es	0.003365	-1.785944	-0.013687	99
Es	0.806121	0.672720	-1.322634	99
Es	1.148358	1.461583	0.337904	99
Es	0.951663	1.108446	-1.899791	99
Es	0.940081	-1.093667	-1.913095	99
Es	0.476661	0.006704	-1.419034	99
Es	0.662930	0.983610	-0.649700	99
39
Properties=species:S:1:pos:R:3:Z:I:1 energy=-233.09144520034334 field_type=dipole dipole="0.000000 0.000000 0.000000" charge=0
C	-1.559233	0.002685	0.837600	6
C	-0.028243	-0.005215	0.795310	6
C	0.503267	-1.224155	0.023080	6
C	0.799097	-0.663805	-1.329810	6
C	0.806127	0.672585	-1.322650	6
C	0.515547	1.218255	0.039310	6
H	-1.924393	0.883405	1.376250	1
H	-1.934333	-0.886045	1.355920	1
H	-1.994243	0.016775	-0.167340	1
H	0.338027	-0.013735	1.828920	1
H	-0.226003	-2.038365	-0.026970	1
H	1.425797	-1.606895	0.472950	1
H	1.014007	-1.275465	-2.195670	1
H	1.027717	1.293395	-2.179510	1
H	1.442267	1.586015	0.493520	1
H	-0.205403	2.040565	-0.000910	1
Es	-0.028266	-0.005215	0.795271	99
Es	0.231125	-0.632377	0.414992	99
Es	0.951593	1.108531	-1.899826	99
Es	0.652817	-0.982012	-0.661633	99
Es	-1.559219	0.002685	0.837603	99
Es	-1.799990	0.617457	1.205778	99
Es	0.215488	-0.011060	1.505669	99
Es	0.799093	-0.663939	-1.329793	99
Es	-1.841240	0.012191	0.154330	99
Es	-1.806966	-0.617704	1.191688	99
Es	0.237529	0.624102	0.423327	99
Es	0.021293	1.785731	0.009460	99
Es	0.662918	0.983688	-0.649444	99
Es	0.515555	1.218233	0.039283	99
Es	0.940013	-1.093748	-1.913121	99
Es	0.503276	-1.224134	0.023053	99
Es	1.133359	-1.477463	0.318660	99
Es	0.476762	0.006707	-1.418924	99
Es	1.122330	0.002425	-1.273326	99
Es	0.003453	-1.786064	-0.013718	99