37
Properties=species:S:1:pos:R:3:Z:I:1 energy=-265.0263462242818 field_type=dipole dipole="0.000000 0.000000 0.000000" charge=0
N	-2.793689	-0.376509	-0.223938	7
N	-1.493409	-0.726099	-0.357828	7
C	-0.717889	-0.116119	0.476612	6
C	0.726041	-0.422339	0.419602	6
C	1.550171	0.045381	-0.755138	6
C	1.736521	0.686131	0.588412	6
H	-3.368059	-1.015339	-0.780448	1
H	-2.962049	0.544801	-0.636238	1
H	-1.068999	0.608271	1.233202	1
H	0.984321	-1.389699	0.839042	1
H	1.054391	0.614791	-1.533548	1
H	2.325221	-0.618719	-1.120238	1
H	2.645631	0.462791	1.135332	1
H	1.381801	1.702661	0.715172	1
Es	-0.956283	0.380576	0.984156	99
Es	-1.125474	-0.233313	-0.186636	99
Es	-1.394593	-0.989268	-0.605582	99
Es	-3.132002	-0.757102	-0.575430	99
Es	-1.189119	-0.648699	0.211511	99
Es	2.352781	0.532083	0.959327	99
Es	1.778905	0.481417	-0.152976	99
Es	1.736428	0.686011	0.588318	99
Es	2.077479	-0.405097	-0.997302	99
Es	-2.793417	-0.376517	-0.224601	99
Es	-1.493621	-0.725677	-0.357425	99
Es	0.726127	-0.422208	0.419525	99
Es	1.212119	0.434817	-1.275761	99
Es	0.896013	-1.069618	0.704128	99
Es	-2.146992	-0.532968	-0.300664	99
Es	1.485576	1.373252	0.674601	99
Es	1.040133	-0.313619	-0.272729	99
Es	-2.870735	0.174299	-0.481139	99
Es	1.550126	0.045389	-0.754955	99
Es	-2.878305	-0.379170	0.116650	99
Es	0.009404	-0.250344	0.450351	99
Es	1.181987	0.149775	0.694434	99
Es	-0.717834	-0.116082	0.476597	99
37
Properties=species:S:1:pos:R:3:Z:I:1 energy=-265.0263462242818 field_type=dipole dipole="0.000000 0.000000 0.000000" charge=0
N	-2.793689	-0.376509	-0.223938	7
N	-1.493409	-0.726099	-0.357828	7
C	-0.717889	-0.116119	0.476612	6
C	0.726041	-0.422339	0.419602	6
C	1.550171	0.045381	-0.755138	6
C	1.736521	0.686131	0.588412	6
H	-3.368059	-1.015339	-0.780448	1
H	-2.962049	0.544801	-0.636238	1
H	-1.068999	0.608271	1.233202	1
H	0.984321	-1.389699	0.839042	1
H	1.054391	0.614791	-1.533548	1
H	2.325221	-0.618719	-1.120238	1
H	2.645631	0.462791	1.135332	1
H	1.381801	1.702661	0.715172	1
Es	1.184175	0.152639	0.695846	99
Es	-0.956112	0.380288	0.984062	99
Es	-2.877367	-0.375224	0.115153	99
Es	1.038559	-0.318103	-0.273675	99
Es	1.780707	0.485004	-0.149981	99
Es	1.736435	0.686014	0.588313	99
Es	0.894814	-1.067746	0.701985	99
Es	1.550127	0.045392	-0.754951	99
Es	1.212135	0.432719	-1.276362	99
Es	-1.189396	-0.648549	0.212533	99
Es	0.726133	-0.422196	0.419544	99
Es	-1.125703	-0.231665	-0.187246	99
Es	-0.717832	-0.116079	0.476597	99
Es	1.485718	1.371240	0.673650	99
Es	2.074643	-0.403900	-0.996698	99
Es	-2.147290	-0.533698	-0.300587	99
Es	0.009327	-0.251297	0.449160	99
Es	2.354285	0.532947	0.960244	99
Es	-1.493628	-0.725679	-0.357429	99
Es	-3.135409	-0.759360	-0.576617	99
Es	-2.868306	0.170545	-0.480407	99
Es	-1.393854	-0.988850	-0.604178	99
Es	-2.793459	-0.376506	-0.224556	99
37
Properties=species:S:1:pos:R:3:Z:I:1 energy=-265.0263462242818 field_type=dipole dipole="0.000000 0.000000 0.000000" charge=0
N	-2.793689	-0.376509	-0.223938	7
N	-1.493409	-0.726099	-0.357828	7
C	-0.717889	-0.116119	0.476612	6
C	0.726041	-0.422339	0.419602	6
C	1.550171	0.045381	-0.755138	6
C	1.736521	0.686131	0.588412	6
H	-3.368059	-1.015339	-0.780448	1
H	-2.962049	0.544801	-0.636238	1
H	-1.068999	0.608271	1.233202	1
H	0.984321	-1.389699	0.839042	1
H	1.054391	0.614791	-1.533548	1
H	2.325221	-0.618719	-1.120238	1
H	2.645631	0.462791	1.135332	1
H	1.381801	1.702661	0.715172	1
Es	-1.493613	-0.725667	-0.357414	99
Es	1.736433	0.686015	0.588312	99
Es	1.550129	0.045394	-0.754946	99
Es	0.009216	-0.251933	0.448372	99
Es	0.893894	-1.065903	0.700347	99
Es	1.485711	1.369381	0.672924	99
Es	-3.137443	-0.760363	-0.577376	99
Es	-1.126074	-0.230722	-0.187141	99
Es	2.355269	0.533852	0.961152	99
Es	-2.877343	-0.371699	0.114784	99
Es	2.072230	-0.402883	-0.996060	99
Es	-0.956011	0.380139	0.983936	99
Es	-2.793448	-0.376518	-0.224560	99
Es	1.038263	-0.320797	-0.274185	99
Es	1.185333	0.153767	0.696767	99
Es	1.782436	0.487368	-0.148263	99
Es	1.211971	0.431240	-1.276806	99
Es	-1.189679	-0.648638	0.213231	99
Es	0.726134	-0.422197	0.419542	99
Es	-2.147775	-0.534553	-0.300944	99
Es	-0.717831	-0.116079	0.476599	99
Es	-2.866193	0.166735	-0.480588	99
Es	-1.392906	-0.987999	-0.603282	99
37
Properties=species:S:1:pos:R:3:Z:I:1 energy=-265.0263462242818 field_type=dipole dipole="0.000000 0.000000 0.000000" charge=0
N	-2.793689	-0.376509	-0.223938	7
N	-1.493409	-0.726099	-0.357828	7
C	-0.717889	-0.116119	0.476612	6
C	0.726041	-0.422339	0.419602	6
C	1.550171	0.045381	-0.755138	6
C	1.736521	0.686131	0.588412	6
H	-3.368059	-1.015339	-0.780448	1
H	-2.962049	0.544801	-0.636238	1
H	-1.068999	0.608271	1.233202	1
H	0.984321	-1.389699	0.839042	1
H	1.054391	0.614791	-1.533548	1
H	2.325221	-0.618719	-1.120238	1
H	2.645631	0.462791	1.135332	1
H	1.381801	1.702661	0.715172	1
Es	-1.126389	-0.230142	-0.187101	99
Es	-2.864669	0.163732	-0.480433	99
Es	1.550126	0.045391	-0.754946	99
Es	-3.139128	-0.760758	-0.577788	99
Es	-2.877026	-0.369249	0.114323	99
Es	-2.793461	-0.376510	-0.224552	99
Es	-1.189872	-0.648462	0.213716	99
Es	-2.148001	-0.535172	-0.301286	99
Es	2.070254	-0.401934	-0.995333	99
Es	-1.493616	-0.725674	-0.357422	99
Es	0.893420	-1.064263	0.699311	99
Es	-0.955906	0.380158	0.983895	99
Es	1.212092	0.430385	-1.277219	99
Es	2.355948	0.534781	0.961902	99
Es	1.485732	1.367802	0.672218	99
Es	1.186093	0.154713	0.697368	99
Es	-1.392243	-0.987554	-0.602793	99
Es	-0.717831	-0.116077	0.476597	99
Es	1.736434	0.686014	0.588317	99
Es	0.008962	-0.252661	0.447853	99
Es	0.726132	-0.422197	0.419538	99
Es	1.783704	0.488483	-0.147284	99
Es	1.037944	-0.322870	-0.274480	99
37
Properties=species:S:1:pos:R:3:Z:I:1 energy=-265.0263462242818 field_type=dipole dipole="0.000000 0.000000 0.000000" charge=0
N	-2.793689	-0.376509	-0.223938	7
N	-1.493409	-0.726099	-0.357828	7
C	-0.717889	-0.116119	0.476612	6
C	0.726041	-0.422339	0.419602	6
C	1.550171	0.045381	-0.755138	6
C	1.736521	0.686131	0.588412	6
H	-3.368059	-1.015339	-0.780448	1
H	-2.962049	0.544801	-0.636238	1
H	-1.068999	0.608271	1.233202	1
H	0.984321	-1.389699	0.839042	1
H	1.054391	0.614791	-1.533548	1
H	2.325221	-0.618719	-1.120238	1
H	2.645631	0.462791	1.135332	1
H	1.381801	1.702661	0.715172	1
Es	-1.493625	-0.725666	-0.357418	99
Es	-2.793468	-0.376508	-0.224543	99
Es	0.008765	-0.253166	0.447411	99
Es	-2.863646	0.161023	-0.480329	99
Es	2.356389	0.535734	0.962567	99
Es	-1.391716	-0.987428	-0.602094	99
Es	2.068618	-0.401034	-0.994603	99
Es	1.736428	0.686011	0.588324	99
Es	1.485607	1.366466	0.671662	99
Es	-1.126544	-0.229723	-0.187128	99
Es	1.550127	0.045393	-0.754944	99
Es	1.212044	0.429537	-1.277628	99
Es	-2.147931	-0.535487	-0.301270	99
Es	1.037958	-0.324315	-0.274559	99
Es	1.784859	0.489386	-0.146634	99
Es	0.726134	-0.422195	0.419543	99
Es	-2.877303	-0.367219	0.113810	99
Es	-1.190188	-0.648128	0.214049	99
Es	-0.955818	0.380194	0.983857	99
Es	-3.139955	-0.760983	-0.578384	99
Es	0.892978	-1.062847	0.698221	99
Es	-0.717831	-0.116077	0.476597	99
Es	1.186820	0.154970	0.697892	99
37
Properties=species:S:1:pos:R:3:Z:I:1 energy=-265.0263462242818 field_type=dipole dipole="0.000000 0.000000 0.000000" charge=0
N	-2.793689	-0.376509	-0.223938	7
N	-1.493409	-0.726099	-0.357828	7
C	-0.717889	-0.116119	0.476612	6
C	0.726041	-0.422339	0.419602	6
C	1.550171	0.045381	-0.755138	6
C	1.736521	0.686131	0.588412	6
H	-3.368059	-1.015339	-0.780448	1
H	-2.962049	0.544801	-0.636238	1
H	-1.068999	0.608271	1.233202	1
H	0.984321	-1.389699	0.839042	1
H	1.054391	0.614791	-1.533548	1
H	2.325221	-0.618719	-1.120238	1
H	2.645631	0.462791	1.135332	1
H	1.381801	1.702661	0.715172	1
Es	0.726137	-0.422192	0.419543	99
Es	-1.126819	-0.229347	-0.187005	99
Es	-2.147927	-0.536303	-0.301328	99
Es	1.785852	0.489873	-0.146044	99
Es	1.212016	0.428862	-1.277938	99
Es	2.067142	-0.400209	-0.993962	99
Es	-1.493614	-0.725663	-0.357411	99
Es	0.892769	-1.061532	0.697300	99
Es	0.008473	-0.253772	0.446940	99
Es	1.550125	0.045392	-0.754943	99
Es	-2.877580	-0.365575	0.113570	99
Es	1.038069	-0.325469	-0.274510	99
Es	-2.862634	0.158944	-0.480485	99
Es	-1.190412	-0.647952	0.214372	99
Es	-3.140640	-0.760912	-0.578726	99
Es	-0.955764	0.380292	0.983842	99
Es	1.187223	0.155238	0.698369	99
Es	2.356723	0.536568	0.963092	99
Es	1.736440	0.686020	0.588313	99
Es	-1.391232	-0.987123	-0.601661	99
Es	-0.717830	-0.116077	0.476596	99
Es	1.485632	1.365393	0.671056	99
Es	-2.793447	-0.376516	-0.224581	99
37
Properties=species:S:1:pos:R:3:Z:I:1 energy=-265.0263462242818 field_type=dipole dipole="0.000000 0.000000 0.000000" charge=0
N	-2.793689	-0.376509	-0.223938	7
N	-1.493409	-0.726099	-0.357828	7
C	-0.717889	-0.116119	0.476612	6
C	0.726041	-0.422339	0.419602	6
C	1.550171	0.045381	-0.755138	6
C	1.736521	0.686131	0.588412	6
H	-3.368059	-1.015339	-0.780448	1
H	-2.962049	0.544801	-0.636238	1
H	-1.068999	0.608271	1.233202	1
H	0.984321	-1.389699	0.839042	1
H	1.054391	0.614791	-1.533548	1
H	2.325221	-0.618719	-1.120238	1
H	2.645631	0.462791	1.135332	1
H	1.381801	1.702661	0.715172	1
Es	0.892382	-1.060559	0.696690	99
Es	1.038135	-0.326678	-0.274640	99
Es	-1.126897	-0.229230	-0.186919	99
Es	-0.717829	-0.116076	0.476598	99
Es	-1.493616	-0.725654	-0.357404	99
Es	1.550127	0.045396	-0.754942	99
Es	1.786375	0.490412	-0.145742	99
Es	-3.141202	-0.760844	-0.579244	99
Es	2.066121	-0.399299	-0.993309	99
Es	-0.955691	0.380438	0.983839	99
Es	0.726151	-0.422180	0.419544	99
Es	-2.861951	0.157449	-0.480116	99
Es	1.212072	0.428254	-1.278231	99
Es	2.356965	0.537233	0.963595	99
Es	1.187742	0.155390	0.698611	99
Es	-2.793492	-0.376467	-0.224532	99
Es	-1.390896	-0.987224	-0.601297	99
Es	-2.148211	-0.536404	-0.301363	99
Es	-1.190577	-0.647522	0.214354	99
Es	1.736438	0.686018	0.588319	99
Es	0.008333	-0.254066	0.446594	99
Es	-2.877372	-0.364801	0.113246	99
Es	1.485594	1.364351	0.670748	99
37
Properties=species:S:1:pos:R:3:Z:I:1 energy=-265.0263462242818 field_type=dipole dipole="0.000000 0.000000 0.000000" charge=0
N	-2.793689	-0.376509	-0.223938	7
N	-1.493409	-0.726099	-0.357828	7
C	-0.717889	-0.116119	0.476612	6
C	0.726041	-0.422339	0.419602	6
C	1.550171	0.045381	-0.755138	6
C	1.736521	0.686131	0.588412	6
H	-3.368059	-1.015339	-0.780448	1
H	-2.962049	0.544801	-0.636238	1
H	-1.068999	0.608271	1.233202	1
H	0.984321	-1.389699	0.839042	1
H	1.054391	0.614791	-1.533548	1
H	2.325221	-0.618719	-1.120238	1
H	2.645631	0.462791	1.135332	1
H	1.381801	1.702661	0.715172	1
Es	1.485507	1.363547	0.670324	99
Es	1.212133	0.427804	-1.278539	99
Es	-2.877498	-0.363486	0.112782	99
Es	-2.148005	-0.536537	-0.301190	99
Es	-2.793470	-0.376502	-0.224550	99
Es	2.357197	0.538036	0.963911	99
Es	1.736443	0.686019	0.588315	99
Es	-3.141597	-0.761052	-0.579154	99
Es	1.188195	0.155406	0.699012	99
Es	1.038218	-0.327287	-0.274560	99
Es	-1.190843	-0.647140	0.214555	99
Es	-2.861489	0.155992	-0.480324	99
Es	0.726138	-0.422191	0.419540	99
Es	2.065006	-0.398722	-0.992723	99
Es	-1.127066	-0.229059	-0.186866	99
Es	0.008054	-0.254633	0.446258	99
Es	1.786992	0.490518	-0.145301	99
Es	-1.493626	-0.725652	-0.357404	99
Es	1.550131	0.045397	-0.754944	99
Es	0.892273	-1.059488	0.695907	99
Es	-0.955585	0.380501	0.983863	99
Es	-0.717834	-0.116087	0.476603	99
Es	-1.390571	-0.987445	-0.601115	99
37
Properties=species:S:1:pos:R:3:Z:I:1 energy=-265.0263462242818 field_type=dipole dipole="0.000000 0.000000 0.000000" charge=0
N	-2.793689	-0.376509	-0.223938	7
N	-1.493409	-0.726099	-0.357828	7
C	-0.717889	-0.116119	0.476612	6
C	0.726041	-0.422339	0.419602	6
C	1.550171	0.045381	-0.755138	6
C	1.736521	0.686131	0.588412	6
H	-3.368059	-1.015339	-0.780448	1
H	-2.962049	0.544801	-0.636238	1
H	-1.068999	0.608271	1.233202	1
H	0.984321	-1.389699	0.839042	1
H	1.054391	0.614791	-1.533548	1
H	2.325221	-0.618719	-1.120238	1
H	2.645631	0.462791	1.135332	1
H	1.381801	1.702661	0.715172	1
Es	1.212116	0.427281	-1.278800	99
Es	1.038255	-0.327823	-0.274510	99
Es	-1.191045	-0.646800	0.214666	99
Es	-2.877670	-0.362662	0.112599	99
Es	0.726145	-0.422185	0.419546	99
Es	-2.148098	-0.537026	-0.301442	99
Es	2.357341	0.538747	0.964295	99
Es	-1.390055	-0.987203	-0.600622	99
Es	1.550126	0.045391	-0.754936	99
Es	2.064196	-0.398281	-0.992225	99
Es	1.188491	0.155489	0.698971	99
Es	0.007932	-0.254977	0.446012	99
Es	-0.717830	-0.116075	0.476597	99
Es	-0.955488	0.380666	0.983894	99
Es	-2.861072	0.154651	-0.480196	99
Es	1.485469	1.362758	0.669941	99
Es	-3.141802	-0.760996	-0.579529	99
Es	-2.793448	-0.376519	-0.224575	99
Es	-1.127295	-0.228889	-0.186739	99
Es	0.892128	-1.058803	0.695529	99
Es	1.787480	0.490832	-0.144991	99
Es	1.736437	0.686019	0.588321	99
Es	-1.493610	-0.725657	-0.357406	99
37
Properties=species:S:1:pos:R:3:Z:I:1 energy=-265.0263462242818 field_type=dipole dipole="0.000000 0.000000 0.000000" charge=0
N	-2.793689	-0.376509	-0.223938	7
N	-1.493409	-0.726099	-0.357828	7
C	-0.717889	-0.116119	0.476612	6
C	0.726041	-0.422339	0.419602	6
C	1.550171	0.045381	-0.755138	6
C	1.736521	0.686131	0.588412	6
H	-3.368059	-1.015339	-0.780448	1
H	-2.962049	0.544801	-0.636238	1
H	-1.068999	0.608271	1.233202	1
H	0.984321	-1.389699	0.839042	1
H	1.054391	0.614791	-1.533548	1
H	2.325221	-0.618719	-1.120238	1
H	2.645631	0.462791	1.135332	1
H	1.381801	1.702661	0.715172	1
Es	1.485298	1.362207	0.669838	99
Es	-1.493623	-0.725663	-0.357411	99
Es	-2.793457	-0.376514	-0.224550	99
Es	-2.860758	0.153481	-0.480041	99
Es	1.038530	-0.328440	-0.274473	99
Es	2.357434	0.539269	0.964525	99
Es	0.891917	-1.058097	0.695093	99
Es	-1.191144	-0.646562	0.214767	99
Es	1.787992	0.491130	-0.144645	99
Es	0.007769	-0.255208	0.445691	99
Es	1.550125	0.045394	-0.754940	99
Es	-2.147942	-0.537003	-0.301286	99
Es	-1.127346	-0.228862	-0.186770	99
Es	1.188844	0.155219	0.698985	99
Es	1.212073	0.426893	-1.279047	99
Es	-3.142154	-0.760986	-0.579640	99
Es	1.736438	0.686018	0.588319	99
Es	-1.389925	-0.987283	-0.600482	99
Es	-0.717828	-0.116066	0.476588	99
Es	-2.877657	-0.361924	0.112173	99
Es	0.726137	-0.422193	0.419542	99
Es	-0.955436	0.380782	0.983897	99
Es	2.063417	-0.397653	-0.991738	99
37
Properties=species:S:1:pos:R:3:Z:I:1 energy=-265.0263462242818 field_type=dipole dipole="0.000000 0.000000 0.000000" charge=0
N	-2.793689	-0.376509	-0.223938	7
N	-1.493409	-0.726099	-0.357828	7
C	-0.717889	-0.116119	0.476612	6
C	0.726041	-0.422339	0.419602	6
C	1.550171	0.045381	-0.755138	6
C	1.736521	0.686131	0.588412	6
H	-3.368059	-1.015339	-0.780448	1
H	-2.962049	0.544801	-0.636238	1
H	-1.068999	0.608271	1.233202	1
H	0.984321	-1.389699	0.839042	1
H	1.054391	0.614791	-1.533548	1
H	2.325221	-0.618719	-1.120238	1
H	2.645631	0.462791	1.135332	1
H	1.381801	1.702661	0.715172	1
Es	0.891767	-1.057284	0.694834	99
Es	-2.147827	-0.537154	-0.301143	99
Es	1.788444	0.491233	-0.144419	99
Es	1.550126	0.045395	-0.754940	99
Es	2.062692	-0.397091	-0.991289	99
Es	0.007618	-0.255555	0.445403	99
Es	0.726139	-0.422191	0.419546	99
Es	1.189012	0.155304	0.698980	99
Es	1.212175	0.426601	-1.279231	99
Es	-1.127495	-0.228769	-0.186466	99
Es	-0.717829	-0.116077	0.476596	99
Es	-1.493607	-0.725661	-0.357408	99
Es	-3.142470	-0.760936	-0.579706	99
Es	1.736439	0.686019	0.588318	99
Es	1.038594	-0.329239	-0.274484	99
Es	-2.860361	0.152496	-0.480054	99
Es	-0.955372	0.380935	0.983932	99
Es	-2.877730	-0.361137	0.111833	99
Es	-1.191265	-0.646517	0.214729	99
Es	-1.389693	-0.987310	-0.600509	99
Es	2.357497	0.539655	0.964783	99
Es	-2.793471	-0.376501	-0.224523	99
Es	1.485319	1.361723	0.669617	99
37
Properties=species:S:1:pos:R:3:Z:I:1 energy=-265.0263462242818 field_type=dipole dipole="0.000000 0.000000 0.000000" charge=0
N	-2.793689	-0.376509	-0.223938	7
N	-1.493409	-0.726099	-0.357828	7
C	-0.717889	-0.116119	0.476612	6
C	0.726041	-0.422339	0.419602	6
C	1.550171	0.045381	-0.755138	6
C	1.736521	0.686131	0.588412	6
H	-3.368059	-1.015339	-0.780448	1
H	-2.962049	0.544801	-0.636238	1
H	-1.068999	0.608271	1.233202	1
H	0.984321	-1.389699	0.839042	1
H	1.054391	0.614791	-1.533548	1
H	2.325221	-0.618719	-1.120238	1
H	2.645631	0.462791	1.135332	1
H	1.381801	1.702661	0.715172	1
Es	-1.191493	-0.646103	0.214897	99
Es	1.038854	-0.329113	-0.274222	99
Es	-3.142499	-0.760919	-0.579924	99
Es	1.788750	0.491437	-0.144275	99
Es	-2.860110	0.151736	-0.480051	99
Es	-1.493627	-0.725663	-0.357415	99
Es	-1.127561	-0.228727	-0.186580	99
Es	0.891782	-1.056856	0.694217	99
Es	-0.955259	0.381056	0.983905	99
Es	1.550125	0.045396	-0.754936	99
Es	0.007373	-0.255886	0.445160	99
Es	1.485299	1.361210	0.669424	99
Es	-2.793481	-0.376487	-0.224541	99
Es	1.189175	0.155177	0.699189	99
Es	-2.147862	-0.537334	-0.301165	99
Es	1.211997	0.426186	-1.279372	99
Es	2.062169	-0.396806	-0.990997	99
Es	-2.877840	-0.360696	0.111740	99
Es	2.357545	0.540096	0.965035	99
Es	0.726142	-0.422189	0.419545	99
Es	-0.717830	-0.116076	0.476596	99
Es	-1.389386	-0.987520	-0.600151	99
Es	1.736439	0.686020	0.588319	99
37
Properties=species:S:1:pos:R:3:Z:I:1 energy=-265.0263462242818 field_type=dipole dipole="0.000000 0.000000 0.000000" charge=0
N	-2.793689	-0.376509	-0.223938	7
N	-1.493409	-0.726099	-0.357828	7
C	-0.717889	-0.116119	0.476612	6
C	0.726041	-0.422339	0.419602	6
C	1.550171	0.045381	-0.755138	6
C	1.736521	0.686131	0.588412	6
H	-3.368059	-1.015339	-0.780448	1
H	-2.962049	0.544801	-0.636238	1
H	-1.068999	0.608271	1.233202	1
H	0.984321	-1.389699	0.839042	1
H	1.054391	0.614791	-1.533548	1
H	2.325221	-0.618719	-1.120238	1
H	2.645631	0.462791	1.135332	1
H	1.381801	1.702661	0.715172	1
Es	1.212124	0.425978	-1.279499	99
Es	-1.389299	-0.987466	-0.600095	99
Es	1.550127	0.045399	-0.754942	99
Es	-1.127605	-0.228660	-0.186250	99
Es	2.357554	0.540616	0.965317	99
Es	-1.493627	-0.725665	-0.357417	99
Es	-0.717829	-0.116076	0.476597	99
Es	1.189317	0.155133	0.699292	99
Es	1.789101	0.491286	-0.143975	99
Es	-2.793452	-0.376519	-0.224568	99
Es	0.007293	-0.256068	0.444828	99
Es	2.061570	-0.396306	-0.990630	99
Es	1.039015	-0.329759	-0.274387	99
Es	0.891592	-1.056240	0.694063	99
Es	-2.147727	-0.537427	-0.301095	99
Es	-0.955224	0.381242	0.983929	99
Es	-1.191608	-0.646139	0.214817	99
Es	1.736438	0.686020	0.588318	99
Es	-3.142753	-0.760844	-0.579972	99
Es	0.726146	-0.422185	0.419544	99
Es	-2.859939	0.151125	-0.479886	99
Es	1.485286	1.360792	0.669079	99
Es	-2.877797	-0.360298	0.111331	99
37
Properties=species:S:1:pos:R:3:Z:I:1 energy=-265.0263462242818 field_type=dipole dipole="0.000000 0.000000 0.000000" charge=0
N	-2.793689	-0.376509	-0.223938	7
N	-1.493409	-0.726099	-0.357828	7
C	-0.717889	-0.116119	0.476612	6
C	0.726041	-0.422339	0.419602	6
C	1.550171	0.045381	-0.755138	6
C	1.736521	0.686131	0.588412	6
H	-3.368059	-1.015339	-0.780448	1
H	-2.962049	0.544801	-0.636238	1
H	-1.068999	0.608271	1.233202	1
H	0.984321	-1.389699	0.839042	1
H	1.054391	0.614791	-1.533548	1
H	2.325221	-0.618719	-1.120238	1
H	2.645631	0.462791	1.135332	1
H	1.381801	1.702661	0.715172	1
Es	-0.955030	0.381319	0.984014	99
Es	0.891618	-1.055765	0.693747	99
Es	1.039143	-0.329912	-0.274165	99
Es	1.485275	1.360349	0.668982	99
Es	-1.191782	-0.645810	0.214967	99
Es	-1.493616	-0.725653	-0.357402	99
Es	2.357597	0.540969	0.965477	99
Es	-0.717828	-0.116075	0.476594	99
Es	-2.859740	0.150458	-0.479846	99
Es	0.726152	-0.422189	0.419545	99
Es	-2.793470	-0.376503	-0.224549	99
Es	-2.877766	-0.359857	0.110931	99
Es	0.007031	-0.256474	0.444615	99
Es	-3.142906	-0.760900	-0.580011	99
Es	-2.147639	-0.537462	-0.300909	99
Es	-1.389059	-0.987630	-0.600126	99
Es	1.736438	0.686019	0.588318	99
Es	2.061230	-0.396068	-0.990333	99
Es	1.189449	0.155112	0.699151	99
Es	1.789262	0.491585	-0.143801	99
Es	-1.127818	-0.228605	-0.186172	99
Es	1.212037	0.425637	-1.279692	99
Es	1.550124	0.045394	-0.754936	99
37
Properties=species:S:1:pos:R:3:Z:I:1 energy=-265.0263462242818 field_type=dipole dipole="0.000000 0.000000 0.000000" charge=0
N	-2.793689	-0.376509	-0.223938	7
N	-1.493409	-0.726099	-0.357828	7
C	-0.717889	-0.116119	0.476612	6
C	0.726041	-0.422339	0.419602	6
C	1.550171	0.045381	-0.755138	6
C	1.736521	0.686131	0.588412	6
H	-3.368059	-1.015339	-0.780448	1
H	-2.962049	0.544801	-0.636238	1
H	-1.068999	0.608271	1.233202	1
H	0.984321	-1.389699	0.839042	1
H	1.054391	0.614791	-1.533548	1
H	2.325221	-0.618719	-1.120238	1
H	2.645631	0.462791	1.135332	1
H	1.381801	1.702661	0.715172	1
Es	1.212086	0.425389	-1.279832	99
Es	1.550127	0.045395	-0.754932	99
Es	-1.493613	-0.725655	-0.357404	99
Es	2.357560	0.541358	0.965676	99
Es	0.006971	-0.256601	0.444334	99
Es	-3.142924	-0.760969	-0.580078	99
Es	-2.793440	-0.376518	-0.224565	99
Es	-0.717829	-0.116073	0.476592	99
Es	-1.389109	-0.987566	-0.599874	99
Es	0.891455	-1.055261	0.693504	99
Es	-1.191760	-0.645754	0.214959	99
Es	1.485198	1.360010	0.668859	99
Es	0.726146	-0.422186	0.419543	99
Es	1.189714	0.155009	0.699210	99
Es	-2.147631	-0.537559	-0.300660	99
Es	-1.127713	-0.228607	-0.186312	99
Es	-2.877880	-0.359453	0.110620	99
Es	1.736438	0.686019	0.588323	99
Es	1.039281	-0.330373	-0.274026	99
Es	1.789362	0.491664	-0.143654	99
Es	-0.955090	0.381437	0.984018	99
Es	2.060955	-0.395721	-0.990058	99
Es	-2.859601	0.149953	-0.479843	99
37
Properties=species:S:1:pos:R:3:Z:I:1 energy=-265.0263462242818 field_type=dipole dipole="0.000000 0.000000 0.000000" charge=0
N	-2.793689	-0.376509	-0.223938	7
N	-1.493409	-0.726099	-0.357828	7
C	-0.717889	-0.116119	0.476612	6
C	0.726041	-0.422339	0.419602	6
C	1.550171	0.045381	-0.755138	6
C	1.736521	0.686131	0.588412	6
H	-3.368059	-1.015339	-0.780448	1
H	-2.962049	0.544801	-0.636238	1
H	-1.068999	0.608271	1.233202	1
H	0.984321	-1.389699	0.839042	1
H	1.054391	0.614791	-1.533548	1
H	2.325221	-0.618719	-1.120238	1
H	2.645631	0.462791	1.135332	1
H	1.381801	1.702661	0.715172	1
Es	-1.192063	-0.645215	0.214900	99
Es	0.006806	-0.256835	0.444239	99
Es	2.357643	0.541906	0.965866	99
Es	1.736434	0.686023	0.588318	99
Es	-1.388574	-0.987892	-0.599895	99
Es	0.891486	-1.055048	0.693451	99
Es	-2.793460	-0.376509	-0.224569	99
Es	-2.877617	-0.359557	0.110485	99
Es	-1.128038	-0.228596	-0.185952	99
Es	-2.859611	0.149618	-0.479443	99
Es	-0.954913	0.381544	0.984070	99
Es	-1.493630	-0.725661	-0.357413	99
Es	-0.717829	-0.116074	0.476595	99
Es	1.211987	0.425255	-1.279883	99
Es	1.485259	1.359438	0.668574	99
Es	1.789589	0.491556	-0.143517	99
Es	2.060507	-0.395502	-0.989888	99
Es	-3.143159	-0.760785	-0.580199	99
Es	-2.147529	-0.537604	-0.301037	99
Es	1.039289	-0.330524	-0.273948	99
Es	0.726145	-0.422185	0.419543	99
Es	1.189855	0.155191	0.699039	99
Es	1.550126	0.045395	-0.754936	99
37
Properties=species:S:1:pos:R:3:Z:I:1 energy=-265.0263462242818 field_type=dipole dipole="0.000000 0.000000 0.000000" charge=0
N	-2.793689	-0.376509	-0.223938	7
N	-1.493409	-0.726099	-0.357828	7
C	-0.717889	-0.116119	0.476612	6
C	0.726041	-0.422339	0.419602	6
C	1.550171	0.045381	-0.755138	6
C	1.736521	0.686131	0.588412	6
H	-3.368059	-1.015339	-0.780448	1
H	-2.962049	0.544801	-0.636238	1
H	-1.068999	0.608271	1.233202	1
H	0.984321	-1.389699	0.839042	1
H	1.054391	0.614791	-1.533548	1
H	2.325221	-0.618719	-1.120238	1
H	2.645631	0.462791	1.135332	1
H	1.381801	1.702661	0.715172	1
Es	-2.859710	0.149384	-0.479061	99
Es	-2.793427	-0.376530	-0.224622	99
Es	2.357653	0.542269	0.965969	99
Es	1.550125	0.045394	-0.754936	99
Es	-1.127920	-0.228592	-0.186165	99
Es	-1.192021	-0.645206	0.214997	99
Es	-3.143066	-0.760692	-0.580483	99
Es	-1.493632	-0.725664	-0.357417	99
Es	2.060116	-0.395096	-0.989572	99
Es	-0.717829	-0.116075	0.476595	99
Es	0.726147	-0.422183	0.419543	99
Es	-2.147169	-0.537141	-0.300224	99
Es	-1.388917	-0.988221	-0.600095	99
Es	1.212019	0.424996	-1.280030	99
Es	-2.877737	-0.359615	0.109912	99
Es	0.006655	-0.257017	0.443981	99
Es	0.891403	-1.054562	0.693196	99
Es	1.736430	0.686028	0.588319	99
Es	-0.954901	0.381569	0.984121	99
Es	1.189973	0.154933	0.699103	99
Es	1.039538	-0.330879	-0.273875	99
Es	1.485160	1.359105	0.668537	99
Es	1.789814	0.491734	-0.143393	99
37
Properties=species:S:1:pos:R:3:Z:I:1 energy=-265.0263462242818 field_type=dipole dipole="0.000000 0.000000 0.000000" charge=0
N	-2.793689	-0.376509	-0.223938	7
N	-1.493409	-0.726099	-0.357828	7
C	-0.717889	-0.116119	0.476612	6
C	0.726041	-0.422339	0.419602	6
C	1.550171	0.045381	-0.755138	6
C	1.736521	0.686131	0.588412	6
H	-3.368059	-1.015339	-0.780448	1
H	-2.962049	0.544801	-0.636238	1
H	-1.068999	0.608271	1.233202	1
H	0.984321	-1.389699	0.839042	1
H	1.054391	0.614791	-1.533548	1
H	2.325221	-0.618719	-1.120238	1
H	2.645631	0.462791	1.135332	1
H	1.381801	1.702661	0.715172	1
Es	-1.493627	-0.725661	-0.357412	99
Es	2.357688	0.542211	0.965992	99
Es	-0.717829	-0.116074	0.476596	99
Es	1.736431	0.686018	0.588327	99
Es	0.891325	-1.054096	0.693164	99
Es	0.726157	-0.422193	0.419548	99
Es	0.006549	-0.257192	0.443873	99
Es	1.212039	0.424706	-1.280154	99
Es	1.190033	0.154913	0.698830	99
Es	-2.793452	-0.376518	-0.224551	99
Es	1.039714	-0.331393	-0.273970	99
Es	-3.143172	-0.760668	-0.580531	99
Es	-2.859173	0.148508	-0.479528	99
Es	1.789863	0.491946	-0.143046	99
Es	-0.954842	0.381691	0.984071	99
Es	-2.147386	-0.537431	-0.300368	99
Es	-1.127914	-0.228530	-0.186051	99
Es	2.059852	-0.394737	-0.989296	99
Es	1.550126	0.045396	-0.754927	99
Es	-1.192188	-0.645080	0.214948	99
Es	-2.877957	-0.358766	0.110161	99
Es	-1.388696	-0.988253	-0.599796	99
Es	1.485160	1.359143	0.668520	99
