37
Properties=species:S:1:pos:R:3:Z:I:1 energy=-268.86687785282186 field_type=dipole dipole="0.000000 0.000000 0.000000" charge=0
C	-0.534436	1.533380	-0.699382	6
C	-1.258796	0.226090	-0.798212	6
C	0.247864	0.240490	-0.688692	6
C	0.994174	-0.237370	0.547708	6
C	0.606884	-1.455530	1.350348	6
O	1.658373	-1.504160	0.384298	8
H	-0.475406	2.151990	-1.587452	1
H	-0.620766	2.091780	0.225508	1
H	-1.690826	-0.048380	-1.753742	1
H	-1.839846	-0.094860	0.058238	1
H	0.781724	0.024790	-1.615762	1
H	1.563014	0.527050	1.070638	1
H	-0.316476	-1.966520	1.110318	1
H	0.884524	-1.488750	2.396188	1
Es	-1.646816	0.008417	-0.213181	99
Es	0.598312	0.003609	-0.057584	99
Es	0.800978	-1.485435	2.062699	99
Es	1.658154	-1.504013	0.384420	99
Es	1.272975	-1.594433	0.776804	99
Es	0.247712	0.240564	-0.688631	99
Es	-0.590467	1.905985	-0.067594	99
Es	-0.492506	1.949627	-1.302842	99
Es	1.387055	0.284738	0.899736	99
Es	0.019937	0.986376	-0.667540	99
Es	-0.017128	-1.811087	1.186745	99
Es	-0.501042	0.035405	-0.740826	99
Es	0.994273	-0.237654	0.547644	99
Es	0.615591	-0.713317	1.056551	99
Es	0.607111	-1.455508	1.350134	99
Es	-0.534425	1.533197	-0.699383	99
Es	-1.548961	0.042366	-1.447921	99
Es	1.547638	-1.632377	0.126987	99
Es	0.608536	0.095864	-1.310255	99
Es	-1.060648	0.973674	-0.759412	99
Es	1.931002	-1.500930	0.529869	99
Es	-1.258638	0.226176	-0.798194	99
Es	1.475003	-0.980996	0.377925	99
37
Properties=species:S:1:pos:R:3:Z:I:1 energy=-268.86687785282186 field_type=dipole dipole="0.000000 0.000000 0.000000" charge=0
C	-0.534436	1.533380	-0.699382	6
C	-1.258796	0.226090	-0.798212	6
C	0.247864	0.240490	-0.688692	6
C	0.994174	-0.237370	0.547708	6
C	0.606884	-1.455530	1.350348	6
O	1.658373	-1.504160	0.384298	8
H	-0.475406	2.151990	-1.587452	1
H	-0.620766	2.091780	0.225508	1
H	-1.690826	-0.048380	-1.753742	1
H	-1.839846	-0.094860	0.058238	1
H	0.781724	0.024790	-1.615762	1
H	1.563014	0.527050	1.070638	1
H	-0.316476	-1.966520	1.110318	1
H	0.884524	-1.488750	2.396188	1
Es	-0.492345	1.950505	-1.302926	99
Es	1.387137	0.284804	0.899153	99
Es	-0.016522	-1.811994	1.187484	99
Es	-1.547145	0.042905	-1.444776	99
Es	1.475415	-0.976605	0.376641	99
Es	-0.534425	1.533196	-0.699382	99
Es	1.932012	-1.506164	0.524206	99
Es	-1.647839	0.006991	-0.213523	99
Es	0.614084	-0.710585	1.057502	99
Es	1.658140	-1.503980	0.384460	99
Es	0.247713	0.240576	-0.688632	99
Es	-0.500450	0.032098	-0.742247	99
Es	0.020122	0.988643	-0.665997	99
Es	-0.591021	1.905077	-0.068653	99
Es	0.608657	0.095431	-1.309444	99
Es	0.598045	0.002882	-0.058605	99
Es	1.272214	-1.601707	0.776472	99
Es	-1.060898	0.976728	-0.760444	99
Es	0.607110	-1.455508	1.350134	99
Es	1.547145	-1.625275	0.134652	99
Es	0.800852	-1.486303	2.060631	99
Es	-1.258635	0.226184	-0.798195	99
Es	0.994278	-0.237654	0.547642	99
37
Properties=species:S:1:pos:R:3:Z:I:1 energy=-268.86687785282186 field_type=dipole dipole="0.000000 0.000000 0.000000" charge=0
C	-0.534436	1.533380	-0.699382	6
C	-1.258796	0.226090	-0.798212	6
C	0.247864	0.240490	-0.688692	6
C	0.994174	-0.237370	0.547708	6
C	0.606884	-1.455530	1.350348	6
O	1.658373	-1.504160	0.384298	8
H	-0.475406	2.151990	-1.587452	1
H	-0.620766	2.091780	0.225508	1
H	-1.690826	-0.048380	-1.753742	1
H	-1.839846	-0.094860	0.058238	1
H	0.781724	0.024790	-1.615762	1
H	1.563014	0.527050	1.070638	1
H	-0.316476	-1.966520	1.110318	1
H	0.884524	-1.488750	2.396188	1
Es	-1.545549	0.043395	-1.442183	99
Es	0.608910	0.094961	-1.309009	99
Es	-1.648657	0.005965	-0.213835	99
Es	-0.492090	1.951242	-1.302946	99
Es	-0.591141	1.904306	-0.069314	99
Es	0.607108	-1.455506	1.350133	99
Es	1.387192	0.284970	0.898513	99
Es	1.545893	-1.620877	0.141007	99
Es	-0.499804	0.030065	-0.743021	99
Es	1.477455	-0.974134	0.374290	99
Es	0.994273	-0.237642	0.547643	99
Es	0.019925	0.989524	-0.664997	99
Es	1.270952	-1.604132	0.775824	99
Es	-1.258638	0.226187	-0.798193	99
Es	-0.534433	1.533197	-0.699383	99
Es	1.932703	-1.511045	0.520816	99
Es	1.658197	-1.504003	0.384453	99
Es	-1.061612	0.979022	-0.761448	99
Es	0.597762	0.002527	-0.059276	99
Es	0.612903	-0.708907	1.058724	99
Es	-0.016276	-1.812642	1.188138	99
Es	0.800849	-1.486796	2.058846	99
Es	0.247723	0.240569	-0.688630	99
37
Properties=species:S:1:pos:R:3:Z:I:1 energy=-268.86687785282186 field_type=dipole dipole="0.000000 0.000000 0.000000" charge=0
C	-0.534436	1.533380	-0.699382	6
C	-1.258796	0.226090	-0.798212	6
C	0.247864	0.240490	-0.688692	6
C	0.994174	-0.237370	0.547708	6
C	0.606884	-1.455530	1.350348	6
O	1.658373	-1.504160	0.384298	8
H	-0.475406	2.151990	-1.587452	1
H	-0.620766	2.091780	0.225508	1
H	-1.690826	-0.048380	-1.753742	1
H	-1.839846	-0.094860	0.058238	1
H	0.781724	0.024790	-1.615762	1
H	1.563014	0.527050	1.070638	1
H	-0.316476	-1.966520	1.110318	1
H	0.884524	-1.488750	2.396188	1
Es	-0.491932	1.951670	-1.302904	99
Es	-1.061874	0.980371	-0.762360	99
Es	0.247714	0.240571	-0.688632	99
Es	0.612107	-0.707709	1.059288	99
Es	1.658201	-1.503982	0.384483	99
Es	1.934220	-1.514910	0.515994	99
Es	0.597568	0.002321	-0.059879	99
Es	1.477965	-0.972674	0.373972	99
Es	-0.534425	1.533199	-0.699382	99
Es	-1.649377	0.005185	-0.214189	99
Es	0.607111	-1.455506	1.350143	99
Es	0.800779	-1.486895	2.057461	99
Es	-1.544198	0.043935	-1.440114	99
Es	-0.591373	1.903856	-0.069649	99
Es	0.609073	0.094590	-1.308767	99
Es	1.271163	-1.607106	0.775860	99
Es	-0.016060	-1.813215	1.188668	99
Es	-0.499293	0.028574	-0.743573	99
Es	-1.258632	0.226180	-0.798195	99
Es	1.543704	-1.616038	0.146349	99
Es	0.019641	0.990389	-0.664280	99
Es	1.387287	0.285094	0.898215	99
Es	0.994273	-0.237654	0.547643	99
37
Properties=species:S:1:pos:R:3:Z:I:1 energy=-268.86687785282186 field_type=dipole dipole="0.000000 0.000000 0.000000" charge=0
C	-0.534436	1.533380	-0.699382	6
C	-1.258796	0.226090	-0.798212	6
C	0.247864	0.240490	-0.688692	6
C	0.994174	-0.237370	0.547708	6
C	0.606884	-1.455530	1.350348	6
O	1.658373	-1.504160	0.384298	8
H	-0.475406	2.151990	-1.587452	1
H	-0.620766	2.091780	0.225508	1
H	-1.690826	-0.048380	-1.753742	1
H	-1.839846	-0.094860	0.058238	1
H	0.781724	0.024790	-1.615762	1
H	1.563014	0.527050	1.070638	1
H	-0.316476	-1.966520	1.110318	1
H	0.884524	-1.488750	2.396188	1
Es	-0.015973	-1.813596	1.189128	99
Es	-1.258634	0.226185	-0.798194	99
Es	1.271113	-1.609087	0.775764	99
Es	-1.649820	0.004510	-0.214452	99
Es	-0.499080	0.027512	-0.744258	99
Es	1.657796	-1.504025	0.384214	99
Es	-0.491847	1.952028	-1.302982	99
Es	1.935236	-1.518212	0.512125	99
Es	0.247711	0.240577	-0.688633	99
Es	0.597215	0.002034	-0.060181	99
Es	-0.591422	1.903510	-0.069804	99
Es	0.994273	-0.237651	0.547645	99
Es	0.611593	-0.707094	1.059822	99
Es	0.609297	0.094283	-1.308528	99
Es	0.800780	-1.486960	2.056378	99
Es	0.019447	0.990903	-0.663811	99
Es	-1.062094	0.981399	-0.763079	99
Es	1.542301	-1.612083	0.150831	99
Es	1.478942	-0.971464	0.373684	99
Es	1.387275	0.285322	0.897966	99
Es	-0.534425	1.533200	-0.699381	99
Es	-1.543147	0.044461	-1.438236	99
Es	0.607109	-1.455506	1.350135	99
37
Properties=species:S:1:pos:R:3:Z:I:1 energy=-268.86687785282186 field_type=dipole dipole="0.000000 0.000000 0.000000" charge=0
C	-0.534436	1.533380	-0.699382	6
C	-1.258796	0.226090	-0.798212	6
C	0.247864	0.240490	-0.688692	6
C	0.994174	-0.237370	0.547708	6
C	0.606884	-1.455530	1.350348	6
O	1.658373	-1.504160	0.384298	8
H	-0.475406	2.151990	-1.587452	1
H	-0.620766	2.091780	0.225508	1
H	-1.690826	-0.048380	-1.753742	1
H	-1.839846	-0.094860	0.058238	1
H	0.781724	0.024790	-1.615762	1
H	1.563014	0.527050	1.070638	1
H	-0.316476	-1.966520	1.110318	1
H	0.884524	-1.488750	2.396188	1
Es	-0.491801	1.952290	-1.303036	99
Es	1.658063	-1.503989	0.384420	99
Es	-0.534429	1.533204	-0.699381	99
Es	1.936165	-1.521181	0.508846	99
Es	1.540844	-1.607940	0.154076	99
Es	0.994276	-0.237655	0.547641	99
Es	0.800768	-1.487020	2.055600	99
Es	-1.650208	0.004036	-0.214742	99
Es	0.247714	0.240576	-0.688631	99
Es	-1.258639	0.226178	-0.798194	99
Es	-1.062021	0.981992	-0.763506	99
Es	1.270667	-1.611393	0.774897	99
Es	0.609474	0.094038	-1.308360	99
Es	0.611092	-0.706413	1.060083	99
Es	-0.591596	1.903259	-0.069884	99
Es	1.479662	-0.970675	0.374522	99
Es	-0.498981	0.026726	-0.744633	99
Es	0.597025	0.001816	-0.060479	99
Es	0.019371	0.991331	-0.663406	99
Es	0.607105	-1.455504	1.350134	99
Es	1.387288	0.285542	0.897738	99
Es	-0.015818	-1.813904	1.189446	99
Es	-1.542377	0.044930	-1.437002	99
37
Properties=species:S:1:pos:R:3:Z:I:1 energy=-268.86687785282186 field_type=dipole dipole="0.000000 0.000000 0.000000" charge=0
C	-0.534436	1.533380	-0.699382	6
C	-1.258796	0.226090	-0.798212	6
C	0.247864	0.240490	-0.688692	6
C	0.994174	-0.237370	0.547708	6
C	0.606884	-1.455530	1.350348	6
O	1.658373	-1.504160	0.384298	8
H	-0.475406	2.151990	-1.587452	1
H	-0.620766	2.091780	0.225508	1
H	-1.690826	-0.048380	-1.753742	1
H	-1.839846	-0.094860	0.058238	1
H	0.781724	0.024790	-1.615762	1
H	1.563014	0.527050	1.070638	1
H	-0.316476	-1.966520	1.110318	1
H	0.884524	-1.488750	2.396188	1
Es	-1.650387	0.003675	-0.214841	99
Es	0.994281	-0.237653	0.547639	99
Es	0.607110	-1.455510	1.350130	99
Es	1.936356	-1.523224	0.506726	99
Es	0.018954	0.991687	-0.663180	99
Es	-0.591671	1.903040	-0.069928	99
Es	1.480462	-0.969951	0.374226	99
Es	0.610770	-0.705970	1.060474	99
Es	1.387285	0.285671	0.897575	99
Es	-1.541839	0.045405	-1.435712	99
Es	1.658182	-1.503994	0.384439	99
Es	1.270572	-1.612484	0.774673	99
Es	-0.015747	-1.814098	1.189787	99
Es	-0.534427	1.533205	-0.699383	99
Es	0.596824	0.001781	-0.060618	99
Es	-1.062014	0.982519	-0.764066	99
Es	0.609676	0.093815	-1.308221	99
Es	-0.491606	1.952514	-1.303020	99
Es	0.247710	0.240582	-0.688633	99
Es	-1.258636	0.226179	-0.798194	99
Es	1.539935	-1.605755	0.156700	99
Es	0.800700	-1.487017	2.054786	99
Es	-0.498848	0.025828	-0.745208	99
37
Properties=species:S:1:pos:R:3:Z:I:1 energy=-268.86687785282186 field_type=dipole dipole="0.000000 0.000000 0.000000" charge=0
C	-0.534436	1.533380	-0.699382	6
C	-1.258796	0.226090	-0.798212	6
C	0.247864	0.240490	-0.688692	6
C	0.994174	-0.237370	0.547708	6
C	0.606884	-1.455530	1.350348	6
O	1.658373	-1.504160	0.384298	8
H	-0.475406	2.151990	-1.587452	1
H	-0.620766	2.091780	0.225508	1
H	-1.690826	-0.048380	-1.753742	1
H	-1.839846	-0.094860	0.058238	1
H	0.781724	0.024790	-1.615762	1
H	1.563014	0.527050	1.070638	1
H	-0.316476	-1.966520	1.110318	1
H	0.884524	-1.488750	2.396188	1
Es	1.481098	-0.969600	0.374220	99
Es	-0.591602	1.902930	-0.069973	99
Es	0.018969	0.991781	-0.663158	99
Es	1.270874	-1.613345	0.775345	99
Es	1.387233	0.285716	0.897582	99
Es	1.658234	-1.503873	0.384667	99
Es	-1.650595	0.003233	-0.215071	99
Es	-1.258628	0.226186	-0.798193	99
Es	-0.534424	1.533204	-0.699383	99
Es	-0.015618	-1.814384	1.190108	99
Es	0.609629	0.093630	-1.308085	99
Es	1.936672	-1.524978	0.503575	99
Es	0.247716	0.240581	-0.688629	99
Es	1.538644	-1.603732	0.159041	99
Es	0.596842	0.001838	-0.060916	99
Es	0.994273	-0.237652	0.547643	99
Es	-1.062414	0.983101	-0.764396	99
Es	-0.491645	1.952626	-1.302993	99
Es	0.610472	-0.705654	1.060522	99
Es	-1.541168	0.045589	-1.434801	99
Es	-0.498748	0.025509	-0.745289	99
Es	0.607111	-1.455508	1.350132	99
Es	0.800719	-1.486953	2.054206	99
37
Properties=species:S:1:pos:R:3:Z:I:1 energy=-268.86687785282186 field_type=dipole dipole="0.000000 0.000000 0.000000" charge=0
C	-0.534436	1.533380	-0.699382	6
C	-1.258796	0.226090	-0.798212	6
C	0.247864	0.240490	-0.688692	6
C	0.994174	-0.237370	0.547708	6
C	0.606884	-1.455530	1.350348	6
O	1.658373	-1.504160	0.384298	8
H	-0.475406	2.151990	-1.587452	1
H	-0.620766	2.091780	0.225508	1
H	-1.690826	-0.048380	-1.753742	1
H	-1.839846	-0.094860	0.058238	1
H	0.781724	0.024790	-1.615762	1
H	1.563014	0.527050	1.070638	1
H	-0.316476	-1.966520	1.110318	1
H	0.884524	-1.488750	2.396188	1
Es	-0.534427	1.533202	-0.699382	99
Es	1.541302	-1.604802	0.158445	99
Es	-1.258646	0.226182	-0.798202	99
Es	0.800704	-1.486987	2.053655	99
Es	-1.540541	0.046058	-1.433716	99
Es	1.658148	-1.503948	0.384516	99
Es	0.247721	0.240576	-0.688630	99
Es	1.481090	-0.969331	0.373173	99
Es	1.387285	0.285875	0.897359	99
Es	-1.651014	0.003023	-0.215289	99
Es	1.934985	-1.523304	0.506453	99
Es	-0.015625	-1.814490	1.190324	99
Es	-1.062451	0.983584	-0.764793	99
Es	1.270040	-1.614274	0.774225	99
Es	0.609794	0.093505	-1.308021	99
Es	-0.498496	0.024886	-0.745629	99
Es	0.018822	0.991803	-0.662739	99
Es	0.607112	-1.455508	1.350129	99
Es	0.994276	-0.237657	0.547638	99
Es	0.596597	0.001677	-0.061021	99
Es	0.610289	-0.705364	1.060882	99
Es	-0.491575	1.952798	-1.303047	99
Es	-0.591743	1.902742	-0.070180	99
37
Properties=species:S:1:pos:R:3:Z:I:1 energy=-268.86687785282186 field_type=dipole dipole="0.000000 0.000000 0.000000" charge=0
C	-0.534436	1.533380	-0.699382	6
C	-1.258796	0.226090	-0.798212	6
C	0.247864	0.240490	-0.688692	6
C	0.994174	-0.237370	0.547708	6
C	0.606884	-1.455530	1.350348	6
O	1.658373	-1.504160	0.384298	8
H	-0.475406	2.151990	-1.587452	1
H	-0.620766	2.091780	0.225508	1
H	-1.690826	-0.048380	-1.753742	1
H	-1.839846	-0.094860	0.058238	1
H	0.781724	0.024790	-1.615762	1
H	1.563014	0.527050	1.070638	1
H	-0.316476	-1.966520	1.110318	1
H	0.884524	-1.488750	2.396188	1
Es	-0.015509	-1.814744	1.190551	99
Es	-0.591868	1.902624	-0.070019	99
Es	0.609741	0.093364	-1.308041	99
Es	-1.540439	0.046050	-1.433481	99
Es	-0.491508	1.952952	-1.303086	99
Es	-1.258628	0.226188	-0.798193	99
Es	-0.498701	0.024766	-0.745674	99
Es	0.018607	0.992038	-0.662672	99
Es	-1.062029	0.983773	-0.764994	99
Es	0.800706	-1.486861	2.053318	99
Es	0.610126	-0.705146	1.060803	99
Es	1.537574	-1.599619	0.162774	99
Es	1.482044	-0.968747	0.375323	99
Es	-1.650909	0.002840	-0.215265	99
Es	1.937244	-1.528099	0.500013	99
Es	1.387301	0.286031	0.897308	99
Es	0.596609	0.001526	-0.061144	99
Es	0.994280	-0.237657	0.547638	99
Es	0.247716	0.240577	-0.688631	99
Es	0.607114	-1.455510	1.350132	99
Es	1.270687	-1.615310	0.774548	99
Es	-0.534426	1.533205	-0.699382	99
Es	1.657914	-1.503995	0.384326	99
37
Properties=species:S:1:pos:R:3:Z:I:1 energy=-268.86687785282186 field_type=dipole dipole="0.000000 0.000000 0.000000" charge=0
C	-0.534436	1.533380	-0.699382	6
C	-1.258796	0.226090	-0.798212	6
C	0.247864	0.240490	-0.688692	6
C	0.994174	-0.237370	0.547708	6
C	0.606884	-1.455530	1.350348	6
O	1.658373	-1.504160	0.384298	8
H	-0.475406	2.151990	-1.587452	1
H	-0.620766	2.091780	0.225508	1
H	-1.690826	-0.048380	-1.753742	1
H	-1.839846	-0.094860	0.058238	1
H	0.781724	0.024790	-1.615762	1
H	1.563014	0.527050	1.070638	1
H	-0.316476	-1.966520	1.110318	1
H	0.884524	-1.488750	2.396188	1
Es	0.607117	-1.455513	1.350128	99
Es	-1.061992	0.983789	-0.765122	99
Es	-0.591770	1.902732	-0.069901	99
Es	1.938791	-1.530361	0.496083	99
Es	1.658110	-1.503992	0.384443	99
Es	0.596501	0.001386	-0.061207	99
Es	-1.258636	0.226186	-0.798194	99
Es	-1.650939	0.002615	-0.215333	99
Es	0.994272	-0.237654	0.547642	99
Es	-1.540187	0.046176	-1.433047	99
Es	0.609923	-0.705056	1.060760	99
Es	0.800697	-1.486887	2.053119	99
Es	-0.491390	1.952877	-1.303205	99
Es	0.247708	0.240584	-0.688637	99
Es	1.271591	-1.615104	0.775659	99
Es	0.609770	0.093190	-1.307908	99
Es	-0.015415	-1.814870	1.190625	99
Es	-0.534425	1.533201	-0.699381	99
Es	-0.498692	0.024548	-0.745835	99
Es	1.535200	-1.597656	0.166472	99
Es	1.481752	-0.968639	0.374317	99
Es	0.018374	0.992471	-0.662615	99
Es	1.387285	0.286224	0.897290	99
37
Properties=species:S:1:pos:R:3:Z:I:1 energy=-268.86687785282186 field_type=dipole dipole="0.000000 0.000000 0.000000" charge=0
C	-0.534436	1.533380	-0.699382	6
C	-1.258796	0.226090	-0.798212	6
C	0.247864	0.240490	-0.688692	6
C	0.994174	-0.237370	0.547708	6
C	0.606884	-1.455530	1.350348	6
O	1.658373	-1.504160	0.384298	8
H	-0.475406	2.151990	-1.587452	1
H	-0.620766	2.091780	0.225508	1
H	-1.690826	-0.048380	-1.753742	1
H	-1.839846	-0.094860	0.058238	1
H	0.781724	0.024790	-1.615762	1
H	1.563014	0.527050	1.070638	1
H	-0.316476	-1.966520	1.110318	1
H	0.884524	-1.488750	2.396188	1
Es	-0.491404	1.952878	-1.303232	99
Es	-1.061613	0.984028	-0.765278	99
Es	-0.498922	0.024326	-0.745901	99
Es	-1.650919	0.002522	-0.215358	99
Es	0.607120	-1.455510	1.350137	99
Es	1.481823	-0.968326	0.375586	99
Es	0.800671	-1.486890	2.053008	99
Es	0.609877	-0.704890	1.060716	99
Es	-1.540058	0.046210	-1.432791	99
Es	1.387299	0.286263	0.897286	99
Es	0.596435	0.001358	-0.061332	99
Es	1.533694	-1.594390	0.169313	99
Es	-0.015377	-1.814908	1.190648	99
Es	-1.258635	0.226184	-0.798194	99
Es	-0.591829	1.902751	-0.069763	99
Es	0.018277	0.992606	-0.662608	99
Es	0.994279	-0.237655	0.547641	99
Es	1.272069	-1.616678	0.775616	99
Es	0.609772	0.093076	-1.307871	99
Es	1.658156	-1.503960	0.384500	99
Es	-0.534426	1.533201	-0.699382	99
Es	1.939641	-1.532531	0.492047	99
Es	0.247714	0.240581	-0.688633	99
37
Properties=species:S:1:pos:R:3:Z:I:1 energy=-268.86687785282186 field_type=dipole dipole="0.000000 0.000000 0.000000" charge=0
C	-0.534436	1.533380	-0.699382	6
C	-1.258796	0.226090	-0.798212	6
C	0.247864	0.240490	-0.688692	6
C	0.994174	-0.237370	0.547708	6
C	0.606884	-1.455530	1.350348	6
O	1.658373	-1.504160	0.384298	8
H	-0.475406	2.151990	-1.587452	1
H	-0.620766	2.091780	0.225508	1
H	-1.690826	-0.048380	-1.753742	1
H	-1.839846	-0.094860	0.058238	1
H	0.781724	0.024790	-1.615762	1
H	1.563014	0.527050	1.070638	1
H	-0.316476	-1.966520	1.110318	1
H	0.884524	-1.488750	2.396188	1
Es	-1.650953	0.002316	-0.215457	99
Es	-1.061675	0.984211	-0.765412	99
Es	-0.534426	1.533204	-0.699383	99
Es	0.607114	-1.455511	1.350130	99
Es	1.658194	-1.503902	0.384593	99
Es	0.018074	0.992624	-0.662487	99
Es	-0.491279	1.952980	-1.303256	99
Es	-1.258633	0.226184	-0.798193	99
Es	1.483345	-0.967900	0.375617	99
Es	0.596403	0.001307	-0.061320	99
Es	-0.015303	-1.815061	1.190894	99
Es	0.247709	0.240583	-0.688633	99
Es	0.994268	-0.237650	0.547644	99
Es	-0.591878	1.902652	-0.069818	99
Es	0.609864	0.093072	-1.307852	99
Es	1.387302	0.286316	0.897211	99
Es	-0.498906	0.024120	-0.746154	99
Es	0.609737	-0.704765	1.060817	99
Es	1.271267	-1.615928	0.775164	99
Es	1.533327	-1.593809	0.169928	99
Es	1.939229	-1.534389	0.491792	99
Es	-1.539831	0.046413	-1.432326	99
Es	0.800693	-1.486820	2.052654	99
37
Properties=species:S:1:pos:R:3:Z:I:1 energy=-268.86687785282186 field_type=dipole dipole="0.000000 0.000000 0.000000" charge=0
C	-0.534436	1.533380	-0.699382	6
C	-1.258796	0.226090	-0.798212	6
C	0.247864	0.240490	-0.688692	6
C	0.994174	-0.237370	0.547708	6
C	0.606884	-1.455530	1.350348	6
O	1.658373	-1.504160	0.384298	8
H	-0.475406	2.151990	-1.587452	1
H	-0.620766	2.091780	0.225508	1
H	-1.690826	-0.048380	-1.753742	1
H	-1.839846	-0.094860	0.058238	1
H	0.781724	0.024790	-1.615762	1
H	1.563014	0.527050	1.070638	1
H	-0.316476	-1.966520	1.110318	1
H	0.884524	-1.488750	2.396188	1
Es	1.387325	0.286432	0.897186	99
Es	0.247714	0.240582	-0.688633	99
Es	-0.591877	1.902760	-0.069681	99
Es	-0.015318	-1.815100	1.190820	99
Es	0.607110	-1.455507	1.350133	99
Es	0.994271	-0.237652	0.547639	99
Es	0.596288	0.001269	-0.061403	99
Es	1.531614	-1.591192	0.172994	99
Es	1.271701	-1.616269	0.775479	99
Es	-0.534429	1.533204	-0.699384	99
Es	1.483543	-0.967625	0.376006	99
Es	1.940145	-1.536870	0.487924	99
Es	-0.498814	0.024066	-0.746085	99
Es	-1.061444	0.984040	-0.765508	99
Es	-0.491346	1.952891	-1.303313	99
Es	0.800726	-1.486967	2.052606	99
Es	1.658245	-1.503874	0.384683	99
Es	-1.258635	0.226184	-0.798190	99
Es	0.609789	-0.704714	1.060881	99
Es	0.017913	0.993079	-0.662556	99
Es	-1.650952	0.002242	-0.215416	99
Es	0.609826	0.092892	-1.307779	99
Es	-1.539749	0.046376	-1.432252	99
37
Properties=species:S:1:pos:R:3:Z:I:1 energy=-268.86687785282186 field_type=dipole dipole="0.000000 0.000000 0.000000" charge=0
C	-0.534436	1.533380	-0.699382	6
C	-1.258796	0.226090	-0.798212	6
C	0.247864	0.240490	-0.688692	6
C	0.994174	-0.237370	0.547708	6
C	0.606884	-1.455530	1.350348	6
O	1.658373	-1.504160	0.384298	8
H	-0.475406	2.151990	-1.587452	1
H	-0.620766	2.091780	0.225508	1
H	-1.690826	-0.048380	-1.753742	1
H	-1.839846	-0.094860	0.058238	1
H	0.781724	0.024790	-1.615762	1
H	1.563014	0.527050	1.070638	1
H	-0.316476	-1.966520	1.110318	1
H	0.884524	-1.488750	2.396188	1
Es	0.609642	-0.704498	1.061178	99
Es	-1.651203	0.002073	-0.215608	99
Es	-0.534427	1.533202	-0.699382	99
Es	1.483571	-0.967619	0.375331	99
Es	-0.491311	1.953166	-1.303279	99
Es	-0.592026	1.902462	-0.069899	99
Es	0.994274	-0.237654	0.547638	99
Es	-0.015310	-1.815207	1.191104	99
Es	1.533847	-1.593896	0.169956	99
Es	1.387281	0.286349	0.897154	99
Es	-1.539369	0.046847	-1.431406	99
Es	1.271438	-1.616716	0.775193	99
Es	0.609964	0.092945	-1.307676	99
Es	1.938365	-1.533838	0.492027	99
Es	0.596197	0.001340	-0.061513	99
Es	1.658206	-1.503930	0.384571	99
Es	0.247715	0.240576	-0.688633	99
Es	-1.061633	0.984435	-0.765722	99
Es	0.607114	-1.455511	1.350131	99
Es	-0.498702	0.023568	-0.746537	99
Es	0.800664	-1.486877	2.052023	99
Es	0.017973	0.992844	-0.662297	99
Es	-1.258626	0.226184	-0.798204	99
37
Properties=species:S:1:pos:R:3:Z:I:1 energy=-268.86687785282186 field_type=dipole dipole="0.000000 0.000000 0.000000" charge=0
C	-0.534436	1.533380	-0.699382	6
C	-1.258796	0.226090	-0.798212	6
C	0.247864	0.240490	-0.688692	6
C	0.994174	-0.237370	0.547708	6
C	0.606884	-1.455530	1.350348	6
O	1.658373	-1.504160	0.384298	8
H	-0.475406	2.151990	-1.587452	1
H	-0.620766	2.091780	0.225508	1
H	-1.690826	-0.048380	-1.753742	1
H	-1.839846	-0.094860	0.058238	1
H	0.781724	0.024790	-1.615762	1
H	1.563014	0.527050	1.070638	1
H	-0.316476	-1.966520	1.110318	1
H	0.884524	-1.488750	2.396188	1
Es	1.272349	-1.616904	0.776108	99
Es	-0.591813	1.902816	-0.069619	99
Es	1.940941	-1.540734	0.482070	99
Es	0.607109	-1.455508	1.350133	99
Es	1.529284	-1.587229	0.177842	99
Es	0.247709	0.240580	-0.688632	99
Es	0.596273	0.001165	-0.061512	99
Es	1.387313	0.286559	0.897263	99
Es	0.994275	-0.237654	0.547642	99
Es	1.658196	-1.503959	0.384519	99
Es	-0.534418	1.533208	-0.699382	99
Es	-1.539621	0.046322	-1.432100	99
Es	0.800690	-1.486872	2.052483	99
Es	0.609742	0.092816	-1.307665	99
Es	-1.650842	0.002044	-0.215453	99
Es	-0.015246	-1.815140	1.190925	99
Es	-1.258629	0.226186	-0.798193	99
Es	-0.498987	0.023974	-0.746133	99
Es	-1.061366	0.984208	-0.765564	99
Es	-0.491159	1.952856	-1.303401	99
Es	1.484445	-0.967169	0.376604	99
Es	0.609716	-0.704660	1.060694	99
Es	0.017685	0.993339	-0.662475	99
37
Properties=species:S:1:pos:R:3:Z:I:1 energy=-268.86687785282186 field_type=dipole dipole="0.000000 0.000000 0.000000" charge=0
C	-0.534436	1.533380	-0.699382	6
C	-1.258796	0.226090	-0.798212	6
C	0.247864	0.240490	-0.688692	6
C	0.994174	-0.237370	0.547708	6
C	0.606884	-1.455530	1.350348	6
O	1.658373	-1.504160	0.384298	8
H	-0.475406	2.151990	-1.587452	1
H	-0.620766	2.091780	0.225508	1
H	-1.690826	-0.048380	-1.753742	1
H	-1.839846	-0.094860	0.058238	1
H	0.781724	0.024790	-1.615762	1
H	1.563014	0.527050	1.070638	1
H	-0.316476	-1.966520	1.110318	1
H	0.884524	-1.488750	2.396188	1
Es	-0.534426	1.533203	-0.699383	99
Es	-1.539045	0.047059	-1.431008	99
Es	0.800691	-1.486751	2.051780	99
Es	-1.651352	0.001840	-0.215862	99
Es	-1.061486	0.984677	-0.765749	99
Es	0.607111	-1.455508	1.350133	99
Es	0.017617	0.992981	-0.662453	99
Es	1.387299	0.286541	0.897020	99
Es	-0.591932	1.902495	-0.069752	99
Es	-0.491247	1.953163	-1.303323	99
Es	0.609963	0.092703	-1.307644	99
Es	0.247713	0.240579	-0.688633	99
Es	0.609476	-0.704392	1.061084	99
Es	1.533035	-1.591927	0.172585	99
Es	1.658020	-1.503979	0.384407	99
Es	0.596188	0.001329	-0.061543	99
Es	0.994275	-0.237660	0.547623	99
Es	1.483544	-0.967404	0.375421	99
Es	-1.258638	0.226190	-0.798194	99
Es	-0.498691	0.023245	-0.746473	99
Es	1.271728	-1.617350	0.775409	99
Es	-0.015199	-1.815390	1.191342	99
Es	1.939000	-1.535398	0.489364	99
37
Properties=species:S:1:pos:R:3:Z:I:1 energy=-268.86687785282186 field_type=dipole dipole="0.000000 0.000000 0.000000" charge=0
C	-0.534436	1.533380	-0.699382	6
C	-1.258796	0.226090	-0.798212	6
C	0.247864	0.240490	-0.688692	6
C	0.994174	-0.237370	0.547708	6
C	0.606884	-1.455530	1.350348	6
O	1.658373	-1.504160	0.384298	8
H	-0.475406	2.151990	-1.587452	1
H	-0.620766	2.091780	0.225508	1
H	-1.690826	-0.048380	-1.753742	1
H	-1.839846	-0.094860	0.058238	1
H	0.781724	0.024790	-1.615762	1
H	1.563014	0.527050	1.070638	1
H	-0.316476	-1.966520	1.110318	1
H	0.884524	-1.488750	2.396188	1
Es	0.596150	0.001166	-0.061554	99
Es	1.532251	-1.590052	0.174326	99
Es	0.994277	-0.237656	0.547640	99
Es	-1.539012	0.046821	-1.430950	99
Es	1.483836	-0.967172	0.376012	99
Es	0.800621	-1.486811	2.051800	99
Es	-0.534428	1.533206	-0.699383	99
Es	0.607108	-1.455506	1.350134	99
Es	0.609455	-0.704318	1.061031	99
Es	1.939433	-1.537046	0.487323	99
Es	-0.015122	-1.815368	1.191231	99
Es	-0.491277	1.953153	-1.303356	99
Es	-1.651174	0.001814	-0.215654	99
Es	1.658177	-1.503949	0.384509	99
Es	-0.591878	1.902519	-0.069681	99
Es	-1.061566	0.984558	-0.765989	99
Es	0.609905	0.092672	-1.307673	99
Es	-1.258644	0.226179	-0.798200	99
Es	1.387287	0.286611	0.897015	99
Es	0.017579	0.993215	-0.662411	99
Es	0.247714	0.240576	-0.688632	99
Es	1.271632	-1.617893	0.775073	99
Es	-0.498678	0.023524	-0.746457	99
37
Properties=species:S:1:pos:R:3:Z:I:1 energy=-268.86687785282186 field_type=dipole dipole="0.000000 0.000000 0.000000" charge=0
C	-0.534436	1.533380	-0.699382	6
C	-1.258796	0.226090	-0.798212	6
C	0.247864	0.240490	-0.688692	6
C	0.994174	-0.237370	0.547708	6
C	0.606884	-1.455530	1.350348	6
O	1.658373	-1.504160	0.384298	8
H	-0.475406	2.151990	-1.587452	1
H	-0.620766	2.091780	0.225508	1
H	-1.690826	-0.048380	-1.753742	1
H	-1.839846	-0.094860	0.058238	1
H	0.781724	0.024790	-1.615762	1
H	1.563014	0.527050	1.070638	1
H	-0.316476	-1.966520	1.110318	1
H	0.884524	-1.488750	2.396188	1
Es	1.484542	-0.966925	0.376935	99
Es	0.994279	-0.237656	0.547639	99
Es	0.800697	-1.486817	2.051854	99
Es	-0.534430	1.533203	-0.699383	99
Es	-1.539085	0.046878	-1.430917	99
Es	1.271508	-1.618289	0.774770	99
Es	-0.591894	1.902532	-0.069645	99
Es	1.531205	-1.587877	0.176160	99
Es	0.596132	0.001144	-0.061568	99
Es	0.017313	0.993194	-0.662366	99
Es	0.247710	0.240586	-0.688634	99
Es	-1.258635	0.226186	-0.798194	99
Es	1.658201	-1.503900	0.384624	99
Es	-0.491078	1.953153	-1.303431	99
Es	1.939787	-1.539102	0.484712	99
Es	1.387277	0.286662	0.897086	99
Es	-0.498738	0.023317	-0.746540	99
Es	0.609880	0.092622	-1.307634	99
Es	-1.061358	0.984747	-0.765959	99
Es	-1.651112	0.001833	-0.215676	99
Es	-0.015169	-1.815378	1.191274	99
Es	0.607112	-1.455511	1.350127	99
Es	0.609500	-0.704355	1.060920	99
37
Properties=species:S:1:pos:R:3:Z:I:1 energy=-268.86687785282186 field_type=dipole dipole="0.000000 0.000000 0.000000" charge=0
C	-0.534436	1.533380	-0.699382	6
C	-1.258796	0.226090	-0.798212	6
C	0.247864	0.240490	-0.688692	6
C	0.994174	-0.237370	0.547708	6
C	0.606884	-1.455530	1.350348	6
O	1.658373	-1.504160	0.384298	8
H	-0.475406	2.151990	-1.587452	1
H	-0.620766	2.091780	0.225508	1
H	-1.690826	-0.048380	-1.753742	1
H	-1.839846	-0.094860	0.058238	1
H	0.781724	0.024790	-1.615762	1
H	1.563014	0.527050	1.070638	1
H	-0.316476	-1.966520	1.110318	1
H	0.884524	-1.488750	2.396188	1
Es	0.800675	-1.486794	2.051686	99
Es	1.658304	-1.503829	0.384790	99
Es	-0.591892	1.902460	-0.069590	99
Es	-1.651082	0.001748	-0.215755	99
Es	-1.539027	0.046863	-1.430882	99
Es	0.607112	-1.455508	1.350133	99
Es	1.940062	-1.539991	0.482810	99
Es	1.530298	-1.587318	0.177318	99
Es	-0.534420	1.533204	-0.699382	99
Es	0.596105	0.001036	-0.061671	99
Es	1.387311	0.286695	0.897022	99
Es	1.484475	-0.966893	0.376765	99
Es	-1.258633	0.226187	-0.798218	99
Es	-0.491122	1.953239	-1.303424	99
Es	0.247706	0.240588	-0.688630	99
Es	0.017382	0.993386	-0.662297	99
Es	-0.498768	0.023276	-0.746557	99
Es	0.609857	0.092663	-1.307564	99
Es	0.994275	-0.237657	0.547639	99
Es	0.609421	-0.704293	1.060970	99
Es	1.272057	-1.618019	0.775592	99
Es	-1.061340	0.984706	-0.765928	99
Es	-0.015110	-1.815501	1.191326	99
37
Properties=species:S:1:pos:R:3:Z:I:1 energy=-268.86687785282186 field_type=dipole dipole="0.000000 0.000000 0.000000" charge=0
C	-0.534436	1.533380	-0.699382	6
C	-1.258796	0.226090	-0.798212	6
C	0.247864	0.240490	-0.688692	6
C	0.994174	-0.237370	0.547708	6
C	0.606884	-1.455530	1.350348	6
O	1.658373	-1.504160	0.384298	8
H	-0.475406	2.151990	-1.587452	1
H	-0.620766	2.091780	0.225508	1
H	-1.690826	-0.048380	-1.753742	1
H	-1.839846	-0.094860	0.058238	1
H	0.781724	0.024790	-1.615762	1
H	1.563014	0.527050	1.070638	1
H	-0.316476	-1.966520	1.110318	1
H	0.884524	-1.488750	2.396188	1
Es	1.387312	0.286807	0.896854	99
Es	1.272326	-1.618537	0.775605	99
Es	-0.534424	1.533204	-0.699382	99
Es	-1.651160	0.001532	-0.215792	99
Es	1.531389	-1.588661	0.176363	99
Es	1.939745	-1.538015	0.484759	99
Es	0.800657	-1.486757	2.051432	99
Es	-0.015086	-1.815538	1.191471	99
Es	0.994274	-0.237653	0.547640	99
Es	0.607113	-1.455509	1.350133	99
Es	1.483606	-0.967008	0.375979	99
Es	-0.491221	1.953209	-1.303383	99
Es	0.247714	0.240578	-0.688632	99
Es	-1.061549	0.984806	-0.766029	99
Es	-1.538783	0.047068	-1.430451	99
Es	0.609952	0.092596	-1.307581	99
Es	-0.591857	1.902474	-0.069662	99
Es	0.017297	0.993388	-0.662326	99
Es	0.596042	0.000988	-0.061573	99
Es	-1.258638	0.226178	-0.798195	99
Es	0.609370	-0.704164	1.061129	99
Es	-0.498596	0.023197	-0.746746	99
Es	1.658165	-1.503938	0.384541	99
37
Properties=species:S:1:pos:R:3:Z:I:1 energy=-268.86687785282186 field_type=dipole dipole="0.000000 0.000000 0.000000" charge=0
C	-0.534436	1.533380	-0.699382	6
C	-1.258796	0.226090	-0.798212	6
C	0.247864	0.240490	-0.688692	6
C	0.994174	-0.237370	0.547708	6
C	0.606884	-1.455530	1.350348	6
O	1.658373	-1.504160	0.384298	8
H	-0.475406	2.151990	-1.587452	1
H	-0.620766	2.091780	0.225508	1
H	-1.690826	-0.048380	-1.753742	1
H	-1.839846	-0.094860	0.058238	1
H	0.781724	0.024790	-1.615762	1
H	1.563014	0.527050	1.070638	1
H	-0.316476	-1.966520	1.110318	1
H	0.884524	-1.488750	2.396188	1
Es	-0.591960	1.902462	-0.069555	99
Es	0.994273	-0.237653	0.547642	99
Es	-1.061266	0.984915	-0.766121	99
Es	1.530663	-1.587062	0.177941	99
Es	0.017507	0.993296	-0.662242	99
Es	1.272097	-1.618716	0.775455	99
Es	-0.015088	-1.815576	1.191542	99
Es	-1.258626	0.226190	-0.798202	99
Es	1.484399	-0.966809	0.376452	99
Es	0.596032	0.000810	-0.061541	99
Es	0.607112	-1.455507	1.350133	99
Es	-1.538852	0.047095	-1.430434	99
Es	1.658224	-1.503886	0.384653	99
Es	0.800679	-1.486702	2.051424	99
Es	-0.534428	1.533202	-0.699382	99
Es	0.609413	-0.704102	1.060899	99