37
Properties=species:S:1:pos:R:3:Z:I:1 energy=-268.8960110983073 field_type=dipole dipole="0.000000 0.000000 0.000000" charge=0
C	1.013805	1.181994	-0.618117	6
C	-0.149135	0.861114	0.283733	6
C	-1.177185	-0.132516	-0.147527	6
C	-0.509885	-1.485146	0.103803	6
O	0.909645	-1.253156	0.045793	8
C	1.145015	0.122344	0.430253	6
H	0.979565	0.868484	-1.654837	1
H	1.537215	2.116964	-0.457127	1
H	-0.454285	1.545104	1.059933	1
H	-2.117025	-0.042636	0.405803	1
H	-1.398175	-0.006536	-1.213747	1
H	-0.747595	-1.861466	1.104403	1
H	-0.797415	-2.234726	-0.638437	1
H	1.765455	0.320174	1.296073	1
Es	0.981531	0.968512	-1.315149	99
Es	1.013724	1.181919	-0.617976	99
Es	0.439484	0.439113	0.509984	99
Es	-0.683498	-1.741542	0.795788	99
Es	1.041190	-1.430735	0.256387	99
Es	-1.814511	-0.070460	0.234310	99
Es	-0.863304	-0.813187	-0.027180	99
Es	0.981803	-0.723754	0.196165	99
Es	-1.327873	-0.050509	-0.876893	99
Es	1.270996	0.615866	-0.159605	99
Es	0.311058	1.154185	-0.263474	99
Es	0.982293	-1.264965	-0.250542	99
Es	1.574585	0.248402	1.013978	99
Es	0.370630	-1.313805	0.076218	99
Es	1.366141	1.813913	-0.500191	99
Es	0.909361	-1.252861	0.045915	99
Es	-0.670776	0.385611	0.053228	99
Es	-0.351339	1.337815	0.804812	99
Es	-0.509679	-1.485084	0.103784	99
Es	-0.148988	0.861088	0.283655	99
Es	-1.177158	-0.132521	-0.147511	99
Es	-0.705762	-1.999450	-0.403930	99
Es	1.144911	0.122233	0.430073	99
37
Properties=species:S:1:pos:R:3:Z:I:1 energy=-268.8960110983073 field_type=dipole dipole="0.000000 0.000000 0.000000" charge=0
C	1.013805	1.181994	-0.618117	6
C	-0.149135	0.861114	0.283733	6
C	-1.177185	-0.132516	-0.147527	6
C	-0.509885	-1.485146	0.103803	6
O	0.909645	-1.253156	0.045793	8
C	1.145015	0.122344	0.430253	6
H	0.979565	0.868484	-1.654837	1
H	1.537215	2.116964	-0.457127	1
H	-0.454285	1.545104	1.059933	1
H	-2.117025	-0.042636	0.405803	1
H	-1.398175	-0.006536	-1.213747	1
H	-0.747595	-1.861466	1.104403	1
H	-0.797415	-2.234726	-0.638437	1
H	1.765455	0.320174	1.296073	1
Es	-1.177158	-0.132521	-0.147511	99
Es	0.909385	-1.252916	0.045938	99
Es	-0.683797	-1.742255	0.795921	99
Es	-1.815463	-0.070253	0.234488	99
Es	-0.670898	0.385157	0.053222	99
Es	1.366497	1.813787	-0.500812	99
Es	1.013722	1.181920	-0.617976	99
Es	1.272358	0.615619	-0.160428	99
Es	0.981796	0.968670	-1.313993	99
Es	0.438961	0.439501	0.511357	99
Es	1.144903	0.122229	0.430080	99
Es	-0.705431	-1.998590	-0.403353	99
Es	0.369525	-1.314822	0.077513	99
Es	1.574514	0.248109	1.013274	99
Es	1.043315	-1.428570	0.257580	99
Es	-0.509675	-1.485085	0.103781	99
Es	-0.863500	-0.813001	-0.027936	99
Es	0.981684	-0.723088	0.191703	99
Es	0.309928	1.154932	-0.263877	99
Es	-0.148996	0.861095	0.283649	99
Es	0.981650	-1.266603	-0.248576	99
Es	-1.327253	-0.050647	-0.876277	99
Es	-0.351247	1.337116	0.804078	99
37
Properties=species:S:1:pos:R:3:Z:I:1 energy=-268.8960110983073 field_type=dipole dipole="0.000000 0.000000 0.000000" charge=0
C	1.013805	1.181994	-0.618117	6
C	-0.149135	0.861114	0.283733	6
C	-1.177185	-0.132516	-0.147527	6
C	-0.509885	-1.485146	0.103803	6
O	0.909645	-1.253156	0.045793	8
C	1.145015	0.122344	0.430253	6
H	0.979565	0.868484	-1.654837	1
H	1.537215	2.116964	-0.457127	1
H	-0.454285	1.545104	1.059933	1
H	-2.117025	-0.042636	0.405803	1
H	-1.398175	-0.006536	-1.213747	1
H	-0.747595	-1.861466	1.104403	1
H	-0.797415	-2.234726	-0.638437	1
H	1.765455	0.320174	1.296073	1
Es	0.909431	-1.252854	0.045858	99
Es	-0.351019	1.336514	0.803686	99
Es	-0.684058	-1.742685	0.796028	99
Es	0.368634	-1.315512	0.077897	99
Es	-0.509678	-1.485083	0.103785	99
Es	-1.326844	-0.050732	-0.875811	99
Es	1.574649	0.247905	1.012561	99
Es	0.981643	-0.722961	0.189588	99
Es	0.309799	1.155273	-0.264179	99
Es	0.981965	0.968840	-1.313251	99
Es	1.046570	-1.429334	0.256928	99
Es	-0.148987	0.861092	0.283652	99
Es	1.366803	1.813669	-0.501108	99
Es	1.272901	0.615831	-0.161476	99
Es	1.144906	0.122233	0.430077	99
Es	0.437992	0.439414	0.512826	99
Es	-0.863635	-0.812860	-0.028648	99
Es	1.013728	1.181918	-0.617976	99
Es	-1.816115	-0.070234	0.234580	99
Es	-1.177159	-0.132521	-0.147511	99
Es	-0.705122	-1.998032	-0.402915	99
Es	0.979450	-1.265214	-0.246017	99
Es	-0.671035	0.385118	0.053276	99
37
Properties=species:S:1:pos:R:3:Z:I:1 energy=-268.8960110983073 field_type=dipole dipole="0.000000 0.000000 0.000000" charge=0
C	1.013805	1.181994	-0.618117	6
C	-0.149135	0.861114	0.283733	6
C	-1.177185	-0.132516	-0.147527	6
C	-0.509885	-1.485146	0.103803	6
O	0.909645	-1.253156	0.045793	8
C	1.145015	0.122344	0.430253	6
H	0.979565	0.868484	-1.654837	1
H	1.537215	2.116964	-0.457127	1
H	-0.454285	1.545104	1.059933	1
H	-2.117025	-0.042636	0.405803	1
H	-1.398175	-0.006536	-1.213747	1
H	-0.747595	-1.861466	1.104403	1
H	-0.797415	-2.234726	-0.638437	1
H	1.765455	0.320174	1.296073	1
Es	0.977106	-1.262575	-0.246685	99
Es	0.981806	-0.723887	0.190648	99
Es	-0.350801	1.336070	0.803194	99
Es	-0.863735	-0.812787	-0.029235	99
Es	-1.816555	-0.070205	0.234691	99
Es	1.013721	1.181923	-0.617980	99
Es	1.273556	0.615599	-0.161984	99
Es	-0.704825	-1.997437	-0.402475	99
Es	1.144901	0.122238	0.430078	99
Es	0.437492	0.439530	0.513685	99
Es	0.309647	1.155657	-0.264485	99
Es	0.909386	-1.252889	0.045853	99
Es	-1.326614	-0.050771	-0.875399	99
Es	-0.684239	-1.743191	0.796107	99
Es	-0.671316	0.385027	0.053200	99
Es	0.981968	0.968956	-1.312495	99
Es	-1.177159	-0.132521	-0.147511	99
Es	0.368410	-1.315961	0.080014	99
Es	1.049127	-1.430438	0.254440	99
Es	-0.509677	-1.485083	0.103785	99
Es	1.367079	1.813707	-0.501467	99
Es	-0.148986	0.861086	0.283655	99
Es	1.574527	0.247738	1.012213	99
37
Properties=species:S:1:pos:R:3:Z:I:1 energy=-268.8960110983073 field_type=dipole dipole="0.000000 0.000000 0.000000" charge=0
C	1.013805	1.181994	-0.618117	6
C	-0.149135	0.861114	0.283733	6
C	-1.177185	-0.132516	-0.147527	6
C	-0.509885	-1.485146	0.103803	6
O	0.909645	-1.253156	0.045793	8
C	1.145015	0.122344	0.430253	6
H	0.979565	0.868484	-1.654837	1
H	1.537215	2.116964	-0.457127	1
H	-0.454285	1.545104	1.059933	1
H	-2.117025	-0.042636	0.405803	1
H	-1.398175	-0.006536	-1.213747	1
H	-0.747595	-1.861466	1.104403	1
H	-0.797415	-2.234726	-0.638437	1
H	1.765455	0.320174	1.296073	1
Es	-1.816864	-0.070197	0.234778	99
Es	0.978744	-1.265203	-0.245263	99
Es	-0.684393	-1.743593	0.796165	99
Es	-1.326460	-0.050761	-0.875090	99
Es	1.367231	1.813634	-0.501633	99
Es	-0.863829	-0.812731	-0.029709	99
Es	0.909382	-1.252899	0.045936	99
Es	0.437119	0.439513	0.514372	99
Es	0.982154	0.969005	-1.312047	99
Es	1.013724	1.181919	-0.617977	99
Es	-0.350691	1.335695	0.802922	99
Es	-0.509677	-1.485084	0.103785	99
Es	1.144905	0.122237	0.430074	99
Es	1.273859	0.615668	-0.162290	99
Es	1.048279	-1.428344	0.256812	99
Es	1.574439	0.247620	1.011912	99
Es	0.309479	1.156002	-0.264814	99
Es	-0.671375	0.384959	0.053199	99
Es	0.981587	-0.723193	0.187758	99
Es	-0.704645	-1.996909	-0.402118	99
Es	0.368001	-1.316122	0.078931	99
Es	-1.177159	-0.132521	-0.147511	99
Es	-0.148990	0.861088	0.283655	99
37
Properties=species:S:1:pos:R:3:Z:I:1 energy=-268.8960110983073 field_type=dipole dipole="0.000000 0.000000 0.000000" charge=0
C	1.013805	1.181994	-0.618117	6
C	-0.149135	0.861114	0.283733	6
C	-1.177185	-0.132516	-0.147527	6
C	-0.509885	-1.485146	0.103803	6
O	0.909645	-1.253156	0.045793	8
C	1.145015	0.122344	0.430253	6
H	0.979565	0.868484	-1.654837	1
H	1.537215	2.116964	-0.457127	1
H	-0.454285	1.545104	1.059933	1
H	-2.117025	-0.042636	0.405803	1
H	-1.398175	-0.006536	-1.213747	1
H	-0.747595	-1.861466	1.104403	1
H	-0.797415	-2.234726	-0.638437	1
H	1.765455	0.320174	1.296073	1
Es	1.367312	1.813629	-0.501824	99
Es	-0.704504	-1.996616	-0.401930	99
Es	1.050354	-1.427651	0.257116	99
Es	0.309330	1.156072	-0.264903	99
Es	1.013720	1.181916	-0.617976	99
Es	-1.177159	-0.132521	-0.147511	99
Es	0.436736	0.439429	0.514899	99
Es	0.976902	-1.265968	-0.243824	99
Es	1.144903	0.122238	0.430081	99
Es	-0.684575	-1.743772	0.796229	99
Es	-0.863776	-0.812570	-0.030014	99
Es	0.367866	-1.316639	0.080575	99
Es	1.574557	0.247566	1.011612	99
Es	-0.509678	-1.485084	0.103786	99
Es	0.982191	0.969064	-1.311661	99
Es	-1.817220	-0.070279	0.234827	99
Es	0.909380	-1.252915	0.045905	99
Es	-0.350430	1.335438	0.802733	99
Es	1.274088	0.615706	-0.162729	99
Es	-1.326216	-0.050890	-0.874932	99
Es	-0.671605	0.385008	0.053268	99
Es	-0.148988	0.861086	0.283658	99
Es	0.981632	-0.722462	0.184464	99
37
Properties=species:S:1:pos:R:3:Z:I:1 energy=-268.8960110983073 field_type=dipole dipole="0.000000 0.000000 0.000000" charge=0
C	1.013805	1.181994	-0.618117	6
C	-0.149135	0.861114	0.283733	6
C	-1.177185	-0.132516	-0.147527	6
C	-0.509885	-1.485146	0.103803	6
O	0.909645	-1.253156	0.045793	8
C	1.145015	0.122344	0.430253	6
H	0.979565	0.868484	-1.654837	1
H	1.537215	2.116964	-0.457127	1
H	-0.454285	1.545104	1.059933	1
H	-2.117025	-0.042636	0.405803	1
H	-1.398175	-0.006536	-1.213747	1
H	-0.747595	-1.861466	1.104403	1
H	-0.797415	-2.234726	-0.638437	1
H	1.765455	0.320174	1.296073	1
Es	0.909377	-1.252915	0.045903	99
Es	1.274313	0.615657	-0.163023	99
Es	-0.863927	-0.812505	-0.030264	99
Es	1.367648	1.813565	-0.502006	99
Es	1.574443	0.247439	1.011447	99
Es	-0.148991	0.861088	0.283656	99
Es	0.981818	-0.722400	0.183386	99
Es	1.144907	0.122235	0.430073	99
Es	-0.350373	1.335198	0.802614	99
Es	-1.177159	-0.132521	-0.147511	99
Es	-1.326092	-0.050902	-0.874852	99
Es	-0.671518	0.384638	0.053386	99
Es	1.052306	-1.428182	0.256017	99
Es	-0.684659	-1.744011	0.796291	99
Es	-0.704398	-1.996301	-0.401734	99
Es	-1.817406	-0.070192	0.234952	99
Es	0.436746	0.439627	0.515122	99
Es	0.974933	-1.265172	-0.242932	99
Es	1.013729	1.181915	-0.617975	99
Es	0.308995	1.156422	-0.264979	99
Es	0.982105	0.969079	-1.311314	99
Es	0.367698	-1.316896	0.081803	99
Es	-0.509675	-1.485082	0.103784	99
37
Properties=species:S:1:pos:R:3:Z:I:1 energy=-268.8960110983073 field_type=dipole dipole="0.000000 0.000000 0.000000" charge=0
C	1.013805	1.181994	-0.618117	6
C	-0.149135	0.861114	0.283733	6
C	-1.177185	-0.132516	-0.147527	6
C	-0.509885	-1.485146	0.103803	6
O	0.909645	-1.253156	0.045793	8
C	1.145015	0.122344	0.430253	6
H	0.979565	0.868484	-1.654837	1
H	1.537215	2.116964	-0.457127	1
H	-0.454285	1.545104	1.059933	1
H	-2.117025	-0.042636	0.405803	1
H	-1.398175	-0.006536	-1.213747	1
H	-0.747595	-1.861466	1.104403	1
H	-0.797415	-2.234726	-0.638437	1
H	1.765455	0.320174	1.296073	1
Es	-0.148989	0.861090	0.283652	99
Es	-1.177159	-0.132521	-0.147509	99
Es	1.367663	1.813644	-0.502170	99
Es	1.574379	0.247385	1.011286	99
Es	-1.325970	-0.051001	-0.874552	99
Es	0.982307	0.969069	-1.310859	99
Es	0.981028	-0.722627	0.182723	99
Es	-1.817640	-0.070255	0.234871	99
Es	1.144900	0.122234	0.430080	99
Es	-0.350235	1.335010	0.802104	99
Es	-0.509679	-1.485083	0.103785	99
Es	1.013734	1.181911	-0.617975	99
Es	1.274556	0.615634	-0.163188	99
Es	0.436494	0.439620	0.515834	99
Es	0.367563	-1.316841	0.080723	99
Es	0.909399	-1.252874	0.045878	99
Es	-0.863957	-0.812461	-0.030582	99
Es	-0.684774	-1.744261	0.796268	99
Es	-0.704202	-1.996002	-0.401454	99
Es	-0.671765	0.384859	0.053315	99
Es	0.977473	-1.266962	-0.243431	99
Es	1.050672	-1.426259	0.258353	99
Es	0.309019	1.156476	-0.265304	99
37
Properties=species:S:1:pos:R:3:Z:I:1 energy=-268.8960110983073 field_type=dipole dipole="0.000000 0.000000 0.000000" charge=0
C	1.013805	1.181994	-0.618117	6
C	-0.149135	0.861114	0.283733	6
C	-1.177185	-0.132516	-0.147527	6
C	-0.509885	-1.485146	0.103803	6
O	0.909645	-1.253156	0.045793	8
C	1.145015	0.122344	0.430253	6
H	0.979565	0.868484	-1.654837	1
H	1.537215	2.116964	-0.457127	1
H	-0.454285	1.545104	1.059933	1
H	-2.117025	-0.042636	0.405803	1
H	-1.398175	-0.006536	-1.213747	1
H	-0.747595	-1.861466	1.104403	1
H	-0.797415	-2.234726	-0.638437	1
H	1.765455	0.320174	1.296073	1
Es	1.574357	0.247343	1.011231	99
Es	-0.704021	-1.995545	-0.401290	99
Es	1.144906	0.122236	0.430075	99
Es	0.982189	0.969072	-1.310653	99
Es	-0.509680	-1.485084	0.103786	99
Es	-1.177161	-0.132520	-0.147515	99
Es	0.981801	-0.721952	0.181249	99
Es	1.274855	0.615595	-0.163374	99
Es	-1.817776	-0.070260	0.234930	99
Es	-0.671886	0.384762	0.053321	99
Es	1.049947	-1.425492	0.258862	99
Es	1.013729	1.181915	-0.617976	99
Es	-0.684910	-1.744667	0.796301	99
Es	0.977758	-1.268612	-0.242317	99
Es	-0.350149	1.334793	0.802095	99
Es	0.909346	-1.252842	0.045793	99
Es	-1.325849	-0.050939	-0.874513	99
Es	0.367362	-1.316585	0.080632	99
Es	1.367743	1.813615	-0.502379	99
Es	0.436281	0.439645	0.515858	99
Es	-0.148995	0.861088	0.283660	99
Es	0.308948	1.156644	-0.265159	99
Es	-0.863977	-0.812424	-0.030771	99
37
Properties=species:S:1:pos:R:3:Z:I:1 energy=-268.8960110983073 field_type=dipole dipole="0.000000 0.000000 0.000000" charge=0
C	1.013805	1.181994	-0.618117	6
C	-0.149135	0.861114	0.283733	6
C	-1.177185	-0.132516	-0.147527	6
C	-0.509885	-1.485146	0.103803	6
O	0.909645	-1.253156	0.045793	8
C	1.145015	0.122344	0.430253	6
H	0.979565	0.868484	-1.654837	1
H	1.537215	2.116964	-0.457127	1
H	-0.454285	1.545104	1.059933	1
H	-2.117025	-0.042636	0.405803	1
H	-1.398175	-0.006536	-1.213747	1
H	-0.747595	-1.861466	1.104403	1
H	-0.797415	-2.234726	-0.638437	1
H	1.765455	0.320174	1.296073	1
Es	-1.177159	-0.132521	-0.147511	99
Es	-0.703963	-1.995500	-0.401161	99
Es	1.055304	-1.430077	0.253716	99
Es	1.013724	1.181921	-0.617978	99
Es	1.367811	1.813673	-0.502386	99
Es	1.574190	0.247255	1.011150	99
Es	-1.325800	-0.051001	-0.874499	99
Es	-0.350050	1.334593	0.802100	99
Es	1.144905	0.122237	0.430074	99
Es	-0.671873	0.384712	0.053368	99
Es	0.309104	1.156534	-0.265207	99
Es	-1.817862	-0.070259	0.234980	99
Es	0.982053	-0.723064	0.183767	99
Es	0.909404	-1.252962	0.045874	99
Es	-0.864030	-0.812355	-0.030982	99
Es	-0.684979	-1.744634	0.796404	99
Es	0.367453	-1.316958	0.083265	99
Es	1.275138	0.615803	-0.163766	99
Es	0.982299	0.969066	-1.310483	99
Es	0.971935	-1.262371	-0.242373	99
Es	-0.148992	0.861087	0.283656	99
Es	-0.509674	-1.485083	0.103784	99
Es	0.435880	0.439689	0.516054	99
37
Properties=species:S:1:pos:R:3:Z:I:1 energy=-268.8960110983073 field_type=dipole dipole="0.000000 0.000000 0.000000" charge=0
C	1.013805	1.181994	-0.618117	6
C	-0.149135	0.861114	0.283733	6
C	-1.177185	-0.132516	-0.147527	6
C	-0.509885	-1.485146	0.103803	6
O	0.909645	-1.253156	0.045793	8
C	1.145015	0.122344	0.430253	6
H	0.979565	0.868484	-1.654837	1
H	1.537215	2.116964	-0.457127	1
H	-0.454285	1.545104	1.059933	1
H	-2.117025	-0.042636	0.405803	1
H	-1.398175	-0.006536	-1.213747	1
H	-0.747595	-1.861466	1.104403	1
H	-0.797415	-2.234726	-0.638437	1
H	1.765455	0.320174	1.296073	1
Es	0.308869	1.156737	-0.265441	99
Es	0.981560	-0.722552	0.182072	99
Es	-0.148987	0.861086	0.283653	99
Es	1.574255	0.247218	1.011029	99
Es	0.367189	-1.317092	0.081769	99
Es	-0.685002	-1.744812	0.796377	99
Es	-1.325744	-0.051015	-0.874386	99
Es	1.053292	-1.427620	0.256341	99
Es	-1.177158	-0.132521	-0.147511	99
Es	-0.671865	0.384523	0.053509	99
Es	1.144910	0.122235	0.430071	99
Es	-0.350083	1.334530	0.801810	99
Es	-0.703920	-1.995279	-0.401020	99
Es	0.974733	-1.265196	-0.241902	99
Es	0.909400	-1.252933	0.045930	99
Es	1.367848	1.813657	-0.502679	99
Es	-0.864033	-0.812313	-0.031083	99
Es	0.435923	0.439887	0.516401	99
Es	1.275254	0.615739	-0.163753	99
Es	0.982312	0.968988	-1.310152	99
Es	-1.817980	-0.070320	0.235004	99
Es	1.013724	1.181921	-0.617977	99
Es	-0.509675	-1.485084	0.103783	99
37
Properties=species:S:1:pos:R:3:Z:I:1 energy=-268.8960110983073 field_type=dipole dipole="0.000000 0.000000 0.000000" charge=0
C	1.013805	1.181994	-0.618117	6
C	-0.149135	0.861114	0.283733	6
C	-1.177185	-0.132516	-0.147527	6
C	-0.509885	-1.485146	0.103803	6
O	0.909645	-1.253156	0.045793	8
C	1.145015	0.122344	0.430253	6
H	0.979565	0.868484	-1.654837	1
H	1.537215	2.116964	-0.457127	1
H	-0.454285	1.545104	1.059933	1
H	-2.117025	-0.042636	0.405803	1
H	-1.398175	-0.006536	-1.213747	1
H	-0.747595	-1.861466	1.104403	1
H	-0.797415	-2.234726	-0.638437	1
H	1.765455	0.320174	1.296073	1
Es	-1.818117	-0.070312	0.235038	99
Es	0.435752	0.439603	0.516556	99
Es	-0.685056	-1.744836	0.796337	99
Es	1.144907	0.122233	0.430074	99
Es	-0.148991	0.861085	0.283660	99
Es	-0.703913	-1.995202	-0.400949	99
Es	-1.325610	-0.050924	-0.874351	99
Es	1.275239	0.615713	-0.163924	99
Es	-1.177158	-0.132521	-0.147511	99
Es	0.973547	-1.266016	-0.241242	99
Es	0.981669	-0.721936	0.179935	99
Es	0.367348	-1.317571	0.083299	99
Es	1.013733	1.181916	-0.617977	99
Es	1.367942	1.813568	-0.502578	99
Es	0.909396	-1.252927	0.045908	99
Es	1.054334	-1.426881	0.256343	99
Es	0.982311	0.969092	-1.310168	99
Es	0.308932	1.156866	-0.265438	99
Es	1.574218	0.247190	1.010954	99
Es	-0.349857	1.334383	0.801801	99
Es	-0.864114	-0.812254	-0.031249	99
Es	-0.509673	-1.485085	0.103777	99
Es	-0.672021	0.384599	0.053550	99
37
Properties=species:S:1:pos:R:3:Z:I:1 energy=-268.8960110983073 field_type=dipole dipole="0.000000 0.000000 0.000000" charge=0
C	1.013805	1.181994	-0.618117	6
C	-0.149135	0.861114	0.283733	6
C	-1.177185	-0.132516	-0.147527	6
C	-0.509885	-1.485146	0.103803	6
O	0.909645	-1.253156	0.045793	8
C	1.145015	0.122344	0.430253	6
H	0.979565	0.868484	-1.654837	1
H	1.537215	2.116964	-0.457127	1
H	-0.454285	1.545104	1.059933	1
H	-2.117025	-0.042636	0.405803	1
H	-1.398175	-0.006536	-1.213747	1
H	-0.747595	-1.861466	1.104403	1
H	-0.797415	-2.234726	-0.638437	1
H	1.765455	0.320174	1.296073	1
Es	1.053333	-1.426461	0.256624	99
Es	0.982072	-0.721961	0.179947	99
Es	-1.325584	-0.051012	-0.874245	99
Es	0.982259	0.969139	-1.309941	99
Es	1.275420	0.615734	-0.164091	99
Es	-0.509677	-1.485083	0.103786	99
Es	-0.864091	-0.812281	-0.031449	99
Es	0.308860	1.156909	-0.265389	99
Es	-1.177159	-0.132521	-0.147511	99
Es	1.574184	0.247167	1.010933	99
Es	-1.818197	-0.070254	0.235069	99
Es	-0.685137	-1.744956	0.796419	99
Es	0.435752	0.439566	0.516730	99
Es	-0.349848	1.334249	0.801681	99
Es	0.974431	-1.266779	-0.241161	99
Es	1.144910	0.122242	0.430068	99
Es	1.013726	1.181920	-0.617977	99
Es	-0.703760	-1.995028	-0.400755	99
Es	1.367946	1.813613	-0.502714	99
Es	-0.672096	0.384609	0.053374	99
Es	-0.148990	0.861089	0.283651	99
Es	0.367100	-1.317213	0.082770	99
Es	0.909366	-1.252905	0.046026	99
37
Properties=species:S:1:pos:R:3:Z:I:1 energy=-268.8960110983073 field_type=dipole dipole="0.000000 0.000000 0.000000" charge=0
C	1.013805	1.181994	-0.618117	6
C	-0.149135	0.861114	0.283733	6
C	-1.177185	-0.132516	-0.147527	6
C	-0.509885	-1.485146	0.103803	6
O	0.909645	-1.253156	0.045793	8
C	1.145015	0.122344	0.430253	6
H	0.979565	0.868484	-1.654837	1
H	1.537215	2.116964	-0.457127	1
H	-0.454285	1.545104	1.059933	1
H	-2.117025	-0.042636	0.405803	1
H	-1.398175	-0.006536	-1.213747	1
H	-0.747595	-1.861466	1.104403	1
H	-0.797415	-2.234726	-0.638437	1
H	1.765455	0.320174	1.296073	1
Es	1.013728	1.181924	-0.617980	99
Es	-1.818367	-0.070297	0.235063	99
Es	-1.177159	-0.132521	-0.147511	99
Es	-0.685211	-1.745143	0.796402	99
Es	-0.864218	-0.812185	-0.031630	99
Es	-0.148994	0.861088	0.283656	99
Es	0.909364	-1.252926	0.045944	99
Es	0.981678	-0.722538	0.180995	99
Es	1.144906	0.122236	0.430074	99
Es	1.054084	-1.427590	0.256337	99
Es	1.368016	1.813693	-0.502840	99
Es	0.973961	-1.265271	-0.241416	99
Es	0.435543	0.439798	0.516831	99
Es	-1.325467	-0.051085	-0.874150	99
Es	1.574140	0.247126	1.010799	99
Es	0.367174	-1.317060	0.082351	99
Es	1.275621	0.615722	-0.164193	99
Es	-0.672073	0.384592	0.053543	99
Es	0.982231	0.969107	-1.309723	99
Es	-0.349718	1.334130	0.801609	99
Es	-0.703650	-1.994800	-0.400590	99
Es	-0.509673	-1.485082	0.103786	99
Es	0.308904	1.156867	-0.265508	99
37
Properties=species:S:1:pos:R:3:Z:I:1 energy=-268.8960110983073 field_type=dipole dipole="0.000000 0.000000 0.000000" charge=0
C	1.013805	1.181994	-0.618117	6
C	-0.149135	0.861114	0.283733	6
C	-1.177185	-0.132516	-0.147527	6
C	-0.509885	-1.485146	0.103803	6
O	0.909645	-1.253156	0.045793	8
C	1.145015	0.122344	0.430253	6
H	0.979565	0.868484	-1.654837	1
H	1.537215	2.116964	-0.457127	1
H	-0.454285	1.545104	1.059933	1
H	-2.117025	-0.042636	0.405803	1
H	-1.398175	-0.006536	-1.213747	1
H	-0.747595	-1.861466	1.104403	1
H	-0.797415	-2.234726	-0.638437	1
H	1.765455	0.320174	1.296073	1
Es	-0.703628	-1.994733	-0.400575	99
Es	-1.325507	-0.051106	-0.874086	99
Es	0.367094	-1.317550	0.083251	99
Es	-0.349744	1.334081	0.801477	99
Es	1.054552	-1.426587	0.256493	99
Es	1.275792	0.615707	-0.164252	99
Es	-0.509673	-1.485085	0.103782	99
Es	-0.148989	0.861092	0.283652	99
Es	0.909374	-1.252886	0.045913	99
Es	0.308820	1.156884	-0.265502	99
Es	1.367973	1.813671	-0.502872	99
Es	0.973759	-1.265999	-0.241141	99
Es	1.013726	1.181921	-0.617978	99
Es	1.144900	0.122244	0.430073	99
Es	0.982272	0.969135	-1.309662	99
Es	-1.818347	-0.070329	0.235030	99
Es	1.574129	0.247092	1.010790	99
Es	0.981502	-0.722252	0.179691	99
Es	-0.672061	0.384625	0.053530	99
Es	-0.864224	-0.812196	-0.031659	99
Es	-0.685217	-1.745210	0.796419	99
Es	-1.177159	-0.132521	-0.147511	99
Es	0.435475	0.439786	0.516983	99
37
Properties=species:S:1:pos:R:3:Z:I:1 energy=-268.8960110983073 field_type=dipole dipole="0.000000 0.000000 0.000000" charge=0
C	1.013805	1.181994	-0.618117	6
C	-0.149135	0.861114	0.283733	6
C	-1.177185	-0.132516	-0.147527	6
C	-0.509885	-1.485146	0.103803	6
O	0.909645	-1.253156	0.045793	8
C	1.145015	0.122344	0.430253	6
H	0.979565	0.868484	-1.654837	1
H	1.537215	2.116964	-0.457127	1
H	-0.454285	1.545104	1.059933	1
H	-2.117025	-0.042636	0.405803	1
H	-1.398175	-0.006536	-1.213747	1
H	-0.747595	-1.861466	1.104403	1
H	-0.797415	-2.234726	-0.638437	1
H	1.765455	0.320174	1.296073	1
Es	1.054445	-1.426395	0.257082	99
Es	0.308863	1.156999	-0.265508	99
Es	0.366900	-1.317337	0.082455	99
Es	0.982275	0.969062	-1.309501	99
Es	-0.703583	-1.994619	-0.400500	99
Es	1.574087	0.247078	1.010710	99
Es	0.909340	-1.252944	0.046125	99
Es	-1.325510	-0.051084	-0.874000	99
Es	0.974351	-1.266116	-0.240859	99
Es	-1.818395	-0.070336	0.235097	99
Es	1.013727	1.181922	-0.617980	99
Es	1.275723	0.615804	-0.164364	99
Es	0.435380	0.439774	0.517103	99
Es	1.368109	1.813698	-0.502972	99
Es	0.981268	-0.722484	0.179374	99
Es	-0.148990	0.861089	0.283655	99
Es	-0.349695	1.333960	0.801481	99
Es	-0.509674	-1.485083	0.103786	99
Es	-0.864155	-0.812229	-0.031790	99
Es	-1.177157	-0.132520	-0.147511	99
Es	-0.685257	-1.745288	0.796454	99
Es	-0.672141	0.384600	0.053441	99
Es	1.144909	0.122234	0.430072	99
37
Properties=species:S:1:pos:R:3:Z:I:1 energy=-268.8960110983073 field_type=dipole dipole="0.000000 0.000000 0.000000" charge=0
C	1.013805	1.181994	-0.618117	6
C	-0.149135	0.861114	0.283733	6
C	-1.177185	-0.132516	-0.147527	6
C	-0.509885	-1.485146	0.103803	6
O	0.909645	-1.253156	0.045793	8
C	1.145015	0.122344	0.430253	6
H	0.979565	0.868484	-1.654837	1
H	1.537215	2.116964	-0.457127	1
H	-0.454285	1.545104	1.059933	1
H	-2.117025	-0.042636	0.405803	1
H	-1.398175	-0.006536	-1.213747	1
H	-0.747595	-1.861466	1.104403	1
H	-0.797415	-2.234726	-0.638437	1
H	1.765455	0.320174	1.296073	1
Es	1.368053	1.813762	-0.502980	99
Es	-1.177159	-0.132521	-0.147511	99
Es	1.144906	0.122237	0.430074	99
Es	1.055116	-1.427150	0.255709	99
Es	-1.818493	-0.070262	0.235015	99
Es	-0.864303	-0.812203	-0.031873	99
Es	1.574183	0.247090	1.010589	99
Es	0.973211	-1.264932	-0.241452	99
Es	-0.685335	-1.745467	0.796366	99
Es	-0.349591	1.333933	0.801300	99
Es	-1.325396	-0.051128	-0.873950	99
Es	1.013725	1.181917	-0.617975	99
Es	-0.148991	0.861090	0.283654	99
Es	0.435316	0.439755	0.517394	99
Es	0.309011	1.156888	-0.265511	99
Es	0.982221	0.969085	-1.309513	99
Es	1.275705	0.615802	-0.164475	99
Es	-0.703444	-1.994423	-0.400328	99
Es	0.909400	-1.252910	0.045884	99
Es	-0.509677	-1.485084	0.103784	99
Es	0.981571	-0.722713	0.180537	99
Es	-0.672262	0.384585	0.053498	99
Es	0.367051	-1.317564	0.083611	99
37
Properties=species:S:1:pos:R:3:Z:I:1 energy=-268.8960110983073 field_type=dipole dipole="0.000000 0.000000 0.000000" charge=0
C	1.013805	1.181994	-0.618117	6
C	-0.149135	0.861114	0.283733	6
C	-1.177185	-0.132516	-0.147527	6
C	-0.509885	-1.485146	0.103803	6
O	0.909645	-1.253156	0.045793	8
C	1.145015	0.122344	0.430253	6
H	0.979565	0.868484	-1.654837	1
H	1.537215	2.116964	-0.457127	1
H	-0.454285	1.545104	1.059933	1
H	-2.117025	-0.042636	0.405803	1
H	-1.398175	-0.006536	-1.213747	1
H	-0.747595	-1.861466	1.104403	1
H	-0.797415	-2.234726	-0.638437	1
H	1.765455	0.320174	1.296073	1
Es	0.981718	-0.722265	0.179123	99
Es	1.574090	0.247080	1.010558	99
Es	1.368133	1.813578	-0.502954	99
Es	1.275750	0.615904	-0.164579	99
Es	0.972173	-1.265086	-0.240177	99
Es	-1.325302	-0.051148	-0.873947	99
Es	0.308912	1.157057	-0.265447	99
Es	1.144907	0.122237	0.430072	99
Es	1.013720	1.181921	-0.617976	99
Es	-0.148982	0.861084	0.283657	99
Es	0.435257	0.439641	0.517314	99
Es	1.056094	-1.427431	0.255661	99
Es	-0.349532	1.333873	0.801451	99
Es	0.982262	0.969101	-1.309567	99
Es	-0.672219	0.384607	0.053565	99
Es	0.909380	-1.252869	0.045817	99
Es	-1.177159	-0.132523	-0.147511	99
Es	0.367020	-1.317571	0.083807	99
Es	-0.685379	-1.745450	0.796466	99
Es	-0.703496	-1.994380	-0.400398	99
Es	-0.864241	-0.812140	-0.031916	99
Es	-1.818609	-0.070353	0.235041	99
Es	-0.509676	-1.485083	0.103785	99
37
Properties=species:S:1:pos:R:3:Z:I:1 energy=-268.8960110983073 field_type=dipole dipole="0.000000 0.000000 0.000000" charge=0
C	1.013805	1.181994	-0.618117	6
C	-0.149135	0.861114	0.283733	6
C	-1.177185	-0.132516	-0.147527	6
C	-0.509885	-1.485146	0.103803	6
O	0.909645	-1.253156	0.045793	8
C	1.145015	0.122344	0.430253	6
H	0.979565	0.868484	-1.654837	1
H	1.537215	2.116964	-0.457127	1
H	-0.454285	1.545104	1.059933	1
H	-2.117025	-0.042636	0.405803	1
H	-1.398175	-0.006536	-1.213747	1
H	-0.747595	-1.861466	1.104403	1
H	-0.797415	-2.234726	-0.638437	1
H	1.765455	0.320174	1.296073	1
Es	1.055420	-1.426675	0.256361	99
Es	-0.864183	-0.812166	-0.031989	99
Es	0.366957	-1.317742	0.083264	99
Es	-0.148992	0.861091	0.283652	99
Es	-1.818579	-0.070379	0.235103	99
Es	0.981460	-0.722201	0.178987	99
Es	1.144903	0.122225	0.430079	99
Es	-0.509675	-1.485082	0.103784	99
Es	0.435253	0.439723	0.517401	99
Es	-0.349566	1.333731	0.801370	99
Es	-0.703461	-1.994274	-0.400320	99
Es	0.308825	1.157243	-0.265487	99
Es	0.909391	-1.252934	0.045888	99
Es	1.574111	0.247032	1.010543	99
Es	-0.685389	-1.745546	0.796450	99
Es	-0.672286	0.384514	0.053554	99
Es	-1.177159	-0.132521	-0.147511	99
Es	0.982229	0.969037	-1.309306	99
Es	0.973148	-1.265653	-0.240301	99
Es	1.368273	1.813625	-0.503134	99
Es	1.013721	1.181921	-0.617976	99
Es	1.275752	0.615861	-0.164606	99
Es	-1.325335	-0.051045	-0.873960	99
37
Properties=species:S:1:pos:R:3:Z:I:1 energy=-268.8960110983073 field_type=dipole dipole="0.000000 0.000000 0.000000" charge=0
C	1.013805	1.181994	-0.618117	6
C	-0.149135	0.861114	0.283733	6
C	-1.177185	-0.132516	-0.147527	6
C	-0.509885	-1.485146	0.103803	6
O	0.909645	-1.253156	0.045793	8
C	1.145015	0.122344	0.430253	6
H	0.979565	0.868484	-1.654837	1
H	1.537215	2.116964	-0.457127	1
H	-0.454285	1.545104	1.059933	1
H	-2.117025	-0.042636	0.405803	1
H	-1.398175	-0.006536	-1.213747	1
H	-0.747595	-1.861466	1.104403	1
H	-0.797415	-2.234726	-0.638437	1
H	1.765455	0.320174	1.296073	1
Es	-0.685398	-1.745538	0.796463	99
Es	1.056802	-1.427468	0.255101	99
Es	-1.325342	-0.051103	-0.873914	99
Es	1.144908	0.122237	0.430073	99
Es	0.308836	1.157164	-0.265558	99
Es	-0.672265	0.384489	0.053621	99
Es	-1.177159	-0.132521	-0.147511	99
Es	0.435066	0.439843	0.517273	99
Es	-0.509677	-1.485083	0.103786	99
Es	-1.818619	-0.070380	0.235137	99
Es	-0.864217	-0.812104	-0.032032	99
Es	0.971287	-1.264953	-0.239778	99
Es	1.368075	1.813520	-0.503023	99
Es	1.276125	0.615842	-0.164550	99
Es	0.981760	-0.721879	0.178527	99
Es	-0.703468	-1.994259	-0.400312	99
Es	0.909395	-1.252908	0.045924	99
Es	-0.148988	0.861090	0.283651	99
Es	1.013725	1.181919	-0.617981	99
Es	0.367101	-1.317925	0.084450	99
Es	0.982367	0.969083	-1.309475	99
Es	-0.349478	1.333730	0.801338	99
Es	1.573983	0.246990	1.010638	99
37
Properties=species:S:1:pos:R:3:Z:I:1 energy=-268.8960110983073 field_type=dipole dipole="0.000000 0.000000 0.000000" charge=0
C	1.013805	1.181994	-0.618117	6
C	-0.149135	0.861114	0.283733	6
C	-1.177185	-0.132516	-0.147527	6
C	-0.509885	-1.485146	0.103803	6
O	0.909645	-1.253156	0.045793	8
C	1.145015	0.122344	0.430253	6
H	0.979565	0.868484	-1.654837	1
H	1.537215	2.116964	-0.457127	1
H	-0.454285	1.545104	1.059933	1
H	-2.117025	-0.042636	0.405803	1
H	-1.398175	-0.006536	-1.213747	1
H	-0.747595	-1.861466	1.104403	1
H	-0.797415	-2.234726	-0.638437	1
H	1.765455	0.320174	1.296073	1
Es	-0.509687	-1.485086	0.103785	99
Es	-0.349491	1.333786	0.801269	99
Es	0.434920	0.439658	0.517634	99
Es	-0.864194	-0.812026	-0.032080	99
Es	1.057603	-1.428207	0.254655	99
Es	0.367080	-1.317765	0.084494	99
Es	-1.177159	-0.132521	-0.147511	99
Es	1.574000	0.246966	1.010509	99
Es	-0.685442	-1.745565	0.796467	99
Es	1.275955	0.616056	-0.164807	99
Es	-1.818699	-0.070398	0.235182	99
Es	0.309035	1.156911	-0.265495	99
Es	0.970536	-1.264141	-0.239476	99
Es	1.013727	1.181920	-0.617978	99
Es	-0.672311	0.384514	0.053552	99
Es	0.981810	-0.722039	0.178541	99
Es	-0.148990	0.861090	0.283651	99
Es	-0.703429	-1.994203	-0.400275	99
Es	1.368177	1.813594	-0.502941	99
Es	1.144904	0.122240	0.430073	99
Es	-1.325263	-0.051131	-0.873934	99
Es	0.982375	0.969084	-1.309467	99
Es	0.909362	-1.252953	0.045998	99
37
Properties=species:S:1:pos:R:3:Z:I:1 energy=-268.8960110983073 field_type=dipole dipole="0.000000 0.000000 0.000000" charge=0
C	1.013805	1.181994	-0.618117	6
C	-0.149135	0.861114	0.283733	6
C	-1.177185	-0.132516	-0.147527	6
C	-0.509885	-1.485146	0.103803	6
O	0.909645	-1.253156	0.045793	8
C	1.145015	0.122344	0.430253	6
H	0.979565	0.868484	-1.654837	1
H	1.537215	2.116964	-0.457127	1
H	-0.454285	1.545104	1.059933	1
H	-2.117025	-0.042636	0.405803	1
H	-1.398175	-0.006536	-1.213747	1
H	-0.747595	-1.861466	1.104403	1
H	-0.797415	-2.234726	-0.638437	1
H	1.765455	0.320174	1.296073	1
Es	0.982274	0.969078	-1.309014	99
Es	1.144906	0.122234	0.430075	99
Es	0.366785	-1.317741	0.083207	99
Es	-0.349442	1.333572	0.801182	99
Es	-0.509674	-1.485082	0.103786	99
Es	0.973074	-1.264699	-0.240635	99
Es	0.435182	0.439772	0.517621	99
Es	1.055862	-1.427054	0.255631	99
Es	1.276081	0.615870	-0.164858	99
Es	1.368237	1.813799	-0.503210	99
Es	-0.672319	0.384570	0.053573	99
Es	0.981246	-0.722735	0.179867	99
Es	-1.325347	-0.051115	-0.873769	99
Es	-0.703288	-1.994051	-0.400047	99
Es	-0.148986	0.861094	0.283648	99