36
Properties=species:S:1:pos:R:3:Z:I:1 energy=-231.86440576467606 field_type=dipole dipole="0.000000 0.000000 0.000000" charge=0
C	-1.700639	-1.184447	-0.001104	6
C	-0.217019	-1.001627	-0.001824	6
C	0.429411	0.179623	-0.000824	6
C	-0.265399	1.515473	0.002146	6
C	1.835411	0.179623	-0.000824	6
C	3.025571	0.179623	-0.000824	6
H	-1.943189	-2.251137	-0.012414	1
H	-2.153399	-0.733317	-0.889924	1
H	-2.149079	-0.752847	0.900076	1
H	0.363241	-1.922787	-0.002854	1
H	-1.355509	1.432843	-0.000744	1
H	0.022171	2.093613	-0.882734	1
H	0.017931	2.087143	0.892686	1
H	4.090501	0.178223	-0.000834	1
Es	-0.265372	1.515415	0.002146	99
Es	-0.069879	1.891448	0.602289	99
Es	2.440687	0.536056	0.051601	99
Es	-0.960459	-1.083585	-0.001629	99
Es	-1.700592	-1.184440	-0.001104	99
Es	0.142373	-0.391232	0.323046	99
Es	-1.861410	-1.909143	-0.008736	99
Es	0.172423	-1.627425	-0.002496	99
Es	-0.217096	-1.001697	-0.001818	99
Es	0.429537	0.179751	-0.000831	99
Es	1.835172	0.179615	-0.000828	99
Es	2.431564	-0.045267	0.274317	99
Es	0.089076	0.839380	0.000530	99
Es	-1.002792	1.447219	0.000208	99
Es	-1.997112	-0.872972	-0.598371	99
Es	3.721962	0.178616	-0.000832	99
Es	0.142201	-0.390543	-0.325969	99
Es	3.025836	0.179624	-0.000824	99
Es	2.428239	0.045358	-0.328502	99
Es	-0.067005	1.896026	-0.594297	99
Es	1.155472	0.189954	-0.000755	99
Es	-1.993942	-0.886277	0.604477	99
36
Properties=species:S:1:pos:R:3:Z:I:1 energy=-231.86440576467606 field_type=dipole dipole="0.000000 0.000000 0.000000" charge=0
C	-1.700639	-1.184447	-0.001104	6
C	-0.217019	-1.001627	-0.001824	6
C	0.429411	0.179623	-0.000824	6
C	-0.265399	1.515473	0.002146	6
C	1.835411	0.179623	-0.000824	6
C	3.025571	0.179623	-0.000824	6
H	-1.943189	-2.251137	-0.012414	1
H	-2.153399	-0.733317	-0.889924	1
H	-2.149079	-0.752847	0.900076	1
H	0.363241	-1.922787	-0.002854	1
H	-1.355509	1.432843	-0.000744	1
H	0.022171	2.093613	-0.882734	1
H	0.017931	2.087143	0.892686	1
H	4.090501	0.178223	-0.000834	1
Es	-0.958397	-1.081414	-0.001511	99
Es	-1.008458	1.446955	0.000278	99
Es	-0.265373	1.515416	0.002146	99
Es	0.090760	0.839359	0.000318	99
Es	0.429538	0.179750	-0.000822	99
Es	2.433004	-0.056155	0.256881	99
Es	0.141956	-0.390075	-0.321916	99
Es	1.157953	0.185454	-0.000957	99
Es	2.428292	0.054955	-0.316936	99
Es	-0.067851	1.889973	0.598839	99
Es	-1.997471	-0.873937	-0.592597	99
Es	-1.994278	-0.887384	0.598887	99
Es	0.141413	-0.391032	0.318988	99
Es	-0.065038	1.894847	-0.590786	99
Es	-1.865741	-1.909952	-0.008930	99
Es	2.438869	0.537204	0.057998	99
Es	1.835160	0.179623	-0.000814	99
Es	3.025845	0.179621	-0.000825	99
Es	0.172663	-1.624803	-0.002494	99
Es	-0.217104	-1.001702	-0.001834	99
Es	-1.700591	-1.184440	-0.001104	99
Es	3.723734	0.183619	-0.001185	99
36
Properties=species:S:1:pos:R:3:Z:I:1 energy=-231.86440576467606 field_type=dipole dipole="0.000000 0.000000 0.000000" charge=0
C	-1.700639	-1.184447	-0.001104	6
C	-0.217019	-1.001627	-0.001824	6
C	0.429411	0.179623	-0.000824	6
C	-0.265399	1.515473	0.002146	6
C	1.835411	0.179623	-0.000824	6
C	3.025571	0.179623	-0.000824	6
H	-1.943189	-2.251137	-0.012414	1
H	-2.153399	-0.733317	-0.889924	1
H	-2.149079	-0.752847	0.900076	1
H	0.363241	-1.922787	-0.002854	1
H	-1.355509	1.432843	-0.000744	1
H	0.022171	2.093613	-0.882734	1
H	0.017931	2.087143	0.892686	1
H	4.090501	0.178223	-0.000834	1
Es	0.429536	0.179753	-0.000808	99
Es	-1.011022	1.446915	0.000199	99
Es	1.835153	0.179614	-0.000823	99
Es	-0.957623	-1.079817	-0.001587	99
Es	-0.217105	-1.001705	-0.001821	99
Es	0.172406	-1.622900	-0.002530	99
Es	0.091885	0.839077	0.000707	99
Es	3.025851	0.179628	-0.000821	99
Es	0.141884	-0.389855	-0.320233	99
Es	0.141027	-0.390901	0.316939	99
Es	-0.063982	1.893965	-0.588454	99
Es	2.430556	0.000298	-0.284280	99
Es	2.438563	0.544193	0.001372	99
Es	3.724238	0.186100	-0.000807	99
Es	2.430877	-0.008325	0.280374	99
Es	-0.265370	1.515413	0.002148	99
Es	-1.996603	-0.874927	-0.588048	99
Es	-0.067144	1.888948	0.596390	99
Es	1.159242	0.183395	-0.000599	99
Es	-1.700595	-1.184438	-0.001104	99
Es	-1.993554	-0.887855	0.594089	99
Es	-1.869337	-1.910691	-0.008676	99
36
Properties=species:S:1:pos:R:3:Z:I:1 energy=-231.86440576467606 field_type=dipole dipole="0.000000 0.000000 0.000000" charge=0
C	-1.700639	-1.184447	-0.001104	6
C	-0.217019	-1.001627	-0.001824	6
C	0.429411	0.179623	-0.000824	6
C	-0.265399	1.515473	0.002146	6
C	1.835411	0.179623	-0.000824	6
C	3.025571	0.179623	-0.000824	6
H	-1.943189	-2.251137	-0.012414	1
H	-2.153399	-0.733317	-0.889924	1
H	-2.149079	-0.752847	0.900076	1
H	0.363241	-1.922787	-0.002854	1
H	-1.355509	1.432843	-0.000744	1
H	0.022171	2.093613	-0.882734	1
H	0.017931	2.087143	0.892686	1
H	4.090501	0.178223	-0.000834	1
Es	-0.957215	-1.079634	-0.001346	99
Es	-0.066728	1.887910	0.595202	99
Es	3.724285	0.188445	-0.000153	99
Es	0.141205	-0.390604	0.317269	99
Es	0.092927	0.838862	0.000525	99
Es	-1.700594	-1.184440	-0.001102	99
Es	0.141524	-0.390109	-0.320356	99
Es	0.429541	0.179756	-0.000814	99
Es	-0.063004	1.893555	-0.587587	99
Es	-1.992393	-0.888701	0.590761	99
Es	1.159969	0.183311	-0.000661	99
Es	3.025852	0.179634	-0.000821	99
Es	0.171181	-1.620792	-0.002112	99
Es	-1.871659	-1.910284	-0.007886	99
Es	-0.217107	-1.001704	-0.001821	99
Es	-0.265374	1.515415	0.002146	99
Es	2.436895	-0.136784	-0.172494	99
Es	-1.996538	-0.875252	-0.585805	99
Es	-1.012227	1.446006	0.000251	99
Es	2.425830	0.148641	0.286286	99
Es	2.437362	0.523045	-0.117038	99
Es	1.835150	0.179607	-0.000816	99
36
Properties=species:S:1:pos:R:3:Z:I:1 energy=-231.86440576467606 field_type=dipole dipole="0.000000 0.000000 0.000000" charge=0
C	-1.700639	-1.184447	-0.001104	6
C	-0.217019	-1.001627	-0.001824	6
C	0.429411	0.179623	-0.000824	6
C	-0.265399	1.515473	0.002146	6
C	1.835411	0.179623	-0.000824	6
C	3.025571	0.179623	-0.000824	6
H	-1.943189	-2.251137	-0.012414	1
H	-2.153399	-0.733317	-0.889924	1
H	-2.149079	-0.752847	0.900076	1
H	0.363241	-1.922787	-0.002854	1
H	-1.355509	1.432843	-0.000744	1
H	0.022171	2.093613	-0.882734	1
H	0.017931	2.087143	0.892686	1
H	4.090501	0.178223	-0.000834	1
Es	2.437312	-0.153196	0.142555	99
Es	0.141878	-0.390684	0.318025	99
Es	0.094032	0.838257	0.000613	99
Es	3.025854	0.179638	-0.000827	99
Es	-1.994345	-0.876438	-0.582397	99
Es	3.724326	0.189391	-0.001293	99
Es	-0.065843	1.887618	0.594525	99
Es	-1.992797	-0.888190	0.589254	99
Es	-0.062844	1.892596	-0.586503	99
Es	-0.265373	1.515416	0.002146	99
Es	0.429541	0.179754	-0.000815	99
Es	1.835150	0.179619	-0.000827	99
Es	0.169840	-1.618976	-0.002794	99
Es	-0.956996	-1.079630	-0.001757	99
Es	0.140675	-0.389921	-0.320816	99
Es	2.425487	0.165303	-0.262306	99
Es	2.437319	0.522416	0.117706	99
Es	-1.874069	-1.909931	-0.009295	99
Es	-1.700591	-1.184440	-0.001103	99
Es	-0.217107	-1.001703	-0.001829	99
Es	-1.012964	1.445413	0.000238	99
Es	1.160399	0.183574	-0.000873	99
36
Properties=species:S:1:pos:R:3:Z:I:1 energy=-231.86440576467606 field_type=dipole dipole="0.000000 0.000000 0.000000" charge=0
C	-1.700639	-1.184447	-0.001104	6
C	-0.217019	-1.001627	-0.001824	6
C	0.429411	0.179623	-0.000824	6
C	-0.265399	1.515473	0.002146	6
C	1.835411	0.179623	-0.000824	6
C	3.025571	0.179623	-0.000824	6
H	-1.943189	-2.251137	-0.012414	1
H	-2.153399	-0.733317	-0.889924	1
H	-2.149079	-0.752847	0.900076	1
H	0.363241	-1.922787	-0.002854	1
H	-1.355509	1.432843	-0.000744	1
H	0.022171	2.093613	-0.882734	1
H	0.017931	2.087143	0.892686	1
H	4.090501	0.178223	-0.000834	1
Es	0.168469	-1.617318	-0.002879	99
Es	-0.062497	1.892237	-0.585705	99
Es	2.437496	0.525726	0.108622	99
Es	1.160669	0.183655	-0.000978	99
Es	-1.013393	1.445114	0.000260	99
Es	0.429542	0.179756	-0.000825	99
Es	3.025854	0.179637	-0.000825	99
Es	-1.876529	-1.909444	-0.009247	99
Es	0.095375	0.837356	0.000695	99
Es	0.141646	-0.390757	0.318789	99
Es	-0.065526	1.887016	0.593812	99
Es	-1.993222	-0.876894	-0.580074	99
Es	1.835150	0.179601	-0.000818	99
Es	3.724354	0.189855	-0.001315	99
Es	-0.265373	1.515416	0.002144	99
Es	2.437284	-0.158416	0.130916	99
Es	-1.991890	-0.888318	0.586871	99
Es	2.425354	0.167120	-0.241496	99
Es	-1.700595	-1.184441	-0.001104	99
Es	0.140667	-0.389671	-0.321631	99
Es	-0.217108	-1.001702	-0.001821	99
Es	-0.956844	-1.079644	-0.001766	99
36
Properties=species:S:1:pos:R:3:Z:I:1 energy=-231.86440576467606 field_type=dipole dipole="0.000000 0.000000 0.000000" charge=0
C	-1.700639	-1.184447	-0.001104	6
C	-0.217019	-1.001627	-0.001824	6
C	0.429411	0.179623	-0.000824	6
C	-0.265399	1.515473	0.002146	6
C	1.835411	0.179623	-0.000824	6
C	3.025571	0.179623	-0.000824	6
H	-1.943189	-2.251137	-0.012414	1
H	-2.153399	-0.733317	-0.889924	1
H	-2.149079	-0.752847	0.900076	1
H	0.363241	-1.922787	-0.002854	1
H	-1.355509	1.432843	-0.000744	1
H	0.022171	2.093613	-0.882734	1
H	0.017931	2.087143	0.892686	1
H	4.090501	0.178223	-0.000834	1
Es	0.166773	-1.615441	-0.003091	99
Es	-1.013652	1.444839	0.000176	99
Es	-0.956731	-1.079883	-0.001800	99
Es	-1.700592	-1.184442	-0.001104	99
Es	1.160812	0.184009	-0.000740	99
Es	-0.265373	1.515416	0.002147	99
Es	3.025856	0.179640	-0.000826	99
Es	3.724433	0.189815	-0.001228	99
Es	0.141816	-0.390830	0.319942	99
Es	-1.878481	-1.908764	-0.009990	99
Es	-1.991684	-0.888128	0.585545	99
Es	1.835148	0.179606	-0.000825	99
Es	2.437816	0.531027	0.090935	99
Es	2.437073	-0.162164	0.122612	99
Es	0.429542	0.179754	-0.000812	99
Es	0.096750	0.836191	0.000822	99
Es	-1.991797	-0.877525	-0.577938	99
Es	-0.062741	1.890811	-0.585153	99
Es	2.425234	0.165609	-0.215688	99
Es	-0.064630	1.887584	0.593366	99
Es	-0.217107	-1.001702	-0.001826	99
Es	0.140419	-0.389536	-0.322898	99
36
Properties=species:S:1:pos:R:3:Z:I:1 energy=-231.86440576467606 field_type=dipole dipole="0.000000 0.000000 0.000000" charge=0
C	-1.700639	-1.184447	-0.001104	6
C	-0.217019	-1.001627	-0.001824	6
C	0.429411	0.179623	-0.000824	6
C	-0.265399	1.515473	0.002146	6
C	1.835411	0.179623	-0.000824	6
C	3.025571	0.179623	-0.000824	6
H	-1.943189	-2.251137	-0.012414	1
H	-2.153399	-0.733317	-0.889924	1
H	-2.149079	-0.752847	0.900076	1
H	0.363241	-1.922787	-0.002854	1
H	-1.355509	1.432843	-0.000744	1
H	0.022171	2.093613	-0.882734	1
H	0.017931	2.087143	0.892686	1
H	4.090501	0.178223	-0.000834	1
Es	-1.013849	1.444778	0.000268	99
Es	0.098485	0.834759	0.000762	99
Es	1.835149	0.179603	-0.000831	99
Es	2.437091	-0.166422	0.110259	99
Es	0.429543	0.179758	-0.000816	99
Es	0.141577	-0.390950	0.321283	99
Es	-1.700591	-1.184441	-0.001104	99
Es	-0.062627	1.890584	-0.584500	99
Es	1.160892	0.184256	-0.000869	99
Es	2.425144	0.168130	-0.196844	99
Es	-1.990754	-0.888244	0.583570	99
Es	-0.064545	1.887196	0.592615	99
Es	0.140575	-0.389400	-0.324050	99
Es	2.437901	0.532657	0.084512	99
Es	3.724473	0.189849	-0.001200	99
Es	0.165142	-1.613636	-0.003158	99
Es	-0.217108	-1.001702	-0.001821	99
Es	-0.265373	1.515415	0.002147	99
Es	-0.956663	-1.079957	-0.001792	99
Es	-1.990756	-0.877931	-0.576091	99
Es	-1.880679	-1.908063	-0.009887	99
Es	3.025855	0.179644	-0.000828	99
36
Properties=species:S:1:pos:R:3:Z:I:1 energy=-231.86440576467606 field_type=dipole dipole="0.000000 0.000000 0.000000" charge=0
C	-1.700639	-1.184447	-0.001104	6
C	-0.217019	-1.001627	-0.001824	6
C	0.429411	0.179623	-0.000824	6
C	-0.265399	1.515473	0.002146	6
C	1.835411	0.179623	-0.000824	6
C	3.025571	0.179623	-0.000824	6
H	-1.943189	-2.251137	-0.012414	1
H	-2.153399	-0.733317	-0.889924	1
H	-2.149079	-0.752847	0.900076	1
H	0.363241	-1.922787	-0.002854	1
H	-1.355509	1.432843	-0.000744	1
H	0.022171	2.093613	-0.882734	1
H	0.017931	2.087143	0.892686	1
H	4.090501	0.178223	-0.000834	1
Es	1.835148	0.179607	-0.000823	99
Es	2.438035	0.535702	0.071506	99
Es	-1.881771	-1.907350	-0.009972	99
Es	0.141388	-0.390871	0.323298	99
Es	-1.013973	1.444751	0.000209	99
Es	-1.700592	-1.184443	-0.001104	99
Es	3.025855	0.179639	-0.000823	99
Es	2.424995	0.172067	-0.161371	99
Es	0.140799	-0.389597	-0.326376	99
Es	-0.217108	-1.001702	-0.001825	99
Es	0.429544	0.179755	-0.000818	99
Es	-1.990087	-0.888566	0.582835	99
Es	-1.990555	-0.877732	-0.575350	99
Es	-0.064617	1.886339	0.592348	99
Es	-0.265372	1.515412	0.002145	99
Es	1.160904	0.184605	-0.000735	99
Es	0.100153	0.832932	0.000905	99
Es	0.162881	-1.611127	-0.002750	99
Es	3.724557	0.189543	-0.001002	99
Es	-0.061840	1.890662	-0.584404	99
Es	2.437100	-0.173362	0.087502	99
Es	-0.956561	-1.080382	-0.001770	99
36
Properties=species:S:1:pos:R:3:Z:I:1 energy=-231.86440576467606 field_type=dipole dipole="0.000000 0.000000 0.000000" charge=0
C	-1.700639	-1.184447	-0.001104	6
C	-0.217019	-1.001627	-0.001824	6
C	0.429411	0.179623	-0.000824	6
C	-0.265399	1.515473	0.002146	6
C	1.835411	0.179623	-0.000824	6
C	3.025571	0.179623	-0.000824	6
H	-1.943189	-2.251137	-0.012414	1
H	-2.153399	-0.733317	-0.889924	1
H	-2.149079	-0.752847	0.900076	1
H	0.363241	-1.922787	-0.002854	1
H	-1.355509	1.432843	-0.000744	1
H	0.022171	2.093613	-0.882734	1
H	0.017931	2.087143	0.892686	1
H	4.090501	0.178223	-0.000834	1
Es	-1.014072	1.444844	0.000217	99
Es	3.724624	0.189264	-0.000923	99
Es	-1.883677	-1.906544	-0.009257	99
Es	0.102232	0.830877	0.000944	99
Es	2.437068	-0.177640	0.068137	99
Es	-0.265371	1.515409	0.002145	99
Es	0.140600	-0.391053	0.324934	99
Es	1.160918	0.184758	-0.000747	99
Es	-1.988714	-0.889025	0.581025	99
Es	1.835149	0.179600	-0.000818	99
Es	-0.065022	1.885670	0.591715	99
Es	-0.956494	-1.080617	-0.001600	99
Es	0.429544	0.179756	-0.000824	99
Es	-0.061477	1.890986	-0.583944	99
Es	3.025854	0.179642	-0.000825	99
Es	0.141632	-0.389579	-0.328168	99
Es	-0.217108	-1.001701	-0.001824	99
Es	2.438148	0.537374	0.062280	99
Es	0.160928	-1.608849	-0.002537	99
Es	-1.990199	-0.877561	-0.574397	99
Es	-1.700592	-1.184439	-0.001100	99
Es	2.424911	0.174712	-0.132808	99
36
Properties=species:S:1:pos:R:3:Z:I:1 energy=-231.86440576467606 field_type=dipole dipole="0.000000 0.000000 0.000000" charge=0
C	-1.700639	-1.184447	-0.001104	6
C	-0.217019	-1.001627	-0.001824	6
C	0.429411	0.179623	-0.000824	6
C	-0.265399	1.515473	0.002146	6
C	1.835411	0.179623	-0.000824	6
C	3.025571	0.179623	-0.000824	6
H	-1.943189	-2.251137	-0.012414	1
H	-2.153399	-0.733317	-0.889924	1
H	-2.149079	-0.752847	0.900076	1
H	0.363241	-1.922787	-0.002854	1
H	-1.355509	1.432843	-0.000744	1
H	0.022171	2.093613	-0.882734	1
H	0.017931	2.087143	0.892686	1
H	4.090501	0.178223	-0.000834	1
Es	-1.700594	-1.184436	-0.001103	99
Es	0.140416	-0.389618	-0.329558	99
Es	-1.988914	-0.878261	-0.572996	99
Es	0.141602	-0.390875	0.326733	99
Es	-0.217109	-1.001704	-0.001825	99
Es	0.104634	0.828382	0.001100	99
Es	3.724679	0.189020	-0.000908	99
Es	-0.265369	1.515407	0.002147	99
Es	-0.065213	1.885835	0.590985	99
Es	0.429544	0.179758	-0.000821	99
Es	-1.988447	-0.888770	0.579767	99
Es	1.835148	0.179601	-0.000828	99
Es	1.160912	0.185007	-0.000828	99
Es	2.438236	0.539970	0.045890	99
Es	-1.885363	-1.905697	-0.009468	99
Es	-1.014128	1.444942	0.000237	99
Es	2.437049	-0.179926	0.053808	99
Es	-0.061749	1.890769	-0.583429	99
Es	0.159302	-1.606811	-0.002840	99
Es	3.025855	0.179642	-0.000825	99
Es	-0.956452	-1.080731	-0.001539	99
Es	2.424844	0.174380	-0.102075	99
36
Properties=species:S:1:pos:R:3:Z:I:1 energy=-231.86440576467606 field_type=dipole dipole="0.000000 0.000000 0.000000" charge=0
C	-1.700639	-1.184447	-0.001104	6
C	-0.217019	-1.001627	-0.001824	6
C	0.429411	0.179623	-0.000824	6
C	-0.265399	1.515473	0.002146	6
C	1.835411	0.179623	-0.000824	6
C	3.025571	0.179623	-0.000824	6
H	-1.943189	-2.251137	-0.012414	1
H	-2.153399	-0.733317	-0.889924	1
H	-2.149079	-0.752847	0.900076	1
H	0.363241	-1.922787	-0.002854	1
H	-1.355509	1.432843	-0.000744	1
H	0.022171	2.093613	-0.882734	1
H	0.017931	2.087143	0.892686	1
H	4.090501	0.178223	-0.000834	1
Es	3.724731	0.188756	-0.000857	99
Es	2.438301	0.541556	0.031476	99
Es	1.160903	0.185146	-0.000764	99
Es	0.142066	-0.390034	-0.331332	99
Es	-0.217109	-1.001701	-0.001823	99
Es	-0.956417	-1.080891	-0.001671	99
Es	0.429543	0.179756	-0.000821	99
Es	2.424783	0.176332	-0.050011	99
Es	2.437048	-0.183483	0.016100	99
Es	-0.066775	1.883343	0.590298	99
Es	-1.991007	-0.876123	-0.572934	99
Es	-0.265374	1.515414	0.002145	99
Es	-1.886300	-1.905149	-0.008088	99
Es	-1.985516	-0.891095	0.578418	99
Es	1.835148	0.179604	-0.000826	99
Es	-0.060408	1.893099	-0.582783	99
Es	0.157376	-1.604196	-0.002249	99
Es	3.025855	0.179642	-0.000824	99
Es	-1.014187	1.445076	0.000204	99
Es	0.140206	-0.390945	0.328250	99
Es	0.106606	0.826216	0.000822	99
Es	-1.700591	-1.184442	-0.001106	99
36
Properties=species:S:1:pos:R:3:Z:I:1 energy=-231.86440576467606 field_type=dipole dipole="0.000000 0.000000 0.000000" charge=0
C	-1.700639	-1.184447	-0.001104	6
C	-0.217019	-1.001627	-0.001824	6
C	0.429411	0.179623	-0.000824	6
C	-0.265399	1.515473	0.002146	6
C	1.835411	0.179623	-0.000824	6
C	3.025571	0.179623	-0.000824	6
H	-1.943189	-2.251137	-0.012414	1
H	-2.153399	-0.733317	-0.889924	1
H	-2.149079	-0.752847	0.900076	1
H	0.363241	-1.922787	-0.002854	1
H	-1.355509	1.432843	-0.000744	1
H	0.022171	2.093613	-0.882734	1
H	0.017931	2.087143	0.892686	1
H	4.090501	0.178223	-0.000834	1
Es	-0.265373	1.515414	0.002145	99
Es	-0.956407	-1.080899	-0.001551	99
Es	0.140367	-0.389996	-0.332204	99
Es	3.724768	0.188556	-0.000786	99
Es	-0.067045	1.884216	0.589229	99
Es	-1.988706	-0.877511	-0.570663	99
Es	-1.889160	-1.903894	-0.008299	99
Es	1.835147	0.179605	-0.000822	99
Es	0.109292	0.824227	0.001071	99
Es	0.429544	0.179760	-0.000822	99
Es	0.141814	-0.390917	0.329256	99
Es	-0.061621	1.892550	-0.581678	99
Es	3.025855	0.179639	-0.000816	99
Es	1.160921	0.185082	-0.000803	99
Es	2.424758	0.174954	0.017172	99
Es	2.438432	0.542841	-0.006008	99
Es	-1.985016	-0.890777	0.576242	99
Es	-0.217109	-1.001701	-0.001826	99
Es	-1.700591	-1.184441	-0.001103	99
Es	-1.014241	1.445244	0.000205	99
Es	2.436948	-0.183408	-0.013655	99
Es	0.156307	-1.602661	-0.002659	99
36
Properties=species:S:1:pos:R:3:Z:I:1 energy=-231.86440576467606 field_type=dipole dipole="0.000000 0.000000 0.000000" charge=0
C	-1.700639	-1.184447	-0.001104	6
C	-0.217019	-1.001627	-0.001824	6
C	0.429411	0.179623	-0.000824	6
C	-0.265399	1.515473	0.002146	6
C	1.835411	0.179623	-0.000824	6
C	3.025571	0.179623	-0.000824	6
H	-1.943189	-2.251137	-0.012414	1
H	-2.153399	-0.733317	-0.889924	1
H	-2.149079	-0.752847	0.900076	1
H	0.363241	-1.922787	-0.002854	1
H	-1.355509	1.432843	-0.000744	1
H	0.022171	2.093613	-0.882734	1
H	0.017931	2.087143	0.892686	1
H	4.090501	0.178223	-0.000834	1
Es	-0.217109	-1.001701	-0.001831	99
Es	0.142877	-0.389277	-0.332471	99
Es	2.436964	-0.183169	-0.019140	99
Es	0.429546	0.179754	-0.000814	99
Es	0.111853	0.822511	0.000423	99
Es	-0.265371	1.515426	0.002130	99
Es	-0.068510	1.882741	0.588071	99
Es	2.438393	0.542938	0.000126	99
Es	0.139111	-0.391413	0.329347	99
Es	3.724794	0.188411	-0.000723	99
Es	2.424773	0.174651	0.016531	99
Es	-0.956417	-1.080789	-0.001434	99
Es	-0.061771	1.894280	-0.579950	99
Es	-1.892233	-1.902267	-0.007888	99
Es	-1.700594	-1.184433	-0.001104	99
Es	3.025855	0.179643	-0.000824	99
Es	0.155608	-1.601704	-0.002542	99
Es	1.160936	0.185068	-0.000712	99
Es	1.835148	0.179601	-0.000824	99
Es	-1.981840	-0.893236	0.573297	99
Es	-1.014280	1.445390	0.000209	99
Es	-1.988849	-0.876543	-0.568251	99
