38
Properties=species:S:1:pos:R:3:Z:I:1 energy=-305.89857259116775 field_type=dipole dipole="0.000000 0.000000 0.000000" charge=0
C	-0.632712	-2.163288	-0.520139	6
O	-1.000012	-0.877938	-0.039049	8
C	0.141528	-0.083718	0.346331	6
C	0.587938	0.940922	-0.656229	6
C	-0.139152	1.376022	0.579721	6
O	0.673288	2.019352	1.573771	8
H	-1.540432	-2.693698	-0.819889	1
H	-0.134982	-2.734758	0.269111	1
H	0.025138	-2.070898	-1.389719	1
H	0.889878	-0.536478	0.990031	1
H	0.057068	0.995232	-1.599499	1
H	1.649388	1.144042	-0.726599	1
H	-1.170732	1.698402	0.480491	1
H	0.593798	2.986802	1.511671	1
Es	-0.999699	-0.878049	-0.039066	99
Es	-0.632764	-2.163084	-0.520062	99
Es	-1.120181	-0.725742	-0.276473	99
Es	0.141324	-0.083676	0.346192	99
Es	0.646151	-0.399928	0.773992	99
Es	-0.086169	0.603868	0.631789	99
Es	-0.175238	-2.103601	-1.116085	99
Es	-0.832981	1.602063	0.513075	99
Es	-0.822544	-1.355967	-0.219250	99
Es	0.554057	1.945338	1.844251	99
Es	0.235472	1.334555	-0.112816	99
Es	0.352294	1.802135	1.186835	99
Es	-0.138908	1.376008	0.579799	99
Es	0.673090	2.019524	1.573540	99
Es	0.613930	2.534027	1.513416	99
Es	0.959056	1.948839	1.498133	99
Es	-1.250063	-2.523551	-0.723886	99
Es	-1.158422	-0.929110	0.218757	99
Es	-0.283462	-2.557128	0.019793	99
Es	0.587867	0.940861	-0.656100	99
Es	1.302052	1.082515	-0.696625	99
Es	-0.540978	-0.602469	0.101827	99
Es	0.452494	0.295779	-0.270537	99
Es	0.226096	0.971165	-1.289563	99
38
Properties=species:S:1:pos:R:3:Z:I:1 energy=-305.89857259116775 field_type=dipole dipole="0.000000 0.000000 0.000000" charge=0
C	-0.632712	-2.163288	-0.520139	6
O	-1.000012	-0.877938	-0.039049	8
C	0.141528	-0.083718	0.346331	6
C	0.587938	0.940922	-0.656229	6
C	-0.139152	1.376022	0.579721	6
O	0.673288	2.019352	1.573771	8
H	-1.540432	-2.693698	-0.819889	1
H	-0.134982	-2.734758	0.269111	1
H	0.025138	-2.070898	-1.389719	1
H	0.889878	-0.536478	0.990031	1
H	0.057068	0.995232	-1.599499	1
H	1.649388	1.144042	-0.726599	1
H	-1.170732	1.698402	0.480491	1
H	0.593798	2.986802	1.511671	1
Es	0.673098	2.019526	1.573522	99
Es	-0.832133	1.602454	0.512643	99
Es	-0.823084	-1.358320	-0.218978	99
Es	-0.086336	0.603458	0.632080	99
Es	0.555875	1.943378	1.842030	99
Es	-0.541323	-0.600510	0.100901	99
Es	0.227101	0.971077	-1.288789	99
Es	-1.121006	-0.726974	-0.273861	99
Es	1.300780	1.082846	-0.697083	99
Es	-0.283590	-2.557248	0.019543	99
Es	0.587865	0.940876	-0.656089	99
Es	0.614009	2.537328	1.514820	99
Es	0.353376	1.801354	1.186776	99
Es	-1.156635	-0.927320	0.216912	99
Es	-0.175275	-2.103773	-1.115914	99
Es	-1.249786	-2.523633	-0.723988	99
Es	0.646236	-0.400013	0.773115	99
Es	-0.138907	1.376010	0.579802	99
Es	0.452812	0.293083	-0.269837	99
Es	-0.632763	-2.163085	-0.520060	99
Es	0.141325	-0.083682	0.346187	99
Es	-0.999679	-0.878061	-0.039130	99
Es	0.234512	1.336982	-0.112486	99
Es	0.956001	1.948621	1.498820	99
38
Properties=species:S:1:pos:R:3:Z:I:1 energy=-305.89857259116775 field_type=dipole dipole="0.000000 0.000000 0.000000" charge=0
C	-0.632712	-2.163288	-0.520139	6
O	-1.000012	-0.877938	-0.039049	8
C	0.141528	-0.083718	0.346331	6
C	0.587938	0.940922	-0.656229	6
C	-0.139152	1.376022	0.579721	6
O	0.673288	2.019352	1.573771	8
H	-1.540432	-2.693698	-0.819889	1
H	-0.134982	-2.734758	0.269111	1
H	0.025138	-2.070898	-1.389719	1
H	0.889878	-0.536478	0.990031	1
H	0.057068	0.995232	-1.599499	1
H	1.649388	1.144042	-0.726599	1
H	-1.170732	1.698402	0.480491	1
H	0.593798	2.986802	1.511671	1
Es	-0.086344	0.603210	0.632011	99
Es	0.646247	-0.399951	0.772640	99
Es	-0.831625	1.602627	0.512424	99
Es	-1.156029	-0.925306	0.216393	99
Es	-0.824047	-1.360101	-0.219129	99
Es	0.233822	1.338535	-0.112162	99
Es	0.557250	1.942312	1.841199	99
Es	0.673098	2.019525	1.573515	99
Es	0.227875	0.971279	-1.288218	99
Es	-0.632765	-2.163082	-0.520060	99
Es	-0.138907	1.376015	0.579808	99
Es	0.452843	0.291315	-0.269679	99
Es	0.953365	1.949159	1.499400	99
Es	-1.249590	-2.523608	-0.723813	99
Es	0.141324	-0.083682	0.346196	99
Es	-0.283782	-2.557270	0.019436	99
Es	1.300066	1.082898	-0.697213	99
Es	-0.175282	-2.104050	-1.115999	99
Es	-1.120531	-0.728342	-0.271452	99
Es	0.354365	1.800277	1.186493	99
Es	0.587860	0.940870	-0.656087	99
Es	-0.999699	-0.878054	-0.039059	99
Es	-0.541246	-0.599328	0.099062	99
Es	0.614206	2.539125	1.515229	99
38
Properties=species:S:1:pos:R:3:Z:I:1 energy=-305.89857259116775 field_type=dipole dipole="0.000000 0.000000 0.000000" charge=0
C	-0.632712	-2.163288	-0.520139	6
O	-1.000012	-0.877938	-0.039049	8
C	0.141528	-0.083718	0.346331	6
C	0.587938	0.940922	-0.656229	6
C	-0.139152	1.376022	0.579721	6
O	0.673288	2.019352	1.573771	8
H	-1.540432	-2.693698	-0.819889	1
H	-0.134982	-2.734758	0.269111	1
H	0.025138	-2.070898	-1.389719	1
H	0.889878	-0.536478	0.990031	1
H	0.057068	0.995232	-1.599499	1
H	1.649388	1.144042	-0.726599	1
H	-1.170732	1.698402	0.480491	1
H	0.593798	2.986802	1.511671	1
Es	-0.632767	-2.163079	-0.520060	99
Es	0.558339	1.941143	1.841271	99
Es	-0.823996	-1.361580	-0.217114	99
Es	0.673103	2.019539	1.573537	99
Es	-0.138905	1.376014	0.579799	99
Es	-0.175306	-2.104191	-1.116036	99
Es	0.141318	-0.083684	0.346196	99
Es	-0.831285	1.602771	0.512182	99
Es	1.299506	1.083007	-0.697410	99
Es	0.951050	1.949732	1.499227	99
Es	0.614589	2.540287	1.515383	99
Es	-0.086326	0.603181	0.631848	99
Es	0.233261	1.339526	-0.111749	99
Es	-0.999651	-0.878039	-0.039079	99
Es	0.453229	0.289806	-0.269783	99
Es	0.355141	1.799883	1.186341	99
Es	0.646024	-0.399789	0.772486	99
Es	-1.117712	-0.730136	-0.271907	99
Es	-1.249516	-2.523747	-0.723639	99
Es	0.587863	0.940878	-0.656087	99
Es	-0.541747	-0.598557	0.099167	99
Es	-1.158324	-0.922793	0.214813	99
Es	0.228415	0.971371	-1.287651	99
Es	-0.283829	-2.557169	0.019202	99
38
Properties=species:S:1:pos:R:3:Z:I:1 energy=-305.89857259116775 field_type=dipole dipole="0.000000 0.000000 0.000000" charge=0
C	-0.632712	-2.163288	-0.520139	6
O	-1.000012	-0.877938	-0.039049	8
C	0.141528	-0.083718	0.346331	6
C	0.587938	0.940922	-0.656229	6
C	-0.139152	1.376022	0.579721	6
O	0.673288	2.019352	1.573771	8
H	-1.540432	-2.693698	-0.819889	1
H	-0.134982	-2.734758	0.269111	1
H	0.025138	-2.070898	-1.389719	1
H	0.889878	-0.536478	0.990031	1
H	0.057068	0.995232	-1.599499	1
H	1.649388	1.144042	-0.726599	1
H	-1.170732	1.698402	0.480491	1
H	0.593798	2.986802	1.511671	1
Es	0.357936	1.799295	1.184341	99
Es	0.673132	2.019514	1.573521	99
Es	-1.157072	-0.922566	0.215225	99
Es	-0.138907	1.376013	0.579803	99
Es	-0.541886	-0.597605	0.097554	99
Es	0.233113	1.340383	-0.111833	99
Es	-1.118604	-0.730818	-0.270184	99
Es	0.646095	-0.399810	0.772100	99
Es	0.587866	0.940879	-0.656095	99
Es	-0.086466	0.602883	0.632164	99
Es	1.298973	1.082983	-0.697567	99
Es	0.228778	0.971409	-1.287296	99
Es	-0.175246	-2.104330	-1.116135	99
Es	-1.249374	-2.523645	-0.723540	99
Es	-0.632765	-2.163082	-0.520061	99
Es	0.615940	2.541167	1.514690	99
Es	-0.999643	-0.878046	-0.039097	99
Es	-0.830891	1.602872	0.512031	99
Es	-0.824149	-1.362065	-0.217643	99
Es	-0.284023	-2.557227	0.019204	99
Es	0.950430	1.948383	1.504031	99
Es	0.453173	0.289104	-0.269541	99
Es	0.141323	-0.083689	0.346188	99
Es	0.554742	1.942372	1.839076	99
38
Properties=species:S:1:pos:R:3:Z:I:1 energy=-305.89857259116775 field_type=dipole dipole="0.000000 0.000000 0.000000" charge=0
C	-0.632712	-2.163288	-0.520139	6
O	-1.000012	-0.877938	-0.039049	8
C	0.141528	-0.083718	0.346331	6
C	0.587938	0.940922	-0.656229	6
C	-0.139152	1.376022	0.579721	6
O	0.673288	2.019352	1.573771	8
H	-1.540432	-2.693698	-0.819889	1
H	-0.134982	-2.734758	0.269111	1
H	0.025138	-2.070898	-1.389719	1
H	0.889878	-0.536478	0.990031	1
H	0.057068	0.995232	-1.599499	1
H	1.649388	1.144042	-0.726599	1
H	-1.170732	1.698402	0.480491	1
H	0.593798	2.986802	1.511671	1
Es	0.613702	2.541767	1.517157	99
Es	-1.157196	-0.921509	0.214686	99
Es	0.141318	-0.083685	0.346197	99
Es	-0.999688	-0.878051	-0.039071	99
Es	-0.175308	-2.104446	-1.116263	99
Es	-0.830698	1.602884	0.511979	99
Es	-0.632764	-2.163085	-0.520063	99
Es	0.587862	0.940872	-0.656090	99
Es	1.298643	1.082990	-0.697828	99
Es	0.646106	-0.399784	0.771979	99
Es	0.561257	1.937930	1.841489	99
Es	-1.249253	-2.523659	-0.723347	99
Es	0.356888	1.799076	1.185149	99
Es	0.673106	2.019522	1.573514	99
Es	-0.824739	-1.362827	-0.217342	99
Es	-0.086352	0.602952	0.631924	99
Es	-0.138911	1.376011	0.579808	99
Es	0.232904	1.341123	-0.111651	99
Es	-1.117965	-0.732266	-0.268970	99
Es	0.453225	0.288113	-0.269562	99
Es	0.229031	0.971546	-1.286770	99
Es	0.947144	1.952503	1.498288	99
Es	-0.284034	-2.557187	0.019166	99
Es	-0.541802	-0.596418	0.096554	99
38
Properties=species:S:1:pos:R:3:Z:I:1 energy=-305.89857259116775 field_type=dipole dipole="0.000000 0.000000 0.000000" charge=0
C	-0.632712	-2.163288	-0.520139	6
O	-1.000012	-0.877938	-0.039049	8
C	0.141528	-0.083718	0.346331	6
C	0.587938	0.940922	-0.656229	6
C	-0.139152	1.376022	0.579721	6
O	0.673288	2.019352	1.573771	8
H	-1.540432	-2.693698	-0.819889	1
H	-0.134982	-2.734758	0.269111	1
H	0.025138	-2.070898	-1.389719	1
H	0.889878	-0.536478	0.990031	1
H	0.057068	0.995232	-1.599499	1
H	1.649388	1.144042	-0.726599	1
H	-1.170732	1.698402	0.480491	1
H	0.593798	2.986802	1.511671	1
Es	-1.157174	-0.921129	0.214506	99
Es	-0.175283	-2.104472	-1.116230	99
Es	0.673098	2.019522	1.573542	99
Es	0.646033	-0.399769	0.771634	99
Es	0.229301	0.971432	-1.286425	99
Es	-1.117883	-0.733010	-0.268542	99
Es	-0.632766	-2.163080	-0.520060	99
Es	-0.999659	-0.878057	-0.039089	99
Es	-0.830565	1.602950	0.511876	99
Es	0.453343	0.287660	-0.269478	99
Es	-0.086388	0.602850	0.632215	99
Es	-0.138905	1.376019	0.579796	99
Es	0.587861	0.940873	-0.656085	99
Es	-0.284132	-2.557276	0.019141	99
Es	0.614666	2.542254	1.516132	99
Es	-1.249152	-2.523602	-0.723413	99
Es	-0.824326	-1.363209	-0.216954	99
Es	0.232678	1.341718	-0.111569	99
Es	0.560483	1.938743	1.841088	99
Es	1.298336	1.082981	-0.698002	99
Es	-0.542234	-0.595696	0.095885	99
Es	0.946231	1.951947	1.499825	99
Es	0.141318	-0.083686	0.346196	99
Es	0.357593	1.798412	1.184949	99
38
Properties=species:S:1:pos:R:3:Z:I:1 energy=-305.89857259116775 field_type=dipole dipole="0.000000 0.000000 0.000000" charge=0
C	-0.632712	-2.163288	-0.520139	6
O	-1.000012	-0.877938	-0.039049	8
C	0.141528	-0.083718	0.346331	6
C	0.587938	0.940922	-0.656229	6
C	-0.139152	1.376022	0.579721	6
O	0.673288	2.019352	1.573771	8
H	-1.540432	-2.693698	-0.819889	1
H	-0.134982	-2.734758	0.269111	1
H	0.025138	-2.070898	-1.389719	1
H	0.889878	-0.536478	0.990031	1
H	0.057068	0.995232	-1.599499	1
H	1.649388	1.144042	-0.726599	1
H	-1.170732	1.698402	0.480491	1
H	0.593798	2.986802	1.511671	1
Es	-0.542176	-0.595346	0.094911	99
Es	0.587864	0.940875	-0.656093	99
Es	0.141319	-0.083683	0.346195	99
Es	0.453352	0.286928	-0.269480	99
Es	-0.632767	-2.163081	-0.520061	99
Es	0.232488	1.342281	-0.111459	99
Es	-1.249066	-2.523558	-0.723485	99
Es	0.562349	1.937796	1.841662	99
Es	-1.117952	-0.733401	-0.267409	99
Es	-1.156802	-0.920910	0.214956	99
Es	1.298012	1.082897	-0.697930	99
Es	0.673127	2.019529	1.573455	99
Es	-0.824711	-1.363351	-0.217516	99
Es	0.614211	2.542460	1.516604	99
Es	-0.284210	-2.557348	0.019128	99
Es	0.229594	0.971610	-1.286287	99
Es	0.356814	1.798576	1.185726	99
Es	0.645996	-0.399732	0.771580	99
Es	0.945518	1.952613	1.498076	99
Es	-0.999666	-0.878060	-0.039075	99
Es	-0.175268	-2.104509	-1.116169	99
Es	-0.086382	0.602830	0.631998	99
Es	-0.830260	1.602942	0.511800	99
Es	-0.138908	1.376012	0.579807	99
38
Properties=species:S:1:pos:R:3:Z:I:1 energy=-305.89857259116775 field_type=dipole dipole="0.000000 0.000000 0.000000" charge=0
C	-0.632712	-2.163288	-0.520139	6
O	-1.000012	-0.877938	-0.039049	8
C	0.141528	-0.083718	0.346331	6
C	0.587938	0.940922	-0.656229	6
C	-0.139152	1.376022	0.579721	6
O	0.673288	2.019352	1.573771	8
H	-1.540432	-2.693698	-0.819889	1
H	-0.134982	-2.734758	0.269111	1
H	0.025138	-2.070898	-1.389719	1
H	0.889878	-0.536478	0.990031	1
H	0.057068	0.995232	-1.599499	1
H	1.649388	1.144042	-0.726599	1
H	-1.170732	1.698402	0.480491	1
H	0.593798	2.986802	1.511671	1
Es	-0.824754	-1.363812	-0.216830	99
Es	-0.086432	0.602802	0.632055	99
Es	-1.115896	-0.733858	-0.267988	99
Es	0.560770	1.938034	1.841285	99
Es	0.229760	0.971505	-1.285923	99
Es	0.358532	1.798166	1.184321	99
Es	-0.999672	-0.878070	-0.039058	99
Es	0.646091	-0.399759	0.771401	99
Es	0.615650	2.542968	1.515987	99
Es	1.297818	1.082963	-0.698128	99
Es	-0.830193	1.603122	0.511662	99
Es	-1.249072	-2.523620	-0.723334	99
Es	0.232317	1.342598	-0.111355	99
Es	-1.158614	-0.919738	0.214112	99
Es	-0.632766	-2.163081	-0.520060	99
Es	-0.542263	-0.595573	0.095607	99
Es	0.673093	2.019541	1.573493	99
Es	0.453347	0.286541	-0.269400	99
Es	0.141313	-0.083679	0.346205	99
Es	-0.138908	1.376014	0.579803	99
Es	-0.175286	-2.104595	-1.116235	99
Es	0.943987	1.952286	1.500349	99
Es	0.587863	0.940875	-0.656090	99
Es	-0.284210	-2.557255	0.019059	99
38
Properties=species:S:1:pos:R:3:Z:I:1 energy=-305.89857259116775 field_type=dipole dipole="0.000000 0.000000 0.000000" charge=0
C	-0.632712	-2.163288	-0.520139	6
O	-1.000012	-0.877938	-0.039049	8
C	0.141528	-0.083718	0.346331	6
C	0.587938	0.940922	-0.656229	6
C	-0.139152	1.376022	0.579721	6
O	0.673288	2.019352	1.573771	8
H	-1.540432	-2.693698	-0.819889	1
H	-0.134982	-2.734758	0.269111	1
H	0.025138	-2.070898	-1.389719	1
H	0.889878	-0.536478	0.990031	1
H	0.057068	0.995232	-1.599499	1
H	1.649388	1.144042	-0.726599	1
H	-1.170732	1.698402	0.480491	1
H	0.593798	2.986802	1.511671	1
Es	0.141318	-0.083681	0.346198	99
Es	0.560543	1.937548	1.840854	99
Es	-1.158003	-0.918947	0.213510	99
Es	-0.632767	-2.163079	-0.520060	99
Es	0.229933	0.971482	-1.285802	99
Es	1.297633	1.083029	-0.698117	99
Es	0.614930	2.543200	1.516357	99
Es	-0.825051	-1.364586	-0.215798	99
Es	-0.138909	1.376011	0.579809	99
Es	-0.999639	-0.878110	-0.039025	99
Es	0.587863	0.940869	-0.656091	99
Es	0.673079	2.019528	1.573572	99
Es	0.943762	1.952870	1.500835	99
Es	-0.175233	-2.104618	-1.116244	99
Es	-1.248983	-2.523559	-0.723362	99
Es	-0.830191	1.603006	0.511819	99
Es	0.232206	1.342865	-0.111573	99
Es	0.453418	0.286275	-0.269435	99
Es	-0.086364	0.602859	0.632077	99
Es	0.359716	1.797870	1.183742	99
Es	0.646074	-0.399710	0.771357	99
Es	-1.116132	-0.734650	-0.267640	99
Es	-0.542409	-0.594783	0.094885	99
Es	-0.284319	-2.557317	0.019069	99
38
Properties=species:S:1:pos:R:3:Z:I:1 energy=-305.89857259116775 field_type=dipole dipole="0.000000 0.000000 0.000000" charge=0
C	-0.632712	-2.163288	-0.520139	6
O	-1.000012	-0.877938	-0.039049	8
C	0.141528	-0.083718	0.346331	6
C	0.587938	0.940922	-0.656229	6
C	-0.139152	1.376022	0.579721	6
O	0.673288	2.019352	1.573771	8
H	-1.540432	-2.693698	-0.819889	1
H	-0.134982	-2.734758	0.269111	1
H	0.025138	-2.070898	-1.389719	1
H	0.889878	-0.536478	0.990031	1
H	0.057068	0.995232	-1.599499	1
H	1.649388	1.144042	-0.726599	1
H	-1.170732	1.698402	0.480491	1
H	0.593798	2.986802	1.511671	1
Es	-0.632766	-2.163077	-0.520059	99
Es	-0.542463	-0.594657	0.094730	99
Es	0.453453	0.285896	-0.269471	99
Es	-0.284373	-2.557339	0.019020	99
Es	-1.115074	-0.735176	-0.267409	99
Es	0.646011	-0.399704	0.771316	99
Es	-0.829916	1.603044	0.511673	99
Es	0.141317	-0.083686	0.346197	99
Es	0.230092	0.971671	-1.285745	99
Es	0.232229	1.343316	-0.111359	99
Es	1.297322	1.082845	-0.698091	99
Es	0.943542	1.952195	1.500124	99
Es	0.561368	1.937938	1.840839	99
Es	0.587863	0.940877	-0.656091	99
Es	0.358385	1.797969	1.184866	99
Es	0.615576	2.543457	1.516026	99
Es	0.673084	2.019506	1.573548	99
Es	-0.086479	0.602697	0.632031	99
Es	-1.248887	-2.523532	-0.723288	99
Es	-0.175253	-2.104678	-1.116306	99
Es	-0.138907	1.376017	0.579803	99
Es	-1.159118	-0.918735	0.213728	99
Es	-0.999670	-0.878056	-0.039068	99
Es	-0.824863	-1.364415	-0.216078	99
38
Properties=species:S:1:pos:R:3:Z:I:1 energy=-305.89857259116775 field_type=dipole dipole="0.000000 0.000000 0.000000" charge=0
C	-0.632712	-2.163288	-0.520139	6
O	-1.000012	-0.877938	-0.039049	8
C	0.141528	-0.083718	0.346331	6
C	0.587938	0.940922	-0.656229	6
C	-0.139152	1.376022	0.579721	6
O	0.673288	2.019352	1.573771	8
H	-1.540432	-2.693698	-0.819889	1
H	-0.134982	-2.734758	0.269111	1
H	0.025138	-2.070898	-1.389719	1
H	0.889878	-0.536478	0.990031	1
H	0.057068	0.995232	-1.599499	1
H	1.649388	1.144042	-0.726599	1
H	-1.170732	1.698402	0.480491	1
H	0.593798	2.986802	1.511671	1
Es	-0.086405	0.602584	0.632119	99
Es	0.230182	0.971497	-1.285377	99
Es	0.673117	2.019501	1.573535	99
Es	0.359822	1.797588	1.183882	99
Es	1.297411	1.083012	-0.698282	99
Es	0.141321	-0.083679	0.346199	99
Es	-0.632767	-2.163078	-0.520059	99
Es	-1.248873	-2.523526	-0.723180	99
Es	-0.999691	-0.878050	-0.039086	99
Es	-0.138908	1.376012	0.579808	99
Es	-0.542613	-0.593939	0.093896	99
Es	0.231980	1.343486	-0.111479	99
Es	0.942887	1.953875	1.500025	99
Es	-0.175228	-2.104755	-1.116372	99
Es	0.453512	0.285775	-0.269478	99
Es	0.561843	1.936764	1.841303	99
Es	0.645929	-0.399664	0.771228	99
Es	-1.117393	-0.734969	-0.266219	99
Es	-0.829909	1.603065	0.511668	99
Es	-1.156488	-0.919393	0.213697	99
Es	-0.824988	-1.364686	-0.216425	99
Es	-0.284428	-2.557296	0.019024	99
Es	0.614304	2.543380	1.516590	99
Es	0.587859	0.940872	-0.656081	99
38
Properties=species:S:1:pos:R:3:Z:I:1 energy=-305.89857259116775 field_type=dipole dipole="0.000000 0.000000 0.000000" charge=0
C	-0.632712	-2.163288	-0.520139	6
O	-1.000012	-0.877938	-0.039049	8
C	0.141528	-0.083718	0.346331	6
C	0.587938	0.940922	-0.656229	6
C	-0.139152	1.376022	0.579721	6
O	0.673288	2.019352	1.573771	8
H	-1.540432	-2.693698	-0.819889	1
H	-0.134982	-2.734758	0.269111	1
H	0.025138	-2.070898	-1.389719	1
H	0.889878	-0.536478	0.990031	1
H	0.057068	0.995232	-1.599499	1
H	1.649388	1.144042	-0.726599	1
H	-1.170732	1.698402	0.480491	1
H	0.593798	2.986802	1.511671	1
Es	-0.999618	-0.878074	-0.039055	99
Es	-0.175341	-2.104728	-1.116387	99
Es	-0.086391	0.602812	0.631789	99
Es	0.563587	1.936458	1.842091	99
Es	0.358134	1.797823	1.185216	99
Es	0.141319	-0.083685	0.346195	99
Es	-0.829844	1.603157	0.511558	99
Es	-1.114422	-0.736523	-0.265990	99
Es	-0.138908	1.376014	0.579808	99
Es	-1.248752	-2.523371	-0.723261	99
Es	-0.825002	-1.364828	-0.216263	99
Es	0.230269	0.971620	-1.285454	99
Es	0.673214	2.019453	1.573657	99
Es	-1.159475	-0.918092	0.213416	99
Es	-0.284396	-2.557484	0.019126	99
Es	0.231981	1.343694	-0.111125	99
Es	-0.542670	-0.593478	0.093738	99
Es	0.453662	0.285239	-0.269418	99
Es	0.615389	2.543677	1.516362	99
Es	1.297008	1.082967	-0.698204	99
Es	0.941604	1.953671	1.498039	99
Es	0.587859	0.940872	-0.656086	99
Es	0.646033	-0.399737	0.771244	99
Es	-0.632765	-2.163083	-0.520060	99
38
Properties=species:S:1:pos:R:3:Z:I:1 energy=-305.89857259116775 field_type=dipole dipole="0.000000 0.000000 0.000000" charge=0
C	-0.632712	-2.163288	-0.520139	6
O	-1.000012	-0.877938	-0.039049	8
C	0.141528	-0.083718	0.346331	6
C	0.587938	0.940922	-0.656229	6
C	-0.139152	1.376022	0.579721	6
O	0.673288	2.019352	1.573771	8
H	-1.540432	-2.693698	-0.819889	1
H	-0.134982	-2.734758	0.269111	1
H	0.025138	-2.070898	-1.389719	1
H	0.889878	-0.536478	0.990031	1
H	0.057068	0.995232	-1.599499	1
H	1.649388	1.144042	-0.726599	1
H	-1.170732	1.698402	0.480491	1
H	0.593798	2.986802	1.511671	1
Es	-0.632767	-2.163082	-0.520061	99
Es	1.297068	1.082981	-0.698275	99
Es	0.231869	1.343844	-0.111280	99
Es	0.673087	2.019521	1.573556	99
Es	0.230394	0.971609	-1.285208	99
Es	-1.248772	-2.523468	-0.723307	99
Es	0.646096	-0.399745	0.771020	99
Es	-1.157981	-0.917966	0.213663	99
Es	-0.999669	-0.878048	-0.039089	99
Es	-0.086390	0.602656	0.632023	99
Es	0.614453	2.543749	1.516999	99
Es	0.587860	0.940872	-0.656085	99
Es	-0.829807	1.603093	0.511594	99
Es	-0.284489	-2.557391	0.019058	99
Es	0.359845	1.797602	1.183902	99
Es	0.941506	1.954495	1.499222	99
Es	0.453470	0.285299	-0.269518	99
Es	0.563035	1.935764	1.841672	99
Es	-0.175208	-2.104745	-1.116291	99
Es	-1.115565	-0.736489	-0.265902	99
Es	-0.542575	-0.593289	0.092861	99
Es	-0.825396	-1.365220	-0.215617	99
Es	-0.138907	1.376017	0.579803	99
Es	0.141318	-0.083687	0.346195	99
38
Properties=species:S:1:pos:R:3:Z:I:1 energy=-305.89857259116775 field_type=dipole dipole="0.000000 0.000000 0.000000" charge=0
C	-0.632712	-2.163288	-0.520139	6
O	-1.000012	-0.877938	-0.039049	8
C	0.141528	-0.083718	0.346331	6
C	0.587938	0.940922	-0.656229	6
C	-0.139152	1.376022	0.579721	6
O	0.673288	2.019352	1.573771	8
H	-1.540432	-2.693698	-0.819889	1
H	-0.134982	-2.734758	0.269111	1
H	0.025138	-2.070898	-1.389719	1
H	0.889878	-0.536478	0.990031	1
H	0.057068	0.995232	-1.599499	1
H	1.649388	1.144042	-0.726599	1
H	-1.170732	1.698402	0.480491	1
H	0.593798	2.986802	1.511671	1
Es	1.297001	1.083007	-0.698505	99
Es	-0.999636	-0.878073	-0.039074	99
Es	-1.248745	-2.523435	-0.723057	99
Es	-0.175096	-2.104874	-1.116500	99
Es	-1.156581	-0.918898	0.214093	99
Es	-0.829703	1.603090	0.511573	99
Es	0.587862	0.940872	-0.656088	99
Es	-0.284664	-2.557311	0.019015	99
Es	0.141319	-0.083685	0.346195	99
Es	0.940964	1.954868	1.498931	99
Es	0.230444	0.971549	-1.284862	99
Es	0.614271	2.543874	1.516441	99
Es	-0.825118	-1.364933	-0.216572	99
Es	0.453543	0.284972	-0.269447	99
Es	-0.138909	1.376012	0.579806	99
Es	-0.542787	-0.593914	0.093134	99
Es	-0.086386	0.602657	0.631950	99
Es	0.645973	-0.399608	0.770986	99
Es	0.359483	1.796706	1.184635	99
Es	-0.632764	-2.163078	-0.520059	99
Es	-1.117025	-0.735291	-0.265660	99
Es	0.673087	2.019521	1.573525	99
Es	0.231827	1.344155	-0.111352	99
Es	0.564116	1.936191	1.841827	99
38
Properties=species:S:1:pos:R:3:Z:I:1 energy=-305.89857259116775 field_type=dipole dipole="0.000000 0.000000 0.000000" charge=0
C	-0.632712	-2.163288	-0.520139	6
O	-1.000012	-0.877938	-0.039049	8
C	0.141528	-0.083718	0.346331	6
C	0.587938	0.940922	-0.656229	6
C	-0.139152	1.376022	0.579721	6
O	0.673288	2.019352	1.573771	8
H	-1.540432	-2.693698	-0.819889	1
H	-0.134982	-2.734758	0.269111	1
H	0.025138	-2.070898	-1.389719	1
H	0.889878	-0.536478	0.990031	1
H	0.057068	0.995232	-1.599499	1
H	1.649388	1.144042	-0.726599	1
H	-1.170732	1.698402	0.480491	1
H	0.593798	2.986802	1.511671	1
Es	0.646071	-0.399680	0.771048	99
Es	-0.825295	-1.365495	-0.214952	99
Es	-0.632767	-2.163079	-0.520059	99
Es	0.361190	1.797341	1.182941	99
Es	0.615012	2.544025	1.516768	99
Es	0.141321	-0.083685	0.346197	99
Es	-0.086346	0.602731	0.631811	99
Es	-0.138907	1.376012	0.579802	99
Es	1.296799	1.083036	-0.698345	99
Es	0.941104	1.954107	1.501228	99
Es	0.561485	1.936203	1.840870	99
Es	-1.114069	-0.737082	-0.266363	99
Es	-0.542744	-0.593414	0.092796	99
Es	-1.159376	-0.917009	0.213479	99
Es	-0.175168	-2.104809	-1.116316	99
Es	-0.284560	-2.557370	0.019045	99
Es	0.587863	0.940875	-0.656092	99
Es	0.673104	2.019546	1.573490	99
Es	0.453543	0.284752	-0.269288	99
Es	-0.999694	-0.878046	-0.039072	99
Es	0.231775	1.344201	-0.111330	99
Es	0.230528	0.971596	-1.285015	99
Es	-0.829657	1.603084	0.511546	99
Es	-1.248738	-2.523466	-0.723253	99
38
Properties=species:S:1:pos:R:3:Z:I:1 energy=-305.89857259116775 field_type=dipole dipole="0.000000 0.000000 0.000000" charge=0
C	-0.632712	-2.163288	-0.520139	6
O	-1.000012	-0.877938	-0.039049	8
C	0.141528	-0.083718	0.346331	6
C	0.587938	0.940922	-0.656229	6
C	-0.139152	1.376022	0.579721	6
O	0.673288	2.019352	1.573771	8
H	-1.540432	-2.693698	-0.819889	1
H	-0.134982	-2.734758	0.269111	1
H	0.025138	-2.070898	-1.389719	1
H	0.889878	-0.536478	0.990031	1
H	0.057068	0.995232	-1.599499	1
H	1.649388	1.144042	-0.726599	1
H	-1.170732	1.698402	0.480491	1
H	0.593798	2.986802	1.511671	1
Es	-0.829551	1.603144	0.511532	99
Es	0.587861	0.940873	-0.656086	99
Es	-1.248743	-2.523473	-0.723121	99
Es	-1.154627	-0.919692	0.215334	99
Es	-0.175227	-2.104863	-1.116407	99
Es	-1.118948	-0.736072	-0.263601	99
Es	0.645995	-0.399671	0.770991	99
Es	-0.824987	-1.364621	-0.217634	99
Es	0.453553	0.284527	-0.269456	99
Es	-0.999620	-0.878099	-0.039015	99
Es	0.359874	1.797200	1.184000	99
Es	-0.086437	0.602730	0.631890	99
Es	0.673158	2.019489	1.573608	99
Es	0.940297	1.955027	1.498807	99
Es	-0.138910	1.376008	0.579808	99
Es	1.296834	1.083006	-0.698404	99
Es	0.563966	1.935425	1.841844	99
Es	-0.284540	-2.557331	0.019002	99
Es	-0.542914	-0.592529	0.090789	99
Es	0.614603	2.544052	1.517002	99
Es	0.231622	1.344402	-0.111305	99
Es	0.141319	-0.083686	0.346195	99
Es	0.230671	0.971608	-1.284772	99
Es	-0.632773	-2.163081	-0.520062	99
38
Properties=species:S:1:pos:R:3:Z:I:1 energy=-305.89857259116775 field_type=dipole dipole="0.000000 0.000000 0.000000" charge=0
C	-0.632712	-2.163288	-0.520139	6
O	-1.000012	-0.877938	-0.039049	8
C	0.141528	-0.083718	0.346331	6
C	0.587938	0.940922	-0.656229	6
C	-0.139152	1.376022	0.579721	6
O	0.673288	2.019352	1.573771	8
H	-1.540432	-2.693698	-0.819889	1
H	-0.134982	-2.734758	0.269111	1
H	0.025138	-2.070898	-1.389719	1
H	0.889878	-0.536478	0.990031	1
H	0.057068	0.995232	-1.599499	1
H	1.649388	1.144042	-0.726599	1
H	-1.170732	1.698402	0.480491	1
H	0.593798	2.986802	1.511671	1
Es	-0.825353	-1.365096	-0.216945	99
Es	-0.542802	-0.592319	0.091256	99
Es	0.673082	2.019534	1.573540	99
Es	0.645885	-0.399674	0.770909	99
Es	0.616009	2.544276	1.516085	99
Es	0.453559	0.284524	-0.269580	99
Es	0.141318	-0.083688	0.346197	99
Es	0.361587	1.797154	1.182821	99
Es	-1.248621	-2.523320	-0.723037	99
Es	0.560025	1.937263	1.840031	99
Es	0.587860	0.940871	-0.656084	99
Es	-0.829534	1.603228	0.511501	99
Es	-0.999772	-0.878011	-0.039075	99
Es	-1.118164	-0.736409	-0.263809	99
Es	0.230753	0.971731	-1.284791	99
Es	0.941234	1.952933	1.502786	99
Es	-0.138909	1.376014	0.579810	99
Es	0.231735	1.344468	-0.111355	99
Es	-0.175237	-2.104916	-1.116557	99
Es	-0.284638	-2.557441	0.019048	99
Es	-0.632765	-2.163079	-0.520062	99
Es	-0.086489	0.602502	0.632098	99
Es	1.296702	1.082946	-0.698336	99
Es	-1.154989	-0.919118	0.214486	99
38
Properties=species:S:1:pos:R:3:Z:I:1 energy=-305.89857259116775 field_type=dipole dipole="0.000000 0.000000 0.000000" charge=0
C	-0.632712	-2.163288	-0.520139	6
O	-1.000012	-0.877938	-0.039049	8
C	0.141528	-0.083718	0.346331	6
C	0.587938	0.940922	-0.656229	6
C	-0.139152	1.376022	0.579721	6
O	0.673288	2.019352	1.573771	8
H	-1.540432	-2.693698	-0.819889	1
H	-0.134982	-2.734758	0.269111	1
H	0.025138	-2.070898	-1.389719	1
H	0.889878	-0.536478	0.990031	1
H	0.057068	0.995232	-1.599499	1
H	1.649388	1.144042	-0.726599	1
H	-1.170732	1.698402	0.480491	1
H	0.593798	2.986802	1.511671	1
Es	-0.825264	-1.365466	-0.215213	99
Es	-0.632768	-2.163074	-0.520057	99
Es	-0.175310	-2.104875	-1.116570	99
Es	-0.829542	1.603059	0.511529	99
Es	0.360451	1.797143	1.184102	99
Es	-0.138908	1.376009	0.579802	99
Es	-0.999819	-0.878011	-0.039078	99
Es	0.563210	1.935709	1.841157	99
Es	-0.086384	0.602496	0.632061	99
Es	0.673159	2.019497	1.573590	99
Es	1.296409	1.082981	-0.698262	99
Es	0.587859	0.940872	-0.656082	99
Es	-0.284414	-2.557196	0.018898	99
Es	-1.115282	-0.737331	-0.265526	99
Es	0.141322	-0.083692	0.346187	99
Es	0.614645	2.544402	1.516716	99
Es	-1.157933	-0.917656	0.213474	99
Es	0.645961	-0.399607	0.770882	99
Es	-1.248696	-2.523603	-0.722880	99
Es	0.453750	0.284511	-0.269581	99
Es	0.231577	1.344709	-0.111307	99
Es	0.940369	1.954514	1.499698	99
Es	0.230893	0.971608	-1.284841	99
Es	-0.542810	-0.592624	0.092236	99
38
Properties=species:S:1:pos:R:3:Z:I:1 energy=-305.89857259116775 field_type=dipole dipole="0.000000 0.000000 0.000000" charge=0
C	-0.632712	-2.163288	-0.520139	6
O	-1.000012	-0.877938	-0.039049	8
C	0.141528	-0.083718	0.346331	6
C	0.587938	0.940922	-0.656229	6
C	-0.139152	1.376022	0.579721	6
O	0.673288	2.019352	1.573771	8
H	-1.540432	-2.693698	-0.819889	1
H	-0.134982	-2.734758	0.269111	1
H	0.025138	-2.070898	-1.389719	1
H	0.889878	-0.536478	0.990031	1
H	0.057068	0.995232	-1.599499	1
H	1.649388	1.144042	-0.726599	1
H	-1.170732	1.698402	0.480491	1
H	0.593798	2.986802	1.511671	1
Es	0.615344	2.544367	1.516514	99
Es	1.296549	1.082967	-0.698497	99
Es	0.453597	0.284246	-0.269361	99
Es	0.940845	1.953677	1.502810	99
Es	0.645873	-0.399564	0.770902	99
Es	0.362750	1.797462	1.182156	99
Es	0.673065	2.019559	1.573524	99
Es	-0.999651	-0.878066	-0.039087	99
Es	0.231612	1.344874	-0.111471	99
Es	-0.175193	-2.104942	-1.116458	99
Es	0.230842	0.971632	-1.284526	99
Es	-0.284626	-2.557299	0.018944	99
Es	-0.138909	1.376006	0.579797	99
Es	0.559883	1.936230	1.840207	99
Es	-0.542886	-0.593229	0.092845	99
Es	-0.086408	0.602481	0.631981	99
Es	-0.632767	-2.163079	-0.520059	99
Es	-1.157985	-0.917496	0.213144	99
Es	0.141316	-0.083689	0.346197	99
Es	-0.829394	1.603108	0.511509	99
Es	0.587860	0.940871	-0.656086	99
Es	-0.825294	-1.365607	-0.215516	99
Es	-1.248708	-2.523476	-0.723024	99
Es	-1.115239	-0.736657	-0.265507	99
38
Properties=species:S:1:pos:R:3:Z:I:1 energy=-305.89857259116775 field_type=dipole dipole="0.000000 0.000000 0.000000" charge=0
C	-0.632712	-2.163288	-0.520139	6
O	-1.000012	-0.877938	-0.039049	8
C	0.141528	-0.083718	0.346331	6
C	0.587938	0.940922	-0.656229	6
C	-0.139152	1.376022	0.579721	6
O	0.673288	2.019352	1.573771	8
H	-1.540432	-2.693698	-0.819889	1
H	-0.134982	-2.734758	0.269111	1
H	0.025138	-2.070898	-1.389719	1
H	0.889878	-0.536478	0.990031	1
H	0.057068	0.995232	-1.599499	1
H	1.649388	1.144042	-0.726599	1
H	-1.170732	1.698402	0.480491	1
H	0.593798	2.986802	1.511671	1
Es	0.673031	2.019548	1.573554	99
Es	-1.158078	-0.917481	0.213726	99
Es	-0.086338	0.602638	0.631751	99
Es	-0.284616	-2.557487	0.019058	99
Es	-0.632766	-2.163082	-0.520060	99
Es	0.231602	1.344703	-0.111142	99
Es	-1.115105	-0.737937	-0.264445	99
Es	0.141318	-0.083685	0.346196	99
Es	-0.175282	-2.104905	-1.116558	99
Es	0.230800	0.971696	-1.284536	99
Es	0.453527	0.284136	-0.269421	99
Es	-1.248579	-2.523294	-0.723051	99
Es	-0.829489	1.603192	0.511395	99
Es	0.361333	1.796814	1.183176	99
Es	0.587859	0.940873	-0.656083	99
Es	0.562901	1.935573	1.841273	99
Es	1.296534	1.083038	-0.698484	99
Es	-0.138908	1.376013	0.579807	99
Es	0.939465	1.954869	1.500623	99
Es	-0.999691	-0.878060	-0.039065	99
Es	-0.825130	-1.365539	-0.215750	99
Es	0.646084	-0.399673	0.770885	99
Es	-0.543084	-0.592028	0.091455	99
Es	0.615086	2.544453	1.516630	99
