39
Properties=species:S:1:pos:R:3:Z:I:1 energy=-286.07605335829555 field_type=dipole dipole="0.000000 0.000000 0.000000" charge=0
C	-1.666705	0.041625	-0.024597	6
C	-0.175184	-0.053385	0.162073	6
N	0.291036	-0.058855	1.570223	7
C	0.625096	-0.836235	-0.850097	6
C	0.701005	0.661115	-0.851787	6
O	1.907776	1.229195	-0.312427	8
H	-1.947064	0.066575	-1.083037	1
H	-2.052875	0.951175	0.446893	1
H	-2.162575	-0.821165	0.432343	1
H	1.216176	-0.485135	1.629153	1
H	-0.310674	-0.660845	2.133873	1
H	0.102206	-1.310225	-1.672727	1
H	1.504845	-1.381975	-0.530917	1
H	0.222235	1.189395	-1.669347	1
H	1.744705	1.468745	0.620383	1
Es	0.202755	0.477697	-0.278053	99
Es	0.774333	-0.106354	-1.000004	99
Es	0.297730	0.273172	1.698873	99
Es	-0.175042	-0.053400	0.162100	99
Es	1.434672	1.016138	-0.498494	99
Es	0.261753	-1.154843	-1.407472	99
Es	-1.925518	0.657759	0.296250	99
Es	0.841238	-0.326989	1.590892	99
Es	-1.666673	0.041616	-0.024596	99
Es	-0.072738	-0.433793	1.889125	99
Es	0.291017	-0.059347	1.569998	99
Es	0.160481	-0.623136	-0.286880	99
Es	-2.000711	-0.548258	0.289880	99
Es	0.625047	-0.836097	-0.850050	99
Es	-1.844471	0.057184	-0.745306	99
Es	2.103404	0.998699	-0.301175	99
Es	1.907449	1.229108	-0.312218	99
Es	1.216638	-1.200043	-0.621316	99
Es	-0.919664	-0.010999	0.069337	99
Es	1.963181	1.483952	-0.468542	99
Es	0.701175	0.661052	-0.851623	99
Es	0.097338	-0.082666	0.955260	99
Es	1.797656	1.353076	0.176551	99
Es	0.375950	1.023667	-1.406086	99
39
Properties=species:S:1:pos:R:3:Z:I:1 energy=-286.07605335829555 field_type=dipole dipole="0.000000 0.000000 0.000000" charge=0
C	-1.666705	0.041625	-0.024597	6
C	-0.175184	-0.053385	0.162073	6
N	0.291036	-0.058855	1.570223	7
C	0.625096	-0.836235	-0.850097	6
C	0.701005	0.661115	-0.851787	6
O	1.907776	1.229195	-0.312427	8
H	-1.947064	0.066575	-1.083037	1
H	-2.052875	0.951175	0.446893	1
H	-2.162575	-0.821165	0.432343	1
H	1.216176	-0.485135	1.629153	1
H	-0.310674	-0.660845	2.133873	1
H	0.102206	-1.310225	-1.672727	1
H	1.504845	-1.381975	-0.530917	1
H	0.222235	1.189395	-1.669347	1
H	1.744705	1.468745	0.620383	1
Es	1.437886	1.011196	-0.496924	99
Es	0.376594	1.023317	-1.406145	99
Es	1.797452	1.350412	0.178663	99
Es	-1.925272	0.658076	0.296515	99
Es	0.291038	-0.059386	1.569977	99
Es	-0.920085	-0.010817	0.069195	99
Es	0.299881	0.273984	1.698110	99
Es	-0.073684	-0.433669	1.890596	99
Es	2.106499	1.003167	-0.304603	99
Es	0.775624	-0.106269	-1.001277	99
Es	0.701169	0.661061	-0.851614	99
Es	1.907487	1.229162	-0.312261	99
Es	0.201661	0.478019	-0.277318	99
Es	-2.000285	-0.548888	0.290257	99
Es	1.956816	1.486904	-0.469000	99
Es	-0.175043	-0.053395	0.162102	99
Es	0.097702	-0.083092	0.955397	99
Es	-1.666672	0.041615	-0.024596	99
Es	-1.844094	0.057169	-0.745675	99
Es	0.625046	-0.836097	-0.850051	99
Es	1.215918	-1.199528	-0.621893	99
Es	0.839361	-0.327483	1.590220	99
Es	0.159389	-0.623418	-0.285771	99
Es	0.262614	-1.154846	-1.407451	99
39
Properties=species:S:1:pos:R:3:Z:I:1 energy=-286.07605335829555 field_type=dipole dipole="0.000000 0.000000 0.000000" charge=0
C	-1.666705	0.041625	-0.024597	6
C	-0.175184	-0.053385	0.162073	6
N	0.291036	-0.058855	1.570223	7
C	0.625096	-0.836235	-0.850097	6
C	0.701005	0.661115	-0.851787	6
O	1.907776	1.229195	-0.312427	8
H	-1.947064	0.066575	-1.083037	1
H	-2.052875	0.951175	0.446893	1
H	-2.162575	-0.821165	0.432343	1
H	1.216176	-0.485135	1.629153	1
H	-0.310674	-0.660845	2.133873	1
H	0.102206	-1.310225	-1.672727	1
H	1.504845	-1.381975	-0.530917	1
H	0.222235	1.189395	-1.669347	1
H	1.744705	1.468745	0.620383	1
Es	0.097816	-0.083222	0.955455	99
Es	0.158689	-0.623923	-0.284943	99
Es	2.101349	1.000506	-0.302919	99
Es	1.438230	1.013857	-0.496523	99
Es	1.961672	1.486618	-0.472110	99
Es	0.377081	1.022961	-1.406090	99
Es	-0.074494	-0.433205	1.891849	99
Es	0.263200	-1.154687	-1.407420	99
Es	-0.920349	-0.010704	0.069029	99
Es	1.797210	1.350724	0.179492	99
Es	0.302437	0.274763	1.697681	99
Es	0.701173	0.661052	-0.851621	99
Es	-1.843795	0.057085	-0.745760	99
Es	-1.666671	0.041614	-0.024596	99
Es	0.200974	0.478213	-0.276781	99
Es	0.837290	-0.328565	1.589419	99
Es	-0.175043	-0.053408	0.162099	99
Es	0.291041	-0.059373	1.569987	99
Es	-2.000078	-0.549152	0.290278	99
Es	1.215394	-1.199181	-0.622481	99
Es	0.625045	-0.836097	-0.850050	99
Es	1.907498	1.229117	-0.312251	99
Es	0.776504	-0.106263	-1.002041	99
Es	-1.925172	0.658464	0.296750	99
39
Properties=species:S:1:pos:R:3:Z:I:1 energy=-286.07605335829555 field_type=dipole dipole="0.000000 0.000000 0.000000" charge=0
C	-1.666705	0.041625	-0.024597	6
C	-0.175184	-0.053385	0.162073	6
N	0.291036	-0.058855	1.570223	7
C	0.625096	-0.836235	-0.850097	6
C	0.701005	0.661115	-0.851787	6
O	1.907776	1.229195	-0.312427	8
H	-1.947064	0.066575	-1.083037	1
H	-2.052875	0.951175	0.446893	1
H	-2.162575	-0.821165	0.432343	1
H	1.216176	-0.485135	1.629153	1
H	-0.310674	-0.660845	2.133873	1
H	0.102206	-1.310225	-1.672727	1
H	1.504845	-1.381975	-0.530917	1
H	0.222235	1.189395	-1.669347	1
H	1.744705	1.468745	0.620383	1
Es	0.158194	-0.623944	-0.284443	99
Es	0.291039	-0.059369	1.569982	99
Es	1.907508	1.229148	-0.312252	99
Es	0.777060	-0.106483	-1.002529	99
Es	1.439583	1.011923	-0.495858	99
Es	-2.000109	-0.549472	0.290431	99
Es	-1.843367	0.057132	-0.745916	99
Es	1.959628	1.485773	-0.473233	99
Es	1.796525	1.352373	0.179825	99
Es	-0.920568	-0.010793	0.069064	99
Es	0.200417	0.478648	-0.276426	99
Es	1.215061	-1.198803	-0.622776	99
Es	-1.666673	0.041615	-0.024596	99
Es	0.098107	-0.084067	0.955630	99
Es	0.377418	1.022717	-1.406208	99
Es	0.625047	-0.836092	-0.850052	99
Es	-1.924917	0.658725	0.296774	99
Es	0.263617	-1.154750	-1.407385	99
Es	-0.175045	-0.053407	0.162105	99
Es	-0.074823	-0.433241	1.892474	99
Es	0.836859	-0.328184	1.589473	99
Es	0.302701	0.275149	1.696932	99
Es	0.701173	0.661051	-0.851622	99
Es	2.102566	1.001546	-0.302942	99
39
Properties=species:S:1:pos:R:3:Z:I:1 energy=-286.07605335829555 field_type=dipole dipole="0.000000 0.000000 0.000000" charge=0
C	-1.666705	0.041625	-0.024597	6
C	-0.175184	-0.053385	0.162073	6
N	0.291036	-0.058855	1.570223	7
C	0.625096	-0.836235	-0.850097	6
C	0.701005	0.661115	-0.851787	6
O	1.907776	1.229195	-0.312427	8
H	-1.947064	0.066575	-1.083037	1
H	-2.052875	0.951175	0.446893	1
H	-2.162575	-0.821165	0.432343	1
H	1.216176	-0.485135	1.629153	1
H	-0.310674	-0.660845	2.133873	1
H	0.102206	-1.310225	-1.672727	1
H	1.504845	-1.381975	-0.530917	1
H	0.222235	1.189395	-1.669347	1
H	1.744705	1.468745	0.620383	1
Es	1.907650	1.229208	-0.312329	99
Es	-1.924941	0.658967	0.296984	99
Es	-0.075157	-0.432922	1.893041	99
Es	-0.175043	-0.053400	0.162103	99
Es	-1.666673	0.041615	-0.024596	99
Es	-1.999853	-0.549550	0.290401	99
Es	2.098997	1.001165	-0.300127	99
Es	1.795290	1.353432	0.179793	99
Es	0.701170	0.661045	-0.851620	99
Es	0.291044	-0.059355	1.569993	99
Es	0.157725	-0.624010	-0.283889	99
Es	0.098145	-0.084015	0.955687	99
Es	0.625049	-0.836095	-0.850053	99
Es	0.836295	-0.328471	1.589262	99
Es	1.214862	-1.198586	-0.623050	99
Es	0.777571	-0.106579	-1.003122	99
Es	-1.843285	0.056996	-0.745953	99
Es	0.377594	1.022656	-1.406059	99
Es	1.440555	1.011617	-0.496026	99
Es	0.303512	0.275187	1.696577	99
Es	-0.920774	-0.010745	0.068922	99
Es	0.263964	-1.154644	-1.407407	99
Es	0.200133	0.478407	-0.276162	99
Es	1.963169	1.485270	-0.475917	99
39
Properties=species:S:1:pos:R:3:Z:I:1 energy=-286.07605335829555 field_type=dipole dipole="0.000000 0.000000 0.000000" charge=0
C	-1.666705	0.041625	-0.024597	6
C	-0.175184	-0.053385	0.162073	6
N	0.291036	-0.058855	1.570223	7
C	0.625096	-0.836235	-0.850097	6
C	0.701005	0.661115	-0.851787	6
O	1.907776	1.229195	-0.312427	8
H	-1.947064	0.066575	-1.083037	1
H	-2.052875	0.951175	0.446893	1
H	-2.162575	-0.821165	0.432343	1
H	1.216176	-0.485135	1.629153	1
H	-0.310674	-0.660845	2.133873	1
H	0.102206	-1.310225	-1.672727	1
H	1.504845	-1.381975	-0.530917	1
H	0.222235	1.189395	-1.669347	1
H	1.744705	1.468745	0.620383	1
Es	0.264210	-1.154600	-1.407464	99
Es	0.199801	0.478648	-0.275864	99
Es	0.777793	-0.106800	-1.003403	99
Es	-0.175044	-0.053393	0.162106	99
Es	0.701182	0.661053	-0.851623	99
Es	1.907440	1.229209	-0.312250	99
Es	1.964657	1.485350	-0.477342	99
Es	0.304277	0.275404	1.695669	99
Es	0.377836	1.022508	-1.405990	99
Es	-1.999712	-0.549608	0.290412	99
Es	-1.924915	0.659096	0.297105	99
Es	0.291040	-0.059372	1.569980	99
Es	-0.075547	-0.432553	1.894010	99
Es	2.097080	0.999992	-0.300260	99
Es	1.795541	1.353121	0.180446	99
Es	-0.920870	-0.010662	0.068948	99
Es	0.097979	-0.084511	0.956024	99
Es	0.157501	-0.624157	-0.283674	99
Es	0.835895	-0.328555	1.588858	99
Es	1.214719	-1.198393	-0.623233	99
Es	-1.666673	0.041615	-0.024596	99
Es	-1.843129	0.056932	-0.746095	99
Es	0.625046	-0.836100	-0.850050	99
Es	1.440896	1.012970	-0.495262	99
39
Properties=species:S:1:pos:R:3:Z:I:1 energy=-286.07605335829555 field_type=dipole dipole="0.000000 0.000000 0.000000" charge=0
C	-1.666705	0.041625	-0.024597	6
C	-0.175184	-0.053385	0.162073	6
N	0.291036	-0.058855	1.570223	7
C	0.625096	-0.836235	-0.850097	6
C	0.701005	0.661115	-0.851787	6
O	1.907776	1.229195	-0.312427	8
H	-1.947064	0.066575	-1.083037	1
H	-2.052875	0.951175	0.446893	1
H	-2.162575	-0.821165	0.432343	1
H	1.216176	-0.485135	1.629153	1
H	-0.310674	-0.660845	2.133873	1
H	0.102206	-1.310225	-1.672727	1
H	1.504845	-1.381975	-0.530917	1
H	0.222235	1.189395	-1.669347	1
H	1.744705	1.468745	0.620383	1
Es	0.625044	-0.836098	-0.850048	99
Es	-0.921050	-0.010696	0.068962	99
Es	0.157331	-0.624235	-0.283325	99
Es	2.098043	1.000599	-0.299634	99
Es	1.963515	1.485422	-0.477970	99
Es	0.291058	-0.059350	1.570005	99
Es	-1.999678	-0.549784	0.290448	99
Es	0.264474	-1.154555	-1.407447	99
Es	0.701168	0.661045	-0.851619	99
Es	1.907519	1.229139	-0.312260	99
Es	0.098222	-0.084474	0.955874	99
Es	-1.924874	0.659200	0.297116	99
Es	0.199427	0.478814	-0.275643	99
Es	0.835390	-0.328736	1.588942	99
Es	-0.175046	-0.053399	0.162109	99
Es	-0.075689	-0.432484	1.894039	99
Es	-1.666672	0.041615	-0.024596	99
Es	0.304674	0.275503	1.695737	99
Es	1.794381	1.353864	0.180151	99
Es	1.442031	1.011568	-0.495098	99
Es	0.378038	1.022340	-1.406082	99
Es	-1.842931	0.056944	-0.746122	99
Es	1.214503	-1.198155	-0.623507	99
Es	0.778124	-0.106889	-1.003579	99
39
Properties=species:S:1:pos:R:3:Z:I:1 energy=-286.07605335829555 field_type=dipole dipole="0.000000 0.000000 0.000000" charge=0
C	-1.666705	0.041625	-0.024597	6
C	-0.175184	-0.053385	0.162073	6
N	0.291036	-0.058855	1.570223	7
C	0.625096	-0.836235	-0.850097	6
C	0.701005	0.661115	-0.851787	6
O	1.907776	1.229195	-0.312427	8
H	-1.947064	0.066575	-1.083037	1
H	-2.052875	0.951175	0.446893	1
H	-2.162575	-0.821165	0.432343	1
H	1.216176	-0.485135	1.629153	1
H	-0.310674	-0.660845	2.133873	1
H	0.102206	-1.310225	-1.672727	1
H	1.504845	-1.381975	-0.530917	1
H	0.222235	1.189395	-1.669347	1
H	1.744705	1.468745	0.620383	1
Es	0.157238	-0.624471	-0.283189	99
Es	0.199152	0.479019	-0.275392	99
Es	0.378191	1.022233	-1.405946	99
Es	-1.666672	0.041615	-0.024596	99
Es	1.966072	1.484591	-0.479768	99
Es	0.701173	0.661050	-0.851623	99
Es	0.778180	-0.107033	-1.003759	99
Es	-1.924991	0.659337	0.297171	99
Es	-0.075888	-0.432389	1.894332	99
Es	0.264671	-1.154410	-1.407458	99
Es	2.095164	0.999652	-0.298812	99
Es	1.214528	-1.198054	-0.623711	99
Es	-0.175045	-0.053400	0.162103	99
Es	0.625048	-0.836088	-0.850052	99
Es	1.441902	1.012621	-0.494669	99
Es	1.907436	1.229180	-0.312239	99
Es	0.291045	-0.059375	1.569986	99
Es	-0.921148	-0.010704	0.069081	99
Es	1.794839	1.354507	0.180561	99
Es	0.835174	-0.328722	1.588908	99
Es	-1.842679	0.056846	-0.746194	99
Es	-1.999609	-0.549804	0.290340	99
Es	0.304903	0.275726	1.695389	99
Es	0.098316	-0.084734	0.955989	99
39
Properties=species:S:1:pos:R:3:Z:I:1 energy=-286.07605335829555 field_type=dipole dipole="0.000000 0.000000 0.000000" charge=0
C	-1.666705	0.041625	-0.024597	6
C	-0.175184	-0.053385	0.162073	6
N	0.291036	-0.058855	1.570223	7
C	0.625096	-0.836235	-0.850097	6
C	0.701005	0.661115	-0.851787	6
O	1.907776	1.229195	-0.312427	8
H	-1.947064	0.066575	-1.083037	1
H	-2.052875	0.951175	0.446893	1
H	-2.162575	-0.821165	0.432343	1
H	1.216176	-0.485135	1.629153	1
H	-0.310674	-0.660845	2.133873	1
H	0.102206	-1.310225	-1.672727	1
H	1.504845	-1.381975	-0.530917	1
H	0.222235	1.189395	-1.669347	1
H	1.744705	1.468745	0.620383	1
Es	0.625042	-0.836097	-0.850045	99
Es	0.199107	0.478793	-0.275241	99
Es	0.778577	-0.107221	-1.004346	99
Es	-1.842687	0.056790	-0.746123	99
Es	1.214324	-1.197889	-0.623712	99
Es	0.378169	1.022307	-1.405787	99
Es	0.701171	0.661049	-0.851620	99
Es	-0.921255	-0.010638	0.068873	99
Es	0.291054	-0.059381	1.569990	99
Es	2.095689	1.000262	-0.299492	99
Es	1.964938	1.485415	-0.479654	99
Es	0.264731	-1.154582	-1.407407	99
Es	1.442686	1.012166	-0.494520	99
Es	-1.924914	0.659525	0.297294	99
Es	1.794525	1.353534	0.180977	99
Es	-0.175045	-0.053405	0.162105	99
Es	0.157074	-0.624182	-0.282986	99
Es	-1.999478	-0.549902	0.290366	99
Es	0.098344	-0.084890	0.956108	99
Es	-0.076377	-0.431823	1.895044	99
Es	0.305532	0.275524	1.694655	99
Es	1.907516	1.229144	-0.312253	99
Es	-1.666672	0.041615	-0.024596	99
Es	0.834951	-0.328919	1.588820	99
39
Properties=species:S:1:pos:R:3:Z:I:1 energy=-286.07605335829555 field_type=dipole dipole="0.000000 0.000000 0.000000" charge=0
C	-1.666705	0.041625	-0.024597	6
C	-0.175184	-0.053385	0.162073	6
N	0.291036	-0.058855	1.570223	7
C	0.625096	-0.836235	-0.850097	6
C	0.701005	0.661115	-0.851787	6
O	1.907776	1.229195	-0.312427	8
H	-1.947064	0.066575	-1.083037	1
H	-2.052875	0.951175	0.446893	1
H	-2.162575	-0.821165	0.432343	1
H	1.216176	-0.485135	1.629153	1
H	-0.310674	-0.660845	2.133873	1
H	0.102206	-1.310225	-1.672727	1
H	1.504845	-1.381975	-0.530917	1
H	0.222235	1.189395	-1.669347	1
H	1.744705	1.468745	0.620383	1
Es	-1.924866	0.659580	0.297353	99
Es	1.907448	1.229205	-0.312275	99
Es	0.378422	1.022039	-1.405882	99
Es	0.778755	-0.107264	-1.004339	99
Es	-0.076362	-0.431941	1.894967	99
Es	-1.666674	0.041615	-0.024597	99
Es	0.834731	-0.329046	1.588679	99
Es	0.156977	-0.624287	-0.282926	99
Es	-1.999494	-0.549886	0.290325	99
Es	1.214148	-1.197755	-0.623842	99
Es	-1.842570	0.056794	-0.746209	99
Es	0.305726	0.275636	1.694867	99
Es	2.093694	0.998640	-0.297824	99
Es	1.794091	1.354922	0.180526	99
Es	0.264936	-1.154532	-1.407434	99
Es	0.625047	-0.836094	-0.850048	99
Es	-0.175047	-0.053404	0.162109	99
Es	0.198693	0.479035	-0.275074	99
Es	0.098327	-0.084781	0.956168	99
Es	0.291052	-0.059373	1.569983	99
Es	-0.921286	-0.010716	0.068958	99
Es	1.442540	1.013377	-0.494310	99
Es	1.967539	1.484385	-0.481100	99
Es	0.701172	0.661049	-0.851621	99
39
Properties=species:S:1:pos:R:3:Z:I:1 energy=-286.07605335829555 field_type=dipole dipole="0.000000 0.000000 0.000000" charge=0
C	-1.666705	0.041625	-0.024597	6
C	-0.175184	-0.053385	0.162073	6
N	0.291036	-0.058855	1.570223	7
C	0.625096	-0.836235	-0.850097	6
C	0.701005	0.661115	-0.851787	6
O	1.907776	1.229195	-0.312427	8
H	-1.947064	0.066575	-1.083037	1
H	-2.052875	0.951175	0.446893	1
H	-2.162575	-0.821165	0.432343	1
H	1.216176	-0.485135	1.629153	1
H	-0.310674	-0.660845	2.133873	1
H	0.102206	-1.310225	-1.672727	1
H	1.504845	-1.381975	-0.530917	1
H	0.222235	1.189395	-1.669347	1
H	1.744705	1.468745	0.620383	1
Es	-0.076663	-0.431656	1.895312	99
Es	0.625044	-0.836094	-0.850050	99
Es	-1.999484	-0.549934	0.290406	99
Es	0.198647	0.479029	-0.274892	99
Es	0.701167	0.661044	-0.851618	99
Es	0.778895	-0.107216	-1.004548	99
Es	1.966033	1.485087	-0.480300	99
Es	2.094897	0.999190	-0.298899	99
Es	0.265025	-1.154616	-1.407394	99
Es	1.907467	1.229070	-0.312228	99
Es	-0.921334	-0.010627	0.068803	99
Es	1.443229	1.013198	-0.494564	99
Es	-1.842564	0.056790	-0.746216	99
Es	-1.924777	0.659626	0.297352	99
Es	0.291040	-0.059374	1.569980	99
Es	0.098412	-0.085063	0.956229	99
Es	0.156970	-0.624468	-0.282785	99
Es	1.214037	-1.197575	-0.623951	99
Es	0.306076	0.275725	1.694432	99
Es	-1.666673	0.041615	-0.024596	99
Es	-0.175049	-0.053407	0.162109	99
Es	1.793614	1.353945	0.180944	99
Es	0.378506	1.022026	-1.405816	99
Es	0.834486	-0.329120	1.588742	99
39
Properties=species:S:1:pos:R:3:Z:I:1 energy=-286.07605335829555 field_type=dipole dipole="0.000000 0.000000 0.000000" charge=0
C	-1.666705	0.041625	-0.024597	6
C	-0.175184	-0.053385	0.162073	6
N	0.291036	-0.058855	1.570223	7
C	0.625096	-0.836235	-0.850097	6
C	0.701005	0.661115	-0.851787	6
O	1.907776	1.229195	-0.312427	8
H	-1.947064	0.066575	-1.083037	1
H	-2.052875	0.951175	0.446893	1
H	-2.162575	-0.821165	0.432343	1
H	1.216176	-0.485135	1.629153	1
H	-0.310674	-0.660845	2.133873	1
H	0.102206	-1.310225	-1.672727	1
H	1.504845	-1.381975	-0.530917	1
H	0.222235	1.189395	-1.669347	1
H	1.744705	1.468745	0.620383	1
Es	0.198415	0.479138	-0.274682	99
Es	0.701169	0.661047	-0.851620	99
Es	1.443274	1.013882	-0.494597	99
Es	-1.842480	0.056608	-0.746270	99
Es	0.378594	1.021955	-1.405832	99
Es	0.306432	0.275836	1.694353	99
Es	2.092010	0.998143	-0.296710	99
Es	0.098505	-0.085136	0.956226	99
Es	0.156999	-0.624254	-0.282815	99
Es	1.969336	1.483881	-0.482187	99
Es	1.793114	1.355433	0.180623	99
Es	-0.175046	-0.053402	0.162106	99
Es	-1.999352	-0.549929	0.290496	99
Es	0.778958	-0.107505	-1.004576	99
Es	-0.921507	-0.010559	0.068911	99
Es	-1.924857	0.659730	0.297293	99
Es	1.907472	1.229126	-0.312229	99
Es	0.291031	-0.059323	1.570001	99
Es	-0.076770	-0.431581	1.895443	99
Es	1.214116	-1.197703	-0.624057	99
Es	0.265020	-1.154405	-1.407391	99
Es	-1.666672	0.041614	-0.024596	99
Es	0.625041	-0.836095	-0.850044	99
Es	0.834203	-0.329305	1.588606	99
39
Properties=species:S:1:pos:R:3:Z:I:1 energy=-286.07605335829555 field_type=dipole dipole="0.000000 0.000000 0.000000" charge=0
C	-1.666705	0.041625	-0.024597	6
C	-0.175184	-0.053385	0.162073	6
N	0.291036	-0.058855	1.570223	7
C	0.625096	-0.836235	-0.850097	6
C	0.701005	0.661115	-0.851787	6
O	1.907776	1.229195	-0.312427	8
H	-1.947064	0.066575	-1.083037	1
H	-2.052875	0.951175	0.446893	1
H	-2.162575	-0.821165	0.432343	1
H	1.216176	-0.485135	1.629153	1
H	-0.310674	-0.660845	2.133873	1
H	0.102206	-1.310225	-1.672727	1
H	1.504845	-1.381975	-0.530917	1
H	0.222235	1.189395	-1.669347	1
H	1.744705	1.468745	0.620383	1
Es	0.306594	0.275900	1.694193	99
Es	1.792610	1.355003	0.180782	99
Es	-1.924902	0.659738	0.297408	99
Es	0.265250	-1.154465	-1.407410	99
Es	-0.921510	-0.010574	0.068900	99
Es	0.778981	-0.107557	-1.004730	99
Es	0.701170	0.661049	-0.851620	99
Es	0.625051	-0.836096	-0.850046	99
Es	-1.999350	-0.549970	0.290341	99
Es	2.092423	0.998916	-0.296805	99
Es	0.378621	1.021935	-1.405712	99
Es	0.198430	0.479197	-0.274619	99
Es	-1.666671	0.041615	-0.024596	99
Es	1.907412	1.229188	-0.312248	99
Es	1.968650	1.484328	-0.482381	99
Es	0.834071	-0.329348	1.588598	99
Es	1.444084	1.012992	-0.494552	99
Es	0.291044	-0.059359	1.569987	99
Es	-0.175046	-0.053400	0.162107	99
Es	0.156809	-0.624410	-0.282681	99
Es	1.214058	-1.197499	-0.624076	99
Es	-1.842414	0.056684	-0.746254	99
Es	-0.076788	-0.431399	1.895657	99
Es	0.098423	-0.085272	0.956208	99
39
Properties=species:S:1:pos:R:3:Z:I:1 energy=-286.07605335829555 field_type=dipole dipole="0.000000 0.000000 0.000000" charge=0
C	-1.666705	0.041625	-0.024597	6
C	-0.175184	-0.053385	0.162073	6
N	0.291036	-0.058855	1.570223	7
C	0.625096	-0.836235	-0.850097	6
C	0.701005	0.661115	-0.851787	6
O	1.907776	1.229195	-0.312427	8
H	-1.947064	0.066575	-1.083037	1
H	-2.052875	0.951175	0.446893	1
H	-2.162575	-0.821165	0.432343	1
H	1.216176	-0.485135	1.629153	1
H	-0.310674	-0.660845	2.133873	1
H	0.102206	-1.310225	-1.672727	1
H	1.504845	-1.381975	-0.530917	1
H	0.222235	1.189395	-1.669347	1
H	1.744705	1.468745	0.620383	1
Es	-0.076838	-0.431469	1.895684	99
Es	0.156701	-0.624372	-0.282372	99
Es	1.213923	-1.197432	-0.624280	99
Es	0.098497	-0.085441	0.956245	99
Es	-1.924798	0.659814	0.297412	99
Es	1.966389	1.484902	-0.481859	99
Es	1.444337	1.012462	-0.494098	99
Es	0.625046	-0.836094	-0.850051	99
Es	-1.842387	0.056663	-0.746266	99
Es	-0.921600	-0.010548	0.068768	99
Es	0.306418	0.275870	1.694040	99
Es	-1.666671	0.041614	-0.024596	99
Es	1.907597	1.229174	-0.312290	99
Es	-1.999305	-0.550050	0.290448	99
Es	0.779235	-0.107585	-1.005105	99
Es	1.792969	1.354470	0.181097	99
Es	0.198407	0.479114	-0.274571	99
Es	0.291030	-0.059343	1.569984	99
Es	0.265276	-1.154435	-1.407275	99
Es	2.093827	0.999395	-0.298044	99
Es	0.834164	-0.329117	1.588730	99
Es	-0.175046	-0.053397	0.162108	99
Es	0.378660	1.021951	-1.405639	99
Es	0.701170	0.661048	-0.851619	99
39
Properties=species:S:1:pos:R:3:Z:I:1 energy=-286.07605335829555 field_type=dipole dipole="0.000000 0.000000 0.000000" charge=0
C	-1.666705	0.041625	-0.024597	6
C	-0.175184	-0.053385	0.162073	6
N	0.291036	-0.058855	1.570223	7
C	0.625096	-0.836235	-0.850097	6
C	0.701005	0.661115	-0.851787	6
O	1.907776	1.229195	-0.312427	8
H	-1.947064	0.066575	-1.083037	1
H	-2.052875	0.951175	0.446893	1
H	-2.162575	-0.821165	0.432343	1
H	1.216176	-0.485135	1.629153	1
H	-0.310674	-0.660845	2.133873	1
H	0.102206	-1.310225	-1.672727	1
H	1.504845	-1.381975	-0.530917	1
H	0.222235	1.189395	-1.669347	1
H	1.744705	1.468745	0.620383	1
Es	0.701164	0.661046	-0.851615	99
Es	0.156710	-0.624373	-0.282511	99
Es	1.907545	1.229170	-0.312271	99
Es	-1.999176	-0.550060	0.290270	99
Es	0.265364	-1.154366	-1.407494	99
Es	0.198195	0.479288	-0.274510	99
Es	-1.842336	0.056632	-0.746232	99
Es	1.792385	1.355768	0.180514	99
Es	-1.924952	0.659876	0.297558	99
Es	2.090569	0.998172	-0.295454	99
Es	0.306838	0.275801	1.693657	99
Es	-0.077122	-0.431060	1.896072	99
Es	0.378759	1.021871	-1.405642	99
Es	1.970365	1.483950	-0.483911	99
Es	1.444181	1.013312	-0.494102	99
Es	0.834037	-0.329381	1.588606	99
Es	0.291043	-0.059384	1.569978	99
Es	-0.921616	-0.010587	0.068800	99
Es	0.625046	-0.836094	-0.850050	99
Es	0.098521	-0.085393	0.956381	99
Es	0.779216	-0.107786	-1.004892	99
Es	-1.666672	0.041614	-0.024595	99
Es	1.213983	-1.197420	-0.624209	99
Es	-0.175045	-0.053401	0.162104	99
39
Properties=species:S:1:pos:R:3:Z:I:1 energy=-286.07605335829555 field_type=dipole dipole="0.000000 0.000000 0.000000" charge=0
C	-1.666705	0.041625	-0.024597	6
C	-0.175184	-0.053385	0.162073	6
N	0.291036	-0.058855	1.570223	7
C	0.625096	-0.836235	-0.850097	6
C	0.701005	0.661115	-0.851787	6
O	1.907776	1.229195	-0.312427	8
H	-1.947064	0.066575	-1.083037	1
H	-2.052875	0.951175	0.446893	1
H	-2.162575	-0.821165	0.432343	1
H	1.216176	-0.485135	1.629153	1
H	-0.310674	-0.660845	2.133873	1
H	0.102206	-1.310225	-1.672727	1
H	1.504845	-1.381975	-0.530917	1
H	0.222235	1.189395	-1.669347	1
H	1.744705	1.468745	0.620383	1
Es	0.098629	-0.085227	0.956295	99
Es	-1.999261	-0.550089	0.290309	99
Es	1.213749	-1.197288	-0.624422	99
Es	1.907467	1.229149	-0.312254	99
Es	2.094158	0.998917	-0.298277	99
Es	-1.924887	0.659884	0.297504	99
Es	1.965918	1.484882	-0.482313	99
Es	1.444761	1.012767	-0.493525	99
Es	1.792762	1.354685	0.181137	99
Es	-0.921569	-0.010708	0.068829	99
Es	-1.666673	0.041615	-0.024596	99
Es	0.378826	1.021807	-1.405665	99
Es	0.291045	-0.059362	1.569994	99
Es	0.156712	-0.624363	-0.282166	99
Es	0.306701	0.275850	1.693996	99
Es	0.833857	-0.329107	1.588612	99
Es	-0.077022	-0.431590	1.895809	99
Es	-0.175046	-0.053399	0.162108	99
Es	0.625044	-0.836093	-0.850050	99
Es	-1.842250	0.056657	-0.746260	99
Es	0.198066	0.479202	-0.274445	99
Es	0.701168	0.661033	-0.851623	99
Es	0.779481	-0.107617	-1.005183	99
Es	0.265365	-1.154411	-1.407365	99
39
Properties=species:S:1:pos:R:3:Z:I:1 energy=-286.07605335829555 field_type=dipole dipole="0.000000 0.000000 0.000000" charge=0
C	-1.666705	0.041625	-0.024597	6
C	-0.175184	-0.053385	0.162073	6
N	0.291036	-0.058855	1.570223	7
C	0.625096	-0.836235	-0.850097	6
C	0.701005	0.661115	-0.851787	6
O	1.907776	1.229195	-0.312427	8
H	-1.947064	0.066575	-1.083037	1
H	-2.052875	0.951175	0.446893	1
H	-2.162575	-0.821165	0.432343	1
H	1.216176	-0.485135	1.629153	1
H	-0.310674	-0.660845	2.133873	1
H	0.102206	-1.310225	-1.672727	1
H	1.504845	-1.381975	-0.530917	1
H	0.222235	1.189395	-1.669347	1
H	1.744705	1.468745	0.620383	1
Es	0.265452	-1.154367	-1.407394	99
Es	-1.842295	0.056645	-0.746314	99
Es	-1.666672	0.041614	-0.024596	99
Es	1.445194	1.011468	-0.492852	99
Es	-1.999153	-0.550062	0.290276	99
Es	1.967750	1.483590	-0.484799	99
Es	-1.924865	0.659911	0.297637	99
Es	-0.175047	-0.053398	0.162107	99
Es	0.098482	-0.085174	0.956398	99
Es	-0.921658	-0.010625	0.068805	99
Es	1.213880	-1.197322	-0.624347	99
Es	2.092238	0.999329	-0.295913	99
Es	0.779404	-0.107724	-1.005146	99
Es	0.291038	-0.059369	1.569980	99
Es	0.198097	0.479196	-0.274355	99
Es	0.156601	-0.624365	-0.282319	99
Es	0.701168	0.661045	-0.851620	99
Es	1.792372	1.356893	0.180581	99
Es	0.306973	0.275457	1.693543	99
Es	0.625049	-0.836091	-0.850054	99
Es	1.907456	1.229099	-0.312283	99
Es	0.834066	-0.329352	1.588546	99
Es	0.378797	1.021825	-1.405657	99
Es	-0.077325	-0.431028	1.896228	99
39
Properties=species:S:1:pos:R:3:Z:I:1 energy=-286.07605335829555 field_type=dipole dipole="0.000000 0.000000 0.000000" charge=0
C	-1.666705	0.041625	-0.024597	6
C	-0.175184	-0.053385	0.162073	6
N	0.291036	-0.058855	1.570223	7
C	0.625096	-0.836235	-0.850097	6
C	0.701005	0.661115	-0.851787	6
O	1.907776	1.229195	-0.312427	8
H	-1.947064	0.066575	-1.083037	1
H	-2.052875	0.951175	0.446893	1
H	-2.162575	-0.821165	0.432343	1
H	1.216176	-0.485135	1.629153	1
H	-0.310674	-0.660845	2.133873	1
H	0.102206	-1.310225	-1.672727	1
H	1.504845	-1.381975	-0.530917	1
H	0.222235	1.189395	-1.669347	1
H	1.744705	1.468745	0.620383	1
Es	-0.921784	-0.010678	0.068763	99
Es	1.444677	1.012743	-0.493711	99
Es	0.701175	0.661057	-0.851619	99
Es	0.625045	-0.836093	-0.850048	99
Es	0.378828	1.021792	-1.405436	99
Es	0.307286	0.275624	1.693358	99
Es	0.156659	-0.624565	-0.282245	99
Es	-1.666671	0.041615	-0.024595	99
Es	0.833692	-0.329312	1.588484	99
Es	1.792943	1.354359	0.181365	99
Es	0.779516	-0.107677	-1.005421	99
Es	1.213756	-1.197126	-0.624462	99
Es	0.291035	-0.059351	1.569989	99
Es	0.265575	-1.154424	-1.407391	99
Es	1.966406	1.484952	-0.482497	99
Es	-1.999249	-0.550139	0.290296	99
Es	2.093386	0.999120	-0.298235	99
Es	-1.842112	0.056654	-0.746310	99
Es	-0.175045	-0.053401	0.162105	99
Es	1.907566	1.229182	-0.312272	99
Es	-1.924770	0.660027	0.297592	99
Es	-0.077494	-0.431092	1.896426	99
Es	0.098623	-0.085311	0.956479	99
Es	0.197958	0.479239	-0.274163	99
39
Properties=species:S:1:pos:R:3:Z:I:1 energy=-286.07605335829555 field_type=dipole dipole="0.000000 0.000000 0.000000" charge=0
C	-1.666705	0.041625	-0.024597	6
C	-0.175184	-0.053385	0.162073	6
N	0.291036	-0.058855	1.570223	7
C	0.625096	-0.836235	-0.850097	6
C	0.701005	0.661115	-0.851787	6
O	1.907776	1.229195	-0.312427	8
H	-1.947064	0.066575	-1.083037	1
H	-2.052875	0.951175	0.446893	1
H	-2.162575	-0.821165	0.432343	1
H	1.216176	-0.485135	1.629153	1
H	-0.310674	-0.660845	2.133873	1
H	0.102206	-1.310225	-1.672727	1
H	1.504845	-1.381975	-0.530917	1
H	0.222235	1.189395	-1.669347	1
H	1.744705	1.468745	0.620383	1
Es	-0.077399	-0.430810	1.896582	99
Es	-1.842277	0.056665	-0.746220	99
Es	0.156484	-0.624506	-0.282162	99
Es	1.968899	1.483776	-0.484148	99
Es	-1.999070	-0.550140	0.290148	99
Es	0.291042	-0.059364	1.569986	99
Es	0.265603	-1.154463	-1.407276	99
Es	1.907586	1.229178	-0.312274	99
Es	-1.924927	0.659987	0.297770	99
Es	0.701170	0.661042	-0.851622	99
Es	0.198014	0.479300	-0.274258	99
Es	2.091380	0.998406	-0.296058	99
Es	0.833687	-0.329370	1.588570	99
Es	0.779614	-0.107773	-1.005560	99
Es	0.378908	1.021775	-1.405469	99
Es	1.213680	-1.197165	-0.624397	99
Es	-0.921655	-0.010560	0.068695	99
Es	-1.666673	0.041615	-0.024596	99
Es	1.792025	1.356044	0.180840	99
Es	1.445076	1.012922	-0.493695	99
Es	0.098483	-0.085321	0.956223	99
Es	0.625046	-0.836094	-0.850051	99
Es	-0.175047	-0.053400	0.162107	99
Es	0.307352	0.275452	1.693317	99
39
Properties=species:S:1:pos:R:3:Z:I:1 energy=-286.07605335829555 field_type=dipole dipole="0.000000 0.000000 0.000000" charge=0
C	-1.666705	0.041625	-0.024597	6
C	-0.175184	-0.053385	0.162073	6
N	0.291036	-0.058855	1.570223	7
C	0.625096	-0.836235	-0.850097	6
C	0.701005	0.661115	-0.851787	6
O	1.907776	1.229195	-0.312427	8
H	-1.947064	0.066575	-1.083037	1
H	-2.052875	0.951175	0.446893	1
H	-2.162575	-0.821165	0.432343	1
H	1.216176	-0.485135	1.629153	1
H	-0.310674	-0.660845	2.133873	1
H	0.102206	-1.310225	-1.672727	1
H	1.504845	-1.381975	-0.530917	1
H	0.222235	1.189395	-1.669347	1
H	1.744705	1.468745	0.620383	1
Es	0.779604	-0.107822	-1.005392	99
Es	0.307464	0.275860	1.693452	99
Es	0.379047	1.021616	-1.405576	99
Es	1.968895	1.483874	-0.483918	99
Es	-0.175046	-0.053400	0.162108	99
Es	0.265682	-1.154398	-1.407332	99
Es	-0.921703	-0.010638	0.068663	99
Es	-1.666673	0.041615	-0.024596	99
Es	1.213658	-1.197117	-0.624469	99
Es	1.907472	1.229149	-0.312224	99
Es	0.291046	-0.059372	1.569978	99
Es	0.197774	0.479511	-0.274138	99
Es	1.791686	1.355868	0.180838	99
Es	0.625046	-0.836107	-0.850049	99
Es	-0.077400	-0.430932	1.896413	99
Es	0.833446	-0.329518	1.588499	99
Es	1.445224	1.013266	-0.493871	99
Es	0.701168	0.661047	-0.851618	99
Es	-1.842239	0.056657	-0.746274	99
Es	-1.924837	0.659983	0.297676	99
Es	2.091694	0.998172	-0.296188	99
Es	-1.999114	-0.550156	0.290274	99
Es	0.098548	-0.085511	0.956391	99
Es	0.156563	-0.624453	-0.282197	99
39
Properties=species:S:1:pos:R:3:Z:I:1 energy=-286.07605335829555 field_type=dipole dipole="0.000000 0.000000 0.000000" charge=0
C	-1.666705	0.041625	-0.024597	6
C	-0.175184	-0.053385	0.162073	6
N	0.291036	-0.058855	1.570223	7
C	0.625096	-0.836235	-0.850097	6
C	0.701005	0.661115	-0.851787	6
O	1.907776	1.229195	-0.312427	8
H	-1.947064	0.066575	-1.083037	1
H	-2.052875	0.951175	0.446893	1
H	-2.162575	-0.821165	0.432343	1
H	1.216176	-0.485135	1.629153	1
H	-0.310674	-0.660845	2.133873	1
H	0.102206	-1.310225	-1.672727	1
H	1.504845	-1.381975	-0.530917	1
H	0.222235	1.189395	-1.669347	1
H	1.744705	1.468745	0.620383	1
Es	0.307588	0.275723	1.693032	99
Es	0.098577	-0.085652	0.956558	99
Es	1.213761	-1.197143	-0.624469	99
Es	-1.924854	0.659990	0.297678	99
Es	2.090192	0.998213	-0.294760	99
Es	0.779578	-0.107965	-1.005536	99
Es	1.445442	1.012491	-0.492963	99
Es	0.265614	-1.154400	-1.407334	99
Es	-0.921676	-0.010511	0.068686	99
Es	0.833603	-0.329705	1.588576	99
Es	-0.175044	-0.053386	0.162108	99
Es	0.378990	1.021705	-1.405468	99
Es	0.156546	-0.624333	-0.282260	99
Es	1.970021	1.483146	-0.485932	99
Es	1.907465	1.229200	-0.312240	99