42
Properties=species:S:1:pos:R:3:Z:I:1 energy=-287.2922583064605 field_type=dipole dipole="0.000000 0.000000 0.000000" charge=0
C	-1.796992	-0.319050	-0.247007	6
C	-0.270242	-0.327390	-0.197277	6
C	0.214118	-1.161640	0.990103	6
O	0.206018	-0.954710	-1.394937	8
C	0.277838	1.120550	-0.161737	6
N	1.736208	1.148930	-0.359697	7
H	-2.156042	0.220560	-1.131057	1
H	-2.226692	0.150100	0.644383	1
H	-2.191822	-1.338390	-0.328477	1
H	-0.080902	-0.712000	1.944093	1
H	1.303158	-1.281100	0.981363	1
H	-0.199222	-2.176280	0.944843	1
H	1.096268	-0.568270	-1.538117	1
H	0.017548	1.617500	0.779463	1
H	-0.166212	1.697570	-0.981017	1
H	2.196758	0.761370	0.464213	1
H	2.040208	2.122250	-0.409137	1
Es	0.960586	-1.228796	0.983401	99
Es	-0.020606	-0.739502	0.417709	99
Es	0.040930	-0.706458	-0.938605	99
Es	1.908299	1.738292	-0.376443	99
Es	0.214126	-1.161624	0.990118	99
Es	-2.081537	0.003487	0.366254	99
Es	-0.270169	-0.327460	-0.197434	99
Es	0.013163	0.405766	-0.167398	99
Es	-2.058617	-1.011481	-0.293694	99
Es	1.828386	0.959745	-0.657054	99
Es	-0.072309	-1.844122	0.958554	99
Es	0.028768	-0.847277	-1.622663	99
Es	0.278002	1.120535	-0.161743	99
Es	0.091395	1.457427	0.493114	99
Es	2.001917	0.926051	0.150008	99
Es	1.113016	1.143488	-0.249947	99
Es	-1.041606	-0.316811	-0.216052	99
Es	-1.796979	-0.319039	-0.246988	99
Es	-0.027193	1.514388	-0.720302	99
Es	1.736068	1.149175	-0.359250	99
Es	0.234468	-1.255351	-1.331547	99
Es	-2.036312	0.056390	-0.843678	99
Es	0.011183	-0.846716	1.641763	99
Es	0.206105	-0.954595	-1.394810	99
Es	0.674020	-0.751349	-1.455902	99
42
Properties=species:S:1:pos:R:3:Z:I:1 energy=-287.2922583064605 field_type=dipole dipole="0.000000 0.000000 0.000000" charge=0
C	-1.796992	-0.319050	-0.247007	6
C	-0.270242	-0.327390	-0.197277	6
C	0.214118	-1.161640	0.990103	6
O	0.206018	-0.954710	-1.394937	8
C	0.277838	1.120550	-0.161737	6
N	1.736208	1.148930	-0.359697	7
H	-2.156042	0.220560	-1.131057	1
H	-2.226692	0.150100	0.644383	1
H	-2.191822	-1.338390	-0.328477	1
H	-0.080902	-0.712000	1.944093	1
H	1.303158	-1.281100	0.981363	1
H	-0.199222	-2.176280	0.944843	1
H	1.096268	-0.568270	-1.538117	1
H	0.017548	1.617500	0.779463	1
H	-0.166212	1.697570	-0.981017	1
H	2.196758	0.761370	0.464213	1
H	2.040208	2.122250	-0.409137	1
Es	0.206209	-0.954532	-1.394793	99
Es	0.232765	-1.256317	-1.332745	99
Es	-2.059024	-1.011886	-0.293980	99
Es	0.214126	-1.161623	0.990118	99
Es	0.278002	1.120535	-0.161744	99
Es	-0.026856	1.514198	-0.719887	99
Es	-0.072699	-1.844591	0.958398	99
Es	1.736043	1.149190	-0.359245	99
Es	0.029204	-0.846077	-1.620709	99
Es	0.011276	-0.846423	1.641556	99
Es	0.960650	-1.228461	0.983213	99
Es	0.674805	-0.751231	-1.456600	99
Es	-0.270167	-0.327460	-0.197435	99
Es	0.091246	1.457714	0.492988	99
Es	0.041234	-0.706925	-0.938621	99
Es	0.013202	0.405709	-0.167421	99
Es	2.001747	0.926213	0.149081	99
Es	-2.036014	0.056384	-0.843107	99
Es	-2.081497	0.003716	0.366078	99
Es	1.908605	1.738551	-0.376012	99
Es	-1.796979	-0.319039	-0.246988	99
Es	-0.020567	-0.739676	0.417885	99
Es	1.828393	0.959344	-0.657405	99
Es	1.112979	1.143663	-0.249174	99
Es	-1.041579	-0.316811	-0.216039	99
42
Properties=species:S:1:pos:R:3:Z:I:1 energy=-287.2922583064605 field_type=dipole dipole="0.000000 0.000000 0.000000" charge=0
C	-1.796992	-0.319050	-0.247007	6
C	-0.270242	-0.327390	-0.197277	6
C	0.214118	-1.161640	0.990103	6
O	0.206018	-0.954710	-1.394937	8
C	0.277838	1.120550	-0.161737	6
N	1.736208	1.148930	-0.359697	7
H	-2.156042	0.220560	-1.131057	1
H	-2.226692	0.150100	0.644383	1
H	-2.191822	-1.338390	-0.328477	1
H	-0.080902	-0.712000	1.944093	1
H	1.303158	-1.281100	0.981363	1
H	-0.199222	-2.176280	0.944843	1
H	1.096268	-0.568270	-1.538117	1
H	0.017548	1.617500	0.779463	1
H	-0.166212	1.697570	-0.981017	1
H	2.196758	0.761370	0.464213	1
H	2.040208	2.122250	-0.409137	1
Es	0.013228	0.405581	-0.167374	99
Es	0.040932	-0.707389	-0.938209	99
Es	0.675041	-0.750678	-1.457415	99
Es	-0.270167	-0.327460	-0.197433	99
Es	0.960682	-1.228334	0.983271	99
Es	-0.020373	-0.739723	0.417826	99
Es	0.091175	1.457836	0.492869	99
Es	-0.026748	1.514088	-0.719725	99
Es	-2.059205	-1.012048	-0.293964	99
Es	0.230874	-1.258229	-1.335471	99
Es	2.001192	0.926857	0.149224	99
Es	-2.081525	0.004000	0.365942	99
Es	0.031193	-0.844283	-1.617646	99
Es	-0.072799	-1.844737	0.958309	99
Es	0.214126	-1.161624	0.990118	99
Es	0.206128	-0.954540	-1.394756	99
Es	-2.035917	0.056132	-0.842855	99
Es	0.011161	-0.846278	1.641452	99
Es	-1.796979	-0.319039	-0.246988	99
Es	-1.041574	-0.316710	-0.216028	99
Es	1.828794	0.958779	-0.656466	99
Es	1.112733	1.143585	-0.249602	99
Es	0.278003	1.120535	-0.161744	99
Es	1.909067	1.738682	-0.376637	99
Es	1.736061	1.149160	-0.359289	99
42
Properties=species:S:1:pos:R:3:Z:I:1 energy=-287.2922583064605 field_type=dipole dipole="0.000000 0.000000 0.000000" charge=0
C	-1.796992	-0.319050	-0.247007	6
C	-0.270242	-0.327390	-0.197277	6
C	0.214118	-1.161640	0.990103	6
O	0.206018	-0.954710	-1.394937	8
C	0.277838	1.120550	-0.161737	6
N	1.736208	1.148930	-0.359697	7
H	-2.156042	0.220560	-1.131057	1
H	-2.226692	0.150100	0.644383	1
H	-2.191822	-1.338390	-0.328477	1
H	-0.080902	-0.712000	1.944093	1
H	1.303158	-1.281100	0.981363	1
H	-0.199222	-2.176280	0.944843	1
H	1.096268	-0.568270	-1.538117	1
H	0.017548	1.617500	0.779463	1
H	-0.166212	1.697570	-0.981017	1
H	2.196758	0.761370	0.464213	1
H	2.040208	2.122250	-0.409137	1
Es	1.829051	0.959024	-0.656308	99
Es	0.013111	0.405657	-0.167435	99
Es	1.736056	1.149186	-0.359245	99
Es	0.206159	-0.954536	-1.394793	99
Es	0.091145	1.457944	0.492861	99
Es	-0.020256	-0.739739	0.417861	99
Es	-2.059396	-1.012286	-0.294001	99
Es	-2.035764	0.056049	-0.842621	99
Es	1.112496	1.143384	-0.249881	99
Es	-0.072942	-1.844894	0.958150	99
Es	0.231849	-1.256595	-1.335230	99
Es	0.041016	-0.708441	-0.937531	99
Es	-2.081569	0.004142	0.365684	99
Es	2.001088	0.926755	0.148936	99
Es	0.675310	-0.750145	-1.457978	99
Es	0.011173	-0.846068	1.641515	99
Es	-0.270168	-0.327460	-0.197434	99
Es	-0.026592	1.514035	-0.719488	99
Es	0.960607	-1.228262	0.983136	99
Es	0.278002	1.120536	-0.161742	99
Es	-1.041504	-0.316787	-0.215906	99
Es	-1.796979	-0.319039	-0.246988	99
Es	1.909176	1.738786	-0.376352	99
Es	0.214126	-1.161624	0.990115	99
Es	0.029908	-0.845459	-1.617914	99
42
Properties=species:S:1:pos:R:3:Z:I:1 energy=-287.2922583064605 field_type=dipole dipole="0.000000 0.000000 0.000000" charge=0
C	-1.796992	-0.319050	-0.247007	6
C	-0.270242	-0.327390	-0.197277	6
C	0.214118	-1.161640	0.990103	6
O	0.206018	-0.954710	-1.394937	8
C	0.277838	1.120550	-0.161737	6
N	1.736208	1.148930	-0.359697	7
H	-2.156042	0.220560	-1.131057	1
H	-2.226692	0.150100	0.644383	1
H	-2.191822	-1.338390	-0.328477	1
H	-0.080902	-0.712000	1.944093	1
H	1.303158	-1.281100	0.981363	1
H	-0.199222	-2.176280	0.944843	1
H	1.096268	-0.568270	-1.538117	1
H	0.017548	1.617500	0.779463	1
H	-0.166212	1.697570	-0.981017	1
H	2.196758	0.761370	0.464213	1
H	2.040208	2.122250	-0.409137	1
Es	2.000772	0.927124	0.148617	99
Es	-1.041558	-0.316701	-0.215978	99
Es	0.013143	0.405631	-0.167388	99
Es	1.736050	1.149175	-0.359243	99
Es	0.214126	-1.161624	0.990118	99
Es	-1.796978	-0.319038	-0.246987	99
Es	-0.073041	-1.845036	0.958136	99
Es	0.675264	-0.749807	-1.458093	99
Es	0.029890	-0.847253	-1.618588	99
Es	1.112588	1.142973	-0.249783	99
Es	0.091101	1.458095	0.492802	99
Es	0.232611	-1.256355	-1.333408	99
Es	-0.270167	-0.327461	-0.197434	99
Es	0.206150	-0.954538	-1.394784	99
Es	-2.035713	0.055965	-0.842439	99
Es	0.011152	-0.846070	1.641337	99
Es	1.829215	0.958615	-0.655993	99
Es	-2.059416	-1.012371	-0.294122	99
Es	-2.081618	0.004212	0.365719	99
Es	0.960727	-1.228083	0.983153	99
Es	-0.026510	1.513903	-0.719438	99
Es	0.278001	1.120535	-0.161745	99
Es	0.040290	-0.707214	-0.938531	99
Es	-0.020259	-0.739767	0.417947	99
Es	1.909282	1.739253	-0.376462	99
42
Properties=species:S:1:pos:R:3:Z:I:1 energy=-287.2922583064605 field_type=dipole dipole="0.000000 0.000000 0.000000" charge=0
C	-1.796992	-0.319050	-0.247007	6
C	-0.270242	-0.327390	-0.197277	6
C	0.214118	-1.161640	0.990103	6
O	0.206018	-0.954710	-1.394937	8
C	0.277838	1.120550	-0.161737	6
N	1.736208	1.148930	-0.359697	7
H	-2.156042	0.220560	-1.131057	1
H	-2.226692	0.150100	0.644383	1
H	-2.191822	-1.338390	-0.328477	1
H	-0.080902	-0.712000	1.944093	1
H	1.303158	-1.281100	0.981363	1
H	-0.199222	-2.176280	0.944843	1
H	1.096268	-0.568270	-1.538117	1
H	0.017548	1.617500	0.779463	1
H	-0.166212	1.697570	-0.981017	1
H	2.196758	0.761370	0.464213	1
H	2.040208	2.122250	-0.409137	1
Es	-0.020206	-0.739777	0.418006	99
Es	-0.026453	1.513854	-0.719297	99
Es	1.736070	1.149150	-0.359268	99
Es	-0.073147	-1.845153	0.958122	99
Es	2.000359	0.927479	0.148756	99
Es	0.091058	1.458126	0.492804	99
Es	-1.041629	-0.316762	-0.215964	99
Es	-1.796978	-0.319039	-0.246988	99
Es	-2.081668	0.004261	0.365789	99
Es	0.013101	0.405629	-0.167441	99
Es	0.040417	-0.707564	-0.938624	99
Es	0.278003	1.120535	-0.161744	99
Es	1.112564	1.143172	-0.249992	99
Es	0.231864	-1.256151	-1.333801	99
Es	0.206251	-0.954533	-1.394653	99
Es	-2.059458	-1.012461	-0.294317	99
Es	0.214126	-1.161624	0.990117	99
Es	-0.270168	-0.327460	-0.197435	99
Es	-2.035558	0.055980	-0.842291	99
Es	0.029841	-0.846869	-1.618403	99
Es	0.675839	-0.750047	-1.457926	99
Es	1.829392	0.958171	-0.655727	99
Es	0.011236	-0.845980	1.641301	99
Es	0.960699	-1.228022	0.983076	99
Es	1.909551	1.739248	-0.376689	99
42
Properties=species:S:1:pos:R:3:Z:I:1 energy=-287.2922583064605 field_type=dipole dipole="0.000000 0.000000 0.000000" charge=0
C	-1.796992	-0.319050	-0.247007	6
C	-0.270242	-0.327390	-0.197277	6
C	0.214118	-1.161640	0.990103	6
O	0.206018	-0.954710	-1.394937	8
C	0.277838	1.120550	-0.161737	6
N	1.736208	1.148930	-0.359697	7
H	-2.156042	0.220560	-1.131057	1
H	-2.226692	0.150100	0.644383	1
H	-2.191822	-1.338390	-0.328477	1
H	-0.080902	-0.712000	1.944093	1
H	1.303158	-1.281100	0.981363	1
H	-0.199222	-2.176280	0.944843	1
H	1.096268	-0.568270	-1.538117	1
H	0.017548	1.617500	0.779463	1
H	-0.166212	1.697570	-0.981017	1
H	2.196758	0.761370	0.464213	1
H	2.040208	2.122250	-0.409137	1
Es	0.013139	0.405584	-0.167454	99
Es	0.960684	-1.227979	0.983002	99
Es	0.206191	-0.954480	-1.394755	99
Es	-1.796979	-0.319039	-0.246988	99
Es	-2.081596	0.004314	0.365573	99
Es	-0.073247	-1.845237	0.958098	99
Es	1.829983	0.958781	-0.656096	99
Es	0.040532	-0.708875	-0.937664	99
Es	-2.035603	0.055919	-0.842083	99
Es	-1.041548	-0.316663	-0.215928	99
Es	0.091059	1.458190	0.492798	99
Es	-0.020165	-0.739786	0.417965	99
Es	2.000502	0.927346	0.148682	99
Es	1.909017	1.739221	-0.375934	99
Es	-0.026366	1.513825	-0.719169	99
Es	-0.270168	-0.327459	-0.197433	99
Es	1.112379	1.142720	-0.250375	99
Es	-2.059632	-1.012599	-0.294256	99
Es	0.214127	-1.161625	0.990119	99
Es	0.278002	1.120535	-0.161744	99
Es	0.011273	-0.845865	1.641278	99
Es	0.674658	-0.748347	-1.458467	99
Es	1.736054	1.149185	-0.359243	99
Es	0.234005	-1.255963	-1.334147	99
Es	0.028803	-0.847539	-1.618367	99
42
Properties=species:S:1:pos:R:3:Z:I:1 energy=-287.2922583064605 field_type=dipole dipole="0.000000 0.000000 0.000000" charge=0
C	-1.796992	-0.319050	-0.247007	6
C	-0.270242	-0.327390	-0.197277	6
C	0.214118	-1.161640	0.990103	6
O	0.206018	-0.954710	-1.394937	8
C	0.277838	1.120550	-0.161737	6
N	1.736208	1.148930	-0.359697	7
H	-2.156042	0.220560	-1.131057	1
H	-2.226692	0.150100	0.644383	1
H	-2.191822	-1.338390	-0.328477	1
H	-0.080902	-0.712000	1.944093	1
H	1.303158	-1.281100	0.981363	1
H	-0.199222	-2.176280	0.944843	1
H	1.096268	-0.568270	-1.538117	1
H	0.017548	1.617500	0.779463	1
H	-0.166212	1.697570	-0.981017	1
H	2.196758	0.761370	0.464213	1
H	2.040208	2.122250	-0.409137	1
Es	1.830104	0.958296	-0.656019	99
Es	-2.035471	0.056012	-0.842078	99
Es	0.041120	-0.708801	-0.937617	99
Es	2.000162	0.927674	0.148637	99
Es	-0.073180	-1.845321	0.958130	99
Es	0.206188	-0.954461	-1.394752	99
Es	-0.270169	-0.327458	-0.197432	99
Es	-0.020242	-0.739786	0.417968	99
Es	0.278002	1.120535	-0.161744	99
Es	0.091049	1.458179	0.492854	99
Es	-2.059704	-1.012572	-0.294376	99
Es	0.011248	-0.845912	1.641207	99
Es	0.675673	-0.749635	-1.458466	99
Es	1.736052	1.149191	-0.359238	99
Es	-0.026331	1.513835	-0.719109	99
Es	0.960728	-1.227828	0.983015	99
Es	-2.081648	0.004280	0.365562	99
Es	1.909194	1.739331	-0.376036	99
Es	-1.041569	-0.316842	-0.215826	99
Es	-1.796977	-0.319040	-0.246987	99
Es	0.214126	-1.161624	0.990118	99
Es	0.231571	-1.256600	-1.335342	99
Es	0.029675	-0.845686	-1.617185	99
Es	1.112409	1.142777	-0.250331	99
Es	0.013092	0.405617	-0.167540	99
42
Properties=species:S:1:pos:R:3:Z:I:1 energy=-287.2922583064605 field_type=dipole dipole="0.000000 0.000000 0.000000" charge=0
C	-1.796992	-0.319050	-0.247007	6
C	-0.270242	-0.327390	-0.197277	6
C	0.214118	-1.161640	0.990103	6
O	0.206018	-0.954710	-1.394937	8
C	0.277838	1.120550	-0.161737	6
N	1.736208	1.148930	-0.359697	7
H	-2.156042	0.220560	-1.131057	1
H	-2.226692	0.150100	0.644383	1
H	-2.191822	-1.338390	-0.328477	1
H	-0.080902	-0.712000	1.944093	1
H	1.303158	-1.281100	0.981363	1
H	-0.199222	-2.176280	0.944843	1
H	1.096268	-0.568270	-1.538117	1
H	0.017548	1.617500	0.779463	1
H	-0.166212	1.697570	-0.981017	1
H	2.196758	0.761370	0.464213	1
H	2.040208	2.122250	-0.409137	1
Es	-2.035580	0.055926	-0.842097	99
Es	2.000032	0.927802	0.148470	99
Es	0.675625	-0.749419	-1.457752	99
Es	0.231669	-1.256814	-1.335774	99
Es	-0.270167	-0.327460	-0.197434	99
Es	0.206186	-0.954449	-1.394750	99
Es	0.278002	1.120535	-0.161743	99
Es	1.909267	1.739407	-0.375958	99
Es	-0.020127	-0.739820	0.417967	99
Es	0.214127	-1.161623	0.990118	99
Es	1.830486	0.958483	-0.655600	99
Es	-1.041565	-0.316801	-0.215934	99
Es	0.090936	1.458171	0.492847	99
Es	0.013244	0.405654	-0.167560	99
Es	0.960651	-1.227882	0.983003	99
Es	-2.059744	-1.012627	-0.294165	99
Es	0.040098	-0.708851	-0.937732	99
Es	-1.796979	-0.319039	-0.246988	99
Es	-0.026339	1.513753	-0.719135	99
Es	1.112120	1.142482	-0.250580	99
Es	0.011260	-0.845815	1.641257	99
Es	-0.073248	-1.845342	0.958062	99
Es	-2.081493	0.004395	0.365514	99
Es	0.030579	-0.845669	-1.617348	99
Es	1.736063	1.149168	-0.359275	99
42
Properties=species:S:1:pos:R:3:Z:I:1 energy=-287.2922583064605 field_type=dipole dipole="0.000000 0.000000 0.000000" charge=0
C	-1.796992	-0.319050	-0.247007	6
C	-0.270242	-0.327390	-0.197277	6
C	0.214118	-1.161640	0.990103	6
O	0.206018	-0.954710	-1.394937	8
C	0.277838	1.120550	-0.161737	6
N	1.736208	1.148930	-0.359697	7
H	-2.156042	0.220560	-1.131057	1
H	-2.226692	0.150100	0.644383	1
H	-2.191822	-1.338390	-0.328477	1
H	-0.080902	-0.712000	1.944093	1
H	1.303158	-1.281100	0.981363	1
H	-0.199222	-2.176280	0.944843	1
H	1.096268	-0.568270	-1.538117	1
H	0.017548	1.617500	0.779463	1
H	-0.166212	1.697570	-0.981017	1
H	2.196758	0.761370	0.464213	1
H	2.040208	2.122250	-0.409137	1
Es	0.960645	-1.227723	0.982962	99
Es	0.011272	-0.845790	1.641207	99
Es	1.909453	1.739406	-0.376399	99
Es	-2.059675	-1.012622	-0.294225	99
Es	0.675933	-0.749452	-1.458506	99
Es	1.830068	0.958119	-0.655581	99
Es	0.029520	-0.846929	-1.617657	99
Es	0.232031	-1.255836	-1.334472	99
Es	-0.020187	-0.739844	0.418081	99
Es	2.000089	0.927838	0.148540	99
Es	0.278004	1.120537	-0.161744	99
Es	-2.035495	0.055877	-0.842137	99
Es	0.090976	1.458189	0.492835	99
Es	-0.026260	1.513803	-0.719037	99
Es	-0.270168	-0.327460	-0.197436	99
Es	0.040506	-0.708514	-0.938000	99
Es	-2.081631	0.004412	0.365519	99
Es	0.214126	-1.161623	0.990117	99
Es	1.736042	1.149205	-0.359215	99
Es	1.112281	1.142788	-0.250298	99
Es	-0.073310	-1.845501	0.957973	99
Es	-1.041577	-0.316783	-0.215869	99
Es	0.206214	-0.954500	-1.394713	99
Es	0.013226	0.405605	-0.167547	99
Es	-1.796977	-0.319039	-0.246987	99
42
Properties=species:S:1:pos:R:3:Z:I:1 energy=-287.2922583064605 field_type=dipole dipole="0.000000 0.000000 0.000000" charge=0
C	-1.796992	-0.319050	-0.247007	6
C	-0.270242	-0.327390	-0.197277	6
C	0.214118	-1.161640	0.990103	6
O	0.206018	-0.954710	-1.394937	8
C	0.277838	1.120550	-0.161737	6
N	1.736208	1.148930	-0.359697	7
H	-2.156042	0.220560	-1.131057	1
H	-2.226692	0.150100	0.644383	1
H	-2.191822	-1.338390	-0.328477	1
H	-0.080902	-0.712000	1.944093	1
H	1.303158	-1.281100	0.981363	1
H	-0.199222	-2.176280	0.944843	1
H	1.096268	-0.568270	-1.538117	1
H	0.017548	1.617500	0.779463	1
H	-0.166212	1.697570	-0.981017	1
H	2.196758	0.761370	0.464213	1
H	2.040208	2.122250	-0.409137	1
Es	1.999738	0.928267	0.148859	99
Es	1.909539	1.739349	-0.376659	99
Es	-0.026204	1.513737	-0.718927	99
Es	-1.796979	-0.319039	-0.246988	99
Es	0.013111	0.405604	-0.167582	99
Es	0.675547	-0.749362	-1.458415	99
Es	0.214126	-1.161623	0.990117	99
Es	-1.041499	-0.316690	-0.215918	99
Es	-2.059785	-1.012740	-0.294373	99
Es	0.011316	-0.845699	1.641262	99
Es	-2.035491	0.055893	-0.841855	99
Es	0.029711	-0.846513	-1.617559	99
Es	-0.270168	-0.327460	-0.197434	99
Es	0.278001	1.120535	-0.161744	99
Es	1.830742	0.958142	-0.654782	99
Es	-0.020073	-0.739929	0.418016	99
Es	0.206212	-0.954542	-1.394721	99
Es	0.232122	-1.256332	-1.334738	99
Es	1.736061	1.149184	-0.359243	99
Es	0.040558	-0.708396	-0.938009	99
Es	0.960607	-1.227834	0.982908	99
Es	-2.081581	0.004405	0.365512	99
Es	0.090972	1.458255	0.492900	99
Es	1.111873	1.142393	-0.251225	99
Es	-0.073352	-1.845441	0.958008	99
42
Properties=species:S:1:pos:R:3:Z:I:1 energy=-287.2922583064605 field_type=dipole dipole="0.000000 0.000000 0.000000" charge=0
C	-1.796992	-0.319050	-0.247007	6
C	-0.270242	-0.327390	-0.197277	6
C	0.214118	-1.161640	0.990103	6
O	0.206018	-0.954710	-1.394937	8
C	0.277838	1.120550	-0.161737	6
N	1.736208	1.148930	-0.359697	7
H	-2.156042	0.220560	-1.131057	1
H	-2.226692	0.150100	0.644383	1
H	-2.191822	-1.338390	-0.328477	1
H	-0.080902	-0.712000	1.944093	1
H	1.303158	-1.281100	0.981363	1
H	-0.199222	-2.176280	0.944843	1
H	1.096268	-0.568270	-1.538117	1
H	0.017548	1.617500	0.779463	1
H	-0.166212	1.697570	-0.981017	1
H	2.196758	0.761370	0.464213	1
H	2.040208	2.122250	-0.409137	1
Es	0.090961	1.458348	0.492843	99
Es	-1.041539	-0.316710	-0.215893	99
Es	-2.081615	0.004430	0.365515	99
Es	0.214126	-1.161623	0.990118	99
Es	1.112227	1.142866	-0.250474	99
Es	0.028737	-0.848670	-1.618222	99
Es	1.829952	0.958034	-0.655225	99
Es	0.675931	-0.748772	-1.458840	99
Es	0.278004	1.120535	-0.161744	99
Es	0.960548	-1.227725	0.982913	99
Es	-0.026130	1.513705	-0.718933	99
Es	-0.020142	-0.739881	0.417981	99
Es	1.909655	1.739411	-0.376716	99
Es	1.736058	1.149180	-0.359270	99
Es	-0.270166	-0.327459	-0.197436	99
Es	0.013176	0.405639	-0.167541	99
Es	0.233252	-1.254810	-1.333163	99
Es	0.011313	-0.845687	1.641255	99
Es	-0.073330	-1.845558	0.957957	99
Es	0.206149	-0.954517	-1.394804	99
Es	0.040084	-0.708469	-0.938337	99
Es	-2.059780	-1.012813	-0.294444	99
Es	-2.035412	0.055895	-0.841812	99
Es	2.000026	0.927858	0.148673	99
Es	-1.796980	-0.319039	-0.246988	99
42
Properties=species:S:1:pos:R:3:Z:I:1 energy=-287.2922583064605 field_type=dipole dipole="0.000000 0.000000 0.000000" charge=0
C	-1.796992	-0.319050	-0.247007	6
C	-0.270242	-0.327390	-0.197277	6
C	0.214118	-1.161640	0.990103	6
O	0.206018	-0.954710	-1.394937	8
C	0.277838	1.120550	-0.161737	6
N	1.736208	1.148930	-0.359697	7
H	-2.156042	0.220560	-1.131057	1
H	-2.226692	0.150100	0.644383	1
H	-2.191822	-1.338390	-0.328477	1
H	-0.080902	-0.712000	1.944093	1
H	1.303158	-1.281100	0.981363	1
H	-0.199222	-2.176280	0.944843	1
H	1.096268	-0.568270	-1.538117	1
H	0.017548	1.617500	0.779463	1
H	-0.166212	1.697570	-0.981017	1
H	2.196758	0.761370	0.464213	1
H	2.040208	2.122250	-0.409137	1
Es	0.040409	-0.708373	-0.938009	99
Es	1.736055	1.149194	-0.359230	99
Es	1.999538	0.928560	0.148995	99
Es	-2.059853	-1.012803	-0.294396	99
Es	0.091000	1.458280	0.492801	99
Es	0.960557	-1.227708	0.982897	99
Es	1.830766	0.957631	-0.655122	99
Es	0.232705	-1.255229	-1.333767	99
Es	0.675835	-0.749255	-1.458798	99
Es	-0.020141	-0.739846	0.417991	99
Es	-0.270166	-0.327461	-0.197437	99
Es	0.214126	-1.161623	0.990117	99
Es	-2.081535	0.004326	0.365419	99
Es	-0.073367	-1.845578	0.957922	99
Es	1.909431	1.739410	-0.376679	99
Es	-2.035490	0.055995	-0.841803	99
Es	0.011330	-0.845705	1.641247	99
Es	0.013173	0.405619	-0.167522	99
Es	0.029017	-0.847882	-1.618034	99
Es	1.112165	1.142581	-0.250993	99
Es	0.206206	-0.954482	-1.394729	99
Es	-1.796979	-0.319039	-0.246988	99
Es	0.278001	1.120535	-0.161745	99
Es	-0.026158	1.513765	-0.718866	99
Es	-1.041522	-0.316747	-0.215860	99
42
Properties=species:S:1:pos:R:3:Z:I:1 energy=-287.2922583064605 field_type=dipole dipole="0.000000 0.000000 0.000000" charge=0
C	-1.796992	-0.319050	-0.247007	6
C	-0.270242	-0.327390	-0.197277	6
C	0.214118	-1.161640	0.990103	6
O	0.206018	-0.954710	-1.394937	8
C	0.277838	1.120550	-0.161737	6
N	1.736208	1.148930	-0.359697	7
H	-2.156042	0.220560	-1.131057	1
H	-2.226692	0.150100	0.644383	1
H	-2.191822	-1.338390	-0.328477	1
H	-0.080902	-0.712000	1.944093	1
H	1.303158	-1.281100	0.981363	1
H	-0.199222	-2.176280	0.944843	1
H	1.096268	-0.568270	-1.538117	1
H	0.017548	1.617500	0.779463	1
H	-0.166212	1.697570	-0.981017	1
H	2.196758	0.761370	0.464213	1
H	2.040208	2.122250	-0.409137	1
Es	-1.796978	-0.319040	-0.246987	99
Es	-2.081550	0.004452	0.365428	99
Es	-1.041565	-0.316724	-0.215868	99
Es	0.206183	-0.954450	-1.394708	99
Es	-0.020064	-0.739874	0.417956	99
Es	-2.035481	0.055864	-0.841843	99
Es	1.112101	1.142426	-0.251035	99
Es	-0.073418	-1.845655	0.957968	99
Es	0.231410	-1.255145	-1.334529	99
Es	0.960510	-1.227690	0.982905	99
Es	-0.270168	-0.327460	-0.197434	99
Es	1.999462	0.928377	0.148719	99
Es	0.013227	0.405656	-0.167514	99
Es	0.676511	-0.750530	-1.457776	99
Es	0.011377	-0.845624	1.641195	99
Es	0.090966	1.458342	0.492823	99
Es	-2.059794	-1.012849	-0.294310	99
Es	0.214127	-1.161623	0.990118	99
Es	1.830720	0.957766	-0.654930	99
Es	0.029736	-0.846649	-1.618390	99
Es	-0.026146	1.513692	-0.718899	99
Es	0.040275	-0.708442	-0.937941	99
Es	0.278002	1.120535	-0.161744	99
Es	1.736041	1.149204	-0.359215	99
Es	1.909621	1.739606	-0.376578	99
42
Properties=species:S:1:pos:R:3:Z:I:1 energy=-287.2922583064605 field_type=dipole dipole="0.000000 0.000000 0.000000" charge=0
C	-1.796992	-0.319050	-0.247007	6
C	-0.270242	-0.327390	-0.197277	6
C	0.214118	-1.161640	0.990103	6
O	0.206018	-0.954710	-1.394937	8
C	0.277838	1.120550	-0.161737	6
N	1.736208	1.148930	-0.359697	7
H	-2.156042	0.220560	-1.131057	1
H	-2.226692	0.150100	0.644383	1
H	-2.191822	-1.338390	-0.328477	1
H	-0.080902	-0.712000	1.944093	1
H	1.303158	-1.281100	0.981363	1
H	-0.199222	-2.176280	0.944843	1
H	1.096268	-0.568270	-1.538117	1
H	0.017548	1.617500	0.779463	1
H	-0.166212	1.697570	-0.981017	1
H	2.196758	0.761370	0.464213	1
H	2.040208	2.122250	-0.409137	1
Es	1.909366	1.739610	-0.376315	99
Es	0.278003	1.120535	-0.161746	99
Es	1.736056	1.149191	-0.359244	99
Es	-0.020096	-0.739912	0.418008	99
Es	1.830730	0.957998	-0.655187	99
Es	0.013153	0.405634	-0.167566	99
Es	0.960562	-1.227616	0.982856	99
Es	-2.035414	0.055840	-0.841729	99
Es	-0.270168	-0.327459	-0.197433	99
Es	-2.081496	0.004551	0.365358	99
Es	0.040533	-0.709164	-0.937735	99
Es	-0.073423	-1.845687	0.957942	99
Es	0.206150	-0.954485	-1.394722	99
Es	0.233060	-1.254502	-1.333889	99
Es	0.090943	1.458407	0.492843	99
Es	-0.026054	1.513651	-0.718792	99
Es	1.999624	0.928228	0.148720	99
Es	0.028371	-0.847922	-1.618363	99
Es	-2.059902	-1.012971	-0.294318	99
Es	0.011368	-0.845636	1.641182	99
Es	-1.041577	-0.316699	-0.215883	99
Es	0.214126	-1.161624	0.990118	99
Es	0.676004	-0.749123	-1.458658	99
Es	1.112163	1.142358	-0.251046	99
Es	-1.796979	-0.319039	-0.246987	99
42
Properties=species:S:1:pos:R:3:Z:I:1 energy=-287.2922583064605 field_type=dipole dipole="0.000000 0.000000 0.000000" charge=0
C	-1.796992	-0.319050	-0.247007	6
C	-0.270242	-0.327390	-0.197277	6
C	0.214118	-1.161640	0.990103	6
O	0.206018	-0.954710	-1.394937	8
C	0.277838	1.120550	-0.161737	6
N	1.736208	1.148930	-0.359697	7
H	-2.156042	0.220560	-1.131057	1
H	-2.226692	0.150100	0.644383	1
H	-2.191822	-1.338390	-0.328477	1
H	-0.080902	-0.712000	1.944093	1
H	1.303158	-1.281100	0.981363	1
H	-0.199222	-2.176280	0.944843	1
H	1.096268	-0.568270	-1.538117	1
H	0.017548	1.617500	0.779463	1
H	-0.166212	1.697570	-0.981017	1
H	2.196758	0.761370	0.464213	1
H	2.040208	2.122250	-0.409137	1
Es	-1.796979	-0.319040	-0.246988	99
Es	-0.020072	-0.739855	0.417970	99
Es	0.013142	0.405618	-0.167552	99
Es	0.960478	-1.227636	0.982914	99
Es	-2.035351	0.055867	-0.841694	99
Es	0.675677	-0.748370	-1.459750	99
Es	1.909683	1.739681	-0.376415	99
Es	0.090959	1.458379	0.492765	99
Es	-1.041562	-0.316667	-0.215845	99
Es	-0.073414	-1.845725	0.957927	99
Es	0.206180	-0.954492	-1.394759	99
Es	1.830481	0.957987	-0.654997	99
Es	0.234515	-1.253332	-1.332611	99
Es	1.736051	1.149188	-0.359256	99
Es	-2.059895	-1.013011	-0.294408	99
Es	1.112040	1.142416	-0.250675	99
Es	-2.081544	0.004534	0.365359	99
Es	0.027486	-0.850214	-1.618599	99
Es	0.278005	1.120534	-0.161743	99
Es	0.040261	-0.708845	-0.937629	99
Es	-0.026028	1.513742	-0.718859	99
Es	-0.270167	-0.327460	-0.197433	99
Es	1.999661	0.928102	0.148384	99
Es	0.214125	-1.161623	0.990117	99
Es	0.011371	-0.845613	1.641187	99
42
Properties=species:S:1:pos:R:3:Z:I:1 energy=-287.2922583064605 field_type=dipole dipole="0.000000 0.000000 0.000000" charge=0
C	-1.796992	-0.319050	-0.247007	6
C	-0.270242	-0.327390	-0.197277	6
C	0.214118	-1.161640	0.990103	6
O	0.206018	-0.954710	-1.394937	8
C	0.277838	1.120550	-0.161737	6
N	1.736208	1.148930	-0.359697	7
H	-2.156042	0.220560	-1.131057	1
H	-2.226692	0.150100	0.644383	1
H	-2.191822	-1.338390	-0.328477	1
H	-0.080902	-0.712000	1.944093	1
H	1.303158	-1.281100	0.981363	1
H	-0.199222	-2.176280	0.944843	1
H	1.096268	-0.568270	-1.538117	1
H	0.017548	1.617500	0.779463	1
H	-0.166212	1.697570	-0.981017	1
H	2.196758	0.761370	0.464213	1
H	2.040208	2.122250	-0.409137	1
Es	0.206145	-0.954346	-1.394799	99
Es	0.214126	-1.161623	0.990117	99
Es	1.112086	1.142395	-0.251209	99
Es	1.999551	0.928255	0.148792	99
Es	-1.041574	-0.316654	-0.215867	99
Es	-2.035337	0.055911	-0.841613	99
Es	-1.796978	-0.319039	-0.246988	99
Es	-2.059925	-1.012967	-0.294516	99
Es	0.028094	-0.847930	-1.617757	99
Es	0.011344	-0.845564	1.641223	99
Es	0.013232	0.405596	-0.167555	99
Es	0.040976	-0.709473	-0.937440	99
Es	-0.073439	-1.845729	0.957867	99
Es	-0.270168	-0.327460	-0.197434	99
Es	-0.026057	1.513600	-0.718786	99
Es	1.736058	1.149187	-0.359248	99
Es	0.960510	-1.227591	0.982834	99
Es	0.232780	-1.254407	-1.334167	99
Es	0.676123	-0.749107	-1.459213	99
Es	-2.081554	0.004484	0.365424	99
Es	0.090927	1.458438	0.492844	99
Es	1.830594	0.957912	-0.654672	99
Es	-0.020060	-0.739930	0.418069	99
Es	1.909649	1.739669	-0.376743	99
Es	0.278001	1.120537	-0.161750	99
42
Properties=species:S:1:pos:R:3:Z:I:1 energy=-287.2922583064605 field_type=dipole dipole="0.000000 0.000000 0.000000" charge=0
C	-1.796992	-0.319050	-0.247007	6
C	-0.270242	-0.327390	-0.197277	6
C	0.214118	-1.161640	0.990103	6
O	0.206018	-0.954710	-1.394937	8
C	0.277838	1.120550	-0.161737	6
N	1.736208	1.148930	-0.359697	7
H	-2.156042	0.220560	-1.131057	1
H	-2.226692	0.150100	0.644383	1
H	-2.191822	-1.338390	-0.328477	1
H	-0.080902	-0.712000	1.944093	1
H	1.303158	-1.281100	0.981363	1
H	-0.199222	-2.176280	0.944843	1
H	1.096268	-0.568270	-1.538117	1
H	0.017548	1.617500	0.779463	1
H	-0.166212	1.697570	-0.981017	1
H	2.196758	0.761370	0.464213	1
H	2.040208	2.122250	-0.409137	1
Es	-0.026073	1.513703	-0.718778	99
Es	0.675962	-0.748635	-1.458812	99
Es	-2.081565	0.004423	0.365328	99
Es	-2.059937	-1.012962	-0.294473	99
Es	1.112122	1.142472	-0.250929	99
Es	1.909583	1.739634	-0.376356	99
Es	0.011363	-0.845533	1.641219	99
Es	-0.020052	-0.739943	0.417993	99
Es	-2.035351	0.055956	-0.841667	99
Es	0.090963	1.458355	0.492810	99
Es	0.960473	-1.227519	0.982805	99
Es	1.999266	0.928590	0.148614	99
Es	1.830933	0.957533	-0.655148	99
Es	-1.796979	-0.319039	-0.246988	99
Es	0.040789	-0.709880	-0.937446	99
Es	0.206162	-0.954463	-1.394801	99
Es	-0.270168	-0.327461	-0.197435	99
Es	-0.073418	-1.845805	0.957869	99
Es	0.214126	-1.161623	0.990118	99
Es	0.233455	-1.254169	-1.333988	99
Es	-1.041569	-0.316794	-0.215748	99
Es	0.013208	0.405668	-0.167530	99
Es	1.736044	1.149192	-0.359235	99
Es	0.027765	-0.848072	-1.618268	99
Es	0.278003	1.120535	-0.161744	99
42
Properties=species:S:1:pos:R:3:Z:I:1 energy=-287.2922583064605 field_type=dipole dipole="0.000000 0.000000 0.000000" charge=0
C	-1.796992	-0.319050	-0.247007	6
C	-0.270242	-0.327390	-0.197277	6
C	0.214118	-1.161640	0.990103	6
O	0.206018	-0.954710	-1.394937	8
C	0.277838	1.120550	-0.161737	6
N	1.736208	1.148930	-0.359697	7
H	-2.156042	0.220560	-1.131057	1
H	-2.226692	0.150100	0.644383	1
H	-2.191822	-1.338390	-0.328477	1
H	-0.080902	-0.712000	1.944093	1
H	1.303158	-1.281100	0.981363	1
H	-0.199222	-2.176280	0.944843	1
H	1.096268	-0.568270	-1.538117	1
H	0.017548	1.617500	0.779463	1
H	-0.166212	1.697570	-0.981017	1
H	2.196758	0.761370	0.464213	1
H	2.040208	2.122250	-0.409137	1
Es	-0.020045	-0.739984	0.417953	99
Es	0.214126	-1.161624	0.990118	99
Es	0.233899	-1.253613	-1.332996	99
Es	1.736051	1.149188	-0.359234	99
Es	0.278003	1.120536	-0.161741	99
Es	1.909810	1.739769	-0.377063	99
Es	1.111944	1.142193	-0.251402	99
Es	0.206052	-0.954612	-1.394839	99
Es	-2.081527	0.004584	0.365387	99
Es	-2.035269	0.055869	-0.841557	99
Es	-0.270168	-0.327459	-0.197434	99
Es	1.999158	0.928782	0.148866	99
Es	-0.025966	1.513650	-0.718754	99
Es	-2.060028	-1.012993	-0.294507	99
Es	0.040440	-0.709010	-0.937696	99
Es	0.027815	-0.848967	-1.618888	99
Es	0.090932	1.458453	0.492848	99
Es	-0.073437	-1.845761	0.957873	99
Es	-1.796980	-0.319039	-0.246987	99
Es	0.013193	0.405649	-0.167563	99
Es	-1.041568	-0.316801	-0.215873	99
Es	0.960470	-1.227579	0.982825	99
Es	0.675902	-0.749021	-1.458929	99
Es	0.011346	-0.845501	1.641230	99
Es	1.830951	0.957455	-0.654225	99
42
Properties=species:S:1:pos:R:3:Z:I:1 energy=-287.2922583064605 field_type=dipole dipole="0.000000 0.000000 0.000000" charge=0
C	-1.796992	-0.319050	-0.247007	6
C	-0.270242	-0.327390	-0.197277	6
C	0.214118	-1.161640	0.990103	6
O	0.206018	-0.954710	-1.394937	8
C	0.277838	1.120550	-0.161737	6
N	1.736208	1.148930	-0.359697	7
H	-2.156042	0.220560	-1.131057	1
H	-2.226692	0.150100	0.644383	1
H	-2.191822	-1.338390	-0.328477	1
H	-0.080902	-0.712000	1.944093	1
H	1.303158	-1.281100	0.981363	1
H	-0.199222	-2.176280	0.944843	1
H	1.096268	-0.568270	-1.538117	1
H	0.017548	1.617500	0.779463	1