36
Properties=species:S:1:pos:R:3:Z:I:1 energy=-284.9531711994465 field_type=dipole dipole="0.000000 0.000000 0.000000" charge=0
C	-1.488567	0.028096	0.525697	6
C	0.037302	0.044816	0.469077	6
C	0.533692	-0.689164	-0.780623	6
O	1.930912	-0.963824	-0.697763	8
C	0.519322	1.405986	0.469077	6
N	0.903533	2.490976	0.469077	7
H	-1.855098	0.547576	1.419107	1
H	-1.866657	-0.999784	0.559117	1
H	-1.929898	0.522386	-0.348363	1
H	0.427102	-0.467754	1.357257	1
H	0.342112	-0.126304	-1.702223	1
H	0.031603	-1.658554	-0.873823	1
H	2.414642	-0.134454	-0.865613	1
Es	0.519208	1.405653	0.469076	99
Es	-0.704885	0.059654	0.491383	99
Es	2.167810	-0.506816	-0.785465	99
Es	-1.727507	0.378900	1.129360	99
Es	0.183366	-1.343743	-0.831392	99
Es	-1.488490	0.028096	0.525690	99
Es	0.037312	0.044979	0.469049	99
Es	-1.776327	0.361319	-0.070390	99
Es	0.533913	-0.689155	-0.780539	99
Es	-1.730791	-0.671952	0.546043	99
Es	0.295269	0.768438	0.467710	99
Es	0.392263	-0.290839	-1.401406	99
Es	1.992375	-1.144531	-0.933458	99
Es	0.282351	-0.284878	-0.141637	99
Es	1.930770	-0.963473	-0.697800	99
Es	0.903388	2.490564	0.469074	99
Es	0.939685	1.922095	0.250497	99
Es	0.450012	2.098398	0.382162	99
Es	1.403879	-0.829336	-0.731632	99
Es	0.302546	-0.278354	1.057939	99
Es	1.026886	2.838568	0.467524	99
Es	0.801109	1.975456	0.765242	99
Es	1.982938	-1.043609	-0.406094	99
36
Properties=species:S:1:pos:R:3:Z:I:1 energy=-284.9531711994465 field_type=dipole dipole="0.000000 0.000000 0.000000" charge=0
C	-1.488567	0.028096	0.525697	6
C	0.037302	0.044816	0.469077	6
C	0.533692	-0.689164	-0.780623	6
O	1.930912	-0.963824	-0.697763	8
C	0.519322	1.405986	0.469077	6
N	0.903533	2.490976	0.469077	7
H	-1.855098	0.547576	1.419107	1
H	-1.866657	-0.999784	0.559117	1
H	-1.929898	0.522386	-0.348363	1
H	0.427102	-0.467754	1.357257	1
H	0.342112	-0.126304	-1.702223	1
H	0.031603	-1.658554	-0.873823	1
H	2.414642	-0.134454	-0.865613	1
Es	0.282377	-0.284923	-0.141113	99
Es	2.171575	-0.502340	-0.784362	99
Es	0.393255	-0.289972	-1.399838	99
Es	0.533909	-0.689156	-0.780539	99
Es	1.028973	2.842198	0.467134	99
Es	0.903387	2.490558	0.469073	99
Es	-1.488489	0.028096	0.525689	99
Es	-1.726274	0.379681	1.126984	99
Es	0.295809	0.770711	0.467929	99
Es	1.930748	-0.963473	-0.697848	99
Es	0.646851	2.025730	0.174997	99
Es	0.519204	1.405652	0.469079	99
Es	0.301374	-0.279193	1.056326	99
Es	1.008053	1.900973	0.536447	99
Es	0.181766	-1.345764	-0.831619	99
Es	1.991726	-1.147956	-0.929739	99
Es	1.405001	-0.831372	-0.731315	99
Es	-1.774975	0.362224	-0.068469	99
Es	1.978185	-1.041906	-0.411210	99
Es	0.534514	2.066435	0.686614	99
Es	-0.704676	0.059560	0.491349	99
Es	-1.732526	-0.675305	0.546317	99
Es	0.037311	0.044979	0.469048	99
36
Properties=species:S:1:pos:R:3:Z:I:1 energy=-284.9531711994465 field_type=dipole dipole="0.000000 0.000000 0.000000" charge=0
C	-1.488567	0.028096	0.525697	6
C	0.037302	0.044816	0.469077	6
C	0.533692	-0.689164	-0.780623	6
O	1.930912	-0.963824	-0.697763	8
C	0.519322	1.405986	0.469077	6
N	0.903533	2.490976	0.469077	7
H	-1.855098	0.547576	1.419107	1
H	-1.866657	-0.999784	0.559117	1
H	-1.929898	0.522386	-0.348363	1
H	0.427102	-0.467754	1.357257	1
H	0.342112	-0.126304	-1.702223	1
H	0.031603	-1.658554	-0.873823	1
H	2.414642	-0.134454	-0.865613	1
Es	0.282280	-0.285038	-0.140681	99
Es	0.533906	-0.689156	-0.780540	99
Es	2.172789	-0.499861	-0.784186	99
Es	1.973173	-1.036368	-0.413858	99
Es	0.903397	2.490586	0.469073	99
Es	-1.774244	0.362894	-0.067166	99
Es	0.542592	2.063371	0.238532	99
Es	1.030344	2.843695	0.466844	99
Es	1.993791	-1.153697	-0.925483	99
Es	1.930770	-0.963493	-0.697974	99
Es	0.037314	0.044977	0.469051	99
Es	0.296265	0.771950	0.468029	99
Es	0.300697	-0.279624	1.055289	99
Es	0.639138	2.029555	0.750173	99
Es	-1.725338	0.379788	1.125462	99
Es	-1.733526	-0.677069	0.546435	99
Es	0.393889	-0.289359	-1.398985	99
Es	0.519202	1.405645	0.469079	99
Es	-0.704598	0.059512	0.491319	99
Es	1.406207	-0.833236	-0.732870	99
Es	1.006600	1.899067	0.409374	99
Es	-1.488490	0.028095	0.525690	99
Es	0.180920	-1.346803	-0.831672	99
36
Properties=species:S:1:pos:R:3:Z:I:1 energy=-284.9531711994465 field_type=dipole dipole="0.000000 0.000000 0.000000" charge=0
C	-1.488567	0.028096	0.525697	6
C	0.037302	0.044816	0.469077	6
C	0.533692	-0.689164	-0.780623	6
O	1.930912	-0.963824	-0.697763	8
C	0.519322	1.405986	0.469077	6
N	0.903533	2.490976	0.469077	7
H	-1.855098	0.547576	1.419107	1
H	-1.866657	-0.999784	0.559117	1
H	-1.929898	0.522386	-0.348363	1
H	0.427102	-0.467754	1.357257	1
H	0.342112	-0.126304	-1.702223	1
H	0.031603	-1.658554	-0.873823	1
H	2.414642	-0.134454	-0.865613	1
Es	0.852222	1.955663	0.735594	99
Es	0.180416	-1.347488	-0.831377	99
Es	1.970031	-1.032011	-0.417530	99
Es	-1.724730	0.379702	1.124104	99
Es	-0.704398	0.059539	0.491435	99
Es	1.031169	2.844532	0.465525	99
Es	0.296388	0.772772	0.468064	99
Es	0.519196	1.405642	0.469078	99
Es	1.407534	-0.833570	-0.731724	99
Es	0.282220	-0.284855	-0.140468	99
Es	0.884457	1.939369	0.222350	99
Es	-1.734154	-0.678134	0.546730	99
Es	-1.773764	0.363327	-0.066413	99
Es	-1.488490	0.028095	0.525690	99
Es	2.173719	-0.498272	-0.783440	99
Es	0.451169	2.096345	0.441373	99
Es	1.930786	-0.963560	-0.697842	99
Es	0.903387	2.490559	0.469073	99
Es	1.994269	-1.158911	-0.923828	99
Es	0.037313	0.044978	0.469051	99
Es	0.533907	-0.689156	-0.780537	99
Es	0.300262	-0.280155	1.054536	99
Es	0.394171	-0.288978	-1.398507	99
36
Properties=species:S:1:pos:R:3:Z:I:1 energy=-284.9531711994465 field_type=dipole dipole="0.000000 0.000000 0.000000" charge=0
C	-1.488567	0.028096	0.525697	6
C	0.037302	0.044816	0.469077	6
C	0.533692	-0.689164	-0.780623	6
O	1.930912	-0.963824	-0.697763	8
C	0.519322	1.405986	0.469077	6
N	0.903533	2.490976	0.469077	7
H	-1.855098	0.547576	1.419107	1
H	-1.866657	-0.999784	0.559117	1
H	-1.929898	0.522386	-0.348363	1
H	0.427102	-0.467754	1.357257	1
H	0.342112	-0.126304	-1.702223	1
H	0.031603	-1.658554	-0.873823	1
H	2.414642	-0.134454	-0.865613	1
Es	-1.724141	0.379469	1.123044	99
Es	0.037312	0.044978	0.469049	99
Es	1.995759	-1.164050	-0.920913	99
Es	0.519204	1.405632	0.469084	99
Es	-1.734621	-0.678910	0.546922	99
Es	1.005961	1.900241	0.499649	99
Es	0.394446	-0.288522	-1.398083	99
Es	0.180101	-1.347971	-0.831309	99
Es	-0.704180	0.059705	0.491314	99
Es	1.966445	-1.027286	-0.420094	99
Es	2.174194	-0.497076	-0.783036	99
Es	0.903387	2.490558	0.469073	99
Es	1.031349	2.845193	0.465956	99
Es	0.613158	2.036564	0.193900	99
Es	1.408792	-0.834156	-0.732410	99
Es	0.533905	-0.689157	-0.780540	99
Es	0.300004	-0.280558	1.054131	99
Es	-1.488488	0.028096	0.525688	99
Es	0.296558	0.773348	0.468111	99
Es	-1.773547	0.363687	-0.065600	99
Es	0.568604	2.054043	0.705123	99
Es	1.930778	-0.963501	-0.697849	99
Es	0.282101	-0.284895	-0.140275	99
36
Properties=species:S:1:pos:R:3:Z:I:1 energy=-284.9531711994465 field_type=dipole dipole="0.000000 0.000000 0.000000" charge=0
C	-1.488567	0.028096	0.525697	6
C	0.037302	0.044816	0.469077	6
C	0.533692	-0.689164	-0.780623	6
O	1.930912	-0.963824	-0.697763	8
C	0.519322	1.405986	0.469077	6
N	0.903533	2.490976	0.469077	7
H	-1.855098	0.547576	1.419107	1
H	-1.866657	-0.999784	0.559117	1
H	-1.929898	0.522386	-0.348363	1
H	0.427102	-0.467754	1.357257	1
H	0.342112	-0.126304	-1.702223	1
H	0.031603	-1.658554	-0.873823	1
H	2.414642	-0.134454	-0.865613	1
Es	-1.773265	0.363908	-0.065039	99
Es	-1.488492	0.028096	0.525691	99
Es	1.962017	-1.019541	-0.422745	99
Es	0.519190	1.405642	0.469080	99
Es	-0.704096	0.059801	0.491170	99
Es	2.173600	-0.496000	-0.783477	99
Es	0.296671	0.773758	0.468254	99
Es	1.930754	-0.963455	-0.697813	99
Es	0.179777	-1.348290	-0.831182	99
Es	0.282131	-0.284674	-0.139926	99
Es	0.299784	-0.281041	1.053774	99
Es	0.631158	2.029386	0.186029	99
Es	0.394682	-0.288114	-1.397765	99
Es	0.555806	2.058578	0.692078	99
Es	0.903388	2.490562	0.469073	99
Es	1.031626	2.845578	0.465443	99
Es	-1.723832	0.379277	1.122183	99
Es	-1.734989	-0.679402	0.547013	99
Es	1.000699	1.902517	0.520820	99
Es	1.409734	-0.835598	-0.734406	99
Es	0.037312	0.044978	0.469050	99
Es	1.999515	-1.171375	-0.915832	99
Es	0.533907	-0.689157	-0.780539	99
36
Properties=species:S:1:pos:R:3:Z:I:1 energy=-284.9531711994465 field_type=dipole dipole="0.000000 0.000000 0.000000" charge=0
C	-1.488567	0.028096	0.525697	6
C	0.037302	0.044816	0.469077	6
C	0.533692	-0.689164	-0.780623	6
O	1.930912	-0.963824	-0.697763	8
C	0.519322	1.405986	0.469077	6
N	0.903533	2.490976	0.469077	7
H	-1.855098	0.547576	1.419107	1
H	-1.866657	-0.999784	0.559117	1
H	-1.929898	0.522386	-0.348363	1
H	0.427102	-0.467754	1.357257	1
H	0.342112	-0.126304	-1.702223	1
H	0.031603	-1.658554	-0.873823	1
H	2.414642	-0.134454	-0.865613	1
Es	-1.488491	0.028095	0.525688	99
Es	0.282272	-0.284805	-0.139762	99
Es	1.033406	2.845229	0.464748	99
Es	1.411362	-0.835567	-0.735274	99
Es	0.394785	-0.287814	-1.397562	99
Es	-1.735317	-0.679722	0.547169	99
Es	0.510956	2.073561	0.277482	99
Es	-0.703935	0.059678	0.490998	99
Es	0.299427	-0.281177	1.053564	99
Es	0.533903	-0.689157	-0.780540	99
Es	2.174076	-0.495590	-0.784482	99
Es	1.930763	-0.963507	-0.697858	99
Es	0.694155	2.009878	0.759646	99
Es	0.296720	0.774078	0.468179	99
Es	0.903387	2.490558	0.469072	99
Es	2.002062	-1.180672	-0.909802	99
Es	-1.773102	0.364232	-0.064690	99
Es	0.519196	1.405638	0.469082	99
Es	0.980846	1.907470	0.362490	99
Es	-1.723384	0.379088	1.121599	99
Es	0.037313	0.044976	0.469053	99
Es	0.179628	-1.348554	-0.830988	99
Es	1.957051	-1.010481	-0.426878	99
36
Properties=species:S:1:pos:R:3:Z:I:1 energy=-284.9531711994465 field_type=dipole dipole="0.000000 0.000000 0.000000" charge=0
C	-1.488567	0.028096	0.525697	6
C	0.037302	0.044816	0.469077	6
C	0.533692	-0.689164	-0.780623	6
O	1.930912	-0.963824	-0.697763	8
C	0.519322	1.405986	0.469077	6
N	0.903533	2.490976	0.469077	7
H	-1.855098	0.547576	1.419107	1
H	-1.866657	-0.999784	0.559117	1
H	-1.929898	0.522386	-0.348363	1
H	0.427102	-0.467754	1.357257	1
H	0.342112	-0.126304	-1.702223	1
H	0.031603	-1.658554	-0.873823	1
H	2.414642	-0.134454	-0.865613	1
Es	0.593740	2.042897	0.204475	99
Es	1.001583	1.901482	0.477736	99
Es	0.179503	-1.348761	-0.830864	99
Es	-1.723127	0.378744	1.120821	99
Es	-1.488489	0.028095	0.525690	99
Es	-1.772986	0.364528	-0.064449	99
Es	1.955108	-1.007206	-0.428659	99
Es	1.033621	2.845443	0.465440	99
Es	0.903387	2.490559	0.469073	99
Es	0.590563	2.046324	0.716479	99
Es	0.299277	-0.281527	1.053468	99
Es	1.412574	-0.835513	-0.735393	99
Es	-1.735458	-0.680061	0.547363	99
Es	2.174295	-0.495331	-0.785488	99
Es	0.037311	0.044978	0.469049	99
Es	1.930748	-0.963379	-0.697610	99
Es	-0.703790	0.059870	0.491079	99
Es	0.394995	-0.287475	-1.397431	99
Es	0.282186	-0.284738	-0.139476	99
Es	2.002218	-1.184333	-0.907087	99
Es	0.296720	0.774357	0.468178	99
Es	0.533906	-0.689157	-0.780539	99
Es	0.519194	1.405639	0.469080	99
36
Properties=species:S:1:pos:R:3:Z:I:1 energy=-284.9531711994465 field_type=dipole dipole="0.000000 0.000000 0.000000" charge=0
C	-1.488567	0.028096	0.525697	6
C	0.037302	0.044816	0.469077	6
C	0.533692	-0.689164	-0.780623	6
O	1.930912	-0.963824	-0.697763	8
C	0.519322	1.405986	0.469077	6
N	0.903533	2.490976	0.469077	7
H	-1.855098	0.547576	1.419107	1
H	-1.866657	-0.999784	0.559117	1
H	-1.929898	0.522386	-0.348363	1
H	0.427102	-0.467754	1.357257	1
H	0.342112	-0.126304	-1.702223	1
H	0.031603	-1.658554	-0.873823	1
H	2.414642	-0.134454	-0.865613	1
Es	-1.722819	0.378506	1.120391	99
Es	0.395115	-0.287208	-1.397356	99
Es	1.930730	-0.963475	-0.697836	99
Es	1.034201	2.845340	0.464427	99
Es	-0.703766	0.059819	0.490966	99
Es	0.622632	2.034958	0.735636	99
Es	-1.772913	0.364796	-0.064177	99
Es	0.299213	-0.281948	1.053212	99
Es	0.533906	-0.689157	-0.780539	99
Es	0.566665	2.052261	0.220791	99
Es	2.174376	-0.494721	-0.784370	99
Es	-1.488494	0.028097	0.525694	99
Es	1.412962	-0.836142	-0.736720	99
Es	-1.735696	-0.680228	0.547425	99
Es	0.282138	-0.284500	-0.139388	99
Es	1.950801	-0.999941	-0.434115	99
Es	2.005789	-1.191384	-0.901135	99
Es	0.037312	0.044978	0.469049	99
Es	0.179462	-1.348931	-0.830713	99
Es	0.996195	1.903562	0.443178	99
Es	0.296686	0.774557	0.468356	99
Es	0.519195	1.405639	0.469087	99
Es	0.903386	2.490557	0.469072	99
36
Properties=species:S:1:pos:R:3:Z:I:1 energy=-284.9531711994465 field_type=dipole dipole="0.000000 0.000000 0.000000" charge=0
C	-1.488567	0.028096	0.525697	6
C	0.037302	0.044816	0.469077	6
C	0.533692	-0.689164	-0.780623	6
O	1.930912	-0.963824	-0.697763	8
C	0.519322	1.405986	0.469077	6
N	0.903533	2.490976	0.469077	7
H	-1.855098	0.547576	1.419107	1
H	-1.866657	-0.999784	0.559117	1
H	-1.929898	0.522386	-0.348363	1
H	0.427102	-0.467754	1.357257	1
H	0.342112	-0.126304	-1.702223	1
H	0.031603	-1.658554	-0.873823	1
H	2.414642	-0.134454	-0.865613	1
Es	-0.703542	0.060067	0.491228	99
Es	0.763103	1.980920	0.175018	99
Es	0.940819	1.923458	0.657028	99
Es	-1.772742	0.364776	-0.063942	99
Es	-1.488490	0.028094	0.525690	99
Es	0.179357	-1.349046	-0.830675	99
Es	1.414312	-0.835671	-0.736341	99
Es	0.282000	-0.284581	-0.139104	99
Es	0.533906	-0.689157	-0.780539	99
Es	1.949606	-0.997988	-0.435030	99
Es	-1.722831	0.378341	1.119691	99
Es	0.482733	2.085829	0.567959	99
Es	-1.735888	-0.680394	0.547576	99
Es	2.174680	-0.494665	-0.785101	99
Es	2.005078	-1.193770	-0.899798	99
Es	1.033696	2.845703	0.463938	99
Es	0.299098	-0.282021	1.053061	99
Es	0.519189	1.405639	0.469072	99
Es	0.395230	-0.287028	-1.397194	99
Es	0.037312	0.044979	0.469049	99
Es	0.296275	0.774897	0.468162	99
Es	1.930791	-0.963506	-0.697887	99
Es	0.903387	2.490558	0.469073	99
36
Properties=species:S:1:pos:R:3:Z:I:1 energy=-284.9531711994465 field_type=dipole dipole="0.000000 0.000000 0.000000" charge=0
C	-1.488567	0.028096	0.525697	6
C	0.037302	0.044816	0.469077	6
C	0.533692	-0.689164	-0.780623	6
O	1.930912	-0.963824	-0.697763	8
C	0.519322	1.405986	0.469077	6
N	0.903533	2.490976	0.469077	7
H	-1.855098	0.547576	1.419107	1
H	-1.866657	-0.999784	0.559117	1
H	-1.929898	0.522386	-0.348363	1
H	0.427102	-0.467754	1.357257	1
H	0.342112	-0.126304	-1.702223	1
H	0.031603	-1.658554	-0.873823	1
H	2.414642	-0.134454	-0.865613	1
Es	0.037312	0.044977	0.469048	99
Es	0.471951	2.090010	0.525290	99
Es	0.298985	-0.282258	1.052884	99
Es	-0.703486	0.060020	0.490992	99
Es	1.034095	2.845662	0.463819	99
Es	1.948467	-0.995808	-0.437726	99
Es	0.903387	2.490559	0.469073	99
Es	0.519194	1.405638	0.469076	99
Es	0.395332	-0.286822	-1.397062	99
Es	-1.736067	-0.680506	0.547677	99
Es	-1.488485	0.028096	0.525689	99
Es	0.912754	1.932898	0.689245	99
Es	0.282159	-0.284375	-0.138896	99
Es	0.179251	-1.349153	-0.830566	99
Es	0.296147	0.775091	0.468195	99
Es	0.801763	1.967285	0.185600	99
Es	1.415138	-0.835753	-0.735884	99
Es	-1.722656	0.378106	1.119227	99
Es	2.174433	-0.494155	-0.784745	99
Es	-1.772728	0.364909	-0.063678	99
Es	0.533904	-0.689157	-0.780539	99
Es	1.930740	-0.963437	-0.697726	99
Es	2.005487	-1.196395	-0.898058	99
36
Properties=species:S:1:pos:R:3:Z:I:1 energy=-284.9531711994465 field_type=dipole dipole="0.000000 0.000000 0.000000" charge=0
C	-1.488567	0.028096	0.525697	6
C	0.037302	0.044816	0.469077	6
C	0.533692	-0.689164	-0.780623	6
O	1.930912	-0.963824	-0.697763	8
C	0.519322	1.405986	0.469077	6
N	0.903533	2.490976	0.469077	7
H	-1.855098	0.547576	1.419107	1
H	-1.866657	-0.999784	0.559117	1
H	-1.929898	0.522386	-0.348363	1
H	0.427102	-0.467754	1.357257	1
H	0.342112	-0.126304	-1.702223	1
H	0.031603	-1.658554	-0.873823	1
H	2.414642	-0.134454	-0.865613	1
Es	0.395345	-0.286529	-1.397010	99
Es	0.037312	0.044980	0.469049	99
Es	0.526221	2.070098	0.646239	99
Es	1.930746	-0.963448	-0.697897	99
Es	0.519186	1.405643	0.469085	99
Es	-1.736173	-0.680626	0.547837	99
Es	1.034885	2.845476	0.464331	99
Es	0.296167	0.775199	0.468487	99
Es	-0.703512	0.059961	0.490967	99
Es	0.979001	1.910338	0.580540	99
Es	1.417369	-0.834920	-0.736561	99
Es	0.298967	-0.282265	1.052792	99
Es	-1.772694	0.365014	-0.063517	99
Es	-1.488489	0.028098	0.525695	99
Es	1.945476	-0.991435	-0.439731	99
Es	0.179308	-1.349300	-0.830402	99
Es	0.903387	2.490559	0.469073	99
Es	0.282259	-0.284584	-0.138928	99
Es	-1.722421	0.378008	1.118908	99
Es	2.005538	-1.201381	-0.894485	99
Es	2.174877	-0.494247	-0.785469	99
Es	0.680421	2.009953	0.172472	99
Es	0.533905	-0.689157	-0.780540	99
36
Properties=species:S:1:pos:R:3:Z:I:1 energy=-284.9531711994465 field_type=dipole dipole="0.000000 0.000000 0.000000" charge=0
C	-1.488567	0.028096	0.525697	6
C	0.037302	0.044816	0.469077	6
C	0.533692	-0.689164	-0.780623	6
O	1.930912	-0.963824	-0.697763	8
C	0.519322	1.405986	0.469077	6
N	0.903533	2.490976	0.469077	7
H	-1.855098	0.547576	1.419107	1
H	-1.866657	-0.999784	0.559117	1
H	-1.929898	0.522386	-0.348363	1
H	0.427102	-0.467754	1.357257	1
H	0.342112	-0.126304	-1.702223	1
H	0.031603	-1.658554	-0.873823	1
H	2.414642	-0.134454	-0.865613	1
Es	0.395410	-0.286415	-1.396947	99
Es	-1.488490	0.028097	0.525694	99
Es	0.533905	-0.689158	-0.780540	99
Es	2.175594	-0.494514	-0.785928	99
Es	0.037311	0.044980	0.469049	99
Es	1.036543	2.844776	0.463855	99
Es	1.418157	-0.835059	-0.738903	99
Es	0.643900	2.026710	0.747512	99
Es	0.282206	-0.284476	-0.138743	99
Es	0.903387	2.490559	0.469073	99
Es	0.298830	-0.282528	1.052837	99
Es	-1.722342	0.377916	1.118785	99
Es	2.009514	-1.211157	-0.883323	99
Es	-1.772592	0.365143	-0.063429	99
Es	-0.703454	0.060015	0.490832	99
Es	0.179206	-1.349293	-0.830411	99
Es	1.939920	-0.981241	-0.448002	99
Es	0.555772	2.055878	0.228980	99
Es	0.984156	1.908580	0.423518	99
Es	0.296510	0.775120	0.468142	99
Es	-1.736328	-0.680635	0.547775	99
Es	1.930762	-0.963497	-0.697974	99
Es	0.519201	1.405635	0.469082	99
36
Properties=species:S:1:pos:R:3:Z:I:1 energy=-284.9531711994465 field_type=dipole dipole="0.000000 0.000000 0.000000" charge=0
C	-1.488567	0.028096	0.525697	6
C	0.037302	0.044816	0.469077	6
C	0.533692	-0.689164	-0.780623	6
O	1.930912	-0.963824	-0.697763	8
C	0.519322	1.405986	0.469077	6
N	0.903533	2.490976	0.469077	7
H	-1.855098	0.547576	1.419107	1
H	-1.866657	-0.999784	0.559117	1
H	-1.929898	0.522386	-0.348363	1
H	0.427102	-0.467754	1.357257	1
H	0.342112	-0.126304	-1.702223	1
H	0.031603	-1.658554	-0.873823	1
H	2.414642	-0.134454	-0.865613	1
Es	0.946614	1.919885	0.321354	99
Es	-1.722412	0.378197	1.118601	99
Es	-1.772337	0.364763	-0.063028	99
Es	0.179237	-1.349430	-0.830486	99
Es	0.298662	-0.282121	1.052491	99
Es	-0.703445	0.060038	0.490898	99
Es	0.519189	1.405639	0.469078	99
Es	0.492343	2.080738	0.314373	99
Es	0.903386	2.490558	0.469073	99
Es	0.282329	-0.284705	-0.138758	99
Es	2.175307	-0.494241	-0.786173	99
Es	-1.736424	-0.680786	0.547724	99
Es	1.930773	-0.963485	-0.697824	99
Es	1.036819	2.844747	0.462723	99
Es	0.744993	1.990447	0.765681	99
Es	-1.488489	0.028094	0.525690	99
Es	0.533906	-0.689157	-0.780540	99
Es	0.296157	0.775371	0.467988	99
Es	1.419522	-0.833750	-0.734851	99
Es	0.395591	-0.286440	-1.396823	99
Es	2.005479	-1.209746	-0.888222	99
Es	1.942568	-0.984164	-0.447081	99
Es	0.037309	0.044981	0.469048	99
36
Properties=species:S:1:pos:R:3:Z:I:1 energy=-284.9531711994465 field_type=dipole dipole="0.000000 0.000000 0.000000" charge=0
C	-1.488567	0.028096	0.525697	6
C	0.037302	0.044816	0.469077	6
C	0.533692	-0.689164	-0.780623	6
O	1.930912	-0.963824	-0.697763	8
C	0.519322	1.405986	0.469077	6
N	0.903533	2.490976	0.469077	7
H	-1.855098	0.547576	1.419107	1
H	-1.866657	-0.999784	0.559117	1
H	-1.929898	0.522386	-0.348363	1
H	0.427102	-0.467754	1.357257	1
H	0.342112	-0.126304	-1.702223	1
H	0.031603	-1.658554	-0.873823	1
H	2.414642	-0.134454	-0.865613	1
Es	2.175883	-0.494586	-0.786883	99
Es	0.903387	2.490560	0.469073	99
Es	0.973755	1.912491	0.399785	99
Es	0.037311	0.044981	0.469046	99
Es	1.937468	-0.975271	-0.454647	99
Es	-1.736531	-0.680733	0.547711	99
Es	-1.772590	0.365059	-0.062910	99
Es	-1.488489	0.028094	0.525691	99
Es	1.420417	-0.833915	-0.737672	99
Es	2.009209	-1.218163	-0.877224	99
Es	0.519192	1.405637	0.469081	99
Es	0.282212	-0.284528	-0.138677	99
Es	-1.722275	0.377762	1.118412	99
Es	-0.703482	0.060017	0.491022	99
Es	0.296310	0.775321	0.468131	99
Es	0.669474	2.017206	0.757592	99
Es	0.179227	-1.349407	-0.830329	99
Es	0.395508	-0.286337	-1.396878	99
Es	0.540177	2.061593	0.243331	99
Es	0.533903	-0.689157	-0.780540	99
Es	0.298937	-0.282291	1.052333	99
Es	1.037339	2.844527	0.463165	99
Es	1.930736	-0.963425	-0.697675	99
36
Properties=species:S:1:pos:R:3:Z:I:1 energy=-284.9531711994465 field_type=dipole dipole="0.000000 0.000000 0.000000" charge=0
C	-1.488567	0.028096	0.525697	6
C	0.037302	0.044816	0.469077	6
C	0.533692	-0.689164	-0.780623	6
O	1.930912	-0.963824	-0.697763	8
C	0.519322	1.405986	0.469077	6
N	0.903533	2.490976	0.469077	7
H	-1.855098	0.547576	1.419107	1
H	-1.866657	-0.999784	0.559117	1
H	-1.929898	0.522386	-0.348363	1
H	0.427102	-0.467754	1.357257	1
H	0.342112	-0.126304	-1.702223	1
H	0.031603	-1.658554	-0.873823	1
H	2.414642	-0.134454	-0.865613	1
Es	-1.736688	-0.680816	0.547746	99
Es	1.421453	-0.833407	-0.735330	99
Es	0.179217	-1.349496	-0.830405	99
Es	0.519193	1.405637	0.469080	99
Es	-1.772303	0.364729	-0.062656	99
Es	0.710377	2.002311	0.765757	99
Es	1.938850	-0.976673	-0.453943	99
Es	0.395648	-0.286277	-1.396756	99
Es	0.533905	-0.689157	-0.780539	99
Es	0.282307	-0.284615	-0.138535	99
Es	0.037312	0.044979	0.469049	99
Es	-1.488493	0.028095	0.525692	99
Es	1.930774	-0.963479	-0.697900	99
Es	2.006951	-1.217534	-0.880018	99
Es	1.037683	2.844445	0.462818	99
Es	0.298628	-0.282265	1.052291	99
Es	-0.703170	0.060249	0.490997	99
Es	0.903387	2.490559	0.469073	99
Es	0.513473	2.072357	0.278032	99
Es	0.296168	0.775476	0.468108	99
Es	-1.722445	0.377905	1.117985	99
Es	2.175451	-0.494244	-0.786952	99
Es	0.959405	1.916656	0.357339	99
36
Properties=species:S:1:pos:R:3:Z:I:1 energy=-284.9531711994465 field_type=dipole dipole="0.000000 0.000000 0.000000" charge=0
C	-1.488567	0.028096	0.525697	6
C	0.037302	0.044816	0.469077	6
C	0.533692	-0.689164	-0.780623	6
O	1.930912	-0.963824	-0.697763	8
C	0.519322	1.405986	0.469077	6
N	0.903533	2.490976	0.469077	7
H	-1.855098	0.547576	1.419107	1
H	-1.866657	-0.999784	0.559117	1
H	-1.929898	0.522386	-0.348363	1
H	0.427102	-0.467754	1.357257	1
H	0.342112	-0.126304	-1.702223	1
H	0.031603	-1.658554	-0.873823	1
H	2.414642	-0.134454	-0.865613	1
Es	1.037782	2.844480	0.463290	99
Es	0.519193	1.405637	0.469082	99
Es	-1.722259	0.377399	1.117636	99
Es	-1.772412	0.365181	-0.062686	99
Es	0.298675	-0.282534	1.052260	99
Es	-1.736684	-0.680880	0.547776	99
Es	0.282425	-0.284260	-0.138274	99
Es	1.421898	-0.833802	-0.736958	99
Es	-1.488492	0.028095	0.525690	99
Es	0.395682	-0.286190	-1.396656	99
Es	1.930755	-0.963441	-0.697838	99
Es	2.175571	-0.494047	-0.786182	99
Es	0.533902	-0.689155	-0.780539	99
Es	0.037313	0.044979	0.469047	99
Es	0.903390	2.490558	0.469075	99
Es	0.663649	2.019223	0.755237	99
Es	1.937169	-0.975344	-0.455285	99
Es	0.179088	-1.349529	-0.830248	99
Es	0.296382	0.775450	0.468104	99
Es	2.008009	-1.218680	-0.877885	99
Es	0.974916	1.912109	0.405288	99
Es	-0.703331	0.060168	0.490993	99
Es	0.544456	2.060017	0.240010	99
36
Properties=species:S:1:pos:R:3:Z:I:1 energy=-284.9531711994465 field_type=dipole dipole="0.000000 0.000000 0.000000" charge=0
C	-1.488567	0.028096	0.525697	6
C	0.037302	0.044816	0.469077	6
C	0.533692	-0.689164	-0.780623	6
O	1.930912	-0.963824	-0.697763	8
C	0.519322	1.405986	0.469077	6
N	0.903533	2.490976	0.469077	7
H	-1.855098	0.547576	1.419107	1
H	-1.866657	-0.999784	0.559117	1
H	-1.929898	0.522386	-0.348363	1
H	0.427102	-0.467754	1.357257	1
H	0.342112	-0.126304	-1.702223	1
H	0.031603	-1.658554	-0.873823	1
H	2.414642	-0.134454	-0.865613	1
Es	2.176262	-0.494539	-0.787229	99
Es	0.550105	2.057653	0.233622	99
Es	1.421018	-0.834304	-0.738832	99
Es	-1.488490	0.028094	0.525690	99
Es	0.519188	1.405639	0.469077	99
Es	0.533903	-0.689157	-0.780539	99
Es	-1.772425	0.364889	-0.062601	99
Es	-1.736735	-0.680823	0.547810	99
Es	0.665488	2.017809	0.758879	99
Es	0.037312	0.044979	0.469049	99
Es	1.930738	-0.963426	-0.697723	99
Es	0.282422	-0.284564	-0.138419	99
Es	-1.722296	0.377714	1.117863	99
Es	0.179136	-1.349500	-0.830328	99
Es	0.298716	-0.282167	1.052133	99
Es	0.296143	0.775524	0.468229	99
Es	0.967389	1.915911	0.408016	99
Es	2.012115	-1.226101	-0.865447	99
Es	0.395680	-0.286226	-1.396713	99
Es	-0.703433	0.060099	0.490955	99
Es	1.933339	-0.966942	-0.464860	99
Es	0.903387	2.490559	0.469073	99
Es	1.038120	2.844313	0.463232	99
36
Properties=species:S:1:pos:R:3:Z:I:1 energy=-284.9531711994465 field_type=dipole dipole="0.000000 0.000000 0.000000" charge=0
C	-1.488567	0.028096	0.525697	6
C	0.037302	0.044816	0.469077	6
C	0.533692	-0.689164	-0.780623	6
O	1.930912	-0.963824	-0.697763	8
C	0.519322	1.405986	0.469077	6
N	0.903533	2.490976	0.469077	7
H	-1.855098	0.547576	1.419107	1
H	-1.866657	-0.999784	0.559117	1
H	-1.929898	0.522386	-0.348363	1
H	0.427102	-0.467754	1.357257	1
H	0.342112	-0.126304	-1.702223	1
H	0.031603	-1.658554	-0.873823	1
H	2.414642	-0.134454	-0.865613	1
Es	-1.488489	0.028094	0.525690	99
Es	-1.737074	-0.680845	0.548029	99
Es	0.814837	1.961624	0.188912	99
Es	0.037312	0.044979	0.469049	99
Es	0.887905	1.940313	0.711577	99
Es	0.179014	-1.349565	-0.830182	99
Es	1.422458	-0.833488	-0.736865	99
Es	0.395740	-0.285871	-1.396553	99
Es	0.282488	-0.284099	-0.137827	99
Es	0.295654	0.775831	0.467911	99
Es	0.533904	-0.689157	-0.780540	99
Es	2.176188	-0.494130	-0.785882	99
Es	0.482156	2.088585	0.500380	99
Es	-0.703296	0.060237	0.490876	99
Es	-1.772520	0.365371	-0.062401	99
Es	1.930747	-0.963491	-0.697999	99
Es	0.903387	2.490557	0.469072	99
Es	-1.722063	0.376890	1.116817	99
Es	0.298658	-0.282745	1.052084	99
Es	1.936198	-0.973947	-0.457531	99
Es	1.037023	2.844861	0.463008	99
Es	0.519179	1.405642	0.469082	99
Es	2.007674	-1.220211	-0.875769	99
36
Properties=species:S:1:pos:R:3:Z:I:1 energy=-284.9531711994465 field_type=dipole dipole="0.000000 0.000000 0.000000" charge=0
C	-1.488567	0.028096	0.525697	6
C	0.037302	0.044816	0.469077	6
C	0.533692	-0.689164	-0.780623	6
O	1.930912	-0.963824	-0.697763	8
C	0.519322	1.405986	0.469077	6
N	0.903533	2.490976	0.469077	7
H	-1.855098	0.547576	1.419107	1
H	-1.866657	-0.999784	0.559117	1
H	-1.929898	0.522386	-0.348363	1
H	0.427102	-0.467754	1.357257	1
H	0.342112	-0.126304	-1.702223	1
H	0.031603	-1.658554	-0.873823	1
H	2.414642	-0.134454	-0.865613	1
Es	0.179060	-1.349548	-0.830140	99
Es	0.903387	2.490559	0.469073	99
Es	0.037312	0.044980	0.469049	99
Es	0.542405	2.060718	0.241691	99
Es	1.930781	-0.963483	-0.697913	99
Es	0.533902	-0.689156	-0.780539	99
Es	0.519187	1.405639	0.469078	99
Es	2.007442	-1.227207	-0.868998	99
Es	-1.772525	0.365077	-0.062233	99
Es	1.424208	-0.832338	-0.734804	99
Es	1.934500	-0.967838	-0.465676	99
Es	0.298632	-0.282376	1.052046	99
Es	0.296207	0.775583	0.468153	99
Es	-0.703161	0.060415	0.491018	99
Es	0.965214	1.916360	0.398122	99
Es	2.176428	-0.494396	-0.786668	99
Es	0.674848	2.014483	0.760906	99
Es	-1.488484	0.028095	0.525688	99
Es	1.038757	2.844098	0.463012	99
Es	0.282375	-0.284484	-0.138345	99
Es	-1.736939	-0.680870	0.547851	99
Es	0.395717	-0.286088	-1.396668	99
Es	-1.722175	0.377210	1.117231	99
36
Properties=species:S:1:pos:R:3:Z:I:1 energy=-284.9531711994465 field_type=dipole dipole="0.000000 0.000000 0.000000" charge=0
C	-1.488567	0.028096	0.525697	6
C	0.037302	0.044816	0.469077	6
C	0.533692	-0.689164	-0.780623	6
O	1.930912	-0.963824	-0.697763	8
C	0.519322	1.405986	0.469077	6
N	0.903533	2.490976	0.469077	7
H	-1.855098	0.547576	1.419107	1
H	-1.866657	-0.999784	0.559117	1
H	-1.929898	0.522386	-0.348363	1
H	0.427102	-0.467754	1.357257	1
H	0.342112	-0.126304	-1.702223	1
H	0.031603	-1.658554	-0.873823	1
H	2.414642	-0.134454	-0.865613	1
Es	0.533903	-0.689160	-0.780542	99
Es	0.903387	2.490558	0.469073	99
Es	2.009557	-1.166339	-0.468171	99
Es	0.397472	-0.289347	-1.394534	99
Es	0.178976	-1.349978	-0.833071	99
Es	0.296061	-0.275687	1.046692	99
Es	2.171091	-0.489315	-0.753130	99
Es	-1.737201	-0.681370	0.543651	99
Es	-0.703166	0.060168	0.491495	99
Es	0.551910	2.057642	0.688473	99
Es	-1.768311	0.358295	-0.056604	99
Es	0.979428	1.911965	0.525844	99
Es	0.297480	0.775550	0.468572	99
Es	0.037311	0.044981	0.469048	99
Es	1.034885	2.846095	0.471323	99
Es	1.419684	-0.834646	-0.717718	99
Es	1.941031	-1.031499	-0.918096	99
Es	1.930750	-0.963461	-0.697794	99
Es	-1.724995	0.383929	1.120211	99
Es	-1.488488	0.028094	0.525690	99
Es	0.653685	2.020584	0.181252	99
Es	0.283439	-0.287263	-0.139801	99
Es	0.519192	1.405636	0.469070	99
36
Properties=species:S:1:pos:R:3:Z:I:1 energy=-284.9531711994465 field_type=dipole dipole="0.000000 0.000000 0.000000" charge=0
C	-1.488567	0.028096	0.525697	6
C	0.037302	0.044816	0.469077	6
C	0.533692	-0.689164	-0.780623	6
O	1.930912	-0.963824	-0.697763	8
C	0.519322	1.405986	0.469077	6
N	0.903533	2.490976	0.469077	7
H	-1.855098	0.547576	1.419107	1
H	-1.866657	-0.999784	0.559117	1
H	-1.929898	0.522386	-0.348363	1
H	0.427102	-0.467754	1.357257	1
H	0.342112	-0.126304	-1.702223	1
H	0.031603	-1.658554	-0.873823	1
H	2.414642	-0.134454	-0.865613	1
Es	0.397523	-0.289493	-1.394635	99
Es	0.956873	1.920844	0.586973	99
Es	0.533906	-0.689158	-0.780538	99
Es	0.297144	0.775669	0.468716	99
Es	1.420513	-0.834715	-0.724427	99
Es	-1.737240	-0.681353	0.543446	99
Es	1.034992	2.846013	0.471880	99
Es	0.513005	2.072158	0.640099	99
Es	-1.768209	0.358322	-0.056558	99
Es	-1.488491	0.028094	0.525690	99
Es	2.171121	-0.489368	-0.752102	99
Es	0.179013	-1.349971	-0.833047	99
Es	0.283336	-0.286871	-0.139897	99
Es	0.519188	1.405637	0.469070	99
Es	0.715340	1.997146	0.167937	99
Es	-0.703173	0.060121	0.491532	99
Es	0.296155	-0.275907	1.046731	99
Es	1.942885	-1.026648	-0.911642	99
Es	0.903387	2.490559	0.469073	99
Es	-1.725056	0.383920	1.120287	99
Es	0.037312	0.044981	0.469048	99
Es	2.006806	-1.171201	-0.469134	99
Es	1.930749	-0.963347	-0.697565	99
36
Properties=species:S:1:pos:R:3:Z:I:1 energy=-284.9531711994465 field_type=dipole dipole="0.000000 0.000000 0.000000" charge=0
C	-1.488567	0.028096	0.525697	6
C	0.037302	0.044816	0.469077	6
C	0.533692	-0.689164	-0.780623	6
O	1.930912	-0.963824	-0.697763	8
C	0.519322	1.405986	0.469077	6
N	0.903533	2.490976	0.469077	7
H	-1.855098	0.547576	1.419107	1
H	-1.866657	-0.999784	0.559117	1
H	-1.929898	0.522386	-0.348363	1
H	0.427102	-0.467754	1.357257	1
H	0.342112	-0.126304	-1.702223	1
H	0.031603	-1.658554	-0.873823	1
H	2.414642	-0.134454	-0.865613	1
Es	0.282594	-0.284482	-0.137990	99
Es	0.037312	0.044979	0.469047	99
Es	0.903388	2.490560	0.469073	99