42
Properties=species:S:1:pos:R:3:Z:I:1 energy=-286.9068548627308 field_type=dipole dipole="0.000000 0.000000 0.000000" charge=0
C	-1.554925	-1.511261	-0.321117	6
C	-0.083015	-1.250360	-0.311857	6
C	0.542745	-0.060271	-0.203447	6
C	-0.168335	1.273240	-0.137897	6
N	-0.298555	1.750040	1.236153	7
C	1.948745	-0.060271	-0.203447	6
C	3.138905	-0.060271	-0.203447	6
H	-1.793785	-2.280251	0.421423	1
H	-1.861215	-1.882020	-1.304417	1
H	-2.156075	-0.631341	-0.080647	1
H	0.525515	-2.152340	-0.382657	1
H	-1.159315	1.222879	-0.600507	1
H	0.390315	2.016539	-0.719917	1
H	-0.836655	1.069739	1.769643	1
H	-0.837985	2.612619	1.239012	1
H	4.203635	-0.056671	-0.196867	1
Es	-0.083102	-1.250440	-0.311856	99
Es	-1.703453	-2.028949	0.179247	99
Es	-0.851476	1.222635	-0.460466	99
Es	1.267251	-0.049942	-0.200332	99
Es	-0.640639	2.263109	1.222600	99
Es	2.550963	0.264587	-0.354552	99
Es	0.263416	-0.601069	-0.578684	99
Es	-0.168316	1.273212	-0.137754	99
Es	-1.748210	-1.758409	-0.982999	99
Es	0.255517	-0.651069	0.071413	99
Es	0.322963	-1.863401	-0.360668	99
Es	0.542858	-0.060165	-0.203434	99
Es	-0.263745	1.534225	0.635062	99
Es	3.139172	-0.060268	-0.203452	99
Es	0.214787	1.772926	-0.532507	99
Es	-0.299040	1.749957	1.235903	99
Es	2.540296	-0.099156	0.144238	99
Es	-0.642916	1.338477	1.540904	99
Es	3.835483	-0.058917	-0.200389	99
Es	-1.956493	-0.909337	-0.158613	99
Es	0.013948	1.797621	1.384912	99
Es	-0.822888	-1.360407	-0.316611	99
Es	0.198517	0.592282	-0.164961	99
Es	2.548021	-0.357865	-0.409462	99
Es	1.948494	-0.060269	-0.203461	99
Es	-1.554877	-1.511252	-0.321117	99
42
Properties=species:S:1:pos:R:3:Z:I:1 energy=-286.9068548627308 field_type=dipole dipole="0.000000 0.000000 0.000000" charge=0
C	-1.554925	-1.511261	-0.321117	6
C	-0.083015	-1.250360	-0.311857	6
C	0.542745	-0.060271	-0.203447	6
C	-0.168335	1.273240	-0.137897	6
N	-0.298555	1.750040	1.236153	7
C	1.948745	-0.060271	-0.203447	6
C	3.138905	-0.060271	-0.203447	6
H	-1.793785	-2.280251	0.421423	1
H	-1.861215	-1.882020	-1.304417	1
H	-2.156075	-0.631341	-0.080647	1
H	0.525515	-2.152340	-0.382657	1
H	-1.159315	1.222879	-0.600507	1
H	0.390315	2.016539	-0.719917	1
H	-0.836655	1.069739	1.769643	1
H	-0.837985	2.612619	1.239012	1
H	4.203635	-0.056671	-0.196867	1
Es	0.030774	1.800913	1.390729	99
Es	1.948484	-0.060278	-0.203452	99
Es	0.217122	1.773983	-0.531736	99
Es	-0.651095	1.338793	1.532989	99
Es	2.547870	-0.331669	0.021375	99
Es	-0.642757	2.255030	1.216234	99
Es	2.539877	-0.146884	-0.533218	99
Es	1.269550	-0.054248	-0.200684	99
Es	0.323245	-1.860883	-0.360314	99
Es	0.255256	-0.650817	0.067201	99
Es	-0.168314	1.273212	-0.137759	99
Es	-0.299091	1.749947	1.235902	99
Es	-1.554877	-1.511252	-0.321116	99
Es	2.551282	0.285913	-0.107675	99
Es	-0.269335	1.537002	0.640703	99
Es	-0.854312	1.221268	-0.460524	99
Es	-0.083103	-1.250440	-0.311858	99
Es	-0.820677	-1.360150	-0.316989	99
Es	0.197822	0.591679	-0.162738	99
Es	-1.705727	-2.028367	0.176512	99
Es	3.139180	-0.060270	-0.203455	99
Es	-1.958564	-0.911660	-0.159842	99
Es	3.837157	-0.054063	-0.201072	99
Es	0.262938	-0.600865	-0.574483	99
Es	-1.749036	-1.757616	-0.978333	99
Es	0.542860	-0.060163	-0.203437	99
42
Properties=species:S:1:pos:R:3:Z:I:1 energy=-286.9068548627308 field_type=dipole dipole="0.000000 0.000000 0.000000" charge=0
C	-1.554925	-1.511261	-0.321117	6
C	-0.083015	-1.250360	-0.311857	6
C	0.542745	-0.060271	-0.203447	6
C	-0.168335	1.273240	-0.137897	6
N	-0.298555	1.750040	1.236153	7
C	1.948745	-0.060271	-0.203447	6
C	3.138905	-0.060271	-0.203447	6
H	-1.793785	-2.280251	0.421423	1
H	-1.861215	-1.882020	-1.304417	1
H	-2.156075	-0.631341	-0.080647	1
H	0.525515	-2.152340	-0.382657	1
H	-1.159315	1.222879	-0.600507	1
H	0.390315	2.016539	-0.719917	1
H	-0.836655	1.069739	1.769643	1
H	-0.837985	2.612619	1.239012	1
H	4.203635	-0.056671	-0.196867	1
Es	-0.819702	-1.360119	-0.317175	99
Es	-0.855988	1.220344	-0.459994	99
Es	1.948483	-0.060276	-0.203463	99
Es	2.540727	-0.148484	0.092117	99
Es	0.218937	1.774774	-0.531037	99
Es	-1.554878	-1.511254	-0.321117	99
Es	2.547491	-0.338837	-0.436125	99
Es	2.550738	0.294006	-0.276631	99
Es	-0.656105	1.338160	1.528653	99
Es	0.263075	-0.600555	-0.572838	99
Es	-1.959640	-0.913121	-0.160269	99
Es	-0.299013	1.749926	1.235877	99
Es	-0.083104	-1.250440	-0.311857	99
Es	0.322906	-1.859339	-0.360290	99
Es	0.197210	0.591556	-0.161422	99
Es	-0.642359	2.249296	1.212855	99
Es	-1.706913	-2.028574	0.174489	99
Es	0.254985	-0.651016	0.065520	99
Es	-1.748850	-1.756371	-0.975494	99
Es	0.542860	-0.060165	-0.203439	99
Es	0.042154	1.802687	1.388355	99
Es	3.837536	-0.051158	-0.200619	99
Es	-0.168315	1.273212	-0.137758	99
Es	1.270661	-0.055989	-0.200142	99
Es	-0.275548	1.540122	0.648217	99
Es	3.139183	-0.060270	-0.203453	99
42
Properties=species:S:1:pos:R:3:Z:I:1 energy=-286.9068548627308 field_type=dipole dipole="0.000000 0.000000 0.000000" charge=0
C	-1.554925	-1.511261	-0.321117	6
C	-0.083015	-1.250360	-0.311857	6
C	0.542745	-0.060271	-0.203447	6
C	-0.168335	1.273240	-0.137897	6
N	-0.298555	1.750040	1.236153	7
C	1.948745	-0.060271	-0.203447	6
C	3.138905	-0.060271	-0.203447	6
H	-1.793785	-2.280251	0.421423	1
H	-1.861215	-1.882020	-1.304417	1
H	-2.156075	-0.631341	-0.080647	1
H	0.525515	-2.152340	-0.382657	1
H	-1.159315	1.222879	-0.600507	1
H	0.390315	2.016539	-0.719917	1
H	-0.836655	1.069739	1.769643	1
H	-0.837985	2.612619	1.239012	1
H	4.203635	-0.056671	-0.196867	1
Es	0.255007	-0.651282	0.064957	99
Es	-1.748763	-1.755893	-0.973877	99
Es	-1.707461	-2.028334	0.173362	99
Es	-0.083104	-1.250441	-0.311858	99
Es	-0.660280	1.338170	1.525273	99
Es	0.196767	0.591545	-0.160306	99
Es	0.322343	-1.858107	-0.360477	99
Es	2.539939	-0.119539	0.071622	99
Es	-1.960191	-0.914085	-0.160617	99
Es	-0.641130	2.243580	1.210454	99
Es	2.548593	-0.366484	-0.406525	99
Es	0.220364	1.775144	-0.530482	99
Es	-1.554877	-1.511248	-0.321116	99
Es	-0.278835	1.542310	0.654558	99
Es	-0.168315	1.273211	-0.137754	99
Es	0.263008	-0.600182	-0.572406	99
Es	-0.299059	1.749950	1.235929	99
Es	1.271281	-0.056385	-0.199964	99
Es	0.048901	1.804975	1.385942	99
Es	3.837602	-0.049521	-0.201168	99
Es	1.948480	-0.060275	-0.203455	99
Es	-0.819224	-1.360244	-0.317246	99
Es	0.542861	-0.060162	-0.203438	99
Es	3.139182	-0.060275	-0.203452	99
Es	-0.857044	1.219529	-0.459436	99
Es	2.550483	0.292161	-0.285560	99
42
Properties=species:S:1:pos:R:3:Z:I:1 energy=-286.9068548627308 field_type=dipole dipole="0.000000 0.000000 0.000000" charge=0
C	-1.554925	-1.511261	-0.321117	6
C	-0.083015	-1.250360	-0.311857	6
C	0.542745	-0.060271	-0.203447	6
C	-0.168335	1.273240	-0.137897	6
N	-0.298555	1.750040	1.236153	7
C	1.948745	-0.060271	-0.203447	6
C	3.138905	-0.060271	-0.203447	6
H	-1.793785	-2.280251	0.421423	1
H	-1.861215	-1.882020	-1.304417	1
H	-2.156075	-0.631341	-0.080647	1
H	0.525515	-2.152340	-0.382657	1
H	-1.159315	1.222879	-0.600507	1
H	0.390315	2.016539	-0.719917	1
H	-0.836655	1.069739	1.769643	1
H	-0.837985	2.612619	1.239012	1
H	4.203635	-0.056671	-0.196867	1
Es	0.196219	0.591779	-0.158887	99
Es	0.321800	-1.857057	-0.361115	99
Es	2.548934	0.254576	-0.029699	99
Es	-1.960731	-0.914677	-0.160604	99
Es	2.551729	-0.418478	-0.123829	99
Es	3.139185	-0.060262	-0.203457	99
Es	-1.748467	-1.755187	-0.972580	99
Es	0.255304	-0.651800	0.064734	99
Es	-0.299060	1.749902	1.235890	99
Es	1.948477	-0.060273	-0.203455	99
Es	0.542862	-0.060161	-0.203440	99
Es	-0.083104	-1.250440	-0.311859	99
Es	0.262690	-0.599653	-0.572182	99
Es	2.538304	-0.029819	-0.465100	99
Es	-0.639436	2.238328	1.209252	99
Es	0.053167	1.807388	1.383589	99
Es	-0.857603	1.218677	-0.459103	99
Es	3.837610	-0.048651	-0.203102	99
Es	1.271730	-0.056791	-0.200233	99
Es	-0.663491	1.338496	1.522844	99
Es	-1.554876	-1.511253	-0.321116	99
Es	-0.281328	1.544284	0.659579	99
Es	-1.707812	-2.028505	0.172188	99
Es	-0.168315	1.273212	-0.137757	99
Es	0.221730	1.774909	-0.530416	99
Es	-0.818988	-1.360431	-0.317180	99
42
Properties=species:S:1:pos:R:3:Z:I:1 energy=-286.9068548627308 field_type=dipole dipole="0.000000 0.000000 0.000000" charge=0
C	-1.554925	-1.511261	-0.321117	6
C	-0.083015	-1.250360	-0.311857	6
C	0.542745	-0.060271	-0.203447	6
C	-0.168335	1.273240	-0.137897	6
N	-0.298555	1.750040	1.236153	7
C	1.948745	-0.060271	-0.203447	6
C	3.138905	-0.060271	-0.203447	6
H	-1.793785	-2.280251	0.421423	1
H	-1.861215	-1.882020	-1.304417	1
H	-2.156075	-0.631341	-0.080647	1
H	0.525515	-2.152340	-0.382657	1
H	-1.159315	1.222879	-0.600507	1
H	0.390315	2.016539	-0.719917	1
H	-0.836655	1.069739	1.769643	1
H	-0.837985	2.612619	1.239012	1
H	4.203635	-0.056671	-0.196867	1
Es	0.262833	-0.599537	-0.571775	99
Es	3.837615	-0.048037	-0.201863	99
Es	-1.554880	-1.511257	-0.321131	99
Es	0.058266	1.806676	1.377663	99
Es	-0.168314	1.273211	-0.137756	99
Es	0.222402	1.775236	-0.529756	99
Es	0.321492	-1.856494	-0.361004	99
Es	-1.748348	-1.755105	-0.971582	99
Es	1.271964	-0.056733	-0.199559	99
Es	0.255103	-0.651766	0.064441	99
Es	2.548319	-0.368077	-0.405525	99
Es	2.550779	0.298003	-0.256618	99
Es	3.139186	-0.060255	-0.203457	99
Es	-1.707890	-2.028305	0.171753	99
Es	-0.083104	-1.250440	-0.311856	99
Es	-0.638227	2.235711	1.208579	99
Es	-0.666015	1.338218	1.519657	99
Es	-0.818868	-1.360412	-0.317456	99
Es	-0.299093	1.749927	1.235928	99
Es	2.539943	-0.124213	0.041662	99
Es	0.542862	-0.060161	-0.203441	99
Es	-1.961107	-0.915056	-0.160872	99
Es	1.948477	-0.060288	-0.203461	99
Es	0.196112	0.591928	-0.158737	99
Es	-0.858206	1.218303	-0.458471	99
Es	-0.284771	1.547036	0.667598	99
42
Properties=species:S:1:pos:R:3:Z:I:1 energy=-286.9068548627308 field_type=dipole dipole="0.000000 0.000000 0.000000" charge=0
C	-1.554925	-1.511261	-0.321117	6
C	-0.083015	-1.250360	-0.311857	6
C	0.542745	-0.060271	-0.203447	6
C	-0.168335	1.273240	-0.137897	6
N	-0.298555	1.750040	1.236153	7
C	1.948745	-0.060271	-0.203447	6
C	3.138905	-0.060271	-0.203447	6
H	-1.793785	-2.280251	0.421423	1
H	-1.861215	-1.882020	-1.304417	1
H	-2.156075	-0.631341	-0.080647	1
H	0.525515	-2.152340	-0.382657	1
H	-1.159315	1.222879	-0.600507	1
H	0.390315	2.016539	-0.719917	1
H	-0.836655	1.069739	1.769643	1
H	-0.837985	2.612619	1.239012	1
H	4.203635	-0.056671	-0.196867	1
Es	-0.636211	2.232580	1.207921	99
Es	-0.083105	-1.250438	-0.311871	99
Es	0.321081	-1.856021	-0.360856	99
Es	0.254018	-0.652249	0.064035	99
Es	-1.961371	-0.915312	-0.160871	99
Es	2.539918	-0.123738	0.028204	99
Es	1.948476	-0.060288	-0.203445	99
Es	2.550893	0.299520	-0.245252	99
Es	-1.708220	-2.028569	0.170997	99
Es	-0.668752	1.339311	1.518064	99
Es	-1.554878	-1.511252	-0.321116	99
Es	-1.748015	-1.754516	-0.970906	99
Es	-0.286385	1.548187	0.671770	99
Es	0.542862	-0.060160	-0.203441	99
Es	-0.858593	1.217964	-0.458003	99
Es	-0.818757	-1.360511	-0.317309	99
Es	0.223337	1.775054	-0.529508	99
Es	-0.299064	1.749935	1.235929	99
Es	0.060805	1.807014	1.374711	99
Es	0.195870	0.592095	-0.158286	99
Es	-0.168317	1.273213	-0.137762	99
Es	0.263754	-0.598864	-0.571798	99
Es	3.139186	-0.060259	-0.203456	99
Es	2.548227	-0.370049	-0.403183	99
Es	3.837650	-0.047840	-0.202144	99
Es	1.272119	-0.056691	-0.199463	99
42
Properties=species:S:1:pos:R:3:Z:I:1 energy=-286.9068548627308 field_type=dipole dipole="0.000000 0.000000 0.000000" charge=0
C	-1.554925	-1.511261	-0.321117	6
C	-0.083015	-1.250360	-0.311857	6
C	0.542745	-0.060271	-0.203447	6
C	-0.168335	1.273240	-0.137897	6
N	-0.298555	1.750040	1.236153	7
C	1.948745	-0.060271	-0.203447	6
C	3.138905	-0.060271	-0.203447	6
H	-1.793785	-2.280251	0.421423	1
H	-1.861215	-1.882020	-1.304417	1
H	-2.156075	-0.631341	-0.080647	1
H	0.525515	-2.152340	-0.382657	1
H	-1.159315	1.222879	-0.600507	1
H	0.390315	2.016539	-0.719917	1
H	-0.836655	1.069739	1.769643	1
H	-0.837985	2.612619	1.239012	1
H	4.203635	-0.056671	-0.196867	1
Es	-1.961748	-0.915637	-0.160509	99
Es	-0.083105	-1.250440	-0.311854	99
Es	1.272283	-0.056773	-0.199996	99
Es	0.542864	-0.060162	-0.203445	99
Es	-1.707898	-2.028304	0.170395	99
Es	3.837615	-0.047634	-0.203767	99
Es	1.948476	-0.060283	-0.203449	99
Es	-0.818675	-1.360606	-0.317378	99
Es	-0.168316	1.273212	-0.137758	99
Es	0.062143	1.808437	1.373234	99
Es	-0.287197	1.548978	0.674620	99
Es	0.254671	-0.652426	0.064624	99
Es	0.263129	-0.598633	-0.572215	99
Es	-1.748149	-1.754494	-0.970427	99
Es	-0.671523	1.340814	1.517064	99
Es	2.548914	0.254036	-0.028510	99
Es	2.538584	-0.021703	-0.425558	99
Es	0.195453	0.592434	-0.157694	99
Es	2.551540	-0.426390	-0.164453	99
Es	3.139185	-0.060265	-0.203462	99
Es	-0.858718	1.217459	-0.457858	99
Es	-1.554879	-1.511259	-0.321114	99
Es	0.320458	-1.855302	-0.361179	99
Es	0.224346	1.774434	-0.529747	99
Es	-0.299049	1.749935	1.235960	99
Es	-0.633876	2.228687	1.207437	99
42
Properties=species:S:1:pos:R:3:Z:I:1 energy=-286.9068548627308 field_type=dipole dipole="0.000000 0.000000 0.000000" charge=0
C	-1.554925	-1.511261	-0.321117	6
C	-0.083015	-1.250360	-0.311857	6
C	0.542745	-0.060271	-0.203447	6
C	-0.168335	1.273240	-0.137897	6
N	-0.298555	1.750040	1.236153	7
C	1.948745	-0.060271	-0.203447	6
C	3.138905	-0.060271	-0.203447	6
H	-1.793785	-2.280251	0.421423	1
H	-1.861215	-1.882020	-1.304417	1
H	-2.156075	-0.631341	-0.080647	1
H	0.525515	-2.152340	-0.382657	1
H	-1.159315	1.222879	-0.600507	1
H	0.390315	2.016539	-0.719917	1
H	-0.836655	1.069739	1.769643	1
H	-0.837985	2.612619	1.239012	1
H	4.203635	-0.056671	-0.196867	1
Es	3.837684	-0.047560	-0.202437	99
Es	0.064383	1.807583	1.369748	99
Es	1.272305	-0.056364	-0.199460	99
Es	0.195274	0.592357	-0.157663	99
Es	-0.288561	1.550173	0.679424	99
Es	0.320433	-1.855129	-0.360975	99
Es	0.224734	1.774575	-0.529164	99
Es	2.539820	-0.120720	0.009622	99
Es	-0.818633	-1.360652	-0.317423	99
Es	-1.962038	-0.915687	-0.160962	99
Es	-0.632944	2.227114	1.206730	99
Es	-0.083105	-1.250440	-0.311857	99
Es	-0.168317	1.273212	-0.137759	99
Es	0.254359	-0.652335	0.064248	99
Es	-1.747669	-1.754251	-0.969754	99
Es	-0.859048	1.217535	-0.457427	99
Es	2.551027	0.300542	-0.232669	99
Es	2.548211	-0.374238	-0.397145	99
Es	-0.673215	1.341502	1.515236	99
Es	-1.708226	-2.028458	0.170089	99
Es	0.263413	-0.598641	-0.571898	99
Es	-1.554877	-1.511251	-0.321116	99
Es	-0.299001	1.749951	1.235924	99
Es	3.139186	-0.060258	-0.203460	99
Es	1.948476	-0.060289	-0.203444	99
Es	0.542860	-0.060159	-0.203450	99
42
Properties=species:S:1:pos:R:3:Z:I:1 energy=-286.9068548627308 field_type=dipole dipole="0.000000 0.000000 0.000000" charge=0
C	-1.554925	-1.511261	-0.321117	6
C	-0.083015	-1.250360	-0.311857	6
C	0.542745	-0.060271	-0.203447	6
C	-0.168335	1.273240	-0.137897	6
N	-0.298555	1.750040	1.236153	7
C	1.948745	-0.060271	-0.203447	6
C	3.138905	-0.060271	-0.203447	6
H	-1.793785	-2.280251	0.421423	1
H	-1.861215	-1.882020	-1.304417	1
H	-2.156075	-0.631341	-0.080647	1
H	0.525515	-2.152340	-0.382657	1
H	-1.159315	1.222879	-0.600507	1
H	0.390315	2.016539	-0.719917	1
H	-0.836655	1.069739	1.769643	1
H	-0.837985	2.612619	1.239012	1
H	4.203635	-0.056671	-0.196867	1
Es	1.272414	-0.056381	-0.200082	99
Es	0.542863	-0.060163	-0.203435	99
Es	-1.554876	-1.511256	-0.321117	99
Es	-0.299046	1.749954	1.235957	99
Es	3.139188	-0.060263	-0.203464	99
Es	0.194919	0.592633	-0.157169	99
Es	0.263226	-0.598191	-0.572314	99
Es	0.064626	1.808692	1.369950	99
Es	-1.961816	-0.915887	-0.160878	99
Es	-0.630533	2.223921	1.207155	99
Es	0.225719	1.773587	-0.529637	99
Es	-0.168317	1.273212	-0.137760	99
Es	2.551296	-0.427647	-0.177696	99
Es	-0.288750	1.550598	0.679899	99
Es	-0.675589	1.343274	1.514500	99
Es	3.837695	-0.047685	-0.203849	99
Es	-1.747950	-1.754237	-0.969735	99
Es	2.538607	-0.025315	-0.404089	99
Es	0.319752	-1.854559	-0.361190	99
Es	0.254579	-0.652710	0.064767	99
Es	-0.083106	-1.250440	-0.311862	99
Es	1.948476	-0.060288	-0.203443	99
Es	-1.708289	-2.028192	0.170051	99
Es	-0.859078	1.217203	-0.457489	99
Es	-0.818606	-1.360674	-0.317235	99
Es	2.549126	0.258927	-0.036873	99
42
Properties=species:S:1:pos:R:3:Z:I:1 energy=-286.9068548627308 field_type=dipole dipole="0.000000 0.000000 0.000000" charge=0
C	-1.554925	-1.511261	-0.321117	6
C	-0.083015	-1.250360	-0.311857	6
C	0.542745	-0.060271	-0.203447	6
C	-0.168335	1.273240	-0.137897	6
N	-0.298555	1.750040	1.236153	7
C	1.948745	-0.060271	-0.203447	6
C	3.138905	-0.060271	-0.203447	6
H	-1.793785	-2.280251	0.421423	1
H	-1.861215	-1.882020	-1.304417	1
H	-2.156075	-0.631341	-0.080647	1
H	0.525515	-2.152340	-0.382657	1
H	-1.159315	1.222879	-0.600507	1
H	0.390315	2.016539	-0.719917	1
H	-0.836655	1.069739	1.769643	1
H	-0.837985	2.612619	1.239012	1
H	4.203635	-0.056671	-0.196867	1
Es	0.066980	1.807671	1.365147	99
Es	2.551119	0.300665	-0.226846	99
Es	0.254350	-0.652670	0.064387	99
Es	-0.299113	1.749927	1.235928	99
Es	-0.083105	-1.250439	-0.311861	99
Es	2.539701	-0.116473	-0.002996	99
Es	-0.859290	1.217175	-0.457095	99
Es	0.319750	-1.854488	-0.361130	99
Es	-1.962416	-0.915923	-0.160879	99
Es	-1.554876	-1.511251	-0.321116	99
Es	-0.290406	1.552463	0.686010	99
Es	-0.818571	-1.360677	-0.317238	99
Es	-0.630575	2.223253	1.206921	99
Es	2.548264	-0.378682	-0.390126	99
Es	0.225910	1.773773	-0.529222	99
Es	-0.676052	1.342763	1.512434	99
Es	0.194828	0.592786	-0.157011	99
Es	3.837706	-0.047470	-0.202731	99
Es	-0.168316	1.273212	-0.137759	99
Es	-1.707902	-2.027723	0.169617	99
Es	1.948476	-0.060290	-0.203444	99
Es	0.542863	-0.060161	-0.203444	99
Es	3.139187	-0.060259	-0.203451	99
Es	0.263424	-0.598181	-0.572070	99
Es	-1.747826	-1.754638	-0.969425	99
Es	1.272421	-0.056252	-0.199639	99
42
Properties=species:S:1:pos:R:3:Z:I:1 energy=-286.9068548627308 field_type=dipole dipole="0.000000 0.000000 0.000000" charge=0
C	-1.554925	-1.511261	-0.321117	6
C	-0.083015	-1.250360	-0.311857	6
C	0.542745	-0.060271	-0.203447	6
C	-0.168335	1.273240	-0.137897	6
N	-0.298555	1.750040	1.236153	7
C	1.948745	-0.060271	-0.203447	6
C	3.138905	-0.060271	-0.203447	6
H	-1.793785	-2.280251	0.421423	1
H	-1.861215	-1.882020	-1.304417	1
H	-2.156075	-0.631341	-0.080647	1
H	0.525515	-2.152340	-0.382657	1
H	-1.159315	1.222879	-0.600507	1
H	0.390315	2.016539	-0.719917	1
H	-0.836655	1.069739	1.769643	1
H	-0.837985	2.612619	1.239012	1
H	4.203635	-0.056671	-0.196867	1
Es	0.226679	1.772967	-0.529604	99
Es	0.263464	-0.597919	-0.572587	99
Es	-0.168316	1.273211	-0.137756	99
Es	-1.962296	-0.916035	-0.160476	99
Es	2.551116	-0.428144	-0.186043	99
Es	0.542864	-0.060162	-0.203443	99
Es	3.837744	-0.047760	-0.203909	99
Es	1.948475	-0.060300	-0.203450	99
Es	-0.678388	1.345201	1.512990	99
Es	-0.628171	2.219876	1.206780	99
Es	-0.818573	-1.360734	-0.317252	99
Es	-0.083105	-1.250440	-0.311850	99
Es	2.538642	-0.027329	-0.390803	99
Es	-0.859313	1.216961	-0.457096	99
Es	-1.554877	-1.511255	-0.321114	99
Es	-0.290252	1.552009	0.685187	99
Es	0.254407	-0.652944	0.064922	99
Es	0.194606	0.593044	-0.156899	99
Es	0.319114	-1.853972	-0.361144	99
Es	3.139188	-0.060258	-0.203460	99
Es	-0.299038	1.749953	1.235943	99
Es	0.066741	1.809078	1.365921	99
Es	-1.707945	-2.027891	0.169319	99
Es	-1.747979	-1.754241	-0.969344	99
Es	1.272474	-0.056287	-0.199978	99
Es	2.549268	0.261485	-0.041893	99
42
Properties=species:S:1:pos:R:3:Z:I:1 energy=-286.9068548627308 field_type=dipole dipole="0.000000 0.000000 0.000000" charge=0
C	-1.554925	-1.511261	-0.321117	6
C	-0.083015	-1.250360	-0.311857	6
C	0.542745	-0.060271	-0.203447	6
C	-0.168335	1.273240	-0.137897	6
N	-0.298555	1.750040	1.236153	7
C	1.948745	-0.060271	-0.203447	6
C	3.138905	-0.060271	-0.203447	6
H	-1.793785	-2.280251	0.421423	1
H	-1.861215	-1.882020	-1.304417	1
H	-2.156075	-0.631341	-0.080647	1
H	0.525515	-2.152340	-0.382657	1
H	-1.159315	1.222879	-0.600507	1
H	0.390315	2.016539	-0.719917	1
H	-0.836655	1.069739	1.769643	1
H	-0.837985	2.612619	1.239012	1
H	4.203635	-0.056671	-0.196867	1
Es	3.837745	-0.047558	-0.202815	99
Es	0.068458	1.807546	1.362323	99
Es	-1.747621	-1.754161	-0.968856	99
Es	0.319225	-1.853997	-0.361185	99
Es	-1.962712	-0.916078	-0.160640	99
Es	-1.707957	-2.027920	0.168917	99
Es	0.542864	-0.060160	-0.203449	99
Es	0.194547	0.593018	-0.156775	99
Es	2.548210	-0.379482	-0.388655	99
Es	1.272499	-0.056182	-0.199491	99
Es	3.139188	-0.060259	-0.203464	99
Es	-0.679044	1.344755	1.510359	99
Es	0.226724	1.773395	-0.528975	99
Es	-0.628197	2.219898	1.206491	99
Es	0.254107	-0.652924	0.064476	99
Es	0.263743	-0.597921	-0.572153	99
Es	-0.818519	-1.360742	-0.317346	99
Es	-0.291125	1.553497	0.690326	99
Es	-0.083105	-1.250440	-0.311854	99
Es	-0.168317	1.273213	-0.137761	99
Es	2.539705	-0.115981	-0.011744	99
Es	1.948473	-0.060288	-0.203451	99
Es	-0.299077	1.749948	1.235959	99
Es	2.551147	0.301085	-0.219579	99
Es	-1.554878	-1.511252	-0.321116	99
Es	-0.859555	1.217104	-0.456581	99
42
Properties=species:S:1:pos:R:3:Z:I:1 energy=-286.9068548627308 field_type=dipole dipole="0.000000 0.000000 0.000000" charge=0
C	-1.554925	-1.511261	-0.321117	6
C	-0.083015	-1.250360	-0.311857	6
C	0.542745	-0.060271	-0.203447	6
C	-0.168335	1.273240	-0.137897	6
N	-0.298555	1.750040	1.236153	7
C	1.948745	-0.060271	-0.203447	6
C	3.138905	-0.060271	-0.203447	6
H	-1.793785	-2.280251	0.421423	1
H	-1.861215	-1.882020	-1.304417	1
H	-2.156075	-0.631341	-0.080647	1
H	0.525515	-2.152340	-0.382657	1
H	-1.159315	1.222879	-0.600507	1
H	0.390315	2.016539	-0.719917	1
H	-0.836655	1.069739	1.769643	1
H	-0.837985	2.612619	1.239012	1
H	4.203635	-0.056671	-0.196867	1
Es	0.542863	-0.060161	-0.203442	99
Es	2.538719	-0.026490	-0.387697	99
Es	-1.707568	-2.027661	0.168623	99
Es	-0.818504	-1.360809	-0.317367	99
Es	1.948475	-0.060291	-0.203446	99
Es	0.254124	-0.653245	0.064768	99
Es	-0.626228	2.217464	1.206843	99
Es	2.551068	-0.428232	-0.190216	99
Es	-0.168317	1.273213	-0.137758	99
Es	0.194266	0.593445	-0.156504	99
Es	-0.291473	1.553600	0.690677	99
Es	1.272534	-0.056252	-0.200068	99
Es	2.549252	0.260692	-0.040720	99
Es	-0.299014	1.749942	1.235942	99
Es	-0.083105	-1.250439	-0.311862	99
Es	0.318879	-1.853646	-0.361282	99
Es	-1.747909	-1.754252	-0.968854	99
Es	3.139188	-0.060259	-0.203461	99
Es	0.263659	-0.597482	-0.572522	99
Es	-0.680810	1.346575	1.510699	99
Es	-1.962864	-0.916205	-0.160136	99
Es	0.068584	1.808177	1.361930	99
Es	0.227369	1.772584	-0.529453	99
Es	3.837734	-0.047634	-0.203976	99
Es	-1.554877	-1.511251	-0.321116	99
Es	-0.859516	1.216731	-0.456640	99
42
Properties=species:S:1:pos:R:3:Z:I:1 energy=-286.9068548627308 field_type=dipole dipole="0.000000 0.000000 0.000000" charge=0
C	-1.554925	-1.511261	-0.321117	6
C	-0.083015	-1.250360	-0.311857	6
C	0.542745	-0.060271	-0.203447	6
C	-0.168335	1.273240	-0.137897	6
N	-0.298555	1.750040	1.236153	7
C	1.948745	-0.060271	-0.203447	6
C	3.138905	-0.060271	-0.203447	6
H	-1.793785	-2.280251	0.421423	1
H	-1.861215	-1.882020	-1.304417	1
H	-2.156075	-0.631341	-0.080647	1
H	0.525515	-2.152340	-0.382657	1
H	-1.159315	1.222879	-0.600507	1
H	0.390315	2.016539	-0.719917	1
H	-0.836655	1.069739	1.769643	1
H	-0.837985	2.612619	1.239012	1
H	4.203635	-0.056671	-0.196867	1
Es	-0.681669	1.347425	1.510166	99
Es	3.837760	-0.047675	-0.203890	99
Es	2.538832	-0.025177	-0.381882	99
Es	-1.747514	-1.753705	-0.968490	99
Es	0.318584	-1.853431	-0.360961	99
Es	1.272542	-0.056128	-0.200197	99
Es	0.069036	1.808235	1.361166	99
Es	2.550991	-0.428576	-0.197760	99
Es	2.549231	0.259627	-0.039027	99
Es	-0.625590	2.216186	1.206603	99
Es	-0.083106	-1.250440	-0.311859	99
Es	-0.859577	1.216831	-0.456522	99
Es	0.264271	-0.597392	-0.572372	99
Es	0.227620	1.772481	-0.529332	99
Es	0.253525	-0.653329	0.064714	99
Es	0.194326	0.593332	-0.156755	99
Es	3.139187	-0.060256	-0.203462	99
Es	-1.708079	-2.028198	0.168546	99
Es	1.948474	-0.060290	-0.203446	99
Es	-1.554878	-1.511247	-0.321116	99
Es	-0.299077	1.749964	1.235969	99
Es	0.542864	-0.060162	-0.203442	99
Es	-0.818527	-1.360698	-0.317309	99
Es	-0.291613	1.553813	0.691861	99
Es	-1.962770	-0.916286	-0.160480	99
Es	-0.168315	1.273210	-0.137761	99
42
Properties=species:S:1:pos:R:3:Z:I:1 energy=-286.9068548627308 field_type=dipole dipole="0.000000 0.000000 0.000000" charge=0
C	-1.554925	-1.511261	-0.321117	6
C	-0.083015	-1.250360	-0.311857	6
C	0.542745	-0.060271	-0.203447	6
C	-0.168335	1.273240	-0.137897	6
N	-0.298555	1.750040	1.236153	7
C	1.948745	-0.060271	-0.203447	6
C	3.138905	-0.060271	-0.203447	6
H	-1.793785	-2.280251	0.421423	1
H	-1.861215	-1.882020	-1.304417	1
H	-2.156075	-0.631341	-0.080647	1
H	0.525515	-2.152340	-0.382657	1
H	-1.159315	1.222879	-0.600507	1
H	0.390315	2.016539	-0.719917	1
H	-0.836655	1.069739	1.769643	1
H	-0.837985	2.612619	1.239012	1
H	4.203635	-0.056671	-0.196867	1
Es	2.539772	-0.116703	-0.020497	99
Es	-1.708102	-2.028442	0.167918	99
Es	-0.681863	1.346518	1.507625	99
Es	0.318615	-1.853492	-0.361095	99
Es	0.070488	1.806640	1.357546	99
Es	-0.168315	1.273210	-0.137754	99
Es	2.548098	-0.378903	-0.389027	99
Es	0.264002	-0.597696	-0.572355	99
Es	-0.292714	1.555555	0.696665	99
Es	0.253909	-0.653133	0.064647	99
Es	-0.818515	-1.360642	-0.317277	99
Es	1.948475	-0.060291	-0.203444	99
Es	-1.747080	-1.753400	-0.968076	99
Es	-0.299067	1.749953	1.235967	99
Es	0.542863	-0.060160	-0.203438	99
Es	-1.963229	-0.916265	-0.160419	99
Es	-0.625684	2.216730	1.206968	99
Es	0.227591	1.772764	-0.528911	99
Es	-0.859748	1.216961	-0.456229	99
Es	2.551195	0.301196	-0.210339	99
Es	-0.083106	-1.250439	-0.311859	99
Es	-1.554877	-1.511252	-0.321117	99
Es	3.837780	-0.047526	-0.202826	99
Es	0.194298	0.593358	-0.156561	99
Es	1.272555	-0.056172	-0.199709	99
Es	3.139188	-0.060257	-0.203443	99
42
Properties=species:S:1:pos:R:3:Z:I:1 energy=-286.9068548627308 field_type=dipole dipole="0.000000 0.000000 0.000000" charge=0
C	-1.554925	-1.511261	-0.321117	6
C	-0.083015	-1.250360	-0.311857	6
C	0.542745	-0.060271	-0.203447	6
C	-0.168335	1.273240	-0.137897	6
N	-0.298555	1.750040	1.236153	7
C	1.948745	-0.060271	-0.203447	6
C	3.138905	-0.060271	-0.203447	6
H	-1.793785	-2.280251	0.421423	1
H	-1.861215	-1.882020	-1.304417	1
H	-2.156075	-0.631341	-0.080647	1
H	0.525515	-2.152340	-0.382657	1
H	-1.159315	1.222879	-0.600507	1
H	0.390315	2.016539	-0.719917	1
H	-0.836655	1.069739	1.769643	1
H	-0.837985	2.612619	1.239012	1
H	4.203635	-0.056671	-0.196867	1
Es	0.542863	-0.060160	-0.203431	99
Es	2.550878	-0.428500	-0.200764	99
Es	-0.299048	1.749954	1.235964	99
Es	-1.963022	-0.916353	-0.160289	99
Es	0.069874	1.807937	1.359342	99
Es	-1.707685	-2.027611	0.168333	99
Es	-0.083105	-1.250438	-0.311867	99
Es	0.264337	-0.597304	-0.572613	99
Es	3.139187	-0.060251	-0.203462	99
Es	2.538776	-0.028523	-0.372627	99
Es	0.194090	0.593755	-0.156782	99
Es	1.272580	-0.056095	-0.200097	99
Es	-0.859699	1.216646	-0.456324	99
Es	-0.683577	1.349262	1.509342	99
Es	3.837812	-0.047849	-0.203866	99
Es	-0.623847	2.213911	1.206686	99
Es	-0.168316	1.273208	-0.137756	99
Es	0.318252	-1.853120	-0.360872	99
Es	-0.818499	-1.360764	-0.317241	99
Es	2.549369	0.263036	-0.045371	99
Es	-1.747733	-1.754117	-0.968460	99
Es	1.948475	-0.060295	-0.203450	99
Es	0.253443	-0.653311	0.064838	99
Es	-1.554880	-1.511252	-0.321115	99
Es	0.228219	1.771990	-0.529291	99
Es	-0.292215	1.554358	0.694132	99
42
Properties=species:S:1:pos:R:3:Z:I:1 energy=-286.9068548627308 field_type=dipole dipole="0.000000 0.000000 0.000000" charge=0
C	-1.554925	-1.511261	-0.321117	6
C	-0.083015	-1.250360	-0.311857	6
C	0.542745	-0.060271	-0.203447	6
C	-0.168335	1.273240	-0.137897	6
N	-0.298555	1.750040	1.236153	7
C	1.948745	-0.060271	-0.203447	6
C	3.138905	-0.060271	-0.203447	6
H	-1.793785	-2.280251	0.421423	1
H	-1.861215	-1.882020	-1.304417	1
H	-2.156075	-0.631341	-0.080647	1
H	0.525515	-2.152340	-0.382657	1
H	-1.159315	1.222879	-0.600507	1
H	0.390315	2.016539	-0.719917	1
H	-0.836655	1.069739	1.769643	1
H	-0.837985	2.612619	1.239012	1
H	4.203635	-0.056671	-0.196867	1
Es	1.272559	-0.055791	-0.199647	99
Es	-0.818466	-1.360815	-0.317372	99
Es	-1.747338	-1.754094	-0.968004	99
Es	-0.859851	1.216737	-0.455947	99
Es	0.071380	1.806292	1.355290	99
Es	-0.683471	1.347945	1.506711	99
Es	0.263406	-0.597747	-0.572411	99
Es	-1.707637	-2.027621	0.167931	99
Es	0.542863	-0.060160	-0.203441	99
Es	3.837784	-0.047508	-0.202882	99
Es	1.948475	-0.060293	-0.203444	99
Es	-0.299056	1.749947	1.235952	99
Es	0.254526	-0.653049	0.064748	99
Es	-0.083105	-1.250439	-0.311857	99
Es	-1.963515	-0.916271	-0.160432	99
Es	3.139187	-0.060254	-0.203462	99
Es	2.548170	-0.381162	-0.385355	99
Es	0.318589	-1.853313	-0.361299	99
Es	-0.168316	1.273212	-0.137761	99
Es	0.228247	1.772353	-0.528768	99
Es	2.539686	-0.114400	-0.023921	99
Es	2.551217	0.301076	-0.210662	99
Es	-1.554877	-1.511252	-0.321116	99
Es	0.193683	0.593803	-0.156240	99
Es	-0.624368	2.214784	1.206757	99
Es	-0.293243	1.556133	0.699593	99
42
Properties=species:S:1:pos:R:3:Z:I:1 energy=-286.9068548627308 field_type=dipole dipole="0.000000 0.000000 0.000000" charge=0
C	-1.554925	-1.511261	-0.321117	6
C	-0.083015	-1.250360	-0.311857	6
C	0.542745	-0.060271	-0.203447	6
C	-0.168335	1.273240	-0.137897	6
N	-0.298555	1.750040	1.236153	7
C	1.948745	-0.060271	-0.203447	6
C	3.138905	-0.060271	-0.203447	6
H	-1.793785	-2.280251	0.421423	1
H	-1.861215	-1.882020	-1.304417	1
H	-2.156075	-0.631341	-0.080647	1
H	0.525515	-2.152340	-0.382657	1
H	-1.159315	1.222879	-0.600507	1
H	0.390315	2.016539	-0.719917	1
H	-0.836655	1.069739	1.769643	1
H	-0.837985	2.612619	1.239012	1
H	4.203635	-0.056671	-0.196867	1
Es	0.317985	-1.852844	-0.361095	99
Es	-1.707392	-2.027403	0.168012	99
Es	-1.963337	-0.916427	-0.160054	99
Es	1.272590	-0.055994	-0.200138	99
Es	0.228791	1.771489	-0.529311	99
Es	-0.818501	-1.360735	-0.317332	99
Es	2.549439	0.264621	-0.048550	99
Es	-0.684851	1.350429	1.508691	99
Es	0.193724	0.594024	-0.156349	99
Es	0.254126	-0.653331	0.065191	99
Es	3.139188	-0.060257	-0.203461	99
Es	0.263773	-0.597344	-0.572971	99
Es	-0.083105	-1.250439	-0.311860	99
Es	-0.168316	1.273212	-0.137757	99
Es	3.837818	-0.047838	-0.203853	99
Es	2.550834	-0.428486	-0.202535	99
Es	-0.859772	1.216603	-0.456177	99
Es	-0.299071	1.749939	1.235959	99
Es	-1.747762	-1.754215	-0.968259	99
Es	-0.622703	2.212097	1.206685	99
Es	-0.292923	1.555179	0.696976	99
Es	-1.554877	-1.511254	-0.321117	99
Es	1.948475	-0.060291	-0.203449	99
Es	2.538757	-0.030158	-0.367711	99
Es	0.542864	-0.060161	-0.203439	99
Es	0.070775	1.807697	1.356868	99
42
Properties=species:S:1:pos:R:3:Z:I:1 energy=-286.9068548627308 field_type=dipole dipole="0.000000 0.000000 0.000000" charge=0
C	-1.554925	-1.511261	-0.321117	6
C	-0.083015	-1.250360	-0.311857	6
C	0.542745	-0.060271	-0.203447	6
C	-0.168335	1.273240	-0.137897	6
N	-0.298555	1.750040	1.236153	7
C	1.948745	-0.060271	-0.203447	6