47
Properties=species:S:1:pos:R:3:Z:I:1 energy=-305.32431723132777 field_type=dipole dipole="0.000000 0.000000 0.000000" charge=0
C	-1.623286	-0.937263	0.234812	6
C	-0.107376	-1.033593	0.044732	6
C	0.212684	-1.976803	-1.116348	6
C	0.519044	0.347417	-0.210518	6
N	0.400364	1.191177	0.963962	7
C	0.749294	2.507147	0.998942	6
N	0.930174	3.310617	0.016472	7
H	-1.875276	-0.323663	1.105662	1
H	-2.057606	-1.929843	0.394642	1
H	-2.106206	-0.494883	-0.643138	1
H	0.324524	-1.462213	0.958442	1
H	-0.191016	-1.596393	-2.060708	1
H	-0.214256	-2.969703	-0.940398	1
H	1.294924	-2.095503	-1.233278	1
H	0.029824	0.819227	-1.070398	1
H	1.582024	0.233287	-0.453158	1
H	0.504864	0.699877	1.847402	1
H	0.871674	2.882167	2.028642	1
H	0.755634	2.828947	-0.865768	1
Es	1.249329	0.267956	-0.379749	99
Es	0.055297	-1.502554	-0.542435	99
Es	0.182899	0.673113	-0.793511	99
Es	0.829883	2.748520	1.705343	99
Es	0.194426	-1.320154	0.677128	99
Es	-1.791358	-0.521021	0.827673	99
Es	-1.623259	-0.937268	0.234808	99
Es	1.134113	2.910239	0.382996	99
Es	1.017936	3.657718	0.034992	99
Es	-0.868352	-0.978314	0.138638	99
Es	0.749237	2.506966	0.999014	99
Es	0.150220	1.370203	0.980835	99
Es	0.212680	-1.976785	-1.116331	99
Es	0.400595	1.191162	0.963940	99
Es	0.487219	0.895079	1.487535	99
Es	-0.065091	-1.710701	-1.756953	99
Es	0.952420	-2.054034	-1.194355	99
Es	0.585159	3.052030	0.401977	99
Es	0.663679	1.697854	0.960448	99
Es	0.930043	3.310108	0.016491	99
Es	0.823952	2.999636	-0.511360	99
Es	0.519009	0.347517	-0.210354	99
Es	0.466691	0.844556	0.461569	99
Es	-1.945242	-0.635265	-0.368322	99
Es	-1.913588	-1.617645	0.342082	99
Es	-0.107381	-1.033565	0.044695	99
Es	0.206411	-0.329414	-0.076585	99
Es	-0.080886	-2.650706	-0.992618	99
47
Properties=species:S:1:pos:R:3:Z:I:1 energy=-305.32431723132777 field_type=dipole dipole="0.000000 0.000000 0.000000" charge=0
C	-1.623286	-0.937263	0.234812	6
C	-0.107376	-1.033593	0.044732	6
C	0.212684	-1.976803	-1.116348	6
C	0.519044	0.347417	-0.210518	6
N	0.400364	1.191177	0.963962	7
C	0.749294	2.507147	0.998942	6
N	0.930174	3.310617	0.016472	7
H	-1.875276	-0.323663	1.105662	1
H	-2.057606	-1.929843	0.394642	1
H	-2.106206	-0.494883	-0.643138	1
H	0.324524	-1.462213	0.958442	1
H	-0.191016	-1.596393	-2.060708	1
H	-0.214256	-2.969703	-0.940398	1
H	1.294924	-2.095503	-1.233278	1
H	0.029824	0.819227	-1.070398	1
H	1.582024	0.233287	-0.453158	1
H	0.504864	0.699877	1.847402	1
H	0.871674	2.882167	2.028642	1
H	0.755634	2.828947	-0.865768	1
Es	0.206632	-0.329483	-0.077014	99
Es	1.018247	3.659688	0.036116	99
Es	0.055295	-1.502620	-0.542381	99
Es	0.183228	0.674384	-0.794742	99
Es	-1.913471	-1.618809	0.343385	99
Es	-0.080528	-2.652174	-0.991548	99
Es	0.212681	-1.976785	-1.116330	99
Es	0.653312	1.710676	0.959802	99
Es	0.479474	0.893073	1.492144	99
Es	-0.868408	-0.978285	0.138522	99
Es	0.519009	0.347517	-0.210354	99
Es	0.467466	0.845256	0.461154	99
Es	0.950624	-2.053174	-1.193115	99
Es	0.749240	2.506973	0.999009	99
Es	0.585052	3.049755	0.401580	99
Es	-0.107381	-1.033564	0.044694	99
Es	0.194523	-1.321408	0.678408	99
Es	1.248029	0.268281	-0.378518	99
Es	-1.623259	-0.937269	0.234808	99
Es	0.829866	2.748307	1.705153	99
Es	1.133850	2.909213	0.380721	99
Es	-0.064820	-1.709207	-1.758437	99
Es	-1.789866	-0.521916	0.826571	99
Es	0.167754	1.358246	0.977462	99
Es	-1.945570	-0.633742	-0.369383	99
Es	0.400993	1.191260	0.963955	99
Es	0.824026	3.000923	-0.510578	99
Es	0.930046	3.310117	0.016507	99
47
Properties=species:S:1:pos:R:3:Z:I:1 energy=-305.32431723132777 field_type=dipole dipole="0.000000 0.000000 0.000000" charge=0
C	-1.623286	-0.937263	0.234812	6
C	-0.107376	-1.033593	0.044732	6
C	0.212684	-1.976803	-1.116348	6
C	0.519044	0.347417	-0.210518	6
N	0.400364	1.191177	0.963962	7
C	0.749294	2.507147	0.998942	6
N	0.930174	3.310617	0.016472	7
H	-1.875276	-0.323663	1.105662	1
H	-2.057606	-1.929843	0.394642	1
H	-2.106206	-0.494883	-0.643138	1
H	0.324524	-1.462213	0.958442	1
H	-0.191016	-1.596393	-2.060708	1
H	-0.214256	-2.969703	-0.940398	1
H	1.294924	-2.095503	-1.233278	1
H	0.029824	0.819227	-1.070398	1
H	1.582024	0.233287	-0.453158	1
H	0.504864	0.699877	1.847402	1
H	0.871674	2.882167	2.028642	1
H	0.755634	2.828947	-0.865768	1
Es	0.183388	0.675127	-0.795397	99
Es	0.468575	0.846104	0.461256	99
Es	0.194613	-1.322310	0.679133	99
Es	0.949388	-2.052778	-1.192424	99
Es	-0.064631	-1.708338	-1.759326	99
Es	0.177580	1.352360	0.975671	99
Es	0.647326	1.716747	0.959234	99
Es	1.247179	0.268705	-0.377818	99
Es	0.519009	0.347516	-0.210354	99
Es	0.824743	3.001600	-0.510463	99
Es	0.749239	2.506965	0.999018	99
Es	0.206888	-0.329653	-0.077227	99
Es	-0.107381	-1.033566	0.044697	99
Es	-1.913447	-1.619460	0.344349	99
Es	-0.080326	-2.652922	-0.990685	99
Es	0.212680	-1.976784	-1.116328	99
Es	0.055335	-1.502453	-0.542396	99
Es	0.584220	3.048883	0.401448	99
Es	1.017745	3.659649	0.036297	99
Es	-1.623257	-0.937272	0.234809	99
Es	-0.868419	-0.978320	0.138549	99
Es	0.829629	2.748234	1.705040	99
Es	-1.788886	-0.522584	0.825648	99
Es	1.134689	2.909298	0.379991	99
Es	0.930043	3.310097	0.016492	99
Es	0.400913	1.191228	0.963950	99
Es	-1.945720	-0.632713	-0.370022	99
Es	0.474926	0.891873	1.494452	99
47
Properties=species:S:1:pos:R:3:Z:I:1 energy=-305.32431723132777 field_type=dipole dipole="0.000000 0.000000 0.000000" charge=0
C	-1.623286	-0.937263	0.234812	6
C	-0.107376	-1.033593	0.044732	6
C	0.212684	-1.976803	-1.116348	6
C	0.519044	0.347417	-0.210518	6
N	0.400364	1.191177	0.963962	7
C	0.749294	2.507147	0.998942	6
N	0.930174	3.310617	0.016472	7
H	-1.875276	-0.323663	1.105662	1
H	-2.057606	-1.929843	0.394642	1
H	-2.106206	-0.494883	-0.643138	1
H	0.324524	-1.462213	0.958442	1
H	-0.191016	-1.596393	-2.060708	1
H	-0.214256	-2.969703	-0.940398	1
H	1.294924	-2.095503	-1.233278	1
H	0.029824	0.819227	-1.070398	1
H	1.582024	0.233287	-0.453158	1
H	0.504864	0.699877	1.847402	1
H	0.871674	2.882167	2.028642	1
H	0.755634	2.828947	-0.865768	1
Es	-0.107381	-1.033566	0.044697	99
Es	0.829536	2.748043	1.704909	99
Es	0.194598	-1.322929	0.679690	99
Es	0.642744	1.721180	0.958975	99
Es	-1.945753	-0.632223	-0.370572	99
Es	0.401093	1.191297	0.963955	99
Es	0.519007	0.347519	-0.210353	99
Es	-1.788354	-0.522910	0.825021	99
Es	0.749252	2.506962	0.999013	99
Es	-0.064465	-1.707582	-1.760127	99
Es	1.246592	0.268763	-0.377206	99
Es	0.470550	0.891230	1.495945	99
Es	-1.913449	-1.619628	0.345062	99
Es	0.948614	-2.052593	-1.191635	99
Es	1.018138	3.658794	0.036936	99
Es	-0.868439	-0.978401	0.138487	99
Es	-0.080258	-2.653228	-0.989941	99
Es	-1.623259	-0.937268	0.234808	99
Es	0.470009	0.846618	0.461611	99
Es	0.825522	3.002655	-0.510913	99
Es	0.582869	3.048856	0.401379	99
Es	0.183588	0.675675	-0.795957	99
Es	0.185107	1.347867	0.974116	99
Es	0.207120	-0.329750	-0.077478	99
Es	1.134958	2.909093	0.379549	99
Es	0.055378	-1.502555	-0.542537	99
Es	0.930039	3.310099	0.016490	99
Es	0.212682	-1.976786	-1.116331	99
47
Properties=species:S:1:pos:R:3:Z:I:1 energy=-305.32431723132777 field_type=dipole dipole="0.000000 0.000000 0.000000" charge=0
C	-1.623286	-0.937263	0.234812	6
C	-0.107376	-1.033593	0.044732	6
C	0.212684	-1.976803	-1.116348	6
C	0.519044	0.347417	-0.210518	6
N	0.400364	1.191177	0.963962	7
C	0.749294	2.507147	0.998942	6
N	0.930174	3.310617	0.016472	7
H	-1.875276	-0.323663	1.105662	1
H	-2.057606	-1.929843	0.394642	1
H	-2.106206	-0.494883	-0.643138	1
H	0.324524	-1.462213	0.958442	1
H	-0.191016	-1.596393	-2.060708	1
H	-0.214256	-2.969703	-0.940398	1
H	1.294924	-2.095503	-1.233278	1
H	0.029824	0.819227	-1.070398	1
H	1.582024	0.233287	-0.453158	1
H	0.504864	0.699877	1.847402	1
H	0.871674	2.882167	2.028642	1
H	0.755634	2.828947	-0.865768	1
Es	0.640020	1.723409	0.958883	99
Es	0.930031	3.310154	0.016470	99
Es	0.400927	1.191213	0.963948	99
Es	0.207229	-0.329789	-0.077569	99
Es	-1.623259	-0.937268	0.234808	99
Es	-0.080095	-2.653548	-0.989378	99
Es	1.135798	2.909499	0.378459	99
Es	0.829373	2.748103	1.704919	99
Es	0.749239	2.506966	0.999015	99
Es	-1.787815	-0.523288	0.824434	99
Es	0.194507	-1.323371	0.680090	99
Es	0.471868	0.847029	0.461910	99
Es	-0.107380	-1.033566	0.044697	99
Es	0.183754	0.676143	-0.796317	99
Es	0.212681	-1.976784	-1.116329	99
Es	1.017937	3.658437	0.036706	99
Es	-0.868404	-0.978402	0.138453	99
Es	-0.064284	-1.707128	-1.760668	99
Es	0.467836	0.890927	1.496834	99
Es	1.246114	0.268878	-0.376774	99
Es	0.189005	1.345516	0.973012	99
Es	0.055353	-1.502599	-0.542650	99
Es	0.947895	-2.052355	-1.191137	99
Es	-1.945823	-0.631701	-0.370906	99
Es	0.825681	3.003008	-0.510689	99
Es	-1.913436	-1.619876	0.345677	99
Es	0.519010	0.347517	-0.210353	99
Es	0.582281	3.048109	0.402047	99
47
Properties=species:S:1:pos:R:3:Z:I:1 energy=-305.32431723132777 field_type=dipole dipole="0.000000 0.000000 0.000000" charge=0
C	-1.623286	-0.937263	0.234812	6
C	-0.107376	-1.033593	0.044732	6
C	0.212684	-1.976803	-1.116348	6
C	0.519044	0.347417	-0.210518	6
N	0.400364	1.191177	0.963962	7
C	0.749294	2.507147	0.998942	6
N	0.930174	3.310617	0.016472	7
H	-1.875276	-0.323663	1.105662	1
H	-2.057606	-1.929843	0.394642	1
H	-2.106206	-0.494883	-0.643138	1
H	0.324524	-1.462213	0.958442	1
H	-0.191016	-1.596393	-2.060708	1
H	-0.214256	-2.969703	-0.940398	1
H	1.294924	-2.095503	-1.233278	1
H	0.029824	0.819227	-1.070398	1
H	1.582024	0.233287	-0.453158	1
H	0.504864	0.699877	1.847402	1
H	0.871674	2.882167	2.028642	1
H	0.755634	2.828947	-0.865768	1
Es	1.135118	2.908838	0.378467	99
Es	-0.080064	-2.653804	-0.988966	99
Es	0.930033	3.310066	0.016496	99
Es	0.207357	-0.329839	-0.077615	99
Es	-1.787438	-0.523533	0.824081	99
Es	-0.868423	-0.978365	0.138442	99
Es	-1.623262	-0.937268	0.234808	99
Es	0.472572	0.847204	0.462113	99
Es	0.212681	-1.976785	-1.116330	99
Es	0.190941	1.345605	0.972181	99
Es	-0.107380	-1.033565	0.044697	99
Es	0.183843	0.676470	-0.796629	99
Es	0.829272	2.748091	1.704903	99
Es	0.194446	-1.323748	0.680445	99
Es	-0.063994	-1.706692	-1.761089	99
Es	0.947223	-2.052246	-1.190716	99
Es	-1.913340	-1.620055	0.346092	99
Es	0.519009	0.347517	-0.210356	99
Es	0.400907	1.191208	0.963947	99
Es	1.245766	0.268981	-0.376400	99
Es	0.581645	3.048230	0.401333	99
Es	0.055331	-1.502601	-0.542728	99
Es	-1.945806	-0.631348	-0.371226	99
Es	0.465179	0.890705	1.497514	99
Es	0.826290	3.003792	-0.511109	99
Es	0.749242	2.506964	0.999013	99
Es	0.640247	1.723275	0.958720	99
Es	1.018647	3.658135	0.037504	99
47
Properties=species:S:1:pos:R:3:Z:I:1 energy=-305.32431723132777 field_type=dipole dipole="0.000000 0.000000 0.000000" charge=0
C	-1.623286	-0.937263	0.234812	6
C	-0.107376	-1.033593	0.044732	6
C	0.212684	-1.976803	-1.116348	6
C	0.519044	0.347417	-0.210518	6
N	0.400364	1.191177	0.963962	7
C	0.749294	2.507147	0.998942	6
N	0.930174	3.310617	0.016472	7
H	-1.875276	-0.323663	1.105662	1
H	-2.057606	-1.929843	0.394642	1
H	-2.106206	-0.494883	-0.643138	1
H	0.324524	-1.462213	0.958442	1
H	-0.191016	-1.596393	-2.060708	1
H	-0.214256	-2.969703	-0.940398	1
H	1.294924	-2.095503	-1.233278	1
H	0.029824	0.819227	-1.070398	1
H	1.582024	0.233287	-0.453158	1
H	0.504864	0.699877	1.847402	1
H	0.871674	2.882167	2.028642	1
H	0.755634	2.828947	-0.865768	1
Es	0.212681	-1.976785	-1.116330	99
Es	0.183987	0.676754	-0.796887	99
Es	1.245488	0.268934	-0.376098	99
Es	0.636342	1.726266	0.958633	99
Es	1.135236	2.909059	0.378441	99
Es	0.829121	2.748047	1.704862	99
Es	-1.913502	-1.620116	0.346656	99
Es	-1.787026	-0.523828	0.823478	99
Es	-1.945821	-0.630954	-0.371447	99
Es	0.194405	-1.324032	0.680719	99
Es	0.946790	-2.052257	-1.190321	99
Es	0.473621	0.847568	0.462128	99
Es	0.749237	2.506964	0.999014	99
Es	-0.868416	-0.978433	0.138422	99
Es	-0.080074	-2.653809	-0.988479	99
Es	1.019206	3.657074	0.037326	99
Es	0.401083	1.191294	0.963960	99
Es	0.580512	3.048776	0.401581	99
Es	0.055369	-1.502555	-0.542780	99
Es	0.930048	3.310123	0.016496	99
Es	-0.063828	-1.706435	-1.761525	99
Es	0.826919	3.003905	-0.511362	99
Es	0.519008	0.347518	-0.210355	99
Es	-1.623258	-0.937269	0.234808	99
Es	0.195145	1.342295	0.971778	99
Es	-0.107380	-1.033566	0.044698	99
Es	0.207422	-0.329844	-0.077821	99
Es	0.463725	0.890541	1.497995	99
47
Properties=species:S:1:pos:R:3:Z:I:1 energy=-305.32431723132777 field_type=dipole dipole="0.000000 0.000000 0.000000" charge=0
C	-1.623286	-0.937263	0.234812	6
C	-0.107376	-1.033593	0.044732	6
C	0.212684	-1.976803	-1.116348	6
C	0.519044	0.347417	-0.210518	6
N	0.400364	1.191177	0.963962	7
C	0.749294	2.507147	0.998942	6
N	0.930174	3.310617	0.016472	7
H	-1.875276	-0.323663	1.105662	1
H	-2.057606	-1.929843	0.394642	1
H	-2.106206	-0.494883	-0.643138	1
H	0.324524	-1.462213	0.958442	1
H	-0.191016	-1.596393	-2.060708	1
H	-0.214256	-2.969703	-0.940398	1
H	1.294924	-2.095503	-1.233278	1
H	0.029824	0.819227	-1.070398	1
H	1.582024	0.233287	-0.453158	1
H	0.504864	0.699877	1.847402	1
H	0.871674	2.882167	2.028642	1
H	0.755634	2.828947	-0.865768	1
Es	0.183995	0.676940	-0.797028	99
Es	1.018626	3.656309	0.038502	99
Es	0.194344	-1.324222	0.680907	99
Es	0.580286	3.047666	0.402230	99
Es	0.055314	-1.502776	-0.542769	99
Es	0.400966	1.191228	0.963950	99
Es	0.519009	0.347517	-0.210354	99
Es	0.212681	-1.976787	-1.116331	99
Es	0.198370	1.340644	0.971393	99
Es	0.749235	2.506965	0.999014	99
Es	0.930038	3.310084	0.016504	99
Es	0.474170	0.847751	0.462284	99
Es	0.828999	2.748024	1.704850	99
Es	-0.063763	-1.706066	-1.761731	99
Es	-0.107380	-1.033565	0.044696	99
Es	-0.868475	-0.978375	0.138415	99
Es	1.245331	0.268993	-0.375919	99
Es	0.462034	0.890383	1.498354	99
Es	-0.080013	-2.653929	-0.988234	99
Es	-1.623259	-0.937269	0.234809	99
Es	-1.913521	-1.620232	0.347104	99
Es	1.135761	2.909621	0.377368	99
Es	0.946509	-2.052112	-1.190016	99
Es	0.207585	-0.329856	-0.077919	99
Es	-1.945783	-0.630811	-0.371640	99
Es	0.827298	3.005149	-0.512315	99
Es	-1.786790	-0.523928	0.823045	99
Es	0.634474	1.727885	0.958425	99
47
Properties=species:S:1:pos:R:3:Z:I:1 energy=-305.32431723132777 field_type=dipole dipole="0.000000 0.000000 0.000000" charge=0
C	-1.623286	-0.937263	0.234812	6
C	-0.107376	-1.033593	0.044732	6
C	0.212684	-1.976803	-1.116348	6
C	0.519044	0.347417	-0.210518	6
N	0.400364	1.191177	0.963962	7
C	0.749294	2.507147	0.998942	6
N	0.930174	3.310617	0.016472	7
H	-1.875276	-0.323663	1.105662	1
H	-2.057606	-1.929843	0.394642	1
H	-2.106206	-0.494883	-0.643138	1
H	0.324524	-1.462213	0.958442	1
H	-0.191016	-1.596393	-2.060708	1
H	-0.214256	-2.969703	-0.940398	1
H	1.294924	-2.095503	-1.233278	1
H	0.029824	0.819227	-1.070398	1
H	1.582024	0.233287	-0.453158	1
H	0.504864	0.699877	1.847402	1
H	0.871674	2.882167	2.028642	1
H	0.755634	2.828947	-0.865768	1
Es	-0.107381	-1.033566	0.044696	99
Es	0.055388	-1.502633	-0.542809	99
Es	0.519009	0.347517	-0.210354	99
Es	0.460408	0.890370	1.498651	99
Es	0.184122	0.677066	-0.797244	99
Es	-1.623259	-0.937268	0.234809	99
Es	-0.063615	-1.705924	-1.761958	99
Es	1.135297	2.908821	0.377727	99
Es	0.827699	3.005842	-0.512686	99
Es	-0.079984	-2.654040	-0.987891	99
Es	1.245042	0.269049	-0.375702	99
Es	0.946088	-2.052062	-1.189858	99
Es	0.475501	0.848067	0.462638	99
Es	-1.945669	-0.630521	-0.371818	99
Es	0.579641	3.048279	0.401491	99
Es	0.194276	-1.324455	0.681100	99
Es	-1.913614	-1.620233	0.347288	99
Es	0.401356	1.191744	0.964010	99
Es	0.828885	2.748065	1.704891	99
Es	-0.868393	-0.978517	0.138474	99
Es	0.930043	3.310103	0.016504	99
Es	0.207664	-0.329879	-0.077932	99
Es	0.212681	-1.976786	-1.116331	99
Es	0.749237	2.506965	0.999014	99
Es	1.019361	3.655624	0.039045	99
Es	0.633549	1.728533	0.958458	99
Es	-1.786621	-0.524147	0.822789	99
Es	0.199329	1.339219	0.970590	99
47
Properties=species:S:1:pos:R:3:Z:I:1 energy=-305.32431723132777 field_type=dipole dipole="0.000000 0.000000 0.000000" charge=0
C	-1.623286	-0.937263	0.234812	6
C	-0.107376	-1.033593	0.044732	6
C	0.212684	-1.976803	-1.116348	6
C	0.519044	0.347417	-0.210518	6
N	0.400364	1.191177	0.963962	7
C	0.749294	2.507147	0.998942	6
N	0.930174	3.310617	0.016472	7
H	-1.875276	-0.323663	1.105662	1
H	-2.057606	-1.929843	0.394642	1
H	-2.106206	-0.494883	-0.643138	1
H	0.324524	-1.462213	0.958442	1
H	-0.191016	-1.596393	-2.060708	1
H	-0.214256	-2.969703	-0.940398	1
H	1.294924	-2.095503	-1.233278	1
H	0.029824	0.819227	-1.070398	1
H	1.582024	0.233287	-0.453158	1
H	0.504864	0.699877	1.847402	1
H	0.871674	2.882167	2.028642	1
H	0.755634	2.828947	-0.865768	1
Es	-1.786451	-0.524278	0.822587	99
Es	-0.080062	-2.654128	-0.987680	99
Es	0.202462	1.337050	0.970080	99
Es	0.477002	0.848087	0.462792	99
Es	0.194226	-1.324640	0.681245	99
Es	-1.623259	-0.937268	0.234808	99
Es	0.184209	0.677419	-0.797289	99
Es	1.244903	0.269024	-0.375532	99
Es	-0.107380	-1.033565	0.044697	99
Es	0.930039	3.310087	0.016496	99
Es	-1.913542	-1.620228	0.347551	99
Es	-0.868551	-0.978445	0.138372	99
Es	-0.063508	-1.705697	-1.762037	99
Es	0.401244	1.191386	0.963974	99
Es	0.212682	-1.976785	-1.116330	99
Es	1.134832	2.908254	0.377953	99
Es	0.459065	0.890546	1.499074	99
Es	0.828134	3.006621	-0.513381	99
Es	0.579011	3.049015	0.401128	99
Es	0.519011	0.347517	-0.210352	99
Es	-1.945725	-0.630406	-0.371986	99
Es	0.828930	2.747965	1.704930	99
Es	0.630389	1.730738	0.958283	99
Es	0.055379	-1.502623	-0.542737	99
Es	1.020068	3.654625	0.039762	99
Es	0.945921	-2.051997	-1.189692	99
Es	0.749240	2.506966	0.999013	99
Es	0.207771	-0.330006	-0.078138	99
47
Properties=species:S:1:pos:R:3:Z:I:1 energy=-305.32431723132777 field_type=dipole dipole="0.000000 0.000000 0.000000" charge=0
C	-1.623286	-0.937263	0.234812	6
C	-0.107376	-1.033593	0.044732	6
C	0.212684	-1.976803	-1.116348	6
C	0.519044	0.347417	-0.210518	6
N	0.400364	1.191177	0.963962	7
C	0.749294	2.507147	0.998942	6
N	0.930174	3.310617	0.016472	7
H	-1.875276	-0.323663	1.105662	1
H	-2.057606	-1.929843	0.394642	1
H	-2.106206	-0.494883	-0.643138	1
H	0.324524	-1.462213	0.958442	1
H	-0.191016	-1.596393	-2.060708	1
H	-0.214256	-2.969703	-0.940398	1
H	1.294924	-2.095503	-1.233278	1
H	0.029824	0.819227	-1.070398	1
H	1.582024	0.233287	-0.453158	1
H	0.504864	0.699877	1.847402	1
H	0.871674	2.882167	2.028642	1
H	0.755634	2.828947	-0.865768	1
Es	0.828710	2.748108	1.704905	99
Es	1.244638	0.269058	-0.375235	99
Es	-0.063293	-1.705560	-1.762382	99
Es	0.945476	-2.052055	-1.189439	99
Es	0.828545	3.006787	-0.513584	99
Es	0.749239	2.506964	0.999013	99
Es	0.184484	0.677574	-0.797500	99
Es	-1.913587	-1.620277	0.347855	99
Es	-1.623259	-0.937269	0.234808	99
Es	0.201630	1.337850	0.969682	99
Es	0.477575	0.848386	0.463107	99
Es	0.458482	0.890382	1.499167	99
Es	0.519010	0.347517	-0.210352	99
Es	0.578973	3.048340	0.401114	99
Es	0.930043	3.310109	0.016483	99
Es	0.401055	1.191266	0.963950	99
Es	0.212681	-1.976785	-1.116330	99
Es	0.631515	1.729891	0.958278	99
Es	0.055356	-1.502695	-0.542783	99
Es	0.207695	-0.329959	-0.078169	99
Es	-0.080004	-2.654114	-0.987445	99
Es	-0.868372	-0.978528	0.138380	99
Es	0.194090	-1.324754	0.681390	99
Es	-1.945701	-0.630246	-0.372089	99
Es	1.135005	2.908640	0.377712	99
Es	-1.786202	-0.524371	0.822320	99
Es	1.019638	3.654539	0.040039	99
Es	-0.107381	-1.033566	0.044697	99
47
Properties=species:S:1:pos:R:3:Z:I:1 energy=-305.32431723132777 field_type=dipole dipole="0.000000 0.000000 0.000000" charge=0
C	-1.623286	-0.937263	0.234812	6
C	-0.107376	-1.033593	0.044732	6
C	0.212684	-1.976803	-1.116348	6
C	0.519044	0.347417	-0.210518	6
N	0.400364	1.191177	0.963962	7
C	0.749294	2.507147	0.998942	6
N	0.930174	3.310617	0.016472	7
H	-1.875276	-0.323663	1.105662	1
H	-2.057606	-1.929843	0.394642	1
H	-2.106206	-0.494883	-0.643138	1
H	0.324524	-1.462213	0.958442	1
H	-0.191016	-1.596393	-2.060708	1
H	-0.214256	-2.969703	-0.940398	1
H	1.294924	-2.095503	-1.233278	1
H	0.029824	0.819227	-1.070398	1
H	1.582024	0.233287	-0.453158	1
H	0.504864	0.699877	1.847402	1
H	0.871674	2.882167	2.028642	1
H	0.755634	2.828947	-0.865768	1
Es	1.019935	3.653950	0.039910	99
Es	1.244505	0.269083	-0.375092	99
Es	0.207872	-0.329942	-0.078185	99
Es	-1.623258	-0.937268	0.234808	99
Es	0.055407	-1.502694	-0.542844	99
Es	0.193967	-1.324874	0.681622	99
Es	0.945187	-2.052018	-1.189291	99
Es	0.519009	0.347518	-0.210352	99
Es	0.749237	2.506965	0.999014	99
Es	0.828594	3.006891	-0.513718	99
Es	0.630655	1.730519	0.958379	99
Es	-1.945644	-0.630162	-0.372178	99
Es	0.478221	0.848590	0.463138	99
Es	0.828660	2.748067	1.704943	99
Es	0.457281	0.890289	1.499286	99
Es	-0.080029	-2.654189	-0.987207	99
Es	-1.786026	-0.524402	0.822060	99
Es	-1.913666	-1.620325	0.348131	99
Es	0.930033	3.310112	0.016491	99
Es	-0.063146	-1.705404	-1.762514	99
Es	0.184425	0.677608	-0.797684	99
Es	0.203111	1.337155	0.969331	99
Es	1.135129	2.908722	0.377508	99
Es	0.212681	-1.976785	-1.116330	99
Es	0.578545	3.048670	0.401463	99
Es	-0.107380	-1.033566	0.044698	99
Es	0.401023	1.191243	0.963954	99
Es	-0.868285	-0.978519	0.138250	99
47
Properties=species:S:1:pos:R:3:Z:I:1 energy=-305.32431723132777 field_type=dipole dipole="0.000000 0.000000 0.000000" charge=0
C	-1.623286	-0.937263	0.234812	6
C	-0.107376	-1.033593	0.044732	6
C	0.212684	-1.976803	-1.116348	6
C	0.519044	0.347417	-0.210518	6
N	0.400364	1.191177	0.963962	7
C	0.749294	2.507147	0.998942	6
N	0.930174	3.310617	0.016472	7
H	-1.875276	-0.323663	1.105662	1
H	-2.057606	-1.929843	0.394642	1
H	-2.106206	-0.494883	-0.643138	1
H	0.324524	-1.462213	0.958442	1
H	-0.191016	-1.596393	-2.060708	1
H	-0.214256	-2.969703	-0.940398	1
H	1.294924	-2.095503	-1.233278	1
H	0.029824	0.819227	-1.070398	1
H	1.582024	0.233287	-0.453158	1
H	0.504864	0.699877	1.847402	1
H	0.871674	2.882167	2.028642	1
H	0.755634	2.828947	-0.865768	1
Es	-1.785874	-0.524425	0.821859	99
Es	1.135221	2.908767	0.377750	99
Es	-1.945565	-0.630078	-0.372277	99
Es	0.479185	0.848781	0.463320	99
Es	-0.079991	-2.654301	-0.987017	99
Es	0.400503	1.191161	0.963940	99
Es	1.244408	0.269154	-0.375032	99
Es	-0.107380	-1.033566	0.044697	99
Es	0.629794	1.730972	0.958326	99
Es	-1.913731	-1.620356	0.348351	99
Es	-0.868285	-0.978499	0.138320	99
Es	0.456713	0.890385	1.499483	99
Es	0.207956	-0.330007	-0.078207	99
Es	0.204105	1.336456	0.968933	99
Es	-1.623259	-0.937268	0.234808	99
Es	0.184497	0.677699	-0.797691	99
Es	-0.062864	-1.705328	-1.762738	99
Es	0.829102	3.007546	-0.514453	99
Es	0.930053	3.310150	0.016476	99
Es	0.578133	3.048890	0.401302	99
Es	0.212681	-1.976785	-1.116330	99
Es	0.193904	-1.325011	0.681662	99
Es	0.055206	-1.502705	-0.542933	99
Es	0.749234	2.506966	0.999014	99
Es	0.519009	0.347517	-0.210355	99
Es	0.828660	2.748015	1.704846	99
Es	0.944860	-2.051905	-1.189015	99
Es	1.019767	3.653009	0.040553	99
