48
Properties=species:S:1:pos:R:3:Z:I:1 energy=-289.2861700262709 field_type=dipole dipole="0.000000 0.000000 0.000000" charge=0
C	-2.822789	0.368994	-0.405906	6
C	-1.513729	0.047784	0.298484	6
N	-0.391439	0.325404	-0.595066	7
C	0.926102	-0.036986	-0.032586	6
C	1.382452	0.740994	1.178604	6
C	1.371421	-1.474736	-0.153856	6
C	1.985822	-0.429696	-1.036596	6
H	-3.668118	0.174394	0.262404	1
H	-2.952379	-0.247796	-1.302046	1
H	-2.866259	1.422034	-0.704546	1
H	-1.516049	-1.007166	0.593674	1
H	-1.443139	0.654614	1.207114	1
H	-0.405029	1.305354	-0.876406	1
H	2.436091	0.551494	1.412734	1
H	0.795061	0.461594	2.059124	1
H	1.266161	1.816824	1.010654	1
H	0.694841	-2.186856	-0.613076	1
H	1.982621	-1.897296	0.634754	1
H	3.015731	-0.147686	-0.848966	1
H	1.722621	-0.441276	-2.088496	1
Es	1.805432	-0.436958	-1.746292	99
Es	1.481122	-0.049172	-0.597960	99
Es	1.787754	-1.754604	0.387046	99
Es	-1.510455	-0.674762	0.500191	99
Es	-2.845298	1.091694	-0.608324	99
Es	1.371445	-1.474574	-0.153904	99
Es	-1.513652	0.047827	0.298376	99
Es	2.099707	0.605764	1.332710	99
Es	0.979060	0.551730	1.777392	99
Es	1.299826	1.475399	1.058880	99
Es	1.160904	0.351227	0.580798	99
Es	2.686534	-0.235214	-0.900602	99
Es	-0.391341	0.325752	-0.594523	99
Es	-0.859588	0.223411	-0.179449	99
Es	-3.397972	0.237127	0.054596	99
Es	0.926072	-0.037062	-0.032695	99
Es	-2.822779	0.369001	-0.405886	99
Es	1.382452	0.740988	1.178594	99
Es	-1.468070	0.468118	0.932586	99
Es	1.020287	-0.814784	0.050588	99
Es	-0.439339	0.132922	-0.885232	99
Es	0.178146	0.183674	-0.320879	99
Es	0.912236	-1.953813	-0.463894	99
Es	-2.909857	-0.050789	-1.013873	99
Es	-2.171448	0.212977	-0.058896	99
Es	1.786685	-1.080170	-0.670412	99
Es	-0.393184	0.928846	-0.732884	99
Es	1.985729	-0.429754	-1.036465	99
48
Properties=species:S:1:pos:R:3:Z:I:1 energy=-289.2861700262709 field_type=dipole dipole="0.000000 0.000000 0.000000" charge=0
C	-2.822789	0.368994	-0.405906	6
C	-1.513729	0.047784	0.298484	6
N	-0.391439	0.325404	-0.595066	7
C	0.926102	-0.036986	-0.032586	6
C	1.382452	0.740994	1.178604	6
C	1.371421	-1.474736	-0.153856	6
C	1.985822	-0.429696	-1.036596	6
H	-3.668118	0.174394	0.262404	1
H	-2.952379	-0.247796	-1.302046	1
H	-2.866259	1.422034	-0.704546	1
H	-1.516049	-1.007166	0.593674	1
H	-1.443139	0.654614	1.207114	1
H	-0.405029	1.305354	-0.876406	1
H	2.436091	0.551494	1.412734	1
H	0.795061	0.461594	2.059124	1
H	1.266161	1.816824	1.010654	1
H	0.694841	-2.186856	-0.613076	1
H	1.982621	-1.897296	0.634754	1
H	3.015731	-0.147686	-0.848966	1
H	1.722621	-0.441276	-2.088496	1
Es	1.787044	-1.754914	0.386426	99
Es	0.912905	-1.953194	-0.463071	99
Es	-2.909010	-0.050869	-1.012981	99
Es	-0.392592	0.930393	-0.735184	99
Es	0.978853	0.550505	1.778016	99
Es	1.019026	-0.815041	0.051992	99
Es	-1.513654	0.047820	0.298375	99
Es	-0.860375	0.222374	-0.179298	99
Es	1.371445	-1.474572	-0.153904	99
Es	-0.439123	0.135463	-0.880640	99
Es	-3.398213	0.236136	0.055357	99
Es	1.161432	0.351216	0.581155	99
Es	-2.822781	0.369001	-0.405888	99
Es	1.382447	0.740988	1.178595	99
Es	-1.511141	-0.675978	0.500661	99
Es	1.985730	-0.429758	-1.036466	99
Es	1.300021	1.476634	1.058139	99
Es	2.098627	0.605434	1.331813	99
Es	1.806226	-0.436557	-1.745451	99
Es	1.787957	-1.082645	-0.671460	99
Es	-1.468598	0.468396	0.931783	99
Es	0.926079	-0.037065	-0.032702	99
Es	1.481435	-0.046723	-0.598458	99
Es	-2.844715	1.092819	-0.608917	99
Es	-2.171464	0.213316	-0.059123	99
Es	2.685469	-0.235454	-0.901203	99
Es	-0.391351	0.325736	-0.594535	99
Es	0.178726	0.181342	-0.323443	99
48
Properties=species:S:1:pos:R:3:Z:I:1 energy=-289.2861700262709 field_type=dipole dipole="0.000000 0.000000 0.000000" charge=0
C	-2.822789	0.368994	-0.405906	6
C	-1.513729	0.047784	0.298484	6
N	-0.391439	0.325404	-0.595066	7
C	0.926102	-0.036986	-0.032586	6
C	1.382452	0.740994	1.178604	6
C	1.371421	-1.474736	-0.153856	6
C	1.985822	-0.429696	-1.036596	6
H	-3.668118	0.174394	0.262404	1
H	-2.952379	-0.247796	-1.302046	1
H	-2.866259	1.422034	-0.704546	1
H	-1.516049	-1.007166	0.593674	1
H	-1.443139	0.654614	1.207114	1
H	-0.405029	1.305354	-0.876406	1
H	2.436091	0.551494	1.412734	1
H	0.795061	0.461594	2.059124	1
H	1.266161	1.816824	1.010654	1
H	0.694841	-2.186856	-0.613076	1
H	1.982621	-1.897296	0.634754	1
H	3.015731	-0.147686	-0.848966	1
H	1.722621	-0.441276	-2.088496	1
Es	-0.392170	0.931106	-0.736557	99
Es	1.481296	-0.044952	-0.598360	99
Es	1.017946	-0.815342	0.052882	99
Es	-2.844279	1.093501	-0.609297	99
Es	-2.908451	-0.050856	-1.012365	99
Es	-1.469041	0.468705	0.931373	99
Es	0.926075	-0.037059	-0.032700	99
Es	1.806763	-0.436498	-1.744903	99
Es	-0.860307	0.222217	-0.178790	99
Es	1.382448	0.740990	1.178598	99
Es	1.985729	-0.429763	-1.036464	99
Es	0.913736	-1.952974	-0.462658	99
Es	-1.513653	0.047821	0.298374	99
Es	2.684582	-0.235717	-0.901681	99
Es	0.178528	0.180728	-0.324541	99
Es	1.371444	-1.474566	-0.153907	99
Es	-0.439069	0.135980	-0.878551	99
Es	0.978770	0.549813	1.778417	99
Es	2.097722	0.605079	1.331223	99
Es	1.300433	1.477432	1.057725	99
Es	-3.398387	0.235507	0.055749	99
Es	1.786538	-1.754895	0.385980	99
Es	1.161715	0.351152	0.581220	99
Es	-2.171509	0.213271	-0.059419	99
Es	-1.511541	-0.676529	0.500953	99
Es	-2.822779	0.369002	-0.405886	99
Es	1.789226	-1.084029	-0.672222	99
Es	-0.391360	0.325678	-0.594605	99
48
Properties=species:S:1:pos:R:3:Z:I:1 energy=-289.2861700262709 field_type=dipole dipole="0.000000 0.000000 0.000000" charge=0
C	-2.822789	0.368994	-0.405906	6
C	-1.513729	0.047784	0.298484	6
N	-0.391439	0.325404	-0.595066	7
C	0.926102	-0.036986	-0.032586	6
C	1.382452	0.740994	1.178604	6
C	1.371421	-1.474736	-0.153856	6
C	1.985822	-0.429696	-1.036596	6
H	-3.668118	0.174394	0.262404	1
H	-2.952379	-0.247796	-1.302046	1
H	-2.866259	1.422034	-0.704546	1
H	-1.516049	-1.007166	0.593674	1
H	-1.443139	0.654614	1.207114	1
H	-0.405029	1.305354	-0.876406	1
H	2.436091	0.551494	1.412734	1
H	0.795061	0.461594	2.059124	1
H	1.266161	1.816824	1.010654	1
H	0.694841	-2.186856	-0.613076	1
H	1.982621	-1.897296	0.634754	1
H	3.015731	-0.147686	-0.848966	1
H	1.722621	-0.441276	-2.088496	1
Es	2.097418	0.604889	1.330869	99
Es	-3.398409	0.235076	0.056129	99
Es	-1.511896	-0.677055	0.501113	99
Es	1.807133	-0.436451	-1.744464	99
Es	-0.860436	0.222148	-0.178450	99
Es	1.985730	-0.429760	-1.036465	99
Es	0.914344	-1.952485	-0.462445	99
Es	-0.391822	0.931495	-0.737537	99
Es	1.017103	-0.815293	0.053728	99
Es	0.978522	0.549247	1.778544	99
Es	-2.171505	0.213521	-0.059449	99
Es	0.178915	0.179364	-0.326262	99
Es	-1.469176	0.468859	0.931041	99
Es	-2.844018	1.093866	-0.609371	99
Es	1.481210	-0.044097	-0.598301	99
Es	-2.908086	-0.050882	-1.012158	99
Es	1.371446	-1.474570	-0.153906	99
Es	-1.513653	0.047826	0.298375	99
Es	-2.822780	0.369001	-0.405886	99
Es	1.790073	-1.084940	-0.672861	99
Es	-0.391356	0.325759	-0.594505	99
Es	1.382448	0.740990	1.178597	99
Es	-0.439584	0.137180	-0.876559	99
Es	1.162024	0.351492	0.581572	99
Es	0.926073	-0.037060	-0.032697	99
Es	1.300484	1.477816	1.057380	99
Es	2.684047	-0.235928	-0.901962	99
Es	1.786159	-1.755208	0.385516	99
48
Properties=species:S:1:pos:R:3:Z:I:1 energy=-289.2861700262709 field_type=dipole dipole="0.000000 0.000000 0.000000" charge=0
C	-2.822789	0.368994	-0.405906	6
C	-1.513729	0.047784	0.298484	6
N	-0.391439	0.325404	-0.595066	7
C	0.926102	-0.036986	-0.032586	6
C	1.382452	0.740994	1.178604	6
C	1.371421	-1.474736	-0.153856	6
C	1.985822	-0.429696	-1.036596	6
H	-3.668118	0.174394	0.262404	1
H	-2.952379	-0.247796	-1.302046	1
H	-2.866259	1.422034	-0.704546	1
H	-1.516049	-1.007166	0.593674	1
H	-1.443139	0.654614	1.207114	1
H	-0.405029	1.305354	-0.876406	1
H	2.436091	0.551494	1.412734	1
H	0.795061	0.461594	2.059124	1
H	1.266161	1.816824	1.010654	1
H	0.694841	-2.186856	-0.613076	1
H	1.982621	-1.897296	0.634754	1
H	3.015731	-0.147686	-0.848966	1
H	1.722621	-0.441276	-2.088496	1
Es	1.162310	0.351612	0.581536	99
Es	-1.512151	-0.677276	0.501294	99
Es	0.926076	-0.037058	-0.032699	99
Es	1.016509	-0.815181	0.054322	99
Es	-0.440349	0.138503	-0.875159	99
Es	-0.391377	0.931876	-0.737728	99
Es	-2.171483	0.213563	-0.059747	99
Es	-2.907806	-0.051097	-1.011928	99
Es	2.097002	0.604840	1.330530	99
Es	0.179275	0.177939	-0.327803	99
Es	-1.469520	0.469212	0.930865	99
Es	1.790683	-1.085866	-0.673456	99
Es	1.985722	-0.429762	-1.036461	99
Es	1.807401	-0.436481	-1.744124	99
Es	1.300627	1.478087	1.057164	99
Es	1.481140	-0.043429	-0.598347	99
Es	2.683531	-0.236082	-0.902246	99
Es	1.371447	-1.474577	-0.153906	99
Es	1.382448	0.740989	1.178597	99
Es	-1.513652	0.047826	0.298374	99
Es	-0.860263	0.221999	-0.178073	99
Es	-2.843866	1.094165	-0.609557	99
Es	-3.398300	0.234799	0.056487	99
Es	1.785998	-1.755306	0.385246	99
Es	0.914664	-1.952135	-0.462005	99
Es	-0.391360	0.325774	-0.594501	99
Es	0.978481	0.548866	1.778796	99
Es	-2.822779	0.369002	-0.405886	99
48
Properties=species:S:1:pos:R:3:Z:I:1 energy=-289.2861700262709 field_type=dipole dipole="0.000000 0.000000 0.000000" charge=0
C	-2.822789	0.368994	-0.405906	6
C	-1.513729	0.047784	0.298484	6
N	-0.391439	0.325404	-0.595066	7
C	0.926102	-0.036986	-0.032586	6
C	1.382452	0.740994	1.178604	6
C	1.371421	-1.474736	-0.153856	6
C	1.985822	-0.429696	-1.036596	6
H	-3.668118	0.174394	0.262404	1
H	-2.952379	-0.247796	-1.302046	1
H	-2.866259	1.422034	-0.704546	1
H	-1.516049	-1.007166	0.593674	1
H	-1.443139	0.654614	1.207114	1
H	-0.405029	1.305354	-0.876406	1
H	2.436091	0.551494	1.412734	1
H	0.795061	0.461594	2.059124	1
H	1.266161	1.816824	1.010654	1
H	0.694841	-2.186856	-0.613076	1
H	1.982621	-1.897296	0.634754	1
H	3.015731	-0.147686	-0.848966	1
H	1.722621	-0.441276	-2.088496	1
Es	-0.391355	0.325788	-0.594475	99
Es	-3.398465	0.234656	0.056654	99
Es	1.481065	-0.042467	-0.598393	99
Es	1.016226	-0.815020	0.054490	99
Es	-2.822779	0.369002	-0.405886	99
Es	0.915059	-1.951883	-0.461823	99
Es	-0.391225	0.932078	-0.738085	99
Es	-0.860228	0.222089	-0.178060	99
Es	-1.512331	-0.677485	0.501323	99
Es	0.179332	0.177272	-0.328335	99
Es	-2.171601	0.213486	-0.059680	99
Es	1.371444	-1.474575	-0.153902	99
Es	1.785808	-1.755395	0.385020	99
Es	2.683063	-0.236329	-0.902320	99
Es	-2.907500	-0.051133	-1.011775	99
Es	-2.843482	1.094343	-0.609645	99
Es	1.791039	-1.086771	-0.673701	99
Es	-1.513653	0.047825	0.298374	99
Es	1.300795	1.478395	1.056886	99
Es	1.162420	0.351572	0.581758	99
Es	-1.469693	0.469344	0.930768	99
Es	0.978415	0.548644	1.778882	99
Es	1.382449	0.740989	1.178596	99
Es	1.985729	-0.429758	-1.036466	99
Es	2.096666	0.604645	1.330338	99
Es	1.807741	-0.436421	-1.743920	99
Es	0.926077	-0.037058	-0.032699	99
Es	-0.440604	0.138970	-0.874338	99
48
Properties=species:S:1:pos:R:3:Z:I:1 energy=-289.2861700262709 field_type=dipole dipole="0.000000 0.000000 0.000000" charge=0
C	-2.822789	0.368994	-0.405906	6
C	-1.513729	0.047784	0.298484	6
N	-0.391439	0.325404	-0.595066	7
C	0.926102	-0.036986	-0.032586	6
C	1.382452	0.740994	1.178604	6
C	1.371421	-1.474736	-0.153856	6
C	1.985822	-0.429696	-1.036596	6
H	-3.668118	0.174394	0.262404	1
H	-2.952379	-0.247796	-1.302046	1
H	-2.866259	1.422034	-0.704546	1
H	-1.516049	-1.007166	0.593674	1
H	-1.443139	0.654614	1.207114	1
H	-0.405029	1.305354	-0.876406	1
H	2.436091	0.551494	1.412734	1
H	0.795061	0.461594	2.059124	1
H	1.266161	1.816824	1.010654	1
H	0.694841	-2.186856	-0.613076	1
H	1.982621	-1.897296	0.634754	1
H	3.015731	-0.147686	-0.848966	1
H	1.722621	-0.441276	-2.088496	1
Es	1.985729	-0.429759	-1.036464	99
Es	0.978391	0.548464	1.778927	99
Es	-3.398358	0.234471	0.056885	99
Es	1.791618	-1.087246	-0.674167	99
Es	-2.822781	0.369001	-0.405888	99
Es	0.179392	0.176455	-0.329357	99
Es	0.915389	-1.951667	-0.461612	99
Es	-0.440982	0.139765	-0.873504	99
Es	0.926072	-0.037058	-0.032697	99
Es	2.096474	0.604482	1.330164	99
Es	-1.469753	0.469477	0.930643	99
Es	-1.513655	0.047825	0.298373	99
Es	1.300870	1.478613	1.056693	99
Es	-0.860246	0.221995	-0.177781	99
Es	1.382448	0.740989	1.178598	99
Es	-0.390836	0.932265	-0.738219	99
Es	1.371446	-1.474576	-0.153904	99
Es	1.785672	-1.755454	0.384679	99
Es	2.682733	-0.236288	-0.902457	99
Es	-0.391359	0.325767	-0.594504	99
Es	1.807872	-0.436390	-1.743736	99
Es	-1.512484	-0.677618	0.501424	99
Es	1.162493	0.351640	0.581950	99
Es	1.480892	-0.042206	-0.598197	99
Es	1.015819	-0.815045	0.054952	99
Es	-2.171775	0.213777	-0.059783	99
Es	-2.907214	-0.051381	-1.011660	99
Es	-2.843457	1.094505	-0.609771	99
48
Properties=species:S:1:pos:R:3:Z:I:1 energy=-289.2861700262709 field_type=dipole dipole="0.000000 0.000000 0.000000" charge=0
C	-2.822789	0.368994	-0.405906	6
C	-1.513729	0.047784	0.298484	6
N	-0.391439	0.325404	-0.595066	7
C	0.926102	-0.036986	-0.032586	6
C	1.382452	0.740994	1.178604	6
C	1.371421	-1.474736	-0.153856	6
C	1.985822	-0.429696	-1.036596	6
H	-3.668118	0.174394	0.262404	1
H	-2.952379	-0.247796	-1.302046	1
H	-2.866259	1.422034	-0.704546	1
H	-1.516049	-1.007166	0.593674	1
H	-1.443139	0.654614	1.207114	1
H	-0.405029	1.305354	-0.876406	1
H	2.436091	0.551494	1.412734	1
H	0.795061	0.461594	2.059124	1
H	1.266161	1.816824	1.010654	1
H	0.694841	-2.186856	-0.613076	1
H	1.982621	-1.897296	0.634754	1
H	3.015731	-0.147686	-0.848966	1
H	1.722621	-0.441276	-2.088496	1
Es	-1.513654	0.047824	0.298375	99
Es	-2.822779	0.369002	-0.405886	99
Es	0.179887	0.175569	-0.330199	99
Es	1.382449	0.740991	1.178596	99
Es	-0.441615	0.140454	-0.872602	99
Es	-1.512579	-0.677791	0.501431	99
Es	0.926076	-0.037054	-0.032700	99
Es	2.682398	-0.236377	-0.902587	99
Es	-3.398359	0.234360	0.057006	99
Es	-2.843252	1.094638	-0.609696	99
Es	1.480749	-0.041708	-0.598205	99
Es	0.978312	0.548253	1.778945	99
Es	1.792024	-1.087587	-0.674373	99
Es	-2.171618	0.213529	-0.059839	99
Es	1.162689	0.351553	0.582057	99
Es	2.096244	0.604518	1.330139	99
Es	1.015438	-0.814972	0.055145	99
Es	1.300883	1.478762	1.056529	99
Es	1.371448	-1.474571	-0.153908	99
Es	-0.391359	0.325775	-0.594487	99
Es	0.915645	-1.951523	-0.461620	99
Es	1.985728	-0.429759	-1.036466	99
Es	-0.859997	0.222236	-0.177570	99
Es	1.785621	-1.755552	0.384562	99
Es	-1.469989	0.469607	0.930580	99
Es	-0.390840	0.932372	-0.738476	99
Es	1.808068	-0.436463	-1.743532	99
Es	-2.907210	-0.051285	-1.011634	99
48
Properties=species:S:1:pos:R:3:Z:I:1 energy=-289.2861700262709 field_type=dipole dipole="0.000000 0.000000 0.000000" charge=0
C	-2.822789	0.368994	-0.405906	6
C	-1.513729	0.047784	0.298484	6
N	-0.391439	0.325404	-0.595066	7
C	0.926102	-0.036986	-0.032586	6
C	1.382452	0.740994	1.178604	6
C	1.371421	-1.474736	-0.153856	6
C	1.985822	-0.429696	-1.036596	6
H	-3.668118	0.174394	0.262404	1
H	-2.952379	-0.247796	-1.302046	1
H	-2.866259	1.422034	-0.704546	1
H	-1.516049	-1.007166	0.593674	1
H	-1.443139	0.654614	1.207114	1
H	-0.405029	1.305354	-0.876406	1
H	2.436091	0.551494	1.412734	1
H	0.795061	0.461594	2.059124	1
H	1.266161	1.816824	1.010654	1
H	0.694841	-2.186856	-0.613076	1
H	1.982621	-1.897296	0.634754	1
H	3.015731	-0.147686	-0.848966	1
H	1.722621	-0.441276	-2.088496	1
Es	-2.822779	0.369002	-0.405886	99
Es	2.682094	-0.236569	-0.902628	99
Es	1.300877	1.478853	1.056538	99
Es	2.096212	0.604430	1.329889	99
Es	-2.843098	1.094788	-0.609732	99
Es	1.985726	-0.429759	-1.036463	99
Es	-2.171660	0.213589	-0.059843	99
Es	0.179821	0.175242	-0.330860	99
Es	1.792278	-1.087973	-0.674509	99
Es	0.926071	-0.037058	-0.032696	99
Es	-1.513655	0.047825	0.298376	99
Es	-2.906975	-0.051383	-1.011560	99
Es	1.785467	-1.755608	0.384398	99
Es	1.808293	-0.436452	-1.743412	99
Es	1.480850	-0.041366	-0.598205	99
Es	-1.470106	0.469741	0.930576	99
Es	0.978366	0.548064	1.779015	99
Es	-0.390727	0.932432	-0.738958	99
Es	1.162613	0.351706	0.582050	99
Es	-0.859790	0.222457	-0.177213	99
Es	-1.512756	-0.677933	0.501388	99
Es	1.371446	-1.474574	-0.153903	99
Es	-3.398368	0.234217	0.057106	99
Es	-0.391347	0.325768	-0.594501	99
Es	1.382448	0.740989	1.178597	99
Es	-0.441972	0.140579	-0.871918	99
Es	0.915929	-1.951354	-0.461547	99
Es	1.015149	-0.814850	0.055487	99
48
Properties=species:S:1:pos:R:3:Z:I:1 energy=-289.2861700262709 field_type=dipole dipole="0.000000 0.000000 0.000000" charge=0
C	-2.822789	0.368994	-0.405906	6
C	-1.513729	0.047784	0.298484	6
N	-0.391439	0.325404	-0.595066	7
C	0.926102	-0.036986	-0.032586	6
C	1.382452	0.740994	1.178604	6
C	1.371421	-1.474736	-0.153856	6
C	1.985822	-0.429696	-1.036596	6
H	-3.668118	0.174394	0.262404	1
H	-2.952379	-0.247796	-1.302046	1
H	-2.866259	1.422034	-0.704546	1
H	-1.516049	-1.007166	0.593674	1
H	-1.443139	0.654614	1.207114	1
H	-0.405029	1.305354	-0.876406	1
H	2.436091	0.551494	1.412734	1
H	0.795061	0.461594	2.059124	1
H	1.266161	1.816824	1.010654	1
H	0.694841	-2.186856	-0.613076	1
H	1.982621	-1.897296	0.634754	1
H	3.015731	-0.147686	-0.848966	1
H	1.722621	-0.441276	-2.088496	1
Es	-1.513654	0.047827	0.298369	99
Es	-2.822778	0.369000	-0.405884	99
Es	-2.171529	0.213482	-0.059962	99
Es	0.926075	-0.037058	-0.032699	99
Es	1.162677	0.351761	0.582224	99
Es	-2.843040	1.094863	-0.609724	99
Es	1.785417	-1.755622	0.384286	99
Es	-0.442167	0.141438	-0.871349	99
Es	-1.512865	-0.677972	0.501371	99
Es	0.180067	0.174403	-0.331609	99
Es	-0.391374	0.325780	-0.594455	99
Es	1.300933	1.478966	1.056448	99
Es	1.808377	-0.436394	-1.743293	99
Es	-0.390570	0.932537	-0.738831	99
Es	-2.907077	-0.051367	-1.011522	99
Es	-1.470184	0.469837	0.930592	99
Es	1.792476	-1.088295	-0.674777	99
Es	0.978355	0.547948	1.779064	99
Es	1.014969	-0.814862	0.055531	99
Es	1.382448	0.740988	1.178595	99
Es	1.985729	-0.429759	-1.036460	99
Es	1.371444	-1.474573	-0.153902	99
Es	2.096037	0.604406	1.329809	99
Es	0.916081	-1.951227	-0.461375	99
Es	-0.859880	0.222272	-0.177274	99
Es	2.681893	-0.236656	-0.902704	99
Es	-3.398249	0.234163	0.057295	99
Es	1.480797	-0.041087	-0.598177	99
48
Properties=species:S:1:pos:R:3:Z:I:1 energy=-289.2861700262709 field_type=dipole dipole="0.000000 0.000000 0.000000" charge=0
C	-2.822789	0.368994	-0.405906	6
C	-1.513729	0.047784	0.298484	6
N	-0.391439	0.325404	-0.595066	7
C	0.926102	-0.036986	-0.032586	6
C	1.382452	0.740994	1.178604	6
C	1.371421	-1.474736	-0.153856	6
C	1.985822	-0.429696	-1.036596	6
H	-3.668118	0.174394	0.262404	1
H	-2.952379	-0.247796	-1.302046	1
H	-2.866259	1.422034	-0.704546	1
H	-1.516049	-1.007166	0.593674	1
H	-1.443139	0.654614	1.207114	1
H	-0.405029	1.305354	-0.876406	1
H	2.436091	0.551494	1.412734	1
H	0.795061	0.461594	2.059124	1
H	1.266161	1.816824	1.010654	1
H	0.694841	-2.186856	-0.613076	1
H	1.982621	-1.897296	0.634754	1
H	3.015731	-0.147686	-0.848966	1
H	1.722621	-0.441276	-2.088496	1
Es	1.015011	-0.814544	0.055471	99
Es	-2.171857	0.213762	-0.059990	99
Es	-1.512931	-0.678066	0.501427	99
Es	-2.842940	1.094964	-0.609813	99
Es	2.095937	0.604343	1.329744	99
Es	1.301013	1.479035	1.056444	99
Es	0.180483	0.173579	-0.332397	99
Es	-0.859909	0.222258	-0.177159	99
Es	-0.442697	0.142381	-0.870903	99
Es	-2.906725	-0.051518	-1.011423	99
Es	0.916122	-1.951062	-0.461303	99
Es	1.382448	0.740989	1.178597	99
Es	-3.398290	0.233997	0.057411	99
Es	1.480610	-0.040835	-0.597974	99
Es	0.926075	-0.037059	-0.032698	99
Es	-1.513654	0.047825	0.298375	99
Es	1.371443	-1.474571	-0.153903	99
Es	1.792982	-1.088949	-0.674970	99
Es	-2.822779	0.369003	-0.405885	99
Es	1.162698	0.351753	0.582178	99
Es	1.785186	-1.755681	0.384261	99
Es	0.978352	0.547883	1.779089	99
Es	1.985730	-0.429761	-1.036468	99
Es	2.681562	-0.236708	-0.902729	99
Es	-1.470186	0.469823	0.930486	99
Es	-0.391347	0.325780	-0.594476	99
Es	1.808518	-0.436324	-1.743256	99
Es	-0.390447	0.932502	-0.738546	99
48
Properties=species:S:1:pos:R:3:Z:I:1 energy=-289.2861700262709 field_type=dipole dipole="0.000000 0.000000 0.000000" charge=0
C	-2.822789	0.368994	-0.405906	6
C	-1.513729	0.047784	0.298484	6
N	-0.391439	0.325404	-0.595066	7
C	0.926102	-0.036986	-0.032586	6
C	1.382452	0.740994	1.178604	6
C	1.371421	-1.474736	-0.153856	6
C	1.985822	-0.429696	-1.036596	6
H	-3.668118	0.174394	0.262404	1
H	-2.952379	-0.247796	-1.302046	1
H	-2.866259	1.422034	-0.704546	1
H	-1.516049	-1.007166	0.593674	1
H	-1.443139	0.654614	1.207114	1
H	-0.405029	1.305354	-0.876406	1
H	2.436091	0.551494	1.412734	1
H	0.795061	0.461594	2.059124	1
H	1.266161	1.816824	1.010654	1
H	0.694841	-2.186856	-0.613076	1
H	1.982621	-1.897296	0.634754	1
H	3.015731	-0.147686	-0.848966	1
H	1.722621	-0.441276	-2.088496	1
Es	2.681462	-0.236989	-0.902823	99
Es	0.916330	-1.950911	-0.461412	99
Es	-1.513655	0.047825	0.298374	99
Es	1.480777	-0.040347	-0.598045	99
Es	-1.513093	-0.678179	0.501460	99
Es	-2.822781	0.369001	-0.405885	99
Es	-3.398375	0.234055	0.057444	99
Es	1.985729	-0.429758	-1.036467	99
Es	1.014736	-0.814760	0.055582	99
Es	-0.443303	0.142631	-0.870605	99
Es	2.095918	0.604171	1.329603	99
Es	1.301118	1.479088	1.056341	99
Es	-2.171681	0.213704	-0.059995	99
Es	-1.470326	0.470020	0.930436	99
Es	1.382449	0.740990	1.178598	99
Es	-0.859545	0.222502	-0.176757	99
Es	1.792879	-1.088790	-0.674952	99
Es	1.162638	0.351827	0.582409	99
Es	-2.906673	-0.051532	-1.011454	99
Es	0.180521	0.173011	-0.333124	99
Es	0.978256	0.547822	1.779120	99
Es	-2.842769	1.094944	-0.609796	99
Es	0.926076	-0.037064	-0.032696	99
Es	1.785190	-1.755833	0.384220	99
Es	1.808631	-0.436394	-1.743098	99
Es	-0.391346	0.325739	-0.594523	99
Es	1.371443	-1.474587	-0.153907	99
Es	-0.390198	0.932617	-0.738461	99
48
Properties=species:S:1:pos:R:3:Z:I:1 energy=-289.2861700262709 field_type=dipole dipole="0.000000 0.000000 0.000000" charge=0
C	-2.822789	0.368994	-0.405906	6
C	-1.513729	0.047784	0.298484	6
N	-0.391439	0.325404	-0.595066	7
C	0.926102	-0.036986	-0.032586	6
C	1.382452	0.740994	1.178604	6
C	1.371421	-1.474736	-0.153856	6
C	1.985822	-0.429696	-1.036596	6
H	-3.668118	0.174394	0.262404	1
H	-2.952379	-0.247796	-1.302046	1
H	-2.866259	1.422034	-0.704546	1
H	-1.516049	-1.007166	0.593674	1
H	-1.443139	0.654614	1.207114	1
H	-0.405029	1.305354	-0.876406	1
H	2.436091	0.551494	1.412734	1
H	0.795061	0.461594	2.059124	1
H	1.266161	1.816824	1.010654	1
H	0.694841	-2.186856	-0.613076	1
H	1.982621	-1.897296	0.634754	1
H	3.015731	-0.147686	-0.848966	1
H	1.722621	-0.441276	-2.088496	1
Es	1.162805	0.351806	0.582420	99
Es	1.014652	-0.814641	0.055891	99
Es	1.371444	-1.474571	-0.153905	99
Es	-2.171686	0.213669	-0.060098	99
Es	1.808924	-0.436382	-1.743151	99
Es	0.180381	0.172767	-0.333289	99
Es	-3.398330	0.233890	0.057563	99
Es	2.095806	0.604251	1.329598	99
Es	0.978294	0.547711	1.779125	99
Es	-0.391355	0.325756	-0.594503	99
Es	-0.859542	0.222590	-0.176805	99
Es	1.480452	-0.040467	-0.598069	99
Es	0.926076	-0.037060	-0.032698	99
Es	-0.390078	0.932713	-0.738619	99
Es	-0.443323	0.142744	-0.870316	99
Es	-1.470466	0.470091	0.930422	99
Es	1.785150	-1.755836	0.383941	99
Es	1.985739	-0.429754	-1.036464	99
Es	-1.513653	0.047824	0.298374	99
Es	-1.513073	-0.678176	0.501489	99
Es	-2.906558	-0.051546	-1.011357	99
Es	-2.822779	0.369002	-0.405886	99
Es	1.793237	-1.089159	-0.675156	99
Es	1.382448	0.740989	1.178597	99
Es	0.916455	-1.950824	-0.461259	99
Es	-2.842808	1.095012	-0.609856	99
Es	1.301036	1.479172	1.056228	99
Es	2.681162	-0.236769	-0.902629	99
48
Properties=species:S:1:pos:R:3:Z:I:1 energy=-289.2861700262709 field_type=dipole dipole="0.000000 0.000000 0.000000" charge=0
C	-2.822789	0.368994	-0.405906	6
C	-1.513729	0.047784	0.298484	6
N	-0.391439	0.325404	-0.595066	7
C	0.926102	-0.036986	-0.032586	6
C	1.382452	0.740994	1.178604	6
C	1.371421	-1.474736	-0.153856	6
C	1.985822	-0.429696	-1.036596	6
H	-3.668118	0.174394	0.262404	1
H	-2.952379	-0.247796	-1.302046	1
H	-2.866259	1.422034	-0.704546	1
H	-1.516049	-1.007166	0.593674	1
H	-1.443139	0.654614	1.207114	1
H	-0.405029	1.305354	-0.876406	1
H	2.436091	0.551494	1.412734	1
H	0.795061	0.461594	2.059124	1
H	1.266161	1.816824	1.010654	1
H	0.694841	-2.186856	-0.613076	1
H	1.982621	-1.897296	0.634754	1
H	3.015731	-0.147686	-0.848966	1
H	1.722621	-0.441276	-2.088496	1
Es	-1.513095	-0.678177	0.501530	99
Es	1.382448	0.740989	1.178596	99
Es	-2.906359	-0.051689	-1.011408	99
Es	-1.513656	0.047823	0.298377	99
Es	-3.398222	0.233748	0.057642	99
Es	1.014586	-0.814391	0.055737	99
Es	-0.390060	0.932863	-0.738581	99
Es	0.978240	0.547670	1.779105	99
Es	0.926076	-0.037053	-0.032701	99
Es	0.180437	0.172349	-0.333872	99
Es	0.916601	-1.950547	-0.461145	99
Es	1.985728	-0.429757	-1.036467	99
Es	1.793436	-1.089633	-0.675303	99
Es	-2.822780	0.369002	-0.405886	99
Es	1.784940	-1.755956	0.384042	99
Es	-2.171721	0.213825	-0.060133	99
Es	-0.443403	0.143274	-0.869844	99
Es	1.301038	1.479205	1.056181	99
Es	1.480472	-0.040308	-0.597938	99
Es	-2.842968	1.095045	-0.609830	99
Es	2.095787	0.604227	1.329603	99
Es	-1.470585	0.470176	0.930389	99
Es	-0.859446	0.222306	-0.176719	99
Es	1.808809	-0.436371	-1.743032	99
Es	1.371447	-1.474564	-0.153900	99
Es	2.681169	-0.236890	-0.902800	99
Es	-0.391376	0.325743	-0.594508	99
Es	1.162867	0.351893	0.582455	99
48
Properties=species:S:1:pos:R:3:Z:I:1 energy=-289.2861700262709 field_type=dipole dipole="0.000000 0.000000 0.000000" charge=0
C	-2.822789	0.368994	-0.405906	6
C	-1.513729	0.047784	0.298484	6
N	-0.391439	0.325404	-0.595066	7
C	0.926102	-0.036986	-0.032586	6
C	1.382452	0.740994	1.178604	6
C	1.371421	-1.474736	-0.153856	6
C	1.985822	-0.429696	-1.036596	6
H	-3.668118	0.174394	0.262404	1
H	-2.952379	-0.247796	-1.302046	1
H	-2.866259	1.422034	-0.704546	1
H	-1.516049	-1.007166	0.593674	1
H	-1.443139	0.654614	1.207114	1
H	-0.405029	1.305354	-0.876406	1
H	2.436091	0.551494	1.412734	1
H	0.795061	0.461594	2.059124	1
H	1.266161	1.816824	1.010654	1
H	0.694841	-2.186856	-0.613076	1
H	1.982621	-1.897296	0.634754	1
H	3.015731	-0.147686	-0.848966	1
H	1.722621	-0.441276	-2.088496	1
Es	-1.470552	0.470192	0.930409	99
Es	-0.443412	0.143219	-0.869360	99
Es	0.978271	0.547567	1.779086	99
Es	-2.171808	0.213767	-0.060065	99
Es	-2.842745	1.095066	-0.609807	99
Es	0.916775	-1.950576	-0.461076	99
Es	2.681064	-0.237053	-0.902931	99
Es	2.095759	0.604230	1.329553	99
Es	1.793344	-1.089580	-0.675233	99
Es	1.162888	0.351788	0.582520	99
Es	-2.906364	-0.051725	-1.011432	99
Es	-0.390054	0.932842	-0.739066	99
Es	1.382449	0.740989	1.178596	99
Es	0.926084	-0.037049	-0.032708	99
Es	-1.513163	-0.678224	0.501494	99
Es	1.985730	-0.429759	-1.036471	99
Es	-0.859470	0.222415	-0.176677	99
Es	-2.822779	0.369002	-0.405886	99
Es	1.371445	-1.474573	-0.153905	99
Es	0.180386	0.172298	-0.333974	99
Es	1.480533	-0.039769	-0.598011	99
Es	-0.391351	0.325813	-0.594432	99
Es	1.808845	-0.436536	-1.742940	99
Es	1.785033	-1.755893	0.383865	99
Es	1.014436	-0.814576	0.055812	99
Es	-3.398274	0.233843	0.057659	99
Es	-1.513654	0.047824	0.298375	99
Es	1.300994	1.479257	1.056192	99
48
Properties=species:S:1:pos:R:3:Z:I:1 energy=-289.2861700262709 field_type=dipole dipole="0.000000 0.000000 0.000000" charge=0
C	-2.822789	0.368994	-0.405906	6
C	-1.513729	0.047784	0.298484	6
N	-0.391439	0.325404	-0.595066	7
C	0.926102	-0.036986	-0.032586	6
C	1.382452	0.740994	1.178604	6
C	1.371421	-1.474736	-0.153856	6
C	1.985822	-0.429696	-1.036596	6
H	-3.668118	0.174394	0.262404	1
H	-2.952379	-0.247796	-1.302046	1
H	-2.866259	1.422034	-0.704546	1
H	-1.516049	-1.007166	0.593674	1
H	-1.443139	0.654614	1.207114	1
H	-0.405029	1.305354	-0.876406	1
H	2.436091	0.551494	1.412734	1
H	0.795061	0.461594	2.059124	1
H	1.266161	1.816824	1.010654	1
H	0.694841	-2.186856	-0.613076	1
H	1.982621	-1.897296	0.634754	1
H	3.015731	-0.147686	-0.848966	1
H	1.722621	-0.441276	-2.088496	1
Es	-2.171783	0.213728	-0.060067	99
Es	2.095592	0.604206	1.329487	99
Es	-1.513240	-0.678207	0.501422	99
Es	-1.513653	0.047824	0.298373	99
Es	-0.391348	0.325813	-0.594425	99
Es	1.162807	0.351785	0.582507	99
Es	1.793412	-1.089819	-0.675366	99
Es	1.785108	-1.755943	0.383876	99
Es	0.926075	-0.037058	-0.032698	99
Es	-2.906279	-0.051811	-1.011449	99
Es	1.014272	-0.814362	0.055971	99
Es	-0.389983	0.932832	-0.738802	99
Es	-0.859386	0.222489	-0.176641	99
Es	0.916772	-1.950564	-0.461127	99
Es	1.382448	0.740990	1.178597	99
Es	1.371446	-1.474572	-0.153902	99
Es	1.985727	-0.429760	-1.036463	99
Es	1.808959	-0.436308	-1.742859	99
Es	-3.398240	0.233823	0.057697	99
Es	1.480751	-0.039888	-0.598109	99
Es	-0.444044	0.144242	-0.868710	99
Es	1.301117	1.479318	1.056203	99
Es	-1.470653	0.470305	0.930501	99
Es	2.680809	-0.237037	-0.902914	99
Es	-2.842714	1.095106	-0.609791	99
Es	-2.822779	0.369002	-0.405886	99
Es	0.180916	0.171130	-0.335002	99
Es	0.978298	0.547535	1.779165	99
