47
Properties=species:S:1:pos:R:3:Z:I:1 energy=-305.2762679844236 field_type=dipole dipole="0.000000 0.000000 0.000000" charge=0
C	-0.562998	-1.378086	-1.388218	6
C	-0.375748	-0.914016	0.054662	6
N	0.354282	-1.934146	0.810972	7
C	0.392852	0.401624	0.085882	6
C	-0.345168	1.660293	-0.425968	6
N	0.282672	2.430774	0.673082	7
C	0.419782	1.162584	1.432102	6
H	-1.138288	-0.643436	-1.962648	1
H	-1.104708	-2.329596	-1.429788	1
H	0.398912	-1.510746	-1.897478	1
H	-1.362088	-0.786286	0.515362	1
H	1.232322	-2.153026	0.340972	1
H	-0.180308	-2.802836	0.811822	1
H	1.397912	0.309944	-0.355668	1
H	-1.438758	1.622304	-0.355098	1
H	-0.071678	1.992184	-1.431848	1
H	1.184172	2.833774	0.415112	1
H	1.345482	1.072384	2.008101	1
H	-0.428648	0.966314	2.098652	1
Es	1.056735	1.106085	1.829843	99
Es	0.026748	-2.459272	0.788453	99
Es	-0.345094	1.660342	-0.425868	99
Es	0.101065	-1.468521	-1.728205	99
Es	0.283024	2.430323	0.672813	99
Es	0.080053	2.693519	0.824486	99
Es	-1.053387	-0.823178	0.370183	99
Es	0.354180	-1.934318	0.810435	99
Es	1.081710	0.338223	-0.217738	99
Es	-0.168634	1.027543	1.874829	99
Es	-0.956739	-0.873401	-1.779852	99
Es	-0.158837	1.891908	-1.120568	99
Es	-0.932460	-2.030806	-1.411370	99
Es	0.374040	1.909469	1.043705	99
Es	0.419776	1.162699	1.432001	99
Es	0.013156	-0.266107	0.064336	99
Es	0.875926	-2.065463	0.502737	99
Es	0.429737	0.694936	0.803064	99
Es	0.838433	2.633866	0.500018	99
Es	0.010226	2.143333	0.157222	99
Es	-0.007666	0.975292	-0.255712	99
Es	-0.473656	-1.147796	-0.687392	99
Es	0.419286	-1.830491	1.145648	99
Es	-1.092652	1.624664	-0.367735	99
Es	-0.375662	-0.914131	0.054686	99
Es	0.392833	0.401643	0.085882	99
Es	-0.563004	-1.378083	-1.388239	99
Es	0.042027	-1.510407	0.465097	99
47
Properties=species:S:1:pos:R:3:Z:I:1 energy=-305.2762679844236 field_type=dipole dipole="0.000000 0.000000 0.000000" charge=0
C	-0.562998	-1.378086	-1.388218	6
C	-0.375748	-0.914016	0.054662	6
N	0.354282	-1.934146	0.810972	7
C	0.392852	0.401624	0.085882	6
C	-0.345168	1.660293	-0.425968	6
N	0.282672	2.430774	0.673082	7
C	0.419782	1.162584	1.432102	6
H	-1.138288	-0.643436	-1.962648	1
H	-1.104708	-2.329596	-1.429788	1
H	0.398912	-1.510746	-1.897478	1
H	-1.362088	-0.786286	0.515362	1
H	1.232322	-2.153026	0.340972	1
H	-0.180308	-2.802836	0.811822	1
H	1.397912	0.309944	-0.355668	1
H	-1.438758	1.622304	-0.355098	1
H	-0.071678	1.992184	-1.431848	1
H	1.184172	2.833774	0.415112	1
H	1.345482	1.072384	2.008101	1
H	-0.428648	0.966314	2.098652	1
Es	0.026329	-2.459695	0.789597	99
Es	-0.375662	-0.914132	0.054686	99
Es	-0.563003	-1.378085	-1.388238	99
Es	0.419774	1.162698	1.431998	99
Es	0.417894	-1.830570	1.143212	99
Es	0.877765	-2.065027	0.503690	99
Es	-0.169236	1.027315	1.874980	99
Es	-0.345093	1.660345	-0.425862	99
Es	-0.473766	-1.148010	-0.687217	99
Es	0.041980	-1.510270	0.465251	99
Es	-0.158342	1.891868	-1.120532	99
Es	0.354186	-1.934324	0.810431	99
Es	1.057228	1.105950	1.829556	99
Es	-0.932741	-2.030610	-1.411391	99
Es	1.082439	0.338257	-0.217957	99
Es	0.373114	1.909517	1.044100	99
Es	-1.053928	-0.823079	0.370304	99
Es	0.101732	-1.468344	-1.728619	99
Es	0.013225	-0.266118	0.064299	99
Es	0.009246	2.143247	0.157577	99
Es	0.283021	2.430340	0.672820	99
Es	-1.093375	1.624597	-0.367569	99
Es	0.080954	2.690941	0.823385	99
Es	0.392826	0.401644	0.085883	99
Es	0.839677	2.635721	0.499892	99
Es	-0.956789	-0.873568	-1.779178	99
Es	0.429391	0.695632	0.802932	99
Es	-0.007680	0.975631	-0.255266	99
47
Properties=species:S:1:pos:R:3:Z:I:1 energy=-305.2762679844236 field_type=dipole dipole="0.000000 0.000000 0.000000" charge=0
C	-0.562998	-1.378086	-1.388218	6
C	-0.375748	-0.914016	0.054662	6
N	0.354282	-1.934146	0.810972	7
C	0.392852	0.401624	0.085882	6
C	-0.345168	1.660293	-0.425968	6
N	0.282672	2.430774	0.673082	7
C	0.419782	1.162584	1.432102	6
H	-1.138288	-0.643436	-1.962648	1
H	-1.104708	-2.329596	-1.429788	1
H	0.398912	-1.510746	-1.897478	1
H	-1.362088	-0.786286	0.515362	1
H	1.232322	-2.153026	0.340972	1
H	-0.180308	-2.802836	0.811822	1
H	1.397912	0.309944	-0.355668	1
H	-1.438758	1.622304	-0.355098	1
H	-0.071678	1.992184	-1.431848	1
H	1.184172	2.833774	0.415112	1
H	1.345482	1.072384	2.008101	1
H	-0.428648	0.966314	2.098652	1
Es	0.419775	1.162699	1.432001	99
Es	-0.932910	-2.030472	-1.411132	99
Es	1.082848	0.338252	-0.218039	99
Es	-1.093778	1.624454	-0.367332	99
Es	-0.345092	1.660344	-0.425863	99
Es	0.102149	-1.468393	-1.728753	99
Es	-0.169677	1.027047	1.874998	99
Es	-0.375662	-0.914133	0.054686	99
Es	-0.473610	-1.147910	-0.687272	99
Es	-1.054449	-0.823087	0.370341	99
Es	0.013255	-0.266123	0.064236	99
Es	0.429359	0.695979	0.802926	99
Es	0.283000	2.430348	0.672827	99
Es	-0.956875	-0.873627	-1.778953	99
Es	0.354172	-1.934340	0.810429	99
Es	-0.158078	1.891744	-1.120650	99
Es	0.081863	2.689529	0.822716	99
Es	0.392827	0.401645	0.085886	99
Es	0.008603	2.143519	0.157732	99
Es	0.416624	-1.829930	1.141204	99
Es	0.879335	-2.064957	0.504632	99
Es	1.057466	1.105883	1.829403	99
Es	-0.563003	-1.378085	-1.388238	99
Es	0.042224	-1.510755	0.464780	99
Es	0.372623	1.909327	1.044460	99
Es	-0.007817	0.976126	-0.254988	99
Es	0.840130	2.636662	0.499766	99
Es	0.025863	-2.459875	0.790957	99
47
Properties=species:S:1:pos:R:3:Z:I:1 energy=-305.2762679844236 field_type=dipole dipole="0.000000 0.000000 0.000000" charge=0
C	-0.562998	-1.378086	-1.388218	6
C	-0.375748	-0.914016	0.054662	6
N	0.354282	-1.934146	0.810972	7
C	0.392852	0.401624	0.085882	6
C	-0.345168	1.660293	-0.425968	6
N	0.282672	2.430774	0.673082	7
C	0.419782	1.162584	1.432102	6
H	-1.138288	-0.643436	-1.962648	1
H	-1.104708	-2.329596	-1.429788	1
H	0.398912	-1.510746	-1.897478	1
H	-1.362088	-0.786286	0.515362	1
H	1.232322	-2.153026	0.340972	1
H	-0.180308	-2.802836	0.811822	1
H	1.397912	0.309944	-0.355668	1
H	-1.438758	1.622304	-0.355098	1
H	-0.071678	1.992184	-1.431848	1
H	1.184172	2.833774	0.415112	1
H	1.345482	1.072384	2.008101	1
H	-0.428648	0.966314	2.098652	1
Es	0.419777	1.162698	1.432003	99
Es	-0.473613	-1.147936	-0.687399	99
Es	0.880222	-2.064913	0.504957	99
Es	-0.345094	1.660347	-0.425861	99
Es	0.415819	-1.829912	1.140569	99
Es	0.371800	1.909520	1.044979	99
Es	-0.956952	-0.873554	-1.778892	99
Es	0.283001	2.430329	0.672828	99
Es	1.057854	1.105758	1.829309	99
Es	0.429125	0.696424	0.802957	99
Es	-0.375662	-0.914133	0.054686	99
Es	1.083101	0.338200	-0.218029	99
Es	0.025556	-2.459736	0.791128	99
Es	0.042465	-1.510998	0.464894	99
Es	0.392827	0.401644	0.085885	99
Es	0.082673	2.688767	0.821940	99
Es	-1.094080	1.624337	-0.367358	99
Es	-0.007830	0.976401	-0.254915	99
Es	0.013240	-0.265991	0.064219	99
Es	0.354188	-1.934315	0.810445	99
Es	0.007935	2.143420	0.157965	99
Es	0.840774	2.636915	0.499691	99
Es	-0.169992	1.026940	1.874959	99
Es	-0.563003	-1.378083	-1.388235	99
Es	-0.933005	-2.030442	-1.410889	99
Es	0.102392	-1.468463	-1.728734	99
Es	-1.054599	-0.823116	0.370283	99
Es	-0.157755	1.891762	-1.120627	99
47
Properties=species:S:1:pos:R:3:Z:I:1 energy=-305.2762679844236 field_type=dipole dipole="0.000000 0.000000 0.000000" charge=0
C	-0.562998	-1.378086	-1.388218	6
C	-0.375748	-0.914016	0.054662	6
N	0.354282	-1.934146	0.810972	7
C	0.392852	0.401624	0.085882	6
C	-0.345168	1.660293	-0.425968	6
N	0.282672	2.430774	0.673082	7
C	0.419782	1.162584	1.432102	6
H	-1.138288	-0.643436	-1.962648	1
H	-1.104708	-2.329596	-1.429788	1
H	0.398912	-1.510746	-1.897478	1
H	-1.362088	-0.786286	0.515362	1
H	1.232322	-2.153026	0.340972	1
H	-0.180308	-2.802836	0.811822	1
H	1.397912	0.309944	-0.355668	1
H	-1.438758	1.622304	-0.355098	1
H	-0.071678	1.992184	-1.431848	1
H	1.184172	2.833774	0.415112	1
H	1.345482	1.072384	2.008101	1
H	-0.428648	0.966314	2.098652	1
Es	0.840985	2.637369	0.499757	99
Es	-1.094265	1.624273	-0.367293	99
Es	-0.345093	1.660345	-0.425864	99
Es	-0.170216	1.026828	1.875013	99
Es	-1.054816	-0.823085	0.370393	99
Es	0.392827	0.401645	0.085886	99
Es	0.083594	2.687836	0.821473	99
Es	0.025592	-2.460073	0.791905	99
Es	0.282957	2.430368	0.672851	99
Es	0.042316	-1.511093	0.464731	99
Es	0.013185	-0.266002	0.064162	99
Es	0.880735	-2.064615	0.505306	99
Es	0.371411	1.909422	1.045383	99
Es	-0.007864	0.976582	-0.254733	99
Es	-0.375662	-0.914134	0.054684	99
Es	1.083306	0.338170	-0.218138	99
Es	-0.933083	-2.030274	-1.410841	99
Es	0.429089	0.696666	0.802916	99
Es	-0.563003	-1.378085	-1.388238	99
Es	0.007316	2.143717	0.157887	99
Es	-0.473629	-1.147971	-0.687359	99
Es	0.102667	-1.468407	-1.729021	99
Es	-0.157617	1.891665	-1.120656	99
Es	0.354182	-1.934308	0.810447	99
Es	0.419776	1.162699	1.432003	99
Es	0.415482	-1.829706	1.139508	99
Es	1.058033	1.105766	1.829177	99
Es	-0.957040	-0.873727	-1.778579	99
47
Properties=species:S:1:pos:R:3:Z:I:1 energy=-305.2762679844236 field_type=dipole dipole="0.000000 0.000000 0.000000" charge=0
C	-0.562998	-1.378086	-1.388218	6
C	-0.375748	-0.914016	0.054662	6
N	0.354282	-1.934146	0.810972	7
C	0.392852	0.401624	0.085882	6
C	-0.345168	1.660293	-0.425968	6
N	0.282672	2.430774	0.673082	7
C	0.419782	1.162584	1.432102	6
H	-1.138288	-0.643436	-1.962648	1
H	-1.104708	-2.329596	-1.429788	1
H	0.398912	-1.510746	-1.897478	1
H	-1.362088	-0.786286	0.515362	1
H	1.232322	-2.153026	0.340972	1
H	-0.180308	-2.802836	0.811822	1
H	1.397912	0.309944	-0.355668	1
H	-1.438758	1.622304	-0.355098	1
H	-0.071678	1.992184	-1.431848	1
H	1.184172	2.833774	0.415112	1
H	1.345482	1.072384	2.008101	1
H	-0.428648	0.966314	2.098652	1
Es	0.013170	-0.266042	0.064175	99
Es	-0.007848	0.976776	-0.254627	99
Es	-0.473581	-1.148100	-0.687335	99
Es	-0.933065	-2.030194	-1.410879	99
Es	0.392827	0.401645	0.085887	99
Es	0.083791	2.686550	0.821112	99
Es	-0.345093	1.660345	-0.425864	99
Es	0.025676	-2.460010	0.792257	99
Es	-1.054964	-0.823103	0.370397	99
Es	-1.094378	1.624166	-0.367180	99
Es	0.841167	2.638467	0.499936	99
Es	0.283006	2.430370	0.672821	99
Es	1.083451	0.338203	-0.218134	99
Es	0.006999	2.143598	0.157899	99
Es	-0.170396	1.026744	1.874941	99
Es	-0.157509	1.891687	-1.120748	99
Es	0.102787	-1.468380	-1.729062	99
Es	0.415123	-1.829639	1.139004	99
Es	0.371328	1.909540	1.045452	99
Es	-0.957106	-0.873699	-1.778473	99
Es	-0.563005	-1.378085	-1.388240	99
Es	0.042182	-1.511211	0.464520	99
Es	0.428981	0.696902	0.802975	99
Es	0.354187	-1.934273	0.810508	99
Es	-0.375661	-0.914133	0.054686	99
Es	0.419776	1.162698	1.432002	99
Es	1.058197	1.105651	1.829160	99
Es	0.881121	-2.064603	0.505569	99
47
Properties=species:S:1:pos:R:3:Z:I:1 energy=-305.2762679844236 field_type=dipole dipole="0.000000 0.000000 0.000000" charge=0
C	-0.562998	-1.378086	-1.388218	6
C	-0.375748	-0.914016	0.054662	6
N	0.354282	-1.934146	0.810972	7
C	0.392852	0.401624	0.085882	6
C	-0.345168	1.660293	-0.425968	6
N	0.282672	2.430774	0.673082	7
C	0.419782	1.162584	1.432102	6
H	-1.138288	-0.643436	-1.962648	1
H	-1.104708	-2.329596	-1.429788	1
H	0.398912	-1.510746	-1.897478	1
H	-1.362088	-0.786286	0.515362	1
H	1.232322	-2.153026	0.340972	1
H	-0.180308	-2.802836	0.811822	1
H	1.397912	0.309944	-0.355668	1
H	-1.438758	1.622304	-0.355098	1
H	-0.071678	1.992184	-1.431848	1
H	1.184172	2.833774	0.415112	1
H	1.345482	1.072384	2.008101	1
H	-0.428648	0.966314	2.098652	1
Es	-0.563004	-1.378084	-1.388230	99
Es	0.370864	1.909483	1.045642	99
Es	0.419776	1.162698	1.432002	99
Es	0.013184	-0.266045	0.064196	99
Es	-0.157353	1.891623	-1.120829	99
Es	-0.345095	1.660346	-0.425863	99
Es	0.283023	2.430331	0.672816	99
Es	-0.957039	-0.873738	-1.778455	99
Es	0.841515	2.638272	0.499676	99
Es	0.025670	-2.459993	0.792713	99
Es	1.083508	0.338184	-0.218198	99
Es	-0.933143	-2.030149	-1.410876	99
Es	0.005971	2.144155	0.158078	99
Es	0.102842	-1.468421	-1.729076	99
Es	-1.055087	-0.823099	0.370402	99
Es	-0.375660	-0.914137	0.054687	99
Es	1.058273	1.105637	1.829111	99
Es	0.414534	-1.829274	1.138520	99
Es	0.354187	-1.934299	0.810442	99
Es	0.084921	2.686159	0.820974	99
Es	0.881724	-2.064596	0.505991	99
Es	0.392827	0.401645	0.085887	99
Es	0.042239	-1.511569	0.464162	99
Es	-0.007956	0.976984	-0.254553	99
Es	-0.473556	-1.148017	-0.687269	99
Es	0.429009	0.697053	0.802997	99
Es	-0.170506	1.026667	1.874938	99
Es	-1.094504	1.624053	-0.367126	99
47
Properties=species:S:1:pos:R:3:Z:I:1 energy=-305.2762679844236 field_type=dipole dipole="0.000000 0.000000 0.000000" charge=0
C	-0.562998	-1.378086	-1.388218	6
C	-0.375748	-0.914016	0.054662	6
N	0.354282	-1.934146	0.810972	7
C	0.392852	0.401624	0.085882	6
C	-0.345168	1.660293	-0.425968	6
N	0.282672	2.430774	0.673082	7
C	0.419782	1.162584	1.432102	6
H	-1.138288	-0.643436	-1.962648	1
H	-1.104708	-2.329596	-1.429788	1
H	0.398912	-1.510746	-1.897478	1
H	-1.362088	-0.786286	0.515362	1
H	1.232322	-2.153026	0.340972	1
H	-0.180308	-2.802836	0.811822	1
H	1.397912	0.309944	-0.355668	1
H	-1.438758	1.622304	-0.355098	1
H	-0.071678	1.992184	-1.431848	1
H	1.184172	2.833774	0.415112	1
H	1.345482	1.072384	2.008101	1
H	-0.428648	0.966314	2.098652	1
Es	0.370734	1.909377	1.045864	99
Es	0.841579	2.638650	0.499707	99
Es	0.354214	-1.934247	0.810620	99
Es	-0.345094	1.660341	-0.425863	99
Es	-0.933151	-2.030089	-1.410843	99
Es	0.025603	-2.459971	0.792484	99
Es	-0.563002	-1.378085	-1.388237	99
Es	0.042269	-1.511424	0.464284	99
Es	-0.473583	-1.148068	-0.687271	99
Es	0.283024	2.430321	0.672814	99
Es	-0.008007	0.977103	-0.254533	99
Es	1.058428	1.105633	1.829036	99
Es	0.013246	-0.265996	0.064215	99
Es	0.085319	2.685606	0.820685	99
Es	0.102942	-1.468394	-1.729191	99
Es	0.414236	-1.829582	1.138214	99
Es	0.005673	2.144219	0.158094	99
Es	-0.157274	1.891626	-1.120830	99
Es	-0.170626	1.026690	1.874977	99
Es	1.083679	0.338179	-0.218162	99
Es	0.419776	1.162700	1.432001	99
Es	-1.055126	-0.823092	0.370434	99
Es	-0.375662	-0.914132	0.054686	99
Es	0.882006	-2.064498	0.506190	99
Es	-1.094594	1.623998	-0.367095	99
Es	0.392827	0.401645	0.085886	99
Es	0.428836	0.697145	0.802924	99
Es	-0.957107	-0.873785	-1.778330	99
47
Properties=species:S:1:pos:R:3:Z:I:1 energy=-305.2762679844236 field_type=dipole dipole="0.000000 0.000000 0.000000" charge=0
C	-0.562998	-1.378086	-1.388218	6
C	-0.375748	-0.914016	0.054662	6
N	0.354282	-1.934146	0.810972	7
C	0.392852	0.401624	0.085882	6
C	-0.345168	1.660293	-0.425968	6
N	0.282672	2.430774	0.673082	7
C	0.419782	1.162584	1.432102	6
H	-1.138288	-0.643436	-1.962648	1
H	-1.104708	-2.329596	-1.429788	1
H	0.398912	-1.510746	-1.897478	1
H	-1.362088	-0.786286	0.515362	1
H	1.232322	-2.153026	0.340972	1
H	-0.180308	-2.802836	0.811822	1
H	1.397912	0.309944	-0.355668	1
H	-1.438758	1.622304	-0.355098	1
H	-0.071678	1.992184	-1.431848	1
H	1.184172	2.833774	0.415112	1
H	1.345482	1.072384	2.008101	1
H	-0.428648	0.966314	2.098652	1
Es	0.085986	2.685449	0.819901	99
Es	0.392828	0.401644	0.085886	99
Es	1.058510	1.105646	1.829121	99
Es	-0.007948	0.977172	-0.254519	99
Es	0.103073	-1.468390	-1.729243	99
Es	-0.170770	1.026614	1.874847	99
Es	0.370026	1.909608	1.046461	99
Es	-0.157220	1.891641	-1.120817	99
Es	-1.094685	1.623951	-0.367064	99
Es	0.354188	-1.934277	0.810512	99
Es	-1.055250	-0.823048	0.370460	99
Es	0.042247	-1.511532	0.464190	99
Es	-0.933075	-2.030027	-1.410712	99
Es	0.419775	1.162701	1.432001	99
Es	0.428872	0.697293	0.802991	99
Es	0.841864	2.638361	0.499791	99
Es	0.882212	-2.064377	0.506351	99
Es	0.414101	-1.829407	1.137907	99
Es	-0.473584	-1.148003	-0.687294	99
Es	0.013239	-0.266070	0.064155	99
Es	-0.345093	1.660345	-0.425863	99
Es	-0.957236	-0.873886	-1.778327	99
Es	0.005553	2.144164	0.158037	99
Es	1.083723	0.338180	-0.218166	99
Es	-0.563002	-1.378085	-1.388237	99
Es	0.025609	-2.460112	0.792804	99
Es	-0.375663	-0.914131	0.054685	99
Es	0.282885	2.430447	0.672904	99
47
Properties=species:S:1:pos:R:3:Z:I:1 energy=-305.2762679844236 field_type=dipole dipole="0.000000 0.000000 0.000000" charge=0
C	-0.562998	-1.378086	-1.388218	6
C	-0.375748	-0.914016	0.054662	6
N	0.354282	-1.934146	0.810972	7
C	0.392852	0.401624	0.085882	6
C	-0.345168	1.660293	-0.425968	6
N	0.282672	2.430774	0.673082	7
C	0.419782	1.162584	1.432102	6
H	-1.138288	-0.643436	-1.962648	1
H	-1.104708	-2.329596	-1.429788	1
H	0.398912	-1.510746	-1.897478	1
H	-1.362088	-0.786286	0.515362	1
H	1.232322	-2.153026	0.340972	1
H	-0.180308	-2.802836	0.811822	1
H	1.397912	0.309944	-0.355668	1
H	-1.438758	1.622304	-0.355098	1
H	-0.071678	1.992184	-1.431848	1
H	1.184172	2.833774	0.415112	1
H	1.345482	1.072384	2.008101	1
H	-0.428648	0.966314	2.098652	1
Es	1.083817	0.338118	-0.218245	99
Es	1.058653	1.105565	1.829055	99
Es	0.419776	1.162699	1.432002	99
Es	0.392827	0.401645	0.085887	99
Es	-0.170765	1.026620	1.874868	99
Es	-0.375662	-0.914132	0.054686	99
Es	-0.008158	0.977297	-0.254484	99
Es	0.005534	2.143976	0.158084	99
Es	0.025525	-2.460132	0.793229	99
Es	0.354176	-1.934319	0.810420	99
Es	0.042251	-1.511827	0.463969	99
Es	-0.563003	-1.378085	-1.388237	99
Es	0.103110	-1.468445	-1.729203	99
Es	-0.933178	-2.029973	-1.410811	99
Es	0.841858	2.638657	0.499807	99
Es	0.282873	2.430455	0.672911	99
Es	0.882649	-2.064349	0.506685	99
Es	0.013340	-0.265843	0.064176	99
Es	-0.157056	1.891610	-1.120862	99
Es	0.428691	0.697321	0.803169	99
Es	-1.055231	-0.823099	0.370443	99
Es	-0.345093	1.660345	-0.425863	99
Es	0.085957	2.685163	0.819932	99
Es	-0.957126	-0.873804	-1.778288	99
Es	0.413708	-1.829089	1.137436	99
Es	-0.473649	-1.148092	-0.687243	99
Es	-1.094783	1.623953	-0.367046	99
Es	0.370123	1.909637	1.046284	99
47
Properties=species:S:1:pos:R:3:Z:I:1 energy=-305.2762679844236 field_type=dipole dipole="0.000000 0.000000 0.000000" charge=0
C	-0.562998	-1.378086	-1.388218	6
C	-0.375748	-0.914016	0.054662	6
N	0.354282	-1.934146	0.810972	7
C	0.392852	0.401624	0.085882	6
C	-0.345168	1.660293	-0.425968	6
N	0.282672	2.430774	0.673082	7
C	0.419782	1.162584	1.432102	6
H	-1.138288	-0.643436	-1.962648	1
H	-1.104708	-2.329596	-1.429788	1
H	0.398912	-1.510746	-1.897478	1
H	-1.362088	-0.786286	0.515362	1
H	1.232322	-2.153026	0.340972	1
H	-0.180308	-2.802836	0.811822	1
H	1.397912	0.309944	-0.355668	1
H	-1.438758	1.622304	-0.355098	1
H	-0.071678	1.992184	-1.431848	1
H	1.184172	2.833774	0.415112	1
H	1.345482	1.072384	2.008101	1
H	-0.428648	0.966314	2.098652	1
Es	0.428653	0.697438	0.802946	99
Es	0.419776	1.162699	1.432002	99
Es	-0.473559	-1.148115	-0.687188	99
Es	-0.345093	1.660346	-0.425861	99
Es	0.283041	2.430327	0.672801	99
Es	0.004888	2.144442	0.158053	99
Es	1.058668	1.105529	1.829021	99
Es	0.042319	-1.512097	0.463796	99
Es	-0.170837	1.026651	1.874888	99
Es	-0.933118	-2.029896	-1.410802	99
Es	0.103120	-1.468486	-1.729211	99
Es	0.841875	2.638960	0.499775	99
Es	-0.008036	0.977308	-0.254429	99
Es	0.369998	1.909531	1.046644	99
Es	0.413513	-1.828862	1.137480	99
Es	0.882834	-2.064377	0.506691	99
Es	0.013237	-0.265968	0.064260	99
Es	0.086583	2.684611	0.819767	99
Es	-0.563003	-1.378085	-1.388238	99
Es	0.025531	-2.460031	0.793320	99
Es	-0.375662	-0.914133	0.054686	99
Es	1.083909	0.338167	-0.218246	99
Es	-1.094831	1.623871	-0.367025	99
Es	-0.157087	1.891605	-1.120829	99
Es	0.354164	-1.934291	0.810426	99
Es	-0.957191	-0.873796	-1.778314	99
Es	-1.055352	-0.823123	0.370461	99
Es	0.392827	0.401645	0.085887	99
47
Properties=species:S:1:pos:R:3:Z:I:1 energy=-305.2762679844236 field_type=dipole dipole="0.000000 0.000000 0.000000" charge=0
C	-0.562998	-1.378086	-1.388218	6
C	-0.375748	-0.914016	0.054662	6
N	0.354282	-1.934146	0.810972	7
C	0.392852	0.401624	0.085882	6
C	-0.345168	1.660293	-0.425968	6
N	0.282672	2.430774	0.673082	7
C	0.419782	1.162584	1.432102	6
H	-1.138288	-0.643436	-1.962648	1
H	-1.104708	-2.329596	-1.429788	1
H	0.398912	-1.510746	-1.897478	1
H	-1.362088	-0.786286	0.515362	1
H	1.232322	-2.153026	0.340972	1
H	-0.180308	-2.802836	0.811822	1
H	1.397912	0.309944	-0.355668	1
H	-1.438758	1.622304	-0.355098	1
H	-0.071678	1.992184	-1.431848	1
H	1.184172	2.833774	0.415112	1
H	1.345482	1.072384	2.008101	1
H	-0.428648	0.966314	2.098652	1
Es	0.086776	2.684300	0.819752	99
Es	0.419782	1.162702	1.432001	99
Es	-0.345093	1.660345	-0.425864	99
Es	-0.957220	-0.873869	-1.778258	99
Es	0.392827	0.401645	0.085886	99
Es	0.413547	-1.829405	1.137000	99
Es	0.004653	2.144385	0.158048	99
Es	0.369880	1.909558	1.046497	99
Es	0.428868	0.697594	0.803193	99
Es	-0.156901	1.891566	-1.120924	99
Es	0.025566	-2.460206	0.793272	99
Es	-1.094890	1.623891	-0.367010	99
Es	-0.375663	-0.914131	0.054685	99
Es	-0.563003	-1.378085	-1.388238	99
Es	0.283042	2.430321	0.672813	99
Es	1.083842	0.338097	-0.218321	99
Es	0.882951	-2.064093	0.506704	99
Es	0.013139	-0.265987	0.064271	99
Es	0.042156	-1.511587	0.464370	99
Es	-0.170973	1.026490	1.874725	99
Es	-1.055319	-0.823067	0.370507	99
Es	0.103258	-1.468508	-1.729266	99
Es	0.354174	-1.934347	0.810394	99
Es	-0.933160	-2.029845	-1.410693	99
Es	-0.008126	0.977427	-0.254369	99
Es	-0.473626	-1.148058	-0.687415	99
Es	0.841973	2.639136	0.499867	99
Es	1.058706	1.105600	1.829132	99
47
Properties=species:S:1:pos:R:3:Z:I:1 energy=-305.2762679844236 field_type=dipole dipole="0.000000 0.000000 0.000000" charge=0
C	-0.562998	-1.378086	-1.388218	6
C	-0.375748	-0.914016	0.054662	6
N	0.354282	-1.934146	0.810972	7
C	0.392852	0.401624	0.085882	6
C	-0.345168	1.660293	-0.425968	6
N	0.282672	2.430774	0.673082	7
C	0.419782	1.162584	1.432102	6
H	-1.138288	-0.643436	-1.962648	1
H	-1.104708	-2.329596	-1.429788	1
H	0.398912	-1.510746	-1.897478	1
H	-1.362088	-0.786286	0.515362	1
H	1.232322	-2.153026	0.340972	1
H	-0.180308	-2.802836	0.811822	1
H	1.397912	0.309944	-0.355668	1
H	-1.438758	1.622304	-0.355098	1
H	-0.071678	1.992184	-1.431848	1
H	1.184172	2.833774	0.415112	1
H	1.345482	1.072384	2.008101	1
H	-0.428648	0.966314	2.098652	1
Es	0.004456	2.144541	0.158193	99
Es	0.087007	2.684127	0.819673	99
Es	0.369787	1.909545	1.046558	99
Es	0.283046	2.430366	0.672814	99
Es	0.042261	-1.512016	0.463872	99
Es	0.013291	-0.265998	0.064183	99
Es	-1.094886	1.623843	-0.366956	99
Es	0.413211	-1.829074	1.137300	99
Es	1.083917	0.338221	-0.218325	99
Es	-0.170970	1.026488	1.874835	99
Es	-0.008155	0.977401	-0.254320	99
Es	-1.055419	-0.823085	0.370459	99
Es	-0.933186	-2.029852	-1.410727	99
Es	-0.473539	-1.148073	-0.687234	99
Es	0.883156	-2.064358	0.506874	99
Es	-0.563004	-1.378085	-1.388238	99
Es	-0.375663	-0.914132	0.054686	99
Es	-0.957180	-0.873806	-1.778284	99
Es	-0.156945	1.891579	-1.120948	99
Es	0.103194	-1.468542	-1.729234	99
Es	0.428659	0.697682	0.803227	99
Es	0.842062	2.639125	0.499700	99
Es	-0.345093	1.660345	-0.425863	99
Es	0.354169	-1.934309	0.810401	99
Es	0.392828	0.401644	0.085886	99
Es	1.058826	1.105501	1.828972	99
Es	0.025559	-2.459907	0.793254	99
Es	0.419775	1.162699	1.432002	99
47
Properties=species:S:1:pos:R:3:Z:I:1 energy=-305.2762679844236 field_type=dipole dipole="0.000000 0.000000 0.000000" charge=0
C	-0.562998	-1.378086	-1.388218	6
C	-0.375748	-0.914016	0.054662	6
N	0.354282	-1.934146	0.810972	7
C	0.392852	0.401624	0.085882	6
C	-0.345168	1.660293	-0.425968	6
N	0.282672	2.430774	0.673082	7
C	0.419782	1.162584	1.432102	6
H	-1.138288	-0.643436	-1.962648	1
H	-1.104708	-2.329596	-1.429788	1
H	0.398912	-1.510746	-1.897478	1
H	-1.362088	-0.786286	0.515362	1
H	1.232322	-2.153026	0.340972	1
H	-0.180308	-2.802836	0.811822	1
H	1.397912	0.309944	-0.355668	1
H	-1.438758	1.622304	-0.355098	1
H	-0.071678	1.992184	-1.431848	1
H	1.184172	2.833774	0.415112	1
H	1.345482	1.072384	2.008101	1
H	-0.428648	0.966314	2.098652	1
Es	1.058761	1.105598	1.829113	99
Es	0.842091	2.639165	0.499793	99
Es	0.419777	1.162700	1.431999	99
Es	-0.345094	1.660345	-0.425864	99
Es	0.354170	-1.934316	0.810420	99
Es	-0.156901	1.891577	-1.120932	99
Es	-0.375662	-0.914133	0.054686	99
Es	1.083926	0.338139	-0.218347	99
Es	0.013243	-0.266011	0.064325	99
Es	-1.055499	-0.823094	0.370466	99
Es	0.103335	-1.468382	-1.729322	99
Es	0.025494	-2.460005	0.793973	99
Es	0.413526	-1.828438	1.137083	99
Es	0.042295	-1.512295	0.463485	99
Es	-0.933100	-2.029883	-1.410659	99
Es	0.392827	0.401645	0.085887	99
Es	0.369825	1.909547	1.046329	99
Es	-0.008086	0.977481	-0.254328	99
Es	0.087299	2.683959	0.819826	99
Es	0.004081	2.144615	0.157948	99
Es	-0.563003	-1.378085	-1.388238	99
Es	-0.957302	-0.873969	-1.778186	99
Es	0.428876	0.697725	0.803224	99
Es	-0.473564	-1.148032	-0.687312	99
Es	-0.171055	1.026420	1.874701	99
Es	0.882895	-2.064562	0.506738	99
Es	0.283007	2.430345	0.672837	99
Es	-1.094996	1.623815	-0.366884	99
47
Properties=species:S:1:pos:R:3:Z:I:1 energy=-305.2762679844236 field_type=dipole dipole="0.000000 0.000000 0.000000" charge=0
C	-0.562998	-1.378086	-1.388218	6
C	-0.375748	-0.914016	0.054662	6
N	0.354282	-1.934146	0.810972	7
C	0.392852	0.401624	0.085882	6
C	-0.345168	1.660293	-0.425968	6
N	0.282672	2.430774	0.673082	7
C	0.419782	1.162584	1.432102	6
H	-1.138288	-0.643436	-1.962648	1
H	-1.104708	-2.329596	-1.429788	1
H	0.398912	-1.510746	-1.897478	1
H	-1.362088	-0.786286	0.515362	1
H	1.232322	-2.153026	0.340972	1
H	-0.180308	-2.802836	0.811822	1
H	1.397912	0.309944	-0.355668	1
H	-1.438758	1.622304	-0.355098	1
H	-0.071678	1.992184	-1.431848	1
H	1.184172	2.833774	0.415112	1
H	1.345482	1.072384	2.008101	1
H	-0.428648	0.966314	2.098652	1
Es	0.419776	1.162699	1.432002	99
Es	0.087364	2.683784	0.819837	99
Es	-0.008300	0.977572	-0.254322	99
Es	0.883295	-2.064080	0.507185	99
Es	-0.563003	-1.378085	-1.388238	99
Es	-0.375662	-0.914133	0.054686	99
Es	0.004006	2.144552	0.158197	99
Es	0.283015	2.430323	0.672805	99
Es	-1.094943	1.623852	-0.366913	99
Es	0.413034	-1.828641	1.136799	99
Es	0.103336	-1.468424	-1.729346	99
Es	0.428715	0.697819	0.803198	99
Es	0.369839	1.909532	1.046442	99
Es	-0.171083	1.026416	1.874784	99
Es	-1.055474	-0.823117	0.370502	99
Es	-0.345094	1.660344	-0.425864	99
Es	0.042457	-1.512246	0.463665	99
Es	1.083970	0.338092	-0.218321	99
Es	0.354174	-1.934336	0.810424	99
Es	-0.957376	-0.873931	-1.778189	99
Es	1.058901	1.105504	1.828967	99
Es	0.013150	-0.265948	0.064265	99
Es	0.842134	2.639314	0.499682	99
Es	0.025516	-2.460290	0.793640	99
Es	-0.473580	-1.148097	-0.687297	99
Es	-0.156792	1.891554	-1.121035	99
Es	-0.933036	-2.029805	-1.410679	99
Es	0.392826	0.401645	0.085886	99
47
Properties=species:S:1:pos:R:3:Z:I:1 energy=-305.2762679844236 field_type=dipole dipole="0.000000 0.000000 0.000000" charge=0
C	-0.562998	-1.378086	-1.388218	6
C	-0.375748	-0.914016	0.054662	6
N	0.354282	-1.934146	0.810972	7
C	0.392852	0.401624	0.085882	6
C	-0.345168	1.660293	-0.425968	6
N	0.282672	2.430774	0.673082	7
C	0.419782	1.162584	1.432102	6
H	-1.138288	-0.643436	-1.962648	1
H	-1.104708	-2.329596	-1.429788	1
H	0.398912	-1.510746	-1.897478	1
H	-1.362088	-0.786286	0.515362	1
H	1.232322	-2.153026	0.340972	1
H	-0.180308	-2.802836	0.811822	1
H	1.397912	0.309944	-0.355668	1
H	-1.438758	1.622304	-0.355098	1
H	-0.071678	1.992184	-1.431848	1
H	1.184172	2.833774	0.415112	1
H	1.345482	1.072384	2.008101	1
H	-0.428648	0.966314	2.098652	1
Es	-1.055565	-0.823043	0.370473	99
Es	0.282992	2.430440	0.672865	99
Es	0.025477	-2.460030	0.793818	99
Es	0.883100	-2.064412	0.506830	99
Es	0.419776	1.162699	1.432002	99
Es	0.842133	2.639790	0.499901	99
Es	0.392826	0.401646	0.085886	99
Es	-0.156833	1.891594	-1.120947	99
Es	1.084057	0.338097	-0.218298	99
Es	-0.171092	1.026458	1.874808	99
Es	0.042307	-1.512176	0.463710	99
Es	0.354186	-1.934282	0.810487	99
Es	1.058967	1.105482	1.828933	99
Es	0.369687	1.909498	1.046623	99
Es	-0.008165	0.977617	-0.254354	99
Es	0.428558	0.697782	0.803246	99
Es	0.413335	-1.828713	1.136866	99
Es	-0.375663	-0.914132	0.054686	99
Es	-1.095024	1.623773	-0.366887	99
Es	-0.345094	1.660346	-0.425864	99
Es	-0.473512	-1.148040	-0.687293	99
Es	0.003929	2.144660	0.158088	99
Es	-0.957313	-0.873960	-1.778159	99
Es	0.087618	2.683071	0.819403	99
Es	-0.933135	-2.029758	-1.410629	99
Es	-0.563003	-1.378085	-1.388238	99
Es	0.013235	-0.265965	0.064188	99
Es	0.103378	-1.468487	-1.729383	99
47
Properties=species:S:1:pos:R:3:Z:I:1 energy=-305.2762679844236 field_type=dipole dipole="0.000000 0.000000 0.000000" charge=0
C	-0.562998	-1.378086	-1.388218	6
C	-0.375748	-0.914016	0.054662	6
N	0.354282	-1.934146	0.810972	7
C	0.392852	0.401624	0.085882	6
C	-0.345168	1.660293	-0.425968	6
N	0.282672	2.430774	0.673082	7
C	0.419782	1.162584	1.432102	6
H	-1.138288	-0.643436	-1.962648	1
H	-1.104708	-2.329596	-1.429788	1
H	0.398912	-1.510746	-1.897478	1
H	-1.362088	-0.786286	0.515362	1
H	1.232322	-2.153026	0.340972	1
H	-0.180308	-2.802836	0.811822	1
H	1.397912	0.309944	-0.355668	1
H	-1.438758	1.622304	-0.355098	1
H	-0.071678	1.992184	-1.431848	1
H	1.184172	2.833774	0.415112	1
H	1.345482	1.072384	2.008101	1
H	-0.428648	0.966314	2.098652	1
Es	-0.933143	-2.029733	-1.410667	99
Es	-1.055521	-0.823075	0.370483	99
Es	-0.156791	1.891536	-1.120988	99
Es	-0.345094	1.660346	-0.425864	99
Es	-0.008101	0.977614	-0.254215	99
Es	1.084060	0.338099	-0.218346	99
Es	1.058907	1.105521	1.829040	99
Es	0.042129	-1.511965	0.463859	99
Es	0.428604	0.697734	0.803221	99
Es	0.392827	0.401646	0.085888	99
Es	0.413094	-1.828922	1.136121	99
Es	0.013196	-0.265899	0.064168	99
Es	0.883516	-2.064259	0.507106	99
Es	0.283055	2.430308	0.672797	99
Es	0.842234	2.639523	0.499893	99
Es	0.369366	1.909661	1.047045	99
Es	-0.563003	-1.378085	-1.388238	99
Es	-0.473547	-1.148043	-0.687275	99
Es	-0.957285	-0.873995	-1.778160	99
Es	0.025498	-2.460124	0.794198	99
Es	0.354174	-1.934315	0.810433	99
Es	-0.171103	1.026478	1.874732	99
Es	-1.095057	1.623773	-0.366857	99
Es	0.103367	-1.468497	-1.729403	99
Es	0.003553	2.144805	0.157923	99
Es	-0.375662	-0.914134	0.054689	99
Es	0.419777	1.162697	1.432002	99
Es	0.088116	2.683174	0.819176	99
47
Properties=species:S:1:pos:R:3:Z:I:1 energy=-305.2762679844236 field_type=dipole dipole="0.000000 0.000000 0.000000" charge=0
C	-0.562998	-1.378086	-1.388218	6
C	-0.375748	-0.914016	0.054662	6
N	0.354282	-1.934146	0.810972	7
C	0.392852	0.401624	0.085882	6
C	-0.345168	1.660293	-0.425968	6
N	0.282672	2.430774	0.673082	7
C	0.419782	1.162584	1.432102	6
H	-1.138288	-0.643436	-1.962648	1
H	-1.104708	-2.329596	-1.429788	1
H	0.398912	-1.510746	-1.897478	1
H	-1.362088	-0.786286	0.515362	1
H	1.232322	-2.153026	0.340972	1
H	-0.180308	-2.802836	0.811822	1
H	1.397912	0.309944	-0.355668	1
H	-1.438758	1.622304	-0.355098	1
H	-0.071678	1.992184	-1.431848	1
H	1.184172	2.833774	0.415112	1
H	1.345482	1.072384	2.008101	1
H	-0.428648	0.966314	2.098652	1
Es	-0.008225	0.977731	-0.254336	99
Es	-1.095042	1.623771	-0.366894	99
Es	0.354179	-1.934329	0.810432	99
Es	0.025442	-2.460103	0.793947	99
Es	0.103432	-1.468526	-1.729365	99
Es	-0.563003	-1.378085	-1.388238	99
Es	0.369247	1.909553	1.047056	99
Es	-0.156746	1.891546	-1.121004	99