50
Properties=species:S:1:pos:R:3:Z:I:1 energy=-306.4928949722111 field_type=dipole dipole="0.000000 0.000000 0.000000" charge=0
C	-2.492307	-0.149647	-0.325150	6
C	-0.993617	-0.446307	-0.402950	6
N	-0.688357	-1.097917	-1.679231	7
C	-0.179997	0.849083	-0.246810	6
C	1.344113	0.664183	-0.275320	6
C	1.904853	-0.261397	0.806190	6
N	1.595284	0.222783	2.147400	7
H	-2.744427	0.309343	0.636740	1
H	-3.079867	-1.069747	-0.416560	1
H	-2.809637	0.535283	-1.118981	1
H	-0.745707	-1.139987	0.407510	1
H	-0.944327	-0.478407	-2.447360	1
H	-1.270987	-1.927767	-1.783380	1
H	-0.464967	1.341553	0.691330	1
H	-0.451167	1.550413	-1.047150	1
H	1.811633	1.652603	-0.178390	1
H	1.650573	0.282093	-1.256970	1
H	2.993643	-0.321067	0.694100	1
H	1.517893	-1.278297	0.686730	1
H	2.004323	1.147063	2.275790	1
H	2.043043	-0.383857	2.832470	1
Es	1.344092	0.664178	-0.275285	99
Es	1.863994	0.776966	2.216136	99
Es	1.595844	0.222760	2.147311	99
Es	-2.890603	-0.784109	-0.391768	99
Es	-2.492324	-0.149645	-0.325148	99
Es	1.245848	0.236280	2.206140	99
Es	1.665621	1.346322	-0.197648	99
Es	-0.840398	-0.814374	-1.139175	99
Es	1.636329	-0.956718	0.728449	99
Es	-0.688912	-1.097775	-1.679202	99
Es	-0.378369	1.181689	0.390497	99
Es	-0.344958	-1.186366	-1.707812	99
Es	-0.579487	0.198269	-0.330934	99
Es	2.662360	-0.302377	0.719880	99
Es	-0.179977	0.849056	-0.246827	99
Es	-0.865756	-0.716009	-2.134071	99
Es	-1.760093	-0.287168	-0.361369	99
Es	-0.993617	-0.446328	-0.403091	99
Es	0.580221	0.740349	-0.254370	99
Es	1.612559	0.201879	0.273826	99
Es	-0.824214	-0.923178	0.150271	99
Es	-2.702982	0.319132	-0.873740	99
Es	1.749983	0.018093	1.574147	99
Es	1.904811	-0.261321	0.806309	99
Es	-0.369494	1.324209	-0.806075	99
Es	-2.664820	0.164640	0.332387	99
Es	-1.060397	-1.590189	-1.736184	99
Es	1.555288	0.403947	-0.940172	99
Es	1.885785	-0.142955	2.552262	99
50
Properties=species:S:1:pos:R:3:Z:I:1 energy=-306.4928949722111 field_type=dipole dipole="0.000000 0.000000 0.000000" charge=0
C	-2.492307	-0.149647	-0.325150	6
C	-0.993617	-0.446307	-0.402950	6
N	-0.688357	-1.097917	-1.679231	7
C	-0.179997	0.849083	-0.246810	6
C	1.344113	0.664183	-0.275320	6
C	1.904853	-0.261397	0.806190	6
N	1.595284	0.222783	2.147400	7
H	-2.744427	0.309343	0.636740	1
H	-3.079867	-1.069747	-0.416560	1
H	-2.809637	0.535283	-1.118981	1
H	-0.745707	-1.139987	0.407510	1
H	-0.944327	-0.478407	-2.447360	1
H	-1.270987	-1.927767	-1.783380	1
H	-0.464967	1.341553	0.691330	1
H	-0.451167	1.550413	-1.047150	1
H	1.811633	1.652603	-0.178390	1
H	1.650573	0.282093	-1.256970	1
H	2.993643	-0.321067	0.694100	1
H	1.517893	-1.278297	0.686730	1
H	2.004323	1.147063	2.275790	1
H	2.043043	-0.383857	2.832470	1
Es	1.249457	0.236253	2.205061	99
Es	1.904811	-0.261322	0.806309	99
Es	1.612671	0.202066	0.273998	99
Es	-1.760183	-0.286933	-0.361586	99
Es	2.661722	-0.302135	0.720049	99
Es	1.748886	0.017995	1.573590	99
Es	1.554870	0.403813	-0.939974	99
Es	-0.864449	-0.715180	-2.135573	99
Es	-0.839799	-0.814507	-1.138961	99
Es	-0.579582	0.198279	-0.330845	99
Es	1.636504	-0.957318	0.728457	99
Es	-0.369348	1.324716	-0.806418	99
Es	-0.179975	0.849054	-0.246828	99
Es	-1.059791	-1.591139	-1.735985	99
Es	0.580187	0.740119	-0.254358	99
Es	-0.688922	-1.097779	-1.679201	99
Es	-0.824480	-0.923504	0.150599	99
Es	-2.492323	-0.149645	-0.325148	99
Es	-2.703053	0.319421	-0.874105	99
Es	-0.993618	-0.446328	-0.403087	99
Es	-0.347660	-1.186059	-1.706724	99
Es	1.862815	0.778287	2.216292	99
Es	1.665505	1.346957	-0.197954	99
Es	-0.377913	1.181514	0.390462	99
Es	1.344091	0.664177	-0.275283	99
Es	1.595857	0.222766	2.147313	99
Es	-2.664260	0.164617	0.332323	99
Es	1.884739	-0.144200	2.553698	99
Es	-2.890426	-0.784729	-0.391375	99
50
Properties=species:S:1:pos:R:3:Z:I:1 energy=-306.4928949722111 field_type=dipole dipole="0.000000 0.000000 0.000000" charge=0
C	-2.492307	-0.149647	-0.325150	6
C	-0.993617	-0.446307	-0.402950	6
N	-0.688357	-1.097917	-1.679231	7
C	-0.179997	0.849083	-0.246810	6
C	1.344113	0.664183	-0.275320	6
C	1.904853	-0.261397	0.806190	6
N	1.595284	0.222783	2.147400	7
H	-2.744427	0.309343	0.636740	1
H	-3.079867	-1.069747	-0.416560	1
H	-2.809637	0.535283	-1.118981	1
H	-0.745707	-1.139987	0.407510	1
H	-0.944327	-0.478407	-2.447360	1
H	-1.270987	-1.927767	-1.783380	1
H	-0.464967	1.341553	0.691330	1
H	-0.451167	1.550413	-1.047150	1
H	1.811633	1.652603	-0.178390	1
H	1.650573	0.282093	-1.256970	1
H	2.993643	-0.321067	0.694100	1
H	1.517893	-1.278297	0.686730	1
H	2.004323	1.147063	2.275790	1
H	2.043043	-0.383857	2.832470	1
Es	-0.579672	0.198210	-0.331007	99
Es	-0.993615	-0.446332	-0.403091	99
Es	-2.492324	-0.149645	-0.325147	99
Es	1.251120	0.236513	2.204749	99
Es	-1.059182	-1.592240	-1.736037	99
Es	-2.664049	0.164592	0.332193	99
Es	1.612641	0.201693	0.273855	99
Es	1.665573	1.347180	-0.197938	99
Es	-0.864076	-0.714915	-2.135906	99
Es	2.661440	-0.302067	0.720138	99
Es	-2.702893	0.319637	-0.874228	99
Es	-0.369356	1.325139	-0.806414	99
Es	-1.760234	-0.286959	-0.361525	99
Es	-0.839354	-0.814448	-1.138631	99
Es	1.904811	-0.261324	0.806309	99
Es	-0.377632	1.181233	0.390389	99
Es	1.884193	-0.144780	2.554306	99
Es	1.595843	0.222762	2.147307	99
Es	-0.179974	0.849054	-0.246829	99
Es	-0.688960	-1.097763	-1.679189	99
Es	1.636653	-0.957529	0.728563	99
Es	-0.824483	-0.923719	0.150774	99
Es	1.344092	0.664177	-0.275285	99
Es	-0.349205	-1.185200	-1.706592	99
Es	-2.890515	-0.784964	-0.391286	99
Es	1.862569	0.778710	2.216272	99
Es	0.580195	0.740241	-0.254460	99
Es	1.748151	0.017920	1.573287	99
Es	1.554579	0.404081	-0.939833	99
50
Properties=species:S:1:pos:R:3:Z:I:1 energy=-306.4928949722111 field_type=dipole dipole="0.000000 0.000000 0.000000" charge=0
C	-2.492307	-0.149647	-0.325150	6
C	-0.993617	-0.446307	-0.402950	6
N	-0.688357	-1.097917	-1.679231	7
C	-0.179997	0.849083	-0.246810	6
C	1.344113	0.664183	-0.275320	6
C	1.904853	-0.261397	0.806190	6
N	1.595284	0.222783	2.147400	7
H	-2.744427	0.309343	0.636740	1
H	-3.079867	-1.069747	-0.416560	1
H	-2.809637	0.535283	-1.118981	1
H	-0.745707	-1.139987	0.407510	1
H	-0.944327	-0.478407	-2.447360	1
H	-1.270987	-1.927767	-1.783380	1
H	-0.464967	1.341553	0.691330	1
H	-0.451167	1.550413	-1.047150	1
H	1.811633	1.652603	-0.178390	1
H	1.650573	0.282093	-1.256970	1
H	2.993643	-0.321067	0.694100	1
H	1.517893	-1.278297	0.686730	1
H	2.004323	1.147063	2.275790	1
H	2.043043	-0.383857	2.832470	1
Es	1.595862	0.222766	2.147311	99
Es	-1.058847	-1.592910	-1.736121	99
Es	-2.702905	0.319855	-0.874273	99
Es	1.884234	-0.144970	2.554353	99
Es	1.904810	-0.261321	0.806308	99
Es	-2.663950	0.164439	0.332032	99
Es	0.580194	0.740179	-0.254350	99
Es	2.661306	-0.302056	0.720218	99
Es	-0.688868	-1.097786	-1.679195	99
Es	-1.760108	-0.287003	-0.361444	99
Es	1.665595	1.347372	-0.198051	99
Es	1.251961	0.235805	2.204460	99
Es	-0.993617	-0.446328	-0.403092	99
Es	1.636634	-0.957661	0.728548	99
Es	-0.377528	1.181242	0.390204	99
Es	-0.179975	0.849053	-0.246828	99
Es	-0.824607	-0.923812	0.150790	99
Es	-0.863479	-0.714521	-2.136345	99
Es	1.747956	0.017948	1.573412	99
Es	-0.579716	0.198285	-0.330770	99
Es	1.344092	0.664178	-0.275284	99
Es	-0.350631	-1.184767	-1.706232	99
Es	-2.890527	-0.785109	-0.391220	99
Es	-0.369300	1.325237	-0.806599	99
Es	1.612745	0.201701	0.273882	99
Es	1.861920	0.779561	2.216339	99
Es	1.554414	0.404095	-0.939688	99
Es	-0.839007	-0.814569	-1.138473	99
Es	-2.492324	-0.149645	-0.325147	99
50
Properties=species:S:1:pos:R:3:Z:I:1 energy=-306.4928949722111 field_type=dipole dipole="0.000000 0.000000 0.000000" charge=0
C	-2.492307	-0.149647	-0.325150	6
C	-0.993617	-0.446307	-0.402950	6
N	-0.688357	-1.097917	-1.679231	7
C	-0.179997	0.849083	-0.246810	6
C	1.344113	0.664183	-0.275320	6
C	1.904853	-0.261397	0.806190	6
N	1.595284	0.222783	2.147400	7
H	-2.744427	0.309343	0.636740	1
H	-3.079867	-1.069747	-0.416560	1
H	-2.809637	0.535283	-1.118981	1
H	-0.745707	-1.139987	0.407510	1
H	-0.944327	-0.478407	-2.447360	1
H	-1.270987	-1.927767	-1.783380	1
H	-0.464967	1.341553	0.691330	1
H	-0.451167	1.550413	-1.047150	1
H	1.811633	1.652603	-0.178390	1
H	1.650573	0.282093	-1.256970	1
H	2.993643	-0.321067	0.694100	1
H	1.517893	-1.278297	0.686730	1
H	2.004323	1.147063	2.275790	1
H	2.043043	-0.383857	2.832470	1
Es	1.344093	0.664180	-0.275285	99
Es	-0.863924	-0.714436	-2.136148	99
Es	1.253083	0.236389	2.204498	99
Es	1.554324	0.404192	-0.939710	99
Es	1.595862	0.222771	2.147307	99
Es	1.904811	-0.261321	0.806311	99
Es	1.862418	0.779676	2.216320	99
Es	1.612818	0.201670	0.273779	99
Es	-1.058886	-1.593056	-1.735914	99
Es	-0.688920	-1.097777	-1.679197	99
Es	-0.838387	-0.814613	-1.138298	99
Es	0.580172	0.740198	-0.254278	99
Es	-2.702845	0.319941	-0.874320	99
Es	1.883722	-0.145678	2.554499	99
Es	1.746876	0.017945	1.573196	99
Es	1.636693	-0.957766	0.728594	99
Es	-0.824592	-0.923874	0.150821	99
Es	-0.579653	0.198246	-0.330875	99
Es	-0.369254	1.325394	-0.806657	99
Es	-2.890540	-0.785251	-0.391172	99
Es	-2.663834	0.164436	0.331993	99
Es	-0.350759	-1.184642	-1.706744	99
Es	1.665564	1.347416	-0.198028	99
Es	-0.993617	-0.446329	-0.403091	99
Es	-0.179976	0.849055	-0.246826	99
Es	-2.492325	-0.149645	-0.325148	99
Es	-0.377482	1.181129	0.390212	99
Es	2.661154	-0.302057	0.720345	99
Es	-1.760264	-0.286938	-0.361437	99
50
Properties=species:S:1:pos:R:3:Z:I:1 energy=-306.4928949722111 field_type=dipole dipole="0.000000 0.000000 0.000000" charge=0
C	-2.492307	-0.149647	-0.325150	6
C	-0.993617	-0.446307	-0.402950	6
N	-0.688357	-1.097917	-1.679231	7
C	-0.179997	0.849083	-0.246810	6
C	1.344113	0.664183	-0.275320	6
C	1.904853	-0.261397	0.806190	6
N	1.595284	0.222783	2.147400	7
H	-2.744427	0.309343	0.636740	1
H	-3.079867	-1.069747	-0.416560	1
H	-2.809637	0.535283	-1.118981	1
H	-0.745707	-1.139987	0.407510	1
H	-0.944327	-0.478407	-2.447360	1
H	-1.270987	-1.927767	-1.783380	1
H	-0.464967	1.341553	0.691330	1
H	-0.451167	1.550413	-1.047150	1
H	1.811633	1.652603	-0.178390	1
H	1.650573	0.282093	-1.256970	1
H	2.993643	-0.321067	0.694100	1
H	1.517893	-1.278297	0.686730	1
H	2.004323	1.147063	2.275790	1
H	2.043043	-0.383857	2.832470	1
Es	1.665559	1.347574	-0.198169	99
Es	-0.579699	0.198224	-0.330805	99
Es	-1.760252	-0.286999	-0.361420	99
Es	2.661090	-0.302024	0.720319	99
Es	-0.688904	-1.097777	-1.679200	99
Es	0.580184	0.740159	-0.254300	99
Es	-0.838097	-0.814709	-1.137980	99
Es	-0.369267	1.325428	-0.806624	99
Es	-1.058090	-1.593888	-1.735945	99
Es	-0.993617	-0.446328	-0.403091	99
Es	1.253601	0.236267	2.204256	99
Es	1.344092	0.664178	-0.275284	99
Es	1.883595	-0.145562	2.554909	99
Es	1.612802	0.201683	0.273762	99
Es	1.861915	0.779843	2.216288	99
Es	-0.351591	-1.183757	-1.706962	99
Es	1.636756	-0.957814	0.728671	99
Es	-2.492324	-0.149645	-0.325147	99
Es	1.747053	0.017799	1.573048	99
Es	-2.890557	-0.785299	-0.391126	99
Es	-0.824657	-0.923957	0.150842	99
Es	-0.179976	0.849055	-0.246827	99
Es	1.554240	0.404148	-0.939564	99
Es	1.595873	0.222765	2.147309	99
Es	-0.377385	1.181144	0.390092	99
Es	-2.663741	0.164356	0.331941	99
Es	1.904810	-0.261320	0.806313	99
Es	-2.702825	0.320082	-0.874385	99
Es	-0.864255	-0.714368	-2.136177	99
50
Properties=species:S:1:pos:R:3:Z:I:1 energy=-306.4928949722111 field_type=dipole dipole="0.000000 0.000000 0.000000" charge=0
C	-2.492307	-0.149647	-0.325150	6
C	-0.993617	-0.446307	-0.402950	6
N	-0.688357	-1.097917	-1.679231	7
C	-0.179997	0.849083	-0.246810	6
C	1.344113	0.664183	-0.275320	6
C	1.904853	-0.261397	0.806190	6
N	1.595284	0.222783	2.147400	7
H	-2.744427	0.309343	0.636740	1
H	-3.079867	-1.069747	-0.416560	1
H	-2.809637	0.535283	-1.118981	1
H	-0.745707	-1.139987	0.407510	1
H	-0.944327	-0.478407	-2.447360	1
H	-1.270987	-1.927767	-1.783380	1
H	-0.464967	1.341553	0.691330	1
H	-0.451167	1.550413	-1.047150	1
H	1.811633	1.652603	-0.178390	1
H	1.650573	0.282093	-1.256970	1
H	2.993643	-0.321067	0.694100	1
H	1.517893	-1.278297	0.686730	1
H	2.004323	1.147063	2.275790	1
H	2.043043	-0.383857	2.832470	1
Es	-0.837843	-0.814641	-1.137945	99
Es	-0.351810	-1.184236	-1.706924	99
Es	-0.377325	1.181059	0.390022	99
Es	-2.492323	-0.149645	-0.325147	99
Es	1.883514	-0.145547	2.555137	99
Es	-0.579698	0.198204	-0.330759	99
Es	-0.369238	1.325565	-0.806680	99
Es	-1.058579	-1.593584	-1.735949	99
Es	-2.702840	0.320143	-0.874355	99
Es	-2.890591	-0.785380	-0.391101	99
Es	1.665577	1.347683	-0.198203	99
Es	-2.663663	0.164325	0.331886	99
Es	1.554181	0.404164	-0.939468	99
Es	1.595845	0.222766	2.147308	99
Es	1.861557	0.780116	2.216255	99
Es	1.612888	0.201723	0.273795	99
Es	1.253900	0.236028	2.203964	99
Es	1.747279	0.017734	1.573139	99
Es	2.660962	-0.302033	0.720370	99
Es	-0.179976	0.849055	-0.246827	99
Es	0.580173	0.740124	-0.254285	99
Es	-1.760219	-0.286957	-0.361432	99
Es	1.636712	-0.957912	0.728620	99
Es	-0.824697	-0.923992	0.150841	99
Es	-0.993616	-0.446328	-0.403090	99
Es	1.344092	0.664179	-0.275285	99
Es	-0.688909	-1.097778	-1.679203	99
Es	1.904808	-0.261323	0.806311	99
Es	-0.863827	-0.714255	-2.136250	99
50
Properties=species:S:1:pos:R:3:Z:I:1 energy=-306.4928949722111 field_type=dipole dipole="0.000000 0.000000 0.000000" charge=0
C	-2.492307	-0.149647	-0.325150	6
C	-0.993617	-0.446307	-0.402950	6
N	-0.688357	-1.097917	-1.679231	7
C	-0.179997	0.849083	-0.246810	6
C	1.344113	0.664183	-0.275320	6
C	1.904853	-0.261397	0.806190	6
N	1.595284	0.222783	2.147400	7
H	-2.744427	0.309343	0.636740	1
H	-3.079867	-1.069747	-0.416560	1
H	-2.809637	0.535283	-1.118981	1
H	-0.745707	-1.139987	0.407510	1
H	-0.944327	-0.478407	-2.447360	1
H	-1.270987	-1.927767	-1.783380	1
H	-0.464967	1.341553	0.691330	1
H	-0.451167	1.550413	-1.047150	1
H	1.811633	1.652603	-0.178390	1
H	1.650573	0.282093	-1.256970	1
H	2.993643	-0.321067	0.694100	1
H	1.517893	-1.278297	0.686730	1
H	2.004323	1.147063	2.275790	1
H	2.043043	-0.383857	2.832470	1
Es	-0.369221	1.325581	-0.806690	99
Es	-1.760227	-0.287031	-0.361408	99
Es	1.746091	0.017649	1.572739	99
Es	-2.890704	-0.785381	-0.391048	99
Es	-0.179975	0.849054	-0.246828	99
Es	-0.579752	0.198221	-0.330785	99
Es	0.580162	0.740075	-0.254370	99
Es	-0.837571	-0.814616	-1.137940	99
Es	1.883480	-0.145868	2.555193	99
Es	1.554205	0.404203	-0.939375	99
Es	-0.863814	-0.714238	-2.136204	99
Es	-1.058932	-1.593349	-1.735813	99
Es	-0.824676	-0.923976	0.150882	99
Es	1.636699	-0.957925	0.728670	99
Es	1.255145	0.236285	2.204364	99
Es	1.665605	1.347734	-0.198184	99
Es	-0.351843	-1.184524	-1.707118	99
Es	1.861631	0.780284	2.216143	99
Es	2.660983	-0.302031	0.720380	99
Es	-2.702789	0.320206	-0.874362	99
Es	-0.993617	-0.446328	-0.403092	99
Es	1.595752	0.222766	2.147315	99
Es	1.904810	-0.261322	0.806310	99
Es	-0.377305	1.181062	0.389983	99
Es	-0.688835	-1.097798	-1.679192	99
Es	-2.663566	0.164335	0.331825	99
Es	1.344092	0.664178	-0.275284	99
Es	-2.492324	-0.149645	-0.325147	99
Es	1.612827	0.201652	0.273780	99
50
Properties=species:S:1:pos:R:3:Z:I:1 energy=-306.4928949722111 field_type=dipole dipole="0.000000 0.000000 0.000000" charge=0
C	-2.492307	-0.149647	-0.325150	6
C	-0.993617	-0.446307	-0.402950	6
N	-0.688357	-1.097917	-1.679231	7
C	-0.179997	0.849083	-0.246810	6
C	1.344113	0.664183	-0.275320	6
C	1.904853	-0.261397	0.806190	6
N	1.595284	0.222783	2.147400	7
H	-2.744427	0.309343	0.636740	1
H	-3.079867	-1.069747	-0.416560	1
H	-2.809637	0.535283	-1.118981	1
H	-0.745707	-1.139987	0.407510	1
H	-0.944327	-0.478407	-2.447360	1
H	-1.270987	-1.927767	-1.783380	1
H	-0.464967	1.341553	0.691330	1
H	-0.451167	1.550413	-1.047150	1
H	1.811633	1.652603	-0.178390	1
H	1.650573	0.282093	-1.256970	1
H	2.993643	-0.321067	0.694100	1
H	1.517893	-1.278297	0.686730	1
H	2.004323	1.147063	2.275790	1
H	2.043043	-0.383857	2.832470	1
Es	1.554094	0.404223	-0.939319	99
Es	-0.579741	0.198146	-0.330790	99
Es	-0.179976	0.849055	-0.246827	99
Es	1.254870	0.236282	2.204799	99
Es	1.861795	0.780190	2.216159	99
Es	1.636788	-0.958062	0.728647	99
Es	0.580234	0.740117	-0.254351	99
Es	-2.890592	-0.785432	-0.391116	99
Es	-0.863670	-0.713995	-2.136400	99
Es	-0.377295	1.181018	0.389941	99
Es	1.745862	0.017634	1.572635	99
Es	-0.352419	-1.184738	-1.707220	99
Es	2.660872	-0.301905	0.720393	99
Es	1.883760	-0.145789	2.554859	99
Es	1.904811	-0.261322	0.806310	99
Es	-0.836950	-0.814701	-1.137708	99
Es	-0.688937	-1.097775	-1.679205	99
Es	1.612807	0.201607	0.273792	99
Es	-2.702775	0.320278	-0.874400	99
Es	1.595852	0.222760	2.147298	99
Es	1.344092	0.664179	-0.275284	99
Es	-2.492324	-0.149645	-0.325147	99
Es	-1.059010	-1.593295	-1.735712	99
Es	-0.993616	-0.446328	-0.403088	99
Es	-0.824705	-0.924007	0.150908	99
Es	1.665636	1.347827	-0.198223	99
Es	-1.760279	-0.286941	-0.361384	99
Es	-0.369226	1.325633	-0.806678	99
Es	-2.663624	0.164246	0.331857	99
50
Properties=species:S:1:pos:R:3:Z:I:1 energy=-306.4928949722111 field_type=dipole dipole="0.000000 0.000000 0.000000" charge=0
C	-2.492307	-0.149647	-0.325150	6
C	-0.993617	-0.446307	-0.402950	6
N	-0.688357	-1.097917	-1.679231	7
C	-0.179997	0.849083	-0.246810	6
C	1.344113	0.664183	-0.275320	6
C	1.904853	-0.261397	0.806190	6
N	1.595284	0.222783	2.147400	7
H	-2.744427	0.309343	0.636740	1
H	-3.079867	-1.069747	-0.416560	1
H	-2.809637	0.535283	-1.118981	1
H	-0.745707	-1.139987	0.407510	1
H	-0.944327	-0.478407	-2.447360	1
H	-1.270987	-1.927767	-1.783380	1
H	-0.464967	1.341553	0.691330	1
H	-0.451167	1.550413	-1.047150	1
H	1.811633	1.652603	-0.178390	1
H	1.650573	0.282093	-1.256970	1
H	2.993643	-0.321067	0.694100	1
H	1.517893	-1.278297	0.686730	1
H	2.004323	1.147063	2.275790	1
H	2.043043	-0.383857	2.832470	1
Es	-2.492323	-0.149646	-0.325149	99
Es	-0.863744	-0.714150	-2.136276	99
Es	-0.179975	0.849054	-0.246828	99
Es	1.636782	-0.957988	0.728657	99
Es	1.883645	-0.145963	2.555024	99
Es	-0.369252	1.325724	-0.806711	99
Es	2.660840	-0.302005	0.720402	99
Es	1.554040	0.404235	-0.939271	99
Es	1.904811	-0.261323	0.806309	99
Es	1.344092	0.664178	-0.275284	99
Es	-1.058510	-1.593896	-1.735909	99
Es	-0.352261	-1.184012	-1.706935	99
Es	1.255178	0.236423	2.204653	99
Es	-2.890638	-0.785516	-0.391034	99
Es	1.665628	1.347847	-0.198297	99
Es	-0.837552	-0.814639	-1.137898	99
Es	1.861789	0.780179	2.216117	99
Es	1.612856	0.201621	0.273775	99
Es	-2.702800	0.320229	-0.874387	99
Es	-0.993617	-0.446328	-0.403089	99
Es	1.595875	0.222768	2.147328	99
Es	1.745678	0.017654	1.572666	99
Es	-0.688933	-1.097774	-1.679214	99
Es	-1.760279	-0.286927	-0.361418	99
Es	-0.377244	1.180938	0.389938	99
Es	-2.663547	0.164319	0.331797	99
Es	0.580200	0.740116	-0.254340	99
Es	-0.579718	0.198177	-0.330771	99
Es	-0.824688	-0.924040	0.150888	99
50
Properties=species:S:1:pos:R:3:Z:I:1 energy=-306.4928949722111 field_type=dipole dipole="0.000000 0.000000 0.000000" charge=0
C	-2.492307	-0.149647	-0.325150	6
C	-0.993617	-0.446307	-0.402950	6
N	-0.688357	-1.097917	-1.679231	7
C	-0.179997	0.849083	-0.246810	6
C	1.344113	0.664183	-0.275320	6
C	1.904853	-0.261397	0.806190	6
N	1.595284	0.222783	2.147400	7
H	-2.744427	0.309343	0.636740	1
H	-3.079867	-1.069747	-0.416560	1
H	-2.809637	0.535283	-1.118981	1
H	-0.745707	-1.139987	0.407510	1
H	-0.944327	-0.478407	-2.447360	1
H	-1.270987	-1.927767	-1.783380	1
H	-0.464967	1.341553	0.691330	1
H	-0.451167	1.550413	-1.047150	1
H	1.811633	1.652603	-0.178390	1
H	1.650573	0.282093	-1.256970	1
H	2.993643	-0.321067	0.694100	1
H	1.517893	-1.278297	0.686730	1
H	2.004323	1.147063	2.275790	1
H	2.043043	-0.383857	2.832470	1
Es	-1.760361	-0.286930	-0.361353	99
Es	1.595839	0.222765	2.147317	99
Es	-2.492324	-0.149645	-0.325147	99
Es	-0.369216	1.325740	-0.806689	99
Es	1.883813	-0.145848	2.554932	99
Es	-0.179976	0.849055	-0.246826	99
Es	-0.864064	-0.714055	-2.136199	99
Es	1.344092	0.664178	-0.275284	99
Es	1.636808	-0.958051	0.728700	99
Es	2.660790	-0.301966	0.720392	99
Es	-0.993617	-0.446329	-0.403091	99
Es	1.665654	1.347882	-0.198319	99
Es	1.904811	-0.261322	0.806310	99
Es	1.861498	0.780380	2.216210	99
Es	-1.058825	-1.593600	-1.735628	99
Es	-2.890635	-0.785566	-0.391024	99
Es	0.580240	0.740080	-0.254321	99
Es	-0.377157	1.180979	0.389914	99
Es	1.746277	0.017770	1.572848	99
Es	-0.688908	-1.097772	-1.679184	99
Es	-2.663520	0.164314	0.331779	99
Es	-0.824676	-0.924048	0.150915	99
Es	-0.836388	-0.814635	-1.137407	99
Es	-0.352830	-1.184409	-1.707803	99
Es	-2.702729	0.320293	-0.874458	99
Es	1.254799	0.235996	2.204458	99
Es	1.612833	0.201581	0.273750	99
Es	1.553933	0.404249	-0.939283	99
Es	-0.579827	0.198174	-0.330761	99
50
Properties=species:S:1:pos:R:3:Z:I:1 energy=-306.4928949722111 field_type=dipole dipole="0.000000 0.000000 0.000000" charge=0
C	-2.492307	-0.149647	-0.325150	6
C	-0.993617	-0.446307	-0.402950	6
N	-0.688357	-1.097917	-1.679231	7
C	-0.179997	0.849083	-0.246810	6
C	1.344113	0.664183	-0.275320	6
C	1.904853	-0.261397	0.806190	6
N	1.595284	0.222783	2.147400	7
H	-2.744427	0.309343	0.636740	1
H	-3.079867	-1.069747	-0.416560	1
H	-2.809637	0.535283	-1.118981	1
H	-0.745707	-1.139987	0.407510	1
H	-0.944327	-0.478407	-2.447360	1
H	-1.270987	-1.927767	-1.783380	1
H	-0.464967	1.341553	0.691330	1
H	-0.451167	1.550413	-1.047150	1
H	1.811633	1.652603	-0.178390	1
H	1.650573	0.282093	-1.256970	1
H	2.993643	-0.321067	0.694100	1
H	1.517893	-1.278297	0.686730	1
H	2.004323	1.147063	2.275790	1
H	2.043043	-0.383857	2.832470	1
Es	-1.760321	-0.286843	-0.361434	99
Es	-2.492325	-0.149646	-0.325148	99
Es	-0.179976	0.849055	-0.246827	99
Es	1.665687	1.347948	-0.198404	99
Es	-0.993616	-0.446330	-0.403091	99
Es	-2.663526	0.164193	0.331733	99
Es	2.660705	-0.301865	0.720411	99
Es	-0.824722	-0.924046	0.150884	99
Es	1.344090	0.664177	-0.275283	99
Es	-2.702830	0.320354	-0.874353	99
Es	-0.353165	-1.184351	-1.707444	99
Es	-0.579665	0.198172	-0.330811	99
Es	-0.836524	-0.814656	-1.137331	99
Es	0.580349	0.740066	-0.254321	99
Es	1.636891	-0.958148	0.728670	99
Es	-0.688926	-1.097771	-1.679201	99
Es	-0.369256	1.325703	-0.806678	99
Es	1.255547	0.236246	2.204880	99
Es	1.612893	0.201515	0.273755	99
Es	1.861525	0.780368	2.216145	99
Es	-0.863664	-0.713971	-2.136419	99
Es	-0.377281	1.180950	0.389872	99
Es	1.745378	0.017731	1.572504	99
Es	1.553893	0.404249	-0.939152	99
Es	-2.890657	-0.785527	-0.391049	99
Es	1.595855	0.222751	2.147311	99
Es	1.904811	-0.261322	0.806310	99
Es	1.883884	-0.146002	2.554944	99
Es	-1.058722	-1.593744	-1.735729	99
50
Properties=species:S:1:pos:R:3:Z:I:1 energy=-306.4928949722111 field_type=dipole dipole="0.000000 0.000000 0.000000" charge=0
C	-2.492307	-0.149647	-0.325150	6
C	-0.993617	-0.446307	-0.402950	6
N	-0.688357	-1.097917	-1.679231	7
C	-0.179997	0.849083	-0.246810	6
C	1.344113	0.664183	-0.275320	6
C	1.904853	-0.261397	0.806190	6
N	1.595284	0.222783	2.147400	7
H	-2.744427	0.309343	0.636740	1
H	-3.079867	-1.069747	-0.416560	1
H	-2.809637	0.535283	-1.118981	1
H	-0.745707	-1.139987	0.407510	1
H	-0.944327	-0.478407	-2.447360	1
H	-1.270987	-1.927767	-1.783380	1
H	-0.464967	1.341553	0.691330	1
H	-0.451167	1.550413	-1.047150	1
H	1.811633	1.652603	-0.178390	1
H	1.650573	0.282093	-1.256970	1
H	2.993643	-0.321067	0.694100	1
H	1.517893	-1.278297	0.686730	1
H	2.004323	1.147063	2.275790	1
H	2.043043	-0.383857	2.832470	1
Es	-0.352742	-1.184569	-1.707229	99
Es	1.256180	0.236385	2.204742	99
Es	-2.663515	0.164210	0.331705	99
Es	-2.492324	-0.149644	-0.325146	99
Es	-0.824707	-0.924047	0.150861	99
Es	-2.702819	0.320361	-0.874418	99
Es	1.861506	0.780508	2.216114	99
Es	1.883563	-0.146156	2.555199	99
Es	1.595861	0.222757	2.147308	99
Es	1.612843	0.201623	0.273735	99
Es	-1.059072	-1.593475	-1.735782	99
Es	1.554004	0.404258	-0.939207	99
Es	1.904811	-0.261323	0.806309	99
Es	-0.993618	-0.446328	-0.403089	99
Es	-0.179976	0.849055	-0.246827	99
Es	-0.836826	-0.814616	-1.137655	99
Es	1.665635	1.347915	-0.198310	99
Es	0.580290	0.740145	-0.254293	99
Es	-0.688883	-1.097801	-1.679245	99
Es	-2.890641	-0.785538	-0.390998	99
Es	-0.579738	0.198136	-0.330712	99
Es	1.636832	-0.958101	0.728709	99
Es	-0.863531	-0.714025	-2.136310	99
Es	-1.760253	-0.286949	-0.361318	99
Es	-0.369269	1.325777	-0.806681	99
Es	2.660753	-0.301944	0.720457	99
Es	1.745098	0.017563	1.572360	99
Es	1.344092	0.664178	-0.275285	99
Es	-0.377222	1.180903	0.389752	99
50
Properties=species:S:1:pos:R:3:Z:I:1 energy=-306.4928949722111 field_type=dipole dipole="0.000000 0.000000 0.000000" charge=0
C	-2.492307	-0.149647	-0.325150	6
C	-0.993617	-0.446307	-0.402950	6
N	-0.688357	-1.097917	-1.679231	7
C	-0.179997	0.849083	-0.246810	6
C	1.344113	0.664183	-0.275320	6
C	1.904853	-0.261397	0.806190	6
N	1.595284	0.222783	2.147400	7
H	-2.744427	0.309343	0.636740	1
H	-3.079867	-1.069747	-0.416560	1
H	-2.809637	0.535283	-1.118981	1
H	-0.745707	-1.139987	0.407510	1
H	-0.944327	-0.478407	-2.447360	1
H	-1.270987	-1.927767	-1.783380	1
H	-0.464967	1.341553	0.691330	1
H	-0.451167	1.550413	-1.047150	1
H	1.811633	1.652603	-0.178390	1
H	1.650573	0.282093	-1.256970	1
H	2.993643	-0.321067	0.694100	1
H	1.517893	-1.278297	0.686730	1
H	2.004323	1.147063	2.275790	1
H	2.043043	-0.383857	2.832470	1
Es	1.612849	0.201563	0.273742	99
Es	-0.369254	1.325817	-0.806681	99
Es	-1.058287	-1.594210	-1.735763	99
Es	1.665679	1.347929	-0.198399	99
Es	-2.492324	-0.149646	-0.325147	99
Es	-0.688893	-1.097774	-1.679185	99
Es	0.580264	0.740115	-0.254333	99
Es	1.745106	0.017587	1.572465	99
Es	-0.993616	-0.446328	-0.403092	99
Es	2.660724	-0.301955	0.720429	99
Es	-0.353419	-1.183790	-1.707720	99
Es	1.861844	0.780311	2.216074	99
Es	1.553944	0.404308	-0.939087	99
Es	1.636856	-0.958089	0.728727	99
Es	-1.760276	-0.286888	-0.361297	99
Es	-0.377219	1.180878	0.389762	99
Es	1.595904	0.222756	2.147314	99
Es	-0.836331	-0.814772	-1.137306	99
Es	-0.579807	0.198118	-0.330739	99
Es	-0.864078	-0.713923	-2.136245	99
Es	-2.702736	0.320339	-0.874426	99
Es	-0.179976	0.849055	-0.246828	99
Es	1.904810	-0.261323	0.806310	99
Es	-2.663586	0.164237	0.331717	99
Es	-2.890631	-0.785570	-0.391069	99
Es	1.344093	0.664178	-0.275284	99
Es	1.883818	-0.146054	2.554847	99
Es	-0.824703	-0.924057	0.150917	99
Es	1.255577	0.236444	2.205044	99
50
Properties=species:S:1:pos:R:3:Z:I:1 energy=-306.4928949722111 field_type=dipole dipole="0.000000 0.000000 0.000000" charge=0
C	-2.492307	-0.149647	-0.325150	6
C	-0.993617	-0.446307	-0.402950	6
N	-0.688357	-1.097917	-1.679231	7
C	-0.179997	0.849083	-0.246810	6
C	1.344113	0.664183	-0.275320	6
C	1.904853	-0.261397	0.806190	6
N	1.595284	0.222783	2.147400	7
H	-2.744427	0.309343	0.636740	1
H	-3.079867	-1.069747	-0.416560	1
H	-2.809637	0.535283	-1.118981	1
H	-0.745707	-1.139987	0.407510	1
H	-0.944327	-0.478407	-2.447360	1
H	-1.270987	-1.927767	-1.783380	1
H	-0.464967	1.341553	0.691330	1
H	-0.451167	1.550413	-1.047150	1
H	1.811633	1.652603	-0.178390	1
H	1.650573	0.282093	-1.256970	1
H	2.993643	-0.321067	0.694100	1
H	1.517893	-1.278297	0.686730	1
H	2.004323	1.147063	2.275790	1
H	2.043043	-0.383857	2.832470	1
Es	0.580151	0.740094	-0.254313	99
Es	1.256109	0.236185	2.205138	99
Es	1.344092	0.664178	-0.275284	99
Es	-0.688939	-1.097777	-1.679205	99
Es	-0.352865	-1.183902	-1.707804	99
Es	1.612844	0.201577	0.273712	99
Es	2.660753	-0.301909	0.720408	99
Es	-0.377162	1.180873	0.389787	99
Es	1.744860	0.017594	1.572301	99
Es	1.665665	1.347966	-0.198410	99
Es	-0.579723	0.198100	-0.330692	99
Es	1.636861	-0.958124	0.728781	99
Es	1.595841	0.222758	2.147311	99
Es	1.553964	0.404246	-0.939088	99
Es	-0.864290	-0.713931	-2.136027	99
Es	-0.836423	-0.814775	-1.137434	99
Es	-0.179976	0.849055	-0.246827	99
Es	-2.890631	-0.785608	-0.390904	99
Es	-0.993618	-0.446329	-0.403092	99
Es	-2.702758	0.320302	-0.874529	99
Es	-1.760307	-0.286879	-0.361414	99
Es	1.883988	-0.146000	2.554920	99
Es	-0.369272	1.325833	-0.806713	99
Es	-0.824790	-0.924159	0.150945	99
Es	-2.492324	-0.149645	-0.325148	99
Es	-2.663454	0.164330	0.331705	99
Es	1.861447	0.780563	2.216040	99
Es	1.904810	-0.261322	0.806310	99
Es	-1.058520	-1.594037	-1.735732	99
50
Properties=species:S:1:pos:R:3:Z:I:1 energy=-306.4928949722111 field_type=dipole dipole="0.000000 0.000000 0.000000" charge=0
C	-2.492307	-0.149647	-0.325150	6
C	-0.993617	-0.446307	-0.402950	6
N	-0.688357	-1.097917	-1.679231	7
C	-0.179997	0.849083	-0.246810	6
C	1.344113	0.664183	-0.275320	6
C	1.904853	-0.261397	0.806190	6
N	1.595284	0.222783	2.147400	7
H	-2.744427	0.309343	0.636740	1
H	-3.079867	-1.069747	-0.416560	1
H	-2.809637	0.535283	-1.118981	1
H	-0.745707	-1.139987	0.407510	1
H	-0.944327	-0.478407	-2.447360	1
H	-1.270987	-1.927767	-1.783380	1
H	-0.464967	1.341553	0.691330	1
H	-0.451167	1.550413	-1.047150	1
H	1.811633	1.652603	-0.178390	1
H	1.650573	0.282093	-1.256970	1
H	2.993643	-0.321067	0.694100	1
H	1.517893	-1.278297	0.686730	1
H	2.004323	1.147063	2.275790	1
H	2.043043	-0.383857	2.832470	1
Es	-0.993617	-0.446327	-0.403091	99
Es	-2.702786	0.320371	-0.874406	99
Es	-0.377290	1.180852	0.389698	99
Es	1.665665	1.347904	-0.198410	99
Es	-0.179976	0.849055	-0.246828	99
Es	-0.836276	-0.814630	-1.137348	99
Es	-0.824747	-0.924097	0.150892	99
Es	-0.688932	-1.097778	-1.679205	99
Es	-2.890675	-0.785620	-0.390985	99
Es	-1.760290	-0.286846	-0.361370	99
Es	1.595708	0.222763	2.147319	99
Es	0.580270	0.740199	-0.254220	99
Es	1.744480	0.017566	1.572186	99
Es	-1.058629	-1.594058	-1.735706	99
Es	-0.369204	1.325833	-0.806712	99
Es	1.636899	-0.958131	0.728774	99
Es	-2.663472	0.164233	0.331664	99
Es	1.904812	-0.261322	0.806310	99
Es	1.612770	0.201568	0.273782	99
Es	-2.492324	-0.149645	-0.325147	99
Es	-0.353264	-1.183996	-1.707724	99
Es	2.660741	-0.301893	0.720439	99
Es	1.256512	0.236216	2.205307	99
Es	1.344093	0.664178	-0.275284	99
Es	-0.863941	-0.713993	-2.136202	99
Es	1.884111	-0.146107	2.554879	99
Es	1.861438	0.780590	2.216002	99
Es	1.553956	0.404290	-0.939107	99
Es	-0.579696	0.198080	-0.330764	99
50
Properties=species:S:1:pos:R:3:Z:I:1 energy=-306.4928949722111 field_type=dipole dipole="0.000000 0.000000 0.000000" charge=0
C	-2.492307	-0.149647	-0.325150	6
C	-0.993617	-0.446307	-0.402950	6
N	-0.688357	-1.097917	-1.679231	7
C	-0.179997	0.849083	-0.246810	6
C	1.344113	0.664183	-0.275320	6
C	1.904853	-0.261397	0.806190	6
N	1.595284	0.222783	2.147400	7
H	-2.744427	0.309343	0.636740	1
H	-3.079867	-1.069747	-0.416560	1
H	-2.809637	0.535283	-1.118981	1
H	-0.745707	-1.139987	0.407510	1
H	-0.944327	-0.478407	-2.447360	1
H	-1.270987	-1.927767	-1.783380	1
H	-0.464967	1.341553	0.691330	1
H	-0.451167	1.550413	-1.047150	1
H	1.811633	1.652603	-0.178390	1
H	1.650573	0.282093	-1.256970	1
H	2.993643	-0.321067	0.694100	1
H	1.517893	-1.278297	0.686730	1
H	2.004323	1.147063	2.275790	1
H	2.043043	-0.383857	2.832470	1
Es	-2.663451	0.164217	0.331718	99
Es	1.665643	1.348006	-0.198444	99