46
Properties=species:S:1:pos:R:3:Z:I:1 energy=-272.09979828977674 field_type=dipole dipole="0.000000 0.000000 0.000000" charge=0
C	-2.013058	-1.023823	0.488204	6
C	-1.023848	-1.307433	-0.630446	6
C	0.319692	-0.711793	-0.338456	6
C	1.179042	-0.201453	-1.463816	6
C	0.552202	0.772557	-0.498556	6
C	1.404952	1.449907	0.480654	6
C	1.006782	1.890167	1.682574	6
H	-2.969528	-1.514853	0.285014	1
H	-2.195788	0.051477	0.584774	1
H	-1.636448	-1.386853	1.449914	1
H	-1.427938	-0.923423	-1.574466	1
H	-0.910798	-2.391333	-0.748066	1
H	0.819132	-1.227743	0.475554	1
H	0.786282	-0.226543	-2.474456	1
H	2.245692	-0.388373	-1.407886	1
H	-0.265018	1.378537	-0.879196	1
H	2.443792	1.612327	0.199734	1
H	-0.016998	1.762408	2.016874	1
H	1.701862	2.386237	2.352044	1
Es	0.950100	0.428297	-1.074186	99
Es	-1.023851	-1.307416	-0.630418	99
Es	-1.298194	-1.036873	-1.277962	99
Es	-2.013047	-1.023828	0.488191	99
Es	1.124557	1.962131	0.961184	99
Es	0.327709	0.083336	-0.257761	99
Es	1.404977	1.449868	0.480549	99
Es	0.311443	1.806833	1.915926	99
Es	0.319751	-0.711655	-0.338560	99
Es	1.472354	2.228194	2.141978	99
Es	0.664799	-1.052867	0.216900	99
Es	-0.002417	1.177197	-0.751779	99
Es	2.112211	1.553160	0.282831	99
Es	0.552263	0.772400	-0.498601	99
Es	1.282170	1.388393	1.226820	99
Es	-2.136035	-0.288363	0.551578	99
Es	1.006746	1.890205	1.682665	99
Es	-0.943891	-2.049636	-0.708584	99
Es	0.983217	1.108459	-0.011085	99
Es	-1.518651	-1.163737	-0.065081	99
Es	1.905833	-0.319460	-1.419579	99
Es	-0.350654	-0.993240	-0.493655	99
Es	1.178941	-0.201403	-1.463671	99
Es	0.784015	-0.633032	-0.970642	99
Es	0.905577	-0.221499	-2.148547	99
Es	-2.667095	-1.360333	0.348647	99
Es	-1.751970	-1.274110	1.143657	99
46
Properties=species:S:1:pos:R:3:Z:I:1 energy=-272.09979828977674 field_type=dipole dipole="0.000000 0.000000 0.000000" charge=0
C	-2.013058	-1.023823	0.488204	6
C	-1.023848	-1.307433	-0.630446	6
C	0.319692	-0.711793	-0.338456	6
C	1.179042	-0.201453	-1.463816	6
C	0.552202	0.772557	-0.498556	6
C	1.404952	1.449907	0.480654	6
C	1.006782	1.890167	1.682574	6
H	-2.969528	-1.514853	0.285014	1
H	-2.195788	0.051477	0.584774	1
H	-1.636448	-1.386853	1.449914	1
H	-1.427938	-0.923423	-1.574466	1
H	-0.910798	-2.391333	-0.748066	1
H	0.819132	-1.227743	0.475554	1
H	0.786282	-0.226543	-2.474456	1
H	2.245692	-0.388373	-1.407886	1
H	-0.265018	1.378537	-0.879196	1
H	2.443792	1.612327	0.199734	1
H	-0.016998	1.762408	2.016874	1
H	1.701862	2.386237	2.352044	1
Es	-0.350762	-0.993452	-0.493482	99
Es	1.903523	-0.319483	-1.419222	99
Es	0.786837	-0.635739	-0.973779	99
Es	0.982731	1.107940	-0.010316	99
Es	-2.137504	-0.287728	0.552488	99
Es	1.178943	-0.201410	-1.463677	99
Es	0.951571	0.428984	-1.075615	99
Es	-0.000964	1.176103	-0.750327	99
Es	0.325131	0.086011	-0.255573	99
Es	2.111167	1.553186	0.282528	99
Es	-0.942678	-2.050218	-0.709588	99
Es	1.123097	1.964123	0.960165	99
Es	-1.518707	-1.163958	-0.065392	99
Es	-2.013047	-1.023828	0.488190	99
Es	1.006748	1.890210	1.682671	99
Es	1.471088	2.228974	2.141114	99
Es	-1.753495	-1.274691	1.143339	99
Es	0.906510	-0.222355	-2.149432	99
Es	0.312202	1.806794	1.916488	99
Es	0.552263	0.772404	-0.498600	99
Es	-2.664756	-1.359070	0.350065	99
Es	-1.296606	-1.036399	-1.277491	99
Es	1.404978	1.449864	0.480551	99
Es	0.319758	-0.711657	-0.338569	99
Es	1.283820	1.386189	1.228280	99
Es	-1.023850	-1.307415	-0.630413	99
Es	0.662863	-1.052357	0.216415	99
46
Properties=species:S:1:pos:R:3:Z:I:1 energy=-272.09979828977674 field_type=dipole dipole="0.000000 0.000000 0.000000" charge=0
C	-2.013058	-1.023823	0.488204	6
C	-1.023848	-1.307433	-0.630446	6
C	0.319692	-0.711793	-0.338456	6
C	1.179042	-0.201453	-1.463816	6
C	0.552202	0.772557	-0.498556	6
C	1.404952	1.449907	0.480654	6
C	1.006782	1.890167	1.682574	6
H	-2.969528	-1.514853	0.285014	1
H	-2.195788	0.051477	0.584774	1
H	-1.636448	-1.386853	1.449914	1
H	-1.427938	-0.923423	-1.574466	1
H	-0.910798	-2.391333	-0.748066	1
H	0.819132	-1.227743	0.475554	1
H	0.786282	-0.226543	-2.474456	1
H	2.245692	-0.388373	-1.407886	1
H	-0.265018	1.378537	-0.879196	1
H	2.443792	1.612327	0.199734	1
H	-0.016998	1.762408	2.016874	1
H	1.701862	2.386237	2.352044	1
Es	0.952531	0.429356	-1.076906	99
Es	-2.662983	-1.358123	0.350894	99
Es	-1.754596	-1.275043	1.143137	99
Es	-1.295597	-1.036197	-1.277076	99
Es	-1.518686	-1.164127	-0.065419	99
Es	-0.941798	-2.050542	-0.710213	99
Es	1.122123	1.965134	0.959590	99
Es	-2.013048	-1.023828	0.488192	99
Es	1.006745	1.890205	1.682668	99
Es	2.110487	1.553320	0.282413	99
Es	0.788667	-0.637200	-0.975377	99
Es	-1.023851	-1.307411	-0.630416	99
Es	0.982492	1.108291	-0.009829	99
Es	0.319749	-0.711658	-0.338559	99
Es	0.661576	-1.052176	0.216119	99
Es	1.470518	2.229397	2.140661	99
Es	1.404975	1.449870	0.480546	99
Es	-2.138483	-0.287356	0.552996	99
Es	1.178947	-0.201411	-1.463682	99
Es	0.312672	1.806663	1.916810	99
Es	1.284677	1.385111	1.229049	99
Es	0.322910	0.087525	-0.253945	99
Es	0.907166	-0.222916	-2.150275	99
Es	1.901475	-0.319313	-1.418965	99
Es	0.000637	1.174510	-0.749253	99
Es	-0.350705	-0.993463	-0.493751	99
Es	0.552257	0.772404	-0.498592	99
46
Properties=species:S:1:pos:R:3:Z:I:1 energy=-272.09979828977674 field_type=dipole dipole="0.000000 0.000000 0.000000" charge=0
C	-2.013058	-1.023823	0.488204	6
C	-1.023848	-1.307433	-0.630446	6
C	0.319692	-0.711793	-0.338456	6
C	1.179042	-0.201453	-1.463816	6
C	0.552202	0.772557	-0.498556	6
C	1.404952	1.449907	0.480654	6
C	1.006782	1.890167	1.682574	6
H	-2.969528	-1.514853	0.285014	1
H	-2.195788	0.051477	0.584774	1
H	-1.636448	-1.386853	1.449914	1
H	-1.427938	-0.923423	-1.574466	1
H	-0.910798	-2.391333	-0.748066	1
H	0.819132	-1.227743	0.475554	1
H	0.786282	-0.226543	-2.474456	1
H	2.245692	-0.388373	-1.407886	1
H	-0.265018	1.378537	-0.879196	1
H	2.443792	1.612327	0.199734	1
H	-0.016998	1.762408	2.016874	1
H	1.701862	2.386237	2.352044	1
Es	0.319746	-0.711650	-0.338552	99
Es	1.178950	-0.201411	-1.463684	99
Es	1.006745	1.890209	1.682668	99
Es	-0.941214	-2.050766	-0.710711	99
Es	-1.755234	-1.275525	1.142760	99
Es	-1.518822	-1.164140	-0.065588	99
Es	-2.661756	-1.357238	0.351590	99
Es	1.285326	1.384509	1.229552	99
Es	0.321180	0.088595	-0.252622	99
Es	0.312945	1.806471	1.917076	99
Es	0.002082	1.173307	-0.748525	99
Es	0.552253	0.772409	-0.498589	99
Es	-1.294903	-1.035998	-1.276710	99
Es	0.908077	-0.223406	-2.151171	99
Es	1.404976	1.449863	0.480550	99
Es	1.121527	1.965724	0.959234	99
Es	-1.023850	-1.307415	-0.630415	99
Es	2.110058	1.553438	0.282243	99
Es	0.982234	1.108686	-0.009571	99
Es	1.470115	2.229653	2.140311	99
Es	0.953020	0.429661	-1.077636	99
Es	0.660711	-1.051843	0.215616	99
Es	1.899493	-0.319007	-1.418462	99
Es	-2.138957	-0.287112	0.553673	99
Es	-0.350746	-0.993628	-0.493779	99
Es	-2.013048	-1.023829	0.488191	99
Es	0.789952	-0.638535	-0.976635	99
46
Properties=species:S:1:pos:R:3:Z:I:1 energy=-272.09979828977674 field_type=dipole dipole="0.000000 0.000000 0.000000" charge=0
C	-2.013058	-1.023823	0.488204	6
C	-1.023848	-1.307433	-0.630446	6
C	0.319692	-0.711793	-0.338456	6
C	1.179042	-0.201453	-1.463816	6
C	0.552202	0.772557	-0.498556	6
C	1.404952	1.449907	0.480654	6
C	1.006782	1.890167	1.682574	6
H	-2.969528	-1.514853	0.285014	1
H	-2.195788	0.051477	0.584774	1
H	-1.636448	-1.386853	1.449914	1
H	-1.427938	-0.923423	-1.574466	1
H	-0.910798	-2.391333	-0.748066	1
H	0.819132	-1.227743	0.475554	1
H	0.786282	-0.226543	-2.474456	1
H	2.245692	-0.388373	-1.407886	1
H	-0.265018	1.378537	-0.879196	1
H	2.443792	1.612327	0.199734	1
H	-0.016998	1.762408	2.016874	1
H	1.701862	2.386237	2.352044	1
Es	-0.940941	-2.050900	-0.711305	99
Es	-2.139330	-0.287036	0.554073	99
Es	0.003437	1.171877	-0.747692	99
Es	0.981897	1.109107	-0.008996	99
Es	0.953284	0.430246	-1.078567	99
Es	0.552264	0.772401	-0.498599	99
Es	0.313058	1.806246	1.917402	99
Es	-1.518879	-1.164157	-0.065634	99
Es	1.897851	-0.318693	-1.417969	99
Es	1.121067	1.966012	0.959058	99
Es	2.109816	1.553564	0.282157	99
Es	0.319756	-0.711649	-0.338567	99
Es	1.469853	2.229864	2.139907	99
Es	1.285806	1.384278	1.229807	99
Es	-0.350707	-0.993778	-0.493679	99
Es	-2.660761	-1.356508	0.352008	99
Es	-2.013047	-1.023828	0.488191	99
Es	-1.294215	-1.035648	-1.276337	99
Es	1.178950	-0.201409	-1.463681	99
Es	0.790720	-0.639619	-0.977473	99
Es	1.404977	1.449865	0.480549	99
Es	0.660011	-1.051672	0.215258	99
Es	0.908956	-0.223806	-2.151937	99
Es	-1.023850	-1.307415	-0.630413	99
Es	0.319931	0.089332	-0.252045	99
Es	-1.755790	-1.275854	1.142626	99
Es	1.006746	1.890203	1.682672	99
46
Properties=species:S:1:pos:R:3:Z:I:1 energy=-272.09979828977674 field_type=dipole dipole="0.000000 0.000000 0.000000" charge=0
C	-2.013058	-1.023823	0.488204	6
C	-1.023848	-1.307433	-0.630446	6
C	0.319692	-0.711793	-0.338456	6
C	1.179042	-0.201453	-1.463816	6
C	0.552202	0.772557	-0.498556	6
C	1.404952	1.449907	0.480654	6
C	1.006782	1.890167	1.682574	6
H	-2.969528	-1.514853	0.285014	1
H	-2.195788	0.051477	0.584774	1
H	-1.636448	-1.386853	1.449914	1
H	-1.427938	-0.923423	-1.574466	1
H	-0.910798	-2.391333	-0.748066	1
H	0.819132	-1.227743	0.475554	1
H	0.786282	-0.226543	-2.474456	1
H	2.245692	-0.388373	-1.407886	1
H	-0.265018	1.378537	-0.879196	1
H	2.443792	1.612327	0.199734	1
H	-0.016998	1.762408	2.016874	1
H	1.701862	2.386237	2.352044	1
Es	0.981490	1.109803	-0.008907	99
Es	1.896400	-0.318475	-1.417539	99
Es	-2.659930	-1.356052	0.352459	99
Es	-1.756156	-1.275956	1.142422	99
Es	1.286078	1.383972	1.230085	99
Es	-0.940495	-2.050964	-0.711610	99
Es	0.791471	-0.640302	-0.978151	99
Es	1.178952	-0.201420	-1.463681	99
Es	0.313145	1.806182	1.917516	99
Es	-1.293807	-1.035613	-1.276079	99
Es	-1.518921	-1.164167	-0.065723	99
Es	0.319755	-0.711649	-0.338566	99
Es	1.469672	2.230017	2.139707	99
Es	0.318673	0.089745	-0.251137	99
Es	0.909772	-0.224072	-2.152596	99
Es	-0.350864	-0.993882	-0.493766	99
Es	1.006744	1.890208	1.682669	99
Es	-1.023849	-1.307414	-0.630414	99
Es	0.659488	-1.051410	0.214776	99
Es	-2.013047	-1.023828	0.488191	99
Es	0.953576	0.430586	-1.078927	99
Es	0.552262	0.772406	-0.498597	99
Es	0.004838	1.170633	-0.747318	99
Es	1.120738	1.966042	0.958944	99
Es	2.109639	1.553783	0.282107	99
Es	-2.139739	-0.287017	0.554400	99
Es	1.404977	1.449863	0.480550	99
46
Properties=species:S:1:pos:R:3:Z:I:1 energy=-272.09979828977674 field_type=dipole dipole="0.000000 0.000000 0.000000" charge=0
C	-2.013058	-1.023823	0.488204	6
C	-1.023848	-1.307433	-0.630446	6
C	0.319692	-0.711793	-0.338456	6
C	1.179042	-0.201453	-1.463816	6
C	0.552202	0.772557	-0.498556	6
C	1.404952	1.449907	0.480654	6
C	1.006782	1.890167	1.682574	6
H	-2.969528	-1.514853	0.285014	1
H	-2.195788	0.051477	0.584774	1
H	-1.636448	-1.386853	1.449914	1
H	-1.427938	-0.923423	-1.574466	1
H	-0.910798	-2.391333	-0.748066	1
H	0.819132	-1.227743	0.475554	1
H	0.786282	-0.226543	-2.474456	1
H	2.245692	-0.388373	-1.407886	1
H	-0.265018	1.378537	-0.879196	1
H	2.443792	1.612327	0.199734	1
H	-0.016998	1.762408	2.016874	1
H	1.701862	2.386237	2.352044	1
Es	-1.293412	-1.035435	-1.275817	99
Es	1.895118	-0.318149	-1.417152	99
Es	0.659017	-1.051253	0.214485	99
Es	1.286221	1.383844	1.230155	99
Es	1.178955	-0.201410	-1.463691	99
Es	0.910596	-0.224331	-2.153131	99
Es	-1.756706	-1.276280	1.142237	99
Es	-1.518944	-1.164351	-0.065795	99
Es	0.319753	-0.711650	-0.338565	99
Es	0.552262	0.772412	-0.498598	99
Es	-2.013048	-1.023829	0.488191	99
Es	0.313261	1.806094	1.917768	99
Es	-0.940317	-2.050999	-0.711993	99
Es	0.792105	-0.641001	-0.978709	99
Es	0.005866	1.169533	-0.746784	99
Es	0.317936	0.090219	-0.250722	99
Es	-2.139862	-0.286940	0.554787	99
Es	0.953562	0.430859	-1.079367	99
Es	-2.659192	-1.355385	0.352696	99
Es	1.404976	1.449865	0.480548	99
Es	1.006749	1.890212	1.682671	99
Es	-0.350938	-0.993953	-0.493759	99
Es	0.981196	1.110221	-0.008558	99
Es	1.120428	1.966242	0.958825	99
Es	1.469629	2.230027	2.139496	99
Es	2.109497	1.553875	0.282013	99
Es	-1.023850	-1.307414	-0.630413	99
46
Properties=species:S:1:pos:R:3:Z:I:1 energy=-272.09979828977674 field_type=dipole dipole="0.000000 0.000000 0.000000" charge=0
C	-2.013058	-1.023823	0.488204	6
C	-1.023848	-1.307433	-0.630446	6
C	0.319692	-0.711793	-0.338456	6
C	1.179042	-0.201453	-1.463816	6
C	0.552202	0.772557	-0.498556	6
C	1.404952	1.449907	0.480654	6
C	1.006782	1.890167	1.682574	6
H	-2.969528	-1.514853	0.285014	1
H	-2.195788	0.051477	0.584774	1
H	-1.636448	-1.386853	1.449914	1
H	-1.427938	-0.923423	-1.574466	1
H	-0.910798	-2.391333	-0.748066	1
H	0.819132	-1.227743	0.475554	1
H	0.786282	-0.226543	-2.474456	1
H	2.245692	-0.388373	-1.407886	1
H	-0.265018	1.378537	-0.879196	1
H	2.443792	1.612327	0.199734	1
H	-0.016998	1.762408	2.016874	1
H	1.701862	2.386237	2.352044	1
Es	0.006877	1.168364	-0.746415	99
Es	1.286446	1.383827	1.230271	99
Es	-1.756964	-1.276540	1.142062	99
Es	0.911444	-0.224601	-2.153590	99
Es	-1.519043	-1.164379	-0.065872	99
Es	1.404975	1.449870	0.480544	99
Es	-2.139992	-0.286895	0.555125	99
Es	0.792210	-0.641588	-0.978937	99
Es	1.894048	-0.317918	-1.416745	99
Es	-0.350954	-0.993959	-0.493640	99
Es	1.178950	-0.201414	-1.463686	99
Es	2.109425	1.553906	0.282010	99
Es	-0.940142	-2.051017	-0.712278	99
Es	1.006742	1.890205	1.682670	99
Es	-2.658652	-1.354966	0.352907	99
Es	0.658673	-1.051106	0.214126	99
Es	-2.013047	-1.023829	0.488191	99
Es	0.319751	-0.711648	-0.338566	99
Es	0.317383	0.090660	-0.250082	99
Es	1.120386	1.966361	0.958793	99
Es	0.953617	0.430994	-1.080028	99
Es	0.980819	1.110938	-0.008590	99
Es	-1.023850	-1.307415	-0.630413	99
Es	-1.293130	-1.035297	-1.275624	99
Es	0.552262	0.772410	-0.498598	99
Es	0.313213	1.805990	1.917795	99
Es	1.469415	2.230068	2.139388	99
46
Properties=species:S:1:pos:R:3:Z:I:1 energy=-272.09979828977674 field_type=dipole dipole="0.000000 0.000000 0.000000" charge=0
C	-2.013058	-1.023823	0.488204	6
C	-1.023848	-1.307433	-0.630446	6
C	0.319692	-0.711793	-0.338456	6
C	1.179042	-0.201453	-1.463816	6
C	0.552202	0.772557	-0.498556	6
C	1.404952	1.449907	0.480654	6
C	1.006782	1.890167	1.682574	6
H	-2.969528	-1.514853	0.285014	1
H	-2.195788	0.051477	0.584774	1
H	-1.636448	-1.386853	1.449914	1
H	-1.427938	-0.923423	-1.574466	1
H	-0.910798	-2.391333	-0.748066	1
H	0.819132	-1.227743	0.475554	1
H	0.786282	-0.226543	-2.474456	1
H	2.245692	-0.388373	-1.407886	1
H	-0.265018	1.378537	-0.879196	1
H	2.443792	1.612327	0.199734	1
H	-0.016998	1.762408	2.016874	1
H	1.701862	2.386237	2.352044	1
Es	-2.658060	-1.354603	0.353069	99
Es	0.007771	1.167460	-0.746136	99
Es	1.404976	1.449865	0.480549	99
Es	-2.140224	-0.286888	0.555345	99
Es	0.953630	0.431246	-1.080172	99
Es	-0.940063	-2.051013	-0.712492	99
Es	0.792831	-0.641870	-0.979271	99
Es	-0.351018	-0.994079	-0.493721	99
Es	0.980488	1.111446	-0.008328	99
Es	1.120167	1.966299	0.958729	99
Es	1.892846	-0.317621	-1.416440	99
Es	-1.757302	-1.276693	1.141957	99
Es	0.313170	1.805981	1.918025	99
Es	1.469383	2.230160	2.139081	99
Es	2.109433	1.553957	0.281935	99
Es	1.286568	1.383751	1.230384	99
Es	0.552257	0.772413	-0.498599	99
Es	-1.519014	-1.164394	-0.065905	99
Es	0.319756	-0.711648	-0.338567	99
Es	1.006745	1.890212	1.682668	99
Es	-1.292849	-1.035194	-1.275486	99
Es	0.912189	-0.224918	-2.154060	99
Es	0.658346	-1.051041	0.213894	99
Es	-2.013047	-1.023828	0.488191	99
Es	1.178951	-0.201415	-1.463685	99
Es	0.316782	0.090852	-0.249735	99
Es	-1.023850	-1.307415	-0.630415	99
46
Properties=species:S:1:pos:R:3:Z:I:1 energy=-272.09979828977674 field_type=dipole dipole="0.000000 0.000000 0.000000" charge=0
C	-2.013058	-1.023823	0.488204	6
C	-1.023848	-1.307433	-0.630446	6
C	0.319692	-0.711793	-0.338456	6
C	1.179042	-0.201453	-1.463816	6
C	0.552202	0.772557	-0.498556	6
C	1.404952	1.449907	0.480654	6
C	1.006782	1.890167	1.682574	6
H	-2.969528	-1.514853	0.285014	1
H	-2.195788	0.051477	0.584774	1
H	-1.636448	-1.386853	1.449914	1
H	-1.427938	-0.923423	-1.574466	1
H	-0.910798	-2.391333	-0.748066	1
H	0.819132	-1.227743	0.475554	1
H	0.786282	-0.226543	-2.474456	1
H	2.245692	-0.388373	-1.407886	1
H	-0.265018	1.378537	-0.879196	1
H	2.443792	1.612327	0.199734	1
H	-0.016998	1.762408	2.016874	1
H	1.701862	2.386237	2.352044	1
Es	-0.939954	-2.051087	-0.712687	99
Es	0.912926	-0.225055	-2.154372	99
Es	-1.292636	-1.035087	-1.275317	99
Es	1.469318	2.230246	2.138906	99
Es	-2.140262	-0.286839	0.555436	99
Es	1.119967	1.966256	0.958692	99
Es	1.891965	-0.317614	-1.416121	99
Es	1.006744	1.890209	1.682668	99
Es	0.316290	0.091177	-0.249736	99
Es	0.658184	-1.050932	0.213768	99
Es	1.404975	1.449864	0.480547	99
Es	0.792726	-0.642116	-0.979508	99
Es	0.313169	1.805973	1.918135	99
Es	0.319753	-0.711649	-0.338567	99
Es	0.552255	0.772396	-0.498607	99
Es	-2.013047	-1.023828	0.488191	99
Es	-1.023850	-1.307415	-0.630413	99
Es	1.178950	-0.201415	-1.463687	99
Es	-2.657725	-1.354307	0.353147	99
Es	0.008657	1.166574	-0.745780	99
Es	-1.757602	-1.276776	1.141899	99
Es	0.980231	1.111804	-0.007955	99
Es	1.286683	1.383699	1.230452	99
Es	-1.518931	-1.164473	-0.065838	99
Es	2.109419	1.554063	0.281887	99
Es	0.953781	0.431435	-1.080694	99
Es	-0.351127	-0.994082	-0.493631	99
46
Properties=species:S:1:pos:R:3:Z:I:1 energy=-272.09979828977674 field_type=dipole dipole="0.000000 0.000000 0.000000" charge=0
C	-2.013058	-1.023823	0.488204	6
C	-1.023848	-1.307433	-0.630446	6
C	0.319692	-0.711793	-0.338456	6
C	1.179042	-0.201453	-1.463816	6
C	0.552202	0.772557	-0.498556	6
C	1.404952	1.449907	0.480654	6
C	1.006782	1.890167	1.682574	6
H	-2.969528	-1.514853	0.285014	1
H	-2.195788	0.051477	0.584774	1
H	-1.636448	-1.386853	1.449914	1
H	-1.427938	-0.923423	-1.574466	1
H	-0.910798	-2.391333	-0.748066	1
H	0.819132	-1.227743	0.475554	1
H	0.786282	-0.226543	-2.474456	1
H	2.245692	-0.388373	-1.407886	1
H	-0.265018	1.378537	-0.879196	1
H	2.443792	1.612327	0.199734	1
H	-0.016998	1.762408	2.016874	1
H	1.701862	2.386237	2.352044	1
Es	-1.757772	-1.276994	1.141758	99
Es	0.979898	1.112290	-0.008064	99
Es	0.319758	-0.711648	-0.338570	99
Es	-1.519120	-1.164437	-0.066009	99
Es	0.009248	1.165900	-0.745557	99
Es	1.119943	1.966282	0.958700	99
Es	0.313160	1.805958	1.918253	99
Es	0.913499	-0.225254	-2.154701	99
Es	0.315778	0.091291	-0.249167	99
Es	0.658013	-1.050798	0.213430	99
Es	-0.939940	-2.051065	-0.712925	99
Es	-2.140410	-0.286844	0.555730	99
Es	0.953514	0.431504	-1.080689	99
Es	-1.023851	-1.307412	-0.630415	99
Es	-2.657271	-1.354010	0.353293	99
Es	-1.292364	-1.035006	-1.275145	99
Es	1.286667	1.383678	1.230444	99
Es	1.891239	-0.317266	-1.415895	99
Es	-0.350992	-0.994301	-0.493597	99
Es	1.006745	1.890208	1.682668	99
Es	1.469348	2.230174	2.138827	99
Es	1.404975	1.449868	0.480547	99
Es	-2.013044	-1.023831	0.488195	99
Es	0.552264	0.772405	-0.498601	99
Es	1.178952	-0.201417	-1.463689	99
Es	2.109392	1.554098	0.281837	99
Es	0.793232	-0.642351	-0.979841	99
46
Properties=species:S:1:pos:R:3:Z:I:1 energy=-272.09979828977674 field_type=dipole dipole="0.000000 0.000000 0.000000" charge=0
C	-2.013058	-1.023823	0.488204	6
C	-1.023848	-1.307433	-0.630446	6
C	0.319692	-0.711793	-0.338456	6
C	1.179042	-0.201453	-1.463816	6
C	0.552202	0.772557	-0.498556	6
C	1.404952	1.449907	0.480654	6
C	1.006782	1.890167	1.682574	6
H	-2.969528	-1.514853	0.285014	1
H	-2.195788	0.051477	0.584774	1
H	-1.636448	-1.386853	1.449914	1
H	-1.427938	-0.923423	-1.574466	1
H	-0.910798	-2.391333	-0.748066	1
H	0.819132	-1.227743	0.475554	1
H	0.786282	-0.226543	-2.474456	1
H	2.245692	-0.388373	-1.407886	1
H	-0.265018	1.378537	-0.879196	1
H	2.443792	1.612327	0.199734	1
H	-0.016998	1.762408	2.016874	1
H	1.701862	2.386237	2.352044	1
Es	1.890325	-0.317248	-1.415620	99
Es	-1.292231	-1.034943	-1.275001	99
Es	2.109417	1.554102	0.281786	99
Es	-1.023850	-1.307415	-0.630413	99
Es	-0.939775	-2.051102	-0.713091	99
Es	1.006747	1.890200	1.682672	99
Es	0.979623	1.112745	-0.008019	99
Es	0.009846	1.165222	-0.745326	99
Es	-1.519080	-1.164467	-0.065953	99
Es	0.953656	0.431617	-1.081016	99
Es	-2.013046	-1.023827	0.488191	99
Es	-0.351187	-0.994257	-0.493654	99
Es	0.319751	-0.711648	-0.338564	99
Es	0.793315	-0.642490	-0.979922	99
Es	0.315573	0.091521	-0.248923	99
Es	0.657768	-1.050727	0.213280	99
Es	-2.657112	-1.353803	0.353386	99
Es	0.552253	0.772415	-0.498602	99
Es	1.178950	-0.201418	-1.463686	99
Es	1.469311	2.230129	2.138615	99
Es	1.286710	1.383629	1.230504	99
Es	0.313116	1.806016	1.918426	99
Es	1.119897	1.966299	0.958671	99
Es	0.914202	-0.225498	-2.155000	99
Es	-1.757914	-1.277023	1.141723	99
Es	-2.140381	-0.286873	0.555804	99
Es	1.404976	1.449866	0.480548	99
