40
Properties=species:S:1:pos:R:3:Z:I:1 energy=-269.7394535694882 field_type=dipole dipole="0.000000 0.000000 0.000000" charge=0
C	-2.654627	-0.000265	0.860210	6
C	-1.464467	-0.000265	0.860210	6
C	-0.020468	-0.000265	0.860210	6
C	0.537193	-1.219855	0.098810	6
C	0.859323	-0.668085	-1.254880	6
C	0.860173	0.668975	-1.254830	6
C	0.537343	1.219045	0.101020	6
H	-3.720307	-0.000265	0.856070	1
H	0.338003	-0.000955	1.896310	1
H	-0.177697	-2.046415	0.034760	1
H	1.457093	-1.587995	0.565570	1
H	1.082552	-1.285025	-2.114790	1
H	1.083903	1.287215	-2.113280	1
H	1.458573	1.586975	0.567630	1
H	-0.176587	2.047185	0.036980	1
Es	0.696158	0.975451	-0.591756	99
Es	-0.771516	-0.000286	0.855746	99
Es	0.054495	1.777853	0.060922	99
Es	0.537342	1.218990	0.101014	99
Es	0.859319	-0.668217	-1.254856	99
Es	-2.075142	-0.317768	1.031970	99
Es	0.543994	0.000616	-1.355100	99
Es	1.165587	1.461359	0.417116	99
Es	1.164638	-1.462281	0.414952	99
Es	-3.351903	-0.000356	0.858000	99
Es	0.695840	-0.975224	-0.592856	99
Es	1.174907	0.000275	-1.194703	99
Es	1.012315	1.099358	-1.830766	99
Es	0.234432	-0.614767	0.498686	99
Es	0.860171	0.669108	-1.254805	99
Es	0.204143	-0.000753	1.560922	99
Es	-2.654893	-0.000265	0.860209	99
Es	-0.020566	-0.000265	0.860172	99
Es	1.011151	-1.097760	-1.831715	99
Es	-1.464205	-0.000267	0.860210	99
Es	-2.070962	0.009335	0.501030	99
Es	-2.075008	0.307756	1.048733	99
Es	0.537191	-1.219800	0.098803	99
Es	0.234698	0.614126	0.499827	99
Es	0.053889	-1.777903	0.058339	99
40
Properties=species:S:1:pos:R:3:Z:I:1 energy=-269.7394535694882 field_type=dipole dipole="0.000000 0.000000 0.000000" charge=0
C	-2.654627	-0.000265	0.860210	6
C	-1.464467	-0.000265	0.860210	6
C	-0.020468	-0.000265	0.860210	6
C	0.537193	-1.219855	0.098810	6
C	0.859323	-0.668085	-1.254880	6
C	0.860173	0.668975	-1.254830	6
C	0.537343	1.219045	0.101020	6
H	-3.720307	-0.000265	0.856070	1
H	0.338003	-0.000955	1.896310	1
H	-0.177697	-2.046415	0.034760	1
H	1.457093	-1.587995	0.565570	1
H	1.082552	-1.285025	-2.114790	1
H	1.083903	1.287215	-2.113280	1
H	1.458573	1.586975	0.567630	1
H	-0.176587	2.047185	0.036980	1
Es	0.203802	-0.000786	1.557199	99
Es	-3.353240	-0.000248	0.857190	99
Es	1.168002	1.460973	0.416755	99
Es	-2.071495	0.010616	0.515678	99
Es	1.012712	1.099597	-1.828549	99
Es	0.537343	1.218989	0.101014	99
Es	-1.464204	-0.000274	0.860223	99
Es	1.011388	-1.098028	-1.829484	99
Es	0.694562	0.975782	-0.590456	99
Es	0.052982	1.778508	0.059274	99
Es	-2.074669	0.312808	1.042246	99
Es	1.180689	0.000277	-1.191859	99
Es	-2.654891	-0.000265	0.860203	99
Es	-2.074703	-0.324240	1.024568	99
Es	0.860173	0.669095	-1.254801	99
Es	0.537191	-1.219799	0.098804	99
Es	0.052350	-1.778419	0.056869	99
Es	0.538721	0.000633	-1.357777	99
Es	0.859328	-0.668214	-1.254851	99
Es	0.236482	0.613730	0.499536	99
Es	0.236330	-0.614298	0.498448	99
Es	0.694169	-0.975590	-0.591719	99
Es	1.167022	-1.462038	0.414485	99
Es	-0.020568	-0.000266	0.860170	99
Es	-0.773400	-0.000226	0.856928	99
40
Properties=species:S:1:pos:R:3:Z:I:1 energy=-269.7394535694882 field_type=dipole dipole="0.000000 0.000000 0.000000" charge=0
C	-2.654627	-0.000265	0.860210	6
C	-1.464467	-0.000265	0.860210	6
C	-0.020468	-0.000265	0.860210	6
C	0.537193	-1.219855	0.098810	6
C	0.859323	-0.668085	-1.254880	6
C	0.860173	0.668975	-1.254830	6
C	0.537343	1.219045	0.101020	6
H	-3.720307	-0.000265	0.856070	1
H	0.338003	-0.000955	1.896310	1
H	-0.177697	-2.046415	0.034760	1
H	1.457093	-1.587995	0.565570	1
H	1.082552	-1.285025	-2.114790	1
H	1.083903	1.287215	-2.113280	1
H	1.458573	1.586975	0.567630	1
H	-0.176587	2.047185	0.036980	1
Es	0.860170	0.669101	-1.254804	99
Es	-0.020568	-0.000263	0.860167	99
Es	-0.774498	-0.000383	0.857213	99
Es	0.693381	0.976188	-0.589473	99
Es	0.237677	0.613390	0.499405	99
Es	0.692704	-0.976020	-0.590567	99
Es	-2.074374	-0.315474	1.040025	99
Es	1.013039	1.099606	-1.827049	99
Es	0.537343	1.218991	0.101012	99
Es	0.203203	-0.000691	1.554614	99
Es	1.184040	0.000259	-1.190067	99
Es	0.859327	-0.668209	-1.254857	99
Es	1.011732	-1.097990	-1.827917	99
Es	0.535254	0.000609	-1.359614	99
Es	-2.654905	-0.000261	0.860209	99
Es	1.168784	-1.461750	0.413720	99
Es	0.537192	-1.219801	0.098803	99
Es	-2.071966	-0.013172	0.525239	99
Es	1.169701	1.460665	0.416111	99
Es	0.237609	-0.613913	0.498561	99
Es	0.051524	-1.778658	0.055910	99
Es	-2.074439	0.327955	1.017687	99
Es	-1.464200	-0.000265	0.860211	99
Es	0.052165	1.778724	0.058426	99
Es	-3.353820	-0.000324	0.857128	99
40
Properties=species:S:1:pos:R:3:Z:I:1 energy=-269.7394535694882 field_type=dipole dipole="0.000000 0.000000 0.000000" charge=0
C	-2.654627	-0.000265	0.860210	6
C	-1.464467	-0.000265	0.860210	6
C	-0.020468	-0.000265	0.860210	6
C	0.537193	-1.219855	0.098810	6
C	0.859323	-0.668085	-1.254880	6
C	0.860173	0.668975	-1.254830	6
C	0.537343	1.219045	0.101020	6
H	-3.720307	-0.000265	0.856070	1
H	0.338003	-0.000955	1.896310	1
H	-0.177697	-2.046415	0.034760	1
H	1.457093	-1.587995	0.565570	1
H	1.082552	-1.285025	-2.114790	1
H	1.083903	1.287215	-2.113280	1
H	1.458573	1.586975	0.567630	1
H	-0.176587	2.047185	0.036980	1
Es	-2.073753	-0.105936	1.174166	99
Es	0.238741	0.613146	0.499662	99
Es	0.051588	1.778974	0.057627	99
Es	-2.073016	-0.252276	0.613580	99
Es	-2.654907	-0.000278	0.860232	99
Es	0.238644	-0.613709	0.498604	99
Es	0.859337	-0.668220	-1.254851	99
Es	-2.073981	0.358760	0.792919	99
Es	0.691690	-0.976411	-0.589820	99
Es	0.050867	-1.778702	0.055478	99
Es	0.537193	-1.219800	0.098803	99
Es	0.533115	0.000562	-1.360900	99
Es	0.537343	1.218991	0.101012	99
Es	1.013102	1.099807	-1.826183	99
Es	0.860168	0.669107	-1.254805	99
Es	0.202422	-0.000819	1.552616	99
Es	1.170906	1.460377	0.415208	99
Es	1.012175	-1.097800	-1.826734	99
Es	-1.464202	-0.000265	0.860216	99
Es	1.186283	0.000271	-1.188463	99
Es	-0.775085	-0.000917	0.858283	99
Es	-3.354179	-0.001088	0.858663	99
Es	1.169923	-1.461515	0.413214	99
Es	0.692269	0.976326	-0.588606	99
Es	-0.020567	-0.000265	0.860171	99
40
Properties=species:S:1:pos:R:3:Z:I:1 energy=-269.7394535694882 field_type=dipole dipole="0.000000 0.000000 0.000000" charge=0
C	-2.654627	-0.000265	0.860210	6
C	-1.464467	-0.000265	0.860210	6
C	-0.020468	-0.000265	0.860210	6
C	0.537193	-1.219855	0.098810	6
C	0.859323	-0.668085	-1.254880	6
C	0.860173	0.668975	-1.254830	6
C	0.537343	1.219045	0.101020	6
H	-3.720307	-0.000265	0.856070	1
H	0.338003	-0.000955	1.896310	1
H	-0.177697	-2.046415	0.034760	1
H	1.457093	-1.587995	0.565570	1
H	1.082552	-1.285025	-2.114790	1
H	1.083903	1.287215	-2.113280	1
H	1.458573	1.586975	0.567630	1
H	-0.176587	2.047185	0.036980	1
Es	0.691373	0.976671	-0.588245	99
Es	-0.020568	-0.000264	0.860169	99
Es	-2.654905	-0.000267	0.860207	99
Es	0.860171	0.669104	-1.254804	99
Es	-2.074088	0.334870	1.004804	99
Es	1.012061	-1.097962	-1.826224	99
Es	-0.775726	-0.000300	0.857569	99
Es	0.537343	1.218991	0.101012	99
Es	0.690773	-0.976375	-0.589384	99
Es	1.171845	1.460222	0.414999	99
Es	0.051173	1.778762	0.057544	99
Es	-2.072553	-0.020383	0.537167	99
Es	0.531604	0.000661	-1.361966	99
Es	0.239338	0.613117	0.499686	99
Es	-3.354393	-0.000466	0.857705	99
Es	1.013392	1.099269	-1.825073	99
Es	1.170944	-1.461282	0.412619	99
Es	-2.074022	-0.314986	1.040800	99
Es	0.537194	-1.219799	0.098805	99
Es	-1.464196	-0.000257	0.860209	99
Es	0.050536	-1.778713	0.054995	99
Es	1.188050	0.000246	-1.187533	99
Es	0.239194	-0.613614	0.498583	99
Es	0.859320	-0.668210	-1.254855	99
Es	0.202216	-0.000716	1.551306	99
40
Properties=species:S:1:pos:R:3:Z:I:1 energy=-269.7394535694882 field_type=dipole dipole="0.000000 0.000000 0.000000" charge=0
C	-2.654627	-0.000265	0.860210	6
C	-1.464467	-0.000265	0.860210	6
C	-0.020468	-0.000265	0.860210	6
C	0.537193	-1.219855	0.098810	6
C	0.859323	-0.668085	-1.254880	6
C	0.860173	0.668975	-1.254830	6
C	0.537343	1.219045	0.101020	6
H	-3.720307	-0.000265	0.856070	1
H	0.338003	-0.000955	1.896310	1
H	-0.177697	-2.046415	0.034760	1
H	1.457093	-1.587995	0.565570	1
H	1.082552	-1.285025	-2.114790	1
H	1.083903	1.287215	-2.113280	1
H	1.458573	1.586975	0.567630	1
H	-0.176587	2.047185	0.036980	1
Es	1.012148	-1.097933	-1.825792	99
Es	-2.073254	0.290369	0.653686	99
Es	-2.073869	0.055799	1.174169	99
Es	0.690662	0.977089	-0.587800	99
Es	-3.354521	0.000236	0.859519	99
Es	0.201682	-0.000684	1.550058	99
Es	0.050889	1.778643	0.057437	99
Es	0.239898	-0.613542	0.498656	99
Es	1.172483	1.460147	0.414632	99
Es	0.537192	-1.219798	0.098802	99
Es	-2.654899	-0.000283	0.860216	99
Es	-0.020568	-0.000265	0.860171	99
Es	-2.073600	-0.347833	0.752225	99
Es	0.860172	0.669105	-1.254805	99
Es	0.530506	0.000706	-1.362683	99
Es	0.050201	-1.778831	0.054616	99
Es	0.859309	-0.668205	-1.254859	99
Es	1.171677	-1.461024	0.411936	99
Es	-0.775957	0.000296	0.858653	99
Es	0.239846	0.613021	0.499952	99
Es	0.537343	1.218991	0.101013	99
Es	1.013512	1.098921	-1.824375	99
Es	1.189238	0.000234	-1.186794	99
Es	0.690180	-0.976579	-0.588755	99
Es	-1.464195	-0.000264	0.860216	99
40
Properties=species:S:1:pos:R:3:Z:I:1 energy=-269.7394535694882 field_type=dipole dipole="0.000000 0.000000 0.000000" charge=0
C	-2.654627	-0.000265	0.860210	6
C	-1.464467	-0.000265	0.860210	6
C	-0.020468	-0.000265	0.860210	6
C	0.537193	-1.219855	0.098810	6
C	0.859323	-0.668085	-1.254880	6
C	0.860173	0.668975	-1.254830	6
C	0.537343	1.219045	0.101020	6
H	-3.720307	-0.000265	0.856070	1
H	0.338003	-0.000955	1.896310	1
H	-0.177697	-2.046415	0.034760	1
H	1.457093	-1.587995	0.565570	1
H	1.082552	-1.285025	-2.114790	1
H	1.083903	1.287215	-2.113280	1
H	1.458573	1.586975	0.567630	1
H	-0.176587	2.047185	0.036980	1
Es	1.173472	1.459667	0.413306	99
Es	0.050667	1.779047	0.056627	99
Es	-2.654907	-0.000268	0.860211	99
Es	0.689654	-0.977127	-0.588047	99
Es	-0.020568	-0.000265	0.860170	99
Es	1.172317	-1.460894	0.411533	99
Es	0.689630	0.977092	-0.586709	99
Es	0.537194	-1.219798	0.098807	99
Es	1.012358	-1.097432	-1.824677	99
Es	0.860168	0.669100	-1.254804	99
Es	-2.073663	0.365537	0.831483	99
Es	0.859320	-0.668209	-1.254850	99
Es	-2.073007	-0.218604	0.592087	99
Es	-2.073972	-0.145966	1.157375	99
Es	0.537343	1.218990	0.101013	99
Es	0.240666	0.613040	0.500035	99
Es	-0.776232	-0.001173	0.858736	99
Es	0.200611	-0.000768	1.547988	99
Es	0.240649	-0.613790	0.499123	99
Es	-3.354645	-0.001255	0.859205	99
Es	1.013556	1.099549	-1.824164	99
Es	0.529239	0.000540	-1.363447	99
Es	1.190576	0.000305	-1.185686	99
Es	0.049848	-1.778735	0.054583	99
Es	-1.464199	-0.000263	0.860195	99
40
Properties=species:S:1:pos:R:3:Z:I:1 energy=-269.7394535694882 field_type=dipole dipole="0.000000 0.000000 0.000000" charge=0
C	-2.654627	-0.000265	0.860210	6
C	-1.464467	-0.000265	0.860210	6
C	-0.020468	-0.000265	0.860210	6
C	0.537193	-1.219855	0.098810	6
C	0.859323	-0.668085	-1.254880	6
C	0.860173	0.668975	-1.254830	6
C	0.537343	1.219045	0.101020	6
H	-3.720307	-0.000265	0.856070	1
H	0.338003	-0.000955	1.896310	1
H	-0.177697	-2.046415	0.034760	1
H	1.457093	-1.587995	0.565570	1
H	1.082552	-1.285025	-2.114790	1
H	1.083903	1.287215	-2.113280	1
H	1.458573	1.586975	0.567630	1
H	-0.176587	2.047185	0.036980	1
Es	-3.354770	-0.000303	0.858654	99
Es	1.172760	-1.460848	0.411443	99
Es	0.537192	-1.219799	0.098804	99
Es	0.860169	0.669102	-1.254805	99
Es	0.688778	-0.976882	-0.588471	99
Es	0.050437	1.778597	0.057140	99
Es	1.191165	0.000263	-1.185117	99
Es	0.240586	-0.613437	0.498807	99
Es	1.013868	1.098881	-1.823365	99
Es	0.201248	-0.000781	1.548505	99
Es	-0.020568	-0.000266	0.860171	99
Es	-2.073820	0.330318	1.012841	99
Es	0.240696	0.612942	0.499919	99
Es	-0.776548	-0.000270	0.857510	99
Es	1.012694	-1.097408	-1.824450	99
Es	0.859321	-0.668211	-1.254860	99
Es	-2.654908	-0.000268	0.860213	99
Es	-1.464194	-0.000266	0.860208	99
Es	0.528685	0.000662	-1.364623	99
Es	1.173635	1.459773	0.413826	99
Es	0.049707	-1.778519	0.054549	99
Es	-2.073836	-0.323824	1.025164	99
Es	0.689375	0.977110	-0.587437	99
Es	-2.072938	-0.007237	0.544456	99
Es	0.537341	1.218988	0.101013	99
40
Properties=species:S:1:pos:R:3:Z:I:1 energy=-269.7394535694882 field_type=dipole dipole="0.000000 0.000000 0.000000" charge=0
C	-2.654627	-0.000265	0.860210	6
C	-1.464467	-0.000265	0.860210	6
C	-0.020468	-0.000265	0.860210	6
C	0.537193	-1.219855	0.098810	6
C	0.859323	-0.668085	-1.254880	6
C	0.860173	0.668975	-1.254830	6
C	0.537343	1.219045	0.101020	6
H	-3.720307	-0.000265	0.856070	1
H	0.338003	-0.000955	1.896310	1
H	-0.177697	-2.046415	0.034760	1
H	1.457093	-1.587995	0.565570	1
H	1.082552	-1.285025	-2.114790	1
H	1.083903	1.287215	-2.113280	1
H	1.458573	1.586975	0.567630	1
H	-0.176587	2.047185	0.036980	1
Es	0.688428	-0.976940	-0.588297	99
Es	0.688954	0.977025	-0.587249	99
Es	-0.776727	-0.000158	0.857454	99
Es	0.527806	0.000612	-1.365318	99
Es	0.859316	-0.668202	-1.254859	99
Es	1.174087	1.459611	0.413381	99
Es	-2.654904	-0.000265	0.860222	99
Es	0.240895	-0.613539	0.499072	99
Es	-2.073783	0.322952	1.025655	99
Es	-3.354830	-0.000197	0.858974	99
Es	0.049558	-1.778436	0.054597	99
Es	0.201040	-0.000712	1.547934	99
Es	-1.464194	-0.000267	0.860210	99
Es	1.173142	-1.460755	0.411159	99
Es	-2.073040	0.008030	0.546218	99
Es	1.191883	0.000285	-1.184786	99
Es	0.537343	1.218990	0.101013	99
Es	0.050312	1.778615	0.056928	99
Es	-0.020568	-0.000265	0.860171	99
Es	0.240952	0.612877	0.500028	99
Es	1.012832	-1.097159	-1.823846	99
Es	1.013980	1.098845	-1.822957	99
Es	0.537193	-1.219799	0.098804	99
Es	-2.073771	-0.331928	1.010391	99
Es	0.860169	0.669099	-1.254806	99
40
Properties=species:S:1:pos:R:3:Z:I:1 energy=-269.7394535694882 field_type=dipole dipole="0.000000 0.000000 0.000000" charge=0
C	-2.654627	-0.000265	0.860210	6
C	-1.464467	-0.000265	0.860210	6
C	-0.020468	-0.000265	0.860210	6
C	0.537193	-1.219855	0.098810	6
C	0.859323	-0.668085	-1.254880	6
C	0.860173	0.668975	-1.254830	6
C	0.537343	1.219045	0.101020	6
H	-3.720307	-0.000265	0.856070	1
H	0.338003	-0.000955	1.896310	1
H	-0.177697	-2.046415	0.034760	1
H	1.457093	-1.587995	0.565570	1
H	1.082552	-1.285025	-2.114790	1
H	1.083903	1.287215	-2.113280	1
H	1.458573	1.586975	0.567630	1
H	-0.176587	2.047185	0.036980	1
Es	0.688551	0.977301	-0.586687	99
Es	1.173662	-1.460635	0.410646	99
Es	1.012777	-1.097027	-1.823732	99
Es	-0.776860	-0.000222	0.857444	99
Es	0.241270	-0.613510	0.499049	99
Es	1.174543	1.459489	0.413033	99
Es	0.859321	-0.668206	-1.254855	99
Es	0.537192	-1.219800	0.098803	99
Es	0.200739	-0.000736	1.547160	99
Es	-2.073019	-0.005719	0.545719	99
Es	-2.073772	0.329325	1.013525	99
Es	-0.020568	-0.000265	0.860170	99
Es	0.527356	0.000643	-1.365537	99
Es	0.050137	1.778542	0.056868	99
Es	-2.654910	-0.000254	0.860215	99
Es	-2.073787	-0.324355	1.023066	99
Es	0.241206	0.612928	0.500181	99
Es	0.537343	1.218990	0.101013	99
Es	0.049402	-1.778379	0.054412	99
Es	-1.464193	-0.000263	0.860203	99
Es	1.192463	0.000235	-1.184323	99
Es	0.860167	0.669100	-1.254808	99
Es	0.687925	-0.977204	-0.587984	99
Es	1.014022	1.098666	-1.822674	99
Es	-3.354893	-0.000326	0.859185	99
40
Properties=species:S:1:pos:R:3:Z:I:1 energy=-269.7394535694882 field_type=dipole dipole="0.000000 0.000000 0.000000" charge=0
C	-2.654627	-0.000265	0.860210	6
C	-1.464467	-0.000265	0.860210	6
C	-0.020468	-0.000265	0.860210	6
C	0.537193	-1.219855	0.098810	6
C	0.859323	-0.668085	-1.254880	6
C	0.860173	0.668975	-1.254830	6
C	0.537343	1.219045	0.101020	6
H	-3.720307	-0.000265	0.856070	1
H	0.338003	-0.000955	1.896310	1
H	-0.177697	-2.046415	0.034760	1
H	1.457093	-1.587995	0.565570	1
H	1.082552	-1.285025	-2.114790	1
H	1.083903	1.287215	-2.113280	1
H	1.458573	1.586975	0.567630	1
H	-0.176587	2.047185	0.036980	1
Es	-2.073462	0.364538	0.825570	99
Es	0.526888	0.000449	-1.365608	99
Es	1.013737	1.099301	-1.822793	99
Es	1.012797	-1.096832	-1.823047	99
Es	0.241997	-0.613859	0.499647	99
Es	0.537193	-1.219800	0.098802	99
Es	-2.073170	-0.225548	0.598748	99
Es	1.193248	0.000333	-1.183833	99
Es	0.860164	0.669103	-1.254806	99
Es	-0.020568	-0.000266	0.860169	99
Es	0.199284	-0.000703	1.544990	99
Es	-2.654910	-0.000266	0.860210	99
Es	1.173959	-1.460397	0.410182	99
Es	0.687760	-0.977755	-0.586923	99
Es	-0.776830	-0.001184	0.858728	99
Es	0.242046	0.613009	0.500447	99
Es	1.175067	1.459171	0.411844	99
Es	0.537344	1.218991	0.101010	99
Es	-1.464192	-0.000274	0.860210	99
Es	-3.354874	-0.001117	0.860138	99
Es	-2.073999	-0.138174	1.156245	99
Es	0.859321	-0.668207	-1.254856	99
Es	0.688014	0.977474	-0.585609	99
Es	0.049255	-1.778551	0.054321	99
Es	0.050006	1.778882	0.056308	99
40
Properties=species:S:1:pos:R:3:Z:I:1 energy=-269.7394535694882 field_type=dipole dipole="0.000000 0.000000 0.000000" charge=0
C	-2.654627	-0.000265	0.860210	6
C	-1.464467	-0.000265	0.860210	6
C	-0.020468	-0.000265	0.860210	6
C	0.537193	-1.219855	0.098810	6
C	0.859323	-0.668085	-1.254880	6
C	0.860173	0.668975	-1.254830	6
C	0.537343	1.219045	0.101020	6
H	-3.720307	-0.000265	0.856070	1
H	0.338003	-0.000955	1.896310	1
H	-0.177697	-2.046415	0.034760	1
H	1.457093	-1.587995	0.565570	1
H	1.082552	-1.285025	-2.114790	1
H	1.083903	1.287215	-2.113280	1
H	1.458573	1.586975	0.567630	1
H	-0.176587	2.047185	0.036980	1
Es	0.198904	-0.000756	1.544204	99
Es	1.014098	1.098479	-1.821923	99
Es	-2.073122	0.206708	0.587985	99
Es	0.860170	0.669097	-1.254802	99
Es	-2.073993	0.157046	1.150918	99
Es	0.526322	0.000772	-1.365837	99
Es	-2.654907	-0.000269	0.860209	99
Es	1.012516	-1.097567	-1.823413	99
Es	1.174464	-1.460077	0.409140	99
Es	0.687251	-0.977467	-0.586417	99
Es	0.688061	0.977991	-0.585439	99
Es	0.859315	-0.668210	-1.254858	99
Es	1.175134	1.459201	0.412094	99
Es	0.242349	0.613214	0.500822	99
Es	0.537343	1.218991	0.101013	99
Es	-1.464193	-0.000258	0.860215	99
Es	-2.073507	-0.366455	0.841818	99
Es	1.193756	0.000184	-1.183414	99
Es	-3.354908	0.000784	0.860194	99
Es	-0.776954	0.000690	0.858662	99
Es	0.537192	-1.219799	0.098804	99
Es	0.049173	-1.778821	0.053810	99
Es	-0.020567	-0.000265	0.860174	99
Es	0.242325	-0.613614	0.499620	99
Es	0.049853	1.778720	0.056514	99
40
Properties=species:S:1:pos:R:3:Z:I:1 energy=-269.7394535694882 field_type=dipole dipole="0.000000 0.000000 0.000000" charge=0
C	-2.654627	-0.000265	0.860210	6
C	-1.464467	-0.000265	0.860210	6
C	-0.020468	-0.000265	0.860210	6
C	0.537193	-1.219855	0.098810	6
C	0.859323	-0.668085	-1.254880	6
C	0.860173	0.668975	-1.254830	6
C	0.537343	1.219045	0.101020	6
H	-3.720307	-0.000265	0.856070	1
H	0.338003	-0.000955	1.896310	1
H	-0.177697	-2.046415	0.034760	1
H	1.457093	-1.587995	0.565570	1
H	1.082552	-1.285025	-2.114790	1
H	1.083903	1.287215	-2.113280	1
H	1.458573	1.586975	0.567630	1
H	-0.176587	2.047185	0.036980	1
Es	0.687335	0.977419	-0.586094	99
Es	0.049793	1.778437	0.056523	99
Es	0.860190	0.669103	-1.254803	99
Es	0.526318	0.000512	-1.367006	99
Es	-2.073676	-0.339023	0.993922	99
Es	0.686970	-0.977402	-0.587459	99
Es	-2.654911	-0.000259	0.860209	99
Es	0.049063	-1.778245	0.054355	99
Es	1.013089	-1.096523	-1.822612	99
Es	0.242012	0.612932	0.500425	99
Es	-3.355008	-0.000078	0.859706	99
Es	-1.464193	-0.000265	0.860193	99
Es	0.241858	-0.613725	0.499461	99
Es	-2.073777	0.311798	1.040720	99
Es	0.200059	-0.000753	1.545553	99
Es	-0.020568	-0.000265	0.860169	99
Es	-0.777197	-0.000245	0.857486	99
Es	1.175450	1.459232	0.412055	99
Es	0.859319	-0.668204	-1.254858	99
Es	-2.073087	0.026164	0.547468	99
Es	1.193784	0.000262	-1.183117	99
Es	0.537192	-1.219799	0.098804	99
Es	1.174465	-1.460314	0.410092	99
Es	0.537343	1.218990	0.101013	99
Es	1.014253	1.098571	-1.822115	99
40
Properties=species:S:1:pos:R:3:Z:I:1 energy=-269.7394535694882 field_type=dipole dipole="0.000000 0.000000 0.000000" charge=0
C	-2.654627	-0.000265	0.860210	6
C	-1.464467	-0.000265	0.860210	6
C	-0.020468	-0.000265	0.860210	6
C	0.537193	-1.219855	0.098810	6
C	0.859323	-0.668085	-1.254880	6
C	0.860173	0.668975	-1.254830	6
C	0.537343	1.219045	0.101020	6
H	-3.720307	-0.000265	0.856070	1
H	0.338003	-0.000955	1.896310	1
H	-0.177697	-2.046415	0.034760	1
H	1.457093	-1.587995	0.565570	1
H	1.082552	-1.285025	-2.114790	1
H	1.083903	1.287215	-2.113280	1
H	1.458573	1.586975	0.567630	1
H	-0.176587	2.047185	0.036980	1
Es	0.525800	0.000670	-1.366500	99
Es	0.537193	-1.219801	0.098803	99
Es	1.012677	-1.097054	-1.822727	99
Es	0.242656	-0.613788	0.499848	99
Es	0.537344	1.218991	0.101012	99
Es	0.198510	-0.000718	1.543164	99
Es	-2.654910	-0.000262	0.860212	99
Es	-0.777121	0.000602	0.858632	99
Es	0.860176	0.669097	-1.254805	99
Es	1.194612	0.000233	-1.182763	99
Es	-1.464193	-0.000260	0.860212	99
Es	-3.354963	0.000857	0.860371	99
Es	1.174930	-1.460006	0.408895	99
Es	-2.073181	0.176527	0.575124	99
Es	0.859323	-0.668206	-1.254856	99
Es	0.049712	1.778742	0.056243	99
Es	-2.073478	-0.367217	0.865847	99
Es	1.014023	1.098610	-1.821781	99
Es	0.686629	-0.977877	-0.585997	99
Es	-0.020568	-0.000265	0.860170	99
Es	0.048989	-1.778600	0.053835	99
Es	-2.073940	0.187889	1.139915	99
Es	0.242741	0.613167	0.500922	99
Es	0.687341	0.978038	-0.584895	99
Es	1.175773	1.458948	0.411211	99
40
Properties=species:S:1:pos:R:3:Z:I:1 energy=-269.7394535694882 field_type=dipole dipole="0.000000 0.000000 0.000000" charge=0
C	-2.654627	-0.000265	0.860210	6
C	-1.464467	-0.000265	0.860210	6
C	-0.020468	-0.000265	0.860210	6
C	0.537193	-1.219855	0.098810	6
C	0.859323	-0.668085	-1.254880	6
C	0.860173	0.668975	-1.254830	6
C	0.537343	1.219045	0.101020	6
H	-3.720307	-0.000265	0.856070	1
H	0.338003	-0.000955	1.896310	1
H	-0.177697	-2.046415	0.034760	1
H	1.457093	-1.587995	0.565570	1
H	1.082552	-1.285025	-2.114790	1
H	1.083903	1.287215	-2.113280	1
H	1.458573	1.586975	0.567630	1
H	-0.176587	2.047185	0.036980	1
Es	1.174456	-1.460376	0.410292	99
Es	0.242070	-0.613643	0.499578	99
Es	-2.654909	-0.000266	0.860218	99
Es	-3.355006	-0.000542	0.861197	99
Es	0.860171	0.669091	-1.254805	99
Es	-1.464191	-0.000267	0.860212	99
Es	0.242255	0.612702	0.500324	99
Es	-2.073413	0.346710	0.755129	99
Es	0.686980	0.977221	-0.586162	99
Es	0.859329	-0.668194	-1.254853	99
Es	0.537343	1.218990	0.101013	99
Es	1.013157	-1.096083	-1.821956	99
Es	0.049693	1.778521	0.056424	99
Es	-2.074030	-0.051687	1.164434	99
Es	0.199964	-0.000737	1.545262	99
Es	1.175727	1.459027	0.411628	99
Es	1.014057	1.098838	-1.821975	99
Es	0.048889	-1.778082	0.054628	99
Es	0.686902	-0.977655	-0.587533	99
Es	-0.020569	-0.000266	0.860170	99
Es	0.525883	0.000372	-1.367541	99
Es	1.194562	0.000390	-1.182859	99
Es	-0.777245	-0.000803	0.858125	99
Es	0.537193	-1.219799	0.098804	99
Es	-2.073192	-0.295145	0.660340	99
40
Properties=species:S:1:pos:R:3:Z:I:1 energy=-269.7394535694882 field_type=dipole dipole="0.000000 0.000000 0.000000" charge=0
C	-2.654627	-0.000265	0.860210	6
C	-1.464467	-0.000265	0.860210	6
C	-0.020468	-0.000265	0.860210	6
C	0.537193	-1.219855	0.098810	6
C	0.859323	-0.668085	-1.254880	6
C	0.860173	0.668975	-1.254830	6
C	0.537343	1.219045	0.101020	6
H	-3.720307	-0.000265	0.856070	1
H	0.338003	-0.000955	1.896310	1
H	-0.177697	-2.046415	0.034760	1
H	1.457093	-1.587995	0.565570	1
H	1.082552	-1.285025	-2.114790	1
H	1.083903	1.287215	-2.113280	1
H	1.458573	1.586975	0.567630	1
H	-0.176587	2.047185	0.036980	1
Es	-2.654910	-0.000264	0.860210	99
Es	-1.464192	-0.000266	0.860205	99
Es	-0.020568	-0.000265	0.860172	99
Es	0.525268	0.000502	-1.367889	99
Es	0.686384	-0.977666	-0.587058	99
Es	0.537193	-1.219798	0.098803	99
Es	0.686753	0.977524	-0.585950	99
Es	-2.073104	0.039601	0.547935	99
Es	1.195015	0.000324	-1.182342	99
Es	-2.073621	-0.343704	0.982239	99
Es	0.537342	1.218990	0.101013	99
Es	0.859323	-0.668200	-1.254865	99
Es	-2.073803	0.302756	1.051750	99
Es	0.242482	-0.613722	0.499635	99
Es	0.860172	0.669094	-1.254806	99
Es	0.199511	-0.000755	1.544302	99
Es	-3.355067	0.000073	0.860195	99
Es	1.176001	1.458967	0.411386	99
Es	1.014294	1.098406	-1.821490	99
Es	0.048777	-1.778158	0.054372	99
Es	1.013171	-1.096218	-1.821897	99
Es	0.049516	1.778411	0.056504	99
Es	0.242570	0.612955	0.500671	99
Es	1.174979	-1.460125	0.409541	99
Es	-0.777410	-0.000145	0.857458	99
40
Properties=species:S:1:pos:R:3:Z:I:1 energy=-269.7394535694882 field_type=dipole dipole="0.000000 0.000000 0.000000" charge=0
C	-2.654627	-0.000265	0.860210	6
C	-1.464467	-0.000265	0.860210	6
C	-0.020468	-0.000265	0.860210	6
C	0.537193	-1.219855	0.098810	6
C	0.859323	-0.668085	-1.254880	6
C	0.860173	0.668975	-1.254830	6
C	0.537343	1.219045	0.101020	6
H	-3.720307	-0.000265	0.856070	1
H	0.338003	-0.000955	1.896310	1
H	-0.177697	-2.046415	0.034760	1
H	1.457093	-1.587995	0.565570	1
H	1.082552	-1.285025	-2.114790	1
H	1.083903	1.287215	-2.113280	1
H	1.458573	1.586975	0.567630	1
H	-0.176587	2.047185	0.036980	1
Es	0.048677	-1.778090	0.054468	99
Es	0.242434	0.612862	0.500431	99
Es	-2.073709	0.320173	1.026705	99
Es	0.859322	-0.668204	-1.254855	99
Es	-2.073222	0.011976	0.549580	99
Es	-3.355102	-0.000172	0.860463	99
Es	-2.654910	-0.000265	0.860212	99
Es	1.014350	1.097999	-1.821067	99
Es	-1.464192	-0.000264	0.860206	99
Es	1.175059	-1.460088	0.409515	99
Es	0.537344	1.218990	0.101013	99
Es	0.686556	0.977601	-0.586030	99
Es	0.537192	-1.219799	0.098804	99
Es	-0.020567	-0.000265	0.860173	99
Es	0.242402	-0.613593	0.499450	99
Es	0.049409	1.778209	0.056667	99
Es	0.686150	-0.977473	-0.587478	99
Es	0.200023	-0.000704	1.544648	99
Es	1.176005	1.459064	0.411645	99
Es	0.525244	0.000593	-1.368438	99
Es	-2.073595	-0.333142	1.005472	99
Es	0.860178	0.669085	-1.254803	99
Es	1.013270	-1.096223	-1.821892	99
Es	1.195248	0.000282	-1.182248	99
Es	-0.777487	-0.000233	0.857451	99
40
Properties=species:S:1:pos:R:3:Z:I:1 energy=-269.7394535694882 field_type=dipole dipole="0.000000 0.000000 0.000000" charge=0
C	-2.654627	-0.000265	0.860210	6
C	-1.464467	-0.000265	0.860210	6
C	-0.020468	-0.000265	0.860210	6
C	0.537193	-1.219855	0.098810	6
C	0.859323	-0.668085	-1.254880	6
C	0.860173	0.668975	-1.254830	6
C	0.537343	1.219045	0.101020	6
H	-3.720307	-0.000265	0.856070	1
H	0.338003	-0.000955	1.896310	1
H	-0.177697	-2.046415	0.034760	1
H	1.457093	-1.587995	0.565570	1
H	1.082552	-1.285025	-2.114790	1
H	1.083903	1.287215	-2.113280	1
H	1.458573	1.586975	0.567630	1
H	-0.176587	2.047185	0.036980	1
Es	0.859318	-0.668201	-1.254857	99
Es	-2.073210	-0.005789	0.549073	99
Es	1.013318	-1.096324	-1.821876	99
Es	0.525046	0.000644	-1.368675	99
Es	0.685834	-0.977400	-0.587303	99
Es	0.242542	-0.613688	0.499558	99
Es	-2.654913	-0.000259	0.860204	99
Es	0.686451	0.977696	-0.586084	99
Es	-2.073652	-0.324097	1.021249	99
Es	0.537191	-1.219798	0.098803	99
Es	0.048685	-1.778019	0.054248	99
Es	-2.073654	0.329131	1.011327	99
Es	-0.020567	-0.000266	0.860172	99
Es	0.537342	1.218990	0.101013	99
Es	-1.464192	-0.000266	0.860207	99
Es	0.199786	-0.000687	1.544204	99
Es	1.175270	-1.460099	0.409268	99
Es	1.176146	1.459087	0.411715	99
Es	-3.355112	-0.000350	0.860588	99
Es	1.014511	1.097712	-1.820860	99
Es	0.242520	0.613073	0.500594	99
Es	-0.777527	-0.000180	0.857564	99
Es	1.195427	0.000252	-1.181862	99
Es	0.049344	1.778064	0.056626	99
Es	0.860170	0.669092	-1.254805	99
40
Properties=species:S:1:pos:R:3:Z:I:1 energy=-269.7394535694882 field_type=dipole dipole="0.000000 0.000000 0.000000" charge=0
C	-2.654627	-0.000265	0.860210	6
C	-1.464467	-0.000265	0.860210	6
C	-0.020468	-0.000265	0.860210	6
C	0.537193	-1.219855	0.098810	6
C	0.859323	-0.668085	-1.254880	6
C	0.860173	0.668975	-1.254830	6
C	0.537343	1.219045	0.101020	6
H	-3.720307	-0.000265	0.856070	1
H	0.338003	-0.000955	1.896310	1
H	-0.177697	-2.046415	0.034760	1
H	1.457093	-1.587995	0.565570	1
H	1.082552	-1.285025	-2.114790	1
H	1.083903	1.287215	-2.113280	1
H	1.458573	1.586975	0.567630	1
H	-0.176587	2.047185	0.036980	1
Es	1.175089	-1.460166	0.409656	99
Es	1.195520	0.000402	-1.181976	99
Es	1.013326	-1.095847	-1.821348	99
Es	1.176319	1.458832	0.411101	99
Es	-2.073357	0.345202	0.751647	99
Es	-0.020568	-0.000265	0.860169	99
Es	0.242770	0.612824	0.500483	99
Es	0.049389	1.778338	0.056451	99
Es	-0.777459	-0.000751	0.858025	99
Es	0.686157	0.977454	-0.585941	99
Es	-2.073257	-0.297071	0.664063	99
Es	0.199591	-0.000711	1.544238	99
Es	0.686075	-0.977719	-0.587212	99
Es	0.859325	-0.668191	-1.254857	99
Es	-1.464191	-0.000266	0.860209	99
Es	1.014279	1.098385	-1.821371	99
Es	-2.074007	-0.048394	1.164106	99
Es	-2.654911	-0.000267	0.860210	99
Es	0.525181	0.000364	-1.368648	99
Es	0.860166	0.669096	-1.254806	99
Es	0.537192	-1.219797	0.098804	99
Es	0.537342	1.218989	0.101014	99
Es	0.048620	-1.777943	0.054603	99
Es	-3.355068	-0.000456	0.861654	99
Es	0.242553	-0.613721	0.499820	99
40
Properties=species:S:1:pos:R:3:Z:I:1 energy=-269.7394535694882 field_type=dipole dipole="0.000000 0.000000 0.000000" charge=0
C	-2.654627	-0.000265	0.860210	6
C	-1.464467	-0.000265	0.860210	6
C	-0.020468	-0.000265	0.860210	6
C	0.537193	-1.219855	0.098810	6
C	0.859323	-0.668085	-1.254880	6
C	0.860173	0.668975	-1.254830	6
C	0.537343	1.219045	0.101020	6
H	-3.720307	-0.000265	0.856070	1
H	0.338003	-0.000955	1.896310	1
H	-0.177697	-2.046415	0.034760	1
H	1.457093	-1.587995	0.565570	1
H	1.082552	-1.285025	-2.114790	1
H	1.083903	1.287215	-2.113280	1
H	1.458573	1.586975	0.567630	1
H	-0.176587	2.047185	0.036980	1
Es	-3.355077	-0.000321	0.861835	99
Es	0.537192	-1.219799	0.098804	99
Es	0.860166	0.669094	-1.254797	99
Es	-2.073918	-0.002925	1.166962	99
Es	-2.654911	-0.000264	0.860218	99
Es	0.859323	-0.668202	-1.254857	99
Es	0.242569	-0.613570	0.499616	99
Es	-2.073377	-0.323329	0.704340	99
Es	1.013216	-1.096245	-1.821770	99
Es	-2.073336	0.325412	0.708424	99
Es	-0.777485	-0.000087	0.857962	99
Es	0.199703	-0.000698	1.544265	99
Es	0.049354	1.778189	0.056686	99
Es	1.175411	-1.460105	0.409172	99
Es	1.195642	0.000275	-1.181932	99
Es	0.524895	0.000679	-1.368898	99
Es	1.014523	1.097749	-1.820669	99
Es	1.176262	1.458939	0.411381	99
Es	0.685749	-0.977558	-0.587063	99
Es	-0.020568	-0.000265	0.860169	99
Es	0.242662	0.612845	0.500702	99
Es	0.686300	0.977696	-0.585974	99
Es	-1.464192	-0.000264	0.860215	99
Es	0.048629	-1.777918	0.054293	99
Es	0.537344	1.218991	0.101009	99
40
Properties=species:S:1:pos:R:3:Z:I:1 energy=-269.7394535694882 field_type=dipole dipole="0.000000 0.000000 0.000000" charge=0
C	-2.654627	-0.000265	0.860210	6
C	-1.464467	-0.000265	0.860210	6
C	-0.020468	-0.000265	0.860210	6
C	0.537193	-1.219855	0.098810	6
C	0.859323	-0.668085	-1.254880	6
C	0.860173	0.668975	-1.254830	6
C	0.537343	1.219045	0.101020	6
H	-3.720307	-0.000265	0.856070	1
H	0.338003	-0.000955	1.896310	1
H	-0.177697	-2.046415	0.034760	1
H	1.457093	-1.587995	0.565570	1
H	1.082552	-1.285025	-2.114790	1
H	1.083903	1.287215	-2.113280	1
H	1.458573	1.586975	0.567630	1
H	-0.176587	2.047185	0.036980	1