46
Properties=species:S:1:pos:R:3:Z:I:1 energy=-272.086500309737 field_type=dipole dipole="0.000000 0.000000 0.000000" charge=0
C	-1.244108	0.004744	-1.081664	6
C	0.181342	-0.004326	-0.572934	6
C	1.181712	-0.769016	-1.424094	6
C	1.194912	0.729944	-1.435564	6
C	0.370592	0.005314	0.967666	6
C	-0.520568	0.765834	1.919386	6
C	-0.527388	-0.734886	1.928856	6
H	-1.287048	-0.004046	-2.176834	1
H	-1.770658	0.902394	-0.743404	1
H	-1.787458	-0.877016	-0.728464	1
H	0.826742	-1.282046	-2.311044	1
H	1.995802	-1.280856	-0.923794	1
H	2.018012	1.234744	-0.942784	1
H	0.849212	1.235904	-2.329994	1
H	1.424512	0.002254	1.259176	1
H	-1.393008	1.275964	1.531726	1
H	-0.048218	1.278354	2.750316	1
H	-0.059888	-1.241296	2.766176	1
H	-1.404498	-1.241966	1.547266	1
Es	1.736164	-1.112710	-1.080517	99
Es	-1.602548	0.616379	-0.847038	99
Es	0.262321	0.000666	0.201434	99
Es	-0.024090	-0.538916	1.374098	99
Es	1.755355	1.068922	-1.097019	99
Es	-1.263351	-0.001335	-1.827385	99
Es	0.181458	-0.004327	-0.572996	99
Es	0.615144	-0.560487	-0.935627	99
Es	-0.650269	0.016877	2.063483	99
Es	-1.112041	1.107435	1.651144	99
Es	0.370444	0.005321	0.967743	99
Es	1.329308	-0.021780	-1.551784	99
Es	-0.520511	0.765683	1.919324	99
Es	-1.244086	0.004744	-1.081653	99
Es	0.953175	1.071192	-2.042815	99
Es	-0.019315	0.558461	1.367166	99
Es	1.181651	-0.768866	-1.424041	99
Es	-1.613977	-0.596051	-0.836829	99
Es	-0.527316	-0.734731	1.928778	99
Es	0.624827	0.538846	-0.943981	99
Es	-1.121963	-1.074545	1.664620	99
Es	1.089296	0.003281	1.164662	99
Es	1.194859	0.729781	-1.435505	99
Es	0.933797	-1.114960	-2.026292	99
Es	-0.196326	1.110876	2.483817	99
Es	-0.206306	-1.075898	2.497444	99
Es	-0.531863	0.000109	-0.828518	99
46
Properties=species:S:1:pos:R:3:Z:I:1 energy=-272.086500309737 field_type=dipole dipole="0.000000 0.000000 0.000000" charge=0
C	-1.244108	0.004744	-1.081664	6
C	0.181342	-0.004326	-0.572934	6
C	1.181712	-0.769016	-1.424094	6
C	1.194912	0.729944	-1.435564	6
C	0.370592	0.005314	0.967666	6
C	-0.520568	0.765834	1.919386	6
C	-0.527388	-0.734886	1.928856	6
H	-1.287048	-0.004046	-2.176834	1
H	-1.770658	0.902394	-0.743404	1
H	-1.787458	-0.877016	-0.728464	1
H	0.826742	-1.282046	-2.311044	1
H	1.995802	-1.280856	-0.923794	1
H	2.018012	1.234744	-0.942784	1
H	0.849212	1.235904	-2.329994	1
H	1.424512	0.002254	1.259176	1
H	-1.393008	1.275964	1.531726	1
H	-0.048218	1.278354	2.750316	1
H	-0.059888	-1.241296	2.766176	1
H	-1.404498	-1.241966	1.547266	1
Es	-1.120646	-1.074209	1.666202	99
Es	-1.602178	0.618393	-0.846695	99
Es	0.181458	-0.004326	-0.572994	99
Es	-0.207959	-1.075387	2.495894	99
Es	0.370449	0.005299	0.967735	99
Es	0.954512	1.070904	-2.041661	99
Es	-0.527327	-0.734730	1.928789	99
Es	1.734467	-1.112087	-1.081976	99
Es	1.194854	0.729790	-1.435513	99
Es	1.087571	0.003408	1.163874	99
Es	-0.016979	0.561226	1.364844	99
Es	-0.197955	1.110395	2.482190	99
Es	-0.022103	-0.542010	1.372399	99
Es	0.262381	0.000601	0.201571	99
Es	-1.613633	-0.598015	-0.836387	99
Es	-0.653482	0.017160	2.067579	99
Es	1.753777	1.068484	-1.098611	99
Es	-0.520508	0.765675	1.919321	99
Es	-0.532331	0.000224	-0.829207	99
Es	0.612805	-0.563679	-0.934121	99
Es	0.622791	0.541704	-0.942500	99
Es	0.935322	-1.114865	-2.025143	99
Es	-1.244085	0.004744	-1.081653	99
Es	-1.261697	-0.001394	-1.826457	99
Es	1.333386	-0.021612	-1.554439	99
Es	1.181650	-0.768861	-1.424039	99
Es	-1.110701	1.107136	1.652711	99
46
Properties=species:S:1:pos:R:3:Z:I:1 energy=-272.086500309737 field_type=dipole dipole="0.000000 0.000000 0.000000" charge=0
C	-1.244108	0.004744	-1.081664	6
C	0.181342	-0.004326	-0.572934	6
C	1.181712	-0.769016	-1.424094	6
C	1.194912	0.729944	-1.435564	6
C	0.370592	0.005314	0.967666	6
C	-0.520568	0.765834	1.919386	6
C	-0.527388	-0.734886	1.928856	6
H	-1.287048	-0.004046	-2.176834	1
H	-1.770658	0.902394	-0.743404	1
H	-1.787458	-0.877016	-0.728464	1
H	0.826742	-1.282046	-2.311044	1
H	1.995802	-1.280856	-0.923794	1
H	2.018012	1.234744	-0.942784	1
H	0.849212	1.235904	-2.329994	1
H	1.424512	0.002254	1.259176	1
H	-1.393008	1.275964	1.531726	1
H	-0.048218	1.278354	2.750316	1
H	-0.059888	-1.241296	2.766176	1
H	-1.404498	-1.241966	1.547266	1
Es	0.955463	1.070905	-2.040595	99
Es	0.936134	-1.114687	-2.024179	99
Es	0.181456	-0.004318	-0.572994	99
Es	-0.532935	0.000184	-0.829908	99
Es	-1.244086	0.004744	-1.081653	99
Es	-1.601735	0.619582	-0.846329	99
Es	-1.613217	-0.599299	-0.836066	99
Es	-1.260514	-0.001328	-1.825989	99
Es	1.752380	1.067885	-1.099634	99
Es	1.086396	0.003248	1.163381	99
Es	-1.119704	-1.073999	1.667141	99
Es	-0.655482	0.017024	2.070064	99
Es	1.194855	0.729780	-1.435504	99
Es	0.370447	0.005323	0.967735	99
Es	-0.015739	0.563379	1.363851	99
Es	-0.527328	-0.734729	1.928790	99
Es	1.733277	-1.111580	-1.083164	99
Es	1.336426	-0.021631	-1.556629	99
Es	0.611509	-0.565511	-0.932943	99
Es	0.262274	0.000768	0.201906	99
Es	1.181661	-0.768861	-1.424048	99
Es	-1.109742	1.106846	1.653681	99
Es	-0.020731	-0.544122	1.371036	99
Es	-0.199009	1.109963	2.481107	99
Es	-0.520511	0.765683	1.919320	99
Es	0.621382	0.543573	-0.941420	99
Es	-0.209091	-1.074851	2.494756	99
46
Properties=species:S:1:pos:R:3:Z:I:1 energy=-272.086500309737 field_type=dipole dipole="0.000000 0.000000 0.000000" charge=0
C	-1.244108	0.004744	-1.081664	6
C	0.181342	-0.004326	-0.572934	6
C	1.181712	-0.769016	-1.424094	6
C	1.194912	0.729944	-1.435564	6
C	0.370592	0.005314	0.967666	6
C	-0.520568	0.765834	1.919386	6
C	-0.527388	-0.734886	1.928856	6
H	-1.287048	-0.004046	-2.176834	1
H	-1.770658	0.902394	-0.743404	1
H	-1.787458	-0.877016	-0.728464	1
H	0.826742	-1.282046	-2.311044	1
H	1.995802	-1.280856	-0.923794	1
H	2.018012	1.234744	-0.942784	1
H	0.849212	1.235904	-2.329994	1
H	1.424512	0.002254	1.259176	1
H	-1.393008	1.275964	1.531726	1
H	-0.048218	1.278354	2.750316	1
H	-0.059888	-1.241296	2.766176	1
H	-1.404498	-1.241966	1.547266	1
Es	-0.019791	-0.545558	1.370224	99
Es	1.732334	-1.111098	-1.083872	99
Es	1.181662	-0.768873	-1.424048	99
Es	-1.109132	1.106672	1.654256	99
Es	0.262228	0.000734	0.202060	99
Es	0.620323	0.545242	-0.940643	99
Es	1.751517	1.067168	-1.100341	99
Es	-0.014708	0.564912	1.363098	99
Es	0.370446	0.005315	0.967735	99
Es	-1.259423	-0.001343	-1.825585	99
Es	-1.119133	-1.074019	1.667920	99
Es	0.181463	-0.004318	-0.573002	99
Es	0.956282	1.070914	-2.040002	99
Es	-1.244086	0.004744	-1.081653	99
Es	-0.520504	0.765680	1.919317	99
Es	-0.527325	-0.734728	1.928787	99
Es	-0.209825	-1.074185	2.493747	99
Es	1.194848	0.729797	-1.435508	99
Es	0.936774	-1.114652	-2.023273	99
Es	1.085551	0.003162	1.163059	99
Es	1.338263	-0.021787	-1.558180	99
Es	-1.601464	0.620462	-0.846177	99
Es	0.610643	-0.566855	-0.932270	99
Es	-0.199874	1.109552	2.480065	99
Es	-1.612900	-0.600155	-0.835960	99
Es	-0.533520	0.000155	-0.830150	99
Es	-0.656813	0.017029	2.072108	99
46
Properties=species:S:1:pos:R:3:Z:I:1 energy=-272.086500309737 field_type=dipole dipole="0.000000 0.000000 0.000000" charge=0
C	-1.244108	0.004744	-1.081664	6
C	0.181342	-0.004326	-0.572934	6
C	1.181712	-0.769016	-1.424094	6
C	1.194912	0.729944	-1.435564	6
C	0.370592	0.005314	0.967666	6
C	-0.520568	0.765834	1.919386	6
C	-0.527388	-0.734886	1.928856	6
H	-1.287048	-0.004046	-2.176834	1
H	-1.770658	0.902394	-0.743404	1
H	-1.787458	-0.877016	-0.728464	1
H	0.826742	-1.282046	-2.311044	1
H	1.995802	-1.280856	-0.923794	1
H	2.018012	1.234744	-0.942784	1
H	0.849212	1.235904	-2.329994	1
H	1.424512	0.002254	1.259176	1
H	-1.393008	1.275964	1.531726	1
H	-0.048218	1.278354	2.750316	1
H	-0.059888	-1.241296	2.766176	1
H	-1.404498	-1.241966	1.547266	1
Es	-1.244084	0.004744	-1.081652	99
Es	0.181455	-0.004326	-0.572993	99
Es	-0.200358	1.108904	2.479156	99
Es	-1.612562	-0.600747	-0.835825	99
Es	1.181653	-0.768861	-1.424047	99
Es	-0.210422	-1.073710	2.492910	99
Es	1.084997	0.003164	1.162868	99
Es	0.956567	1.070711	-2.039250	99
Es	0.937213	-1.114497	-2.022619	99
Es	-0.520507	0.765670	1.919321	99
Es	-0.014124	0.566193	1.362506	99
Es	0.262052	0.000696	0.202272	99
Es	-0.019152	-0.546754	1.369723	99
Es	0.370446	0.005321	0.967740	99
Es	1.731564	-1.110816	-1.084434	99
Es	-1.258536	-0.001413	-1.825338	99
Es	-1.108596	1.106817	1.654908	99
Es	0.609831	-0.567808	-0.931688	99
Es	-0.657842	0.016953	2.073541	99
Es	0.619824	0.546036	-0.940170	99
Es	-0.534090	0.000211	-0.830490	99
Es	1.194853	0.729785	-1.435510	99
Es	-1.118655	-1.073973	1.668444	99
Es	-1.601211	0.621139	-0.846022	99
Es	1.340026	-0.021780	-1.559523	99
Es	-0.527326	-0.734729	1.928792	99
Es	1.750820	1.067035	-1.100909	99
46
Properties=species:S:1:pos:R:3:Z:I:1 energy=-272.086500309737 field_type=dipole dipole="0.000000 0.000000 0.000000" charge=0
C	-1.244108	0.004744	-1.081664	6
C	0.181342	-0.004326	-0.572934	6
C	1.181712	-0.769016	-1.424094	6
C	1.194912	0.729944	-1.435564	6
C	0.370592	0.005314	0.967666	6
C	-0.520568	0.765834	1.919386	6
C	-0.527388	-0.734886	1.928856	6
H	-1.287048	-0.004046	-2.176834	1
H	-1.770658	0.902394	-0.743404	1
H	-1.787458	-0.877016	-0.728464	1
H	0.826742	-1.282046	-2.311044	1
H	1.995802	-1.280856	-0.923794	1
H	2.018012	1.234744	-0.942784	1
H	0.849212	1.235904	-2.329994	1
H	1.424512	0.002254	1.259176	1
H	-1.393008	1.275964	1.531726	1
H	-0.048218	1.278354	2.750316	1
H	-0.059888	-1.241296	2.766176	1
H	-1.404498	-1.241966	1.547266	1
Es	0.619229	0.547093	-0.939675	99
Es	1.750282	1.066633	-1.101421	99
Es	-0.527330	-0.734730	1.928793	99
Es	-0.658631	0.017013	2.074747	99
Es	-1.257734	-0.001385	-1.825050	99
Es	1.181661	-0.768859	-1.424036	99
Es	1.341044	-0.021820	-1.560317	99
Es	1.194853	0.729786	-1.435512	99
Es	0.957026	1.070578	-2.038712	99
Es	1.731010	-1.110388	-1.084900	99
Es	-0.013420	0.566965	1.361982	99
Es	-0.200854	1.108227	2.478505	99
Es	-1.244086	0.004744	-1.081653	99
Es	0.609367	-0.568674	-0.931217	99
Es	-1.108402	1.106952	1.655414	99
Es	-0.520509	0.765676	1.919321	99
Es	0.370447	0.005302	0.967731	99
Es	0.261939	0.000713	0.202388	99
Es	1.084552	0.003222	1.162727	99
Es	-1.612442	-0.601276	-0.835734	99
Es	-0.534606	0.000122	-0.830684	99
Es	0.181456	-0.004325	-0.572994	99
Es	-0.210821	-1.073166	2.492089	99
Es	-1.118292	-1.074094	1.668947	99
Es	-1.600933	0.621616	-0.846037	99
Es	0.937684	-1.114410	-2.022263	99
Es	-0.018654	-0.547548	1.369274	99
46
Properties=species:S:1:pos:R:3:Z:I:1 energy=-272.086500309737 field_type=dipole dipole="0.000000 0.000000 0.000000" charge=0
C	-1.244108	0.004744	-1.081664	6
C	0.181342	-0.004326	-0.572934	6
C	1.181712	-0.769016	-1.424094	6
C	1.194912	0.729944	-1.435564	6
C	0.370592	0.005314	0.967666	6
C	-0.520568	0.765834	1.919386	6
C	-0.527388	-0.734886	1.928856	6
H	-1.287048	-0.004046	-2.176834	1
H	-1.770658	0.902394	-0.743404	1
H	-1.787458	-0.877016	-0.728464	1
H	0.826742	-1.282046	-2.311044	1
H	1.995802	-1.280856	-0.923794	1
H	2.018012	1.234744	-0.942784	1
H	0.849212	1.235904	-2.329994	1
H	1.424512	0.002254	1.259176	1
H	-1.393008	1.275964	1.531726	1
H	-0.048218	1.278354	2.750316	1
H	-0.059888	-1.241296	2.766176	1
H	-1.404498	-1.241966	1.547266	1
Es	-0.018011	-0.548252	1.368972	99
Es	1.194854	0.729790	-1.435513	99
Es	0.181459	-0.004325	-0.572992	99
Es	-0.527327	-0.734723	1.928789	99
Es	-1.108074	1.107299	1.655834	99
Es	-1.600778	0.621987	-0.846049	99
Es	-0.520508	0.765673	1.919324	99
Es	0.370448	0.005313	0.967734	99
Es	1.181660	-0.768863	-1.424050	99
Es	1.084208	0.003215	1.162556	99
Es	1.341954	-0.021815	-1.561031	99
Es	-0.211235	-1.072614	2.491445	99
Es	0.618783	0.547776	-0.939468	99
Es	0.261686	0.000677	0.202647	99
Es	-1.612238	-0.601637	-0.835625	99
Es	-1.256960	-0.001443	-1.824928	99
Es	-0.659423	0.017020	2.075911	99
Es	0.937910	-1.114198	-2.021763	99
Es	1.730581	-1.110239	-1.085316	99
Es	-1.244085	0.004744	-1.081652	99
Es	-1.118058	-1.074260	1.669273	99
Es	0.608943	-0.569414	-0.930928	99
Es	-0.201052	1.107641	2.477639	99
Es	-0.013110	0.567535	1.361721	99
Es	-0.534989	0.000197	-0.830804	99
Es	1.749816	1.066376	-1.101675	99
Es	0.957383	1.070507	-2.038338	99
46
Properties=species:S:1:pos:R:3:Z:I:1 energy=-272.086500309737 field_type=dipole dipole="0.000000 0.000000 0.000000" charge=0
C	-1.244108	0.004744	-1.081664	6
C	0.181342	-0.004326	-0.572934	6
C	1.181712	-0.769016	-1.424094	6
C	1.194912	0.729944	-1.435564	6
C	0.370592	0.005314	0.967666	6
C	-0.520568	0.765834	1.919386	6
C	-0.527388	-0.734886	1.928856	6
H	-1.287048	-0.004046	-2.176834	1
H	-1.770658	0.902394	-0.743404	1
H	-1.787458	-0.877016	-0.728464	1
H	0.826742	-1.282046	-2.311044	1
H	1.995802	-1.280856	-0.923794	1
H	2.018012	1.234744	-0.942784	1
H	0.849212	1.235904	-2.329994	1
H	1.424512	0.002254	1.259176	1
H	-1.393008	1.275964	1.531726	1
H	-0.048218	1.278354	2.750316	1
H	-0.059888	-1.241296	2.766176	1
H	-1.404498	-1.241966	1.547266	1
Es	-0.659848	0.017038	2.076696	99
Es	0.957608	1.070353	-2.037912	99
Es	0.618445	0.548286	-0.939134	99
Es	-0.017940	-0.548691	1.368741	99
Es	-1.256222	-0.001391	-1.824749	99
Es	0.938225	-1.114172	-2.021366	99
Es	1.342771	-0.021891	-1.561806	99
Es	-1.600569	0.622306	-0.846004	99
Es	-0.520505	0.765677	1.919321	99
Es	0.608676	-0.569847	-0.930612	99
Es	-0.012763	0.568083	1.361310	99
Es	1.181662	-0.768851	-1.424048	99
Es	1.194854	0.729788	-1.435512	99
Es	-1.244086	0.004744	-1.081653	99
Es	-1.117886	-1.074430	1.669606	99
Es	-1.107901	1.107368	1.656166	99
Es	-0.211408	-1.072208	2.490848	99
Es	0.261667	0.000704	0.202652	99
Es	-0.535562	0.000104	-0.830964	99
Es	-0.201297	1.107259	2.477161	99
Es	-1.612164	-0.601966	-0.835654	99
Es	0.181456	-0.004325	-0.572994	99
Es	1.749378	1.066229	-1.101989	99
Es	1.730244	-1.109954	-1.085543	99
Es	-0.527335	-0.734727	1.928790	99
Es	1.083885	0.003164	1.162624	99
Es	0.370451	0.005317	0.967736	99
46
Properties=species:S:1:pos:R:3:Z:I:1 energy=-272.086500309737 field_type=dipole dipole="0.000000 0.000000 0.000000" charge=0
C	-1.244108	0.004744	-1.081664	6
C	0.181342	-0.004326	-0.572934	6
C	1.181712	-0.769016	-1.424094	6
C	1.194912	0.729944	-1.435564	6
C	0.370592	0.005314	0.967666	6
C	-0.520568	0.765834	1.919386	6
C	-0.527388	-0.734886	1.928856	6
H	-1.287048	-0.004046	-2.176834	1
H	-1.770658	0.902394	-0.743404	1
H	-1.787458	-0.877016	-0.728464	1
H	0.826742	-1.282046	-2.311044	1
H	1.995802	-1.280856	-0.923794	1
H	2.018012	1.234744	-0.942784	1
H	0.849212	1.235904	-2.329994	1
H	1.424512	0.002254	1.259176	1
H	-1.393008	1.275964	1.531726	1
H	-0.048218	1.278354	2.750316	1
H	-0.059888	-1.241296	2.766176	1
H	-1.404498	-1.241966	1.547266	1
Es	1.194857	0.729790	-1.435504	99
Es	-1.600488	0.622505	-0.845994	99
Es	1.729876	-1.109828	-1.085721	99
Es	0.957863	1.070455	-2.037636	99
Es	-0.012610	0.568359	1.361292	99
Es	0.608478	-0.570280	-0.930521	99
Es	1.343428	-0.021772	-1.562406	99
Es	0.261305	0.000795	0.202948	99
Es	-0.527325	-0.734728	1.928787	99
Es	0.181458	-0.004331	-0.572995	99
Es	-0.201550	1.106662	2.476531	99
Es	-0.660403	0.017112	2.077477	99
Es	-0.017400	-0.549285	1.368343	99
Es	-1.117756	-1.074735	1.669966	99
Es	1.181656	-0.768858	-1.424045	99
Es	1.749032	1.065898	-1.102149	99
Es	-0.536019	0.000103	-0.830986	99
Es	-1.107707	1.107702	1.656471	99
Es	1.083845	0.003314	1.162435	99
Es	-0.520510	0.765671	1.919326	99
Es	-0.211618	-1.071623	2.490254	99
Es	0.370444	0.005315	0.967734	99
Es	-1.612023	-0.602214	-0.835634	99
Es	-1.244083	0.004744	-1.081653	99
Es	0.618098	0.548670	-0.938863	99
Es	0.938444	-1.114083	-2.021022	99
Es	-1.255455	-0.001388	-1.824723	99
46
Properties=species:S:1:pos:R:3:Z:I:1 energy=-272.086500309737 field_type=dipole dipole="0.000000 0.000000 0.000000" charge=0
C	-1.244108	0.004744	-1.081664	6
C	0.181342	-0.004326	-0.572934	6
C	1.181712	-0.769016	-1.424094	6
C	1.194912	0.729944	-1.435564	6
C	0.370592	0.005314	0.967666	6
C	-0.520568	0.765834	1.919386	6
C	-0.527388	-0.734886	1.928856	6
H	-1.287048	-0.004046	-2.176834	1
H	-1.770658	0.902394	-0.743404	1
H	-1.787458	-0.877016	-0.728464	1
H	0.826742	-1.282046	-2.311044	1
H	1.995802	-1.280856	-0.923794	1
H	2.018012	1.234744	-0.942784	1
H	0.849212	1.235904	-2.329994	1
H	1.424512	0.002254	1.259176	1
H	-1.393008	1.275964	1.531726	1
H	-0.048218	1.278354	2.750316	1
H	-0.059888	-1.241296	2.766176	1
H	-1.404498	-1.241966	1.547266	1
Es	-1.611877	-0.602423	-0.835659	99
Es	0.370447	0.005315	0.967733	99
Es	-0.527324	-0.734727	1.928795	99
Es	0.958080	1.070137	-2.037293	99
Es	1.343786	-0.021766	-1.562891	99
Es	-0.201811	1.106182	2.476072	99
Es	0.181457	-0.004324	-0.572993	99
Es	-0.211839	-1.071186	2.489739	99
Es	0.618030	0.549125	-0.938890	99
Es	-0.536555	0.000107	-0.831100	99
Es	0.261366	0.000788	0.203160	99
Es	-1.117661	-1.074840	1.670334	99
Es	0.608151	-0.570571	-0.930201	99
Es	1.083568	0.003208	1.162424	99
Es	1.181655	-0.768860	-1.424047	99
Es	-1.107794	1.107901	1.656718	99
Es	-1.600393	0.622804	-0.845966	99
Es	-1.254833	-0.001444	-1.824560	99
Es	0.938475	-1.114040	-2.020697	99
Es	1.194848	0.729789	-1.435517	99
Es	-0.660475	0.017091	2.078014	99
Es	1.748934	1.065806	-1.102482	99
Es	-0.017362	-0.549727	1.368247	99
Es	-0.520507	0.765673	1.919319	99
Es	-1.244086	0.004744	-1.081653	99
Es	1.729655	-1.109741	-1.085915	99
Es	-0.012102	0.568949	1.361019	99
46
Properties=species:S:1:pos:R:3:Z:I:1 energy=-272.086500309737 field_type=dipole dipole="0.000000 0.000000 0.000000" charge=0
C	-1.244108	0.004744	-1.081664	6
C	0.181342	-0.004326	-0.572934	6
C	1.181712	-0.769016	-1.424094	6
C	1.194912	0.729944	-1.435564	6
C	0.370592	0.005314	0.967666	6
C	-0.520568	0.765834	1.919386	6
C	-0.527388	-0.734886	1.928856	6
H	-1.287048	-0.004046	-2.176834	1
H	-1.770658	0.902394	-0.743404	1
H	-1.787458	-0.877016	-0.728464	1
H	0.826742	-1.282046	-2.311044	1
H	1.995802	-1.280856	-0.923794	1
H	2.018012	1.234744	-0.942784	1
H	0.849212	1.235904	-2.329994	1
H	1.424512	0.002254	1.259176	1
H	-1.393008	1.275964	1.531726	1
H	-0.048218	1.278354	2.750316	1
H	-0.059888	-1.241296	2.766176	1
H	-1.404498	-1.241966	1.547266	1
Es	1.729453	-1.109454	-1.086052	99
Es	-0.520514	0.765676	1.919319	99
Es	0.607996	-0.570972	-0.930106	99
Es	-1.107624	1.108087	1.656937	99
Es	1.344201	-0.021928	-1.563232	99
Es	-0.012056	0.569138	1.360955	99
Es	0.617841	0.549522	-0.938525	99
Es	-1.254232	-0.001397	-1.824551	99
Es	-0.201967	1.105809	2.475685	99
Es	-0.017020	-0.550133	1.368059	99
Es	1.181649	-0.768862	-1.424039	99
Es	1.748628	1.065655	-1.102560	99
Es	0.261017	0.000719	0.203090	99
Es	-0.536748	0.000146	-0.831140	99
Es	-1.117633	-1.075154	1.670634	99
Es	-0.211996	-1.070647	2.489319	99
Es	1.083456	0.003276	1.162443	99
Es	0.370445	0.005310	0.967734	99
Es	0.938820	-1.114002	-2.020514	99
Es	0.181462	-0.004322	-0.572997	99
Es	-1.611935	-0.602575	-0.835586	99
Es	-1.244087	0.004744	-1.081654	99
Es	-0.660795	0.017182	2.078405	99
Es	0.958179	1.070216	-2.037139	99
Es	-0.527327	-0.734727	1.928788	99
Es	-1.600233	0.622875	-0.846047	99
Es	1.194855	0.729786	-1.435510	99
46
Properties=species:S:1:pos:R:3:Z:I:1 energy=-272.086500309737 field_type=dipole dipole="0.000000 0.000000 0.000000" charge=0
C	-1.244108	0.004744	-1.081664	6
C	0.181342	-0.004326	-0.572934	6
C	1.181712	-0.769016	-1.424094	6
C	1.194912	0.729944	-1.435564	6
C	0.370592	0.005314	0.967666	6
C	-0.520568	0.765834	1.919386	6
C	-0.527388	-0.734886	1.928856	6
H	-1.287048	-0.004046	-2.176834	1
H	-1.770658	0.902394	-0.743404	1
H	-1.787458	-0.877016	-0.728464	1
H	0.826742	-1.282046	-2.311044	1
H	1.995802	-1.280856	-0.923794	1
H	2.018012	1.234744	-0.942784	1
H	0.849212	1.235904	-2.329994	1
H	1.424512	0.002254	1.259176	1
H	-1.393008	1.275964	1.531726	1
H	-0.048218	1.278354	2.750316	1
H	-0.059888	-1.241296	2.766176	1
H	-1.404498	-1.241966	1.547266	1
Es	0.958375	1.070386	-2.036839	99
Es	-1.253696	-0.001409	-1.824536	99
Es	0.181459	-0.004329	-0.572996	99
Es	1.344663	-0.021990	-1.563742	99
Es	0.617713	0.549688	-0.938476	99
Es	0.939003	-1.113964	-2.020308	99
Es	-0.661101	0.016936	2.078905	99
Es	-0.211997	-1.070156	2.488792	99
Es	1.181652	-0.768859	-1.424046	99
Es	1.729188	-1.109277	-1.086209	99
Es	0.260848	0.000728	0.203416	99
Es	-0.202063	1.105379	2.475250	99
Es	-1.107570	1.108386	1.657170	99
Es	1.748312	1.065384	-1.102590	99
Es	1.083503	0.003262	1.162275	99
Es	-1.611813	-0.602689	-0.835604	99
Es	0.607721	-0.571208	-0.930059	99
Es	-0.520507	0.765669	1.919320	99
Es	-1.117577	-1.075553	1.670971	99
Es	-1.600201	0.623004	-0.845986	99
Es	-0.537172	0.000206	-0.831115	99
Es	0.370445	0.005311	0.967732	99
Es	-1.244086	0.004744	-1.081653	99
Es	-0.011918	0.569475	1.360939	99
Es	-0.527327	-0.734724	1.928788	99
Es	-0.016876	-0.550225	1.367823	99
Es	1.194857	0.729790	-1.435509	99
46
Properties=species:S:1:pos:R:3:Z:I:1 energy=-272.086500309737 field_type=dipole dipole="0.000000 0.000000 0.000000" charge=0
C	-1.244108	0.004744	-1.081664	6
C	0.181342	-0.004326	-0.572934	6
C	1.181712	-0.769016	-1.424094	6
C	1.194912	0.729944	-1.435564	6
C	0.370592	0.005314	0.967666	6
C	-0.520568	0.765834	1.919386	6
C	-0.527388	-0.734886	1.928856	6
H	-1.287048	-0.004046	-2.176834	1
H	-1.770658	0.902394	-0.743404	1
H	-1.787458	-0.877016	-0.728464	1
H	0.826742	-1.282046	-2.311044	1
H	1.995802	-1.280856	-0.923794	1
H	2.018012	1.234744	-0.942784	1
H	0.849212	1.235904	-2.329994	1
H	1.424512	0.002254	1.259176	1
H	-1.393008	1.275964	1.531726	1
H	-0.048218	1.278354	2.750316	1
H	-0.059888	-1.241296	2.766176	1
H	-1.404498	-1.241966	1.547266	1
Es	-0.527329	-0.734723	1.928789	99
Es	-0.212175	-1.069727	2.488441	99
Es	-1.117581	-1.075768	1.671205	99
Es	-0.537743	0.000157	-0.831180	99
Es	-1.253006	-0.001430	-1.824547	99
Es	-1.600180	0.623150	-0.845906	99
Es	1.181654	-0.768859	-1.424044	99
Es	-1.611646	-0.602813	-0.835635	99
Es	1.344781	-0.021808	-1.563783	99
Es	0.260645	0.000579	0.203453	99
Es	1.083515	0.003161	1.162299	99
Es	0.181457	-0.004326	-0.572994	99
Es	-0.011754	0.569917	1.360532	99
Es	1.194852	0.729788	-1.435514	99
Es	-1.107521	1.108735	1.657615	99
Es	1.748260	1.065331	-1.102774	99
Es	0.370446	0.005315	0.967734	99
Es	0.958530	1.070164	-2.036826	99
Es	-0.016828	-0.550335	1.367932	99
Es	-0.661226	0.016943	2.079174	99
Es	0.617531	0.550006	-0.938368	99
Es	0.939075	-1.113969	-2.020162	99
Es	-0.202132	1.104804	2.474775	99
Es	0.607708	-0.571523	-0.929951	99
Es	-0.520500	0.765673	1.919328	99
Es	1.729089	-1.109220	-1.086229	99
Es	-1.244086	0.004744	-1.081652	99
46
Properties=species:S:1:pos:R:3:Z:I:1 energy=-272.086500309737 field_type=dipole dipole="0.000000 0.000000 0.000000" charge=0
C	-1.244108	0.004744	-1.081664	6
C	0.181342	-0.004326	-0.572934	6
C	1.181712	-0.769016	-1.424094	6
C	1.194912	0.729944	-1.435564	6
C	0.370592	0.005314	0.967666	6
C	-0.520568	0.765834	1.919386	6
C	-0.527388	-0.734886	1.928856	6
H	-1.287048	-0.004046	-2.176834	1
H	-1.770658	0.902394	-0.743404	1
H	-1.787458	-0.877016	-0.728464	1
H	0.826742	-1.282046	-2.311044	1
H	1.995802	-1.280856	-0.923794	1
H	2.018012	1.234744	-0.942784	1
H	0.849212	1.235904	-2.329994	1
H	1.424512	0.002254	1.259176	1
H	-1.393008	1.275964	1.531726	1
H	-0.048218	1.278354	2.750316	1
H	-0.059888	-1.241296	2.766176	1
H	-1.404498	-1.241966	1.547266	1
Es	-0.527331	-0.734725	1.928790	99
Es	-1.600108	0.623235	-0.845988	99
Es	1.181654	-0.768857	-1.424046	99
Es	1.748078	1.065300	-1.102881	99
Es	-0.212272	-1.069257	2.488082	99
Es	-0.520500	0.765673	1.919328	99
Es	1.194848	0.729789	-1.435512	99
Es	-0.011600	0.569940	1.360573	99
Es	-0.016577	-0.550873	1.367829	99
Es	0.939104	-1.113811	-2.020012	99
Es	0.370445	0.005320	0.967732	99
Es	-1.244085	0.004744	-1.081651	99
Es	0.260489	0.000719	0.203516	99
Es	0.958527	1.070146	-2.036670	99
Es	-1.117559	-1.076083	1.671472	99
Es	0.181462	-0.004334	-0.572999	99
Es	-0.661342	0.017215	2.079381	99
Es	-1.611693	-0.602919	-0.835646	99
Es	1.083346	0.003267	1.162231	99
Es	0.617503	0.550196	-0.938253	99
Es	-0.537970	0.000115	-0.831199	99
Es	-0.202256	1.104396	2.474438	99
Es	1.728949	-1.109210	-1.086428	99
Es	-1.252552	-0.001415	-1.824450	99
Es	-1.107526	1.108955	1.657877	99
Es	1.345173	-0.021968	-1.564032	99
Es	0.607628	-0.571590	-0.929770	99
46
Properties=species:S:1:pos:R:3:Z:I:1 energy=-272.086500309737 field_type=dipole dipole="0.000000 0.000000 0.000000" charge=0
C	-1.244108	0.004744	-1.081664	6
C	0.181342	-0.004326	-0.572934	6
C	1.181712	-0.769016	-1.424094	6
C	1.194912	0.729944	-1.435564	6
C	0.370592	0.005314	0.967666	6
C	-0.520568	0.765834	1.919386	6
C	-0.527388	-0.734886	1.928856	6
H	-1.287048	-0.004046	-2.176834	1
H	-1.770658	0.902394	-0.743404	1
H	-1.787458	-0.877016	-0.728464	1
H	0.826742	-1.282046	-2.311044	1
H	1.995802	-1.280856	-0.923794	1
H	2.018012	1.234744	-0.942784	1
H	0.849212	1.235904	-2.329994	1
H	1.424512	0.002254	1.259176	1
H	-1.393008	1.275964	1.531726	1
H	-0.048218	1.278354	2.750316	1
H	-0.059888	-1.241296	2.766176	1
H	-1.404498	-1.241966	1.547266	1
Es	-1.117470	-1.076345	1.671768	99
Es	1.747867	1.065144	-1.102888	99
Es	-0.527335	-0.734730	1.928796	99
Es	-0.202338	1.104160	2.474205	99
Es	-0.016520	-0.551030	1.367707	99
Es	0.617382	0.550290	-0.938208	99
Es	-1.600027	0.623296	-0.845959	99
Es	-1.611626	-0.602985	-0.835583	99
Es	0.370445	0.005312	0.967738	99
Es	0.939197	-1.113828	-2.019836	99
Es	-1.244087	0.004744	-1.081653	99
Es	1.728818	-1.109114	-1.086465	99
Es	-0.538645	0.000152	-0.831156	99
Es	-1.251933	-0.001426	-1.824515	99
Es	1.181655	-0.768858	-1.424044	99
Es	0.181459	-0.004323	-0.572995	99
Es	0.607497	-0.571729	-0.929715	99
Es	0.260404	0.000714	0.203562	99
Es	-0.011491	0.570052	1.360541	99
Es	-0.212334	-1.068856	2.487708	99
Es	-1.107538	1.109114	1.657982	99
Es	0.958693	1.070213	-2.036503	99
Es	1.194862	0.729789	-1.435501	99
Es	-0.661488	0.017194	2.079637	99
Es	1.083424	0.003261	1.162166	99
Es	-0.520501	0.765674	1.919321	99
Es	1.345469	-0.021916	-1.564396	99
46
Properties=species:S:1:pos:R:3:Z:I:1 energy=-272.086500309737 field_type=dipole dipole="0.000000 0.000000 0.000000" charge=0
C	-1.244108	0.004744	-1.081664	6
C	0.181342	-0.004326	-0.572934	6
C	1.181712	-0.769016	-1.424094	6
C	1.194912	0.729944	-1.435564	6
C	0.370592	0.005314	0.967666	6
C	-0.520568	0.765834	1.919386	6
C	-0.527388	-0.734886	1.928856	6
H	-1.287048	-0.004046	-2.176834	1
H	-1.770658	0.902394	-0.743404	1
H	-1.787458	-0.877016	-0.728464	1
H	0.826742	-1.282046	-2.311044	1
H	1.995802	-1.280856	-0.923794	1
H	2.018012	1.234744	-0.942784	1
H	0.849212	1.235904	-2.329994	1
H	1.424512	0.002254	1.259176	1
H	-1.393008	1.275964	1.531726	1
H	-0.048218	1.278354	2.750316	1
H	-0.059888	-1.241296	2.766176	1
H	-1.404498	-1.241966	1.547266	1
Es	-1.252040	-0.001433	-1.824412	99
Es	-0.520505	0.765673	1.919321	99
Es	0.607494	-0.571827	-0.929589	99
Es	1.181655	-0.768857	-1.424043	99
Es	-0.661544	0.017111	2.079917	99
Es	-0.016502	-0.551004	1.367699	99
Es	-1.117513	-1.076559	1.671927	99
Es	1.747815	1.065056	-1.102955	99
Es	0.181456	-0.004327	-0.572991	99
Es	0.939236	-1.113879	-2.019733	99
Es	-0.011265	0.570341	1.360363	99
Es	1.194859	0.729788	-1.435511	99
Es	1.728706	-1.109023	-1.086507	99
Es	0.958736	1.070221	-2.036328	99
Es	-0.538024	0.000110	-0.831384	99
Es	-0.202397	1.103579	2.473780	99
Es	1.345623	-0.021966	-1.564692	99
Es	0.260045	0.000694	0.203511	99
Es	0.370444	0.005319	0.967733	99
Es	-1.244078	0.004744	-1.081647	99
Es	-1.600013	0.623365	-0.845954	99
Es	-1.611579	-0.603035	-0.835602	99
Es	-1.107551	1.109488	1.658435	99
Es	1.083190	0.003170	1.162252	99
Es	-0.212392	-1.068582	2.487370	99
Es	-0.527335	-0.734723	1.928796	99
Es	0.617317	0.550524	-0.938046	99
46
Properties=species:S:1:pos:R:3:Z:I:1 energy=-272.086500309737 field_type=dipole dipole="0.000000 0.000000 0.000000" charge=0
C	-1.244108	0.004744	-1.081664	6
C	0.181342	-0.004326	-0.572934	6
C	1.181712	-0.769016	-1.424094	6
C	1.194912	0.729944	-1.435564	6
C	0.370592	0.005314	0.967666	6
C	-0.520568	0.765834	1.919386	6
C	-0.527388	-0.734886	1.928856	6
H	-1.287048	-0.004046	-2.176834	1
H	-1.770658	0.902394	-0.743404	1
H	-1.787458	-0.877016	-0.728464	1
H	0.826742	-1.282046	-2.311044	1
H	1.995802	-1.280856	-0.923794	1
H	2.018012	1.234744	-0.942784	1
H	0.849212	1.235904	-2.329994	1
H	1.424512	0.002254	1.259176	1
H	-1.393008	1.275964	1.531726	1
H	-0.048218	1.278354	2.750316	1
H	-0.059888	-1.241296	2.766176	1
H	-1.404498	-1.241966	1.547266	1
Es	0.958793	1.069996	-2.036207	99
Es	1.194853	0.729790	-1.435512	99
Es	-0.539396	0.000187	-0.831193	99
Es	-1.244086	0.004744	-1.081652	99
Es	-1.599975	0.623446	-0.845948	99
Es	-0.202424	1.103366	2.473598	99
Es	1.181658	-0.768861	-1.424046	99
Es	0.260165	0.000694	0.203688	99
Es	-0.212411	-1.068319	2.487149	99
Es	0.617255	0.550585	-0.938096	99
Es	-1.107565	1.109652	1.658566	99
Es	-0.661620	0.016992	2.080019	99
Es	-1.117463	-1.076765	1.672115	99
Es	-0.527328	-0.734731	1.928791	99
Es	0.181457	-0.004327	-0.572992	99
Es	-1.611563	-0.603113	-0.835636	99
Es	1.345765	-0.021948	-1.564726	99
Es	0.939256	-1.113615	-2.019619	99
Es	-0.016483	-0.551047	1.367666	99
Es	-0.011210	0.570535	1.360315	99
Es	1.728727	-1.109126	-1.086653	99
Es	0.607329	-0.572026	-0.929580	99
Es	0.370448	0.005315	0.967735	99
Es	1.747765	1.065145	-1.103050	99
Es	1.083301	0.003161	1.162131	99
Es	-1.250904	-0.001433	-1.824471	99
Es	-0.520507	0.765672	1.919321	99
46
Properties=species:S:1:pos:R:3:Z:I:1 energy=-272.086500309737 field_type=dipole dipole="0.000000 0.000000 0.000000" charge=0
C	-1.244108	0.004744	-1.081664	6
C	0.181342	-0.004326	-0.572934	6
C	1.181712	-0.769016	-1.424094	6
C	1.194912	0.729944	-1.435564	6
C	0.370592	0.005314	0.967666	6
C	-0.520568	0.765834	1.919386	6
C	-0.527388	-0.734886	1.928856	6
H	-1.287048	-0.004046	-2.176834	1
H	-1.770658	0.902394	-0.743404	1
H	-1.787458	-0.877016	-0.728464	1
H	0.826742	-1.282046	-2.311044	1
H	1.995802	-1.280856	-0.923794	1
H	2.018012	1.234744	-0.942784	1
H	0.849212	1.235904	-2.329994	1
H	1.424512	0.002254	1.259176	1
H	-1.393008	1.275964	1.531726	1
H	-0.048218	1.278354	2.750316	1
H	-0.059888	-1.241296	2.766176	1
H	-1.404498	-1.241966	1.547266	1
Es	0.259755	0.000702	0.203759	99
Es	-0.212514	-1.067968	2.486840	99
Es	-0.661711	0.017015	2.080258	99
Es	0.370443	0.005315	0.967731	99
Es	-0.011285	0.570475	1.360378	99
Es	-0.202456	1.103135	2.473318	99
Es	-1.611518	-0.603166	-0.835611	99
Es	-1.250866	-0.001445	-1.824390	99
Es	-1.244087	0.004744	-1.081653	99
Es	-0.538990	0.000198	-0.831427	99
Es	0.958833	1.070081	-2.036200	99
Es	1.747679	1.065053	-1.103046	99
Es	0.617314	0.550622	-0.938051	99
Es	-0.016305	-0.551199	1.367565	99
Es	1.194850	0.729788	-1.435515	99
Es	-0.520504	0.765676	1.919317	99
Es	1.181652	-0.768859	-1.424048	99
Es	-1.107518	1.109914	1.658624	99
Es	1.728537	-1.108917	-1.086665	99
Es	-0.527327	-0.734727	1.928788	99