44
Properties=species:S:1:pos:R:3:Z:I:1 energy=-307.9387453629945 field_type=dipole dipole="0.000000 0.000000 0.000000" charge=0
C	-0.901080	-0.172773	-1.114548	6
C	-0.574810	0.850157	0.016392	6
C	-1.155690	-0.232083	0.975552	6
C	-0.516550	-1.231813	-0.030988	6
O	0.910380	-1.409763	0.173712	8
C	1.696590	-0.238733	-0.075528	6
C	0.927750	1.047337	0.258372	6
H	-1.952910	-0.198313	-1.424238	1
H	-0.276450	-0.130903	-2.010018	1
H	-1.135510	1.788907	-0.009848	1
H	-0.755400	-0.247433	1.992912	1
H	-2.250220	-0.268583	1.025912	1
H	-1.021770	-2.197523	-0.113218	1
H	1.976250	-0.248983	-1.134868	1
H	2.620530	-0.301003	0.507772	1
H	1.316820	1.874237	-0.346128	1
H	1.092070	1.317267	1.308762	1
Es	1.001383	-1.618753	-0.032249	99
Es	-0.854197	-0.793782	0.546361	99
Es	-0.851019	-1.903332	-0.087408	99
Es	-0.699962	-0.762004	-0.654958	99
Es	2.326062	-0.280951	0.325706	99
Es	0.377625	-1.294689	0.077926	99
Es	-0.951001	1.506016	-0.002571	99
Es	1.034531	1.229307	0.977396	99
Es	-0.883020	0.372663	0.566823	99
Es	-0.516326	-1.231736	-0.030970	99
Es	-1.155674	-0.232074	0.975496	99
Es	-0.470212	-0.144587	-1.731231	99
Es	-0.880476	-0.241168	1.676370	99
Es	0.927727	1.047300	0.258352	99
Es	1.171087	-0.945369	0.073286	99
Es	1.194293	1.607545	-0.159872	99
Es	1.696420	-0.238884	-0.075466	99
Es	0.929325	-1.459306	0.473192	99
Es	1.887082	-0.235000	-0.809062	99
Es	-1.902140	-0.258269	0.991280	99
Es	-1.619119	-0.193187	-1.306930	99
Es	-0.901057	-0.172770	-1.114475	99
Es	-0.732743	0.409159	-0.623414	99
Es	0.179603	0.940276	0.126153	99
Es	0.910238	-1.409426	0.173625	99
Es	1.306816	0.407269	0.095531	99
Es	-0.574793	0.850078	0.016388	99
44
Properties=species:S:1:pos:R:3:Z:I:1 energy=-307.9387453629945 field_type=dipole dipole="0.000000 0.000000 0.000000" charge=0
C	-0.901080	-0.172773	-1.114548	6
C	-0.574810	0.850157	0.016392	6
C	-1.155690	-0.232083	0.975552	6
C	-0.516550	-1.231813	-0.030988	6
O	0.910380	-1.409763	0.173712	8
C	1.696590	-0.238733	-0.075528	6
C	0.927750	1.047337	0.258372	6
H	-1.952910	-0.198313	-1.424238	1
H	-0.276450	-0.130903	-2.010018	1
H	-1.135510	1.788907	-0.009848	1
H	-0.755400	-0.247433	1.992912	1
H	-2.250220	-0.268583	1.025912	1
H	-1.021770	-2.197523	-0.113218	1
H	1.976250	-0.248983	-1.134868	1
H	2.620530	-0.301003	0.507772	1
H	1.316820	1.874237	-0.346128	1
H	1.092070	1.317267	1.308762	1
Es	-1.619947	-0.193416	-1.306983	99
Es	0.179619	0.940351	0.125994	99
Es	-1.902930	-0.258642	0.991129	99
Es	-0.851096	-1.903320	-0.087341	99
Es	-0.883073	0.372553	0.566603	99
Es	1.172418	-0.944809	0.074309	99
Es	-0.732876	0.408969	-0.623258	99
Es	1.886695	-0.234735	-0.809082	99
Es	2.326515	-0.280666	0.326029	99
Es	0.997181	-1.609942	-0.034460	99
Es	-0.469838	-0.144655	-1.731027	99
Es	-0.880121	-0.241359	1.676235	99
Es	-0.950817	1.505142	-0.002615	99
Es	1.306730	0.407544	0.095463	99
Es	1.035009	1.229054	0.977389	99
Es	-0.699934	-0.761254	-0.655143	99
Es	0.933456	-1.468375	0.473146	99
Es	0.376354	-1.294870	0.079243	99
Es	0.927727	1.047300	0.258350	99
Es	-0.574793	0.850078	0.016387	99
Es	-0.901054	-0.172771	-1.114478	99
Es	-0.854198	-0.793043	0.546631	99
Es	-0.516339	-1.231737	-0.030967	99
Es	-1.155670	-0.232070	0.975491	99
Es	1.194776	1.607312	-0.159885	99
Es	1.696427	-0.238881	-0.075466	99
Es	0.910231	-1.409433	0.173584	99
44
Properties=species:S:1:pos:R:3:Z:I:1 energy=-307.9387453629945 field_type=dipole dipole="0.000000 0.000000 0.000000" charge=0
C	-0.901080	-0.172773	-1.114548	6
C	-0.574810	0.850157	0.016392	6
C	-1.155690	-0.232083	0.975552	6
C	-0.516550	-1.231813	-0.030988	6
O	0.910380	-1.409763	0.173712	8
C	1.696590	-0.238733	-0.075528	6
C	0.927750	1.047337	0.258372	6
H	-1.952910	-0.198313	-1.424238	1
H	-0.276450	-0.130903	-2.010018	1
H	-1.135510	1.788907	-0.009848	1
H	-0.755400	-0.247433	1.992912	1
H	-2.250220	-0.268583	1.025912	1
H	-1.021770	-2.197523	-0.113218	1
H	1.976250	-0.248983	-1.134868	1
H	2.620530	-0.301003	0.507772	1
H	1.316820	1.874237	-0.346128	1
H	1.092070	1.317267	1.308762	1
Es	1.696426	-0.238879	-0.075467	99
Es	0.376240	-1.294940	0.079200	99
Es	-0.733070	0.408814	-0.623124	99
Es	-0.901060	-0.172771	-1.114479	99
Es	-0.699863	-0.760679	-0.655204	99
Es	0.996004	-1.608398	-0.033931	99
Es	1.195093	1.607169	-0.159917	99
Es	-0.879900	-0.241450	1.676068	99
Es	-1.903429	-0.258858	0.991093	99
Es	1.035345	1.228878	0.977348	99
Es	1.306707	0.407799	0.095499	99
Es	0.910230	-1.409377	0.173679	99
Es	-0.854192	-0.792573	0.546742	99
Es	-0.851206	-1.903343	-0.087385	99
Es	1.173288	-0.944690	0.074028	99
Es	1.886515	-0.234552	-0.809116	99
Es	0.179613	0.940526	0.125837	99
Es	-0.883080	0.372583	0.566652	99
Es	-0.516316	-1.231734	-0.030970	99
Es	2.326730	-0.280546	0.326253	99
Es	0.933834	-1.469911	0.472844	99
Es	-1.155671	-0.232074	0.975493	99
Es	0.927726	1.047301	0.258348	99
Es	-1.620479	-0.193691	-1.307037	99
Es	-0.574794	0.850077	0.016389	99
Es	-0.950685	1.504384	-0.002685	99
Es	-0.469552	-0.144739	-1.730881	99
44
Properties=species:S:1:pos:R:3:Z:I:1 energy=-307.9387453629945 field_type=dipole dipole="0.000000 0.000000 0.000000" charge=0
C	-0.901080	-0.172773	-1.114548	6
C	-0.574810	0.850157	0.016392	6
C	-1.155690	-0.232083	0.975552	6
C	-0.516550	-1.231813	-0.030988	6
O	0.910380	-1.409763	0.173712	8
C	1.696590	-0.238733	-0.075528	6
C	0.927750	1.047337	0.258372	6
H	-1.952910	-0.198313	-1.424238	1
H	-0.276450	-0.130903	-2.010018	1
H	-1.135510	1.788907	-0.009848	1
H	-0.755400	-0.247433	1.992912	1
H	-2.250220	-0.268583	1.025912	1
H	-1.021770	-2.197523	-0.113218	1
H	1.976250	-0.248983	-1.134868	1
H	2.620530	-0.301003	0.507772	1
H	1.316820	1.874237	-0.346128	1
H	1.092070	1.317267	1.308762	1
Es	1.696417	-0.238888	-0.075465	99
Es	-0.574793	0.850077	0.016389	99
Es	0.934856	-1.470433	0.472095	99
Es	-1.903714	-0.258956	0.991018	99
Es	2.326873	-0.280298	0.326442	99
Es	-0.469307	-0.144957	-1.730888	99
Es	-1.620666	-0.193810	-1.307037	99
Es	-0.733047	0.408911	-0.623059	99
Es	-0.516326	-1.231736	-0.030963	99
Es	-1.155672	-0.232074	0.975493	99
Es	0.179604	0.940602	0.125868	99
Es	-0.879711	-0.241442	1.676067	99
Es	0.995454	-1.607018	-0.032855	99
Es	0.375279	-1.295642	0.079535	99
Es	-0.851255	-1.903450	-0.087434	99
Es	0.927728	1.047301	0.258350	99
Es	1.886426	-0.234507	-0.809090	99
Es	1.195315	1.607020	-0.159931	99
Es	1.173727	-0.944669	0.073414	99
Es	0.910249	-1.409445	0.173640	99
Es	-0.950563	1.504029	-0.002634	99
Es	-0.700037	-0.760322	-0.655195	99
Es	-0.854315	-0.792219	0.546948	99
Es	-0.901062	-0.172769	-1.114483	99
Es	-0.883123	0.372387	0.566353	99
Es	1.306544	0.407880	0.095275	99
Es	1.035570	1.228752	0.977424	99
44
Properties=species:S:1:pos:R:3:Z:I:1 energy=-307.9387453629945 field_type=dipole dipole="0.000000 0.000000 0.000000" charge=0
C	-0.901080	-0.172773	-1.114548	6
C	-0.574810	0.850157	0.016392	6
C	-1.155690	-0.232083	0.975552	6
C	-0.516550	-1.231813	-0.030988	6
O	0.910380	-1.409763	0.173712	8
C	1.696590	-0.238733	-0.075528	6
C	0.927750	1.047337	0.258372	6
H	-1.952910	-0.198313	-1.424238	1
H	-0.276450	-0.130903	-2.010018	1
H	-1.135510	1.788907	-0.009848	1
H	-0.755400	-0.247433	1.992912	1
H	-2.250220	-0.268583	1.025912	1
H	-1.021770	-2.197523	-0.113218	1
H	1.976250	-0.248983	-1.134868	1
H	2.620530	-0.301003	0.507772	1
H	1.316820	1.874237	-0.346128	1
H	1.092070	1.317267	1.308762	1
Es	-1.155673	-0.232073	0.975490	99
Es	1.886331	-0.234317	-0.809190	99
Es	-0.516325	-1.231736	-0.030964	99
Es	0.374910	-1.296754	0.077476	99
Es	-0.950351	1.503542	-0.002630	99
Es	1.173859	-0.944764	0.072947	99
Es	-0.699902	-0.760007	-0.655340	99
Es	-0.854259	-0.791902	0.547172	99
Es	-0.879662	-0.241480	1.676102	99
Es	-0.574792	0.850079	0.016387	99
Es	1.035724	1.228696	0.977413	99
Es	-1.621008	-0.193973	-1.306913	99
Es	-0.851289	-1.903402	-0.087408	99
Es	1.195566	1.606910	-0.160052	99
Es	0.910248	-1.409495	0.173594	99
Es	0.179617	0.940649	0.125858	99
Es	1.306506	0.408009	0.095541	99
Es	-0.901060	-0.172772	-1.114479	99
Es	-0.469257	-0.144849	-1.730878	99
Es	0.997441	-1.609197	-0.029818	99
Es	0.927727	1.047298	0.258350	99
Es	-1.903944	-0.259198	0.990831	99
Es	-0.883232	0.372400	0.566296	99
Es	0.933061	-1.467006	0.471577	99
Es	1.696422	-0.238884	-0.075467	99
Es	-0.733130	0.408813	-0.623141	99
Es	2.326927	-0.280258	0.326523	99
44
Properties=species:S:1:pos:R:3:Z:I:1 energy=-307.9387453629945 field_type=dipole dipole="0.000000 0.000000 0.000000" charge=0
C	-0.901080	-0.172773	-1.114548	6
C	-0.574810	0.850157	0.016392	6
C	-1.155690	-0.232083	0.975552	6
C	-0.516550	-1.231813	-0.030988	6
O	0.910380	-1.409763	0.173712	8
C	1.696590	-0.238733	-0.075528	6
C	0.927750	1.047337	0.258372	6
H	-1.952910	-0.198313	-1.424238	1
H	-0.276450	-0.130903	-2.010018	1
H	-1.135510	1.788907	-0.009848	1
H	-0.755400	-0.247433	1.992912	1
H	-2.250220	-0.268583	1.025912	1
H	-1.021770	-2.197523	-0.113218	1
H	1.976250	-0.248983	-1.134868	1
H	2.620530	-0.301003	0.507772	1
H	1.316820	1.874237	-0.346128	1
H	1.092070	1.317267	1.308762	1
Es	0.179640	0.940696	0.125708	99
Es	1.306527	0.408107	0.095333	99
Es	-0.854308	-0.791660	0.547061	99
Es	-0.851312	-1.903422	-0.087395	99
Es	1.174766	-0.944804	0.072761	99
Es	0.910179	-1.409370	0.173696	99
Es	1.696421	-0.238884	-0.075466	99
Es	-0.879512	-0.241540	1.676008	99
Es	-0.883309	0.372445	0.566387	99
Es	0.995030	-1.606294	-0.030823	99
Es	1.886365	-0.234290	-0.809218	99
Es	-0.733203	0.408854	-0.622999	99
Es	-1.155673	-0.232073	0.975494	99
Es	-0.950283	1.503306	-0.002650	99
Es	-1.904092	-0.259214	0.990907	99
Es	-0.516325	-1.231739	-0.030964	99
Es	0.927727	1.047300	0.258350	99
Es	2.326909	-0.280127	0.326666	99
Es	-0.699888	-0.759801	-0.655474	99
Es	0.374252	-1.296263	0.079530	99
Es	-0.901060	-0.172772	-1.114480	99
Es	1.035837	1.228585	0.977518	99
Es	-0.574793	0.850077	0.016388	99
Es	-1.621152	-0.194195	-1.306957	99
Es	-0.469141	-0.144993	-1.730817	99
Es	1.195600	1.606846	-0.159942	99
Es	0.935252	-1.470450	0.470655	99
44
Properties=species:S:1:pos:R:3:Z:I:1 energy=-307.9387453629945 field_type=dipole dipole="0.000000 0.000000 0.000000" charge=0
C	-0.901080	-0.172773	-1.114548	6
C	-0.574810	0.850157	0.016392	6
C	-1.155690	-0.232083	0.975552	6
C	-0.516550	-1.231813	-0.030988	6
O	0.910380	-1.409763	0.173712	8
C	1.696590	-0.238733	-0.075528	6
C	0.927750	1.047337	0.258372	6
H	-1.952910	-0.198313	-1.424238	1
H	-0.276450	-0.130903	-2.010018	1
H	-1.135510	1.788907	-0.009848	1
H	-0.755400	-0.247433	1.992912	1
H	-2.250220	-0.268583	1.025912	1
H	-1.021770	-2.197523	-0.113218	1
H	1.976250	-0.248983	-1.134868	1
H	2.620530	-0.301003	0.507772	1
H	1.316820	1.874237	-0.346128	1
H	1.092070	1.317267	1.308762	1
Es	-0.851321	-1.903472	-0.087489	99
Es	-0.950188	1.503039	-0.002689	99
Es	-1.621348	-0.194389	-1.306785	99
Es	-0.879474	-0.241563	1.675828	99
Es	1.306564	0.408228	0.095514	99
Es	0.935377	-1.474918	0.470715	99
Es	1.886277	-0.234246	-0.809242	99
Es	2.326959	-0.280173	0.326582	99
Es	0.995052	-1.602591	-0.033233	99
Es	0.374569	-1.296470	0.078368	99
Es	-0.699882	-0.759439	-0.655556	99
Es	-0.733238	0.408828	-0.622794	99
Es	0.927728	1.047299	0.258350	99
Es	-1.904363	-0.259354	0.990914	99
Es	-1.155671	-0.232072	0.975491	99
Es	-0.883381	0.372404	0.566507	99
Es	-0.516326	-1.231739	-0.030964	99
Es	0.910258	-1.409430	0.173580	99
Es	-0.854178	-0.791457	0.547222	99
Es	1.195766	1.606794	-0.159954	99
Es	1.035924	1.228539	0.977416	99
Es	1.696422	-0.238883	-0.075467	99
Es	-0.574793	0.850077	0.016387	99
Es	1.174158	-0.943708	0.076352	99
Es	0.179642	0.940784	0.125630	99
Es	-0.901062	-0.172769	-1.114483	99
Es	-0.469019	-0.144997	-1.730924	99
44
Properties=species:S:1:pos:R:3:Z:I:1 energy=-307.9387453629945 field_type=dipole dipole="0.000000 0.000000 0.000000" charge=0
C	-0.901080	-0.172773	-1.114548	6
C	-0.574810	0.850157	0.016392	6
C	-1.155690	-0.232083	0.975552	6
C	-0.516550	-1.231813	-0.030988	6
O	0.910380	-1.409763	0.173712	8
C	1.696590	-0.238733	-0.075528	6
C	0.927750	1.047337	0.258372	6
H	-1.952910	-0.198313	-1.424238	1
H	-0.276450	-0.130903	-2.010018	1
H	-1.135510	1.788907	-0.009848	1
H	-0.755400	-0.247433	1.992912	1
H	-2.250220	-0.268583	1.025912	1
H	-1.021770	-2.197523	-0.113218	1
H	1.976250	-0.248983	-1.134868	1
H	2.620530	-0.301003	0.507772	1
H	1.316820	1.874237	-0.346128	1
H	1.092070	1.317267	1.308762	1
Es	-0.950132	1.502801	-0.002585	99
Es	-0.883321	0.372335	0.566365	99
Es	-1.904420	-0.259341	0.990898	99
Es	1.195818	1.606647	-0.160009	99
Es	0.373600	-1.296949	0.080396	99
Es	1.306466	0.408301	0.095435	99
Es	2.326938	-0.280090	0.326696	99
Es	-0.516327	-1.231735	-0.030963	99
Es	0.993915	-1.601778	-0.032747	99
Es	0.910216	-1.409410	0.173567	99
Es	1.696420	-0.238885	-0.075468	99
Es	-0.699984	-0.759214	-0.655376	99
Es	1.886326	-0.234232	-0.809249	99
Es	-0.901059	-0.172770	-1.114479	99
Es	0.927727	1.047301	0.258350	99
Es	-0.879405	-0.241528	1.675848	99
Es	1.174437	-0.943813	0.074860	99
Es	0.179638	0.940906	0.125623	99
Es	0.937235	-1.475150	0.469702	99
Es	-0.854311	-0.791426	0.547334	99
Es	1.036013	1.228567	0.977566	99
Es	-0.851344	-1.903481	-0.087608	99
Es	-1.621395	-0.194431	-1.306907	99
Es	-1.155672	-0.232072	0.975492	99
Es	-0.574793	0.850077	0.016387	99
Es	-0.733239	0.408981	-0.623032	99
Es	-0.468894	-0.145282	-1.730821	99
44
Properties=species:S:1:pos:R:3:Z:I:1 energy=-307.9387453629945 field_type=dipole dipole="0.000000 0.000000 0.000000" charge=0
C	-0.901080	-0.172773	-1.114548	6
C	-0.574810	0.850157	0.016392	6
C	-1.155690	-0.232083	0.975552	6
C	-0.516550	-1.231813	-0.030988	6
O	0.910380	-1.409763	0.173712	8
C	1.696590	-0.238733	-0.075528	6
C	0.927750	1.047337	0.258372	6
H	-1.952910	-0.198313	-1.424238	1
H	-0.276450	-0.130903	-2.010018	1
H	-1.135510	1.788907	-0.009848	1
H	-0.755400	-0.247433	1.992912	1
H	-2.250220	-0.268583	1.025912	1
H	-1.021770	-2.197523	-0.113218	1
H	1.976250	-0.248983	-1.134868	1
H	2.620530	-0.301003	0.507772	1
H	1.316820	1.874237	-0.346128	1
H	1.092070	1.317267	1.308762	1
Es	-0.516330	-1.231735	-0.030969	99
Es	-0.733220	0.408810	-0.622820	99
Es	-1.155671	-0.232074	0.975490	99
Es	0.910219	-1.409404	0.173554	99
Es	-0.851337	-1.903445	-0.087698	99
Es	1.036070	1.228494	0.977444	99
Es	-0.950052	1.502688	-0.002625	99
Es	-0.883394	0.372350	0.566426	99
Es	0.374022	-1.297834	0.076796	99
Es	1.696425	-0.238878	-0.075470	99
Es	1.195885	1.606701	-0.160025	99
Es	-1.904540	-0.259444	0.990913	99
Es	1.306572	0.408293	0.095571	99
Es	0.934348	-1.471596	0.470457	99
Es	0.996220	-1.604276	-0.029694	99
Es	-0.879364	-0.241530	1.675764	99
Es	1.174574	-0.943966	0.074671	99
Es	-0.901060	-0.172769	-1.114480	99
Es	-0.699991	-0.759178	-0.655526	99
Es	-1.621475	-0.194410	-1.306714	99
Es	-0.574794	0.850077	0.016388	99
Es	-0.468890	-0.145126	-1.730980	99
Es	2.326902	-0.280064	0.326757	99
Es	1.886310	-0.234140	-0.809365	99
Es	-0.854292	-0.791335	0.547430	99
Es	0.179587	0.940816	0.125632	99
Es	0.927728	1.047300	0.258350	99
44
Properties=species:S:1:pos:R:3:Z:I:1 energy=-307.9387453629945 field_type=dipole dipole="0.000000 0.000000 0.000000" charge=0
C	-0.901080	-0.172773	-1.114548	6
C	-0.574810	0.850157	0.016392	6
C	-1.155690	-0.232083	0.975552	6
C	-0.516550	-1.231813	-0.030988	6
O	0.910380	-1.409763	0.173712	8
C	1.696590	-0.238733	-0.075528	6
C	0.927750	1.047337	0.258372	6
H	-1.952910	-0.198313	-1.424238	1
H	-0.276450	-0.130903	-2.010018	1
H	-1.135510	1.788907	-0.009848	1
H	-0.755400	-0.247433	1.992912	1
H	-2.250220	-0.268583	1.025912	1
H	-1.021770	-2.197523	-0.113218	1
H	1.976250	-0.248983	-1.134868	1
H	2.620530	-0.301003	0.507772	1
H	1.316820	1.874237	-0.346128	1
H	1.092070	1.317267	1.308762	1
Es	1.175317	-0.943978	0.075151	99
Es	-1.621565	-0.194546	-1.306819	99
Es	1.886281	-0.234108	-0.809348	99
Es	0.910274	-1.409549	0.173630	99
Es	-1.155670	-0.232071	0.975490	99
Es	-0.879327	-0.241570	1.675835	99
Es	0.373988	-1.296713	0.079046	99
Es	0.935632	-1.474191	0.469608	99
Es	-0.883335	0.372477	0.566379	99
Es	1.306451	0.408371	0.095553	99
Es	2.326946	-0.280021	0.326788	99
Es	-0.901060	-0.172770	-1.114481	99
Es	0.927728	1.047301	0.258350	99
Es	1.696421	-0.238884	-0.075466	99
Es	0.994205	-1.602666	-0.031661	99
Es	-0.574793	0.850077	0.016387	99
Es	-0.949968	1.502545	-0.002596	99
Es	-0.854350	-0.791055	0.547434	99
Es	-0.851404	-1.903439	-0.087649	99
Es	1.195964	1.606635	-0.160079	99
Es	-1.904590	-0.259540	0.990815	99
Es	-0.733392	0.408783	-0.622783	99
Es	-0.516325	-1.231739	-0.030966	99
Es	-0.468789	-0.145194	-1.730860	99
Es	1.036171	1.228453	0.977492	99
Es	0.179617	0.940822	0.125598	99
Es	-0.699973	-0.759104	-0.655573	99
44
Properties=species:S:1:pos:R:3:Z:I:1 energy=-307.9387453629945 field_type=dipole dipole="0.000000 0.000000 0.000000" charge=0
C	-0.901080	-0.172773	-1.114548	6
C	-0.574810	0.850157	0.016392	6
C	-1.155690	-0.232083	0.975552	6
C	-0.516550	-1.231813	-0.030988	6
O	0.910380	-1.409763	0.173712	8
C	1.696590	-0.238733	-0.075528	6
C	0.927750	1.047337	0.258372	6
H	-1.952910	-0.198313	-1.424238	1
H	-0.276450	-0.130903	-2.010018	1
H	-1.135510	1.788907	-0.009848	1
H	-0.755400	-0.247433	1.992912	1
H	-2.250220	-0.268583	1.025912	1
H	-1.021770	-2.197523	-0.113218	1
H	1.976250	-0.248983	-1.134868	1
H	2.620530	-0.301003	0.507772	1
H	1.316820	1.874237	-0.346128	1
H	1.092070	1.317267	1.308762	1
Es	1.306469	0.408419	0.095494	99
Es	-0.700017	-0.758927	-0.655685	99
Es	1.036250	1.228423	0.977523	99
Es	1.175690	-0.944176	0.074012	99
Es	-0.574793	0.850077	0.016390	99
Es	1.696422	-0.238882	-0.075469	99
Es	-0.516331	-1.231735	-0.030964	99
Es	-0.879213	-0.241557	1.675831	99
Es	-0.851468	-1.903505	-0.087452	99
Es	0.374208	-1.296441	0.079265	99
Es	2.327023	-0.279978	0.326825	99
Es	-0.949963	1.502431	-0.002550	99
Es	-0.901061	-0.172768	-1.114481	99
Es	0.910268	-1.409527	0.173621	99
Es	-0.854163	-0.790913	0.547230	99
Es	0.935520	-1.473494	0.469877	99
Es	0.993702	-1.603411	-0.031057	99
Es	-0.468772	-0.145266	-1.730875	99
Es	-0.733298	0.408982	-0.622780	99
Es	-1.904688	-0.259516	0.990819	99
Es	0.179593	0.940843	0.125621	99
Es	1.886204	-0.234068	-0.809341	99
Es	-1.621632	-0.194718	-1.306764	99
Es	-0.883543	0.372223	0.566384	99
Es	0.927727	1.047300	0.258350	99
Es	-1.155673	-0.232071	0.975491	99
Es	1.195990	1.606579	-0.160035	99
44
Properties=species:S:1:pos:R:3:Z:I:1 energy=-307.9387453629945 field_type=dipole dipole="0.000000 0.000000 0.000000" charge=0
C	-0.901080	-0.172773	-1.114548	6
C	-0.574810	0.850157	0.016392	6
C	-1.155690	-0.232083	0.975552	6
C	-0.516550	-1.231813	-0.030988	6
O	0.910380	-1.409763	0.173712	8
C	1.696590	-0.238733	-0.075528	6
C	0.927750	1.047337	0.258372	6
H	-1.952910	-0.198313	-1.424238	1
H	-0.276450	-0.130903	-2.010018	1
H	-1.135510	1.788907	-0.009848	1
H	-0.755400	-0.247433	1.992912	1
H	-2.250220	-0.268583	1.025912	1
H	-1.021770	-2.197523	-0.113218	1
H	1.976250	-0.248983	-1.134868	1
H	2.620530	-0.301003	0.507772	1
H	1.316820	1.874237	-0.346128	1
H	1.092070	1.317267	1.308762	1
Es	-0.949894	1.502217	-0.002645	99
Es	-0.854265	-0.790953	0.547527	99
Es	1.886197	-0.234006	-0.809363	99
Es	-0.879223	-0.241542	1.675733	99
Es	1.196133	1.606538	-0.160110	99
Es	0.997069	-1.607917	-0.026140	99
Es	-1.155670	-0.232074	0.975492	99
Es	-0.883456	0.372313	0.566377	99
Es	1.306377	0.408377	0.095619	99
Es	-0.851447	-1.903502	-0.087636	99
Es	-0.699997	-0.758782	-0.655597	99
Es	1.175281	-0.944841	0.071869	99
Es	1.036245	1.228418	0.977508	99
Es	2.327017	-0.279953	0.326848	99
Es	0.910226	-1.409435	0.173544	99
Es	-0.574794	0.850078	0.016387	99
Es	0.932639	-1.466723	0.470809	99
Es	-0.901061	-0.172773	-1.114481	99
Es	-0.468699	-0.145211	-1.730898	99
Es	0.179588	0.941037	0.125576	99
Es	0.927729	1.047300	0.258349	99
Es	-0.516324	-1.231738	-0.030964	99
Es	-0.733325	0.408829	-0.622790	99
Es	-1.904778	-0.259607	0.990840	99
Es	-1.621697	-0.194696	-1.306736	99
Es	1.696421	-0.238884	-0.075467	99
Es	0.374158	-1.298145	0.075625	99
44
Properties=species:S:1:pos:R:3:Z:I:1 energy=-307.9387453629945 field_type=dipole dipole="0.000000 0.000000 0.000000" charge=0
C	-0.901080	-0.172773	-1.114548	6
C	-0.574810	0.850157	0.016392	6
C	-1.155690	-0.232083	0.975552	6
C	-0.516550	-1.231813	-0.030988	6
O	0.910380	-1.409763	0.173712	8
C	1.696590	-0.238733	-0.075528	6
C	0.927750	1.047337	0.258372	6
H	-1.952910	-0.198313	-1.424238	1
H	-0.276450	-0.130903	-2.010018	1
H	-1.135510	1.788907	-0.009848	1
H	-0.755400	-0.247433	1.992912	1
H	-2.250220	-0.268583	1.025912	1
H	-1.021770	-2.197523	-0.113218	1
H	1.976250	-0.248983	-1.134868	1
H	2.620530	-0.301003	0.507772	1
H	1.316820	1.874237	-0.346128	1
H	1.092070	1.317267	1.308762	1
Es	1.175649	-0.944364	0.073490	99
Es	1.696422	-0.238883	-0.075466	99
Es	0.927727	1.047301	0.258350	99
Es	-0.883582	0.372303	0.566377	99
Es	0.910248	-1.409483	0.173648	99
Es	1.196119	1.606538	-0.160127	99
Es	-0.879228	-0.241497	1.675806	99
Es	-0.574793	0.850077	0.016387	99
Es	-1.155667	-0.232071	0.975497	99
Es	2.327047	-0.279877	0.326916	99
Es	-0.949828	1.502130	-0.002673	99
Es	0.995230	-1.605306	-0.029051	99
Es	-0.901062	-0.172769	-1.114483	99
Es	-0.516327	-1.231736	-0.030967	99
Es	-1.621720	-0.194759	-1.306690	99
Es	-0.854292	-0.790987	0.547484	99
Es	1.036285	1.228398	0.977531	99
Es	1.886156	-0.233988	-0.809405	99
Es	-1.904743	-0.259611	0.990787	99
Es	0.373737	-1.297251	0.078326	99
Es	-0.468736	-0.145244	-1.730922	99
Es	-0.733293	0.408888	-0.622729	99
Es	-0.700030	-0.758744	-0.655714	99
Es	0.934534	-1.470589	0.469370	99
Es	0.179603	0.940952	0.125573	99
Es	-0.851401	-1.903493	-0.087614	99
Es	1.306397	0.408392	0.095574	99
44
Properties=species:S:1:pos:R:3:Z:I:1 energy=-307.9387453629945 field_type=dipole dipole="0.000000 0.000000 0.000000" charge=0
C	-0.901080	-0.172773	-1.114548	6
C	-0.574810	0.850157	0.016392	6
C	-1.155690	-0.232083	0.975552	6
C	-0.516550	-1.231813	-0.030988	6
O	0.910380	-1.409763	0.173712	8
C	1.696590	-0.238733	-0.075528	6
C	0.927750	1.047337	0.258372	6
H	-1.952910	-0.198313	-1.424238	1
H	-0.276450	-0.130903	-2.010018	1
H	-1.135510	1.788907	-0.009848	1
H	-0.755400	-0.247433	1.992912	1
H	-2.250220	-0.268583	1.025912	1
H	-1.021770	-2.197523	-0.113218	1
H	1.976250	-0.248983	-1.134868	1
H	2.620530	-0.301003	0.507772	1
H	1.316820	1.874237	-0.346128	1
H	1.092070	1.317267	1.308762	1
Es	-0.879233	-0.241602	1.675680	99
Es	0.910211	-1.409420	0.173658	99
Es	-0.949940	1.501980	-0.002522	99
Es	-0.468656	-0.145413	-1.730892	99
Es	0.994352	-1.603359	-0.029979	99
Es	1.696421	-0.238883	-0.075467	99
Es	-0.700086	-0.758571	-0.655735	99
Es	-0.901061	-0.172770	-1.114481	99
Es	-1.621766	-0.194848	-1.306711	99
Es	1.886218	-0.234023	-0.809384	99
Es	-0.854264	-0.790908	0.547428	99
Es	-0.574793	0.850078	0.016387	99
Es	0.373572	-1.297257	0.078882	99
Es	-1.904817	-0.259580	0.990852	99
Es	0.935709	-1.472699	0.469497	99
Es	1.036301	1.228430	0.977559	99
Es	2.327007	-0.279880	0.326928	99
Es	-0.883424	0.372301	0.566383	99
Es	0.927728	1.047301	0.258350	99
Es	1.196081	1.606505	-0.160115	99
Es	1.175506	-0.944261	0.073700	99
Es	-0.851443	-1.903521	-0.087640	99
Es	-1.155672	-0.232072	0.975492	99
Es	0.179666	0.941090	0.125570	99
Es	1.306442	0.408448	0.095523	99
Es	-0.733281	0.408995	-0.622719	99
Es	-0.516327	-1.231737	-0.030966	99
44
Properties=species:S:1:pos:R:3:Z:I:1 energy=-307.9387453629945 field_type=dipole dipole="0.000000 0.000000 0.000000" charge=0
C	-0.901080	-0.172773	-1.114548	6
C	-0.574810	0.850157	0.016392	6
C	-1.155690	-0.232083	0.975552	6
C	-0.516550	-1.231813	-0.030988	6
O	0.910380	-1.409763	0.173712	8
C	1.696590	-0.238733	-0.075528	6
C	0.927750	1.047337	0.258372	6
H	-1.952910	-0.198313	-1.424238	1
H	-0.276450	-0.130903	-2.010018	1
H	-1.135510	1.788907	-0.009848	1
H	-0.755400	-0.247433	1.992912	1
H	-2.250220	-0.268583	1.025912	1
H	-1.021770	-2.197523	-0.113218	1
H	1.976250	-0.248983	-1.134868	1
H	2.620530	-0.301003	0.507772	1
H	1.316820	1.874237	-0.346128	1
H	1.092070	1.317267	1.308762	1
Es	1.036413	1.228391	0.977490	99
Es	1.696421	-0.238883	-0.075471	99
Es	-0.883635	0.372428	0.566519	99
Es	-0.516326	-1.231737	-0.030966	99
Es	-1.904875	-0.259618	0.990891	99
Es	-0.949703	1.501876	-0.002608	99
Es	-0.851443	-1.903541	-0.087654	99
Es	1.196063	1.606497	-0.160077	99
Es	-0.468645	-0.145368	-1.730855	99
Es	-0.901062	-0.172770	-1.114484	99
Es	0.993304	-1.600931	-0.032055	99
Es	1.886214	-0.233959	-0.809420	99
Es	0.910231	-1.409432	0.173583	99
Es	0.936909	-1.475992	0.469305	99
Es	1.175260	-0.943809	0.075088	99
Es	-1.155672	-0.232072	0.975492	99
Es	0.373636	-1.296791	0.079785	99
Es	-0.700088	-0.758671	-0.655804	99
Es	-0.854215	-0.790835	0.547438	99
Es	-0.879213	-0.241483	1.675620	99
Es	1.306529	0.408501	0.095584	99
Es	2.326976	-0.279927	0.326879	99
Es	-1.621846	-0.194815	-1.306714	99
Es	-0.733331	0.408873	-0.622626	99
Es	-0.574791	0.850077	0.016388	99
Es	0.179615	0.941016	0.125600	99
Es	0.927728	1.047302	0.258350	99
44
Properties=species:S:1:pos:R:3:Z:I:1 energy=-307.9387453629945 field_type=dipole dipole="0.000000 0.000000 0.000000" charge=0
C	-0.901080	-0.172773	-1.114548	6
C	-0.574810	0.850157	0.016392	6
C	-1.155690	-0.232083	0.975552	6
C	-0.516550	-1.231813	-0.030988	6
O	0.910380	-1.409763	0.173712	8
C	1.696590	-0.238733	-0.075528	6
C	0.927750	1.047337	0.258372	6
H	-1.952910	-0.198313	-1.424238	1
H	-0.276450	-0.130903	-2.010018	1
H	-1.135510	1.788907	-0.009848	1
H	-0.755400	-0.247433	1.992912	1
H	-2.250220	-0.268583	1.025912	1
H	-1.021770	-2.197523	-0.113218	1
H	1.976250	-0.248983	-1.134868	1
H	2.620530	-0.301003	0.507772	1
H	1.316820	1.874237	-0.346128	1
H	1.092070	1.317267	1.308762	1
Es	-0.949793	1.501912	-0.002571	99
Es	0.373725	-1.297477	0.077574	99
Es	1.176268	-0.944644	0.072411	99
Es	1.196145	1.606430	-0.160106	99
Es	-0.468567	-0.145210	-1.730928	99
Es	1.306407	0.408468	0.095450	99
Es	-1.155672	-0.232072	0.975492	99
Es	-0.883408	0.372369	0.566415	99
Es	-0.516326	-1.231736	-0.030964	99
Es	-0.879168	-0.241585	1.675698	99
Es	0.927727	1.047301	0.258349	99
Es	1.696421	-0.238883	-0.075467	99
Es	0.934100	-1.469825	0.469571	99
Es	-1.621867	-0.194935	-1.306651	99
Es	-0.699971	-0.758519	-0.655758	99
Es	1.036379	1.228409	0.977566	99
Es	2.327021	-0.279783	0.327005	99
Es	-0.733438	0.408705	-0.622766	99
Es	-0.574793	0.850077	0.016387	99
Es	0.994948	-1.605573	-0.027417	99
Es	1.886223	-0.234021	-0.809379	99
Es	-0.854327	-0.790780	0.547554	99
Es	-1.904913	-0.259626	0.990806	99
Es	0.910273	-1.409450	0.173614	99
Es	-0.901061	-0.172770	-1.114483	99
Es	-0.851428	-1.903522	-0.087695	99
Es	0.179547	0.941067	0.125572	99
44
Properties=species:S:1:pos:R:3:Z:I:1 energy=-307.9387453629945 field_type=dipole dipole="0.000000 0.000000 0.000000" charge=0
C	-0.901080	-0.172773	-1.114548	6
C	-0.574810	0.850157	0.016392	6
C	-1.155690	-0.232083	0.975552	6
C	-0.516550	-1.231813	-0.030988	6
O	0.910380	-1.409763	0.173712	8
C	1.696590	-0.238733	-0.075528	6
C	0.927750	1.047337	0.258372	6
H	-1.952910	-0.198313	-1.424238	1
H	-0.276450	-0.130903	-2.010018	1
H	-1.135510	1.788907	-0.009848	1
H	-0.755400	-0.247433	1.992912	1
H	-2.250220	-0.268583	1.025912	1
H	-1.021770	-2.197523	-0.113218	1
H	1.976250	-0.248983	-1.134868	1
H	2.620530	-0.301003	0.507772	1
H	1.316820	1.874237	-0.346128	1
H	1.092070	1.317267	1.308762	1
Es	-0.468527	-0.145400	-1.730905	99
Es	1.196153	1.606439	-0.160173	99
Es	0.179628	0.940979	0.125545	99
Es	0.927727	1.047300	0.258350	99
Es	-0.883542	0.372471	0.566474	99
Es	-0.516324	-1.231735	-0.030965	99
Es	1.036398	1.228411	0.977579	99
Es	-0.733398	0.408850	-0.622688	99
Es	0.994541	-1.603770	-0.029172	99
Es	-1.904876	-0.259719	0.990803	99
Es	-0.854313	-0.790650	0.547454	99
Es	1.696420	-0.238884	-0.075468	99
Es	0.910212	-1.409416	0.173605	99
Es	1.306395	0.408505	0.095560	99
Es	-0.879167	-0.241676	1.675706	99
Es	-0.949706	1.501838	-0.002536	99
Es	-1.155674	-0.232070	0.975494	99
Es	-1.621862	-0.194881	-1.306688	99
Es	-0.700163	-0.758508	-0.655851	99
Es	0.935380	-1.472037	0.468868	99
Es	-0.574791	0.850077	0.016388	99
Es	0.373315	-1.297455	0.078752	99
Es	-0.851417	-1.903532	-0.087619	99
Es	-0.901060	-0.172769	-1.114478	99
Es	1.175895	-0.944252	0.073700	99
Es	2.327049	-0.279824	0.326970	99
Es	1.886157	-0.233966	-0.809428	99
44
Properties=species:S:1:pos:R:3:Z:I:1 energy=-307.9387453629945 field_type=dipole dipole="0.000000 0.000000 0.000000" charge=0
C	-0.901080	-0.172773	-1.114548	6
C	-0.574810	0.850157	0.016392	6
C	-1.155690	-0.232083	0.975552	6
C	-0.516550	-1.231813	-0.030988	6
O	0.910380	-1.409763	0.173712	8
C	1.696590	-0.238733	-0.075528	6
C	0.927750	1.047337	0.258372	6
H	-1.952910	-0.198313	-1.424238	1
H	-0.276450	-0.130903	-2.010018	1
H	-1.135510	1.788907	-0.009848	1
H	-0.755400	-0.247433	1.992912	1
H	-2.250220	-0.268583	1.025912	1
H	-1.021770	-2.197523	-0.113218	1
H	1.976250	-0.248983	-1.134868	1
H	2.620530	-0.301003	0.507772	1
H	1.316820	1.874237	-0.346128	1
H	1.092070	1.317267	1.308762	1
Es	-0.854347	-0.790748	0.547564	99
Es	0.935958	-1.474104	0.467957	99
Es	-0.700074	-0.758373	-0.655816	99
Es	-0.879140	-0.241634	1.675697	99
Es	0.910323	-1.409575	0.173670	99
Es	-0.851407	-1.903500	-0.087658	99
Es	-0.516326	-1.231737	-0.030964	99
Es	-0.901061	-0.172771	-1.114482	99
Es	1.306399	0.408577	0.095659	99
Es	-0.574793	0.850077	0.016387	99
Es	-0.949593	1.501698	-0.002678	99
Es	0.179590	0.940982	0.125515	99
Es	-0.883623	0.372448	0.566504	99
Es	-1.621912	-0.194990	-1.306722	99
Es	-0.733514	0.408781	-0.622699	99
Es	2.327038	-0.279816	0.326972	99
Es	1.036418	1.228379	0.977571	99
Es	0.994238	-1.602478	-0.031279	99
Es	0.373302	-1.297161	0.079870	99
Es	1.886145	-0.233922	-0.809459	99
Es	0.927728	1.047301	0.258350	99
Es	-1.155670	-0.232074	0.975491	99
Es	1.696421	-0.238883	-0.075467	99
Es	-1.904939	-0.259676	0.990793	99
Es	1.196244	1.606410	-0.160181	99
Es	-0.468458	-0.145258	-1.730873	99
Es	1.175505	-0.943626	0.075553	99
44
Properties=species:S:1:pos:R:3:Z:I:1 energy=-307.9387453629945 field_type=dipole dipole="0.000000 0.000000 0.000000" charge=0
C	-0.901080	-0.172773	-1.114548	6
C	-0.574810	0.850157	0.016392	6
C	-1.155690	-0.232083	0.975552	6
C	-0.516550	-1.231813	-0.030988	6
O	0.910380	-1.409763	0.173712	8
C	1.696590	-0.238733	-0.075528	6
C	0.927750	1.047337	0.258372	6
H	-1.952910	-0.198313	-1.424238	1
H	-0.276450	-0.130903	-2.010018	1
H	-1.135510	1.788907	-0.009848	1
H	-0.755400	-0.247433	1.992912	1
H	-2.250220	-0.268583	1.025912	1
H	-1.021770	-2.197523	-0.113218	1
H	1.976250	-0.248983	-1.134868	1
H	2.620530	-0.301003	0.507772	1
H	1.316820	1.874237	-0.346128	1
H	1.092070	1.317267	1.308762	1
Es	-0.574793	0.850077	0.016388	99
Es	2.326979	-0.279843	0.326994	99
Es	-0.879126	-0.241621	1.675703	99