42
Properties=species:S:1:pos:R:3:Z:I:1 energy=-343.78143576207907 field_type=dipole dipole="0.000000 0.000000 0.000000" charge=0
C	1.773577	0.141927	-0.741818	6
C	1.766617	-0.114523	0.743362	6
C	0.488407	0.005077	-0.006968	6
O	-0.316283	1.169917	0.195432	8
C	-1.644953	0.737217	-0.127018	6
C	-1.630483	-0.764233	0.126602	6
O	-0.299263	-1.171333	-0.209398	8
H	2.056277	1.128807	-1.085648	1
H	2.069817	-0.668013	-1.395978	1
H	2.057477	-1.097453	1.091152	1
H	2.042977	0.699377	1.401592	1
H	-2.381823	1.262007	0.486732	1
H	-1.824023	0.960517	-1.184568	1
H	-2.364483	-1.300533	-0.478728	1
H	-1.793833	-0.988753	1.185252	1
Es	-0.811690	0.990671	0.068645	99
Es	-0.299371	-1.171025	-0.209298	99
Es	1.766563	-0.114494	0.743193	99
Es	1.960794	-0.778582	0.971667	99
Es	-2.148037	1.091521	0.291949	99
Es	-1.750825	-0.910903	0.855164	99
Es	1.773526	0.141897	-0.741649	99
Es	-1.644735	0.737256	-0.126948	99
Es	-1.775799	0.882606	-0.854538	99
Es	-1.630260	-0.764269	0.126528	99
Es	-0.316375	1.169628	0.195312	99
Es	1.961838	0.808367	-0.967578	99
Es	-2.131624	-1.126572	-0.286752	99
Es	-0.228751	1.374002	-0.009908	99
Es	-0.298184	-1.213168	-0.511703	99
Es	1.048853	0.101072	-0.558437	99
Es	1.973081	-0.407404	-1.177599	99
Es	1.953007	0.437655	1.181864	99
Es	-0.795936	-1.001686	-0.076138	99
Es	-0.024151	0.712588	0.108517	99
Es	-0.013431	-0.710963	-0.120152	99
Es	-1.662522	-0.013593	0.000002	99
Es	-0.206440	-1.376956	-0.008902	99
Es	-0.312614	1.216558	0.496178	99
Es	1.045157	-0.083552	0.550745	99
Es	0.488268	0.005076	-0.006969	99
Es	1.947843	0.014902	0.001926	99
42
Properties=species:S:1:pos:R:3:Z:I:1 energy=-343.78143576207907 field_type=dipole dipole="0.000000 0.000000 0.000000" charge=0
C	1.773577	0.141927	-0.741818	6
C	1.766617	-0.114523	0.743362	6
C	0.488407	0.005077	-0.006968	6
O	-0.316283	1.169917	0.195432	8
C	-1.644953	0.737217	-0.127018	6
C	-1.630483	-0.764233	0.126602	6
O	-0.299263	-1.171333	-0.209398	8
H	2.056277	1.128807	-1.085648	1
H	2.069817	-0.668013	-1.395978	1
H	2.057477	-1.097453	1.091152	1
H	2.042977	0.699377	1.401592	1
H	-2.381823	1.262007	0.486732	1
H	-1.824023	0.960517	-1.184568	1
H	-2.364483	-1.300533	-0.478728	1
H	-1.793833	-0.988753	1.185252	1
Es	1.950595	0.014984	0.001726	99
Es	-0.227856	1.373835	-0.006231	99
Es	-0.012316	-0.710310	-0.122967	99
Es	-1.662259	-0.013499	-0.000081	99
Es	1.042344	-0.083636	0.550801	99
Es	1.973748	-0.406463	-1.176998	99
Es	-2.148618	1.091195	0.292277	99
Es	-0.295263	-1.217433	-0.507388	99
Es	-0.814863	0.991260	0.068451	99
Es	1.046391	0.101027	-0.558193	99
Es	-1.750832	-0.910379	0.855189	99
Es	1.766566	-0.114494	0.743198	99
Es	-1.630275	-0.764266	0.126535	99
Es	0.488267	0.005073	-0.006950	99
Es	1.961510	-0.777308	0.971361	99
Es	-0.206827	-1.372815	-0.008238	99
Es	-1.775853	0.882082	-0.854588	99
Es	1.773522	0.141897	-0.741649	99
Es	1.962440	0.807232	-0.967195	99
Es	-0.299366	-1.170993	-0.209279	99
Es	-0.022554	0.713419	0.108601	99
Es	-0.799196	-1.001949	-0.078425	99
Es	-2.132162	-1.126329	-0.286944	99
Es	-0.311484	1.215092	0.492580	99
Es	1.953661	0.436592	1.181098	99
Es	-0.316398	1.169562	0.195377	99
Es	-1.644735	0.737256	-0.126949	99
42
Properties=species:S:1:pos:R:3:Z:I:1 energy=-343.78143576207907 field_type=dipole dipole="0.000000 0.000000 0.000000" charge=0
C	1.773577	0.141927	-0.741818	6
C	1.766617	-0.114523	0.743362	6
C	0.488407	0.005077	-0.006968	6
O	-0.316283	1.169917	0.195432	8
C	-1.644953	0.737217	-0.127018	6
C	-1.630483	-0.764233	0.126602	6
O	-0.299263	-1.171333	-0.209398	8
H	2.056277	1.128807	-1.085648	1
H	2.069817	-0.668013	-1.395978	1
H	2.057477	-1.097453	1.091152	1
H	2.042977	0.699377	1.401592	1
H	-2.381823	1.262007	0.486732	1
H	-1.824023	0.960517	-1.184568	1
H	-2.364483	-1.300533	-0.478728	1
H	-1.793833	-0.988753	1.185252	1
Es	1.044814	0.100954	-0.558329	99
Es	-0.800828	-1.002446	-0.077565	99
Es	1.953989	0.435913	1.180593	99
Es	-0.299389	-1.170956	-0.209311	99
Es	-0.011116	-0.711101	-0.122507	99
Es	-0.816429	0.991323	0.069270	99
Es	-2.132566	-1.126111	-0.287212	99
Es	-0.021173	0.713967	0.107969	99
Es	-0.295369	-1.215195	-0.505205	99
Es	-0.309836	1.216551	0.491271	99
Es	-0.206009	-1.373608	-0.011582	99
Es	-1.644741	0.737260	-0.126943	99
Es	1.952399	0.014928	0.001957	99
Es	-1.630265	-0.764267	0.126530	99
Es	-1.775858	0.881753	-0.854635	99
Es	-0.229132	1.371541	-0.005057	99
Es	1.962858	0.806470	-0.967170	99
Es	1.973940	-0.405712	-1.176356	99
Es	-0.316382	1.169587	0.195308	99
Es	-1.662000	-0.013597	-0.000057	99
Es	1.773514	0.141897	-0.741653	99
Es	-1.750870	-0.910011	0.855265	99
Es	1.766565	-0.114495	0.743197	99
Es	1.961793	-0.776639	0.971245	99
Es	-2.148977	1.090985	0.292489	99
Es	0.488263	0.005076	-0.006962	99
Es	1.040989	-0.083432	0.550570	99
42
Properties=species:S:1:pos:R:3:Z:I:1 energy=-343.78143576207907 field_type=dipole dipole="0.000000 0.000000 0.000000" charge=0
C	1.773577	0.141927	-0.741818	6
C	1.766617	-0.114523	0.743362	6
C	0.488407	0.005077	-0.006968	6
O	-0.316283	1.169917	0.195432	8
C	-1.644953	0.737217	-0.127018	6
C	-1.630483	-0.764233	0.126602	6
O	-0.299263	-1.171333	-0.209398	8
H	2.056277	1.128807	-1.085648	1
H	2.069817	-0.668013	-1.395978	1
H	2.057477	-1.097453	1.091152	1
H	2.042977	0.699377	1.401592	1
H	-2.381823	1.262007	0.486732	1
H	-1.824023	0.960517	-1.184568	1
H	-2.364483	-1.300533	-0.478728	1
H	-1.793833	-0.988753	1.185252	1
Es	1.974121	-0.405128	-1.176014	99
Es	-0.206208	-1.372730	-0.012141	99
Es	1.953559	0.014874	0.001842	99
Es	1.954171	0.435329	1.180234	99
Es	-0.010656	-0.711345	-0.122369	99
Es	-0.019923	0.714449	0.108360	99
Es	-0.801857	-1.002646	-0.078253	99
Es	1.040105	-0.083466	0.550914	99
Es	-0.299397	-1.171001	-0.209378	99
Es	-2.149295	1.090622	0.292802	99
Es	1.043778	0.100860	-0.558539	99
Es	1.766562	-0.114493	0.743191	99
Es	1.962005	-0.775969	0.971102	99
Es	-0.294404	-1.215425	-0.504019	99
Es	-0.229373	1.371669	-0.003951	99
Es	-0.309626	1.216121	0.489022	99
Es	0.488259	0.005076	-0.006966	99
Es	-1.644734	0.737257	-0.126948	99
Es	-0.316371	1.169650	0.195369	99
Es	1.963068	0.805995	-0.967016	99
Es	-1.750924	-0.909796	0.855326	99
Es	-0.817481	0.990867	0.069966	99
Es	-1.630264	-0.764266	0.126530	99
Es	-1.775925	0.881477	-0.854838	99
Es	-2.132776	-1.125890	-0.287323	99
Es	1.773523	0.141898	-0.741646	99
Es	-1.661750	-0.013354	-0.000135	99
42
Properties=species:S:1:pos:R:3:Z:I:1 energy=-343.78143576207907 field_type=dipole dipole="0.000000 0.000000 0.000000" charge=0
C	1.773577	0.141927	-0.741818	6
C	1.766617	-0.114523	0.743362	6
C	0.488407	0.005077	-0.006968	6
O	-0.316283	1.169917	0.195432	8
C	-1.644953	0.737217	-0.127018	6
C	-1.630483	-0.764233	0.126602	6
O	-0.299263	-1.171333	-0.209398	8
H	2.056277	1.128807	-1.085648	1
H	2.069817	-0.668013	-1.395978	1
H	2.057477	-1.097453	1.091152	1
H	2.042977	0.699377	1.401592	1
H	-2.381823	1.262007	0.486732	1
H	-1.824023	0.960517	-1.184568	1
H	-2.364483	-1.300533	-0.478728	1
H	-1.793833	-0.988753	1.185252	1
Es	-0.307194	1.218386	0.488851	99
Es	-2.149323	1.090404	0.292847	99
Es	-0.207156	-1.370549	-0.011041	99
Es	-2.132925	-1.125628	-0.287567	99
Es	0.488255	0.005076	-0.006973	99
Es	-1.751006	-0.909682	0.855492	99
Es	1.039350	-0.083416	0.550982	99
Es	-0.818606	0.991426	0.071562	99
Es	1.773511	0.141899	-0.741655	99
Es	-1.630265	-0.764267	0.126529	99
Es	-1.776040	0.881425	-0.854877	99
Es	1.963335	0.805601	-0.967033	99
Es	1.766557	-0.114494	0.743197	99
Es	-0.009739	-0.711193	-0.124057	99
Es	-0.293136	-1.218141	-0.501723	99
Es	-0.803011	-1.002083	-0.080074	99
Es	-0.316393	1.169587	0.195305	99
Es	1.962232	-0.775651	0.971119	99
Es	1.954560	0.015003	0.001843	99
Es	1.954079	0.434796	1.179875	99
Es	1.043117	0.100786	-0.558728	99
Es	-0.299389	-1.171002	-0.209279	99
Es	-0.020620	0.714353	0.108135	99
Es	-1.661629	-0.013541	-0.000077	99
Es	1.974181	-0.404636	-1.175536	99
Es	-0.229825	1.368917	-0.005050	99
Es	-1.644735	0.737257	-0.126948	99
42
Properties=species:S:1:pos:R:3:Z:I:1 energy=-343.78143576207907 field_type=dipole dipole="0.000000 0.000000 0.000000" charge=0
C	1.773577	0.141927	-0.741818	6
C	1.766617	-0.114523	0.743362	6
C	0.488407	0.005077	-0.006968	6
O	-0.316283	1.169917	0.195432	8
C	-1.644953	0.737217	-0.127018	6
C	-1.630483	-0.764233	0.126602	6
O	-0.299263	-1.171333	-0.209398	8
H	2.056277	1.128807	-1.085648	1
H	2.069817	-0.668013	-1.395978	1
H	2.057477	-1.097453	1.091152	1
H	2.042977	0.699377	1.401592	1
H	-2.381823	1.262007	0.486732	1
H	-1.824023	0.960517	-1.184568	1
H	-2.364483	-1.300533	-0.478728	1
H	-1.793833	-0.988753	1.185252	1
Es	-0.316347	1.169726	0.195362	99
Es	-0.299363	-1.171034	-0.209273	99
Es	-2.149498	1.090301	0.293062	99
Es	-1.751104	-0.909571	0.855613	99
Es	-1.630267	-0.764266	0.126530	99
Es	-0.009128	-0.711432	-0.123523	99
Es	-0.019339	0.714123	0.110039	99
Es	-2.133069	-1.125329	-0.287768	99
Es	-1.661372	-0.013557	-0.000030	99
Es	-0.803450	-1.002493	-0.079709	99
Es	-0.207368	-1.370169	-0.012283	99
Es	-0.308139	1.218746	0.486667	99
Es	1.974048	-0.404326	-1.175375	99
Es	-0.293056	-1.217714	-0.501437	99
Es	1.042740	0.100770	-0.558719	99
Es	1.955446	0.014817	0.001800	99
Es	1.038857	-0.083411	0.551173	99
Es	-1.776061	0.881223	-0.854973	99
Es	1.766563	-0.114494	0.743190	99
Es	1.773517	0.141897	-0.741649	99
Es	1.962216	-0.775232	0.971181	99
Es	1.963370	0.805346	-0.967095	99
Es	-1.644730	0.737258	-0.126947	99
Es	-0.229774	1.368764	-0.004735	99
Es	-0.818948	0.991129	0.071411	99
Es	0.488260	0.005076	-0.006965	99
Es	1.954182	0.434486	1.179572	99
42
Properties=species:S:1:pos:R:3:Z:I:1 energy=-343.78143576207907 field_type=dipole dipole="0.000000 0.000000 0.000000" charge=0
C	1.773577	0.141927	-0.741818	6
C	1.766617	-0.114523	0.743362	6
C	0.488407	0.005077	-0.006968	6
O	-0.316283	1.169917	0.195432	8
C	-1.644953	0.737217	-0.127018	6
C	-1.630483	-0.764233	0.126602	6
O	-0.299263	-1.171333	-0.209398	8
H	2.056277	1.128807	-1.085648	1
H	2.069817	-0.668013	-1.395978	1
H	2.057477	-1.097453	1.091152	1
H	2.042977	0.699377	1.401592	1
H	-2.381823	1.262007	0.486732	1
H	-1.824023	0.960517	-1.184568	1
H	-2.364483	-1.300533	-0.478728	1
H	-1.793833	-0.988753	1.185252	1
Es	1.962302	-0.774976	0.971083	99
Es	-1.661281	-0.013502	-0.000136	99
Es	1.956071	0.014968	0.001690	99
Es	-0.230074	1.367632	-0.004914	99
Es	-2.133143	-1.125245	-0.287866	99
Es	-0.293195	-1.216094	-0.500866	99
Es	1.974067	-0.404028	-1.175009	99
Es	1.042179	0.100720	-0.558884	99
Es	-2.149615	1.090065	0.293193	99
Es	1.963530	0.805055	-0.967165	99
Es	-0.299355	-1.171069	-0.209278	99
Es	-0.009228	-0.711745	-0.123147	99
Es	-0.019320	0.714297	0.110216	99
Es	-1.751136	-0.909461	0.855690	99
Es	-0.206654	-1.371175	-0.013297	99
Es	-0.803855	-1.002625	-0.079529	99
Es	-1.630268	-0.764266	0.126530	99
Es	-0.819404	0.990937	0.071992	99
Es	-0.316385	1.169556	0.195167	99
Es	-1.776104	0.881164	-0.855046	99
Es	-1.644736	0.737257	-0.126948	99
Es	1.038547	-0.083370	0.551305	99
Es	1.773518	0.141896	-0.741645	99
Es	0.488255	0.005076	-0.006968	99
Es	1.954186	0.434120	1.179423	99
Es	-0.307278	1.219941	0.486343	99
Es	1.766561	-0.114493	0.743190	99
42
Properties=species:S:1:pos:R:3:Z:I:1 energy=-343.78143576207907 field_type=dipole dipole="0.000000 0.000000 0.000000" charge=0
C	1.773577	0.141927	-0.741818	6
C	1.766617	-0.114523	0.743362	6
C	0.488407	0.005077	-0.006968	6
O	-0.316283	1.169917	0.195432	8
C	-1.644953	0.737217	-0.127018	6
C	-1.630483	-0.764233	0.126602	6
O	-0.299263	-1.171333	-0.209398	8
H	2.056277	1.128807	-1.085648	1
H	2.069817	-0.668013	-1.395978	1
H	2.057477	-1.097453	1.091152	1
H	2.042977	0.699377	1.401592	1
H	-2.381823	1.262007	0.486732	1
H	-1.824023	0.960517	-1.184568	1
H	-2.364483	-1.300533	-0.478728	1
H	-1.793833	-0.988753	1.185252	1
Es	-2.133394	-1.125090	-0.288017	99
Es	0.488258	0.005074	-0.006955	99
Es	-0.803735	-1.002216	-0.079406	99
Es	-0.009324	-0.711518	-0.124746	99
Es	-0.819812	0.991031	0.072047	99
Es	-0.206473	-1.370218	-0.012245	99
Es	-0.018949	0.714898	0.108886	99
Es	1.962437	-0.774823	0.971031	99
Es	1.038188	-0.083305	0.551291	99
Es	-1.776137	0.881026	-0.855149	99
Es	1.963536	0.804740	-0.967048	99
Es	1.766552	-0.114492	0.743195	99
Es	-0.307679	1.216648	0.485556	99
Es	-0.299370	-1.171011	-0.209255	99
Es	1.974132	-0.403692	-1.174888	99
Es	-1.644733	0.737257	-0.126949	99
Es	-1.751096	-0.909234	0.855773	99
Es	1.773511	0.141897	-0.741648	99
Es	1.041838	0.100741	-0.559138	99
Es	-1.661118	-0.013603	-0.000057	99
Es	1.956591	0.014999	0.001993	99
Es	-0.229561	1.369996	-0.003021	99
Es	-0.293312	-1.217640	-0.500547	99
Es	-0.316363	1.169666	0.195345	99
Es	-2.149718	1.089911	0.293296	99
Es	1.954182	0.433859	1.179246	99
Es	-1.630265	-0.764267	0.126530	99
42
Properties=species:S:1:pos:R:3:Z:I:1 energy=-343.78143576207907 field_type=dipole dipole="0.000000 0.000000 0.000000" charge=0
C	1.773577	0.141927	-0.741818	6
C	1.766617	-0.114523	0.743362	6
C	0.488407	0.005077	-0.006968	6
O	-0.316283	1.169917	0.195432	8
C	-1.644953	0.737217	-0.127018	6
C	-1.630483	-0.764233	0.126602	6
O	-0.299263	-1.171333	-0.209398	8
H	2.056277	1.128807	-1.085648	1
H	2.069817	-0.668013	-1.395978	1
H	2.057477	-1.097453	1.091152	1
H	2.042977	0.699377	1.401592	1
H	-2.381823	1.262007	0.486732	1
H	-1.824023	0.960517	-1.184568	1
H	-2.364483	-1.300533	-0.478728	1
H	-1.793833	-0.988753	1.185252	1
Es	-1.630265	-0.764266	0.126529	99
Es	-0.299372	-1.170992	-0.209178	99
Es	-0.316355	1.169686	0.195339	99
Es	-0.309452	1.212843	0.485840	99
Es	1.963537	0.804580	-0.967027	99
Es	-1.660983	-0.013553	-0.000144	99
Es	-0.018566	0.715267	0.107649	99
Es	-0.008401	-0.712151	-0.121994	99
Es	1.773524	0.141897	-0.741651	99
Es	-2.133356	-1.124907	-0.288101	99
Es	1.957021	0.014884	0.001704	99
Es	-0.228329	1.372431	0.000425	99
Es	-0.293818	-1.212845	-0.499358	99
Es	-2.149814	1.089764	0.293477	99
Es	-0.206096	-1.373417	-0.016350	99
Es	-1.644732	0.737256	-0.126946	99
Es	-1.751217	-0.909227	0.855877	99
Es	0.488261	0.005077	-0.006974	99
Es	1.954180	0.433709	1.179018	99
Es	-0.804446	-1.003098	-0.079322	99
Es	1.041887	0.100713	-0.559184	99
Es	-0.819660	0.991917	0.069508	99
Es	1.974117	-0.403513	-1.174818	99
Es	-1.776171	0.880958	-0.855236	99
Es	1.766560	-0.114493	0.743191	99
Es	1.962379	-0.774537	0.971171	99
Es	1.037752	-0.083348	0.551675	99
42
Properties=species:S:1:pos:R:3:Z:I:1 energy=-343.78143576207907 field_type=dipole dipole="0.000000 0.000000 0.000000" charge=0
C	1.773577	0.141927	-0.741818	6
C	1.766617	-0.114523	0.743362	6
C	0.488407	0.005077	-0.006968	6
O	-0.316283	1.169917	0.195432	8
C	-1.644953	0.737217	-0.127018	6
C	-1.630483	-0.764233	0.126602	6
O	-0.299263	-1.171333	-0.209398	8
H	2.056277	1.128807	-1.085648	1
H	2.069817	-0.668013	-1.395978	1
H	2.057477	-1.097453	1.091152	1
H	2.042977	0.699377	1.401592	1
H	-2.381823	1.262007	0.486732	1
H	-1.824023	0.960517	-1.184568	1
H	-2.364483	-1.300533	-0.478728	1
H	-1.793833	-0.988753	1.185252	1
Es	-0.804656	-1.002702	-0.079748	99
Es	1.041569	0.100741	-0.559401	99
Es	1.954052	0.433412	1.178859	99
Es	-0.299395	-1.170982	-0.209263	99
Es	1.962526	-0.774451	0.971159	99
Es	1.773517	0.141897	-0.741647	99
Es	-1.776223	0.880914	-0.855294	99
Es	1.037684	-0.083305	0.551780	99
Es	-0.307282	1.217781	0.484998	99
Es	1.957286	0.015033	0.001808	99
Es	-1.644732	0.737256	-0.126947	99
Es	-0.008137	-0.711905	-0.123559	99
Es	-0.230176	1.368788	-0.002702	99
Es	1.963683	0.804443	-0.967077	99
Es	-2.133476	-1.124823	-0.288214	99
Es	-0.018274	0.715036	0.109022	99
Es	-0.293601	-1.214688	-0.498463	99
Es	-1.660889	-0.013625	-0.000114	99
Es	-1.630267	-0.764266	0.126530	99
Es	-1.751215	-0.909094	0.855940	99
Es	-0.206304	-1.372146	-0.015133	99
Es	-0.820186	0.990882	0.072207	99
Es	0.488263	0.005076	-0.006968	99
Es	-2.149827	1.089634	0.293509	99
Es	1.974080	-0.403365	-1.174593	99
Es	-0.316400	1.169589	0.195237	99
Es	1.766568	-0.114495	0.743192	99
42
Properties=species:S:1:pos:R:3:Z:I:1 energy=-343.78143576207907 field_type=dipole dipole="0.000000 0.000000 0.000000" charge=0
C	1.773577	0.141927	-0.741818	6
C	1.766617	-0.114523	0.743362	6
C	0.488407	0.005077	-0.006968	6
O	-0.316283	1.169917	0.195432	8
C	-1.644953	0.737217	-0.127018	6
C	-1.630483	-0.764233	0.126602	6
O	-0.299263	-1.171333	-0.209398	8
H	2.056277	1.128807	-1.085648	1
H	2.069817	-0.668013	-1.395978	1
H	2.057477	-1.097453	1.091152	1
H	2.042977	0.699377	1.401592	1
H	-2.381823	1.262007	0.486732	1
H	-1.824023	0.960517	-1.184568	1
H	-2.364483	-1.300533	-0.478728	1
H	-1.793833	-0.988753	1.185252	1
Es	1.773515	0.141896	-0.741645	99
Es	-0.007819	-0.712520	-0.121423	99
Es	-1.776294	0.880991	-0.855362	99
Es	-1.751268	-0.909140	0.855985	99
Es	-0.229937	1.369100	-0.002084	99
Es	-0.316387	1.169607	0.195322	99
Es	1.963606	0.804433	-0.967183	99
Es	-0.306547	1.216758	0.484026	99
Es	1.962455	-0.774346	0.971309	99
Es	1.037644	-0.083210	0.551828	99
Es	1.041394	0.100512	-0.559464	99
Es	-0.299372	-1.170978	-0.209183	99
Es	-0.820995	0.991418	0.073165	99
Es	-0.804854	-1.002793	-0.080078	99
Es	-0.206952	-1.372604	-0.016520	99
Es	-2.133466	-1.124704	-0.288281	99
Es	0.488257	0.005075	-0.006967	99
Es	1.957691	0.014944	0.001772	99
Es	-1.660848	-0.013585	-0.000152	99
Es	-0.293054	-1.213450	-0.498963	99
Es	-1.630271	-0.764266	0.126531	99
Es	1.766555	-0.114494	0.743189	99
Es	-2.149820	1.089473	0.293655	99
Es	1.974074	-0.403141	-1.174409	99
Es	1.954048	0.433282	1.178662	99
Es	-1.644739	0.737256	-0.126948	99
Es	-0.018432	0.715118	0.108339	99
42
Properties=species:S:1:pos:R:3:Z:I:1 energy=-343.78143576207907 field_type=dipole dipole="0.000000 0.000000 0.000000" charge=0
C	1.773577	0.141927	-0.741818	6
C	1.766617	-0.114523	0.743362	6
C	0.488407	0.005077	-0.006968	6
O	-0.316283	1.169917	0.195432	8
C	-1.644953	0.737217	-0.127018	6
C	-1.630483	-0.764233	0.126602	6
O	-0.299263	-1.171333	-0.209398	8
H	2.056277	1.128807	-1.085648	1
H	2.069817	-0.668013	-1.395978	1
H	2.057477	-1.097453	1.091152	1
H	2.042977	0.699377	1.401592	1
H	-2.381823	1.262007	0.486732	1
H	-1.824023	0.960517	-1.184568	1
H	-2.364483	-1.300533	-0.478728	1
H	-1.793833	-0.988753	1.185252	1
Es	1.037363	-0.083227	0.551926	99
Es	-0.308131	1.213909	0.484045	99
Es	0.488261	0.005076	-0.006972	99
Es	-0.316366	1.169618	0.195310	99
Es	-0.018033	0.715350	0.107773	99
Es	-0.820572	0.991540	0.071604	99
Es	-1.751264	-0.908962	0.856026	99
Es	1.963624	0.804196	-0.967171	99
Es	1.766559	-0.114494	0.743195	99
Es	-1.776271	0.880832	-0.855321	99
Es	1.973920	-0.402992	-1.174405	99
Es	1.773519	0.141896	-0.741647	99
Es	-2.149970	1.089434	0.293703	99
Es	-0.229115	1.371514	-0.000013	99
Es	-0.292279	-1.216106	-0.498120	99
Es	-1.644735	0.737262	-0.126941	99
Es	1.954037	0.433122	1.178549	99
Es	-1.630266	-0.764267	0.126529	99
Es	-2.133530	-1.124738	-0.288308	99
Es	1.958090	0.014927	0.001923	99
Es	-0.805235	-1.002461	-0.080918	99
Es	-0.207273	-1.370431	-0.014536	99
Es	-0.299380	-1.171057	-0.209287	99
Es	1.962538	-0.774209	0.971272	99
Es	-0.007844	-0.712160	-0.123258	99
Es	-1.660789	-0.013585	-0.000269	99
Es	1.041326	0.100647	-0.559570	99
42
Properties=species:S:1:pos:R:3:Z:I:1 energy=-343.78143576207907 field_type=dipole dipole="0.000000 0.000000 0.000000" charge=0
C	1.773577	0.141927	-0.741818	6
C	1.766617	-0.114523	0.743362	6
C	0.488407	0.005077	-0.006968	6
O	-0.316283	1.169917	0.195432	8
C	-1.644953	0.737217	-0.127018	6
C	-1.630483	-0.764233	0.126602	6
O	-0.299263	-1.171333	-0.209398	8
H	2.056277	1.128807	-1.085648	1
H	2.069817	-0.668013	-1.395978	1
H	2.057477	-1.097453	1.091152	1
H	2.042977	0.699377	1.401592	1
H	-2.381823	1.262007	0.486732	1
H	-1.824023	0.960517	-1.184568	1
H	-2.364483	-1.300533	-0.478728	1
H	-1.793833	-0.988753	1.185252	1
Es	-0.308581	1.213112	0.483806	99
Es	-1.776287	0.880736	-0.855432	99
Es	-1.660686	-0.013588	-0.000117	99
Es	-0.299373	-1.171020	-0.209285	99
Es	-2.133582	-1.124550	-0.288379	99
Es	-1.644735	0.737256	-0.126948	99
Es	1.773522	0.141898	-0.741650	99
Es	0.488254	0.005076	-0.006968	99
Es	1.037375	-0.083284	0.551888	99
Es	1.041061	0.100560	-0.559542	99
Es	-0.820647	0.991698	0.071026	99
Es	-1.630264	-0.764268	0.126527	99
Es	1.963628	0.804166	-0.967204	99
Es	1.958472	0.015128	0.001796	99
Es	-0.293329	-1.212537	-0.498329	99
Es	-0.206534	-1.372832	-0.017537	99
Es	-0.229119	1.371924	0.001225	99
Es	-0.805244	-1.003097	-0.079591	99
Es	-0.017462	0.715547	0.107506	99
Es	1.766566	-0.114493	0.743191	99
Es	-1.751290	-0.908991	0.856086	99
Es	1.953871	0.432928	1.178639	99
Es	-2.149983	1.089375	0.293732	99
Es	-0.007539	-0.712707	-0.121445	99
Es	1.962564	-0.774179	0.971177	99
Es	1.973916	-0.402825	-1.174273	99
Es	-0.316389	1.169603	0.195223	99
42
Properties=species:S:1:pos:R:3:Z:I:1 energy=-343.78143576207907 field_type=dipole dipole="0.000000 0.000000 0.000000" charge=0
C	1.773577	0.141927	-0.741818	6
C	1.766617	-0.114523	0.743362	6
C	0.488407	0.005077	-0.006968	6
O	-0.316283	1.169917	0.195432	8
C	-1.644953	0.737217	-0.127018	6
C	-1.630483	-0.764233	0.126602	6
O	-0.299263	-1.171333	-0.209398	8
H	2.056277	1.128807	-1.085648	1
H	2.069817	-0.668013	-1.395978	1
H	2.057477	-1.097453	1.091152	1
H	2.042977	0.699377	1.401592	1
H	-2.381823	1.262007	0.486732	1
H	-1.824023	0.960517	-1.184568	1
H	-2.364483	-1.300533	-0.478728	1
H	-1.793833	-0.988753	1.185252	1
Es	-0.017356	0.715852	0.106645	99
Es	-0.805355	-1.002635	-0.080720	99
Es	-0.308561	1.211519	0.483268	99
Es	-1.630261	-0.764268	0.126528	99
Es	-2.149960	1.089222	0.293842	99
Es	-1.644733	0.737258	-0.126947	99
Es	-0.206947	-1.370685	-0.014969	99
Es	-0.316398	1.169573	0.195357	99
Es	-0.292429	-1.215623	-0.497962	99
Es	1.973984	-0.402777	-1.174163	99
Es	1.958572	0.015061	0.002130	99
Es	-2.133641	-1.124458	-0.288475	99
Es	1.037072	-0.083273	0.551852	99
Es	-0.820927	0.991800	0.071261	99
Es	1.953846	0.432873	1.178458	99
Es	-0.228900	1.373069	0.002215	99
Es	1.041130	0.100662	-0.559818	99
Es	0.488258	0.005075	-0.006960	99
Es	1.766562	-0.114494	0.743194	99
Es	-1.776390	0.880744	-0.855492	99
Es	-1.660605	-0.013535	-0.000089	99
Es	-1.751318	-0.908972	0.856096	99
Es	1.773509	0.141898	-0.741648	99
Es	-0.007906	-0.712157	-0.123353	99
Es	-0.299363	-1.171034	-0.209245	99
Es	1.963695	0.804001	-0.967173	99
Es	1.962606	-0.774062	0.971286	99
42
Properties=species:S:1:pos:R:3:Z:I:1 energy=-343.78143576207907 field_type=dipole dipole="0.000000 0.000000 0.000000" charge=0
C	1.773577	0.141927	-0.741818	6
C	1.766617	-0.114523	0.743362	6
C	0.488407	0.005077	-0.006968	6
O	-0.316283	1.169917	0.195432	8
C	-1.644953	0.737217	-0.127018	6
C	-1.630483	-0.764233	0.126602	6
O	-0.299263	-1.171333	-0.209398	8
H	2.056277	1.128807	-1.085648	1
H	2.069817	-0.668013	-1.395978	1
H	2.057477	-1.097453	1.091152	1
H	2.042977	0.699377	1.401592	1
H	-2.381823	1.262007	0.486732	1
H	-1.824023	0.960517	-1.184568	1
H	-2.364483	-1.300533	-0.478728	1
H	-1.793833	-0.988753	1.185252	1
Es	-1.644737	0.737255	-0.126951	99
Es	-0.292590	-1.213908	-0.498158	99
Es	1.963798	0.803980	-0.967211	99
Es	1.953906	0.432677	1.178336	99
Es	-0.316401	1.169615	0.195357	99
Es	-0.207022	-1.371536	-0.016791	99
Es	1.040860	0.100601	-0.559722	99
Es	1.973937	-0.402709	-1.174044	99
Es	1.962524	-0.773854	0.971282	99
Es	-0.007468	-0.712798	-0.121731	99
Es	-0.805504	-1.002873	-0.080126	99
Es	-0.228659	1.370371	-0.000642	99
Es	-2.133666	-1.124328	-0.288565	99
Es	1.766565	-0.114492	0.743190	99
Es	1.773519	0.141899	-0.741649	99
Es	-2.150058	1.089280	0.293797	99
Es	-1.776301	0.880589	-0.855509	99
Es	-0.299389	-1.171001	-0.209345	99
Es	-0.308662	1.215408	0.482419	99
Es	-0.820848	0.991533	0.071304	99
Es	0.488254	0.005076	-0.006966	99
Es	1.037081	-0.083227	0.552161	99
Es	-1.751370	-0.908991	0.856118	99
Es	-0.017571	0.714886	0.110330	99
Es	1.958795	0.015026	0.001681	99
Es	-1.630265	-0.764268	0.126528	99
Es	-1.660543	-0.013577	0.000029	99
42
Properties=species:S:1:pos:R:3:Z:I:1 energy=-343.78143576207907 field_type=dipole dipole="0.000000 0.000000 0.000000" charge=0
C	1.773577	0.141927	-0.741818	6
C	1.766617	-0.114523	0.743362	6
C	0.488407	0.005077	-0.006968	6
O	-0.316283	1.169917	0.195432	8
C	-1.644953	0.737217	-0.127018	6
C	-1.630483	-0.764233	0.126602	6
O	-0.299263	-1.171333	-0.209398	8
H	2.056277	1.128807	-1.085648	1
H	2.069817	-0.668013	-1.395978	1
H	2.057477	-1.097453	1.091152	1
H	2.042977	0.699377	1.401592	1
H	-2.381823	1.262007	0.486732	1
H	-1.824023	0.960517	-1.184568	1
H	-2.364483	-1.300533	-0.478728	1
H	-1.793833	-0.988753	1.185252	1
Es	1.963760	0.803929	-0.967005	99
Es	-0.292324	-1.215408	-0.497181	99
Es	-0.017998	0.715329	0.108049	99
Es	-0.307693	1.213896	0.483113	99
Es	-0.207025	-1.370467	-0.015702	99
Es	-1.751360	-0.908892	0.856173	99
Es	-1.630265	-0.764270	0.126525	99
Es	-1.776347	0.880546	-0.855577	99
Es	0.488254	0.005076	-0.006965	99
Es	-0.821234	0.991962	0.071923	99
Es	-1.644735	0.737257	-0.126947	99
Es	-0.007481	-0.712325	-0.123143	99
Es	1.036943	-0.083152	0.552066	99
Es	1.766558	-0.114493	0.743191	99
Es	-0.805731	-1.002800	-0.080766	99
Es	-0.228920	1.370653	0.000215	99
Es	1.040789	0.100542	-0.559841	99
Es	-2.133638	-1.124381	-0.288484	99
Es	-0.316282	1.169910	0.195430	99
Es	1.773517	0.141894	-0.741646	99
Es	-1.660624	-0.013511	-0.000039	99
Es	1.953861	0.432666	1.178151	99
Es	1.958991	0.014821	0.001890	99
Es	1.973909	-0.402423	-1.174149	99
Es	1.962656	-0.773902	0.971394	99
Es	-2.150022	1.089248	0.293805	99
Es	-0.299373	-1.171069	-0.209360	99
42
Properties=species:S:1:pos:R:3:Z:I:1 energy=-343.78143576207907 field_type=dipole dipole="0.000000 0.000000 0.000000" charge=0
C	1.773577	0.141927	-0.741818	6
C	1.766617	-0.114523	0.743362	6
C	0.488407	0.005077	-0.006968	6
O	-0.316283	1.169917	0.195432	8
C	-1.644953	0.737217	-0.127018	6
C	-1.630483	-0.764233	0.126602	6
O	-0.299263	-1.171333	-0.209398	8
H	2.056277	1.128807	-1.085648	1
H	2.069817	-0.668013	-1.395978	1
H	2.057477	-1.097453	1.091152	1
H	2.042977	0.699377	1.401592	1
H	-2.381823	1.262007	0.486732	1
H	-1.824023	0.960517	-1.184568	1
H	-2.364483	-1.300533	-0.478728	1
H	-1.793833	-0.988753	1.185252	1
Es	1.959222	0.015027	0.001882	99
Es	1.962688	-0.773773	0.971374	99
Es	0.488254	0.005076	-0.006968	99
Es	-0.017769	0.714923	0.109443	99
Es	-1.644734	0.737257	-0.126947	99
Es	-1.630274	-0.764249	0.126525	99
Es	1.036803	-0.083204	0.552253	99
Es	-0.299376	-1.171012	-0.209265	99
Es	-0.805621	-1.002840	-0.080458	99
Es	-1.776313	0.880501	-0.855602	99
Es	-0.307236	1.216556	0.482633	99
Es	-0.229560	1.369274	-0.001365	99
Es	-0.007018	-0.712285	-0.123180	99
Es	-0.206906	-1.371385	-0.016460	99
Es	-1.751408	-0.908901	0.856186	99
Es	1.040765	0.100606	-0.559831	99
Es	-2.150122	1.089175	0.293872	99
Es	1.973809	-0.402480	-1.173908	99
Es	-0.821193	0.991365	0.072844	99
Es	1.963791	0.803773	-0.967271	99
Es	1.773517	0.141897	-0.741647	99
Es	-0.316386	1.169581	0.195188	99
Es	1.766561	-0.114494	0.743190	99
Es	-2.133762	-1.124157	-0.288694	99
Es	-1.660401	-0.013603	0.000075	99
Es	-0.292976	-1.214515	-0.496822	99
Es	1.953830	0.432522	1.178076	99
42
Properties=species:S:1:pos:R:3:Z:I:1 energy=-343.78143576207907 field_type=dipole dipole="0.000000 0.000000 0.000000" charge=0
C	1.773577	0.141927	-0.741818	6
C	1.766617	-0.114523	0.743362	6
C	0.488407	0.005077	-0.006968	6
O	-0.316283	1.169917	0.195432	8
C	-1.644953	0.737217	-0.127018	6
C	-1.630483	-0.764233	0.126602	6
O	-0.299263	-1.171333	-0.209398	8
H	2.056277	1.128807	-1.085648	1
H	2.069817	-0.668013	-1.395978	1
H	2.057477	-1.097453	1.091152	1
H	2.042977	0.699377	1.401592	1
H	-2.381823	1.262007	0.486732	1
H	-1.824023	0.960517	-1.184568	1
H	-2.364483	-1.300533	-0.478728	1
H	-1.793833	-0.988753	1.185252	1
Es	-1.630264	-0.764268	0.126528	99
Es	1.040813	0.100617	-0.559882	99
Es	1.962544	-0.773732	0.971266	99
Es	-0.821455	0.991767	0.072217	99
Es	-0.805584	-1.002460	-0.080537	99
Es	-0.299381	-1.170992	-0.209233	99
Es	1.953949	0.432369	1.178109	99
Es	-0.006680	-0.712617	-0.122834	99
Es	1.973712	-0.402431	-1.173849	99
Es	-1.660423	-0.013575	0.000063	99
Es	0.488258	0.005076	-0.006971	99
Es	1.963915	0.803805	-0.967295	99
Es	-0.316269	1.169973	0.195431	99
Es	-0.307513	1.215432	0.482391	99
Es	-2.150078	1.089132	0.293900	99
Es	-0.017639	0.715199	0.109242	99
Es	1.036695	-0.083096	0.552301	99
Es	-1.751361	-0.908867	0.856214	99
Es	1.766563	-0.114494	0.743192	99
Es	-2.133813	-1.124141	-0.288679	99
Es	-1.644737	0.737256	-0.126948	99
Es	1.773515	0.141898	-0.741646	99
Es	-0.293067	-1.214300	-0.496825	99
Es	-0.207228	-1.371666	-0.016745	99
Es	1.959286	0.014924	0.001827	99
Es	-0.229212	1.369282	-0.000504	99
Es	-1.776361	0.880544	-0.855613	99
42
Properties=species:S:1:pos:R:3:Z:I:1 energy=-343.78143576207907 field_type=dipole dipole="0.000000 0.000000 0.000000" charge=0
C	1.773577	0.141927	-0.741818	6
C	1.766617	-0.114523	0.743362	6
C	0.488407	0.005077	-0.006968	6
O	-0.316283	1.169917	0.195432	8
C	-1.644953	0.737217	-0.127018	6
C	-1.630483	-0.764233	0.126602	6
O	-0.299263	-1.171333	-0.209398	8
H	2.056277	1.128807	-1.085648	1
H	2.069817	-0.668013	-1.395978	1
H	2.057477	-1.097453	1.091152	1
H	2.042977	0.699377	1.401592	1
H	-2.381823	1.262007	0.486732	1
H	-1.824023	0.960517	-1.184568	1
H	-2.364483	-1.300533	-0.478728	1
H	-1.793833	-0.988753	1.185252	1
Es	-0.316392	1.169596	0.195354	99
Es	1.962697	-0.773642	0.971145	99
Es	-1.751405	-0.908787	0.856277	99
Es	1.766567	-0.114493	0.743190	99
Es	1.973844	-0.402276	-1.173812	99
Es	-0.207145	-1.370383	-0.015701	99
Es	1.963841	0.803736	-0.967195	99
Es	-0.007429	-0.712461	-0.123072	99
Es	-0.299370	-1.171010	-0.209227	99
Es	-1.644734	0.737257	-0.126948	99
Es	-1.776370	0.880476	-0.855648	99
Es	-1.630262	-0.764268	0.126528	99
Es	-0.821421	0.991715	0.072077	99
Es	1.040663	0.100534	-0.559912	99
Es	1.036618	-0.083292	0.552272	99
Es	-2.133779	-1.124149	-0.288699	99
Es	-1.660416	-0.013576	-0.000027	99
Es	1.953764	0.432313	1.178221	99
Es	1.773519	0.141897	-0.741649	99
Es	-0.292045	-1.215451	-0.497085	99
Es	1.959480	0.015128	0.001796	99
Es	-2.150132	1.089064	0.293964	99
Es	-0.805903	-1.002660	-0.081100	99
Es	0.488254	0.005076	-0.006969	99
Es	-0.228686	1.370060	-0.000382	99
Es	-0.017612	0.714926	0.110000	99
Es	-0.307961	1.215307	0.481723	99
42
Properties=species:S:1:pos:R:3:Z:I:1 energy=-343.78143576207907 field_type=dipole dipole="0.000000 0.000000 0.000000" charge=0
C	1.773577	0.141927	-0.741818	6
C	1.766617	-0.114523	0.743362	6
C	0.488407	0.005077	-0.006968	6
O	-0.316283	1.169917	0.195432	8
C	-1.644953	0.737217	-0.127018	6
C	-1.630483	-0.764233	0.126602	6
O	-0.299263	-1.171333	-0.209398	8
H	2.056277	1.128807	-1.085648	1
H	2.069817	-0.668013	-1.395978	1
H	2.057477	-1.097453	1.091152	1