42
Properties=species:S:1:pos:R:3:Z:I:1 energy=-343.79397954799214 field_type=dipole dipole="0.000000 0.000000 0.000000" charge=0
C	1.387186	-0.121086	-0.025347	6
C	0.472406	-1.156266	0.604843	6
O	-0.667044	-1.458186	-0.203967	8
C	-1.669634	-0.526686	-0.121247	6
C	-1.562664	0.781864	0.145183	6
O	-0.418904	1.531664	0.248273	8
C	0.642596	1.074964	-0.594137	6
H	1.970266	-0.577966	-0.833807	1
H	2.105056	0.211614	0.733533	1
H	1.031516	-2.089996	0.735043	1
H	0.157666	-0.853636	1.613153	1
H	-2.627924	-1.004876	-0.289027	1
H	-2.430564	1.413284	0.297733	1
H	1.345816	1.908394	-0.705797	1
H	0.264226	0.866914	-1.604437	1
Es	-1.615225	0.204448	-0.324284	99
Es	1.125527	1.642197	-0.665216	99
Es	-0.340420	1.485220	0.527417	99
Es	-0.257112	-1.307294	0.103274	99
Es	-1.669443	-0.526904	-0.121304	99
Es	0.856963	-1.792632	0.688254	99
Es	0.920136	-0.625450	0.280729	99
Es	-0.667041	-1.457849	-0.203748	99
Es	-1.634055	0.054693	0.348052	99
Es	1.872084	0.103371	0.496974	99
Es	-2.155066	1.199503	0.245629	99
Es	0.642436	1.075004	-0.593969	99
Es	0.377627	0.922786	-1.279969	99
Es	0.472229	-1.156289	0.604667	99
Es	1.387158	-0.121083	-0.025347	99
Es	-1.022615	-1.067453	-0.152561	99
Es	0.252802	-0.938945	1.288487	99
Es	-0.504793	1.798394	0.141850	99
Es	-2.321248	-0.840119	-0.232401	99
Es	-0.043594	1.325320	-0.071200	99
Es	-1.562441	0.782044	0.145243	99
Es	-0.587187	-1.438155	-0.487682	99
Es	-0.835723	1.207979	0.188462	99
Es	-0.418983	1.531349	0.247982	99
Es	1.780800	-0.429611	-0.580073	99
Es	-0.795716	-1.698975	-0.085295	99
Es	1.002913	0.465684	-0.300148	99
42
Properties=species:S:1:pos:R:3:Z:I:1 energy=-343.79397954799214 field_type=dipole dipole="0.000000 0.000000 0.000000" charge=0
C	1.387186	-0.121086	-0.025347	6
C	0.472406	-1.156266	0.604843	6
O	-0.667044	-1.458186	-0.203967	8
C	-1.669634	-0.526686	-0.121247	6
C	-1.562664	0.781864	0.145183	6
O	-0.418904	1.531664	0.248273	8
C	0.642596	1.074964	-0.594137	6
H	1.970266	-0.577966	-0.833807	1
H	2.105056	0.211614	0.733533	1
H	1.031516	-2.089996	0.735043	1
H	0.157666	-0.853636	1.613153	1
H	-2.627924	-1.004876	-0.289027	1
H	-2.430564	1.413284	0.297733	1
H	1.345816	1.908394	-0.705797	1
H	0.264226	0.866914	-1.604437	1
Es	-1.024570	-1.067525	-0.152577	99
Es	0.919614	-0.625118	0.280754	99
Es	-1.562435	0.782054	0.145249	99
Es	1.126155	1.642717	-0.665566	99
Es	-1.633175	0.054794	0.347392	99
Es	-0.837632	1.209532	0.186147	99
Es	-0.418973	1.531357	0.247996	99
Es	-0.257104	-1.307215	0.103023	99
Es	-2.155298	1.199174	0.246855	99
Es	-0.587321	-1.419856	-0.472836	99
Es	-2.321390	-0.839836	-0.233302	99
Es	1.002371	0.465616	-0.300140	99
Es	-0.793693	-1.717465	-0.100343	99
Es	0.252663	-0.938545	1.287982	99
Es	1.780635	-0.429752	-0.580279	99
Es	1.387159	-0.121082	-0.025346	99
Es	-0.667147	-1.457850	-0.203645	99
Es	1.872202	0.103232	0.497149	99
Es	-0.344469	1.462701	0.510124	99
Es	0.642432	1.075006	-0.593963	99
Es	0.377435	0.922430	-1.279298	99
Es	-1.615237	0.204341	-0.323953	99
Es	0.472226	-1.156282	0.604675	99
Es	-0.044234	1.326476	-0.072027	99
Es	-0.498289	1.818401	0.162585	99
Es	-1.669439	-0.526915	-0.121301	99
Es	0.857527	-1.793158	0.688466	99
42
Properties=species:S:1:pos:R:3:Z:I:1 energy=-343.79397954799214 field_type=dipole dipole="0.000000 0.000000 0.000000" charge=0
C	1.387186	-0.121086	-0.025347	6
C	0.472406	-1.156266	0.604843	6
O	-0.667044	-1.458186	-0.203967	8
C	-1.669634	-0.526686	-0.121247	6
C	-1.562664	0.781864	0.145183	6
O	-0.418904	1.531664	0.248273	8
C	0.642596	1.074964	-0.594137	6
H	1.970266	-0.577966	-0.833807	1
H	2.105056	0.211614	0.733533	1
H	1.031516	-2.089996	0.735043	1
H	0.157666	-0.853636	1.613153	1
H	-2.627924	-1.004876	-0.289027	1
H	-2.430564	1.413284	0.297733	1
H	1.345816	1.908394	-0.705797	1
H	0.264226	0.866914	-1.604437	1
Es	1.126505	1.642792	-0.665524	99
Es	-0.044142	1.326213	-0.071826	99
Es	-0.588697	-1.397175	-0.455951	99
Es	-0.495610	1.826260	0.171629	99
Es	0.857860	-1.793318	0.688463	99
Es	-2.321302	-0.839514	-0.234505	99
Es	0.919438	-0.624832	0.280646	99
Es	-0.667015	-1.457881	-0.203782	99
Es	1.780685	-0.430089	-0.580606	99
Es	1.872136	0.103537	0.497531	99
Es	0.642432	1.075005	-0.593964	99
Es	-0.346705	1.455852	0.499575	99
Es	-1.669440	-0.526911	-0.121308	99
Es	-0.258364	-1.308237	0.104708	99
Es	-2.155326	1.198968	0.247625	99
Es	-0.789100	-1.736529	-0.123118	99
Es	-1.614542	0.204157	-0.323725	99
Es	0.252580	-0.938188	1.287918	99
Es	-1.562438	0.782053	0.145231	99
Es	-0.838241	1.208908	0.187802	99
Es	1.001873	0.465331	-0.300098	99
Es	0.472232	-1.156285	0.604674	99
Es	-1.026772	-1.070212	-0.148575	99
Es	-1.633485	0.054852	0.347546	99
Es	-0.419040	1.531366	0.248050	99
Es	0.377332	0.922192	-1.279249	99
Es	1.387157	-0.121084	-0.025346	99
42
Properties=species:S:1:pos:R:3:Z:I:1 energy=-343.79397954799214 field_type=dipole dipole="0.000000 0.000000 0.000000" charge=0
C	1.387186	-0.121086	-0.025347	6
C	0.472406	-1.156266	0.604843	6
O	-0.667044	-1.458186	-0.203967	8
C	-1.669634	-0.526686	-0.121247	6
C	-1.562664	0.781864	0.145183	6
O	-0.418904	1.531664	0.248273	8
C	0.642596	1.074964	-0.594137	6
H	1.970266	-0.577966	-0.833807	1
H	2.105056	0.211614	0.733533	1
H	1.031516	-2.089996	0.735043	1
H	0.157666	-0.853636	1.613153	1
H	-2.627924	-1.004876	-0.289027	1
H	-2.430564	1.413284	0.297733	1
H	1.345816	1.908394	-0.705797	1
H	0.264226	0.866914	-1.604437	1
Es	-0.839034	1.210617	0.184862	99
Es	-0.045033	1.327785	-0.073180	99
Es	-0.258752	-1.308947	0.105706	99
Es	-0.666881	-1.457583	-0.203995	99
Es	1.387159	-0.121082	-0.025346	99
Es	1.872082	0.103586	0.497790	99
Es	0.858085	-1.793401	0.688359	99
Es	-2.155223	1.198756	0.248406	99
Es	0.252543	-0.937976	1.287952	99
Es	0.377230	0.921996	-1.279257	99
Es	0.472233	-1.156287	0.604673	99
Es	1.126695	1.642881	-0.665464	99
Es	-0.787027	-1.742304	-0.132621	99
Es	0.919268	-0.624677	0.280532	99
Es	1.780705	-0.430270	-0.580856	99
Es	-1.562436	0.782051	0.145248	99
Es	-0.350032	1.443609	0.488408	99
Es	-0.418994	1.531381	0.248018	99
Es	-2.321144	-0.839319	-0.235196	99
Es	-1.669439	-0.526908	-0.121318	99
Es	-0.490698	1.835255	0.187300	99
Es	1.001631	0.465294	-0.299930	99
Es	-1.614555	0.204176	-0.323905	99
Es	0.642433	1.075006	-0.593964	99
Es	-1.633406	0.054853	0.347609	99
Es	-0.589780	-1.390165	-0.448582	99
Es	-1.027617	-1.071098	-0.147428	99
42
Properties=species:S:1:pos:R:3:Z:I:1 energy=-343.79397954799214 field_type=dipole dipole="0.000000 0.000000 0.000000" charge=0
C	1.387186	-0.121086	-0.025347	6
C	0.472406	-1.156266	0.604843	6
O	-0.667044	-1.458186	-0.203967	8
C	-1.669634	-0.526686	-0.121247	6
C	-1.562664	0.781864	0.145183	6
O	-0.418904	1.531664	0.248273	8
C	0.642596	1.074964	-0.594137	6
H	1.970266	-0.577966	-0.833807	1
H	2.105056	0.211614	0.733533	1
H	1.031516	-2.089996	0.735043	1
H	0.157666	-0.853636	1.613153	1
H	-2.627924	-1.004876	-0.289027	1
H	-2.430564	1.413284	0.297733	1
H	1.345816	1.908394	-0.705797	1
H	0.264226	0.866914	-1.604437	1
Es	-0.667101	-1.457880	-0.203634	99
Es	1.387158	-0.121082	-0.025346	99
Es	-2.155139	1.198582	0.248844	99
Es	0.642434	1.075007	-0.593963	99
Es	-0.045273	1.327635	-0.073265	99
Es	1.126896	1.642864	-0.665315	99
Es	0.472231	-1.156287	0.604672	99
Es	-0.258931	-1.308848	0.105510	99
Es	0.377153	0.921936	-1.279346	99
Es	-1.633272	0.054831	0.347778	99
Es	-1.562440	0.782046	0.145241	99
Es	-1.614492	0.204152	-0.323948	99
Es	0.858254	-1.793413	0.688212	99
Es	-0.786168	-1.746265	-0.137935	99
Es	1.780696	-0.430459	-0.580951	99
Es	1.001520	0.465105	-0.300033	99
Es	-0.352936	1.437579	0.481127	99
Es	-1.027451	-1.071054	-0.147393	99
Es	-0.418905	1.531271	0.248123	99
Es	0.919004	-0.624422	0.280491	99
Es	-1.669441	-0.526910	-0.121300	99
Es	1.872075	0.103787	0.498056	99
Es	-0.487434	1.840217	0.196285	99
Es	0.252503	-0.937965	1.288029	99
Es	-0.839314	1.212040	0.183282	99
Es	-2.321095	-0.839155	-0.235739	99
Es	-0.590519	-1.386080	-0.443659	99
42
Properties=species:S:1:pos:R:3:Z:I:1 energy=-343.79397954799214 field_type=dipole dipole="0.000000 0.000000 0.000000" charge=0
C	1.387186	-0.121086	-0.025347	6
C	0.472406	-1.156266	0.604843	6
O	-0.667044	-1.458186	-0.203967	8
C	-1.669634	-0.526686	-0.121247	6
C	-1.562664	0.781864	0.145183	6
O	-0.418904	1.531664	0.248273	8
C	0.642596	1.074964	-0.594137	6
H	1.970266	-0.577966	-0.833807	1
H	2.105056	0.211614	0.733533	1
H	1.031516	-2.089996	0.735043	1
H	0.157666	-0.853636	1.613153	1
H	-2.627924	-1.004876	-0.289027	1
H	-2.430564	1.413284	0.297733	1
H	1.345816	1.908394	-0.705797	1
H	0.264226	0.866914	-1.604437	1
Es	1.387158	-0.121082	-0.025346	99
Es	-0.258603	-1.308737	0.105561	99
Es	0.472229	-1.156283	0.604676	99
Es	-2.154980	1.198479	0.249198	99
Es	0.377105	0.921933	-1.279409	99
Es	-0.667025	-1.457899	-0.203811	99
Es	1.001356	0.464964	-0.299848	99
Es	0.858249	-1.793400	0.688097	99
Es	-2.320795	-0.839089	-0.235951	99
Es	-1.669442	-0.526907	-0.121314	99
Es	1.780656	-0.430434	-0.581158	99
Es	-0.782732	-1.751908	-0.148442	99
Es	0.919070	-0.624546	0.280442	99
Es	0.642434	1.075006	-0.593965	99
Es	-1.633300	0.054760	0.348084	99
Es	-0.839372	1.212051	0.183700	99
Es	-0.418997	1.531380	0.247969	99
Es	-0.046884	1.328907	-0.075209	99
Es	-0.592949	-1.378906	-0.435058	99
Es	-1.614741	0.204282	-0.324355	99
Es	-0.352699	1.433520	0.476252	99
Es	-1.028823	-1.072728	-0.145478	99
Es	1.126951	1.642809	-0.665263	99
Es	-1.562438	0.782048	0.145250	99
Es	0.252416	-0.937822	1.288195	99
Es	1.872100	0.103866	0.498084	99
Es	-0.485930	1.842968	0.202922	99
42
Properties=species:S:1:pos:R:3:Z:I:1 energy=-343.79397954799214 field_type=dipole dipole="0.000000 0.000000 0.000000" charge=0
C	1.387186	-0.121086	-0.025347	6
C	0.472406	-1.156266	0.604843	6
O	-0.667044	-1.458186	-0.203967	8
C	-1.669634	-0.526686	-0.121247	6
C	-1.562664	0.781864	0.145183	6
O	-0.418904	1.531664	0.248273	8
C	0.642596	1.074964	-0.594137	6
H	1.970266	-0.577966	-0.833807	1
H	2.105056	0.211614	0.733533	1
H	1.031516	-2.089996	0.735043	1
H	0.157666	-0.853636	1.613153	1
H	-2.627924	-1.004876	-0.289027	1
H	-2.430564	1.413284	0.297733	1
H	1.345816	1.908394	-0.705797	1
H	0.264226	0.866914	-1.604437	1
Es	1.872018	0.104056	0.498130	99
Es	-0.591906	-1.375677	-0.431227	99
Es	-1.669442	-0.526903	-0.121316	99
Es	-1.614912	0.204375	-0.324689	99
Es	1.001301	0.464797	-0.299933	99
Es	-0.047435	1.330210	-0.076689	99
Es	-0.782328	-1.754135	-0.154258	99
Es	-0.667052	-1.457852	-0.203730	99
Es	0.858300	-1.793363	0.688102	99
Es	0.919093	-0.624357	0.280499	99
Es	0.252444	-0.937835	1.288190	99
Es	1.126920	1.642803	-0.665248	99
Es	0.472232	-1.156285	0.604673	99
Es	-0.419035	1.531391	0.247917	99
Es	-2.320748	-0.839089	-0.235884	99
Es	-0.355150	1.427090	0.468373	99
Es	-0.840516	1.213910	0.181546	99
Es	0.377080	0.921947	-1.279439	99
Es	-1.562436	0.782052	0.145246	99
Es	-0.481813	1.846281	0.214554	99
Es	-0.260369	-1.310147	0.107723	99
Es	0.642434	1.075006	-0.593965	99
Es	-1.633098	0.054702	0.348157	99
Es	1.387160	-0.121082	-0.025346	99
Es	-1.028581	-1.072450	-0.145723	99
Es	-2.154875	1.198418	0.249289	99
Es	1.780731	-0.430631	-0.581129	99
42
Properties=species:S:1:pos:R:3:Z:I:1 energy=-343.79397954799214 field_type=dipole dipole="0.000000 0.000000 0.000000" charge=0
C	1.387186	-0.121086	-0.025347	6
C	0.472406	-1.156266	0.604843	6
O	-0.667044	-1.458186	-0.203967	8
C	-1.669634	-0.526686	-0.121247	6
C	-1.562664	0.781864	0.145183	6
O	-0.418904	1.531664	0.248273	8
C	0.642596	1.074964	-0.594137	6
H	1.970266	-0.577966	-0.833807	1
H	2.105056	0.211614	0.733533	1
H	1.031516	-2.089996	0.735043	1
H	0.157666	-0.853636	1.613153	1
H	-2.627924	-1.004876	-0.289027	1
H	-2.430564	1.413284	0.297733	1
H	1.345816	1.908394	-0.705797	1
H	0.264226	0.866914	-1.604437	1
Es	0.472233	-1.156287	0.604672	99
Es	-0.047041	1.329254	-0.075229	99
Es	-0.356791	1.426284	0.466779	99
Es	0.642428	1.075006	-0.593958	99
Es	1.780607	-0.430593	-0.581274	99
Es	-0.667053	-1.457853	-0.203722	99
Es	-0.260842	-1.310320	0.108195	99
Es	-1.633319	0.054682	0.348385	99
Es	-0.592740	-1.371598	-0.428089	99
Es	0.858326	-1.793370	0.688091	99
Es	-1.669440	-0.526909	-0.121312	99
Es	1.001296	0.465037	-0.299765	99
Es	1.872116	0.103903	0.498109	99
Es	-0.481337	1.847822	0.215246	99
Es	1.387159	-0.121082	-0.025346	99
Es	0.919005	-0.624443	0.280454	99
Es	-0.780524	-1.756635	-0.159793	99
Es	-0.418936	1.531432	0.248188	99
Es	1.127002	1.642830	-0.665182	99
Es	-2.154803	1.198365	0.249352	99
Es	0.377061	0.921813	-1.279504	99
Es	-2.320698	-0.839014	-0.236171	99
Es	-1.029104	-1.073897	-0.143884	99
Es	0.252379	-0.937693	1.288237	99
Es	-0.839906	1.214109	0.180743	99
Es	-1.614631	0.204336	-0.324654	99
Es	-1.562436	0.782050	0.145255	99
42
Properties=species:S:1:pos:R:3:Z:I:1 energy=-343.79397954799214 field_type=dipole dipole="0.000000 0.000000 0.000000" charge=0
C	1.387186	-0.121086	-0.025347	6
C	0.472406	-1.156266	0.604843	6
O	-0.667044	-1.458186	-0.203967	8
C	-1.669634	-0.526686	-0.121247	6
C	-1.562664	0.781864	0.145183	6
O	-0.418904	1.531664	0.248273	8
C	0.642596	1.074964	-0.594137	6
H	1.970266	-0.577966	-0.833807	1
H	2.105056	0.211614	0.733533	1
H	1.031516	-2.089996	0.735043	1
H	0.157666	-0.853636	1.613153	1
H	-2.627924	-1.004876	-0.289027	1
H	-2.430564	1.413284	0.297733	1
H	1.345816	1.908394	-0.705797	1
H	0.264226	0.866914	-1.604437	1
Es	-0.356860	1.425038	0.464827	99
Es	1.780755	-0.430792	-0.581322	99
Es	1.001371	0.465111	-0.299715	99
Es	0.642434	1.075005	-0.593966	99
Es	-1.614839	0.204417	-0.324886	99
Es	-1.562437	0.782048	0.145262	99
Es	-2.154664	1.198311	0.249516	99
Es	1.126958	1.642861	-0.665213	99
Es	0.377000	0.921762	-1.279510	99
Es	1.871934	0.103879	0.498075	99
Es	-0.480704	1.848302	0.218256	99
Es	-2.320648	-0.838977	-0.236233	99
Es	-0.418952	1.531374	0.248078	99
Es	-1.029308	-1.074040	-0.143724	99
Es	-0.593459	-1.368583	-0.422768	99
Es	0.472233	-1.156286	0.604673	99
Es	-0.261284	-1.310786	0.108846	99
Es	0.858293	-1.793342	0.688089	99
Es	0.919025	-0.624223	0.280490	99
Es	1.387159	-0.121082	-0.025346	99
Es	-0.667143	-1.457864	-0.203650	99
Es	-0.840134	1.214332	0.180816	99
Es	0.252327	-0.937715	1.288283	99
Es	-0.779102	-1.759111	-0.166006	99
Es	-1.633108	0.054597	0.348559	99
Es	-1.669442	-0.526908	-0.121306	99
Es	-0.047390	1.329901	-0.076304	99
42
Properties=species:S:1:pos:R:3:Z:I:1 energy=-343.79397954799214 field_type=dipole dipole="0.000000 0.000000 0.000000" charge=0
C	1.387186	-0.121086	-0.025347	6
C	0.472406	-1.156266	0.604843	6
O	-0.667044	-1.458186	-0.203967	8
C	-1.669634	-0.526686	-0.121247	6
C	-1.562664	0.781864	0.145183	6
O	-0.418904	1.531664	0.248273	8
C	0.642596	1.074964	-0.594137	6
H	1.970266	-0.577966	-0.833807	1
H	2.105056	0.211614	0.733533	1
H	1.031516	-2.089996	0.735043	1
H	0.157666	-0.853636	1.613153	1
H	-2.627924	-1.004876	-0.289027	1
H	-2.430564	1.413284	0.297733	1
H	1.345816	1.908394	-0.705797	1
H	0.264226	0.866914	-1.604437	1
Es	-0.592692	-1.368102	-0.420268	99
Es	0.858463	-1.793352	0.687954	99
Es	1.127159	1.642797	-0.665105	99
Es	-0.779087	-1.760244	-0.167932	99
Es	-0.047570	1.329355	-0.075580	99
Es	0.252339	-0.937678	1.288328	99
Es	-1.633378	0.054716	0.348343	99
Es	-0.839359	1.212306	0.183318	99
Es	0.642434	1.075006	-0.593965	99
Es	-1.028904	-1.073144	-0.145303	99
Es	1.780733	-0.430749	-0.581427	99
Es	-0.482392	1.848072	0.214397	99
Es	1.387158	-0.121082	-0.025346	99
Es	0.918769	-0.624226	0.280450	99
Es	-2.154746	1.198199	0.249895	99
Es	0.472232	-1.156286	0.604672	99
Es	0.377007	0.921685	-1.279564	99
Es	-0.667025	-1.457853	-0.203711	99
Es	-1.669439	-0.526910	-0.121311	99
Es	-1.562438	0.782048	0.145246	99
Es	-2.320629	-0.838934	-0.236496	99
Es	1.001243	0.464983	-0.299750	99
Es	-0.355759	1.427915	0.465688	99
Es	-0.262608	-1.311001	0.109812	99
Es	-0.418994	1.531313	0.248073	99
Es	1.871962	0.104058	0.498215	99
Es	-1.614466	0.204341	-0.324812	99
42
Properties=species:S:1:pos:R:3:Z:I:1 energy=-343.79397954799214 field_type=dipole dipole="0.000000 0.000000 0.000000" charge=0
C	1.387186	-0.121086	-0.025347	6
C	0.472406	-1.156266	0.604843	6
O	-0.667044	-1.458186	-0.203967	8
C	-1.669634	-0.526686	-0.121247	6
C	-1.562664	0.781864	0.145183	6
O	-0.418904	1.531664	0.248273	8
C	0.642596	1.074964	-0.594137	6
H	1.970266	-0.577966	-0.833807	1
H	2.105056	0.211614	0.733533	1
H	1.031516	-2.089996	0.735043	1
H	0.157666	-0.853636	1.613153	1
H	-2.627924	-1.004876	-0.289027	1
H	-2.430564	1.413284	0.297733	1
H	1.345816	1.908394	-0.705797	1
H	0.264226	0.866914	-1.604437	1
Es	-0.262014	-1.310622	0.109245	99
Es	1.126985	1.642861	-0.665145	99
Es	-0.048374	1.329767	-0.076827	99
Es	-1.633155	0.054605	0.348613	99
Es	1.780720	-0.430777	-0.581416	99
Es	-1.669439	-0.526908	-0.121316	99
Es	-1.614761	0.204439	-0.325017	99
Es	-2.154625	1.198225	0.249739	99
Es	0.642435	1.075005	-0.593966	99
Es	1.387158	-0.121082	-0.025346	99
Es	-0.479781	1.850126	0.221928	99
Es	-0.779327	-1.760449	-0.167755	99
Es	-0.357289	1.423745	0.460547	99
Es	-0.667098	-1.457874	-0.203662	99
Es	1.001290	0.465009	-0.299646	99
Es	-0.418905	1.531457	0.248136	99
Es	-0.839744	1.213848	0.182087	99
Es	-0.593357	-1.367985	-0.420305	99
Es	0.858366	-1.793370	0.688032	99
Es	0.472230	-1.156285	0.604672	99
Es	0.918978	-0.624338	0.280295	99
Es	0.376970	0.921698	-1.279579	99
Es	0.252339	-0.937520	1.288347	99
Es	-2.320552	-0.838938	-0.236456	99
Es	-1.562438	0.782049	0.145252	99
Es	-1.028560	-1.073424	-0.144931	99
Es	1.871960	0.103969	0.498296	99
42
Properties=species:S:1:pos:R:3:Z:I:1 energy=-343.79397954799214 field_type=dipole dipole="0.000000 0.000000 0.000000" charge=0
C	1.387186	-0.121086	-0.025347	6
C	0.472406	-1.156266	0.604843	6
O	-0.667044	-1.458186	-0.203967	8
C	-1.669634	-0.526686	-0.121247	6
C	-1.562664	0.781864	0.145183	6
O	-0.418904	1.531664	0.248273	8
C	0.642596	1.074964	-0.594137	6
H	1.970266	-0.577966	-0.833807	1
H	2.105056	0.211614	0.733533	1
H	1.031516	-2.089996	0.735043	1
H	0.157666	-0.853636	1.613153	1
H	-2.627924	-1.004876	-0.289027	1
H	-2.430564	1.413284	0.297733	1
H	1.345816	1.908394	-0.705797	1
H	0.264226	0.866914	-1.604437	1
Es	-0.478864	1.850673	0.224420	99
Es	-0.263955	-1.312186	0.111538	99
Es	-1.669439	-0.526908	-0.121313	99
Es	-0.667097	-1.457888	-0.203605	99
Es	-0.419071	1.531362	0.247952	99
Es	-1.029452	-1.074483	-0.143517	99
Es	-0.048667	1.330363	-0.077107	99
Es	-1.614753	0.204497	-0.325208	99
Es	-0.776848	-1.762615	-0.176341	99
Es	-0.357445	1.422499	0.459108	99
Es	0.376936	0.921710	-1.279561	99
Es	-2.320510	-0.838973	-0.236234	99
Es	-1.562437	0.782054	0.145236	99
Es	-2.154537	1.198215	0.249754	99
Es	-0.592979	-1.363274	-0.415393	99
Es	1.871918	0.104022	0.498213	99
Es	1.780792	-0.430639	-0.581348	99
Es	0.472234	-1.156285	0.604676	99
Es	1.001258	0.464985	-0.299735	99
Es	0.858348	-1.793267	0.687915	99
Es	0.252309	-0.937751	1.288442	99
Es	-1.633323	0.054607	0.348683	99
Es	0.642430	1.075005	-0.593961	99
Es	0.918964	-0.624337	0.280341	99
Es	1.387158	-0.121081	-0.025347	99
Es	1.127021	1.642889	-0.665160	99
Es	-0.839977	1.214042	0.181376	99
42
Properties=species:S:1:pos:R:3:Z:I:1 energy=-343.79397954799214 field_type=dipole dipole="0.000000 0.000000 0.000000" charge=0
C	1.387186	-0.121086	-0.025347	6
C	0.472406	-1.156266	0.604843	6
O	-0.667044	-1.458186	-0.203967	8
C	-1.669634	-0.526686	-0.121247	6
C	-1.562664	0.781864	0.145183	6
O	-0.418904	1.531664	0.248273	8
C	0.642596	1.074964	-0.594137	6
H	1.970266	-0.577966	-0.833807	1
H	2.105056	0.211614	0.733533	1
H	1.031516	-2.089996	0.735043	1
H	0.157666	-0.853636	1.613153	1
H	-2.627924	-1.004876	-0.289027	1
H	-2.430564	1.413284	0.297733	1
H	1.345816	1.908394	-0.705797	1
H	0.264226	0.866914	-1.604437	1
Es	1.001293	0.464909	-0.299667	99
Es	-0.418975	1.531362	0.248023	99
Es	-0.358856	1.420724	0.456189	99
Es	0.858355	-1.793355	0.687993	99
Es	-1.028901	-1.072990	-0.145525	99
Es	-0.840495	1.214734	0.180359	99
Es	-0.477283	1.851464	0.228457	99
Es	-1.669440	-0.526908	-0.121314	99
Es	1.127034	1.642856	-0.665119	99
Es	-2.320387	-0.838878	-0.236559	99
Es	1.387158	-0.121080	-0.025346	99
Es	0.918909	-0.624223	0.280313	99
Es	0.472233	-1.156285	0.604675	99
Es	1.872036	0.103992	0.498286	99
Es	-0.667076	-1.457892	-0.203776	99
Es	-1.633716	0.054554	0.349044	99
Es	-0.778246	-1.761874	-0.172970	99
Es	-0.048512	1.330762	-0.077231	99
Es	1.780637	-0.430787	-0.581424	99
Es	-0.264120	-1.312004	0.111316	99
Es	-1.614296	0.204416	-0.325149	99
Es	-0.592077	-1.365668	-0.416434	99
Es	0.376943	0.921753	-1.279577	99
Es	0.252314	-0.937613	1.288366	99
Es	-2.154516	1.198210	0.249600	99
Es	0.642433	1.075005	-0.593963	99
Es	-1.562438	0.782047	0.145253	99
42
Properties=species:S:1:pos:R:3:Z:I:1 energy=-343.79397954799214 field_type=dipole dipole="0.000000 0.000000 0.000000" charge=0
C	1.387186	-0.121086	-0.025347	6
C	0.472406	-1.156266	0.604843	6
O	-0.667044	-1.458186	-0.203967	8
C	-1.669634	-0.526686	-0.121247	6
C	-1.562664	0.781864	0.145183	6
O	-0.418904	1.531664	0.248273	8
C	0.642596	1.074964	-0.594137	6
H	1.970266	-0.577966	-0.833807	1
H	2.105056	0.211614	0.733533	1
H	1.031516	-2.089996	0.735043	1
H	0.157666	-0.853636	1.613153	1
H	-2.627924	-1.004876	-0.289027	1
H	-2.430564	1.413284	0.297733	1
H	1.345816	1.908394	-0.705797	1
H	0.264226	0.866914	-1.604437	1
Es	-0.418977	1.531382	0.248204	99
Es	-0.263238	-1.311285	0.110896	99
Es	-2.320376	-0.838847	-0.236618	99
Es	-0.779171	-1.761301	-0.170848	99
Es	1.780623	-0.430811	-0.581421	99
Es	-0.840008	1.214715	0.180742	99
Es	0.858464	-1.793414	0.687972	99
Es	1.872040	0.103906	0.498352	99
Es	-0.049615	1.331037	-0.078056	99
Es	-0.592556	-1.366537	-0.418151	99
Es	1.001157	0.464960	-0.299646	99
Es	1.127013	1.642835	-0.665100	99
Es	0.252309	-0.937594	1.288321	99
Es	1.387158	-0.121082	-0.025346	99
Es	-2.154590	1.198235	0.249653	99
Es	-1.562437	0.782048	0.145255	99
Es	0.918952	-0.624166	0.280281	99
Es	0.472233	-1.156285	0.604675	99
Es	-0.667063	-1.457877	-0.203725	99
Es	-0.476474	1.852863	0.232030	99
Es	-1.669440	-0.526908	-0.121313	99
Es	-1.633326	0.054528	0.348977	99
Es	-1.614576	0.204435	-0.325111	99
Es	-0.359036	1.419031	0.452931	99
Es	-1.028399	-1.073429	-0.145564	99
Es	0.642432	1.075005	-0.593963	99
Es	0.376915	0.921788	-1.279606	99
42
Properties=species:S:1:pos:R:3:Z:I:1 energy=-343.79397954799214 field_type=dipole dipole="0.000000 0.000000 0.000000" charge=0
C	1.387186	-0.121086	-0.025347	6
C	0.472406	-1.156266	0.604843	6
O	-0.667044	-1.458186	-0.203967	8
C	-1.669634	-0.526686	-0.121247	6
C	-1.562664	0.781864	0.145183	6
O	-0.418904	1.531664	0.248273	8
C	0.642596	1.074964	-0.594137	6
H	1.970266	-0.577966	-0.833807	1
H	2.105056	0.211614	0.733533	1
H	1.031516	-2.089996	0.735043	1
H	0.157666	-0.853636	1.613153	1
H	-2.627924	-1.004876	-0.289027	1
H	-2.430564	1.413284	0.297733	1
H	1.345816	1.908394	-0.705797	1
H	0.264226	0.866914	-1.604437	1
Es	-0.777374	-1.762572	-0.174212	99
Es	1.126953	1.642852	-0.665089	99
Es	-0.593688	-1.364900	-0.415316	99
Es	0.858396	-1.793421	0.688001	99
Es	1.780651	-0.430785	-0.581357	99
Es	0.376922	0.921925	-1.279581	99
Es	-0.840880	1.216194	0.178961	99
Es	-1.633333	0.054457	0.349239	99
Es	-2.320263	-0.838890	-0.236443	99
Es	-1.614724	0.204573	-0.325533	99
Es	1.387158	-0.121082	-0.025346	99
Es	0.472234	-1.156287	0.604674	99
Es	0.642435	1.075005	-0.593967	99
Es	-0.418934	1.531313	0.248074	99
Es	1.872024	0.103943	0.498235	99
Es	-0.050539	1.332312	-0.079361	99
Es	-0.263169	-1.311865	0.109926	99
Es	-0.474797	1.852748	0.235780	99
Es	0.252289	-0.937606	1.288321	99
Es	-2.154409	1.198164	0.249588	99
Es	-1.029210	-1.073264	-0.143992	99
Es	-1.562439	0.782044	0.145256	99
Es	-1.669439	-0.526910	-0.121312	99
Es	-0.667050	-1.457857	-0.203727	99
Es	0.918986	-0.624240	0.280362	99
Es	1.001210	0.464846	-0.299707	99
Es	-0.358997	1.416535	0.452347	99
42
Properties=species:S:1:pos:R:3:Z:I:1 energy=-343.79397954799214 field_type=dipole dipole="0.000000 0.000000 0.000000" charge=0
C	1.387186	-0.121086	-0.025347	6
C	0.472406	-1.156266	0.604843	6
O	-0.667044	-1.458186	-0.203967	8
C	-1.669634	-0.526686	-0.121247	6
C	-1.562664	0.781864	0.145183	6
O	-0.418904	1.531664	0.248273	8
C	0.642596	1.074964	-0.594137	6
H	1.970266	-0.577966	-0.833807	1
H	2.105056	0.211614	0.733533	1
H	1.031516	-2.089996	0.735043	1
H	0.157666	-0.853636	1.613153	1
H	-2.627924	-1.004876	-0.289027	1
H	-2.430564	1.413284	0.297733	1
H	1.345816	1.908394	-0.705797	1
H	0.264226	0.866914	-1.604437	1
Es	-1.669439	-0.526909	-0.121315	99
Es	0.472233	-1.156285	0.604674	99
Es	-0.594681	-1.363588	-0.412164	99
Es	1.387159	-0.121082	-0.025346	99
Es	1.127125	1.642894	-0.665160	99
Es	-0.418948	1.531380	0.248057	99
Es	0.858523	-1.793354	0.687901	99
Es	0.918748	-0.624134	0.280276	99
Es	-0.357422	1.421348	0.456184	99
Es	-0.263102	-1.311545	0.109747	99
Es	-0.049664	1.330961	-0.077941	99
Es	-1.633524	0.054493	0.349186	99
Es	0.376838	0.921622	-1.279553	99
Es	-0.667079	-1.457883	-0.203652	99
Es	1.872003	0.104060	0.498362	99
Es	0.252229	-0.937509	1.288435	99
Es	-1.029053	-1.073486	-0.144080	99
Es	1.780645	-0.430850	-0.581585	99
Es	-1.562438	0.782049	0.145253	99
Es	-0.776506	-1.764060	-0.177240	99
Es	-0.478024	1.851729	0.227454	99
Es	-2.154349	1.198040	0.249966	99
Es	-1.614595	0.204565	-0.325564	99
Es	1.001185	0.464854	-0.299539	99
Es	0.642432	1.075005	-0.593965	99
Es	-0.840071	1.213735	0.182127	99
Es	-2.320213	-0.838817	-0.236694	99
42
Properties=species:S:1:pos:R:3:Z:I:1 energy=-343.79397954799214 field_type=dipole dipole="0.000000 0.000000 0.000000" charge=0
C	1.387186	-0.121086	-0.025347	6
C	0.472406	-1.156266	0.604843	6
O	-0.667044	-1.458186	-0.203967	8
C	-1.669634	-0.526686	-0.121247	6
C	-1.562664	0.781864	0.145183	6
O	-0.418904	1.531664	0.248273	8
C	0.642596	1.074964	-0.594137	6
H	1.970266	-0.577966	-0.833807	1
H	2.105056	0.211614	0.733533	1
H	1.031516	-2.089996	0.735043	1
H	0.157666	-0.853636	1.613153	1
H	-2.627924	-1.004876	-0.289027	1
H	-2.430564	1.413284	0.297733	1
H	1.345816	1.908394	-0.705797	1
H	0.264226	0.866914	-1.604437	1
Es	0.858414	-1.793344	0.687897	99
Es	-0.839872	1.213622	0.181989	99
Es	1.127147	1.642915	-0.665061	99
Es	-1.669439	-0.526910	-0.121312	99
Es	-0.775612	-1.764832	-0.179309	99
Es	0.376880	0.921525	-1.279643	99
Es	-2.154323	1.198046	0.250051	99
Es	-1.614818	0.204641	-0.325737	99
Es	-0.477959	1.852079	0.227507	99
Es	-1.562437	0.782047	0.145256	99
Es	0.642433	1.075006	-0.593963	99
Es	0.252210	-0.937622	1.288446	99
Es	-0.594878	-1.362175	-0.410984	99
Es	-0.418978	1.531386	0.247915	99
Es	-0.049678	1.330696	-0.077521	99
Es	1.871994	0.103868	0.498271	99
Es	-1.029348	-1.074230	-0.143506	99
Es	1.387158	-0.121082	-0.025346	99
Es	-1.633228	0.054478	0.349166	99
Es	-0.667055	-1.457898	-0.203781	99
Es	-0.263576	-1.311391	0.110097	99
Es	-0.357737	1.421266	0.456015	99
Es	0.472235	-1.156285	0.604674	99
Es	0.918836	-0.624032	0.280343	99
Es	-2.320214	-0.838830	-0.236569	99
Es	1.780633	-0.430912	-0.581582	99
Es	1.001223	0.465200	-0.299489	99
42
Properties=species:S:1:pos:R:3:Z:I:1 energy=-343.79397954799214 field_type=dipole dipole="0.000000 0.000000 0.000000" charge=0
C	1.387186	-0.121086	-0.025347	6
C	0.472406	-1.156266	0.604843	6
O	-0.667044	-1.458186	-0.203967	8
C	-1.669634	-0.526686	-0.121247	6
C	-1.562664	0.781864	0.145183	6
O	-0.418904	1.531664	0.248273	8
C	0.642596	1.074964	-0.594137	6
H	1.970266	-0.577966	-0.833807	1
H	2.105056	0.211614	0.733533	1
H	1.031516	-2.089996	0.735043	1
H	0.157666	-0.853636	1.613153	1
H	-2.627924	-1.004876	-0.289027	1
H	-2.430564	1.413284	0.297733	1
H	1.345816	1.908394	-0.705797	1
H	0.264226	0.866914	-1.604437	1
Es	-2.154344	1.198055	0.250208	99
Es	1.387158	-0.121082	-0.025345	99
Es	-0.775229	-1.765455	-0.182039	99
Es	-0.356649	1.422509	0.456737	99
Es	0.472237	-1.156286	0.604676	99
Es	-1.562435	0.782051	0.145254	99
Es	0.252260	-0.937397	1.288429	99
Es	0.376833	0.921645	-1.279545	99
Es	-0.839225	1.212623	0.183405	99
Es	1.871901	0.104109	0.498333	99
Es	-0.263827	-1.311474	0.110838	99
Es	-1.614820	0.204618	-0.325673	99
Es	1.001211	0.464809	-0.299554	99
Es	0.858391	-1.793422	0.687944	99
Es	-2.320238	-0.838842	-0.236608	99
Es	-0.667199	-1.457758	-0.203610	99
Es	-0.479458	1.851692	0.225842	99
Es	0.642433	1.075006	-0.593964	99
Es	-0.418931	1.531275	0.248095	99
Es	-1.029166	-1.074256	-0.144018	99
Es	0.918770	-0.624346	0.280207	99
Es	-1.633202	0.054513	0.349029	99
Es	-0.049891	1.330880	-0.078154	99
Es	-1.669440	-0.526909	-0.121312	99
Es	-0.595059	-1.361543	-0.408608	99
Es	1.127177	1.642955	-0.665098	99
Es	1.780756	-0.430739	-0.581648	99
42
Properties=species:S:1:pos:R:3:Z:I:1 energy=-343.79397954799214 field_type=dipole dipole="0.000000 0.000000 0.000000" charge=0
C	1.387186	-0.121086	-0.025347	6
C	0.472406	-1.156266	0.604843	6
O	-0.667044	-1.458186	-0.203967	8
C	-1.669634	-0.526686	-0.121247	6
C	-1.562664	0.781864	0.145183	6
O	-0.418904	1.531664	0.248273	8
C	0.642596	1.074964	-0.594137	6
H	1.970266	-0.577966	-0.833807	1
H	2.105056	0.211614	0.733533	1
H	1.031516	-2.089996	0.735043	1
H	0.157666	-0.853636	1.613153	1
H	-2.627924	-1.004876	-0.289027	1
H	-2.430564	1.413284	0.297733	1
H	1.345816	1.908394	-0.705797	1
H	0.264226	0.866914	-1.604437	1
Es	-1.614876	0.204665	-0.325804	99
Es	1.780668	-0.430914	-0.581643	99
Es	-0.049874	1.330815	-0.077233	99
Es	0.376852	0.921648	-1.279627	99
Es	-1.633169	0.054458	0.349223	99
Es	-1.669439	-0.526908	-0.121314	99
Es	-0.263905	-1.312129	0.110819	99
Es	1.387158	-0.121082	-0.025346	99
Es	0.858389	-1.793358	0.687837	99
Es	-0.595312	-1.360292	-0.408183	99
Es	-1.562437	0.782049	0.145254	99
Es	0.642433	1.075006	-0.593965	99
Es	0.252205	-0.937565	1.288523	99
Es	-0.774595	-1.765705	-0.183549	99
Es	0.918822	-0.624090	0.280361	99
Es	-2.320157	-0.838806	-0.236666	99
Es	-0.667078	-1.457877	-0.203697	99
Es	-0.839494	1.212128	0.183405	99
Es	0.472234	-1.156286	0.604674	99
Es	-0.478953	1.852028	0.225685	99
Es	1.001156	0.464789	-0.299586	99
Es	-1.029603	-1.074530	-0.142840	99
Es	-0.356978	1.422898	0.455982	99
Es	-2.154267	1.197966	0.250194	99
Es	1.871971	0.104183	0.498258	99
Es	-0.418921	1.531256	0.248101	99
Es	1.127184	1.642886	-0.665040	99
42
Properties=species:S:1:pos:R:3:Z:I:1 energy=-343.79397954799214 field_type=dipole dipole="0.000000 0.000000 0.000000" charge=0
C	1.387186	-0.121086	-0.025347	6
C	0.472406	-1.156266	0.604843	6
O	-0.667044	-1.458186	-0.203967	8
C	-1.669634	-0.526686	-0.121247	6
C	-1.562664	0.781864	0.145183	6
O	-0.418904	1.531664	0.248273	8
C	0.642596	1.074964	-0.594137	6
H	1.970266	-0.577966	-0.833807	1
H	2.105056	0.211614	0.733533	1
H	1.031516	-2.089996	0.735043	1
H	0.157666	-0.853636	1.613153	1
H	-2.627924	-1.004876	-0.289027	1