44
Properties=species:S:1:pos:R:3:Z:I:1 energy=-307.9338440250293 field_type=dipole dipole="0.000000 0.000000 0.000000" charge=0
C	-2.073936	0.058444	-0.036534	6
C	-0.577696	0.127484	-0.000274	6
C	0.305164	-0.583626	-1.098343	6
C	1.380574	-0.274526	0.002326	6
C	0.262204	-0.779146	0.981526	6
C	1.350674	1.255424	0.145496	6
O	-0.068046	1.481944	0.138206	8
H	-2.508996	0.486134	0.872546	1
H	-2.421306	-0.976776	-0.117464	1
H	-2.471766	0.611894	-0.893314	1
H	0.418574	-0.048596	-2.045783	1
H	0.094734	-1.639466	-1.301374	1
H	2.333544	-0.799106	-0.027484	1
H	0.047804	-1.853476	0.974946	1
H	0.334824	-0.430846	2.015867	1
H	1.778554	1.597574	1.091916	1
H	1.815104	1.766664	-0.702264	1
Es	-2.073918	0.058434	-0.036535	99
Es	0.919487	-0.451714	-0.623522	99
Es	0.262232	-0.779098	0.981446	99
Es	0.159730	-1.303260	-1.217049	99
Es	1.380470	-0.274531	0.002323	99
Es	-1.332923	0.101244	-0.017829	99
Es	-0.140311	1.628674	-0.123080	99
Es	-0.234703	-0.345140	0.573063	99
Es	1.406673	0.484292	0.074176	99
Es	2.044184	-0.620673	-0.016596	99
Es	-0.209830	-0.231361	-0.636856	99
Es	-0.246361	0.962096	0.084553	99
Es	0.472637	1.391702	0.140347	99
Es	-2.297516	-0.649306	-0.091798	99
Es	0.305188	-0.583603	-1.098263	99
Es	-0.577545	0.127635	-0.000257	99
Es	1.675315	1.603523	-0.434695	99
Es	-2.363163	0.346375	0.581554	99
Es	1.350448	1.255410	0.145492	99
Es	-2.337943	0.432290	-0.619442	99
Es	-0.150478	1.574963	0.420069	99
Es	1.650330	1.487946	0.793074	99
Es	-0.067873	1.481609	0.138154	99
Es	0.311644	-0.539372	1.695959	99
Es	0.894822	-0.563614	0.564872	99
Es	0.114848	-1.507713	0.957739	99
Es	0.382651	-0.214897	-1.752902	99
44
Properties=species:S:1:pos:R:3:Z:I:1 energy=-307.9338440250293 field_type=dipole dipole="0.000000 0.000000 0.000000" charge=0
C	-2.073936	0.058444	-0.036534	6
C	-0.577696	0.127484	-0.000274	6
C	0.305164	-0.583626	-1.098343	6
C	1.380574	-0.274526	0.002326	6
C	0.262204	-0.779146	0.981526	6
C	1.350674	1.255424	0.145496	6
O	-0.068046	1.481944	0.138206	8
H	-2.508996	0.486134	0.872546	1
H	-2.421306	-0.976776	-0.117464	1
H	-2.471766	0.611894	-0.893314	1
H	0.418574	-0.048596	-2.045783	1
H	0.094734	-1.639466	-1.301374	1
H	2.333544	-0.799106	-0.027484	1
H	0.047804	-1.853476	0.974946	1
H	0.334824	-0.430846	2.015867	1
H	1.778554	1.597574	1.091916	1
H	1.815104	1.766664	-0.702264	1
Es	-0.577548	0.127638	-0.000255	99
Es	0.114512	-1.508190	0.957732	99
Es	-1.332987	0.101408	-0.017878	99
Es	0.262227	-0.779111	0.981454	99
Es	1.650220	1.487939	0.793067	99
Es	0.311605	-0.539234	1.695692	99
Es	-0.209451	-0.231396	-0.636950	99
Es	0.382637	-0.214746	-1.752629	99
Es	0.472873	1.392279	0.141070	99
Es	1.675288	1.603714	-0.434589	99
Es	-0.247402	0.961205	0.085383	99
Es	0.894996	-0.563476	0.564826	99
Es	-0.151106	1.577383	0.418230	99
Es	2.043862	-0.620561	-0.016750	99
Es	-2.297888	-0.649919	-0.091917	99
Es	-0.138731	1.626647	-0.122740	99
Es	1.406857	0.484485	0.074121	99
Es	0.305193	-0.583604	-1.098265	99
Es	1.380470	-0.274530	0.002323	99
Es	-0.234303	-0.345113	0.573283	99
Es	-2.362906	0.346480	0.581199	99
Es	-2.337798	0.432470	-0.618930	99
Es	-2.073917	0.058435	-0.036535	99
Es	-0.067869	1.481656	0.138102	99
Es	0.919405	-0.451730	-0.623323	99
Es	1.350447	1.255410	0.145489	99
Es	0.159409	-1.303625	-1.217212	99
44
Properties=species:S:1:pos:R:3:Z:I:1 energy=-307.9338440250293 field_type=dipole dipole="0.000000 0.000000 0.000000" charge=0
C	-2.073936	0.058444	-0.036534	6
C	-0.577696	0.127484	-0.000274	6
C	0.305164	-0.583626	-1.098343	6
C	1.380574	-0.274526	0.002326	6
C	0.262204	-0.779146	0.981526	6
C	1.350674	1.255424	0.145496	6
O	-0.068046	1.481944	0.138206	8
H	-2.508996	0.486134	0.872546	1
H	-2.421306	-0.976776	-0.117464	1
H	-2.471766	0.611894	-0.893314	1
H	0.418574	-0.048596	-2.045783	1
H	0.094734	-1.639466	-1.301374	1
H	2.333544	-0.799106	-0.027484	1
H	0.047804	-1.853476	0.974946	1
H	0.334824	-0.430846	2.015867	1
H	1.778554	1.597574	1.091916	1
H	1.815104	1.766664	-0.702264	1
Es	0.472910	1.392686	0.141002	99
Es	0.159182	-1.303854	-1.217214	99
Es	1.650230	1.488007	0.793037	99
Es	1.675254	1.603695	-0.434632	99
Es	-0.150392	1.576018	0.418079	99
Es	-0.209278	-0.231429	-0.637142	99
Es	0.262231	-0.779107	0.981453	99
Es	0.114276	-1.508468	0.957740	99
Es	0.311471	-0.539116	1.695525	99
Es	-2.298194	-0.650302	-0.091866	99
Es	-0.577544	0.127637	-0.000259	99
Es	-0.234002	-0.345259	0.573403	99
Es	0.382536	-0.214773	-1.752482	99
Es	-2.073916	0.058435	-0.036535	99
Es	1.380474	-0.274530	0.002324	99
Es	-1.332947	0.101587	-0.017931	99
Es	-2.362760	0.346663	0.580854	99
Es	0.305187	-0.583601	-1.098265	99
Es	2.043512	-0.620628	-0.016648	99
Es	-0.247877	0.960849	0.084051	99
Es	1.407077	0.484754	0.074152	99
Es	0.895064	-0.563270	0.564688	99
Es	-2.337703	0.432440	-0.618601	99
Es	1.350448	1.255410	0.145490	99
Es	-0.067905	1.481625	0.138226	99
Es	0.919573	-0.451643	-0.623149	99
Es	-0.138813	1.628089	-0.121302	99
44
Properties=species:S:1:pos:R:3:Z:I:1 energy=-307.9338440250293 field_type=dipole dipole="0.000000 0.000000 0.000000" charge=0
C	-2.073936	0.058444	-0.036534	6
C	-0.577696	0.127484	-0.000274	6
C	0.305164	-0.583626	-1.098343	6
C	1.380574	-0.274526	0.002326	6
C	0.262204	-0.779146	0.981526	6
C	1.350674	1.255424	0.145496	6
O	-0.068046	1.481944	0.138206	8
H	-2.508996	0.486134	0.872546	1
H	-2.421306	-0.976776	-0.117464	1
H	-2.471766	0.611894	-0.893314	1
H	0.418574	-0.048596	-2.045783	1
H	0.094734	-1.639466	-1.301374	1
H	2.333544	-0.799106	-0.027484	1
H	0.047804	-1.853476	0.974946	1
H	0.334824	-0.430846	2.015867	1
H	1.778554	1.597574	1.091916	1
H	1.815104	1.766664	-0.702264	1
Es	0.895265	-0.563114	0.564528	99
Es	-0.067853	1.481602	0.138232	99
Es	0.382555	-0.214603	-1.752387	99
Es	1.407166	0.484850	0.074162	99
Es	0.919462	-0.451724	-0.623113	99
Es	1.650170	1.488004	0.793065	99
Es	2.043327	-0.620536	-0.016646	99
Es	0.114142	-1.508640	0.957832	99
Es	-0.577545	0.127636	-0.000255	99
Es	1.380470	-0.274530	0.002323	99
Es	-0.149224	1.575933	0.417600	99
Es	0.311389	-0.539005	1.695356	99
Es	-0.248577	0.960549	0.084664	99
Es	0.305187	-0.583606	-1.098266	99
Es	1.350448	1.255410	0.145490	99
Es	-0.139363	1.628449	-0.120498	99
Es	0.158891	-1.304094	-1.217262	99
Es	-1.332934	0.101737	-0.017895	99
Es	-2.362736	0.346733	0.580589	99
Es	-2.298441	-0.650607	-0.091986	99
Es	-0.208870	-0.231469	-0.637193	99
Es	-0.233901	-0.345394	0.573525	99
Es	-2.337551	0.432468	-0.618256	99
Es	0.262233	-0.779108	0.981453	99
Es	1.675227	1.603807	-0.434607	99
Es	0.473068	1.392729	0.140079	99
Es	-2.073916	0.058434	-0.036535	99
44
Properties=species:S:1:pos:R:3:Z:I:1 energy=-307.9338440250293 field_type=dipole dipole="0.000000 0.000000 0.000000" charge=0
C	-2.073936	0.058444	-0.036534	6
C	-0.577696	0.127484	-0.000274	6
C	0.305164	-0.583626	-1.098343	6
C	1.380574	-0.274526	0.002326	6
C	0.262204	-0.779146	0.981526	6
C	1.350674	1.255424	0.145496	6
O	-0.068046	1.481944	0.138206	8
H	-2.508996	0.486134	0.872546	1
H	-2.421306	-0.976776	-0.117464	1
H	-2.471766	0.611894	-0.893314	1
H	0.418574	-0.048596	-2.045783	1
H	0.094734	-1.639466	-1.301374	1
H	2.333544	-0.799106	-0.027484	1
H	0.047804	-1.853476	0.974946	1
H	0.334824	-0.430846	2.015867	1
H	1.778554	1.597574	1.091916	1
H	1.815104	1.766664	-0.702264	1
Es	1.650174	1.488076	0.793078	99
Es	0.113923	-1.508698	0.957678	99
Es	-0.140655	1.629865	-0.118935	99
Es	0.262230	-0.779108	0.981456	99
Es	1.675206	1.603766	-0.434623	99
Es	-0.233640	-0.345286	0.573580	99
Es	0.919630	-0.451750	-0.622981	99
Es	0.895342	-0.563249	0.564615	99
Es	-1.332879	0.101763	-0.017750	99
Es	-2.337434	0.432513	-0.618182	99
Es	0.382409	-0.214581	-1.752301	99
Es	-2.362786	0.346725	0.580541	99
Es	0.158751	-1.304147	-1.217304	99
Es	-0.248655	0.960198	0.083938	99
Es	0.311345	-0.539021	1.695416	99
Es	1.407283	0.485063	0.074163	99
Es	1.350448	1.255410	0.145490	99
Es	1.380472	-0.274530	0.002326	99
Es	-0.577543	0.127637	-0.000266	99
Es	-0.208778	-0.231594	-0.637411	99
Es	0.305187	-0.583602	-1.098265	99
Es	-2.298496	-0.650673	-0.092093	99
Es	2.043086	-0.620480	-0.016677	99
Es	0.473430	1.393580	0.139234	99
Es	-0.148206	1.574011	0.417475	99
Es	-0.067838	1.481591	0.138329	99
Es	-2.073916	0.058435	-0.036536	99
44
Properties=species:S:1:pos:R:3:Z:I:1 energy=-307.9338440250293 field_type=dipole dipole="0.000000 0.000000 0.000000" charge=0
C	-2.073936	0.058444	-0.036534	6
C	-0.577696	0.127484	-0.000274	6
C	0.305164	-0.583626	-1.098343	6
C	1.380574	-0.274526	0.002326	6
C	0.262204	-0.779146	0.981526	6
C	1.350674	1.255424	0.145496	6
O	-0.068046	1.481944	0.138206	8
H	-2.508996	0.486134	0.872546	1
H	-2.421306	-0.976776	-0.117464	1
H	-2.471766	0.611894	-0.893314	1
H	0.418574	-0.048596	-2.045783	1
H	0.094734	-1.639466	-1.301374	1
H	2.333544	-0.799106	-0.027484	1
H	0.047804	-1.853476	0.974946	1
H	0.334824	-0.430846	2.015867	1
H	1.778554	1.597574	1.091916	1
H	1.815104	1.766664	-0.702264	1
Es	-2.362663	0.346749	0.580306	99
Es	0.919673	-0.451679	-0.623066	99
Es	-0.233443	-0.345435	0.573585	99
Es	-2.073916	0.058434	-0.036535	99
Es	-2.298638	-0.650913	-0.092051	99
Es	1.675195	1.603807	-0.434650	99
Es	-2.337438	0.432552	-0.618002	99
Es	-0.137710	1.626000	-0.120792	99
Es	2.043047	-0.620431	-0.016612	99
Es	0.158554	-1.304290	-1.217290	99
Es	-0.150594	1.578410	0.415437	99
Es	1.650175	1.488049	0.793110	99
Es	-0.067894	1.481594	0.138301	99
Es	0.311303	-0.538969	1.695372	99
Es	-0.577545	0.127636	-0.000257	99
Es	0.473516	1.393223	0.141440	99
Es	-0.208614	-0.231450	-0.637421	99
Es	1.380471	-0.274531	0.002324	99
Es	1.350448	1.255410	0.145490	99
Es	0.262229	-0.779108	0.981456	99
Es	0.305187	-0.583602	-1.098265	99
Es	1.407268	0.485052	0.074176	99
Es	-0.249134	0.960014	0.085703	99
Es	0.895273	-0.563186	0.564565	99
Es	-1.332908	0.101918	-0.017737	99
Es	0.382408	-0.214532	-1.752254	99
Es	0.113840	-1.508812	0.957664	99
44
Properties=species:S:1:pos:R:3:Z:I:1 energy=-307.9338440250293 field_type=dipole dipole="0.000000 0.000000 0.000000" charge=0
C	-2.073936	0.058444	-0.036534	6
C	-0.577696	0.127484	-0.000274	6
C	0.305164	-0.583626	-1.098343	6
C	1.380574	-0.274526	0.002326	6
C	0.262204	-0.779146	0.981526	6
C	1.350674	1.255424	0.145496	6
O	-0.068046	1.481944	0.138206	8
H	-2.508996	0.486134	0.872546	1
H	-2.421306	-0.976776	-0.117464	1
H	-2.471766	0.611894	-0.893314	1
H	0.418574	-0.048596	-2.045783	1
H	0.094734	-1.639466	-1.301374	1
H	2.333544	-0.799106	-0.027484	1
H	0.047804	-1.853476	0.974946	1
H	0.334824	-0.430846	2.015867	1
H	1.778554	1.597574	1.091916	1
H	1.815104	1.766664	-0.702264	1
Es	1.650124	1.488019	0.793131	99
Es	-0.208529	-0.231549	-0.637436	99
Es	1.407406	0.485207	0.074225	99
Es	1.380470	-0.274531	0.002323	99
Es	-0.151811	1.578169	0.415713	99
Es	-2.298749	-0.651009	-0.092063	99
Es	-2.337494	0.432695	-0.617883	99
Es	0.305186	-0.583602	-1.098266	99
Es	-0.233353	-0.345375	0.573677	99
Es	0.158518	-1.304313	-1.217321	99
Es	-0.248541	0.959669	0.084209	99
Es	1.350447	1.255410	0.145490	99
Es	-0.067862	1.481611	0.138195	99
Es	0.311304	-0.538917	1.695220	99
Es	0.473421	1.393956	0.142501	99
Es	0.382388	-0.214503	-1.752217	99
Es	0.895364	-0.563245	0.564556	99
Es	1.675248	1.603841	-0.434686	99
Es	0.262231	-0.779108	0.981455	99
Es	2.042853	-0.620421	-0.016636	99
Es	-2.073916	0.058434	-0.036535	99
Es	-0.136991	1.625809	-0.120569	99
Es	-1.332914	0.101936	-0.017796	99
Es	-0.577544	0.127637	-0.000257	99
Es	0.113643	-1.508907	0.957750	99
Es	0.919723	-0.451649	-0.622970	99
Es	-2.362528	0.346648	0.580187	99
44
Properties=species:S:1:pos:R:3:Z:I:1 energy=-307.9338440250293 field_type=dipole dipole="0.000000 0.000000 0.000000" charge=0
C	-2.073936	0.058444	-0.036534	6
C	-0.577696	0.127484	-0.000274	6
C	0.305164	-0.583626	-1.098343	6
C	1.380574	-0.274526	0.002326	6
C	0.262204	-0.779146	0.981526	6
C	1.350674	1.255424	0.145496	6
O	-0.068046	1.481944	0.138206	8
H	-2.508996	0.486134	0.872546	1
H	-2.421306	-0.976776	-0.117464	1
H	-2.471766	0.611894	-0.893314	1
H	0.418574	-0.048596	-2.045783	1
H	0.094734	-1.639466	-1.301374	1
H	2.333544	-0.799106	-0.027484	1
H	0.047804	-1.853476	0.974946	1
H	0.334824	-0.430846	2.015867	1
H	1.778554	1.597574	1.091916	1
H	1.815104	1.766664	-0.702264	1
Es	-2.298804	-0.651075	-0.091978	99
Es	-0.137158	1.625360	-0.120330	99
Es	-0.208341	-0.231596	-0.637474	99
Es	-2.362496	0.346843	0.580181	99
Es	-0.233200	-0.345303	0.573624	99
Es	2.042789	-0.620348	-0.016606	99
Es	0.262234	-0.779107	0.981452	99
Es	0.895197	-0.563439	0.564619	99
Es	1.650181	1.488108	0.793150	99
Es	0.113505	-1.508894	0.957652	99
Es	-2.337456	0.432546	-0.617837	99
Es	-0.249882	0.959669	0.085885	99
Es	0.158439	-1.304428	-1.217292	99
Es	0.473936	1.393688	0.141970	99
Es	0.382289	-0.214470	-1.752194	99
Es	0.311315	-0.538884	1.695334	99
Es	1.675195	1.603750	-0.434735	99
Es	-0.150731	1.578875	0.414326	99
Es	0.919859	-0.451518	-0.623088	99
Es	-0.577544	0.127635	-0.000257	99
Es	-1.332898	0.101930	-0.017894	99
Es	1.380470	-0.274531	0.002326	99
Es	-0.067906	1.481683	0.138225	99
Es	1.350446	1.255410	0.145490	99
Es	1.407382	0.485172	0.074247	99
Es	0.305187	-0.583598	-1.098262	99
Es	-2.073915	0.058434	-0.036535	99
44
Properties=species:S:1:pos:R:3:Z:I:1 energy=-307.9338440250293 field_type=dipole dipole="0.000000 0.000000 0.000000" charge=0
C	-2.073936	0.058444	-0.036534	6
C	-0.577696	0.127484	-0.000274	6
C	0.305164	-0.583626	-1.098343	6
C	1.380574	-0.274526	0.002326	6
C	0.262204	-0.779146	0.981526	6
C	1.350674	1.255424	0.145496	6
O	-0.068046	1.481944	0.138206	8
H	-2.508996	0.486134	0.872546	1
H	-2.421306	-0.976776	-0.117464	1
H	-2.471766	0.611894	-0.893314	1
H	0.418574	-0.048596	-2.045783	1
H	0.094734	-1.639466	-1.301374	1
H	2.333544	-0.799106	-0.027484	1
H	0.047804	-1.853476	0.974946	1
H	0.334824	-0.430846	2.015867	1
H	1.778554	1.597574	1.091916	1
H	1.815104	1.766664	-0.702264	1
Es	-2.073917	0.058435	-0.036534	99
Es	0.895437	-0.563222	0.564488	99
Es	0.262232	-0.779108	0.981454	99
Es	1.650180	1.488076	0.793166	99
Es	-0.138744	1.629367	-0.118552	99
Es	0.382364	-0.214504	-1.752163	99
Es	0.158402	-1.304373	-1.217330	99
Es	2.042698	-0.620277	-0.016668	99
Es	-0.577544	0.127636	-0.000255	99
Es	-0.067866	1.481603	0.138182	99
Es	-0.233146	-0.345447	0.573825	99
Es	-2.362578	0.346889	0.580102	99
Es	-0.149331	1.574657	0.415892	99
Es	0.919807	-0.451680	-0.622982	99
Es	-2.298938	-0.651132	-0.092114	99
Es	0.305187	-0.583603	-1.098265	99
Es	-0.208395	-0.231609	-0.637520	99
Es	-0.249308	0.959553	0.083054	99
Es	-1.332859	0.101979	-0.017848	99
Es	1.380472	-0.274530	0.002323	99
Es	-2.337327	0.432504	-0.617641	99
Es	0.113415	-1.508959	0.957679	99
Es	1.407398	0.485277	0.074207	99
Es	1.350448	1.255410	0.145490	99
Es	0.473548	1.394063	0.141503	99
Es	1.675201	1.603777	-0.434739	99
Es	0.311254	-0.538866	1.695243	99
44
Properties=species:S:1:pos:R:3:Z:I:1 energy=-307.9338440250293 field_type=dipole dipole="0.000000 0.000000 0.000000" charge=0
C	-2.073936	0.058444	-0.036534	6
C	-0.577696	0.127484	-0.000274	6
C	0.305164	-0.583626	-1.098343	6
C	1.380574	-0.274526	0.002326	6
C	0.262204	-0.779146	0.981526	6
C	1.350674	1.255424	0.145496	6
O	-0.068046	1.481944	0.138206	8
H	-2.508996	0.486134	0.872546	1
H	-2.421306	-0.976776	-0.117464	1
H	-2.471766	0.611894	-0.893314	1
H	0.418574	-0.048596	-2.045783	1
H	0.094734	-1.639466	-1.301374	1
H	2.333544	-0.799106	-0.027484	1
H	0.047804	-1.853476	0.974946	1
H	0.334824	-0.430846	2.015867	1
H	1.778554	1.597574	1.091916	1
H	1.815104	1.766664	-0.702264	1
Es	-0.249684	0.959577	0.084179	99
Es	-0.233105	-0.345507	0.573785	99
Es	1.407446	0.485270	0.074190	99
Es	1.675152	1.603757	-0.434718	99
Es	0.895515	-0.563229	0.564500	99
Es	0.262231	-0.779108	0.981455	99
Es	-0.577545	0.127638	-0.000254	99
Es	0.919819	-0.451736	-0.623031	99
Es	-0.208172	-0.231569	-0.637590	99
Es	0.113375	-1.508939	0.957683	99
Es	0.473852	1.394180	0.139057	99
Es	-0.147659	1.574352	0.416263	99
Es	-2.337198	0.432414	-0.617707	99
Es	0.311271	-0.538855	1.695256	99
Es	0.158185	-1.304469	-1.217340	99
Es	-2.298947	-0.651196	-0.092055	99
Es	0.382278	-0.214436	-1.752106	99
Es	1.650190	1.488143	0.793200	99
Es	-2.073916	0.058434	-0.036534	99
Es	-1.332887	0.101987	-0.017774	99
Es	1.350447	1.255410	0.145490	99
Es	0.305186	-0.583601	-1.098265	99
Es	1.380473	-0.274529	0.002323	99
Es	-0.067885	1.481659	0.138088	99
Es	2.042628	-0.620223	-0.016608	99
Es	-2.362659	0.347018	0.580010	99
Es	-0.140301	1.629470	-0.117500	99
44
Properties=species:S:1:pos:R:3:Z:I:1 energy=-307.9338440250293 field_type=dipole dipole="0.000000 0.000000 0.000000" charge=0
C	-2.073936	0.058444	-0.036534	6
C	-0.577696	0.127484	-0.000274	6
C	0.305164	-0.583626	-1.098343	6
C	1.380574	-0.274526	0.002326	6
C	0.262204	-0.779146	0.981526	6
C	1.350674	1.255424	0.145496	6
O	-0.068046	1.481944	0.138206	8
H	-2.508996	0.486134	0.872546	1
H	-2.421306	-0.976776	-0.117464	1
H	-2.471766	0.611894	-0.893314	1
H	0.418574	-0.048596	-2.045783	1
H	0.094734	-1.639466	-1.301374	1
H	2.333544	-0.799106	-0.027484	1
H	0.047804	-1.853476	0.974946	1
H	0.334824	-0.430846	2.015867	1
H	1.778554	1.597574	1.091916	1
H	1.815104	1.766664	-0.702264	1
Es	-2.073916	0.058434	-0.036535	99
Es	-2.299067	-0.651263	-0.092015	99
Es	0.262231	-0.779107	0.981454	99
Es	0.382234	-0.214516	-1.752153	99
Es	2.042573	-0.620292	-0.016656	99
Es	-0.067838	1.481587	0.138241	99
Es	-2.337342	0.432479	-0.617543	99
Es	1.650184	1.488129	0.793199	99
Es	-0.149117	1.575238	0.415632	99
Es	-0.577544	0.127634	-0.000257	99
Es	0.113201	-1.509017	0.957597	99
Es	1.407518	0.485315	0.074262	99
Es	-0.208078	-0.231570	-0.637552	99
Es	1.675171	1.603760	-0.434760	99
Es	-0.232877	-0.345472	0.573847	99
Es	0.311173	-0.538820	1.695264	99
Es	0.158140	-1.304468	-1.217243	99
Es	1.350449	1.255409	0.145490	99
Es	-1.332876	0.101999	-0.017879	99
Es	-0.138609	1.629007	-0.118610	99
Es	1.380471	-0.274530	0.002326	99
Es	0.305187	-0.583603	-1.098264	99
Es	-2.362475	0.346959	0.579926	99
Es	0.473563	1.393859	0.141235	99
Es	0.895431	-0.563221	0.564437	99
Es	0.919959	-0.451553	-0.623031	99
Es	-0.249653	0.959534	0.083583	99
44
Properties=species:S:1:pos:R:3:Z:I:1 energy=-307.9338440250293 field_type=dipole dipole="0.000000 0.000000 0.000000" charge=0
C	-2.073936	0.058444	-0.036534	6
C	-0.577696	0.127484	-0.000274	6
C	0.305164	-0.583626	-1.098343	6
C	1.380574	-0.274526	0.002326	6
C	0.262204	-0.779146	0.981526	6
C	1.350674	1.255424	0.145496	6
O	-0.068046	1.481944	0.138206	8
H	-2.508996	0.486134	0.872546	1
H	-2.421306	-0.976776	-0.117464	1
H	-2.471766	0.611894	-0.893314	1
H	0.418574	-0.048596	-2.045783	1
H	0.094734	-1.639466	-1.301374	1
H	2.333544	-0.799106	-0.027484	1
H	0.047804	-1.853476	0.974946	1
H	0.334824	-0.430846	2.015867	1
H	1.778554	1.597574	1.091916	1
H	1.815104	1.766664	-0.702264	1
Es	1.407559	0.485365	0.074246	99
Es	1.650144	1.488070	0.793214	99
Es	-0.577544	0.127637	-0.000256	99
Es	-0.151454	1.579830	0.413709	99
Es	-0.067852	1.481601	0.138090	99
Es	-2.337355	0.432664	-0.617627	99
Es	1.350448	1.255410	0.145490	99
Es	-1.332847	0.102035	-0.017762	99
Es	0.305189	-0.583599	-1.098262	99
Es	-0.232945	-0.345564	0.573846	99
Es	0.158168	-1.304521	-1.217321	99
Es	-2.362461	0.346784	0.579868	99
Es	-2.299029	-0.651267	-0.092045	99
Es	1.380470	-0.274531	0.002321	99
Es	1.675207	1.603826	-0.434783	99
Es	0.474062	1.394205	0.142329	99
Es	0.382183	-0.214377	-1.752120	99
Es	-0.208085	-0.231685	-0.637600	99
Es	0.262230	-0.779111	0.981459	99
Es	-0.136559	1.624342	-0.119876	99
Es	-2.073917	0.058435	-0.036535	99
Es	-0.249813	0.959229	0.085820	99
Es	0.311206	-0.538745	1.695184	99
Es	0.895491	-0.563285	0.564539	99
Es	0.919895	-0.451596	-0.623026	99
Es	0.113255	-1.509044	0.957726	99
Es	2.042447	-0.620196	-0.016630	99
44
Properties=species:S:1:pos:R:3:Z:I:1 energy=-307.9338440250293 field_type=dipole dipole="0.000000 0.000000 0.000000" charge=0
C	-2.073936	0.058444	-0.036534	6
C	-0.577696	0.127484	-0.000274	6
C	0.305164	-0.583626	-1.098343	6
C	1.380574	-0.274526	0.002326	6
C	0.262204	-0.779146	0.981526	6
C	1.350674	1.255424	0.145496	6
O	-0.068046	1.481944	0.138206	8
H	-2.508996	0.486134	0.872546	1
H	-2.421306	-0.976776	-0.117464	1
H	-2.471766	0.611894	-0.893314	1
H	0.418574	-0.048596	-2.045783	1
H	0.094734	-1.639466	-1.301374	1
H	2.333544	-0.799106	-0.027484	1
H	0.047804	-1.853476	0.974946	1
H	0.334824	-0.430846	2.015867	1
H	1.778554	1.597574	1.091916	1
H	1.815104	1.766664	-0.702264	1
Es	0.113214	-1.509052	0.957678	99
Es	-0.208005	-0.231688	-0.637699	99
Es	1.650181	1.488102	0.793216	99
Es	0.305187	-0.583602	-1.098265	99
Es	2.042437	-0.620230	-0.016625	99
Es	0.895519	-0.563175	0.564496	99
Es	-1.332781	0.102088	-0.017826	99
Es	-2.362405	0.346746	0.579804	99
Es	0.919865	-0.451579	-0.622914	99
Es	-0.137759	1.627017	-0.118740	99
Es	0.311163	-0.538762	1.695203	99
Es	1.350449	1.255409	0.145490	99
Es	-2.073916	0.058434	-0.036535	99
Es	-0.577544	0.127637	-0.000257	99
Es	1.380471	-0.274530	0.002323	99
Es	0.382229	-0.214395	-1.752119	99
Es	-0.067898	1.481661	0.138207	99
Es	1.407575	0.485398	0.074230	99
Es	-0.232868	-0.345568	0.573864	99
Es	-0.149424	1.577407	0.415061	99
Es	1.675193	1.603764	-0.434787	99
Es	0.473691	1.393780	0.140856	99
Es	0.262229	-0.779109	0.981454	99
Es	-2.299152	-0.651331	-0.092126	99
Es	0.158090	-1.304540	-1.217296	99
Es	-2.337397	0.432672	-0.617390	99
Es	-0.250252	0.959360	0.084694	99
44
Properties=species:S:1:pos:R:3:Z:I:1 energy=-307.9338440250293 field_type=dipole dipole="0.000000 0.000000 0.000000" charge=0
C	-2.073936	0.058444	-0.036534	6
C	-0.577696	0.127484	-0.000274	6
C	0.305164	-0.583626	-1.098343	6
C	1.380574	-0.274526	0.002326	6
C	0.262204	-0.779146	0.981526	6
C	1.350674	1.255424	0.145496	6
O	-0.068046	1.481944	0.138206	8
H	-2.508996	0.486134	0.872546	1
H	-2.421306	-0.976776	-0.117464	1
H	-2.471766	0.611894	-0.893314	1
H	0.418574	-0.048596	-2.045783	1
H	0.094734	-1.639466	-1.301374	1
H	2.333544	-0.799106	-0.027484	1
H	0.047804	-1.853476	0.974946	1
H	0.334824	-0.430846	2.015867	1
H	1.778554	1.597574	1.091916	1
H	1.815104	1.766664	-0.702264	1
Es	1.407436	0.485432	0.074301	99
Es	0.895568	-0.563237	0.564500	99
Es	1.350448	1.255410	0.145490	99
Es	0.919882	-0.451638	-0.622933	99
Es	-0.577544	0.127636	-0.000256	99
Es	1.675218	1.603801	-0.434821	99
Es	-2.073915	0.058434	-0.036535	99
Es	-0.151128	1.578973	0.413696	99
Es	1.650152	1.488076	0.793247	99
Es	2.042411	-0.620085	-0.016645	99
Es	0.158036	-1.304541	-1.217248	99
Es	-0.207973	-0.231674	-0.637743	99
Es	-2.337354	0.432636	-0.617482	99
Es	0.113237	-1.509084	0.957615	99
Es	-0.249585	0.959023	0.085767	99
Es	0.382217	-0.214421	-1.752145	99
Es	-0.137204	1.624548	-0.119468	99
Es	-2.299134	-0.651390	-0.092020	99
Es	-2.362380	0.346849	0.579772	99
Es	1.380471	-0.274529	0.002323	99
Es	-0.067955	1.481794	0.138180	99
Es	-1.332841	0.102111	-0.017837	99
Es	0.305187	-0.583602	-1.098267	99
Es	0.311181	-0.538793	1.695227	99
Es	0.262230	-0.779108	0.981456	99
Es	0.474320	1.394891	0.141910	99
Es	-0.232889	-0.345597	0.573913	99
44
Properties=species:S:1:pos:R:3:Z:I:1 energy=-307.9338440250293 field_type=dipole dipole="0.000000 0.000000 0.000000" charge=0
C	-2.073936	0.058444	-0.036534	6
C	-0.577696	0.127484	-0.000274	6
C	0.305164	-0.583626	-1.098343	6
C	1.380574	-0.274526	0.002326	6
C	0.262204	-0.779146	0.981526	6
C	1.350674	1.255424	0.145496	6
O	-0.068046	1.481944	0.138206	8
H	-2.508996	0.486134	0.872546	1
H	-2.421306	-0.976776	-0.117464	1
H	-2.471766	0.611894	-0.893314	1
H	0.418574	-0.048596	-2.045783	1
H	0.094734	-1.639466	-1.301374	1
H	2.333544	-0.799106	-0.027484	1
H	0.047804	-1.853476	0.974946	1
H	0.334824	-0.430846	2.015867	1
H	1.778554	1.597574	1.091916	1
H	1.815104	1.766664	-0.702264	1
Es	0.262232	-0.779106	0.981456	99
Es	0.158033	-1.304600	-1.217262	99
Es	1.650204	1.488161	0.793223	99
Es	-1.332882	0.102114	-0.017851	99
Es	2.042277	-0.620135	-0.016625	99
Es	1.407632	0.485433	0.074274	99
Es	0.113152	-1.509081	0.957609	99
Es	-2.299104	-0.651366	-0.092095	99
Es	1.350447	1.255410	0.145492	99
Es	1.380471	-0.274531	0.002324	99
Es	0.382219	-0.214428	-1.752100	99
Es	-0.577545	0.127637	-0.000258	99
Es	-0.149278	1.577095	0.414243	99
Es	-2.362448	0.346840	0.579824	99
Es	-2.337333	0.432601	-0.617444	99
Es	0.311136	-0.538732	1.695254	99
Es	-0.067859	1.481618	0.138175	99
Es	-0.232772	-0.345625	0.573926	99
Es	1.675152	1.603735	-0.434808	99
Es	0.895606	-0.563152	0.564491	99
Es	-0.250281	0.959076	0.085178	99
Es	-0.207917	-0.231658	-0.637708	99
Es	0.919829	-0.451636	-0.623007	99
Es	0.474176	1.394510	0.140799	99
Es	0.305189	-0.583602	-1.098263	99
Es	-2.073916	0.058434	-0.036535	99
Es	-0.138327	1.626901	-0.118315	99
44
Properties=species:S:1:pos:R:3:Z:I:1 energy=-307.9338440250293 field_type=dipole dipole="0.000000 0.000000 0.000000" charge=0
C	-2.073936	0.058444	-0.036534	6
C	-0.577696	0.127484	-0.000274	6
C	0.305164	-0.583626	-1.098343	6
C	1.380574	-0.274526	0.002326	6
C	0.262204	-0.779146	0.981526	6
C	1.350674	1.255424	0.145496	6
O	-0.068046	1.481944	0.138206	8
H	-2.508996	0.486134	0.872546	1
H	-2.421306	-0.976776	-0.117464	1
H	-2.471766	0.611894	-0.893314	1
H	0.418574	-0.048596	-2.045783	1
H	0.094734	-1.639466	-1.301374	1
H	2.333544	-0.799106	-0.027484	1
H	0.047804	-1.853476	0.974946	1
H	0.334824	-0.430846	2.015867	1
H	1.778554	1.597574	1.091916	1
H	1.815104	1.766664	-0.702264	1
Es	0.305188	-0.583602	-1.098265	99
Es	0.919963	-0.451619	-0.622877	99
Es	-2.337275	0.432527	-0.617409	99
Es	1.407624	0.485507	0.074166	99
Es	0.113135	-1.509061	0.957603	99
Es	1.650151	1.488001	0.793276	99
Es	-2.073915	0.058435	-0.036534	99
Es	1.675239	1.603840	-0.434764	99
Es	1.350448	1.255410	0.145490	99
Es	-0.232798	-0.345676	0.573998	99
Es	1.380470	-0.274530	0.002323	99
Es	-0.150493	1.579456	0.413567	99
Es	-2.299230	-0.651432	-0.091997	99
Es	-0.577544	0.127636	-0.000257	99
Es	-0.136484	1.624899	-0.119956	99
Es	-1.332797	0.102107	-0.017820	99
Es	0.382191	-0.214434	-1.752084	99
Es	-0.067980	1.481805	0.138194	99
Es	0.262226	-0.779109	0.981457	99
Es	2.042261	-0.620213	-0.016548	99
Es	0.895620	-0.563027	0.564385	99
Es	-0.250462	0.959168	0.086115	99
Es	0.473862	1.393950	0.142139	99
Es	-0.207870	-0.231706	-0.637808	99
Es	0.311087	-0.538797	1.695212	99
Es	0.157909	-1.304575	-1.217267	99
Es	-2.362435	0.346954	0.579658	99
44
Properties=species:S:1:pos:R:3:Z:I:1 energy=-307.9338440250293 field_type=dipole dipole="0.000000 0.000000 0.000000" charge=0
C	-2.073936	0.058444	-0.036534	6
C	-0.577696	0.127484	-0.000274	6
C	0.305164	-0.583626	-1.098343	6
C	1.380574	-0.274526	0.002326	6
C	0.262204	-0.779146	0.981526	6
C	1.350674	1.255424	0.145496	6
O	-0.068046	1.481944	0.138206	8
H	-2.508996	0.486134	0.872546	1
H	-2.421306	-0.976776	-0.117464	1
H	-2.471766	0.611894	-0.893314	1
H	0.418574	-0.048596	-2.045783	1
H	0.094734	-1.639466	-1.301374	1
H	2.333544	-0.799106	-0.027484	1
H	0.047804	-1.853476	0.974946	1
H	0.334824	-0.430846	2.015867	1
H	1.778554	1.597574	1.091916	1
H	1.815104	1.766664	-0.702264	1
Es	-0.577544	0.127636	-0.000259	99
Es	-0.067903	1.481682	0.138223	99
Es	0.919968	-0.451516	-0.622932	99
Es	-1.332825	0.102150	-0.017857	99
Es	0.311134	-0.538703	1.695283	99
Es	2.042284	-0.620171	-0.016524	99
Es	-0.148488	1.576629	0.414592	99
Es	-0.138992	1.627167	-0.117610	99
Es	0.113111	-1.509124	0.957565	99
Es	1.380471	-0.274530	0.002323	99
Es	-2.073916	0.058434	-0.036535	99
Es	-0.232714	-0.345749	0.574023	99
Es	-2.337272	0.432539	-0.617392	99
Es	0.382116	-0.214383	-1.752116	99
Es	-0.250436	0.959103	0.085244	99
Es	1.350457	1.255408	0.145490	99
Es	-2.362425	0.346949	0.579683	99
Es	1.407639	0.485455	0.074196	99
Es	1.650207	1.488118	0.793303	99
Es	0.157968	-1.304590	-1.217247	99
Es	0.305189	-0.583607	-1.098272	99
Es	-0.207840	-0.231788	-0.637812	99
Es	0.895478	-0.563045	0.564325	99
Es	0.262232	-0.779103	0.981452	99
Es	1.675107	1.603809	-0.434774	99
Es	0.474296	1.394604	0.139647	99
Es	-2.299211	-0.651460	-0.092022	99
44
Properties=species:S:1:pos:R:3:Z:I:1 energy=-307.9338440250293 field_type=dipole dipole="0.000000 0.000000 0.000000" charge=0
C	-2.073936	0.058444	-0.036534	6
C	-0.577696	0.127484	-0.000274	6
C	0.305164	-0.583626	-1.098343	6
C	1.380574	-0.274526	0.002326	6
C	0.262204	-0.779146	0.981526	6
C	1.350674	1.255424	0.145496	6
O	-0.068046	1.481944	0.138206	8
H	-2.508996	0.486134	0.872546	1
H	-2.421306	-0.976776	-0.117464	1
H	-2.471766	0.611894	-0.893314	1
H	0.418574	-0.048596	-2.045783	1
H	0.094734	-1.639466	-1.301374	1
H	2.333544	-0.799106	-0.027484	1
H	0.047804	-1.853476	0.974946	1
H	0.334824	-0.430846	2.015867	1
H	1.778554	1.597574	1.091916	1
H	1.815104	1.766664	-0.702264	1
Es	-0.207931	-0.231748	-0.637901	99
Es	0.157909	-1.304562	-1.217308	99
Es	0.113090	-1.509102	0.957619	99
Es	-1.332776	0.102081	-0.017702	99
Es	1.350450	1.255410	0.145489	99
Es	-0.148945	1.576788	0.414186	99
Es	0.895560	-0.563195	0.564482	99
Es	-0.138223	1.627253	-0.117370	99
Es	0.919918	-0.451644	-0.622831	99
Es	0.311104	-0.538694	1.695242	99
Es	-0.577544	0.127636	-0.000257	99
Es	0.474257	1.394556	0.140487	99
Es	-2.337272	0.432669	-0.617430	99
Es	-2.362362	0.346874	0.579648	99
Es	1.380472	-0.274530	0.002322	99
Es	-2.073916	0.058434	-0.036535	99
Es	-0.067861	1.481608	0.138235	99
Es	-0.250754	0.958997	0.084541	99
Es	1.650215	1.488118	0.793287	99
Es	0.305187	-0.583600	-1.098264	99
Es	2.042192	-0.620131	-0.016626	99
Es	1.407657	0.485538	0.074225	99
Es	0.382285	-0.214372	-1.752090	99
Es	1.675169	1.603740	-0.434824	99
Es	-0.232732	-0.345685	0.573942	99
Es	0.262228	-0.779108	0.981456	99
Es	-2.299286	-0.651417	-0.092023	99
44
Properties=species:S:1:pos:R:3:Z:I:1 energy=-307.9338440250293 field_type=dipole dipole="0.000000 0.000000 0.000000" charge=0
C	-2.073936	0.058444	-0.036534	6
C	-0.577696	0.127484	-0.000274	6
C	0.305164	-0.583626	-1.098343	6
C	1.380574	-0.274526	0.002326	6
C	0.262204	-0.779146	0.981526	6
C	1.350674	1.255424	0.145496	6
O	-0.068046	1.481944	0.138206	8
H	-2.508996	0.486134	0.872546	1
H	-2.421306	-0.976776	-0.117464	1
H	-2.471766	0.611894	-0.893314	1
H	0.418574	-0.048596	-2.045783	1
H	0.094734	-1.639466	-1.301374	1
H	2.333544	-0.799106	-0.027484	1
H	0.047804	-1.853476	0.974946	1
H	0.334824	-0.430846	2.015867	1
H	1.778554	1.597574	1.091916	1
H	1.815104	1.766664	-0.702264	1
Es	0.305187	-0.583601	-1.098265	99
Es	-0.232713	-0.345762	0.574099	99
Es	0.895529	-0.562996	0.564305	99
Es	0.262231	-0.779109	0.981455	99
Es	2.042221	-0.620144	-0.016600	99
Es	-0.250752	0.959306	0.083961	99
Es	-2.073917	0.058434	-0.036535	99
Es	0.382120	-0.214359	-1.752066	99
Es	-0.207765	-0.231746	-0.637744	99
Es	0.113045	-1.509180	0.957649	99