47
Properties=species:S:1:pos:R:3:Z:I:1 energy=-309.13021841002376 field_type=dipole dipole="0.000000 0.000000 0.000000" charge=0
C	-2.153448	-0.797258	-0.207579	6
C	-0.676588	-0.866988	-0.399729	6
C	-0.066319	-0.575158	-1.745739	6
C	0.112151	0.403582	-0.609869	6
C	1.469671	0.582562	0.012501	6
C	1.381092	1.121192	1.438791	6
O	0.957672	0.105102	2.341460	8
H	-2.383698	-0.496818	0.819300	1
H	-2.603418	-1.778488	-0.385439	1
H	-2.623418	-0.078228	-0.886419	1
H	-0.231918	-1.664748	0.185451	1
H	-0.719708	-0.290878	-2.562989	1
H	0.781771	-1.176758	-2.054719	1
H	-0.426348	1.343142	-0.686189	1
H	2.029422	1.296332	-0.602359	1
H	2.020152	-0.365278	0.008051	1
H	0.688532	1.965872	1.514991	1
H	2.368562	1.456712	1.770161	1
H	0.075841	-0.183898	2.050331	1
Es	1.841497	-0.064166	0.011785	99
Es	1.144850	-0.132872	2.289971	99
Es	0.924505	0.235932	2.618570	99
Es	1.381016	1.121011	1.438903	99
Es	-0.516362	-0.381827	-2.295940	99
Es	1.417497	0.853073	0.717058	99
Es	-2.458326	-1.465873	-0.328663	99
Es	-0.676525	-0.866879	-0.399836	99
Es	-0.312646	-0.177555	-0.309450	99
Es	0.482128	-0.035069	2.171488	99
Es	1.469633	0.582578	0.012503	99
Es	1.851015	1.075720	-0.405430	99
Es	-0.266195	1.039157	-0.658214	99
Es	-0.441404	-0.882156	-1.147662	99
Es	-2.153431	-0.797256	-0.207575	99
Es	1.092803	0.488642	1.988407	99
Es	0.514487	-0.979480	-1.950303	99
Es	0.123175	0.020359	-1.294999	99
Es	0.112111	0.403426	-0.609933	99
Es	-1.416193	-0.821467	-0.314917	99
Es	-0.364351	-1.402739	0.000569	99
Es	-2.467784	-0.303823	-0.671509	99
Es	0.784905	0.477191	-0.295469	99
Es	-0.066348	-0.575114	-1.745572	99
Es	0.957531	0.105134	2.341069	99
Es	-2.306464	-0.591892	0.496738	99
Es	2.058728	1.352071	1.663413	99
Es	0.900265	1.707668	1.476883	99
47
Properties=species:S:1:pos:R:3:Z:I:1 energy=-309.13021841002376 field_type=dipole dipole="0.000000 0.000000 0.000000" charge=0
C	-2.153448	-0.797258	-0.207579	6
C	-0.676588	-0.866988	-0.399729	6
C	-0.066319	-0.575158	-1.745739	6
C	0.112151	0.403582	-0.609869	6
C	1.469671	0.582562	0.012501	6
C	1.381092	1.121192	1.438791	6
O	0.957672	0.105102	2.341460	8
H	-2.383698	-0.496818	0.819300	1
H	-2.603418	-1.778488	-0.385439	1
H	-2.623418	-0.078228	-0.886419	1
H	-0.231918	-1.664748	0.185451	1
H	-0.719708	-0.290878	-2.562989	1
H	0.781771	-1.176758	-2.054719	1
H	-0.426348	1.343142	-0.686189	1
H	2.029422	1.296332	-0.602359	1
H	2.020152	-0.365278	0.008051	1
H	0.688532	1.965872	1.514991	1
H	2.368562	1.456712	1.770161	1
H	0.075841	-0.183898	2.050331	1
Es	0.112111	0.403427	-0.609932	99
Es	-0.676525	-0.866877	-0.399835	99
Es	-0.312718	-0.176911	-0.308141	99
Es	0.124553	0.022644	-1.295288	99
Es	1.140008	-0.127322	2.289608	99
Es	0.957512	0.105133	2.341123	99
Es	-0.515257	-0.382363	-2.295467	99
Es	-0.265458	1.038865	-0.658350	99
Es	0.483625	-0.038610	2.169242	99
Es	-1.416440	-0.821322	-0.315145	99
Es	-2.466667	-0.304203	-0.670820	99
Es	1.469633	0.582578	0.012504	99
Es	-2.306049	-0.590890	0.496829	99
Es	0.513343	-0.978858	-1.950432	99
Es	-0.364931	-1.402644	-0.000042	99
Es	-2.458921	-1.467259	-0.329258	99
Es	2.058484	1.352562	1.663628	99
Es	0.785081	0.477018	-0.295592	99
Es	1.851785	1.076212	-0.406465	99
Es	-2.153431	-0.797256	-0.207575	99
Es	-0.066345	-0.575108	-1.745571	99
Es	0.924839	0.232794	2.622215	99
Es	1.840423	-0.063718	0.011997	99
Es	1.381015	1.121008	1.438905	99
Es	1.095627	0.489645	1.987509	99
Es	1.417064	0.852846	0.716902	99
Es	0.900781	1.707096	1.476981	99
Es	-0.443025	-0.884694	-1.147644	99
47
Properties=species:S:1:pos:R:3:Z:I:1 energy=-309.13021841002376 field_type=dipole dipole="0.000000 0.000000 0.000000" charge=0
C	-2.153448	-0.797258	-0.207579	6
C	-0.676588	-0.866988	-0.399729	6
C	-0.066319	-0.575158	-1.745739	6
C	0.112151	0.403582	-0.609869	6
C	1.469671	0.582562	0.012501	6
C	1.381092	1.121192	1.438791	6
O	0.957672	0.105102	2.341460	8
H	-2.383698	-0.496818	0.819300	1
H	-2.603418	-1.778488	-0.385439	1
H	-2.623418	-0.078228	-0.886419	1
H	-0.231918	-1.664748	0.185451	1
H	-0.719708	-0.290878	-2.562989	1
H	0.781771	-1.176758	-2.054719	1
H	-0.426348	1.343142	-0.686189	1
H	2.029422	1.296332	-0.602359	1
H	2.020152	-0.365278	0.008051	1
H	0.688532	1.965872	1.514991	1
H	2.368562	1.456712	1.770161	1
H	0.075841	-0.183898	2.050331	1
Es	1.852167	1.076555	-0.407188	99
Es	-0.514599	-0.382880	-2.294908	99
Es	-2.459322	-1.468075	-0.329717	99
Es	0.785114	0.476883	-0.295444	99
Es	-0.676526	-0.866879	-0.399835	99
Es	1.137941	-0.123761	2.291561	99
Es	0.957552	0.105168	2.341289	99
Es	0.112112	0.403425	-0.609937	99
Es	-0.265092	1.038618	-0.658418	99
Es	1.381017	1.121011	1.438905	99
Es	0.512577	-0.978429	-1.950618	99
Es	1.839780	-0.063361	0.012089	99
Es	-0.443927	-0.886404	-1.147472	99
Es	-0.066347	-0.575110	-1.745570	99
Es	-2.305863	-0.590204	0.496865	99
Es	0.484814	-0.041862	2.168002	99
Es	1.097347	0.489339	1.986108	99
Es	2.058276	1.352951	1.663806	99
Es	0.923779	0.232661	2.622866	99
Es	-0.312718	-0.176741	-0.307512	99
Es	0.901151	1.706640	1.477000	99
Es	0.125741	0.024466	-1.295683	99
Es	-2.153432	-0.797256	-0.207574	99
Es	-2.465768	-0.304444	-0.670430	99
Es	1.469633	0.582579	0.012503	99
Es	1.416812	0.852712	0.716834	99
Es	-0.365434	-1.402537	-0.000374	99
Es	-1.416671	-0.821270	-0.315263	99
47
Properties=species:S:1:pos:R:3:Z:I:1 energy=-309.13021841002376 field_type=dipole dipole="0.000000 0.000000 0.000000" charge=0
C	-2.153448	-0.797258	-0.207579	6
C	-0.676588	-0.866988	-0.399729	6
C	-0.066319	-0.575158	-1.745739	6
C	0.112151	0.403582	-0.609869	6
C	1.469671	0.582562	0.012501	6
C	1.381092	1.121192	1.438791	6
O	0.957672	0.105102	2.341460	8
H	-2.383698	-0.496818	0.819300	1
H	-2.603418	-1.778488	-0.385439	1
H	-2.623418	-0.078228	-0.886419	1
H	-0.231918	-1.664748	0.185451	1
H	-0.719708	-0.290878	-2.562989	1
H	0.781771	-1.176758	-2.054719	1
H	-0.426348	1.343142	-0.686189	1
H	2.029422	1.296332	-0.602359	1
H	2.020152	-0.365278	0.008051	1
H	0.688532	1.965872	1.514991	1
H	2.368562	1.456712	1.770161	1
H	0.075841	-0.183898	2.050331	1
Es	0.112110	0.403423	-0.609934	99
Es	0.512069	-0.978103	-1.950777	99
Es	1.839395	-0.063432	0.012083	99
Es	-2.153430	-0.797254	-0.207577	99
Es	0.957496	0.105174	2.341118	99
Es	1.381022	1.121010	1.438907	99
Es	0.485869	-0.044691	2.166816	99
Es	1.097085	0.490485	1.986504	99
Es	-0.676529	-0.866880	-0.399830	99
Es	1.416605	0.852658	0.716714	99
Es	0.901405	1.706377	1.477026	99
Es	-0.514015	-0.383178	-2.294408	99
Es	0.924265	0.230565	2.624816	99
Es	-1.416682	-0.820934	-0.315369	99
Es	2.058118	1.353166	1.663899	99
Es	0.785258	0.476929	-0.295380	99
Es	1.852318	1.076806	-0.407565	99
Es	-2.305652	-0.589849	0.496846	99
Es	1.469633	0.582579	0.012503	99
Es	-2.459527	-1.468633	-0.329994	99
Es	-0.365773	-1.402551	-0.000769	99
Es	0.126357	0.025642	-1.295855	99
Es	1.136598	-0.120054	2.290655	99
Es	-0.312529	-0.176661	-0.307011	99
Es	-2.465425	-0.304698	-0.669951	99
Es	-0.066350	-0.575106	-1.745566	99
Es	-0.264850	1.038566	-0.658338	99
Es	-0.444726	-0.887562	-1.147677	99
47
Properties=species:S:1:pos:R:3:Z:I:1 energy=-309.13021841002376 field_type=dipole dipole="0.000000 0.000000 0.000000" charge=0
C	-2.153448	-0.797258	-0.207579	6
C	-0.676588	-0.866988	-0.399729	6
C	-0.066319	-0.575158	-1.745739	6
C	0.112151	0.403582	-0.609869	6
C	1.469671	0.582562	0.012501	6
C	1.381092	1.121192	1.438791	6
O	0.957672	0.105102	2.341460	8
H	-2.383698	-0.496818	0.819300	1
H	-2.603418	-1.778488	-0.385439	1
H	-2.623418	-0.078228	-0.886419	1
H	-0.231918	-1.664748	0.185451	1
H	-0.719708	-0.290878	-2.562989	1
H	0.781771	-1.176758	-2.054719	1
H	-0.426348	1.343142	-0.686189	1
H	2.029422	1.296332	-0.602359	1
H	2.020152	-0.365278	0.008051	1
H	0.688532	1.965872	1.514991	1
H	2.368562	1.456712	1.770161	1
H	0.075841	-0.183898	2.050331	1
Es	0.112115	0.403430	-0.609936	99
Es	-2.464831	-0.304805	-0.669775	99
Es	1.416536	0.852348	0.716656	99
Es	0.957475	0.105261	2.341220	99
Es	1.838962	-0.063343	0.011967	99
Es	1.469633	0.582579	0.012503	99
Es	-2.153431	-0.797256	-0.207574	99
Es	-2.305537	-0.589462	0.496923	99
Es	0.901631	1.706338	1.477129	99
Es	-0.312660	-0.176276	-0.306430	99
Es	-0.445329	-0.888415	-1.147620	99
Es	1.852508	1.077117	-0.407913	99
Es	1.381017	1.121011	1.438905	99
Es	-1.416890	-0.821204	-0.315415	99
Es	0.487339	-0.048418	2.165529	99
Es	-0.513494	-0.383423	-2.294042	99
Es	0.921950	0.231863	2.623780	99
Es	-0.676524	-0.866876	-0.399837	99
Es	2.057998	1.353148	1.663901	99
Es	0.785310	0.476968	-0.295332	99
Es	0.511614	-0.977940	-1.950804	99
Es	-0.066344	-0.575106	-1.745571	99
Es	-0.264582	1.038561	-0.658523	99
Es	0.126850	0.026316	-1.296045	99
Es	-0.365924	-1.402391	-0.000957	99
Es	1.136922	-0.117431	2.293855	99
Es	-2.459760	-1.469002	-0.330305	99
Es	1.097561	0.490204	1.985597	99
47
Properties=species:S:1:pos:R:3:Z:I:1 energy=-309.13021841002376 field_type=dipole dipole="0.000000 0.000000 0.000000" charge=0
C	-2.153448	-0.797258	-0.207579	6
C	-0.676588	-0.866988	-0.399729	6
C	-0.066319	-0.575158	-1.745739	6
C	0.112151	0.403582	-0.609869	6
C	1.469671	0.582562	0.012501	6
C	1.381092	1.121192	1.438791	6
O	0.957672	0.105102	2.341460	8
H	-2.383698	-0.496818	0.819300	1
H	-2.603418	-1.778488	-0.385439	1
H	-2.623418	-0.078228	-0.886419	1
H	-0.231918	-1.664748	0.185451	1
H	-0.719708	-0.290878	-2.562989	1
H	0.781771	-1.176758	-2.054719	1
H	-0.426348	1.343142	-0.686189	1
H	2.029422	1.296332	-0.602359	1
H	2.020152	-0.365278	0.008051	1
H	0.688532	1.965872	1.514991	1
H	2.368562	1.456712	1.770161	1
H	0.075841	-0.183898	2.050331	1
Es	0.127230	0.026902	-1.296289	99
Es	-0.366143	-1.402401	-0.001028	99
Es	-1.416819	-0.820970	-0.315625	99
Es	-0.066349	-0.575110	-1.745569	99
Es	0.785400	0.476761	-0.295449	99
Es	-2.459986	-1.469330	-0.330410	99
Es	1.381015	1.121010	1.438905	99
Es	-0.445688	-0.889015	-1.147635	99
Es	-0.264433	1.038676	-0.658535	99
Es	-2.153431	-0.797256	-0.207574	99
Es	1.852550	1.077229	-0.408129	99
Es	0.511323	-0.977807	-1.951014	99
Es	0.112113	0.403426	-0.609931	99
Es	-0.312583	-0.176185	-0.306124	99
Es	1.416273	0.852457	0.716492	99
Es	1.097924	0.491318	1.986223	99
Es	1.469633	0.582578	0.012504	99
Es	-0.513171	-0.383660	-2.293541	99
Es	0.487656	-0.049085	2.165093	99
Es	0.957522	0.105219	2.341255	99
Es	2.057878	1.353232	1.663984	99
Es	-2.305342	-0.589272	0.496790	99
Es	-0.676527	-0.866878	-0.399834	99
Es	1.838891	-0.063348	0.012144	99
Es	0.923491	0.229100	2.625866	99
Es	-2.464657	-0.304927	-0.669406	99
Es	1.134610	-0.115103	2.291546	99
Es	0.901737	1.706233	1.477176	99
47
Properties=species:S:1:pos:R:3:Z:I:1 energy=-309.13021841002376 field_type=dipole dipole="0.000000 0.000000 0.000000" charge=0
C	-2.153448	-0.797258	-0.207579	6
C	-0.676588	-0.866988	-0.399729	6
C	-0.066319	-0.575158	-1.745739	6
C	0.112151	0.403582	-0.609869	6
C	1.469671	0.582562	0.012501	6
C	1.381092	1.121192	1.438791	6
O	0.957672	0.105102	2.341460	8
H	-2.383698	-0.496818	0.819300	1
H	-2.603418	-1.778488	-0.385439	1
H	-2.623418	-0.078228	-0.886419	1
H	-0.231918	-1.664748	0.185451	1
H	-0.719708	-0.290878	-2.562989	1
H	0.781771	-1.176758	-2.054719	1
H	-0.426348	1.343142	-0.686189	1
H	2.029422	1.296332	-0.602359	1
H	2.020152	-0.365278	0.008051	1
H	0.688532	1.965872	1.514991	1
H	2.368562	1.456712	1.770161	1
H	0.075841	-0.183898	2.050331	1
Es	1.852649	1.077285	-0.408330	99
Es	-0.446248	-0.889555	-1.147595	99
Es	0.487305	-0.049151	2.165452	99
Es	0.127634	0.027708	-1.296250	99
Es	-0.676524	-0.866877	-0.399836	99
Es	1.098412	0.490460	1.985529	99
Es	-0.366227	-1.402415	-0.001136	99
Es	-2.153429	-0.797255	-0.207576	99
Es	0.925136	0.228727	2.627164	99
Es	0.785469	0.476762	-0.295473	99
Es	-2.464496	-0.305029	-0.669245	99
Es	1.416148	0.852497	0.716507	99
Es	0.957485	0.105263	2.341213	99
Es	-0.512865	-0.383752	-2.293198	99
Es	-0.264315	1.038754	-0.658443	99
Es	2.057813	1.353299	1.663946	99
Es	-1.416854	-0.820867	-0.315655	99
Es	-2.460042	-1.469589	-0.330501	99
Es	-0.312525	-0.176311	-0.306254	99
Es	1.381010	1.121009	1.438907	99
Es	1.132841	-0.113914	2.290691	99
Es	0.901815	1.706173	1.477153	99
Es	1.469635	0.582580	0.012502	99
Es	-2.305227	-0.589098	0.496760	99
Es	0.112110	0.403427	-0.609932	99
Es	0.511104	-0.977782	-1.951130	99
Es	-0.066347	-0.575109	-1.745567	99
Es	1.838650	-0.063446	0.012183	99
47
Properties=species:S:1:pos:R:3:Z:I:1 energy=-309.13021841002376 field_type=dipole dipole="0.000000 0.000000 0.000000" charge=0
C	-2.153448	-0.797258	-0.207579	6
C	-0.676588	-0.866988	-0.399729	6
C	-0.066319	-0.575158	-1.745739	6
C	0.112151	0.403582	-0.609869	6
C	1.469671	0.582562	0.012501	6
C	1.381092	1.121192	1.438791	6
O	0.957672	0.105102	2.341460	8
H	-2.383698	-0.496818	0.819300	1
H	-2.603418	-1.778488	-0.385439	1
H	-2.623418	-0.078228	-0.886419	1
H	-0.231918	-1.664748	0.185451	1
H	-0.719708	-0.290878	-2.562989	1
H	0.781771	-1.176758	-2.054719	1
H	-0.426348	1.343142	-0.686189	1
H	2.029422	1.296332	-0.602359	1
H	2.020152	-0.365278	0.008051	1
H	0.688532	1.965872	1.514991	1
H	2.368562	1.456712	1.770161	1
H	0.075841	-0.183898	2.050331	1
Es	-0.264271	1.038744	-0.658418	99
Es	0.785433	0.476758	-0.295505	99
Es	1.469635	0.582577	0.012501	99
Es	-2.305232	-0.588857	0.496776	99
Es	-0.312367	-0.176279	-0.305946	99
Es	-2.460167	-1.469776	-0.330694	99
Es	1.381015	1.121007	1.438906	99
Es	0.901901	1.706056	1.477174	99
Es	0.488147	-0.049721	2.164510	99
Es	0.957439	0.105290	2.341180	99
Es	1.838464	-0.063358	0.012168	99
Es	1.852726	1.077369	-0.408510	99
Es	1.099084	0.491224	1.985992	99
Es	0.112112	0.403431	-0.609934	99
Es	-0.676523	-0.866871	-0.399830	99
Es	1.132385	-0.113217	2.291083	99
Es	2.057687	1.353397	1.664016	99
Es	0.127799	0.028274	-1.296315	99
Es	-1.416919	-0.820841	-0.315716	99
Es	-2.153430	-0.797256	-0.207575	99
Es	0.924106	0.227811	2.627327	99
Es	-0.446523	-0.890016	-1.147731	99
Es	1.416192	0.852408	0.716427	99
Es	-0.512573	-0.383981	-2.292853	99
Es	0.510942	-0.977697	-1.951204	99
Es	-0.066345	-0.575102	-1.745559	99
Es	-0.366422	-1.402383	-0.001309	99
Es	-2.464176	-0.305194	-0.669077	99
47
Properties=species:S:1:pos:R:3:Z:I:1 energy=-309.13021841002376 field_type=dipole dipole="0.000000 0.000000 0.000000" charge=0
C	-2.153448	-0.797258	-0.207579	6
C	-0.676588	-0.866988	-0.399729	6
C	-0.066319	-0.575158	-1.745739	6
C	0.112151	0.403582	-0.609869	6
C	1.469671	0.582562	0.012501	6
C	1.381092	1.121192	1.438791	6
O	0.957672	0.105102	2.341460	8
H	-2.383698	-0.496818	0.819300	1
H	-2.603418	-1.778488	-0.385439	1
H	-2.623418	-0.078228	-0.886419	1
H	-0.231918	-1.664748	0.185451	1
H	-0.719708	-0.290878	-2.562989	1
H	0.781771	-1.176758	-2.054719	1
H	-0.426348	1.343142	-0.686189	1
H	2.029422	1.296332	-0.602359	1
H	2.020152	-0.365278	0.008051	1
H	0.688532	1.965872	1.514991	1
H	2.368562	1.456712	1.770161	1
H	0.075841	-0.183898	2.050331	1
Es	1.838378	-0.063313	0.012110	99
Es	-0.676525	-0.866877	-0.399835	99
Es	0.112111	0.403427	-0.609931	99
Es	-2.464036	-0.305332	-0.669080	99
Es	0.921944	0.229474	2.625222	99
Es	1.852721	1.077525	-0.408630	99
Es	-0.264199	1.038633	-0.658419	99
Es	-0.066349	-0.575107	-1.745563	99
Es	1.133404	-0.112540	2.294015	99
Es	1.099461	0.490942	1.985554	99
Es	-0.446737	-0.890550	-1.147932	99
Es	0.127930	0.028493	-1.296324	99
Es	-0.512412	-0.383989	-2.292653	99
Es	-2.305189	-0.588663	0.496868	99
Es	-0.366520	-1.402313	-0.001283	99
Es	0.785697	0.476759	-0.295487	99
Es	1.415943	0.852379	0.716456	99
Es	0.902038	1.706063	1.477276	99
Es	1.469634	0.582579	0.012503	99
Es	0.957560	0.105168	2.341286	99
Es	2.057669	1.353334	1.663997	99
Es	-2.153431	-0.797256	-0.207575	99
Es	-1.416902	-0.820839	-0.315760	99
Es	0.510731	-0.977535	-1.951303	99
Es	-0.312424	-0.176083	-0.305792	99
Es	1.381017	1.121008	1.438907	99
Es	-2.460130	-1.469894	-0.330741	99
Es	0.488732	-0.051699	2.164000	99
47
Properties=species:S:1:pos:R:3:Z:I:1 energy=-309.13021841002376 field_type=dipole dipole="0.000000 0.000000 0.000000" charge=0
C	-2.153448	-0.797258	-0.207579	6
C	-0.676588	-0.866988	-0.399729	6
C	-0.066319	-0.575158	-1.745739	6
C	0.112151	0.403582	-0.609869	6
C	1.469671	0.582562	0.012501	6
C	1.381092	1.121192	1.438791	6
O	0.957672	0.105102	2.341460	8
H	-2.383698	-0.496818	0.819300	1
H	-2.603418	-1.778488	-0.385439	1
H	-2.623418	-0.078228	-0.886419	1
H	-0.231918	-1.664748	0.185451	1
H	-0.719708	-0.290878	-2.562989	1
H	0.781771	-1.176758	-2.054719	1
H	-0.426348	1.343142	-0.686189	1
H	2.029422	1.296332	-0.602359	1
H	2.020152	-0.365278	0.008051	1
H	0.688532	1.965872	1.514991	1
H	2.368562	1.456712	1.770161	1
H	0.075841	-0.183898	2.050331	1
Es	-2.463962	-0.305364	-0.668866	99
Es	0.901982	1.706011	1.477153	99
Es	0.112114	0.403431	-0.609932	99
Es	1.133610	-0.109510	2.297430	99
Es	0.919002	0.230862	2.624614	99
Es	0.785521	0.476658	-0.295509	99
Es	-1.416952	-0.820818	-0.315818	99
Es	0.510764	-0.977568	-1.951347	99
Es	0.491005	-0.055783	2.161959	99
Es	-2.305110	-0.588626	0.496792	99
Es	-0.312396	-0.176075	-0.305667	99
Es	-0.512171	-0.384085	-2.292433	99
Es	2.057584	1.353435	1.664070	99
Es	1.469633	0.582579	0.012503	99
Es	-0.066358	-0.575104	-1.745561	99
Es	1.381014	1.121010	1.438904	99
Es	-0.446983	-0.890562	-1.147790	99
Es	-2.153431	-0.797256	-0.207575	99
Es	-2.460295	-1.469973	-0.330807	99
Es	0.128030	0.028621	-1.296522	99
Es	1.852751	1.077576	-0.408627	99
Es	-0.366540	-1.402300	-0.001423	99
Es	-0.264041	1.038866	-0.658465	99
Es	1.099928	0.490571	1.984878	99
Es	1.838308	-0.063405	0.012082	99
Es	-0.676526	-0.866879	-0.399835	99
Es	0.957533	0.105198	2.341215	99
Es	1.416103	0.852285	0.716464	99
47
Properties=species:S:1:pos:R:3:Z:I:1 energy=-309.13021841002376 field_type=dipole dipole="0.000000 0.000000 0.000000" charge=0
C	-2.153448	-0.797258	-0.207579	6
C	-0.676588	-0.866988	-0.399729	6
C	-0.066319	-0.575158	-1.745739	6
C	0.112151	0.403582	-0.609869	6
C	1.469671	0.582562	0.012501	6
C	1.381092	1.121192	1.438791	6
O	0.957672	0.105102	2.341460	8
H	-2.383698	-0.496818	0.819300	1
H	-2.603418	-1.778488	-0.385439	1
H	-2.623418	-0.078228	-0.886419	1
H	-0.231918	-1.664748	0.185451	1
H	-0.719708	-0.290878	-2.562989	1
H	0.781771	-1.176758	-2.054719	1
H	-0.426348	1.343142	-0.686189	1
H	2.029422	1.296332	-0.602359	1
H	2.020152	-0.365278	0.008051	1
H	0.688532	1.965872	1.514991	1
H	2.368562	1.456712	1.770161	1
H	0.075841	-0.183898	2.050331	1
Es	1.415911	0.852379	0.716385	99
Es	0.128132	0.028918	-1.296678	99
Es	0.491217	-0.056205	2.161822	99
Es	0.957479	0.105282	2.341198	99
Es	-2.463838	-0.305509	-0.668781	99
Es	-2.460260	-1.470118	-0.330911	99
Es	2.057565	1.353480	1.664051	99
Es	0.920134	0.229147	2.625877	99
Es	-0.264040	1.038855	-0.658440	99
Es	-2.305150	-0.588488	0.496803	99
Es	0.785693	0.476641	-0.295515	99
Es	0.510647	-0.977531	-1.951494	99
Es	1.838234	-0.063426	0.012146	99
Es	-0.312414	-0.176084	-0.305572	99
Es	0.112116	0.403429	-0.609936	99
Es	1.852751	1.077620	-0.408787	99
Es	1.099150	0.491566	1.985666	99
Es	-0.366522	-1.402301	-0.001509	99
Es	1.381014	1.121009	1.438905	99
Es	0.902095	1.705925	1.477207	99
Es	-1.417053	-0.820790	-0.315848	99
Es	-2.153431	-0.797256	-0.207574	99
Es	-0.512009	-0.384171	-2.292114	99
Es	-0.066347	-0.575111	-1.745573	99
Es	-0.447138	-0.890686	-1.147680	99
Es	1.469633	0.582579	0.012503	99
Es	1.133078	-0.108474	2.295570	99
Es	-0.676531	-0.866883	-0.399834	99
47
Properties=species:S:1:pos:R:3:Z:I:1 energy=-309.13021841002376 field_type=dipole dipole="0.000000 0.000000 0.000000" charge=0
C	-2.153448	-0.797258	-0.207579	6
C	-0.676588	-0.866988	-0.399729	6
C	-0.066319	-0.575158	-1.745739	6
C	0.112151	0.403582	-0.609869	6
C	1.469671	0.582562	0.012501	6
C	1.381092	1.121192	1.438791	6
O	0.957672	0.105102	2.341460	8
H	-2.383698	-0.496818	0.819300	1
H	-2.603418	-1.778488	-0.385439	1
H	-2.623418	-0.078228	-0.886419	1
H	-0.231918	-1.664748	0.185451	1
H	-0.719708	-0.290878	-2.562989	1
H	0.781771	-1.176758	-2.054719	1
H	-0.426348	1.343142	-0.686189	1
H	2.029422	1.296332	-0.602359	1
H	2.020152	-0.365278	0.008051	1
H	0.688532	1.965872	1.514991	1
H	2.368562	1.456712	1.770161	1
H	0.075841	-0.183898	2.050331	1
Es	0.489295	-0.053989	2.163691	99
Es	0.785689	0.476656	-0.295475	99
Es	-0.447451	-0.890945	-1.147823	99
Es	-2.460245	-1.470248	-0.331056	99
Es	-0.066345	-0.575106	-1.745568	99
Es	-0.366633	-1.402287	-0.001644	99
Es	1.381014	1.121011	1.438903	99
Es	1.852673	1.077668	-0.408844	99
Es	0.902066	1.705949	1.477149	99
Es	-0.312359	-0.176141	-0.305476	99
Es	0.924551	0.225949	2.627776	99
Es	1.415891	0.852384	0.716465	99
Es	0.957628	0.105125	2.341365	99
Es	0.112113	0.403427	-0.609933	99
Es	0.510454	-0.977585	-1.951619	99
Es	1.838213	-0.063549	0.012097	99
Es	-2.305051	-0.588484	0.496853	99
Es	0.128505	0.029338	-1.296747	99
Es	-1.417058	-0.820631	-0.315853	99
Es	-0.263960	1.038917	-0.658441	99
Es	1.469633	0.582579	0.012502	99
Es	-0.511837	-0.384275	-2.291796	99
Es	1.098909	0.492495	1.986369	99
Es	-2.463794	-0.305542	-0.668602	99
Es	-0.676525	-0.866876	-0.399834	99
Es	-2.153430	-0.797256	-0.207575	99
Es	1.130638	-0.108268	2.290927	99
Es	2.057533	1.353479	1.664073	99
47
Properties=species:S:1:pos:R:3:Z:I:1 energy=-309.13021841002376 field_type=dipole dipole="0.000000 0.000000 0.000000" charge=0
C	-2.153448	-0.797258	-0.207579	6
C	-0.676588	-0.866988	-0.399729	6
C	-0.066319	-0.575158	-1.745739	6
C	0.112151	0.403582	-0.609869	6
C	1.469671	0.582562	0.012501	6
C	1.381092	1.121192	1.438791	6
O	0.957672	0.105102	2.341460	8
H	-2.383698	-0.496818	0.819300	1
H	-2.603418	-1.778488	-0.385439	1
H	-2.623418	-0.078228	-0.886419	1
H	-0.231918	-1.664748	0.185451	1
H	-0.719708	-0.290878	-2.562989	1
H	0.781771	-1.176758	-2.054719	1
H	-0.426348	1.343142	-0.686189	1
H	2.029422	1.296332	-0.602359	1
H	2.020152	-0.365278	0.008051	1
H	0.688532	1.965872	1.514991	1
H	2.368562	1.456712	1.770161	1
H	0.075841	-0.183898	2.050331	1
Es	-2.463544	-0.305667	-0.668613	99
Es	-0.511765	-0.384334	-2.291709	99
Es	0.922191	0.227742	2.626668	99
Es	1.838051	-0.063480	0.012084	99
Es	1.131948	-0.107372	2.293743	99
Es	-2.153430	-0.797256	-0.207575	99
Es	0.785649	0.476634	-0.295531	99
Es	-0.447522	-0.891239	-1.147665	99
Es	1.469633	0.582579	0.012503	99
Es	-0.676526	-0.866878	-0.399835	99
Es	-2.460485	-1.470238	-0.331007	99
Es	1.852775	1.077699	-0.408933	99
Es	1.098792	0.492084	1.986001	99
Es	2.057464	1.353344	1.663998	99
Es	0.128561	0.029457	-1.296917	99
Es	0.112110	0.403423	-0.609933	99
Es	-0.066347	-0.575109	-1.745567	99
Es	1.415906	0.852279	0.716479	99
Es	-1.416927	-0.820757	-0.315900	99
Es	0.902146	1.706082	1.477206	99
Es	0.957513	0.105231	2.341242	99
Es	-0.263877	1.038924	-0.658411	99
Es	-0.312315	-0.176035	-0.305405	99
Es	1.381012	1.121006	1.438906	99
Es	-0.366726	-1.402287	-0.001577	99
Es	0.510376	-0.977449	-1.951646	99
Es	0.490561	-0.056354	2.162523	99
Es	-2.305111	-0.588234	0.496757	99
47
Properties=species:S:1:pos:R:3:Z:I:1 energy=-309.13021841002376 field_type=dipole dipole="0.000000 0.000000 0.000000" charge=0
C	-2.153448	-0.797258	-0.207579	6
C	-0.676588	-0.866988	-0.399729	6
C	-0.066319	-0.575158	-1.745739	6
C	0.112151	0.403582	-0.609869	6
C	1.469671	0.582562	0.012501	6
C	1.381092	1.121192	1.438791	6
O	0.957672	0.105102	2.341460	8
H	-2.383698	-0.496818	0.819300	1
H	-2.603418	-1.778488	-0.385439	1
H	-2.623418	-0.078228	-0.886419	1
H	-0.231918	-1.664748	0.185451	1
H	-0.719708	-0.290878	-2.562989	1
H	0.781771	-1.176758	-2.054719	1
H	-0.426348	1.343142	-0.686189	1
H	2.029422	1.296332	-0.602359	1
H	2.020152	-0.365278	0.008051	1
H	0.688532	1.965872	1.514991	1
H	2.368562	1.456712	1.770161	1
H	0.075841	-0.183898	2.050331	1
Es	-0.511560	-0.384395	-2.291476	99
Es	-2.153434	-0.797255	-0.207571	99
Es	0.902220	1.705859	1.477173	99
Es	-0.312324	-0.176062	-0.305334	99
Es	2.057386	1.353529	1.664153	99
Es	-2.463601	-0.305726	-0.668440	99
Es	-0.366695	-1.402315	-0.001742	99
Es	0.489982	-0.055609	2.163409	99
Es	0.785655	0.476610	-0.295520	99
Es	-2.460455	-1.470363	-0.331058	99
Es	0.510402	-0.977410	-1.951725	99
Es	-0.676525	-0.866876	-0.399835	99
Es	-0.447790	-0.891412	-1.147960	99
Es	-2.304910	-0.588213	0.496829	99
Es	-0.066344	-0.575103	-1.745569	99
Es	1.098313	0.492404	1.986031	99
Es	-1.417021	-0.820680	-0.316005	99
Es	1.837994	-0.063451	0.012078	99
Es	0.923842	0.226731	2.627425	99
Es	1.415919	0.852184	0.716338	99
Es	1.131278	-0.107410	2.292062	99
Es	0.128533	0.029752	-1.296703	99
Es	1.469633	0.582579	0.012503	99
Es	1.381013	1.121008	1.438905	99
Es	-0.263856	1.038947	-0.658435	99
Es	0.957530	0.105228	2.341245	99
Es	1.852820	1.077815	-0.408961	99
Es	0.112110	0.403425	-0.609930	99
47
Properties=species:S:1:pos:R:3:Z:I:1 energy=-309.13021841002376 field_type=dipole dipole="0.000000 0.000000 0.000000" charge=0
C	-2.153448	-0.797258	-0.207579	6
C	-0.676588	-0.866988	-0.399729	6
C	-0.066319	-0.575158	-1.745739	6
C	0.112151	0.403582	-0.609869	6
C	1.469671	0.582562	0.012501	6
C	1.381092	1.121192	1.438791	6
O	0.957672	0.105102	2.341460	8
H	-2.383698	-0.496818	0.819300	1
H	-2.603418	-1.778488	-0.385439	1
H	-2.623418	-0.078228	-0.886419	1
H	-0.231918	-1.664748	0.185451	1
H	-0.719708	-0.290878	-2.562989	1
H	0.781771	-1.176758	-2.054719	1
H	-0.426348	1.343142	-0.686189	1
H	2.029422	1.296332	-0.602359	1
H	2.020152	-0.365278	0.008051	1
H	0.688532	1.965872	1.514991	1
H	2.368562	1.456712	1.770161	1
H	0.075841	-0.183898	2.050331	1
Es	1.837825	-0.063429	0.012107	99
Es	1.381015	1.121009	1.438905	99
Es	0.510235	-0.977388	-1.951633	99
Es	-0.263814	1.039022	-0.658410	99
Es	1.100268	0.491442	1.985343	99
Es	-1.417065	-0.820658	-0.315958	99
Es	0.490797	-0.056021	2.162247	99
Es	-0.676524	-0.866875	-0.399832	99
Es	0.902209	1.705722	1.477180	99
Es	1.469634	0.582579	0.012502	99
Es	-0.066344	-0.575106	-1.745572	99
Es	1.415948	0.852243	0.716324	99
Es	-0.511467	-0.384551	-2.291428	99
Es	1.131502	-0.107811	2.295445	99
Es	-0.366785	-1.402346	-0.001619	99
Es	0.112113	0.403428	-0.609933	99
Es	2.057350	1.353664	1.664217	99
Es	0.920931	0.228461	2.625947	99
Es	-0.312299	-0.175929	-0.305429	99
Es	0.128698	0.029940	-1.296868	99
Es	-2.305071	-0.588033	0.496818	99
Es	-2.153432	-0.797257	-0.207574	99
Es	-2.463368	-0.305818	-0.668568	99
Es	0.785597	0.476597	-0.295525	99
Es	0.957487	0.105236	2.341171	99
Es	-2.460385	-1.470461	-0.331115	99
Es	1.852942	1.077723	-0.409034	99
Es	-0.447877	-0.891589	-1.147821	99
47
Properties=species:S:1:pos:R:3:Z:I:1 energy=-309.13021841002376 field_type=dipole dipole="0.000000 0.000000 0.000000" charge=0
C	-2.153448	-0.797258	-0.207579	6
C	-0.676588	-0.866988	-0.399729	6
C	-0.066319	-0.575158	-1.745739	6
C	0.112151	0.403582	-0.609869	6
C	1.469671	0.582562	0.012501	6
C	1.381092	1.121192	1.438791	6
O	0.957672	0.105102	2.341460	8
H	-2.383698	-0.496818	0.819300	1
H	-2.603418	-1.778488	-0.385439	1
H	-2.623418	-0.078228	-0.886419	1
H	-0.231918	-1.664748	0.185451	1
H	-0.719708	-0.290878	-2.562989	1
H	0.781771	-1.176758	-2.054719	1
H	-0.426348	1.343142	-0.686189	1
H	2.029422	1.296332	-0.602359	1
H	2.020152	-0.365278	0.008051	1
H	0.688532	1.965872	1.514991	1
H	2.368562	1.456712	1.770161	1
H	0.075841	-0.183898	2.050331	1
Es	0.957504	0.105211	2.341235	99
Es	-2.460533	-1.470414	-0.331184	99
Es	1.131294	-0.105714	2.294766	99
Es	0.921042	0.227360	2.626599	99
Es	1.415941	0.852215	0.716305	99
Es	1.837760	-0.063677	0.012065	99
Es	-0.366754	-1.402247	-0.001724	99
Es	0.112112	0.403430	-0.609929	99
Es	0.491761	-0.058044	2.161580	99
Es	-0.676522	-0.866874	-0.399837	99
Es	-2.463453	-0.305826	-0.668308	99
Es	-1.416984	-0.820692	-0.316086	99
Es	0.510332	-0.977358	-1.951786	99
Es	-0.511442	-0.384460	-2.291296	99
Es	-0.447882	-0.891624	-1.147721	99
Es	2.057274	1.353548	1.664193	99
Es	1.852893	1.077786	-0.409073	99
Es	1.381014	1.121009	1.438905	99
Es	0.902212	1.705860	1.477176	99
Es	-0.263882	1.038898	-0.658514	99
Es	1.099355	0.492512	1.985995	99
Es	0.128658	0.029859	-1.296893	99
Es	-2.305002	-0.588139	0.496788	99
Es	-2.153431	-0.797256	-0.207574	99
Es	-0.312319	-0.175954	-0.305360	99
Es	-0.066346	-0.575110	-1.745569	99
Es	0.785883	0.476916	-0.295368	99
Es	1.469633	0.582579	0.012503	99
47
Properties=species:S:1:pos:R:3:Z:I:1 energy=-309.13021841002376 field_type=dipole dipole="0.000000 0.000000 0.000000" charge=0
C	-2.153448	-0.797258	-0.207579	6
C	-0.676588	-0.866988	-0.399729	6
C	-0.066319	-0.575158	-1.745739	6
C	0.112151	0.403582	-0.609869	6
C	1.469671	0.582562	0.012501	6
C	1.381092	1.121192	1.438791	6
O	0.957672	0.105102	2.341460	8
H	-2.383698	-0.496818	0.819300	1
H	-2.603418	-1.778488	-0.385439	1
H	-2.623418	-0.078228	-0.886419	1
H	-0.231918	-1.664748	0.185451	1
H	-0.719708	-0.290878	-2.562989	1
H	0.781771	-1.176758	-2.054719	1
H	-0.426348	1.343142	-0.686189	1
H	2.029422	1.296332	-0.602359	1
H	2.020152	-0.365278	0.008051	1
H	0.688532	1.965872	1.514991	1
H	2.368562	1.456712	1.770161	1
H	0.075841	-0.183898	2.050331	1
Es	1.130352	-0.105968	2.292999	99
Es	1.381014	1.121009	1.438906	99
Es	2.057352	1.353635	1.664240	99
Es	-0.066348	-0.575111	-1.745571	99
Es	0.902218	1.705741	1.477192	99
Es	0.785655	0.476534	-0.295608	99
Es	-0.263720	1.039127	-0.658247	99
Es	-0.511291	-0.384497	-2.291168	99
Es	-2.460492	-1.470616	-0.331159	99
Es	0.128703	0.030040	-1.296975	99
Es	-0.676521	-0.866879	-0.399832	99
Es	-0.448056	-0.891757	-1.148024	99
Es	-0.366759	-1.402150	-0.001918	99
Es	0.490732	-0.056755	2.162371	99
Es	0.112113	0.403428	-0.609932	99
Es	-2.153431	-0.797256	-0.207574	99
Es	0.923008	0.226207	2.627455	99
Es	1.469633	0.582579	0.012503	99
Es	1.852784	1.077939	-0.409131	99
Es	1.099374	0.492592	1.986093	99
Es	-2.304944	-0.588073	0.496673	99
Es	1.415840	0.852199	0.716261	99
Es	0.957487	0.105225	2.341202	99
Es	-2.463386	-0.305792	-0.668328	99
Es	-1.417095	-0.820691	-0.315833	99
Es	-0.312175	-0.175942	-0.304976	99
Es	1.837860	-0.063607	0.012060	99
Es	0.510211	-0.977364	-1.951795	99
47
Properties=species:S:1:pos:R:3:Z:I:1 energy=-309.13021841002376 field_type=dipole dipole="0.000000 0.000000 0.000000" charge=0
C	-2.153448	-0.797258	-0.207579	6
C	-0.676588	-0.866988	-0.399729	6
C	-0.066319	-0.575158	-1.745739	6
C	0.112151	0.403582	-0.609869	6
C	1.469671	0.582562	0.012501	6
C	1.381092	1.121192	1.438791	6
O	0.957672	0.105102	2.341460	8
H	-2.383698	-0.496818	0.819300	1
H	-2.603418	-1.778488	-0.385439	1
H	-2.623418	-0.078228	-0.886419	1
H	-0.231918	-1.664748	0.185451	1
H	-0.719708	-0.290878	-2.562989	1
H	0.781771	-1.176758	-2.054719	1
H	-0.426348	1.343142	-0.686189	1
H	2.029422	1.296332	-0.602359	1
H	2.020152	-0.365278	0.008051	1
H	0.688532	1.965872	1.514991	1
H	2.368562	1.456712	1.770161	1
H	0.075841	-0.183898	2.050331	1
Es	2.057338	1.353798	1.664252	99
Es	-0.366884	-1.402123	-0.001716	99