47
Properties=species:S:1:pos:R:3:Z:I:1 energy=-309.1329942156031 field_type=dipole dipole="0.000000 0.000000 0.000000" charge=0
C	-1.889546	0.088365	-0.014137	6
C	-0.370306	0.102395	-0.165207	6
C	0.035723	0.166265	-1.638797	6
C	0.338753	1.170925	0.719183	6
C	1.397274	0.108645	1.073553	6
C	0.358243	-0.975555	0.707803	6
O	0.849904	-2.150895	0.039033	8
H	-2.191396	0.066115	1.038543	1
H	-2.321006	-0.791965	-0.502087	1
H	-2.335356	0.980475	-0.466967	1
H	1.123183	0.201535	-1.764217	1
H	-0.378736	1.060005	-2.117847	1
H	-0.334356	-0.709605	-2.182767	1
H	-0.243947	1.501445	1.587823	1
H	0.718964	2.057045	0.202603	1
H	2.281054	0.125015	0.426333	1
H	1.727114	0.112095	2.116053	1
H	-0.229066	-1.280135	1.584673	1
H	1.463504	-1.832165	-0.643577	1
Es	0.850019	-2.150572	0.038968	99
Es	0.610201	-2.277301	-0.105981	99
Es	0.920086	0.701665	0.931736	99
Es	1.991143	0.114031	0.616524	99
Es	0.358356	-0.975698	0.707672	99
Es	-0.246962	0.775435	-1.955929	99
Es	-0.064049	1.385038	1.313733	99
Es	1.176105	-1.959408	-0.325523	99
Es	-2.190536	0.700561	-0.325585	99
Es	-0.047931	-1.178561	1.304019	99
Es	-0.150345	0.127896	-0.902642	99
Es	0.338781	1.170871	0.719184	99
Es	-1.889548	0.088367	-0.014140	99
Es	0.783883	0.186465	-1.716475	99
Es	-1.142755	0.095372	-0.094584	99
Es	-0.052958	-0.496638	0.224494	99
Es	-0.062139	0.706741	0.248439	99
Es	0.942831	-0.486584	0.925107	99
Es	1.397233	0.108661	1.073531	99
Es	-0.216093	-0.428469	-2.004731	99
Es	1.628900	0.110136	1.788119	99
Es	1.020452	-2.300414	0.244080	99
Es	-2.181039	-0.512651	-0.349074	99
Es	0.597181	1.779395	0.361503	99
Es	-0.370300	0.102412	-0.165204	99
Es	0.035736	0.166263	-1.638768	99
Es	-2.088339	0.073148	0.709039	99
Es	0.676753	-1.697983	0.275349	99
47
Properties=species:S:1:pos:R:3:Z:I:1 energy=-309.1329942156031 field_type=dipole dipole="0.000000 0.000000 0.000000" charge=0
C	-1.889546	0.088365	-0.014137	6
C	-0.370306	0.102395	-0.165207	6
C	0.035723	0.166265	-1.638797	6
C	0.338753	1.170925	0.719183	6
C	1.397274	0.108645	1.073553	6
C	0.358243	-0.975555	0.707803	6
O	0.849904	-2.150895	0.039033	8
H	-2.191396	0.066115	1.038543	1
H	-2.321006	-0.791965	-0.502087	1
H	-2.335356	0.980475	-0.466967	1
H	1.123183	0.201535	-1.764217	1
H	-0.378736	1.060005	-2.117847	1
H	-0.334356	-0.709605	-2.182767	1
H	-0.243947	1.501445	1.587823	1
H	0.718964	2.057045	0.202603	1
H	2.281054	0.125015	0.426333	1
H	1.727114	0.112095	2.116053	1
H	-0.229066	-1.280135	1.584673	1
H	1.463504	-1.832165	-0.643577	1
Es	0.358355	-0.975698	0.707671	99
Es	-2.180918	-0.512196	-0.349275	99
Es	-0.061783	0.706438	0.248696	99
Es	1.628490	0.110024	1.788067	99
Es	-0.048201	-1.178541	1.304523	99
Es	0.783612	0.186565	-1.716735	99
Es	1.177432	-1.960009	-0.326177	99
Es	-1.142636	0.095297	-0.094652	99
Es	0.611915	-2.275936	-0.105388	99
Es	0.849975	-2.150538	0.038947	99
Es	-0.370300	0.102412	-0.165203	99
Es	0.597461	1.779323	0.361176	99
Es	-0.215909	-0.428314	-2.004922	99
Es	1.018561	-2.301334	0.244007	99
Es	0.942367	-0.486243	0.924759	99
Es	1.991638	0.113950	0.616235	99
Es	-0.246725	0.775135	-1.956084	99
Es	0.675735	-1.697811	0.275387	99
Es	-2.190237	0.700155	-0.325734	99
Es	-0.150410	0.127970	-0.902501	99
Es	-1.889551	0.088370	-0.014141	99
Es	0.035736	0.166263	-1.638768	99
Es	0.919787	0.701701	0.931526	99
Es	-0.052707	-0.496499	0.224654	99
Es	-0.064382	1.385014	1.314348	99
Es	1.397239	0.108663	1.073535	99
Es	0.338780	1.170868	0.719183	99
Es	-2.088662	0.073151	0.709724	99
47
Properties=species:S:1:pos:R:3:Z:I:1 energy=-309.1329942156031 field_type=dipole dipole="0.000000 0.000000 0.000000" charge=0
C	-1.889546	0.088365	-0.014137	6
C	-0.370306	0.102395	-0.165207	6
C	0.035723	0.166265	-1.638797	6
C	0.338753	1.170925	0.719183	6
C	1.397274	0.108645	1.073553	6
C	0.358243	-0.975555	0.707803	6
O	0.849904	-2.150895	0.039033	8
H	-2.191396	0.066115	1.038543	1
H	-2.321006	-0.791965	-0.502087	1
H	-2.335356	0.980475	-0.466967	1
H	1.123183	0.201535	-1.764217	1
H	-0.378736	1.060005	-2.117847	1
H	-0.334356	-0.709605	-2.182767	1
H	-0.243947	1.501445	1.587823	1
H	0.718964	2.057045	0.202603	1
H	2.281054	0.125015	0.426333	1
H	1.727114	0.112095	2.116053	1
H	-0.229066	-1.280135	1.584673	1
H	1.463504	-1.832165	-0.643577	1
Es	0.597629	1.779287	0.360869	99
Es	0.035735	0.166266	-1.638768	99
Es	0.849919	-2.150495	0.038848	99
Es	-0.061706	0.706366	0.248972	99
Es	-0.370300	0.102412	-0.165202	99
Es	-2.088740	0.073205	0.709943	99
Es	0.338780	1.170871	0.719183	99
Es	0.358353	-0.975697	0.707671	99
Es	-0.048385	-1.178490	1.304705	99
Es	-0.064532	1.385032	1.314676	99
Es	-0.215876	-0.428097	-2.004944	99
Es	-1.142608	0.095326	-0.094744	99
Es	1.018108	-2.301977	0.241998	99
Es	1.991939	0.113907	0.616139	99
Es	0.783540	0.186444	-1.716871	99
Es	1.628258	0.110071	1.787908	99
Es	1.397233	0.108664	1.073532	99
Es	1.176739	-1.960174	-0.328222	99
Es	-2.190146	0.699992	-0.325776	99
Es	0.942273	-0.486231	0.924813	99
Es	-0.246611	0.775094	-1.956172	99
Es	-2.180869	-0.512134	-0.349348	99
Es	-0.150304	0.127898	-0.902462	99
Es	-0.052546	-0.496361	0.224829	99
Es	0.919415	0.701631	0.931332	99
Es	0.612614	-2.274945	-0.103494	99
Es	-1.889546	0.088368	-0.014140	99
Es	0.676300	-1.698052	0.277581	99
47
Properties=species:S:1:pos:R:3:Z:I:1 energy=-309.1329942156031 field_type=dipole dipole="0.000000 0.000000 0.000000" charge=0
C	-1.889546	0.088365	-0.014137	6
C	-0.370306	0.102395	-0.165207	6
C	0.035723	0.166265	-1.638797	6
C	0.338753	1.170925	0.719183	6
C	1.397274	0.108645	1.073553	6
C	0.358243	-0.975555	0.707803	6
O	0.849904	-2.150895	0.039033	8
H	-2.191396	0.066115	1.038543	1
H	-2.321006	-0.791965	-0.502087	1
H	-2.335356	0.980475	-0.466967	1
H	1.123183	0.201535	-1.764217	1
H	-0.378736	1.060005	-2.117847	1
H	-0.334356	-0.709605	-2.182767	1
H	-0.243947	1.501445	1.587823	1
H	0.718964	2.057045	0.202603	1
H	2.281054	0.125015	0.426333	1
H	1.727114	0.112095	2.116053	1
H	-0.229066	-1.280135	1.584673	1
H	1.463504	-1.832165	-0.643577	1
Es	-0.246488	0.775069	-1.956305	99
Es	1.018072	-2.298193	0.241954	99
Es	-0.061584	0.706371	0.249214	99
Es	1.177694	-1.960694	-0.328320	99
Es	1.397235	0.108664	1.073532	99
Es	-1.889546	0.088367	-0.014141	99
Es	0.338781	1.170872	0.719186	99
Es	-0.370300	0.102411	-0.165204	99
Es	0.942037	-0.486208	0.924552	99
Es	1.628108	0.110062	1.787851	99
Es	1.992121	0.113938	0.616049	99
Es	-0.215793	-0.428110	-2.004973	99
Es	0.597820	1.779364	0.360658	99
Es	0.849973	-2.150534	0.038939	99
Es	0.919186	0.701440	0.931240	99
Es	-2.190045	0.699980	-0.325813	99
Es	-0.048386	-1.178430	1.305024	99
Es	-0.052535	-0.496408	0.224937	99
Es	-2.088782	0.073100	0.710201	99
Es	0.674216	-1.697727	0.276563	99
Es	-1.142575	0.095469	-0.094634	99
Es	0.035735	0.166264	-1.638766	99
Es	-0.150309	0.128025	-0.902471	99
Es	0.613769	-2.278504	-0.102445	99
Es	0.783279	0.186419	-1.716987	99
Es	-2.180704	-0.512066	-0.349529	99
Es	-0.064670	1.384942	1.314885	99
Es	0.358354	-0.975703	0.707663	99
47
Properties=species:S:1:pos:R:3:Z:I:1 energy=-309.1329942156031 field_type=dipole dipole="0.000000 0.000000 0.000000" charge=0
C	-1.889546	0.088365	-0.014137	6
C	-0.370306	0.102395	-0.165207	6
C	0.035723	0.166265	-1.638797	6
C	0.338753	1.170925	0.719183	6
C	1.397274	0.108645	1.073553	6
C	0.358243	-0.975555	0.707803	6
O	0.849904	-2.150895	0.039033	8
H	-2.191396	0.066115	1.038543	1
H	-2.321006	-0.791965	-0.502087	1
H	-2.335356	0.980475	-0.466967	1
H	1.123183	0.201535	-1.764217	1
H	-0.378736	1.060005	-2.117847	1
H	-0.334356	-0.709605	-2.182767	1
H	-0.243947	1.501445	1.587823	1
H	0.718964	2.057045	0.202603	1
H	2.281054	0.125015	0.426333	1
H	1.727114	0.112095	2.116053	1
H	-0.229066	-1.280135	1.584673	1
H	1.463504	-1.832165	-0.643577	1
Es	1.177019	-1.961093	-0.329529	99
Es	0.675414	-1.697613	0.277624	99
Es	1.627989	0.110073	1.787661	99
Es	-2.190016	0.699894	-0.325830	99
Es	-0.246332	0.775122	-1.956370	99
Es	0.919092	0.701462	0.931271	99
Es	-0.215721	-0.428041	-2.005086	99
Es	1.992319	0.113883	0.615934	99
Es	0.613699	-2.277422	-0.101249	99
Es	-0.052339	-0.496393	0.224929	99
Es	-0.150459	0.127993	-0.902475	99
Es	0.941901	-0.486139	0.924645	99
Es	-2.088836	0.073104	0.710311	99
Es	-2.180678	-0.511994	-0.349551	99
Es	-1.142612	0.095476	-0.094615	99
Es	-1.889546	0.088368	-0.014140	99
Es	0.358360	-0.975699	0.707672	99
Es	0.597877	1.779354	0.360529	99
Es	1.397232	0.108663	1.073531	99
Es	0.338783	1.170868	0.719183	99
Es	-0.048579	-1.178421	1.305099	99
Es	0.849780	-2.150510	0.038792	99
Es	-0.064878	1.384903	1.315032	99
Es	-0.061296	0.706326	0.249320	99
Es	1.017838	-2.299004	0.240996	99
Es	0.783217	0.186344	-1.716854	99
Es	-0.370300	0.102412	-0.165204	99
Es	0.035736	0.166264	-1.638767	99
47
Properties=species:S:1:pos:R:3:Z:I:1 energy=-309.1329942156031 field_type=dipole dipole="0.000000 0.000000 0.000000" charge=0
C	-1.889546	0.088365	-0.014137	6
C	-0.370306	0.102395	-0.165207	6
C	0.035723	0.166265	-1.638797	6
C	0.338753	1.170925	0.719183	6
C	1.397274	0.108645	1.073553	6
C	0.358243	-0.975555	0.707803	6
O	0.849904	-2.150895	0.039033	8
H	-2.191396	0.066115	1.038543	1
H	-2.321006	-0.791965	-0.502087	1
H	-2.335356	0.980475	-0.466967	1
H	1.123183	0.201535	-1.764217	1
H	-0.378736	1.060005	-2.117847	1
H	-0.334356	-0.709605	-2.182767	1
H	-0.243947	1.501445	1.587823	1
H	0.718964	2.057045	0.202603	1
H	2.281054	0.125015	0.426333	1
H	1.727114	0.112095	2.116053	1
H	-0.229066	-1.280135	1.584673	1
H	1.463504	-1.832165	-0.643577	1
Es	1.397234	0.108662	1.073531	99
Es	-2.180656	-0.511951	-0.349602	99
Es	1.176597	-1.961395	-0.330366	99
Es	0.614648	-2.278250	-0.100335	99
Es	0.597982	1.779320	0.360446	99
Es	0.783131	0.186457	-1.716860	99
Es	-0.064934	1.384875	1.315275	99
Es	-0.150415	0.127950	-0.902449	99
Es	1.992507	0.114011	0.615980	99
Es	0.941931	-0.486255	0.924562	99
Es	-0.246253	0.775039	-1.956325	99
Es	-0.052212	-0.496254	0.225014	99
Es	0.338781	1.170872	0.719185	99
Es	-1.142615	0.095354	-0.094648	99
Es	-0.048686	-1.178400	1.305195	99
Es	1.018337	-2.298044	0.241656	99
Es	0.918787	0.701539	0.931195	99
Es	0.674099	-1.697441	0.276549	99
Es	-0.370300	0.102412	-0.165205	99
Es	-2.088897	0.073137	0.710425	99
Es	-0.061253	0.706370	0.249396	99
Es	0.035736	0.166264	-1.638766	99
Es	-2.189905	0.699851	-0.325881	99
Es	1.627830	0.109996	1.787514	99
Es	-1.889546	0.088365	-0.014141	99
Es	0.358353	-0.975698	0.707670	99
Es	0.850070	-2.150512	0.039063	99
Es	-0.215686	-0.428094	-2.005220	99
47
Properties=species:S:1:pos:R:3:Z:I:1 energy=-309.1329942156031 field_type=dipole dipole="0.000000 0.000000 0.000000" charge=0
C	-1.889546	0.088365	-0.014137	6
C	-0.370306	0.102395	-0.165207	6
C	0.035723	0.166265	-1.638797	6
C	0.338753	1.170925	0.719183	6
C	1.397274	0.108645	1.073553	6
C	0.358243	-0.975555	0.707803	6
O	0.849904	-2.150895	0.039033	8
H	-2.191396	0.066115	1.038543	1
H	-2.321006	-0.791965	-0.502087	1
H	-2.335356	0.980475	-0.466967	1
H	1.123183	0.201535	-1.764217	1
H	-0.378736	1.060005	-2.117847	1
H	-0.334356	-0.709605	-2.182767	1
H	-0.243947	1.501445	1.587823	1
H	0.718964	2.057045	0.202603	1
H	2.281054	0.125015	0.426333	1
H	1.727114	0.112095	2.116053	1
H	-0.229066	-1.280135	1.584673	1
H	1.463504	-1.832165	-0.643577	1
Es	-0.064914	1.384780	1.315355	99
Es	0.941880	-0.486253	0.924620	99
Es	0.598122	1.779428	0.360386	99
Es	0.035736	0.166264	-1.638767	99
Es	1.397232	0.108663	1.073531	99
Es	-0.370298	0.102412	-0.165200	99
Es	-2.180735	-0.512072	-0.349593	99
Es	-0.150471	0.127945	-0.902426	99
Es	0.358358	-0.975699	0.707671	99
Es	1.992583	0.114074	0.615879	99
Es	1.627810	0.110141	1.787403	99
Es	-2.189829	0.699762	-0.325889	99
Es	0.850154	-2.150513	0.039081	99
Es	-2.088834	0.073311	0.710470	99
Es	-1.889548	0.088368	-0.014140	99
Es	1.013594	-2.305987	0.241050	99
Es	1.179177	-1.961534	-0.328647	99
Es	-0.215787	-0.428069	-2.005300	99
Es	-0.246182	0.774923	-1.956219	99
Es	-0.061188	0.706442	0.249525	99
Es	-0.048777	-1.178412	1.305225	99
Es	0.783178	0.186500	-1.716937	99
Es	-0.052224	-0.496349	0.225013	99
Es	0.338782	1.170871	0.719184	99
Es	0.675531	-1.697640	0.278655	99
Es	0.918637	0.701397	0.931192	99
Es	0.615280	-2.269941	-0.103574	99
Es	-1.142601	0.095371	-0.094690	99
47
Properties=species:S:1:pos:R:3:Z:I:1 energy=-309.1329942156031 field_type=dipole dipole="0.000000 0.000000 0.000000" charge=0
C	-1.889546	0.088365	-0.014137	6
C	-0.370306	0.102395	-0.165207	6
C	0.035723	0.166265	-1.638797	6
C	0.338753	1.170925	0.719183	6
C	1.397274	0.108645	1.073553	6
C	0.358243	-0.975555	0.707803	6
O	0.849904	-2.150895	0.039033	8
H	-2.191396	0.066115	1.038543	1
H	-2.321006	-0.791965	-0.502087	1
H	-2.335356	0.980475	-0.466967	1
H	1.123183	0.201535	-1.764217	1
H	-0.378736	1.060005	-2.117847	1
H	-0.334356	-0.709605	-2.182767	1
H	-0.243947	1.501445	1.587823	1
H	0.718964	2.057045	0.202603	1
H	2.281054	0.125015	0.426333	1
H	1.727114	0.112095	2.116053	1
H	-0.229066	-1.280135	1.584673	1
H	1.463504	-1.832165	-0.643577	1
Es	-1.142565	0.095365	-0.094714	99
Es	1.177451	-1.961450	-0.330404	99
Es	-0.150388	0.128022	-0.902444	99
Es	-0.370300	0.102411	-0.165203	99
Es	0.598148	1.779402	0.360261	99
Es	1.016933	-2.298946	0.240573	99
Es	-2.189855	0.699855	-0.325902	99
Es	1.992621	0.113962	0.615920	99
Es	0.783008	0.186359	-1.716891	99
Es	0.615719	-2.277085	-0.100392	99
Es	1.627762	0.110080	1.787378	99
Es	0.358355	-0.975698	0.707671	99
Es	-0.061095	0.706399	0.249630	99
Es	-2.180642	-0.511923	-0.349628	99
Es	0.850104	-2.150543	0.039033	99
Es	0.338783	1.170872	0.719183	99
Es	-2.088868	0.073132	0.710531	99
Es	1.397233	0.108663	1.073531	99
Es	0.941836	-0.486294	0.924652	99
Es	-0.215702	-0.428077	-2.005233	99
Es	0.918532	0.701485	0.931096	99
Es	0.673546	-1.697646	0.277729	99
Es	0.035735	0.166264	-1.638767	99
Es	-0.065077	1.384775	1.315428	99
Es	-0.052079	-0.496289	0.225086	99
Es	-0.048867	-1.178343	1.305275	99
Es	-0.246120	0.775060	-1.956400	99
Es	-1.889546	0.088368	-0.014140	99
47
Properties=species:S:1:pos:R:3:Z:I:1 energy=-309.1329942156031 field_type=dipole dipole="0.000000 0.000000 0.000000" charge=0
C	-1.889546	0.088365	-0.014137	6
C	-0.370306	0.102395	-0.165207	6
C	0.035723	0.166265	-1.638797	6
C	0.338753	1.170925	0.719183	6
C	1.397274	0.108645	1.073553	6
C	0.358243	-0.975555	0.707803	6
O	0.849904	-2.150895	0.039033	8
H	-2.191396	0.066115	1.038543	1
H	-2.321006	-0.791965	-0.502087	1
H	-2.335356	0.980475	-0.466967	1
H	1.123183	0.201535	-1.764217	1
H	-0.378736	1.060005	-2.117847	1
H	-0.334356	-0.709605	-2.182767	1
H	-0.243947	1.501445	1.587823	1
H	0.718964	2.057045	0.202603	1
H	2.281054	0.125015	0.426333	1
H	1.727114	0.112095	2.116053	1
H	-0.229066	-1.280135	1.584673	1
H	1.463504	-1.832165	-0.643577	1
Es	-0.060934	0.706341	0.249672	99
Es	-0.246084	0.775044	-1.956365	99
Es	0.675485	-1.697394	0.278574	99
Es	0.615293	-2.271749	-0.101892	99
Es	0.849979	-2.150575	0.038988	99
Es	-2.088850	0.073089	0.710552	99
Es	1.013970	-2.303592	0.240690	99
Es	0.918530	0.701531	0.931131	99
Es	-0.052133	-0.496368	0.225128	99
Es	1.179031	-1.962348	-0.329839	99
Es	-0.150454	0.127946	-0.902436	99
Es	-0.065082	1.384729	1.315510	99
Es	-2.180560	-0.512011	-0.349729	99
Es	-1.889546	0.088368	-0.014140	99
Es	-2.189890	0.699830	-0.325841	99
Es	0.035735	0.166265	-1.638766	99
Es	0.941741	-0.486199	0.924485	99
Es	-0.048833	-1.178339	1.305394	99
Es	1.397234	0.108663	1.073532	99
Es	-1.142641	0.095497	-0.094569	99
Es	0.782958	0.186395	-1.716904	99
Es	0.598166	1.779444	0.360169	99
Es	1.992695	0.114004	0.615877	99
Es	-0.370300	0.102411	-0.165204	99
Es	-0.215697	-0.428094	-2.005296	99
Es	0.338779	1.170871	0.719183	99
Es	1.627718	0.110120	1.787285	99
Es	0.358355	-0.975699	0.707671	99
47
Properties=species:S:1:pos:R:3:Z:I:1 energy=-309.1329942156031 field_type=dipole dipole="0.000000 0.000000 0.000000" charge=0
C	-1.889546	0.088365	-0.014137	6
C	-0.370306	0.102395	-0.165207	6
C	0.035723	0.166265	-1.638797	6
C	0.338753	1.170925	0.719183	6
C	1.397274	0.108645	1.073553	6
C	0.358243	-0.975555	0.707803	6
O	0.849904	-2.150895	0.039033	8
H	-2.191396	0.066115	1.038543	1
H	-2.321006	-0.791965	-0.502087	1
H	-2.335356	0.980475	-0.466967	1
H	1.123183	0.201535	-1.764217	1
H	-0.378736	1.060005	-2.117847	1
H	-0.334356	-0.709605	-2.182767	1
H	-0.243947	1.501445	1.587823	1
H	0.718964	2.057045	0.202603	1
H	2.281054	0.125015	0.426333	1
H	1.727114	0.112095	2.116053	1
H	-0.229066	-1.280135	1.584673	1
H	1.463504	-1.832165	-0.643577	1
Es	-0.060983	0.706551	0.249898	99
Es	-0.150395	0.127933	-0.902420	99
Es	0.674545	-1.697576	0.278655	99
Es	1.179045	-1.962015	-0.329845	99
Es	0.941702	-0.486300	0.924564	99
Es	1.397234	0.108663	1.073531	99
Es	-0.246125	0.775035	-1.956366	99
Es	-0.215615	-0.428111	-2.005333	99
Es	0.849955	-2.150605	0.038937	99
Es	-0.048942	-1.178325	1.305414	99
Es	0.358354	-0.975702	0.707666	99
Es	-0.065099	1.384705	1.315603	99
Es	0.035735	0.166263	-1.638766	99
Es	-2.180630	-0.511940	-0.349740	99
Es	1.014321	-2.302252	0.240298	99
Es	1.627707	0.110111	1.787194	99
Es	0.782878	0.186476	-1.716938	99
Es	0.918339	0.701362	0.931068	99
Es	-2.088863	0.073081	0.710564	99
Es	0.615949	-2.273204	-0.101543	99
Es	0.598269	1.779453	0.360109	99
Es	1.992743	0.114048	0.615852	99
Es	0.338781	1.170870	0.719184	99
Es	-0.370300	0.102412	-0.165205	99
Es	-0.052107	-0.496400	0.225119	99
Es	-1.889547	0.088368	-0.014139	99
Es	-1.142499	0.095381	-0.094653	99
Es	-2.189789	0.699898	-0.325849	99
47
Properties=species:S:1:pos:R:3:Z:I:1 energy=-309.1329942156031 field_type=dipole dipole="0.000000 0.000000 0.000000" charge=0
C	-1.889546	0.088365	-0.014137	6
C	-0.370306	0.102395	-0.165207	6
C	0.035723	0.166265	-1.638797	6
C	0.338753	1.170925	0.719183	6
C	1.397274	0.108645	1.073553	6
C	0.358243	-0.975555	0.707803	6
O	0.849904	-2.150895	0.039033	8
H	-2.191396	0.066115	1.038543	1
H	-2.321006	-0.791965	-0.502087	1
H	-2.335356	0.980475	-0.466967	1
H	1.123183	0.201535	-1.764217	1
H	-0.378736	1.060005	-2.117847	1
H	-0.334356	-0.709605	-2.182767	1
H	-0.243947	1.501445	1.587823	1
H	0.718964	2.057045	0.202603	1
H	2.281054	0.125015	0.426333	1
H	1.727114	0.112095	2.116053	1
H	-0.229066	-1.280135	1.584673	1
H	1.463504	-1.832165	-0.643577	1
Es	1.627500	0.110156	1.787141	99
Es	0.598304	1.779477	0.359987	99
Es	-2.088830	0.073194	0.710666	99
Es	0.918277	0.701535	0.931041	99
Es	-1.889546	0.088368	-0.014140	99
Es	-0.246017	0.775100	-1.956448	99
Es	-2.180600	-0.511963	-0.349636	99
Es	1.992924	0.114000	0.615987	99
Es	0.674694	-1.697688	0.278954	99
Es	-2.189809	0.699805	-0.325965	99
Es	1.397232	0.108662	1.073531	99
Es	-0.370299	0.102412	-0.165203	99
Es	0.941698	-0.486358	0.924561	99
Es	1.179011	-1.961951	-0.329926	99
Es	-0.051954	-0.496364	0.225116	99
Es	0.615849	-2.272801	-0.101627	99
Es	0.782823	0.186415	-1.716771	99
Es	-0.065145	1.384706	1.315611	99
Es	0.850024	-2.150574	0.038992	99
Es	0.358356	-0.975699	0.707671	99
Es	0.035735	0.166264	-1.638768	99
Es	-1.142590	0.095359	-0.094743	99
Es	-0.215548	-0.428132	-2.005380	99
Es	-0.150455	0.128025	-0.902452	99
Es	-0.049014	-1.178289	1.305426	99
Es	-0.060937	0.706308	0.249964	99
Es	0.338781	1.170870	0.719184	99
Es	1.014200	-2.302658	0.240086	99
47
Properties=species:S:1:pos:R:3:Z:I:1 energy=-309.1329942156031 field_type=dipole dipole="0.000000 0.000000 0.000000" charge=0
C	-1.889546	0.088365	-0.014137	6
C	-0.370306	0.102395	-0.165207	6
C	0.035723	0.166265	-1.638797	6
C	0.338753	1.170925	0.719183	6
C	1.397274	0.108645	1.073553	6
C	0.358243	-0.975555	0.707803	6
O	0.849904	-2.150895	0.039033	8
H	-2.191396	0.066115	1.038543	1
H	-2.321006	-0.791965	-0.502087	1
H	-2.335356	0.980475	-0.466967	1
H	1.123183	0.201535	-1.764217	1
H	-0.378736	1.060005	-2.117847	1
H	-0.334356	-0.709605	-2.182767	1
H	-0.243947	1.501445	1.587823	1
H	0.718964	2.057045	0.202603	1
H	2.281054	0.125015	0.426333	1
H	1.727114	0.112095	2.116053	1
H	-0.229066	-1.280135	1.584673	1
H	1.463504	-1.832165	-0.643577	1
Es	-0.246091	0.774991	-1.956376	99
Es	0.035736	0.166264	-1.638767	99
Es	-0.060958	0.706380	0.249915	99
Es	-0.051927	-0.496348	0.225166	99
Es	1.177785	-1.961991	-0.331236	99
Es	-0.370299	0.102411	-0.165203	99
Es	-2.180653	-0.512032	-0.349720	99
Es	0.358355	-0.975699	0.707672	99
Es	1.397233	0.108663	1.073531	99
Es	-0.065108	1.384682	1.315625	99
Es	1.015289	-2.301951	0.240124	99
Es	-2.088831	0.073203	0.710600	99
Es	0.338780	1.170872	0.719185	99
Es	0.674235	-1.697690	0.278853	99
Es	-1.889547	0.088368	-0.014140	99
Es	-1.142500	0.095398	-0.094632	99
Es	1.627585	0.110084	1.786961	99
Es	-0.049052	-1.178269	1.305484	99
Es	-2.189775	0.699804	-0.325862	99
Es	0.782901	0.186498	-1.716891	99
Es	0.849986	-2.150597	0.038942	99
Es	-0.215569	-0.428083	-2.005380	99
Es	0.598337	1.779506	0.360006	99
Es	0.941586	-0.486366	0.924543	99
Es	0.918249	0.701580	0.931231	99
Es	-0.150494	0.127899	-0.902465	99
Es	1.992918	0.114055	0.615888	99
Es	0.616496	-2.273451	-0.100198	99
47
Properties=species:S:1:pos:R:3:Z:I:1 energy=-309.1329942156031 field_type=dipole dipole="0.000000 0.000000 0.000000" charge=0
C	-1.889546	0.088365	-0.014137	6
C	-0.370306	0.102395	-0.165207	6
C	0.035723	0.166265	-1.638797	6
C	0.338753	1.170925	0.719183	6
C	1.397274	0.108645	1.073553	6
C	0.358243	-0.975555	0.707803	6
O	0.849904	-2.150895	0.039033	8
H	-2.191396	0.066115	1.038543	1
H	-2.321006	-0.791965	-0.502087	1
H	-2.335356	0.980475	-0.466967	1
H	1.123183	0.201535	-1.764217	1
H	-0.378736	1.060005	-2.117847	1
H	-0.334356	-0.709605	-2.182767	1
H	-0.243947	1.501445	1.587823	1
H	0.718964	2.057045	0.202603	1
H	2.281054	0.125015	0.426333	1
H	1.727114	0.112095	2.116053	1
H	-0.229066	-1.280135	1.584673	1
H	1.463504	-1.832165	-0.643577	1
Es	0.358353	-0.975696	0.707672	99
Es	-0.215403	-0.428180	-2.005324	99
Es	0.615808	-2.274023	-0.100609	99
Es	0.035735	0.166264	-1.638767	99
Es	0.849952	-2.150558	0.038913	99
Es	0.338781	1.170870	0.719184	99
Es	-2.180614	-0.511815	-0.349750	99
Es	-0.065224	1.384616	1.315654	99
Es	1.014534	-2.301281	0.239260	99
Es	0.918150	0.701575	0.931213	99
Es	-2.088916	0.073054	0.710680	99
Es	-0.150321	0.127954	-0.902456	99
Es	-1.142560	0.095228	-0.094648	99
Es	-2.189684	0.699938	-0.325933	99
Es	-0.051923	-0.496318	0.225246	99
Es	-0.370299	0.102412	-0.165203	99
Es	1.992890	0.114038	0.615866	99
Es	1.397233	0.108663	1.073531	99
Es	0.598357	1.779559	0.359871	99
Es	0.674944	-1.697529	0.279487	99
Es	1.627600	0.110040	1.786992	99
Es	-0.246221	0.775025	-1.956464	99
Es	0.782785	0.186595	-1.716887	99
Es	-1.889547	0.088368	-0.014140	99
Es	1.178608	-1.962321	-0.330598	99
Es	-0.060886	0.706305	0.250021	99
Es	-0.049008	-1.178246	1.305510	99
Es	0.941540	-0.486356	0.924537	99
47
Properties=species:S:1:pos:R:3:Z:I:1 energy=-309.1329942156031 field_type=dipole dipole="0.000000 0.000000 0.000000" charge=0
C	-1.889546	0.088365	-0.014137	6
C	-0.370306	0.102395	-0.165207	6
C	0.035723	0.166265	-1.638797	6
C	0.338753	1.170925	0.719183	6
C	1.397274	0.108645	1.073553	6
C	0.358243	-0.975555	0.707803	6
O	0.849904	-2.150895	0.039033	8
H	-2.191396	0.066115	1.038543	1
H	-2.321006	-0.791965	-0.502087	1
H	-2.335356	0.980475	-0.466967	1
H	1.123183	0.201535	-1.764217	1
H	-0.378736	1.060005	-2.117847	1
H	-0.334356	-0.709605	-2.182767	1
H	-0.243947	1.501445	1.587823	1
H	0.718964	2.057045	0.202603	1
H	2.281054	0.125015	0.426333	1
H	1.727114	0.112095	2.116053	1
H	-0.229066	-1.280135	1.584673	1
H	1.463504	-1.832165	-0.643577	1
Es	0.918128	0.701527	0.931131	99
Es	-2.180541	-0.512051	-0.349655	99
Es	0.615950	-2.273141	-0.100579	99
Es	-0.370299	0.102412	-0.165203	99
Es	-1.142582	0.095368	-0.094532	99
Es	1.993024	0.114037	0.615882	99
Es	-1.889547	0.088368	-0.014140	99
Es	1.178853	-1.962685	-0.330728	99
Es	-0.065246	1.384647	1.315737	99
Es	1.397233	0.108662	1.073531	99
Es	-0.049064	-1.178294	1.305573	99
Es	0.035735	0.166263	-1.638766	99
Es	0.358356	-0.975698	0.707672	99
Es	0.338781	1.170870	0.719184	99
Es	-0.051923	-0.496370	0.225296	99
Es	-2.088853	0.073261	0.710684	99
Es	1.014075	-2.301967	0.239920	99
Es	0.941599	-0.486354	0.924541	99
Es	-0.246044	0.775069	-1.956477	99
Es	-0.215512	-0.428132	-2.005359	99
Es	0.782743	0.186445	-1.716873	99
Es	-0.060815	0.706438	0.249945	99
Es	-0.150454	0.127917	-0.902477	99
Es	1.627494	0.110108	1.786876	99
Es	0.850030	-2.150543	0.038975	99
Es	0.674888	-1.697316	0.278831	99
Es	0.598378	1.779491	0.359934	99
Es	-2.189723	0.699849	-0.326067	99
47
Properties=species:S:1:pos:R:3:Z:I:1 energy=-309.1329942156031 field_type=dipole dipole="0.000000 0.000000 0.000000" charge=0
C	-1.889546	0.088365	-0.014137	6
C	-0.370306	0.102395	-0.165207	6
C	0.035723	0.166265	-1.638797	6
C	0.338753	1.170925	0.719183	6
C	1.397274	0.108645	1.073553	6
C	0.358243	-0.975555	0.707803	6
O	0.849904	-2.150895	0.039033	8
H	-2.191396	0.066115	1.038543	1
H	-2.321006	-0.791965	-0.502087	1
H	-2.335356	0.980475	-0.466967	1
H	1.123183	0.201535	-1.764217	1
H	-0.378736	1.060005	-2.117847	1
H	-0.334356	-0.709605	-2.182767	1
H	-0.243947	1.501445	1.587823	1
H	0.718964	2.057045	0.202603	1
H	2.281054	0.125015	0.426333	1
H	1.727114	0.112095	2.116053	1
H	-0.229066	-1.280135	1.584673	1
H	1.463504	-1.832165	-0.643577	1
Es	-0.215415	-0.428151	-2.005344	99
Es	-1.889546	0.088368	-0.014140	99
Es	-0.060807	0.706374	0.250044	99
Es	-0.150361	0.127988	-0.902357	99
Es	1.014537	-2.300179	0.239703	99
Es	1.179076	-1.962304	-0.330351	99
Es	0.598433	1.779584	0.359863	99
Es	0.941524	-0.486349	0.924502	99
Es	0.035735	0.166263	-1.638768	99
Es	1.397233	0.108663	1.073532	99
Es	-0.065271	1.384563	1.315725	99
Es	0.918048	0.701558	0.931139	99
Es	-2.180426	-0.511970	-0.349711	99
Es	-0.246059	0.775083	-1.956553	99
Es	0.673651	-1.697495	0.278615	99
Es	-2.189786	0.699845	-0.326047	99
Es	0.338782	1.170872	0.719186	99
Es	0.616508	-2.275164	-0.100557	99
Es	0.782630	0.186461	-1.716891	99
Es	-1.142586	0.095459	-0.094665	99
Es	0.850056	-2.150535	0.039016	99
Es	-2.088884	0.073122	0.710754	99
Es	0.358355	-0.975699	0.707671	99
Es	-0.051894	-0.496418	0.225298	99
Es	1.627541	0.110086	1.786939	99
Es	-0.370299	0.102412	-0.165203	99
Es	1.992961	0.114005	0.615850	99
Es	-0.049074	-1.178260	1.305608	99
47
Properties=species:S:1:pos:R:3:Z:I:1 energy=-309.1329942156031 field_type=dipole dipole="0.000000 0.000000 0.000000" charge=0
C	-1.889546	0.088365	-0.014137	6
C	-0.370306	0.102395	-0.165207	6
C	0.035723	0.166265	-1.638797	6
C	0.338753	1.170925	0.719183	6
C	1.397274	0.108645	1.073553	6
C	0.358243	-0.975555	0.707803	6
O	0.849904	-2.150895	0.039033	8
H	-2.191396	0.066115	1.038543	1
H	-2.321006	-0.791965	-0.502087	1
H	-2.335356	0.980475	-0.466967	1
H	1.123183	0.201535	-1.764217	1
H	-0.378736	1.060005	-2.117847	1
H	-0.334356	-0.709605	-2.182767	1
H	-0.243947	1.501445	1.587823	1
H	0.718964	2.057045	0.202603	1
H	2.281054	0.125015	0.426333	1
H	1.727114	0.112095	2.116053	1
H	-0.229066	-1.280135	1.584673	1
H	1.463504	-1.832165	-0.643577	1
Es	0.917991	0.701611	0.931143	99
Es	-0.215563	-0.428162	-2.005349	99
Es	-0.150375	0.128027	-0.902428	99
Es	-0.049135	-1.178215	1.305591	99
Es	1.627461	0.110102	1.786786	99
Es	0.616730	-2.272936	-0.100771	99
Es	1.993080	0.114019	0.615880	99
Es	0.782695	0.186383	-1.716877	99
Es	0.598453	1.779549	0.359832	99
Es	0.338782	1.170872	0.719186	99
Es	-0.065310	1.384570	1.315790	99
Es	1.013732	-2.302223	0.239509	99
Es	0.035737	0.166264	-1.638767	99
Es	-1.142611	0.095361	-0.094600	99
Es	-1.889547	0.088367	-0.014139	99
Es	0.941510	-0.486369	0.924551	99
Es	-2.189663	0.699836	-0.326062	99
Es	-2.180482	-0.512027	-0.349750	99
Es	0.674274	-1.697579	0.279320	99
Es	-0.060748	0.706433	0.250107	99
Es	1.397235	0.108662	1.073532	99
Es	0.358356	-0.975697	0.707672	99
Es	1.179153	-1.962417	-0.330512	99
Es	-0.245960	0.775082	-1.956510	99
Es	-0.370297	0.102412	-0.165198	99
Es	0.849939	-2.150560	0.038903	99
Es	-0.051857	-0.496403	0.225269	99
Es	-2.088913	0.073219	0.710750	99
47
Properties=species:S:1:pos:R:3:Z:I:1 energy=-309.1329942156031 field_type=dipole dipole="0.000000 0.000000 0.000000" charge=0
C	-1.889546	0.088365	-0.014137	6
C	-0.370306	0.102395	-0.165207	6
C	0.035723	0.166265	-1.638797	6
C	0.338753	1.170925	0.719183	6
C	1.397274	0.108645	1.073553	6
C	0.358243	-0.975555	0.707803	6
O	0.849904	-2.150895	0.039033	8
H	-2.191396	0.066115	1.038543	1
H	-2.321006	-0.791965	-0.502087	1
H	-2.335356	0.980475	-0.466967	1
H	1.123183	0.201535	-1.764217	1
H	-0.378736	1.060005	-2.117847	1
H	-0.334356	-0.709605	-2.182767	1
H	-0.243947	1.501445	1.587823	1
H	0.718964	2.057045	0.202603	1
H	2.281054	0.125015	0.426333	1
H	1.727114	0.112095	2.116053	1
H	-0.229066	-1.280135	1.584673	1
H	1.463504	-1.832165	-0.643577	1
Es	-0.370299	0.102409	-0.165204	99
Es	0.850009	-2.150536	0.038916	99
Es	1.627405	0.110143	1.786664	99
Es	1.178795	-1.961932	-0.330613	99
Es	0.782741	0.186486	-1.716793	99
Es	1.993167	0.113988	0.615912	99
Es	0.675109	-1.697932	0.280796	99
Es	-0.065242	1.384549	1.315838	99
Es	0.338779	1.170872	0.719184	99
Es	0.941544	-0.486383	0.924630	99
Es	1.397234	0.108662	1.073531	99
Es	-2.180519	-0.512034	-0.349756	99
Es	0.917875	0.701658	0.931101	99
Es	-0.051844	-0.496446	0.225278	99
Es	-0.215472	-0.428140	-2.005444	99
Es	0.598513	1.779578	0.359836	99
Es	0.358355	-0.975699	0.707671	99
Es	-1.142571	0.095417	-0.094625	99
Es	-0.060766	0.706416	0.250098	99
Es	-2.189697	0.699792	-0.326001	99
Es	-0.049175	-1.178257	1.305588	99
Es	-2.088904	0.073223	0.710727	99
Es	-0.150470	0.127902	-0.902452	99
Es	0.616641	-2.270846	-0.101269	99
Es	-1.889546	0.088368	-0.014140	99
Es	1.013280	-2.304423	0.238593	99
Es	-0.246013	0.775083	-1.956442	99
Es	0.035736	0.166263	-1.638767	99
47
Properties=species:S:1:pos:R:3:Z:I:1 energy=-309.1329942156031 field_type=dipole dipole="0.000000 0.000000 0.000000" charge=0
C	-1.889546	0.088365	-0.014137	6
C	-0.370306	0.102395	-0.165207	6
C	0.035723	0.166265	-1.638797	6
C	0.338753	1.170925	0.719183	6
C	1.397274	0.108645	1.073553	6
C	0.358243	-0.975555	0.707803	6
O	0.849904	-2.150895	0.039033	8
H	-2.191396	0.066115	1.038543	1
H	-2.321006	-0.791965	-0.502087	1
H	-2.335356	0.980475	-0.466967	1
H	1.123183	0.201535	-1.764217	1
H	-0.378736	1.060005	-2.117847	1
H	-0.334356	-0.709605	-2.182767	1
H	-0.243947	1.501445	1.587823	1
H	0.718964	2.057045	0.202603	1
H	2.281054	0.125015	0.426333	1
H	1.727114	0.112095	2.116053	1
H	-0.229066	-1.280135	1.584673	1
H	1.463504	-1.832165	-0.643577	1
Es	-2.088901	0.073355	0.710791	99
Es	-2.189617	0.699763	-0.326118	99
Es	-0.065305	1.384546	1.315860	99
Es	0.917934	0.701701	0.931159	99
Es	1.178911	-1.962220	-0.330958	99
Es	0.598485	1.779563	0.359836	99
Es	-0.060770	0.706405	0.250059	99
Es	-0.370299	0.102411	-0.165203	99
Es	-0.049182	-1.178201	1.305645	99