45
Properties=species:S:1:pos:R:3:Z:I:1 energy=-344.9726839159494 field_type=dipole dipole="0.000000 0.000000 0.000000" charge=0
C	-1.669975	0.791944	-0.698882	6
C	-0.172255	0.588234	-0.808222	6
O	0.551765	1.634574	-0.108272	8
C	1.443955	0.657384	0.481588	6
C	0.543485	-0.513006	0.029418	6
C	-0.232995	-1.148996	1.172678	6
O	1.191135	-1.564896	-0.732792	8
H	-2.205415	-0.067326	-1.113842	1
H	-1.977685	1.680154	-1.260442	1
H	-1.992015	0.928394	0.338478	1
H	0.126675	0.578104	-1.865792	1
H	2.434675	0.698794	0.017208	1
H	1.545825	0.802474	1.561158	1
H	-0.694875	-0.398306	1.822728	1
H	0.428515	-1.759596	1.796708	1
H	-1.026915	-1.799056	0.790098	1
H	1.706105	-1.108876	-1.421812	1
Es	0.221806	-1.554738	1.589345	99
Es	-1.869730	1.391854	-1.082129	99
Es	-0.928289	0.681167	-0.747151	99
Es	1.443814	0.657535	0.481490	99
Es	-1.669951	0.791927	-0.698895	99
Es	0.269165	1.259006	-0.388397	99
Es	-0.541067	-0.630476	1.604625	99
Es	0.965545	-1.717166	-0.874199	99
Es	2.123750	0.673869	0.155087	99
Es	-0.770508	-1.585058	0.908529	99
Es	0.704586	1.814499	-0.308210	99
Es	1.515333	0.751653	1.222415	99
Es	0.365782	1.730656	0.115780	99
Es	0.120502	-0.026459	-0.422739	99
Es	0.958168	-1.153545	-0.460075	99
Es	0.543593	-0.513151	0.029294	99
Es	1.392633	-1.696441	-0.542508	99
Es	-0.232980	-1.148964	1.172649	99
Es	1.191177	-1.564672	-0.732863	99
Es	0.146555	-0.826483	0.597608	99
Es	-0.172169	0.588386	-0.808096	99
Es	1.055964	0.019815	0.298178	99
Es	0.909512	1.285098	0.125073	99
Es	1.462850	-1.302550	-1.099644	99
Es	-2.024471	0.204050	-0.983078	99
Es	0.551799	1.634328	-0.108287	99
Es	0.039518	0.567991	-1.536637	99
Es	-1.880697	0.878868	0.005847	99
45
Properties=species:S:1:pos:R:3:Z:I:1 energy=-344.9726839159494 field_type=dipole dipole="0.000000 0.000000 0.000000" charge=0
C	-1.669975	0.791944	-0.698882	6
C	-0.172255	0.588234	-0.808222	6
O	0.551765	1.634574	-0.108272	8
C	1.443955	0.657384	0.481588	6
C	0.543485	-0.513006	0.029418	6
C	-0.232995	-1.148996	1.172678	6
O	1.191135	-1.564896	-0.732792	8
H	-2.205415	-0.067326	-1.113842	1
H	-1.977685	1.680154	-1.260442	1
H	-1.992015	0.928394	0.338478	1
H	0.126675	0.578104	-1.865792	1
H	2.434675	0.698794	0.017208	1
H	1.545825	0.802474	1.561158	1
H	-0.694875	-0.398306	1.822728	1
H	0.428515	-1.759596	1.796708	1
H	-1.026915	-1.799056	0.790098	1
H	1.706105	-1.108876	-1.421812	1
Es	0.146684	-0.826476	0.597622	99
Es	-0.541253	-0.630447	1.604497	99
Es	-1.880793	0.878956	0.006184	99
Es	0.909853	1.285036	0.124661	99
Es	-1.869580	1.391693	-1.082246	99
Es	0.543592	-0.513148	0.029296	99
Es	-2.024348	0.204143	-0.983186	99
Es	0.957153	-1.152902	-0.460644	99
Es	0.039439	0.568063	-1.536901	99
Es	1.443815	0.657531	0.481491	99
Es	1.392949	-1.695365	-0.542299	99
Es	1.191158	-1.564617	-0.732842	99
Es	1.056092	0.019771	0.298033	99
Es	0.966403	-1.718378	-0.874242	99
Es	-1.669950	0.791927	-0.698895	99
Es	-0.172169	0.588388	-0.808096	99
Es	0.270416	1.259359	-0.390259	99
Es	-0.770340	-1.584972	0.908468	99
Es	0.364296	1.732161	0.116484	99
Es	0.120374	-0.026386	-0.422708	99
Es	2.123419	0.673864	0.155043	99
Es	0.704354	1.812732	-0.306619	99
Es	0.551830	1.634219	-0.108311	99
Es	-0.232978	-1.148964	1.172647	99
Es	0.221831	-1.554819	1.589515	99
Es	-0.928285	0.681084	-0.747100	99
Es	1.462722	-1.303143	-1.099299	99
Es	1.515507	0.751689	1.222719	99
45
Properties=species:S:1:pos:R:3:Z:I:1 energy=-344.9726839159494 field_type=dipole dipole="0.000000 0.000000 0.000000" charge=0
C	-1.669975	0.791944	-0.698882	6
C	-0.172255	0.588234	-0.808222	6
O	0.551765	1.634574	-0.108272	8
C	1.443955	0.657384	0.481588	6
C	0.543485	-0.513006	0.029418	6
C	-0.232995	-1.148996	1.172678	6
O	1.191135	-1.564896	-0.732792	8
H	-2.205415	-0.067326	-1.113842	1
H	-1.977685	1.680154	-1.260442	1
H	-1.992015	0.928394	0.338478	1
H	0.126675	0.578104	-1.865792	1
H	2.434675	0.698794	0.017208	1
H	1.545825	0.802474	1.561158	1
H	-0.694875	-0.398306	1.822728	1
H	0.428515	-1.759596	1.796708	1
H	-1.026915	-1.799056	0.790098	1
H	1.706105	-1.108876	-1.421812	1
Es	1.460232	-1.303041	-1.101579	99
Es	-0.172169	0.588388	-0.808095	99
Es	-1.869486	1.391654	-1.082304	99
Es	0.270867	1.258896	-0.390968	99
Es	1.056181	0.019812	0.297910	99
Es	0.910279	1.285708	0.124282	99
Es	0.039458	0.567981	-1.536994	99
Es	1.515588	0.751619	1.223017	99
Es	-2.024308	0.204236	-0.983240	99
Es	-1.669950	0.791927	-0.698896	99
Es	1.443816	0.657533	0.481491	99
Es	-0.232978	-1.148967	1.172647	99
Es	0.146660	-0.826593	0.597639	99
Es	0.703923	1.812439	-0.305997	99
Es	-1.880807	0.878963	0.006379	99
Es	-0.770405	-1.584847	0.908481	99
Es	0.363933	1.732216	0.116885	99
Es	1.191178	-1.564555	-0.732849	99
Es	0.967413	-1.720512	-0.871633	99
Es	0.221931	-1.554953	1.589438	99
Es	-0.928309	0.681105	-0.747198	99
Es	-0.541151	-0.630283	1.604534	99
Es	2.123206	0.673769	0.154964	99
Es	0.543587	-0.513146	0.029293	99
Es	1.395267	-1.692965	-0.541640	99
Es	0.120177	-0.026263	-0.422603	99
Es	0.956253	-1.153361	-0.461642	99
Es	0.551804	1.634239	-0.108310	99
45
Properties=species:S:1:pos:R:3:Z:I:1 energy=-344.9726839159494 field_type=dipole dipole="0.000000 0.000000 0.000000" charge=0
C	-1.669975	0.791944	-0.698882	6
C	-0.172255	0.588234	-0.808222	6
O	0.551765	1.634574	-0.108272	8
C	1.443955	0.657384	0.481588	6
C	0.543485	-0.513006	0.029418	6
C	-0.232995	-1.148996	1.172678	6
O	1.191135	-1.564896	-0.732792	8
H	-2.205415	-0.067326	-1.113842	1
H	-1.977685	1.680154	-1.260442	1
H	-1.992015	0.928394	0.338478	1
H	0.126675	0.578104	-1.865792	1
H	2.434675	0.698794	0.017208	1
H	1.545825	0.802474	1.561158	1
H	-0.694875	-0.398306	1.822728	1
H	0.428515	-1.759596	1.796708	1
H	-1.026915	-1.799056	0.790098	1
H	1.706105	-1.108876	-1.421812	1
Es	1.393931	-1.697670	-0.542667	99
Es	-0.232978	-1.148965	1.172648	99
Es	0.965625	-1.716143	-0.873524	99
Es	0.551783	1.634241	-0.108280	99
Es	0.543590	-0.513145	0.029299	99
Es	0.958515	-1.153246	-0.459924	99
Es	0.363863	1.734790	0.116368	99
Es	-0.172169	0.588387	-0.808094	99
Es	0.910016	1.285319	0.124926	99
Es	-0.541257	-0.630191	1.604555	99
Es	-0.770299	-1.584911	0.908423	99
Es	2.123036	0.673708	0.154872	99
Es	-1.669950	0.791927	-0.698896	99
Es	1.515649	0.751603	1.223268	99
Es	0.039521	0.567976	-1.537123	99
Es	0.704464	1.809879	-0.305857	99
Es	0.222042	-1.554921	1.589396	99
Es	-1.880938	0.879177	0.006579	99
Es	1.461087	-1.302834	-1.100428	99
Es	0.120080	-0.026245	-0.422583	99
Es	-0.928395	0.681104	-0.747147	99
Es	-1.869327	1.391425	-1.082433	99
Es	0.146574	-0.826674	0.597679	99
Es	1.056244	0.020029	0.297827	99
Es	0.270656	1.259168	-0.391248	99
Es	-2.024226	0.204206	-0.983308	99
Es	1.443815	0.657533	0.481491	99
Es	1.191240	-1.564527	-0.732807	99
45
Properties=species:S:1:pos:R:3:Z:I:1 energy=-344.9726839159494 field_type=dipole dipole="0.000000 0.000000 0.000000" charge=0
C	-1.669975	0.791944	-0.698882	6
C	-0.172255	0.588234	-0.808222	6
O	0.551765	1.634574	-0.108272	8
C	1.443955	0.657384	0.481588	6
C	0.543485	-0.513006	0.029418	6
C	-0.232995	-1.148996	1.172678	6
O	1.191135	-1.564896	-0.732792	8
H	-2.205415	-0.067326	-1.113842	1
H	-1.977685	1.680154	-1.260442	1
H	-1.992015	0.928394	0.338478	1
H	0.126675	0.578104	-1.865792	1
H	2.434675	0.698794	0.017208	1
H	1.545825	0.802474	1.561158	1
H	-0.694875	-0.398306	1.822728	1
H	0.428515	-1.759596	1.796708	1
H	-1.026915	-1.799056	0.790098	1
H	1.706105	-1.108876	-1.421812	1
Es	0.119971	-0.026176	-0.422601	99
Es	-0.172169	0.588387	-0.808096	99
Es	-0.770424	-1.584821	0.908284	99
Es	0.362726	1.733138	0.116863	99
Es	1.394393	-1.698551	-0.543560	99
Es	1.056295	0.020018	0.297784	99
Es	1.191166	-1.564513	-0.732870	99
Es	-0.541182	-0.630342	1.604464	99
Es	-1.669951	0.791927	-0.698896	99
Es	-0.928342	0.681129	-0.747254	99
Es	-0.232978	-1.148968	1.172646	99
Es	0.543592	-0.513150	0.029295	99
Es	2.122953	0.673674	0.154881	99
Es	1.515662	0.751596	1.223381	99
Es	0.146715	-0.826502	0.597781	99
Es	0.272047	1.259573	-0.393077	99
Es	0.703633	1.811138	-0.303981	99
Es	-2.024167	0.204310	-0.983390	99
Es	-1.869375	1.391400	-1.082358	99
Es	1.443816	0.657533	0.481489	99
Es	-1.880942	0.879062	0.006712	99
Es	0.039495	0.567928	-1.537173	99
Es	0.965415	-1.715209	-0.872449	99
Es	0.551865	1.634184	-0.108352	99
Es	0.222031	-1.555005	1.589512	99
Es	1.459922	-1.303183	-1.101541	99
Es	0.910545	1.285398	0.124420	99
Es	0.959479	-1.152978	-0.458905	99
45
Properties=species:S:1:pos:R:3:Z:I:1 energy=-344.9726839159494 field_type=dipole dipole="0.000000 0.000000 0.000000" charge=0
C	-1.669975	0.791944	-0.698882	6
C	-0.172255	0.588234	-0.808222	6
O	0.551765	1.634574	-0.108272	8
C	1.443955	0.657384	0.481588	6
C	0.543485	-0.513006	0.029418	6
C	-0.232995	-1.148996	1.172678	6
O	1.191135	-1.564896	-0.732792	8
H	-2.205415	-0.067326	-1.113842	1
H	-1.977685	1.680154	-1.260442	1
H	-1.992015	0.928394	0.338478	1
H	0.126675	0.578104	-1.865792	1
H	2.434675	0.698794	0.017208	1
H	1.545825	0.802474	1.561158	1
H	-0.694875	-0.398306	1.822728	1
H	0.428515	-1.759596	1.796708	1
H	-1.026915	-1.799056	0.790098	1
H	1.706105	-1.108876	-1.421812	1
Es	0.964821	-1.716208	-0.874352	99
Es	-1.669950	0.791927	-0.698896	99
Es	0.039417	0.568014	-1.537349	99
Es	0.119795	-0.026167	-0.422519	99
Es	1.056327	0.019991	0.297748	99
Es	0.910247	1.285162	0.125084	99
Es	1.461873	-1.303024	-1.099562	99
Es	-0.770215	-1.584745	0.908440	99
Es	0.271758	1.259760	-0.393304	99
Es	-0.232978	-1.148968	1.172648	99
Es	0.543592	-0.513146	0.029297	99
Es	1.393404	-1.697677	-0.542537	99
Es	0.959110	-1.152948	-0.460059	99
Es	0.551864	1.634238	-0.108383	99
Es	2.122804	0.673655	0.154850	99
Es	1.191181	-1.564560	-0.732868	99
Es	0.146747	-0.826700	0.597633	99
Es	-1.881014	0.879050	0.006972	99
Es	0.222093	-1.555085	1.589451	99
Es	-0.172169	0.588389	-0.808096	99
Es	-1.869297	1.391343	-1.082479	99
Es	-0.928361	0.681150	-0.747224	99
Es	0.362880	1.734142	0.116284	99
Es	1.443814	0.657535	0.481491	99
Es	1.515750	0.751595	1.223508	99
Es	-2.023988	0.204369	-0.983470	99
Es	-0.541324	-0.630153	1.604522	99
Es	0.704008	1.810061	-0.303818	99
45
Properties=species:S:1:pos:R:3:Z:I:1 energy=-344.9726839159494 field_type=dipole dipole="0.000000 0.000000 0.000000" charge=0
C	-1.669975	0.791944	-0.698882	6
C	-0.172255	0.588234	-0.808222	6
O	0.551765	1.634574	-0.108272	8
C	1.443955	0.657384	0.481588	6
C	0.543485	-0.513006	0.029418	6
C	-0.232995	-1.148996	1.172678	6
O	1.191135	-1.564896	-0.732792	8
H	-2.205415	-0.067326	-1.113842	1
H	-1.977685	1.680154	-1.260442	1
H	-1.992015	0.928394	0.338478	1
H	0.126675	0.578104	-1.865792	1
H	2.434675	0.698794	0.017208	1
H	1.545825	0.802474	1.561158	1
H	-0.694875	-0.398306	1.822728	1
H	0.428515	-1.759596	1.796708	1
H	-1.026915	-1.799056	0.790098	1
H	1.706105	-1.108876	-1.421812	1
Es	0.273062	1.259312	-0.393634	99
Es	0.911387	1.285900	0.124837	99
Es	-0.232979	-1.148968	1.172648	99
Es	1.443814	0.657533	0.481490	99
Es	0.119784	-0.026017	-0.422559	99
Es	0.039479	0.567921	-1.537401	99
Es	0.543592	-0.513148	0.029296	99
Es	-0.541363	-0.630104	1.604574	99
Es	0.702544	1.813202	-0.303324	99
Es	0.362046	1.730688	0.116286	99
Es	1.515803	0.751604	1.223661	99
Es	-0.770189	-1.584805	0.908330	99
Es	-0.172170	0.588386	-0.808096	99
Es	-0.928449	0.681106	-0.747230	99
Es	-2.024095	0.204400	-0.983628	99
Es	2.122702	0.673581	0.154768	99
Es	0.965002	-1.714626	-0.874234	99
Es	0.146640	-0.826672	0.597653	99
Es	-1.869082	1.391191	-1.082406	99
Es	0.222151	-1.555058	1.589384	99
Es	1.056339	0.020062	0.297815	99
Es	-1.669951	0.791927	-0.698895	99
Es	1.191122	-1.564685	-0.732822	99
Es	0.959217	-1.152699	-0.460133	99
Es	1.461588	-1.303396	-1.099865	99
Es	1.393469	-1.699049	-0.542314	99
Es	0.551792	1.634229	-0.108285	99
Es	-1.881067	0.879187	0.007098	99
45
Properties=species:S:1:pos:R:3:Z:I:1 energy=-344.9726839159494 field_type=dipole dipole="0.000000 0.000000 0.000000" charge=0
C	-1.669975	0.791944	-0.698882	6
C	-0.172255	0.588234	-0.808222	6
O	0.551765	1.634574	-0.108272	8
C	1.443955	0.657384	0.481588	6
C	0.543485	-0.513006	0.029418	6
C	-0.232995	-1.148996	1.172678	6
O	1.191135	-1.564896	-0.732792	8
H	-2.205415	-0.067326	-1.113842	1
H	-1.977685	1.680154	-1.260442	1
H	-1.992015	0.928394	0.338478	1
H	0.126675	0.578104	-1.865792	1
H	2.434675	0.698794	0.017208	1
H	1.545825	0.802474	1.561158	1
H	-0.694875	-0.398306	1.822728	1
H	0.428515	-1.759596	1.796708	1
H	-1.026915	-1.799056	0.790098	1
H	1.706105	-1.108876	-1.421812	1
Es	-0.172166	0.588390	-0.808097	99
Es	1.443817	0.657529	0.481492	99
Es	-0.770419	-1.584883	0.908417	99
Es	-2.023984	0.204294	-0.983583	99
Es	0.222077	-1.554929	1.589478	99
Es	0.543594	-0.513150	0.029296	99
Es	0.363342	1.736580	0.116310	99
Es	0.551809	1.634223	-0.108294	99
Es	-0.232979	-1.148968	1.172649	99
Es	-1.880985	0.879133	0.007112	99
Es	1.056436	0.020042	0.297663	99
Es	0.119734	-0.026065	-0.422479	99
Es	1.460591	-1.302878	-1.100385	99
Es	-0.928427	0.681183	-0.747248	99
Es	0.910500	1.285266	0.124950	99
Es	0.957860	-1.153206	-0.460595	99
Es	-1.869172	1.391256	-1.082471	99
Es	2.122597	0.673674	0.154791	99
Es	-1.669950	0.791928	-0.698897	99
Es	1.191176	-1.564547	-0.732850	99
Es	0.966171	-1.715280	-0.873677	99
Es	-0.541161	-0.630304	1.604479	99
Es	0.704028	1.807683	-0.304121	99
Es	1.515853	0.751622	1.223727	99
Es	0.146727	-0.826544	0.597624	99
Es	1.394580	-1.698525	-0.541851	99
Es	0.271055	1.259558	-0.392942	99
Es	0.039483	0.567914	-1.537488	99
45
Properties=species:S:1:pos:R:3:Z:I:1 energy=-344.9726839159494 field_type=dipole dipole="0.000000 0.000000 0.000000" charge=0
C	-1.669975	0.791944	-0.698882	6
C	-0.172255	0.588234	-0.808222	6
O	0.551765	1.634574	-0.108272	8
C	1.443955	0.657384	0.481588	6
C	0.543485	-0.513006	0.029418	6
C	-0.232995	-1.148996	1.172678	6
O	1.191135	-1.564896	-0.732792	8
H	-2.205415	-0.067326	-1.113842	1
H	-1.977685	1.680154	-1.260442	1
H	-1.992015	0.928394	0.338478	1
H	0.126675	0.578104	-1.865792	1
H	2.434675	0.698794	0.017208	1
H	1.545825	0.802474	1.561158	1
H	-0.694875	-0.398306	1.822728	1
H	0.428515	-1.759596	1.796708	1
H	-1.026915	-1.799056	0.790098	1
H	1.706105	-1.108876	-1.421812	1
Es	-1.881081	0.879105	0.007229	99
Es	-0.172169	0.588387	-0.808096	99
Es	2.122561	0.673552	0.154720	99
Es	-1.669950	0.791927	-0.698896	99
Es	0.551806	1.634251	-0.108296	99
Es	-0.928411	0.681051	-0.747211	99
Es	0.146754	-0.826577	0.597671	99
Es	-1.869053	1.391198	-1.082391	99
Es	0.961596	-1.152732	-0.458376	99
Es	0.703094	1.810789	-0.302838	99
Es	0.911087	1.285492	0.124470	99
Es	0.119664	-0.026002	-0.422535	99
Es	0.543592	-0.513148	0.029297	99
Es	1.443816	0.657533	0.481491	99
Es	0.362626	1.733082	0.116668	99
Es	-0.541299	-0.630246	1.604539	99
Es	0.272184	1.259675	-0.394132	99
Es	0.222145	-1.555040	1.589435	99
Es	-0.232978	-1.148967	1.172647	99
Es	-2.024045	0.204492	-0.983708	99
Es	0.963300	-1.710439	-0.875332	99
Es	-0.770273	-1.584805	0.908330	99
Es	1.191168	-1.564604	-0.732838	99
Es	1.515883	0.751615	1.223807	99
Es	1.392319	-1.703415	-0.543434	99
Es	1.462022	-1.303226	-1.099385	99
Es	1.056394	0.020131	0.297715	99
Es	0.039437	0.567920	-1.537541	99
45
Properties=species:S:1:pos:R:3:Z:I:1 energy=-344.9726839159494 field_type=dipole dipole="0.000000 0.000000 0.000000" charge=0
C	-1.669975	0.791944	-0.698882	6
C	-0.172255	0.588234	-0.808222	6
O	0.551765	1.634574	-0.108272	8
C	1.443955	0.657384	0.481588	6
C	0.543485	-0.513006	0.029418	6
C	-0.232995	-1.148996	1.172678	6
O	1.191135	-1.564896	-0.732792	8
H	-2.205415	-0.067326	-1.113842	1
H	-1.977685	1.680154	-1.260442	1
H	-1.992015	0.928394	0.338478	1
H	0.126675	0.578104	-1.865792	1
H	2.434675	0.698794	0.017208	1
H	1.545825	0.802474	1.561158	1
H	-0.694875	-0.398306	1.822728	1
H	0.428515	-1.759596	1.796708	1
H	-1.026915	-1.799056	0.790098	1
H	1.706105	-1.108876	-1.421812	1
Es	1.191127	-1.564570	-0.732893	99
Es	-1.881132	0.879195	0.007262	99
Es	-2.023961	0.204468	-0.983631	99
Es	2.122458	0.673559	0.154693	99
Es	-0.541220	-0.630168	1.604456	99
Es	-1.669950	0.791927	-0.698895	99
Es	-0.172170	0.588387	-0.808095	99
Es	0.119608	-0.025929	-0.422531	99
Es	0.271363	1.259288	-0.393064	99
Es	-0.928387	0.681121	-0.747275	99
Es	0.146681	-0.826659	0.597642	99
Es	0.551887	1.634199	-0.108406	99
Es	1.443816	0.657532	0.481492	99
Es	0.704500	1.806757	-0.304141	99
Es	0.222258	-1.555079	1.589471	99
Es	0.363051	1.737625	0.115216	99
Es	-0.770321	-1.584741	0.908464	99
Es	0.965152	-1.716920	-0.872195	99
Es	-0.232982	-1.148971	1.172649	99
Es	0.543592	-0.513149	0.029296	99
Es	0.909963	1.285387	0.126281	99
Es	0.039485	0.567943	-1.537534	99
Es	1.459505	-1.303148	-1.101575	99
Es	0.959320	-1.153067	-0.459921	99
Es	1.056409	0.020024	0.297654	99
Es	-1.869090	1.391097	-1.082503	99
Es	1.395273	-1.696721	-0.542781	99
Es	1.515955	0.751611	1.223880	99
45
Properties=species:S:1:pos:R:3:Z:I:1 energy=-344.9726839159494 field_type=dipole dipole="0.000000 0.000000 0.000000" charge=0
C	-1.669975	0.791944	-0.698882	6
C	-0.172255	0.588234	-0.808222	6
O	0.551765	1.634574	-0.108272	8
C	1.443955	0.657384	0.481588	6
C	0.543485	-0.513006	0.029418	6
C	-0.232995	-1.148996	1.172678	6
O	1.191135	-1.564896	-0.732792	8
H	-2.205415	-0.067326	-1.113842	1
H	-1.977685	1.680154	-1.260442	1
H	-1.992015	0.928394	0.338478	1
H	0.126675	0.578104	-1.865792	1
H	2.434675	0.698794	0.017208	1
H	1.545825	0.802474	1.561158	1
H	-0.694875	-0.398306	1.822728	1
H	0.428515	-1.759596	1.796708	1
H	-1.026915	-1.799056	0.790098	1
H	1.706105	-1.108876	-1.421812	1
Es	1.443814	0.657535	0.481490	99
Es	-2.023868	0.204443	-0.983727	99
Es	-1.669950	0.791927	-0.698895	99
Es	1.515840	0.751516	1.223944	99
Es	0.039465	0.567889	-1.537595	99
Es	1.191132	-1.564653	-0.732845	99
Es	0.543593	-0.513152	0.029295	99
Es	0.146747	-0.826662	0.597694	99
Es	1.460100	-1.303101	-1.100511	99
Es	0.703857	1.808463	-0.303551	99
Es	1.394393	-1.700404	-0.543023	99
Es	0.119594	-0.025964	-0.422481	99
Es	-0.172169	0.588386	-0.808095	99
Es	0.222178	-1.555000	1.589433	99
Es	-0.541271	-0.630175	1.604514	99
Es	0.551790	1.634339	-0.108277	99
Es	0.910541	1.285672	0.125390	99
Es	1.056464	0.020245	0.297663	99
Es	0.362908	1.735539	0.115928	99
Es	-0.928398	0.681192	-0.747260	99
Es	-0.770309	-1.584851	0.908303	99
Es	0.960092	-1.152873	-0.459290	99
Es	-1.881158	0.879143	0.007351	99
Es	0.271685	1.259308	-0.393624	99
Es	-1.869107	1.391052	-1.082471	99
Es	-0.232978	-1.148968	1.172648	99
Es	2.122516	0.673512	0.154710	99
Es	0.964689	-1.713362	-0.873704	99
45
Properties=species:S:1:pos:R:3:Z:I:1 energy=-344.9726839159494 field_type=dipole dipole="0.000000 0.000000 0.000000" charge=0
C	-1.669975	0.791944	-0.698882	6
C	-0.172255	0.588234	-0.808222	6
O	0.551765	1.634574	-0.108272	8
C	1.443955	0.657384	0.481588	6
C	0.543485	-0.513006	0.029418	6
C	-0.232995	-1.148996	1.172678	6
O	1.191135	-1.564896	-0.732792	8
H	-2.205415	-0.067326	-1.113842	1
H	-1.977685	1.680154	-1.260442	1
H	-1.992015	0.928394	0.338478	1
H	0.126675	0.578104	-1.865792	1
H	2.434675	0.698794	0.017208	1
H	1.545825	0.802474	1.561158	1
H	-0.694875	-0.398306	1.822728	1
H	0.428515	-1.759596	1.796708	1
H	-1.026915	-1.799056	0.790098	1
H	1.706105	-1.108876	-1.421812	1
Es	0.362952	1.737071	0.116126	99
Es	0.146743	-0.826629	0.597643	99
Es	1.515915	0.751537	1.224043	99
Es	2.122389	0.673589	0.154707	99
Es	1.191163	-1.564564	-0.732853	99
Es	-1.869106	1.391085	-1.082549	99
Es	0.704791	1.806992	-0.302697	99
Es	-0.232978	-1.148967	1.172647	99
Es	-1.669950	0.791927	-0.698895	99
Es	0.543592	-0.513152	0.029294	99
Es	-2.023839	0.204417	-0.983670	99
Es	0.271574	1.259992	-0.394614	99
Es	-0.541201	-0.630227	1.604382	99
Es	-0.928433	0.681142	-0.747205	99
Es	1.056520	0.020128	0.297535	99
Es	0.222202	-1.555053	1.589562	99
Es	0.959969	-1.152655	-0.460069	99
Es	0.119601	-0.025901	-0.422550	99
Es	1.461401	-1.303433	-1.100171	99
Es	-0.770378	-1.584756	0.908400	99
Es	-0.172170	0.588387	-0.808095	99
Es	1.443816	0.657533	0.481490	99
Es	0.551805	1.634274	-0.108343	99
Es	0.039403	0.567936	-1.537676	99
Es	0.909652	1.284918	0.125426	99
Es	0.964412	-1.713329	-0.874105	99
Es	-1.881091	0.879163	0.007398	99
Es	1.393437	-1.700426	-0.542150	99
45
Properties=species:S:1:pos:R:3:Z:I:1 energy=-344.9726839159494 field_type=dipole dipole="0.000000 0.000000 0.000000" charge=0
C	-1.669975	0.791944	-0.698882	6
C	-0.172255	0.588234	-0.808222	6
O	0.551765	1.634574	-0.108272	8
C	1.443955	0.657384	0.481588	6
C	0.543485	-0.513006	0.029418	6
C	-0.232995	-1.148996	1.172678	6
O	1.191135	-1.564896	-0.732792	8
H	-2.205415	-0.067326	-1.113842	1
H	-1.977685	1.680154	-1.260442	1
H	-1.992015	0.928394	0.338478	1
H	0.126675	0.578104	-1.865792	1
H	2.434675	0.698794	0.017208	1
H	1.545825	0.802474	1.561158	1
H	-0.694875	-0.398306	1.822728	1
H	0.428515	-1.759596	1.796708	1
H	-1.026915	-1.799056	0.790098	1
H	1.706105	-1.108876	-1.421812	1
Es	2.122400	0.673619	0.154730	99
Es	0.910339	1.285645	0.125891	99
Es	1.515875	0.751549	1.224067	99
Es	0.146752	-0.826693	0.597653	99
Es	1.056568	0.020149	0.297542	99
Es	1.443815	0.657532	0.481491	99
Es	0.959762	-1.153004	-0.459626	99
Es	-0.770281	-1.584852	0.908368	99
Es	-1.869050	1.390948	-1.082522	99
Es	0.119509	-0.025911	-0.422508	99
Es	0.551756	1.634218	-0.108257	99
Es	-0.172170	0.588386	-0.808096	99
Es	0.039490	0.567926	-1.537663	99
Es	0.222237	-1.554981	1.589528	99
Es	-1.669950	0.791927	-0.698895	99
Es	0.271924	1.259199	-0.393996	99
Es	1.459514	-1.303142	-1.101339	99
Es	1.395040	-1.698995	-0.542791	99
Es	-0.541300	-0.630128	1.604402	99
Es	1.191179	-1.564621	-0.732828	99
Es	0.543592	-0.513149	0.029295	99
Es	-0.232980	-1.148969	1.172650	99
Es	-2.023943	0.204438	-0.983662	99
Es	0.964885	-1.714657	-0.872771	99
Es	0.704025	1.807799	-0.303236	99
Es	-1.881108	0.879303	0.007413	99
Es	0.362720	1.736288	0.115480	99
Es	-0.928411	0.681173	-0.747306	99
45
Properties=species:S:1:pos:R:3:Z:I:1 energy=-344.9726839159494 field_type=dipole dipole="0.000000 0.000000 0.000000" charge=0
C	-1.669975	0.791944	-0.698882	6
C	-0.172255	0.588234	-0.808222	6
O	0.551765	1.634574	-0.108272	8
C	1.443955	0.657384	0.481588	6
C	0.543485	-0.513006	0.029418	6
C	-0.232995	-1.148996	1.172678	6
O	1.191135	-1.564896	-0.732792	8
H	-2.205415	-0.067326	-1.113842	1
H	-1.977685	1.680154	-1.260442	1
H	-1.992015	0.928394	0.338478	1
H	0.126675	0.578104	-1.865792	1
H	2.434675	0.698794	0.017208	1
H	1.545825	0.802474	1.561158	1
H	-0.694875	-0.398306	1.822728	1
H	0.428515	-1.759596	1.796708	1
H	-1.026915	-1.799056	0.790098	1
H	1.706105	-1.108876	-1.421812	1
Es	0.910622	1.285314	0.125733	99
Es	-1.881149	0.879109	0.007502	99
Es	0.551874	1.634222	-0.108385	99
Es	0.272024	1.259714	-0.394436	99
Es	1.191155	-1.564555	-0.732854	99
Es	1.395840	-1.697400	-0.543376	99
Es	0.703675	1.807648	-0.302640	99
Es	-2.023720	0.204475	-0.983701	99
Es	-0.770426	-1.584724	0.908287	99
Es	-1.869163	1.391019	-1.082564	99
Es	0.119519	-0.025919	-0.422457	99
Es	1.515901	0.751560	1.224051	99
Es	0.362571	1.736290	0.115602	99
Es	0.543591	-0.513145	0.029297	99
Es	-1.669950	0.791927	-0.698896	99
Es	-0.232980	-1.148969	1.172646	99
Es	-0.541186	-0.630355	1.604355	99
Es	0.965008	-1.716320	-0.871981	99
Es	-0.172169	0.588389	-0.808096	99
Es	1.458595	-1.303493	-1.101810	99
Es	-0.928417	0.681278	-0.747335	99
Es	0.039467	0.567900	-1.537684	99
Es	1.443815	0.657533	0.481491	99
Es	1.056532	0.020165	0.297578	99
Es	0.959775	-1.152613	-0.459347	99
Es	0.222157	-1.555088	1.589620	99
Es	2.122415	0.673558	0.154676	99
Es	0.146816	-0.826522	0.597734	99
45
Properties=species:S:1:pos:R:3:Z:I:1 energy=-344.9726839159494 field_type=dipole dipole="0.000000 0.000000 0.000000" charge=0
C	-1.669975	0.791944	-0.698882	6
C	-0.172255	0.588234	-0.808222	6
O	0.551765	1.634574	-0.108272	8
C	1.443955	0.657384	0.481588	6
C	0.543485	-0.513006	0.029418	6
C	-0.232995	-1.148996	1.172678	6
O	1.191135	-1.564896	-0.732792	8
H	-2.205415	-0.067326	-1.113842	1
H	-1.977685	1.680154	-1.260442	1
H	-1.992015	0.928394	0.338478	1
H	0.126675	0.578104	-1.865792	1
H	2.434675	0.698794	0.017208	1
H	1.545825	0.802474	1.561158	1
H	-0.694875	-0.398306	1.822728	1
H	0.428515	-1.759596	1.796708	1
H	-1.026915	-1.799056	0.790098	1
H	1.706105	-1.108876	-1.421812	1
Es	-0.541222	-0.630229	1.604469	99
Es	2.122280	0.673488	0.154590	99
Es	0.039495	0.567832	-1.537728	99
Es	-1.669950	0.791927	-0.698895	99
Es	0.222200	-1.555154	1.589493	99
Es	0.543592	-0.513151	0.029294	99
Es	1.056494	0.020227	0.297598	99
Es	0.964447	-1.715048	-0.873054	99
Es	1.395207	-1.698821	-0.542697	99
Es	0.703884	1.807880	-0.302818	99
Es	-0.232980	-1.148965	1.172649	99
Es	0.960055	-1.152963	-0.459866	99
Es	1.443815	0.657533	0.481491	99
Es	1.459420	-1.303053	-1.100999	99
Es	-0.770343	-1.584676	0.908348	99
Es	0.119379	-0.025840	-0.422443	99
Es	1.516011	0.751576	1.224165	99
Es	-1.881179	0.879242	0.007514	99
Es	-2.023779	0.204468	-0.983691	99
Es	-1.869118	1.390896	-1.082565	99
Es	0.362180	1.735965	0.115736	99
Es	0.551789	1.634298	-0.108282	99
Es	-0.928349	0.681235	-0.747340	99
Es	-0.172171	0.588387	-0.808096	99
Es	0.910463	1.285646	0.125762	99
Es	0.272463	1.259423	-0.394508	99
Es	1.191283	-1.564506	-0.732762	99
Es	0.146822	-0.826618	0.597649	99
45
Properties=species:S:1:pos:R:3:Z:I:1 energy=-344.9726839159494 field_type=dipole dipole="0.000000 0.000000 0.000000" charge=0
C	-1.669975	0.791944	-0.698882	6
C	-0.172255	0.588234	-0.808222	6
O	0.551765	1.634574	-0.108272	8
C	1.443955	0.657384	0.481588	6
C	0.543485	-0.513006	0.029418	6
C	-0.232995	-1.148996	1.172678	6
O	1.191135	-1.564896	-0.732792	8
H	-2.205415	-0.067326	-1.113842	1
H	-1.977685	1.680154	-1.260442	1
H	-1.992015	0.928394	0.338478	1
H	0.126675	0.578104	-1.865792	1
H	2.434675	0.698794	0.017208	1
H	1.545825	0.802474	1.561158	1
H	-0.694875	-0.398306	1.822728	1
H	0.428515	-1.759596	1.796708	1
H	-1.026915	-1.799056	0.790098	1
H	1.706105	-1.108876	-1.421812	1
Es	0.119470	-0.025801	-0.422461	99
Es	0.958764	-1.153054	-0.460416	99
Es	0.702741	1.808891	-0.301583	99
Es	0.911457	1.285762	0.124707	99
Es	0.272398	1.259647	-0.395391	99
Es	-2.023816	0.204578	-0.983783	99
Es	-1.881115	0.879123	0.007624	99
Es	1.395087	-1.697650	-0.542201	99
Es	-0.770402	-1.584794	0.908433	99
Es	2.122245	0.673512	0.154661	99
Es	0.146702	-0.826644	0.597585	99
Es	0.039479	0.567863	-1.537805	99
Es	1.443815	0.657534	0.481491	99
Es	-0.541187	-0.630214	1.604295	99
Es	1.056579	0.020221	0.297540	99
Es	-1.669950	0.791928	-0.698896	99
Es	-0.172169	0.588388	-0.808096	99
Es	0.362417	1.734627	0.116356	99
Es	1.515960	0.751538	1.224225	99
Es	0.222271	-1.555003	1.589628	99
Es	0.551756	1.634243	-0.108248	99
Es	1.459873	-1.303058	-1.101020	99
Es	1.191188	-1.564510	-0.732836	99
Es	-1.868923	1.391100	-1.082589	99
Es	0.965484	-1.716144	-0.872885	99
Es	-0.928548	0.681036	-0.747267	99
Es	-0.232978	-1.148967	1.172647	99
Es	0.543593	-0.513150	0.029295	99
45
Properties=species:S:1:pos:R:3:Z:I:1 energy=-344.9726839159494 field_type=dipole dipole="0.000000 0.000000 0.000000" charge=0
C	-1.669975	0.791944	-0.698882	6
C	-0.172255	0.588234	-0.808222	6
O	0.551765	1.634574	-0.108272	8
C	1.443955	0.657384	0.481588	6
C	0.543485	-0.513006	0.029418	6
C	-0.232995	-1.148996	1.172678	6
O	1.191135	-1.564896	-0.732792	8
H	-2.205415	-0.067326	-1.113842	1
H	-1.977685	1.680154	-1.260442	1
H	-1.992015	0.928394	0.338478	1
H	0.126675	0.578104	-1.865792	1
H	2.434675	0.698794	0.017208	1
H	1.545825	0.802474	1.561158	1
H	-0.694875	-0.398306	1.822728	1
H	0.428515	-1.759596	1.796708	1
H	-1.026915	-1.799056	0.790098	1
H	1.706105	-1.108876	-1.421812	1
Es	-0.541159	-0.630289	1.604273	99
Es	0.119393	-0.025873	-0.422444	99
Es	1.056602	0.020212	0.297422	99
Es	-0.172171	0.588385	-0.808098	99
Es	1.395348	-1.698275	-0.542943	99
Es	0.958782	-1.153552	-0.459483	99
Es	0.146825	-0.826599	0.597617	99
Es	-0.232978	-1.148968	1.172648	99
Es	-0.928502	0.681227	-0.747344	99
Es	0.270631	1.259568	-0.393522	99
Es	-1.869019	1.391029	-1.082557	99
Es	1.443816	0.657533	0.481491	99
Es	0.222204	-1.555061	1.589678	99
Es	0.910264	1.285180	0.125908	99
Es	0.965529	-1.715684	-0.873348	99
Es	1.459516	-1.302351	-1.100729	99
Es	-1.881051	0.879152	0.007638	99
Es	1.516036	0.751558	1.224242	99
Es	-0.770423	-1.584710	0.908488	99
Es	2.122187	0.673506	0.154626	99
Es	0.363643	1.739843	0.115330	99
Es	-2.023773	0.204447	-0.983782	99
Es	-1.669950	0.791927	-0.698896	99
Es	1.191162	-1.564532	-0.732847	99
Es	0.704437	1.804362	-0.303532	99
Es	0.039451	0.567891	-1.537815	99
Es	0.551798	1.634221	-0.108305	99
Es	0.543592	-0.513149	0.029296	99
45
Properties=species:S:1:pos:R:3:Z:I:1 energy=-344.9726839159494 field_type=dipole dipole="0.000000 0.000000 0.000000" charge=0
C	-1.669975	0.791944	-0.698882	6
C	-0.172255	0.588234	-0.808222	6
O	0.551765	1.634574	-0.108272	8
C	1.443955	0.657384	0.481588	6
C	0.543485	-0.513006	0.029418	6
C	-0.232995	-1.148996	1.172678	6
O	1.191135	-1.564896	-0.732792	8
H	-2.205415	-0.067326	-1.113842	1
H	-1.977685	1.680154	-1.260442	1
H	-1.992015	0.928394	0.338478	1
H	0.126675	0.578104	-1.865792	1
H	2.434675	0.698794	0.017208	1
H	1.545825	0.802474	1.561158	1
H	-0.694875	-0.398306	1.822728	1
H	0.428515	-1.759596	1.796708	1
H	-1.026915	-1.799056	0.790098	1
H	1.706105	-1.108876	-1.421812	1
Es	1.516053	0.751565	1.224223	99
Es	1.393783	-1.702052	-0.543287	99
Es	-0.770446	-1.584749	0.908459	99
Es	0.222206	-1.555049	1.589530	99
Es	0.551775	1.634246	-0.108251	99
Es	-0.172169	0.588388	-0.808095	99
Es	-1.881182	0.879223	0.007625	99
Es	0.543590	-0.513147	0.029295	99
Es	1.191232	-1.564520	-0.732817	99
Es	0.960966	-1.153057	-0.458706	99
Es	0.705358	1.803884	-0.303738	99
Es	2.122215	0.673478	0.154570	99
Es	1.460521	-1.302875	-1.100346	99
Es	0.909271	1.285322	0.127345	99
Es	0.119405	-0.025802	-0.422464	99
Es	0.963878	-1.711893	-0.874194	99
Es	-0.232979	-1.148968	1.172648	99
Es	0.363196	1.740442	0.114284	99
Es	-1.669950	0.791927	-0.698895	99
Es	-1.868970	1.390917	-1.082545	99
Es	-0.928474	0.681128	-0.747339	99
Es	1.056586	0.020273	0.297658	99
Es	1.443813	0.657536	0.481491	99
Es	-2.023816	0.204542	-0.983794	99
Es	0.271137	1.259275	-0.393737	99
Es	0.146776	-0.826608	0.597470	99
Es	0.039534	0.567838	-1.537784	99
Es	-0.541119	-0.630262	1.604410	99
45
Properties=species:S:1:pos:R:3:Z:I:1 energy=-344.9726839159494 field_type=dipole dipole="0.000000 0.000000 0.000000" charge=0
C	-1.669975	0.791944	-0.698882	6
C	-0.172255	0.588234	-0.808222	6
O	0.551765	1.634574	-0.108272	8
C	1.443955	0.657384	0.481588	6
C	0.543485	-0.513006	0.029418	6
C	-0.232995	-1.148996	1.172678	6
O	1.191135	-1.564896	-0.732792	8
H	-2.205415	-0.067326	-1.113842	1
H	-1.977685	1.680154	-1.260442	1
H	-1.992015	0.928394	0.338478	1