45
Properties=species:S:1:pos:R:3:Z:I:1 energy=-344.97132116807626 field_type=dipole dipole="0.000000 0.000000 0.000000" charge=0
C	-1.848036	0.071222	-0.347159	6
C	-0.330056	0.130712	-0.409419	6
O	0.072984	0.139022	-1.801829	8
C	0.313944	1.217782	0.489991	6
C	1.370324	0.182382	0.912701	6
C	0.403044	-0.938188	0.469721	6
O	1.011544	-2.026778	-0.257549	8
H	-2.210676	0.056012	0.686141	1
H	-2.221646	-0.829518	-0.844829	1
H	-2.290986	0.940282	-0.843879	1
H	1.034044	0.310202	-1.792399	1
H	-0.319716	1.559922	1.315821	1
H	0.710304	2.092672	-0.032399	1
H	2.294384	0.227272	0.323541	1
H	1.630054	0.188182	1.973680	1
H	-0.207776	-1.326168	1.294281	1
H	0.588264	-1.995018	-1.136409	1
Es	1.298650	-1.939654	-0.302733	99
Es	-0.123403	1.436506	1.049983	99
Es	0.582353	1.812968	0.129018	99
Es	1.011290	-2.026568	-0.257665	99
Es	0.933439	-2.287400	-0.119750	99
Es	-0.329970	0.130718	-0.409618	99
Es	0.773919	-2.004104	-0.716594	99
Es	-2.143841	0.663232	-0.681624	99
Es	1.370273	0.182403	0.912679	99
Es	-1.098496	0.099177	-0.382586	99
Es	1.551121	0.187375	1.639266	99
Es	0.589085	0.230108	-1.781126	99
Es	0.073214	0.138994	-1.801562	99
Es	0.033735	-0.153663	-1.899700	99
Es	-0.050534	0.743689	0.006424	99
Es	0.313964	1.217727	0.489989	99
Es	0.945284	-0.430370	0.733045	99
Es	1.987655	0.214255	0.496707	99
Es	-0.022583	-1.191340	1.034843	99
Es	-0.049389	0.139075	-1.269454	99
Es	0.767782	-1.613955	0.005386	99
Es	0.884667	0.763164	0.740992	99
Es	0.403164	-0.938312	0.469588	99
Es	-0.005790	-0.471990	-0.009096	99
Es	-1.848019	0.071218	-0.347149	99
Es	-0.061924	0.381719	-1.924854	99
Es	-2.096084	-0.543701	-0.683764	99
Es	-2.081712	0.060640	0.361762	99
45
Properties=species:S:1:pos:R:3:Z:I:1 energy=-344.97132116807626 field_type=dipole dipole="0.000000 0.000000 0.000000" charge=0
C	-1.848036	0.071222	-0.347159	6
C	-0.330056	0.130712	-0.409419	6
O	0.072984	0.139022	-1.801829	8
C	0.313944	1.217782	0.489991	6
C	1.370324	0.182382	0.912701	6
C	0.403044	-0.938188	0.469721	6
O	1.011544	-2.026778	-0.257549	8
H	-2.210676	0.056012	0.686141	1
H	-2.221646	-0.829518	-0.844829	1
H	-2.290986	0.940282	-0.843879	1
H	1.034044	0.310202	-1.792399	1
H	-0.319716	1.559922	1.315821	1
H	0.710304	2.092672	-0.032399	1
H	2.294384	0.227272	0.323541	1
H	1.630054	0.188182	1.973680	1
H	-0.207776	-1.326168	1.294281	1
H	0.588264	-1.995018	-1.136409	1
Es	-2.143337	0.662710	-0.681886	99
Es	-0.050276	0.743542	0.006066	99
Es	0.035232	-0.152649	-1.898771	99
Es	0.403166	-0.938315	0.469585	99
Es	-2.095806	-0.543362	-0.684074	99
Es	1.011321	-2.026550	-0.257679	99
Es	-0.022587	-1.191398	1.034932	99
Es	-0.061903	0.379090	-1.926104	99
Es	-1.848022	0.071220	-0.347151	99
Es	0.775478	-2.003764	-0.719347	99
Es	0.884766	0.762739	0.740375	99
Es	1.987556	0.214248	0.496227	99
Es	0.313965	1.217731	0.489993	99
Es	-0.329969	0.130719	-0.409620	99
Es	0.932016	-2.284296	-0.122299	99
Es	0.767134	-1.614470	0.006966	99
Es	-1.098736	0.099160	-0.382435	99
Es	0.582403	1.812251	0.129248	99
Es	1.370274	0.182400	0.912679	99
Es	-0.050682	0.139597	-1.268316	99
Es	-0.005776	-0.471683	-0.009119	99
Es	-0.123694	1.436938	1.050553	99
Es	1.551055	0.187427	1.640085	99
Es	0.945335	-0.429829	0.732898	99
Es	0.589001	0.231111	-1.782116	99
Es	-2.082342	0.060789	0.362419	99
Es	0.073146	0.139043	-1.801652	99
Es	1.299129	-1.942487	-0.299049	99
45
Properties=species:S:1:pos:R:3:Z:I:1 energy=-344.97132116807626 field_type=dipole dipole="0.000000 0.000000 0.000000" charge=0
C	-1.848036	0.071222	-0.347159	6
C	-0.330056	0.130712	-0.409419	6
O	0.072984	0.139022	-1.801829	8
C	0.313944	1.217782	0.489991	6
C	1.370324	0.182382	0.912701	6
C	0.403044	-0.938188	0.469721	6
O	1.011544	-2.026778	-0.257549	8
H	-2.210676	0.056012	0.686141	1
H	-2.221646	-0.829518	-0.844829	1
H	-2.290986	0.940282	-0.843879	1
H	1.034044	0.310202	-1.792399	1
H	-0.319716	1.559922	1.315821	1
H	0.710304	2.092672	-0.032399	1
H	2.294384	0.227272	0.323541	1
H	1.630054	0.188182	1.973680	1
H	-0.207776	-1.326168	1.294281	1
H	0.588264	-1.995018	-1.136409	1
Es	-0.064882	0.374620	-1.930901	99
Es	-0.123690	1.437354	1.050893	99
Es	1.300532	-1.943932	-0.297220	99
Es	-1.848020	0.071218	-0.347150	99
Es	-2.082635	0.060823	0.363004	99
Es	0.313963	1.217729	0.489990	99
Es	0.775681	-2.003666	-0.720390	99
Es	0.766687	-1.615338	0.007714	99
Es	-0.022601	-1.191386	1.034998	99
Es	1.987489	0.214284	0.495808	99
Es	-0.050981	0.142677	-1.267825	99
Es	0.884617	0.762391	0.740068	99
Es	0.930900	-2.282085	-0.123872	99
Es	1.011283	-2.026516	-0.257668	99
Es	1.551014	0.187425	1.640653	99
Es	-0.050315	0.743455	0.005869	99
Es	-1.098918	0.099221	-0.382603	99
Es	-0.005780	-0.471443	-0.009182	99
Es	0.582551	1.811722	0.129401	99
Es	0.588440	0.233496	-1.783336	99
Es	-0.329970	0.130719	-0.409619	99
Es	0.403163	-0.938311	0.469588	99
Es	1.370273	0.182401	0.912679	99
Es	-2.143008	0.662300	-0.681864	99
Es	-2.095651	-0.543130	-0.684427	99
Es	0.039074	-0.153687	-1.893481	99
Es	0.945429	-0.429462	0.732843	99
Es	0.073202	0.139034	-1.801564	99
45
Properties=species:S:1:pos:R:3:Z:I:1 energy=-344.97132116807626 field_type=dipole dipole="0.000000 0.000000 0.000000" charge=0
C	-1.848036	0.071222	-0.347159	6
C	-0.330056	0.130712	-0.409419	6
O	0.072984	0.139022	-1.801829	8
C	0.313944	1.217782	0.489991	6
C	1.370324	0.182382	0.912701	6
C	0.403044	-0.938188	0.469721	6
O	1.011544	-2.026778	-0.257549	8
H	-2.210676	0.056012	0.686141	1
H	-2.221646	-0.829518	-0.844829	1
H	-2.290986	0.940282	-0.843879	1
H	1.034044	0.310202	-1.792399	1
H	-0.319716	1.559922	1.315821	1
H	0.710304	2.092672	-0.032399	1
H	2.294384	0.227272	0.323541	1
H	1.630054	0.188182	1.973680	1
H	-0.207776	-1.326168	1.294281	1
H	0.588264	-1.995018	-1.136409	1
Es	1.370273	0.182403	0.912677	99
Es	0.073240	0.139008	-1.801511	99
Es	-2.095618	-0.542792	-0.684504	99
Es	1.300773	-1.946062	-0.296322	99
Es	0.929760	-2.280282	-0.124158	99
Es	-0.059490	0.378106	-1.924820	99
Es	0.033418	-0.150677	-1.900404	99
Es	-2.082809	0.060753	0.363314	99
Es	0.582383	1.811407	0.129610	99
Es	1.011316	-2.026557	-0.257688	99
Es	-0.005852	-0.471311	-0.009234	99
Es	0.884923	0.762240	0.739786	99
Es	1.987293	0.214160	0.495546	99
Es	-0.050180	0.743481	0.005625	99
Es	0.403165	-0.938309	0.469589	99
Es	-1.848023	0.071218	-0.347152	99
Es	0.767753	-1.614596	0.007919	99
Es	0.313964	1.217727	0.489990	99
Es	0.589332	0.229825	-1.783428	99
Es	-0.022516	-1.191459	1.035025	99
Es	-2.142890	0.662098	-0.681872	99
Es	-0.123858	1.437474	1.051085	99
Es	1.551099	0.187380	1.641095	99
Es	-0.329971	0.130719	-0.409617	99
Es	-0.051632	0.139869	-1.267042	99
Es	-1.098906	0.099188	-0.382751	99
Es	0.945390	-0.429161	0.732821	99
Es	0.775508	-2.003940	-0.721174	99
45
Properties=species:S:1:pos:R:3:Z:I:1 energy=-344.97132116807626 field_type=dipole dipole="0.000000 0.000000 0.000000" charge=0
C	-1.848036	0.071222	-0.347159	6
C	-0.330056	0.130712	-0.409419	6
O	0.072984	0.139022	-1.801829	8
C	0.313944	1.217782	0.489991	6
C	1.370324	0.182382	0.912701	6
C	0.403044	-0.938188	0.469721	6
O	1.011544	-2.026778	-0.257549	8
H	-2.210676	0.056012	0.686141	1
H	-2.221646	-0.829518	-0.844829	1
H	-2.290986	0.940282	-0.843879	1
H	1.034044	0.310202	-1.792399	1
H	-0.319716	1.559922	1.315821	1
H	0.710304	2.092672	-0.032399	1
H	2.294384	0.227272	0.323541	1
H	1.630054	0.188182	1.973680	1
H	-0.207776	-1.326168	1.294281	1
H	0.588264	-1.995018	-1.136409	1
Es	1.299079	-1.943494	-0.295724	99
Es	0.589507	0.229898	-1.784635	99
Es	1.370272	0.182402	0.912678	99
Es	0.033752	-0.150638	-1.898520	99
Es	-0.060730	0.377219	-1.925703	99
Es	-2.082989	0.060865	0.363649	99
Es	1.987267	0.214186	0.495414	99
Es	0.403163	-0.938306	0.469590	99
Es	0.582340	1.811199	0.129733	99
Es	0.885039	0.762100	0.739649	99
Es	-0.050897	0.140620	-1.266827	99
Es	1.011320	-2.026558	-0.257666	99
Es	0.073202	0.139042	-1.801590	99
Es	0.765412	-1.617019	0.010115	99
Es	-1.848021	0.071218	-0.347150	99
Es	-0.050134	0.743384	0.005514	99
Es	-0.005886	-0.471148	-0.009351	99
Es	0.313962	1.217727	0.489989	99
Es	0.932828	-2.281244	-0.125988	99
Es	-2.095633	-0.542584	-0.684611	99
Es	0.945429	-0.429094	0.732854	99
Es	-1.098971	0.099096	-0.382871	99
Es	-0.329971	0.130718	-0.409615	99
Es	1.551021	0.187432	1.641388	99
Es	-0.022469	-1.191502	1.034993	99
Es	0.776450	-2.003052	-0.722172	99
Es	-2.142646	0.661834	-0.681908	99
Es	-0.123844	1.437607	1.051170	99
45
Properties=species:S:1:pos:R:3:Z:I:1 energy=-344.97132116807626 field_type=dipole dipole="0.000000 0.000000 0.000000" charge=0
C	-1.848036	0.071222	-0.347159	6
C	-0.330056	0.130712	-0.409419	6
O	0.072984	0.139022	-1.801829	8
C	0.313944	1.217782	0.489991	6
C	1.370324	0.182382	0.912701	6
C	0.403044	-0.938188	0.469721	6
O	1.011544	-2.026778	-0.257549	8
H	-2.210676	0.056012	0.686141	1
H	-2.221646	-0.829518	-0.844829	1
H	-2.290986	0.940282	-0.843879	1
H	1.034044	0.310202	-1.792399	1
H	-0.319716	1.559922	1.315821	1
H	0.710304	2.092672	-0.032399	1
H	2.294384	0.227272	0.323541	1
H	1.630054	0.188182	1.973680	1
H	-0.207776	-1.326168	1.294281	1
H	0.588264	-1.995018	-1.136409	1
Es	0.945317	-0.428915	0.732584	99
Es	-0.123928	1.437729	1.051336	99
Es	-2.095599	-0.542502	-0.684638	99
Es	-2.142529	0.661717	-0.681969	99
Es	0.582313	1.810965	0.129836	99
Es	-0.022443	-1.191482	1.035114	99
Es	-0.329969	0.130717	-0.409622	99
Es	-1.848021	0.071217	-0.347153	99
Es	-0.059836	0.378053	-1.926191	99
Es	0.033896	-0.149485	-1.899188	99
Es	1.301201	-1.946902	-0.295568	99
Es	0.767431	-1.615691	0.009788	99
Es	1.987112	0.214271	0.495270	99
Es	1.011287	-2.026523	-0.257679	99
Es	-0.006004	-0.471155	-0.009322	99
Es	1.370273	0.182402	0.912679	99
Es	0.930102	-2.278594	-0.126109	99
Es	-0.051668	0.139810	-1.266538	99
Es	0.313964	1.217727	0.489990	99
Es	0.885225	0.761919	0.739502	99
Es	0.775110	-2.003656	-0.721845	99
Es	0.073240	0.139020	-1.801503	99
Es	-1.098985	0.099065	-0.382979	99
Es	-2.083026	0.060927	0.363867	99
Es	0.403164	-0.938311	0.469588	99
Es	0.589248	0.228709	-1.783965	99
Es	-0.050097	0.743420	0.005436	99
Es	1.551072	0.187460	1.641687	99
45
Properties=species:S:1:pos:R:3:Z:I:1 energy=-344.97132116807626 field_type=dipole dipole="0.000000 0.000000 0.000000" charge=0
C	-1.848036	0.071222	-0.347159	6
C	-0.330056	0.130712	-0.409419	6
O	0.072984	0.139022	-1.801829	8
C	0.313944	1.217782	0.489991	6
C	1.370324	0.182382	0.912701	6
C	0.403044	-0.938188	0.469721	6
O	1.011544	-2.026778	-0.257549	8
H	-2.210676	0.056012	0.686141	1
H	-2.221646	-0.829518	-0.844829	1
H	-2.290986	0.940282	-0.843879	1
H	1.034044	0.310202	-1.792399	1
H	-0.319716	1.559922	1.315821	1
H	0.710304	2.092672	-0.032399	1
H	2.294384	0.227272	0.323541	1
H	1.630054	0.188182	1.973680	1
H	-0.207776	-1.326168	1.294281	1
H	0.588264	-1.995018	-1.136409	1
Es	-0.005968	-0.471130	-0.009256	99
Es	0.885098	0.761850	0.739236	99
Es	-0.050082	0.743331	0.005295	99
Es	0.925867	-2.276144	-0.127979	99
Es	1.987042	0.214285	0.495254	99
Es	-0.329971	0.130721	-0.409618	99
Es	-0.051126	0.141000	-1.266507	99
Es	0.403161	-0.938309	0.469588	99
Es	0.588702	0.229256	-1.784188	99
Es	0.313963	1.217728	0.489990	99
Es	-2.083100	0.060855	0.364067	99
Es	0.767344	-1.616070	0.009371	99
Es	-1.848021	0.071218	-0.347150	99
Es	0.073230	0.139011	-1.801512	99
Es	-1.099128	0.099158	-0.382984	99
Es	-0.060279	0.377515	-1.926870	99
Es	0.034366	-0.150666	-1.898373	99
Es	-2.142368	0.661633	-0.681846	99
Es	-0.022406	-1.191480	1.035221	99
Es	1.370272	0.182403	0.912679	99
Es	1.303354	-1.950418	-0.291541	99
Es	1.551055	0.187476	1.641859	99
Es	-2.095579	-0.542393	-0.684884	99
Es	0.777257	-2.002167	-0.723636	99
Es	0.945480	-0.428826	0.732446	99
Es	-0.123936	1.437755	1.051500	99
Es	0.582333	1.810868	0.129903	99
Es	1.011288	-2.026550	-0.257657	99
45
Properties=species:S:1:pos:R:3:Z:I:1 energy=-344.97132116807626 field_type=dipole dipole="0.000000 0.000000 0.000000" charge=0
C	-1.848036	0.071222	-0.347159	6
C	-0.330056	0.130712	-0.409419	6
O	0.072984	0.139022	-1.801829	8
C	0.313944	1.217782	0.489991	6
C	1.370324	0.182382	0.912701	6
C	0.403044	-0.938188	0.469721	6
O	1.011544	-2.026778	-0.257549	8
H	-2.210676	0.056012	0.686141	1
H	-2.221646	-0.829518	-0.844829	1
H	-2.290986	0.940282	-0.843879	1
H	1.034044	0.310202	-1.792399	1
H	-0.319716	1.559922	1.315821	1
H	0.710304	2.092672	-0.032399	1
H	2.294384	0.227272	0.323541	1
H	1.630054	0.188182	1.973680	1
H	-0.207776	-1.326168	1.294281	1
H	0.588264	-1.995018	-1.136409	1
Es	-0.057294	0.379091	-1.924117	99
Es	0.073160	0.139051	-1.801593	99
Es	0.589758	0.226611	-1.784206	99
Es	0.031095	-0.148866	-1.901084	99
Es	0.403163	-0.938306	0.469590	99
Es	-0.051845	0.140256	-1.266469	99
Es	0.582274	1.810791	0.130047	99
Es	1.011316	-2.026548	-0.257674	99
Es	0.932040	-2.277782	-0.127293	99
Es	-0.005977	-0.471020	-0.009330	99
Es	1.551108	0.187417	1.642089	99
Es	1.299901	-1.945674	-0.293850	99
Es	-1.848022	0.071218	-0.347150	99
Es	0.885278	0.761772	0.739266	99
Es	-0.329970	0.130719	-0.409621	99
Es	-0.050245	0.743309	0.005147	99
Es	-0.123826	1.437811	1.051448	99
Es	0.945510	-0.428684	0.732460	99
Es	-2.142534	0.661518	-0.682093	99
Es	-0.022324	-1.191517	1.035198	99
Es	1.370273	0.182403	0.912680	99
Es	-2.083174	0.060899	0.364101	99
Es	-2.095396	-0.542356	-0.684633	99
Es	0.313963	1.217728	0.489990	99
Es	0.765425	-1.617294	0.010982	99
Es	-1.099082	0.099121	-0.382998	99
Es	0.776346	-2.003984	-0.723569	99
Es	1.986930	0.214228	0.495089	99
45
Properties=species:S:1:pos:R:3:Z:I:1 energy=-344.97132116807626 field_type=dipole dipole="0.000000 0.000000 0.000000" charge=0
C	-1.848036	0.071222	-0.347159	6
C	-0.330056	0.130712	-0.409419	6
O	0.072984	0.139022	-1.801829	8
C	0.313944	1.217782	0.489991	6
C	1.370324	0.182382	0.912701	6
C	0.403044	-0.938188	0.469721	6
O	1.011544	-2.026778	-0.257549	8
H	-2.210676	0.056012	0.686141	1
H	-2.221646	-0.829518	-0.844829	1
H	-2.290986	0.940282	-0.843879	1
H	1.034044	0.310202	-1.792399	1
H	-0.319716	1.559922	1.315821	1
H	0.710304	2.092672	-0.032399	1
H	2.294384	0.227272	0.323541	1
H	1.630054	0.188182	1.973680	1
H	-0.207776	-1.326168	1.294281	1
H	0.588264	-1.995018	-1.136409	1
Es	1.301454	-1.947104	-0.293412	99
Es	-0.123839	1.437933	1.051584	99
Es	0.765873	-1.617366	0.011063	99
Es	0.403164	-0.938311	0.469588	99
Es	-2.095482	-0.542366	-0.684970	99
Es	0.930669	-2.276401	-0.128018	99
Es	0.039447	-0.150673	-1.894115	99
Es	-0.006013	-0.470958	-0.009303	99
Es	-2.083199	0.060908	0.364240	99
Es	0.582236	1.810589	0.130134	99
Es	-1.848020	0.071219	-0.347150	99
Es	0.775828	-2.003863	-0.723428	99
Es	-0.050265	0.743363	0.005105	99
Es	1.011239	-2.026567	-0.257658	99
Es	0.885398	0.761840	0.739102	99
Es	-0.329970	0.130720	-0.409623	99
Es	-0.022339	-1.191513	1.035152	99
Es	1.551077	0.187451	1.642168	99
Es	-2.142277	0.661466	-0.681875	99
Es	-0.063845	0.373332	-1.931029	99
Es	-0.052054	0.141591	-1.266023	99
Es	0.945427	-0.428629	0.732476	99
Es	0.073197	0.139054	-1.801557	99
Es	-1.099165	0.099092	-0.383038	99
Es	0.588159	0.232796	-1.784781	99
Es	0.313963	1.217727	0.489990	99
Es	1.370273	0.182403	0.912680	99
Es	1.986913	0.214175	0.495104	99
45
Properties=species:S:1:pos:R:3:Z:I:1 energy=-344.97132116807626 field_type=dipole dipole="0.000000 0.000000 0.000000" charge=0
C	-1.848036	0.071222	-0.347159	6
C	-0.330056	0.130712	-0.409419	6
O	0.072984	0.139022	-1.801829	8
C	0.313944	1.217782	0.489991	6
C	1.370324	0.182382	0.912701	6
C	0.403044	-0.938188	0.469721	6
O	1.011544	-2.026778	-0.257549	8
H	-2.210676	0.056012	0.686141	1
H	-2.221646	-0.829518	-0.844829	1
H	-2.290986	0.940282	-0.843879	1
H	1.034044	0.310202	-1.792399	1
H	-0.319716	1.559922	1.315821	1
H	0.710304	2.092672	-0.032399	1
H	2.294384	0.227272	0.323541	1
H	1.630054	0.188182	1.973680	1
H	-0.207776	-1.326168	1.294281	1
H	0.588264	-1.995018	-1.136409	1
Es	0.582334	1.810647	0.130088	99
Es	-0.061098	0.376884	-1.927706	99
Es	1.011314	-2.026583	-0.257654	99
Es	0.766488	-1.617193	0.011253	99
Es	-0.050998	0.140608	-1.266025	99
Es	0.776183	-2.003427	-0.724187	99
Es	0.588994	0.228775	-1.785171	99
Es	0.403164	-0.938308	0.469589	99
Es	0.885328	0.761675	0.739032	99
Es	-0.329970	0.130719	-0.409619	99
Es	-0.006066	-0.470976	-0.009334	99
Es	-2.083252	0.060959	0.364326	99
Es	-1.848021	0.071218	-0.347150	99
Es	0.945439	-0.428614	0.732455	99
Es	0.313963	1.217728	0.489989	99
Es	0.073229	0.139073	-1.801530	99
Es	1.986860	0.214201	0.495040	99
Es	1.370271	0.182400	0.912679	99
Es	1.302061	-1.949073	-0.292082	99
Es	-2.095415	-0.542321	-0.684899	99
Es	1.551056	0.187557	1.642311	99
Es	-0.123897	1.437892	1.051605	99
Es	-1.099203	0.099232	-0.383013	99
Es	-0.022384	-1.191580	1.035205	99
Es	0.929025	-2.274942	-0.128808	99
Es	0.034755	-0.149265	-1.897129	99
Es	-0.050052	0.743233	0.005134	99
Es	-2.142259	0.661393	-0.681997	99
45
Properties=species:S:1:pos:R:3:Z:I:1 energy=-344.97132116807626 field_type=dipole dipole="0.000000 0.000000 0.000000" charge=0
C	-1.848036	0.071222	-0.347159	6
C	-0.330056	0.130712	-0.409419	6
O	0.072984	0.139022	-1.801829	8
C	0.313944	1.217782	0.489991	6
C	1.370324	0.182382	0.912701	6
C	0.403044	-0.938188	0.469721	6
O	1.011544	-2.026778	-0.257549	8
H	-2.210676	0.056012	0.686141	1
H	-2.221646	-0.829518	-0.844829	1
H	-2.290986	0.940282	-0.843879	1
H	1.034044	0.310202	-1.792399	1
H	-0.319716	1.559922	1.315821	1
H	0.710304	2.092672	-0.032399	1
H	2.294384	0.227272	0.323541	1
H	1.630054	0.188182	1.973680	1
H	-0.207776	-1.326168	1.294281	1
H	0.588264	-1.995018	-1.136409	1
Es	0.588886	0.228282	-1.784479	99
Es	1.551116	0.187597	1.642428	99
Es	-2.095452	-0.542341	-0.684952	99
Es	-2.142244	0.661332	-0.681919	99
Es	-0.051949	0.141754	-1.266169	99
Es	-0.061874	0.376147	-1.930836	99
Es	0.313963	1.217728	0.489990	99
Es	1.370273	0.182402	0.912680	99
Es	1.986766	0.214378	0.494958	99
Es	0.945360	-0.428631	0.732347	99
Es	0.765934	-1.617767	0.012503	99
Es	-0.022468	-1.191512	1.035164	99
Es	-2.083182	0.060982	0.364405	99
Es	1.301678	-1.948975	-0.292226	99
Es	0.403164	-0.938311	0.469589	99
Es	0.073209	0.139118	-1.801516	99
Es	-1.848021	0.071218	-0.347150	99
Es	0.885362	0.761552	0.739110	99
Es	1.011347	-2.026548	-0.257681	99
Es	-0.123764	1.437813	1.051628	99
Es	0.582417	1.810740	0.130158	99
Es	0.776269	-2.003096	-0.724172	99
Es	-1.099241	0.099132	-0.383091	99
Es	-0.005954	-0.470919	-0.009439	99
Es	0.036585	-0.149226	-1.894576	99
Es	0.929808	-2.274880	-0.129837	99
Es	-0.329972	0.130719	-0.409616	99
Es	-0.050169	0.743222	0.005108	99
45
Properties=species:S:1:pos:R:3:Z:I:1 energy=-344.97132116807626 field_type=dipole dipole="0.000000 0.000000 0.000000" charge=0
C	-1.848036	0.071222	-0.347159	6
C	-0.330056	0.130712	-0.409419	6
O	0.072984	0.139022	-1.801829	8
C	0.313944	1.217782	0.489991	6
C	1.370324	0.182382	0.912701	6
C	0.403044	-0.938188	0.469721	6
O	1.011544	-2.026778	-0.257549	8
H	-2.210676	0.056012	0.686141	1
H	-2.221646	-0.829518	-0.844829	1
H	-2.290986	0.940282	-0.843879	1
H	1.034044	0.310202	-1.792399	1
H	-0.319716	1.559922	1.315821	1
H	0.710304	2.092672	-0.032399	1
H	2.294384	0.227272	0.323541	1
H	1.630054	0.188182	1.973680	1
H	-0.207776	-1.326168	1.294281	1
H	0.588264	-1.995018	-1.136409	1
Es	-0.329970	0.130719	-0.409621	99
Es	0.403161	-0.938307	0.469588	99
Es	1.301615	-1.949408	-0.291138	99
Es	1.370273	0.182403	0.912680	99
Es	-0.123789	1.438022	1.051697	99
Es	0.588893	0.229232	-1.784581	99
Es	1.011444	-2.026711	-0.257605	99
Es	-2.083279	0.060943	0.364458	99
Es	0.777140	-2.003222	-0.724883	99
Es	-2.142108	0.661314	-0.681845	99
Es	0.582284	1.810442	0.130224	99
Es	0.928956	-2.274395	-0.129635	99
Es	-0.060989	0.377081	-1.927621	99
Es	-0.006051	-0.470831	-0.009409	99
Es	0.073135	0.139042	-1.801645	99
Es	-0.051796	0.139328	-1.265962	99
Es	-2.095517	-0.542213	-0.685072	99
Es	-1.099228	0.099049	-0.383095	99
Es	-0.022298	-1.191523	1.035218	99
Es	-0.050198	0.743205	0.004983	99
Es	0.035619	-0.148603	-1.897774	99
Es	-1.848021	0.071218	-0.347150	99
Es	0.313963	1.217730	0.489991	99
Es	0.885333	0.761691	0.738947	99
Es	0.945512	-0.428562	0.732413	99
Es	1.986722	0.214235	0.494922	99
Es	0.765890	-1.617509	0.011831	99
Es	1.551149	0.187540	1.642493	99
45
Properties=species:S:1:pos:R:3:Z:I:1 energy=-344.97132116807626 field_type=dipole dipole="0.000000 0.000000 0.000000" charge=0
C	-1.848036	0.071222	-0.347159	6
C	-0.330056	0.130712	-0.409419	6
O	0.072984	0.139022	-1.801829	8
C	0.313944	1.217782	0.489991	6
C	1.370324	0.182382	0.912701	6
C	0.403044	-0.938188	0.469721	6
O	1.011544	-2.026778	-0.257549	8
H	-2.210676	0.056012	0.686141	1
H	-2.221646	-0.829518	-0.844829	1
H	-2.290986	0.940282	-0.843879	1
H	1.034044	0.310202	-1.792399	1
H	-0.319716	1.559922	1.315821	1
H	0.710304	2.092672	-0.032399	1
H	2.294384	0.227272	0.323541	1
H	1.630054	0.188182	1.973680	1
H	-0.207776	-1.326168	1.294281	1
H	0.588264	-1.995018	-1.136409	1
Es	-1.848021	0.071219	-0.347150	99
Es	0.588430	0.228771	-1.784487	99
Es	1.370272	0.182402	0.912680	99
Es	-0.329969	0.130719	-0.409620	99
Es	1.551065	0.187456	1.642493	99
Es	-0.123839	1.438013	1.051708	99
Es	-0.060955	0.376765	-1.929011	99
Es	-2.083416	0.061013	0.364587	99
Es	0.036227	-0.148716	-1.896865	99
Es	1.011344	-2.026577	-0.257667	99
Es	0.313964	1.217730	0.489988	99
Es	-0.051964	0.140212	-1.265634	99
Es	-0.050174	0.743236	0.004943	99
Es	1.986814	0.214154	0.494886	99
Es	0.582255	1.810406	0.130300	99
Es	0.885453	0.761718	0.738970	99
Es	-0.006080	-0.470918	-0.009381	99
Es	-2.095474	-0.542121	-0.685097	99
Es	-1.099216	0.099113	-0.383215	99
Es	0.403164	-0.938311	0.469588	99
Es	0.929479	-2.274304	-0.128507	99
Es	-2.142052	0.661078	-0.681847	99
Es	1.301513	-1.949064	-0.291646	99
Es	0.073185	0.139054	-1.801594	99
Es	0.776193	-2.004066	-0.724803	99
Es	0.766529	-1.617200	0.011186	99
Es	-0.022337	-1.191544	1.035166	99
Es	0.945458	-0.428327	0.732434	99
45
Properties=species:S:1:pos:R:3:Z:I:1 energy=-344.97132116807626 field_type=dipole dipole="0.000000 0.000000 0.000000" charge=0
C	-1.848036	0.071222	-0.347159	6
C	-0.330056	0.130712	-0.409419	6
O	0.072984	0.139022	-1.801829	8
C	0.313944	1.217782	0.489991	6
C	1.370324	0.182382	0.912701	6
C	0.403044	-0.938188	0.469721	6
O	1.011544	-2.026778	-0.257549	8
H	-2.210676	0.056012	0.686141	1
H	-2.221646	-0.829518	-0.844829	1
H	-2.290986	0.940282	-0.843879	1
H	1.034044	0.310202	-1.792399	1
H	-0.319716	1.559922	1.315821	1
H	0.710304	2.092672	-0.032399	1
H	2.294384	0.227272	0.323541	1
H	1.630054	0.188182	1.973680	1
H	-0.207776	-1.326168	1.294281	1
H	0.588264	-1.995018	-1.136409	1
Es	-2.095256	-0.542120	-0.684897	99
Es	-0.051939	0.139974	-1.265554	99
Es	1.551187	0.187496	1.642706	99
Es	-1.848020	0.071218	-0.347150	99
Es	1.370274	0.182403	0.912680	99
Es	0.588461	0.228780	-1.784671	99
Es	0.776219	-2.003243	-0.724404	99
Es	-0.329971	0.130719	-0.409618	99
Es	-2.083364	0.060923	0.364603	99
Es	0.582171	1.810403	0.130356	99
Es	1.986626	0.214254	0.494731	99
Es	-2.142259	0.661160	-0.682075	99
Es	-1.099266	0.099232	-0.383161	99
Es	0.073192	0.139066	-1.801558	99
Es	-0.006148	-0.470837	-0.009468	99
Es	-0.022252	-1.191561	1.035252	99
Es	-0.050169	0.743187	0.004880	99
Es	0.313963	1.217726	0.489990	99
Es	0.885513	0.761482	0.738991	99
Es	0.403165	-0.938311	0.469588	99
Es	0.766238	-1.617515	0.012136	99
Es	1.302054	-1.949513	-0.291786	99
Es	-0.123796	1.438009	1.051641	99
Es	1.011355	-2.026609	-0.257658	99
Es	0.034835	-0.148838	-1.898814	99
Es	0.945545	-0.428378	0.732364	99
Es	-0.059670	0.377097	-1.927034	99
Es	0.929162	-2.274292	-0.129663	99
45
Properties=species:S:1:pos:R:3:Z:I:1 energy=-344.97132116807626 field_type=dipole dipole="0.000000 0.000000 0.000000" charge=0
C	-1.848036	0.071222	-0.347159	6
C	-0.330056	0.130712	-0.409419	6
O	0.072984	0.139022	-1.801829	8
C	0.313944	1.217782	0.489991	6
C	1.370324	0.182382	0.912701	6
C	0.403044	-0.938188	0.469721	6
O	1.011544	-2.026778	-0.257549	8
H	-2.210676	0.056012	0.686141	1
H	-2.221646	-0.829518	-0.844829	1
H	-2.290986	0.940282	-0.843879	1
H	1.034044	0.310202	-1.792399	1
H	-0.319716	1.559922	1.315821	1
H	0.710304	2.092672	-0.032399	1
H	2.294384	0.227272	0.323541	1
H	1.630054	0.188182	1.973680	1
H	-0.207776	-1.326168	1.294281	1
H	0.588264	-1.995018	-1.136409	1
Es	-0.051825	0.140164	-1.265843	99
Es	-0.329968	0.130714	-0.409620	99
Es	0.945434	-0.428367	0.732399	99
Es	-2.142031	0.661081	-0.681898	99
Es	0.313963	1.217728	0.489990	99
Es	-0.050173	0.743130	0.004942	99
Es	-0.123771	1.438109	1.051820	99
Es	0.765514	-1.618144	0.012225	99
Es	0.933156	-2.274694	-0.128323	99
Es	-2.095381	-0.542046	-0.685131	99
Es	1.300082	-1.946453	-0.293180	99
Es	-0.006098	-0.470810	-0.009483	99
Es	1.551070	0.187607	1.642710	99
Es	-1.848021	0.071218	-0.347150	99
Es	0.073230	0.139090	-1.801562	99
Es	1.011241	-2.026590	-0.257655	99
Es	0.885593	0.761524	0.738805	99
Es	0.775039	-2.005324	-0.724488	99
Es	0.582211	1.810264	0.130338	99
Es	-0.022346	-1.191542	1.035202	99
Es	-2.083465	0.060947	0.364674	99
Es	1.986712	0.214224	0.494776	99
Es	0.588731	0.229004	-1.784690	99
Es	0.036586	-0.148525	-1.896025	99
Es	1.370273	0.182403	0.912681	99
Es	-0.061799	0.376379	-1.929523	99
Es	-1.099272	0.099131	-0.383174	99
Es	0.403163	-0.938310	0.469588	99
45
Properties=species:S:1:pos:R:3:Z:I:1 energy=-344.97132116807626 field_type=dipole dipole="0.000000 0.000000 0.000000" charge=0
C	-1.848036	0.071222	-0.347159	6
C	-0.330056	0.130712	-0.409419	6
O	0.072984	0.139022	-1.801829	8
C	0.313944	1.217782	0.489991	6
C	1.370324	0.182382	0.912701	6
C	0.403044	-0.938188	0.469721	6
O	1.011544	-2.026778	-0.257549	8
H	-2.210676	0.056012	0.686141	1
H	-2.221646	-0.829518	-0.844829	1
H	-2.290986	0.940282	-0.843879	1
H	1.034044	0.310202	-1.792399	1
H	-0.319716	1.559922	1.315821	1
H	0.710304	2.092672	-0.032399	1
H	2.294384	0.227272	0.323541	1
H	1.630054	0.188182	1.973680	1
H	-0.207776	-1.326168	1.294281	1
H	0.588264	-1.995018	-1.136409	1
Es	1.551194	0.187522	1.642825	99
Es	-1.848018	0.071218	-0.347149	99
Es	-0.006116	-0.470782	-0.009440	99
Es	-2.083353	0.060890	0.364667	99
Es	0.588628	0.229908	-1.785444	99
Es	0.766816	-1.617284	0.011951	99
Es	0.945524	-0.428348	0.732334	99
Es	0.885637	0.761522	0.738845	99
Es	1.011364	-2.026611	-0.257656	99
Es	-0.051788	0.140740	-1.265542	99
Es	-1.099310	0.099065	-0.383113	99
Es	-2.095446	-0.542057	-0.685167	99
Es	1.370272	0.182402	0.912679	99
Es	-0.123845	1.438131	1.051761	99
Es	0.927626	-2.273500	-0.130024	99
Es	0.403163	-0.938309	0.469588	99
Es	-0.050148	0.743196	0.004769	99
Es	1.986536	0.214235	0.494748	99
Es	-0.329969	0.130714	-0.409620	99
Es	1.302322	-1.951029	-0.290553	99
Es	-0.061635	0.375235	-1.928891	99
Es	0.036439	-0.148928	-1.896259	99
Es	-2.141990	0.661256	-0.681864	99
Es	-0.022245	-1.191590	1.035233	99
Es	0.073200	0.139117	-1.801552	99
Es	0.776880	-2.002726	-0.725135	99
Es	0.313963	1.217727	0.489991	99
Es	0.582148	1.810199	0.130424	99
45
Properties=species:S:1:pos:R:3:Z:I:1 energy=-344.97132116807626 field_type=dipole dipole="0.000000 0.000000 0.000000" charge=0
C	-1.848036	0.071222	-0.347159	6
C	-0.330056	0.130712	-0.409419	6
O	0.072984	0.139022	-1.801829	8
C	0.313944	1.217782	0.489991	6
C	1.370324	0.182382	0.912701	6
C	0.403044	-0.938188	0.469721	6
O	1.011544	-2.026778	-0.257549	8
H	-2.210676	0.056012	0.686141	1
H	-2.221646	-0.829518	-0.844829	1
H	-2.290986	0.940282	-0.843879	1
H	1.034044	0.310202	-1.792399	1
H	-0.319716	1.559922	1.315821	1
H	0.710304	2.092672	-0.032399	1
H	2.294384	0.227272	0.323541	1
H	1.630054	0.188182	1.973680	1
H	-0.207776	-1.326168	1.294281	1
H	0.588264	-1.995018	-1.136409	1
Es	1.986533	0.214216	0.494743	99
Es	0.776343	-2.003419	-0.725097	99
Es	-0.051771	0.139918	-1.265628	99
Es	-0.022305	-1.191579	1.035240	99
Es	0.582244	1.810201	0.130444	99
Es	-2.083315	0.060882	0.364784	99
Es	-1.848021	0.071218	-0.347149	99
Es	-1.099350	0.099144	-0.383310	99
Es	0.073206	0.139029	-1.801549	99
Es	0.036268	-0.149147	-1.897678	99
Es	0.766149	-1.617964	0.012137	99
Es	0.313963	1.217726	0.489992	99
Es	-0.006112	-0.470762	-0.009481	99
Es	-0.329970	0.130719	-0.409620	99
Es	0.403165	-0.938310	0.469589	99
Es	-0.050235	0.743279	0.004845	99
Es	-0.061067	0.376286	-1.928054	99
Es	-0.123758	1.438142	1.051840	99
Es	-2.095290	-0.542007	-0.684986	99
Es	1.551164	0.187493	1.642904	99
Es	0.588272	0.229994	-1.784764	99
Es	0.928892	-2.273191	-0.130011	99
Es	1.370272	0.182402	0.912679	99
Es	1.302315	-1.949997	-0.290769	99
Es	1.011339	-2.026583	-0.257677	99
Es	-2.142174	0.661134	-0.682007	99
Es	0.885535	0.761365	0.738693	99
Es	0.945557	-0.428278	0.732297	99
45
Properties=species:S:1:pos:R:3:Z:I:1 energy=-344.97132116807626 field_type=dipole dipole="0.000000 0.000000 0.000000" charge=0
C	-1.848036	0.071222	-0.347159	6
C	-0.330056	0.130712	-0.409419	6
O	0.072984	0.139022	-1.801829	8
C	0.313944	1.217782	0.489991	6
C	1.370324	0.182382	0.912701	6
C	0.403044	-0.938188	0.469721	6
O	1.011544	-2.026778	-0.257549	8
H	-2.210676	0.056012	0.686141	1
H	-2.221646	-0.829518	-0.844829	1
H	-2.290986	0.940282	-0.843879	1
H	1.034044	0.310202	-1.792399	1
H	-0.319716	1.559922	1.315821	1
H	0.710304	2.092672	-0.032399	1
H	2.294384	0.227272	0.323541	1
H	1.630054	0.188182	1.973680	1
H	-0.207776	-1.326168	1.294281	1
H	0.588264	-1.995018	-1.136409	1
Es	-2.095288	-0.541916	-0.685031	99
Es	0.928157	-2.272653	-0.130225	99
Es	0.588281	0.228365	-1.784822	99
Es	-0.022193	-1.191585	1.035374	99
Es	-0.050130	0.743182	0.004755	99
Es	0.313963	1.217727	0.489990	99
Es	-1.099301	0.099156	-0.383178	99
Es	-1.848020	0.071218	-0.347150	99
Es	0.033609	-0.148153	-1.901092	99
Es	-0.006152	-0.470701	-0.009488	99
Es	1.011297	-2.026564	-0.257660	99
Es	0.945578	-0.428370	0.732245	99
Es	0.885585	0.761336	0.738732	99
Es	-2.142048	0.661094	-0.682043	99
Es	1.551180	0.187562	1.642963	99
Es	0.766357	-1.617734	0.012086	99
Es	1.986497	0.214232	0.494690	99
Es	0.403162	-0.938307	0.469589	99
Es	0.073167	0.139168	-1.801516	99
Es	1.302909	-1.950765	-0.290520	99
Es	1.370272	0.182403	0.912679	99
Es	0.776302	-2.003398	-0.725065	99
Es	-0.059010	0.378630	-1.924856	99
Es	-0.329970	0.130723	-0.409619	99
Es	-0.123850	1.438148	1.051770	99
Es	-0.051167	0.138042	-1.265430	99
Es	-2.083486	0.060904	0.364793	99
Es	0.582147	1.810169	0.130436	99
45
Properties=species:S:1:pos:R:3:Z:I:1 energy=-344.97132116807626 field_type=dipole dipole="0.000000 0.000000 0.000000" charge=0
C	-1.848036	0.071222	-0.347159	6
C	-0.330056	0.130712	-0.409419	6
O	0.072984	0.139022	-1.801829	8
C	0.313944	1.217782	0.489991	6
C	1.370324	0.182382	0.912701	6
C	0.403044	-0.938188	0.469721	6
O	1.011544	-2.026778	-0.257549	8
H	-2.210676	0.056012	0.686141	1
H	-2.221646	-0.829518	-0.844829	1
H	-2.290986	0.940282	-0.843879	1