45
Properties=species:S:1:pos:R:3:Z:I:1 energy=-344.9727768562772 field_type=dipole dipole="0.000000 0.000000 0.000000" charge=0
C	-2.326612	0.384197	-0.249252	6
C	-0.833942	0.224017	-0.439402	6
O	-0.095032	1.273337	0.245968	8
C	0.841638	0.290017	0.770428	6
C	2.173408	0.394127	0.048768	6
C	-0.124842	-0.859053	0.398998	6
O	0.401448	-2.015223	-0.292662	8
H	-2.863142	-0.446893	-0.717672	1
H	-2.677492	1.312397	-0.711842	1
H	-2.599992	0.411337	0.811298	1
H	-0.565632	0.211417	-1.503482	1
H	0.962318	0.408267	1.852848	1
H	2.050048	0.379697	-1.039112	1
H	2.831728	-0.436803	0.326918	1
H	2.681558	1.328077	0.314448	1
H	-0.712832	-1.190873	1.263348	1
H	0.857378	-1.668043	-1.079602	1
Es	-2.681751	-0.184535	-0.569712	99
Es	-0.274686	1.364513	0.479638	99
Es	-1.587116	0.301238	-0.345538	99
Es	0.401508	-2.014959	-0.292793	99
Es	0.157623	-2.169206	-0.394041	99
Es	0.424766	-0.347132	0.614312	99
Es	-0.526695	-1.084017	0.984711	99
Es	0.274364	0.924186	0.453980	99
Es	-0.833852	0.224171	-0.439282	99
Es	-2.326595	0.384188	-0.249268	99
Es	0.643909	-1.809420	-0.710474	99
Es	2.078030	0.374982	-0.693360	99
Es	0.841509	0.290158	0.770312	99
Es	2.173385	0.394110	0.048770	99
Es	-2.558512	1.012031	-0.565641	99
Es	0.214092	-1.564758	-0.047682	99
Es	-0.644549	0.201727	-1.172645	99
Es	2.508553	1.024250	0.231083	99
Es	-0.124727	-0.859203	0.398853	99
Es	-0.534378	-0.382844	-0.059567	99
Es	0.048988	1.457861	0.041517	99
Es	1.512033	0.326223	0.398178	99
Es	0.933702	0.371432	1.514590	99
Es	0.614193	-2.134793	-0.110172	99
Es	-0.384813	0.897378	-0.030202	99
Es	-0.094952	1.272988	0.245879	99
Es	2.614101	-0.171028	0.241192	99
Es	-2.503067	0.397492	0.472504	99
45
Properties=species:S:1:pos:R:3:Z:I:1 energy=-344.9727768562772 field_type=dipole dipole="0.000000 0.000000 0.000000" charge=0
C	-2.326612	0.384197	-0.249252	6
C	-0.833942	0.224017	-0.439402	6
O	-0.095032	1.273337	0.245968	8
C	0.841638	0.290017	0.770428	6
C	2.173408	0.394127	0.048768	6
C	-0.124842	-0.859053	0.398998	6
O	0.401448	-2.015223	-0.292662	8
H	-2.863142	-0.446893	-0.717672	1
H	-2.677492	1.312397	-0.711842	1
H	-2.599992	0.411337	0.811298	1
H	-0.565632	0.211417	-1.503482	1
H	0.962318	0.408267	1.852848	1
H	2.050048	0.379697	-1.039112	1
H	2.831728	-0.436803	0.326918	1
H	2.681558	1.328077	0.314448	1
H	-0.712832	-1.190873	1.263348	1
H	0.857378	-1.668043	-1.079602	1
Es	-0.833851	0.224171	-0.439281	99
Es	0.274273	0.924319	0.453897	99
Es	0.641502	-1.809947	-0.712319	99
Es	0.158182	-2.169042	-0.391965	99
Es	0.049082	1.458384	0.042939	99
Es	-0.383431	0.897523	-0.031965	99
Es	-1.587248	0.301313	-0.345456	99
Es	0.933831	0.371463	1.514975	99
Es	0.424806	-0.347045	0.613945	99
Es	2.613774	-0.170720	0.241439	99
Es	1.512222	0.326142	0.398245	99
Es	2.173384	0.394110	0.048772	99
Es	2.077887	0.374927	-0.694161	99
Es	-2.503082	0.397487	0.473121	99
Es	0.214510	-1.564542	-0.047240	99
Es	-2.681459	-0.184571	-0.570047	99
Es	-0.644619	0.201625	-1.173122	99
Es	-2.558218	1.011935	-0.565847	99
Es	0.615591	-2.134733	-0.110911	99
Es	-0.095002	1.272982	0.245946	99
Es	2.508526	1.024012	0.231506	99
Es	-0.276018	1.363701	0.479995	99
Es	-0.526638	-1.083992	0.984883	99
Es	0.841507	0.290150	0.770316	99
Es	0.401533	-2.014878	-0.292740	99
Es	-2.326593	0.384184	-0.249266	99
Es	-0.124726	-0.859207	0.398848	99
Es	-0.534661	-0.382717	-0.059368	99
45
Properties=species:S:1:pos:R:3:Z:I:1 energy=-344.9727768562772 field_type=dipole dipole="0.000000 0.000000 0.000000" charge=0
C	-2.326612	0.384197	-0.249252	6
C	-0.833942	0.224017	-0.439402	6
O	-0.095032	1.273337	0.245968	8
C	0.841638	0.290017	0.770428	6
C	2.173408	0.394127	0.048768	6
C	-0.124842	-0.859053	0.398998	6
O	0.401448	-2.015223	-0.292662	8
H	-2.863142	-0.446893	-0.717672	1
H	-2.677492	1.312397	-0.711842	1
H	-2.599992	0.411337	0.811298	1
H	-0.565632	0.211417	-1.503482	1
H	0.962318	0.408267	1.852848	1
H	2.050048	0.379697	-1.039112	1
H	2.831728	-0.436803	0.326918	1
H	2.681558	1.328077	0.314448	1
H	-0.712832	-1.190873	1.263348	1
H	0.857378	-1.668043	-1.079602	1
Es	0.933987	0.371426	1.515315	99
Es	-0.383663	0.897480	-0.032112	99
Es	-0.644734	0.201644	-1.173339	99
Es	-2.681392	-0.184610	-0.570296	99
Es	0.401494	-2.014878	-0.292764	99
Es	0.614367	-2.135995	-0.111835	99
Es	1.512125	0.326110	0.398026	99
Es	0.049003	1.458309	0.043213	99
Es	-2.503086	0.397596	0.473501	99
Es	0.157867	-2.167681	-0.391791	99
Es	-2.326592	0.384184	-0.249266	99
Es	2.508443	1.023966	0.231778	99
Es	0.841512	0.290157	0.770313	99
Es	2.078004	0.374777	-0.694605	99
Es	-0.124727	-0.859203	0.398853	99
Es	-0.094989	1.272970	0.245924	99
Es	-2.557902	1.011818	-0.565951	99
Es	-0.833851	0.224172	-0.439281	99
Es	-0.526585	-1.084034	0.984961	99
Es	0.215699	-1.564285	-0.046046	99
Es	-0.275819	1.363692	0.480389	99
Es	0.424852	-0.347034	0.613717	99
Es	2.173392	0.394114	0.048767	99
Es	0.641900	-1.810267	-0.712787	99
Es	0.274375	0.924464	0.453440	99
Es	2.613517	-0.170525	0.241757	99
Es	-0.534789	-0.382667	-0.059309	99
Es	-1.587340	0.301333	-0.345432	99
45
Properties=species:S:1:pos:R:3:Z:I:1 energy=-344.9727768562772 field_type=dipole dipole="0.000000 0.000000 0.000000" charge=0
C	-2.326612	0.384197	-0.249252	6
C	-0.833942	0.224017	-0.439402	6
O	-0.095032	1.273337	0.245968	8
C	0.841638	0.290017	0.770428	6
C	2.173408	0.394127	0.048768	6
C	-0.124842	-0.859053	0.398998	6
O	0.401448	-2.015223	-0.292662	8
H	-2.863142	-0.446893	-0.717672	1
H	-2.677492	1.312397	-0.711842	1
H	-2.599992	0.411337	0.811298	1
H	-0.565632	0.211417	-1.503482	1
H	0.962318	0.408267	1.852848	1
H	2.050048	0.379697	-1.039112	1
H	2.831728	-0.436803	0.326918	1
H	2.681558	1.328077	0.314448	1
H	-0.712832	-1.190873	1.263348	1
H	0.857378	-1.668043	-1.079602	1
Es	-0.275845	1.362633	0.480029	99
Es	-2.557752	1.011642	-0.565972	99
Es	2.613409	-0.170359	0.241747	99
Es	-0.833851	0.224172	-0.439281	99
Es	-2.502958	0.397719	0.473838	99
Es	0.614259	-2.137715	-0.110347	99
Es	0.401520	-2.014916	-0.292765	99
Es	0.158467	-2.165712	-0.392353	99
Es	-2.326592	0.384183	-0.249266	99
Es	-0.534886	-0.382425	-0.059208	99
Es	-0.526565	-1.084008	0.984995	99
Es	1.512234	0.326105	0.398281	99
Es	-0.644681	0.201576	-1.173588	99
Es	-0.094989	1.273013	0.245927	99
Es	-1.587461	0.301419	-0.345534	99
Es	2.173383	0.394111	0.048772	99
Es	0.273671	0.924312	0.453857	99
Es	-0.383549	0.897528	-0.033081	99
Es	0.214918	-1.564436	-0.046994	99
Es	0.934086	0.371466	1.515479	99
Es	0.424805	-0.347158	0.613629	99
Es	2.508512	1.023851	0.231849	99
Es	-2.681395	-0.184668	-0.570425	99
Es	0.642178	-1.810349	-0.712815	99
Es	2.077747	0.374722	-0.694921	99
Es	-0.124728	-0.859203	0.398852	99
Es	0.841511	0.290156	0.770312	99
Es	0.049614	1.459375	0.044122	99
45
Properties=species:S:1:pos:R:3:Z:I:1 energy=-344.9727768562772 field_type=dipole dipole="0.000000 0.000000 0.000000" charge=0
C	-2.326612	0.384197	-0.249252	6
C	-0.833942	0.224017	-0.439402	6
O	-0.095032	1.273337	0.245968	8
C	0.841638	0.290017	0.770428	6
C	2.173408	0.394127	0.048768	6
C	-0.124842	-0.859053	0.398998	6
O	0.401448	-2.015223	-0.292662	8
H	-2.863142	-0.446893	-0.717672	1
H	-2.677492	1.312397	-0.711842	1
H	-2.599992	0.411337	0.811298	1
H	-0.565632	0.211417	-1.503482	1
H	0.962318	0.408267	1.852848	1
H	2.050048	0.379697	-1.039112	1
H	2.831728	-0.436803	0.326918	1
H	2.681558	1.328077	0.314448	1
H	-0.712832	-1.190873	1.263348	1
H	0.857378	-1.668043	-1.079602	1
Es	0.216116	-1.563958	-0.046568	99
Es	-0.124727	-0.859204	0.398852	99
Es	0.401450	-2.014863	-0.292798	99
Es	-0.094978	1.272967	0.245910	99
Es	-0.526549	-1.084044	0.985148	99
Es	2.613207	-0.170275	0.241775	99
Es	-0.534976	-0.382507	-0.059124	99
Es	0.048899	1.458193	0.043400	99
Es	0.934133	0.371450	1.515613	99
Es	2.077750	0.374686	-0.695106	99
Es	-0.833851	0.224172	-0.439281	99
Es	0.274443	0.924983	0.453579	99
Es	-2.326591	0.384183	-0.249265	99
Es	-0.383303	0.896839	-0.032345	99
Es	-2.557548	1.011657	-0.566086	99
Es	-0.276137	1.363770	0.480340	99
Es	2.508582	1.023853	0.232045	99
Es	-0.644789	0.201640	-1.173770	99
Es	0.639999	-1.810894	-0.713993	99
Es	-2.681206	-0.184657	-0.570644	99
Es	0.158221	-2.165910	-0.390698	99
Es	2.173382	0.394110	0.048770	99
Es	0.615578	-2.137454	-0.111251	99
Es	0.424816	-0.347128	0.613374	99
Es	-2.503096	0.397667	0.474032	99
Es	0.841512	0.290156	0.770314	99
Es	-1.587518	0.301499	-0.345318	99
Es	1.512245	0.326100	0.398237	99
45
Properties=species:S:1:pos:R:3:Z:I:1 energy=-344.9727768562772 field_type=dipole dipole="0.000000 0.000000 0.000000" charge=0
C	-2.326612	0.384197	-0.249252	6
C	-0.833942	0.224017	-0.439402	6
O	-0.095032	1.273337	0.245968	8
C	0.841638	0.290017	0.770428	6
C	2.173408	0.394127	0.048768	6
C	-0.124842	-0.859053	0.398998	6
O	0.401448	-2.015223	-0.292662	8
H	-2.863142	-0.446893	-0.717672	1
H	-2.677492	1.312397	-0.711842	1
H	-2.599992	0.411337	0.811298	1
H	-0.565632	0.211417	-1.503482	1
H	0.962318	0.408267	1.852848	1
H	2.050048	0.379697	-1.039112	1
H	2.831728	-0.436803	0.326918	1
H	2.681558	1.328077	0.314448	1
H	-0.712832	-1.190873	1.263348	1
H	0.857378	-1.668043	-1.079602	1
Es	0.401489	-2.014899	-0.292757	99
Es	2.173384	0.394111	0.048771	99
Es	-0.644774	0.201617	-1.173805	99
Es	-0.534912	-0.382381	-0.059183	99
Es	1.512306	0.326041	0.398207	99
Es	0.841509	0.290156	0.770316	99
Es	0.641565	-1.810536	-0.713697	99
Es	0.934131	0.371418	1.515732	99
Es	-2.681280	-0.184736	-0.570673	99
Es	-2.326591	0.384183	-0.249264	99
Es	-0.383692	0.897310	-0.033071	99
Es	-0.833850	0.224174	-0.439281	99
Es	-0.526590	-1.084043	0.985039	99
Es	0.424886	-0.347111	0.613449	99
Es	-0.094954	1.272960	0.245883	99
Es	2.508557	1.023836	0.232174	99
Es	0.272568	0.924206	0.455490	99
Es	-0.276018	1.365452	0.478906	99
Es	2.613113	-0.170193	0.241845	99
Es	0.157790	-2.162328	-0.392156	99
Es	0.050977	1.456874	0.043682	99
Es	-0.124725	-0.859204	0.398853	99
Es	2.077740	0.374655	-0.695283	99
Es	-2.557480	1.011630	-0.566063	99
Es	-1.587586	0.301426	-0.345363	99
Es	-2.502988	0.397745	0.474080	99
Es	0.217320	-1.564208	-0.044837	99
Es	0.613172	-2.141122	-0.111852	99
45
Properties=species:S:1:pos:R:3:Z:I:1 energy=-344.9727768562772 field_type=dipole dipole="0.000000 0.000000 0.000000" charge=0
C	-2.326612	0.384197	-0.249252	6
C	-0.833942	0.224017	-0.439402	6
O	-0.095032	1.273337	0.245968	8
C	0.841638	0.290017	0.770428	6
C	2.173408	0.394127	0.048768	6
C	-0.124842	-0.859053	0.398998	6
O	0.401448	-2.015223	-0.292662	8
H	-2.863142	-0.446893	-0.717672	1
H	-2.677492	1.312397	-0.711842	1
H	-2.599992	0.411337	0.811298	1
H	-0.565632	0.211417	-1.503482	1
H	0.962318	0.408267	1.852848	1
H	2.050048	0.379697	-1.039112	1
H	2.831728	-0.436803	0.326918	1
H	2.681558	1.328077	0.314448	1
H	-0.712832	-1.190873	1.263348	1
H	0.857378	-1.668043	-1.079602	1
Es	-0.124729	-0.859203	0.398850	99
Es	-0.833851	0.224172	-0.439282	99
Es	-0.526500	-1.084073	0.985086	99
Es	-0.277366	1.362421	0.479964	99
Es	-0.644832	0.201588	-1.173916	99
Es	-2.557389	1.011630	-0.566073	99
Es	-2.681234	-0.184755	-0.570777	99
Es	0.424942	-0.347072	0.613394	99
Es	0.216043	-1.564449	-0.045344	99
Es	0.050371	1.459473	0.044878	99
Es	2.173383	0.394110	0.048771	99
Es	0.615868	-2.135933	-0.112743	99
Es	-0.381976	0.897644	-0.034435	99
Es	0.158779	-2.167346	-0.389376	99
Es	-2.502962	0.397730	0.474206	99
Es	2.613124	-0.170170	0.241941	99
Es	-2.326593	0.384183	-0.249265	99
Es	0.841515	0.290155	0.770314	99
Es	0.639114	-1.810467	-0.715068	99
Es	0.934209	0.371426	1.515822	99
Es	2.508465	1.023828	0.232224	99
Es	0.272905	0.924330	0.454430	99
Es	0.401514	-2.014854	-0.292744	99
Es	2.077681	0.374633	-0.695405	99
Es	-0.095040	1.272963	0.246000	99
Es	-0.535096	-0.382386	-0.059123	99
Es	1.512328	0.325960	0.398149	99
Es	-1.587607	0.301496	-0.345337	99
45
Properties=species:S:1:pos:R:3:Z:I:1 energy=-344.9727768562772 field_type=dipole dipole="0.000000 0.000000 0.000000" charge=0
C	-2.326612	0.384197	-0.249252	6
C	-0.833942	0.224017	-0.439402	6
O	-0.095032	1.273337	0.245968	8
C	0.841638	0.290017	0.770428	6
C	2.173408	0.394127	0.048768	6
C	-0.124842	-0.859053	0.398998	6
O	0.401448	-2.015223	-0.292662	8
H	-2.863142	-0.446893	-0.717672	1
H	-2.677492	1.312397	-0.711842	1
H	-2.599992	0.411337	0.811298	1
H	-0.565632	0.211417	-1.503482	1
H	0.962318	0.408267	1.852848	1
H	2.050048	0.379697	-1.039112	1
H	2.831728	-0.436803	0.326918	1
H	2.681558	1.328077	0.314448	1
H	-0.712832	-1.190873	1.263348	1
H	0.857378	-1.668043	-1.079602	1
Es	2.077640	0.374634	-0.695495	99
Es	-0.095011	1.273096	0.245950	99
Es	1.512266	0.326039	0.398155	99
Es	-2.502953	0.397688	0.474310	99
Es	2.173384	0.394110	0.048771	99
Es	-0.644917	0.201631	-1.174016	99
Es	0.401495	-2.014874	-0.292738	99
Es	-0.833851	0.224174	-0.439281	99
Es	2.613029	-0.170160	0.241947	99
Es	0.215876	-1.564565	-0.045956	99
Es	2.508526	1.023785	0.232285	99
Es	0.158850	-2.168058	-0.388773	99
Es	-0.277074	1.364832	0.479667	99
Es	-2.681101	-0.184738	-0.570762	99
Es	-0.124726	-0.859206	0.398852	99
Es	-0.535080	-0.382382	-0.059107	99
Es	-2.326593	0.384184	-0.249266	99
Es	0.841511	0.290158	0.770312	99
Es	0.424942	-0.347100	0.613283	99
Es	0.616388	-2.135063	-0.112427	99
Es	0.050806	1.457043	0.044448	99
Es	-0.526506	-1.084059	0.985118	99
Es	-0.382600	0.897488	-0.034148	99
Es	0.934303	0.371449	1.515926	99
Es	-1.587594	0.301490	-0.345290	99
Es	0.272770	0.924317	0.454956	99
Es	0.638721	-1.810510	-0.715415	99
Es	-2.557432	1.011633	-0.566165	99
45
Properties=species:S:1:pos:R:3:Z:I:1 energy=-344.9727768562772 field_type=dipole dipole="0.000000 0.000000 0.000000" charge=0
C	-2.326612	0.384197	-0.249252	6
C	-0.833942	0.224017	-0.439402	6
O	-0.095032	1.273337	0.245968	8
C	0.841638	0.290017	0.770428	6
C	2.173408	0.394127	0.048768	6
C	-0.124842	-0.859053	0.398998	6
O	0.401448	-2.015223	-0.292662	8
H	-2.863142	-0.446893	-0.717672	1
H	-2.677492	1.312397	-0.711842	1
H	-2.599992	0.411337	0.811298	1
H	-0.565632	0.211417	-1.503482	1
H	0.962318	0.408267	1.852848	1
H	2.050048	0.379697	-1.039112	1
H	2.831728	-0.436803	0.326918	1
H	2.681558	1.328077	0.314448	1
H	-0.712832	-1.190873	1.263348	1
H	0.857378	-1.668043	-1.079602	1
Es	-2.681162	-0.184785	-0.570913	99
Es	-2.326592	0.384184	-0.249265	99
Es	-0.833852	0.224172	-0.439281	99
Es	2.612964	-0.169991	0.242071	99
Es	0.841512	0.290155	0.770314	99
Es	0.050514	1.458346	0.045394	99
Es	0.934244	0.371414	1.515980	99
Es	-0.124727	-0.859201	0.398854	99
Es	0.424966	-0.347099	0.613215	99
Es	-2.557262	1.011551	-0.566117	99
Es	0.157943	-2.164013	-0.390400	99
Es	-0.382365	0.897611	-0.034925	99
Es	-1.587628	0.301608	-0.345360	99
Es	0.401494	-2.014850	-0.292734	99
Es	-0.644836	0.201548	-1.174029	99
Es	2.173384	0.394110	0.048772	99
Es	2.077677	0.374481	-0.695650	99
Es	0.614217	-2.139177	-0.112154	99
Es	-0.526447	-1.084030	0.985156	99
Es	1.512354	0.325999	0.398163	99
Es	-0.277071	1.363527	0.479866	99
Es	2.508479	1.023812	0.232314	99
Es	-0.095027	1.272943	0.245975	99
Es	0.217350	-1.564293	-0.045180	99
Es	-0.535219	-0.382333	-0.059000	99
Es	0.272838	0.924341	0.454545	99
Es	0.640295	-1.810763	-0.714850	99
Es	-2.502977	0.397766	0.474381	99
45
Properties=species:S:1:pos:R:3:Z:I:1 energy=-344.9727768562772 field_type=dipole dipole="0.000000 0.000000 0.000000" charge=0
C	-2.326612	0.384197	-0.249252	6
C	-0.833942	0.224017	-0.439402	6
O	-0.095032	1.273337	0.245968	8
C	0.841638	0.290017	0.770428	6
C	2.173408	0.394127	0.048768	6
C	-0.124842	-0.859053	0.398998	6
O	0.401448	-2.015223	-0.292662	8
H	-2.863142	-0.446893	-0.717672	1
H	-2.677492	1.312397	-0.711842	1
H	-2.599992	0.411337	0.811298	1
H	-0.565632	0.211417	-1.503482	1
H	0.962318	0.408267	1.852848	1
H	2.050048	0.379697	-1.039112	1
H	2.831728	-0.436803	0.326918	1
H	2.681558	1.328077	0.314448	1
H	-0.712832	-1.190873	1.263348	1
H	0.857378	-1.668043	-1.079602	1
Es	0.158434	-2.165343	-0.390071	99
Es	0.639779	-1.810092	-0.715013	99
Es	0.050762	1.457830	0.045386	99
Es	-0.124724	-0.859203	0.398854	99
Es	0.934304	0.371427	1.515977	99
Es	0.614886	-2.137962	-0.112685	99
Es	-0.526456	-1.084028	0.985153	99
Es	-0.094986	1.273028	0.245882	99
Es	2.173381	0.394110	0.048772	99
Es	0.401479	-2.014876	-0.292775	99
Es	-0.277968	1.363921	0.479164	99
Es	2.508433	1.023821	0.232386	99
Es	-2.681118	-0.184799	-0.570961	99
Es	-2.502920	0.397724	0.474454	99
Es	-0.381574	0.897437	-0.035254	99
Es	0.216745	-1.564819	-0.044757	99
Es	-2.557274	1.011557	-0.566097	99
Es	-1.587636	0.301619	-0.345387	99
Es	-0.535223	-0.382358	-0.058993	99
Es	-0.833852	0.224170	-0.439282	99
Es	-2.326592	0.384183	-0.249267	99
Es	0.841512	0.290156	0.770313	99
Es	1.512377	0.325984	0.398107	99
Es	2.612938	-0.169982	0.242125	99
Es	-0.644869	0.201567	-1.174087	99
Es	0.424916	-0.347113	0.613203	99
Es	0.272633	0.924601	0.455707	99
Es	2.077677	0.374475	-0.695714	99
45
Properties=species:S:1:pos:R:3:Z:I:1 energy=-344.9727768562772 field_type=dipole dipole="0.000000 0.000000 0.000000" charge=0
C	-2.326612	0.384197	-0.249252	6
C	-0.833942	0.224017	-0.439402	6
O	-0.095032	1.273337	0.245968	8
C	0.841638	0.290017	0.770428	6
C	2.173408	0.394127	0.048768	6
C	-0.124842	-0.859053	0.398998	6
O	0.401448	-2.015223	-0.292662	8
H	-2.863142	-0.446893	-0.717672	1
H	-2.677492	1.312397	-0.711842	1
H	-2.599992	0.411337	0.811298	1
H	-0.565632	0.211417	-1.503482	1
H	0.962318	0.408267	1.852848	1
H	2.050048	0.379697	-1.039112	1
H	2.831728	-0.436803	0.326918	1
H	2.681558	1.328077	0.314448	1
H	-0.712832	-1.190873	1.263348	1
H	0.857378	-1.668043	-1.079602	1
Es	0.424956	-0.347110	0.613175	99
Es	0.273814	0.924853	0.453529	99
Es	-0.277259	1.360791	0.480553	99
Es	-2.326593	0.384184	-0.249266	99
Es	-0.833852	0.224170	-0.439282	99
Es	1.512441	0.325931	0.398173	99
Es	-0.526433	-1.084030	0.985147	99
Es	0.934258	0.371406	1.516029	99
Es	0.841513	0.290158	0.770315	99
Es	-1.587646	0.301648	-0.345336	99
Es	0.639354	-1.810563	-0.715387	99
Es	-0.094957	1.272969	0.245878	99
Es	2.173383	0.394111	0.048771	99
Es	2.077660	0.374532	-0.695849	99
Es	-0.644962	0.201596	-1.174182	99
Es	0.401529	-2.014877	-0.292737	99
Es	-0.124731	-0.859204	0.398855	99
Es	2.612906	-0.169914	0.242109	99
Es	0.158493	-2.164543	-0.389744	99
Es	-0.381872	0.897539	-0.035633	99
Es	-2.502920	0.397799	0.474590	99
Es	-0.535271	-0.382331	-0.059045	99
Es	2.508414	1.023735	0.232489	99
Es	-2.681059	-0.184809	-0.570971	99
Es	-2.557236	1.011460	-0.566178	99
Es	0.049199	1.460634	0.046555	99
Es	0.614826	-2.138643	-0.112835	99
Es	0.217111	-1.564458	-0.044586	99
45
Properties=species:S:1:pos:R:3:Z:I:1 energy=-344.9727768562772 field_type=dipole dipole="0.000000 0.000000 0.000000" charge=0
C	-2.326612	0.384197	-0.249252	6
C	-0.833942	0.224017	-0.439402	6
O	-0.095032	1.273337	0.245968	8
C	0.841638	0.290017	0.770428	6
C	2.173408	0.394127	0.048768	6
C	-0.124842	-0.859053	0.398998	6
O	0.401448	-2.015223	-0.292662	8
H	-2.863142	-0.446893	-0.717672	1
H	-2.677492	1.312397	-0.711842	1
H	-2.599992	0.411337	0.811298	1
H	-0.565632	0.211417	-1.503482	1
H	0.962318	0.408267	1.852848	1
H	2.050048	0.379697	-1.039112	1
H	2.831728	-0.436803	0.326918	1
H	2.681558	1.328077	0.314448	1
H	-0.712832	-1.190873	1.263348	1
H	0.857378	-1.668043	-1.079602	1
Es	0.273503	0.924849	0.454422	99
Es	-0.833851	0.224173	-0.439281	99
Es	0.616276	-2.136343	-0.113306	99
Es	-2.326592	0.384184	-0.249266	99
Es	2.077637	0.374593	-0.695864	99
Es	2.173382	0.394111	0.048772	99
Es	-2.502949	0.397788	0.474606	99
Es	-0.094978	1.273000	0.245930	99
Es	-2.557152	1.011444	-0.566110	99
Es	-0.124728	-0.859202	0.398853	99
Es	0.158953	-2.166502	-0.387738	99
Es	-0.278173	1.361076	0.479975	99
Es	0.934344	0.371448	1.516090	99
Es	-0.526412	-1.084054	0.985152	99
Es	0.424982	-0.347130	0.613126	99
Es	-1.587724	0.301580	-0.345299	99
Es	-0.380939	0.897451	-0.035848	99
Es	-0.644946	0.201584	-1.174154	99
Es	0.401438	-2.014872	-0.292792	99
Es	-2.681138	-0.184744	-0.571041	99
Es	0.637612	-1.811221	-0.716536	99
Es	-0.535250	-0.382283	-0.059120	99
Es	0.841511	0.290158	0.770314	99
Es	2.612805	-0.169981	0.242064	99
Es	2.508521	1.023687	0.232544	99
Es	1.512337	0.326003	0.398187	99
Es	0.217042	-1.564127	-0.044910	99
Es	0.049555	1.460364	0.046371	99
45
Properties=species:S:1:pos:R:3:Z:I:1 energy=-344.9727768562772 field_type=dipole dipole="0.000000 0.000000 0.000000" charge=0
C	-2.326612	0.384197	-0.249252	6
C	-0.833942	0.224017	-0.439402	6
O	-0.095032	1.273337	0.245968	8
C	0.841638	0.290017	0.770428	6
C	2.173408	0.394127	0.048768	6
C	-0.124842	-0.859053	0.398998	6
O	0.401448	-2.015223	-0.292662	8
H	-2.863142	-0.446893	-0.717672	1
H	-2.677492	1.312397	-0.711842	1
H	-2.599992	0.411337	0.811298	1
H	-0.565632	0.211417	-1.503482	1
H	0.962318	0.408267	1.852848	1
H	2.050048	0.379697	-1.039112	1
H	2.831728	-0.436803	0.326918	1
H	2.681558	1.328077	0.314448	1
H	-0.712832	-1.190873	1.263348	1
H	0.857378	-1.668043	-1.079602	1
Es	-0.833850	0.224173	-0.439281	99
Es	1.512334	0.326060	0.398266	99
Es	-2.502992	0.397748	0.474641	99
Es	2.508399	1.023679	0.232490	99
Es	-2.680972	-0.184815	-0.571085	99
Es	0.639512	-1.810219	-0.714887	99
Es	-0.382391	0.897306	-0.034737	99
Es	0.216315	-1.564576	-0.045027	99
Es	-0.277308	1.364903	0.479589	99
Es	-2.326592	0.384184	-0.249266	99
Es	0.050972	1.456989	0.044954	99
Es	2.173383	0.394110	0.048772	99
Es	-0.124727	-0.859204	0.398852	99
Es	-0.535294	-0.382273	-0.058972	99
Es	0.841512	0.290157	0.770313	99
Es	2.077641	0.374441	-0.696008	99
Es	-0.094984	1.273016	0.245928	99
Es	0.401454	-2.014885	-0.292781	99
Es	2.612833	-0.169843	0.242248	99
Es	0.158713	-2.165801	-0.390040	99
Es	-1.587664	0.301614	-0.345232	99
Es	0.425014	-0.347172	0.612948	99
Es	0.934353	0.371418	1.516172	99
Es	0.272599	0.924585	0.455104	99
Es	-0.526431	-1.084083	0.985239	99
Es	0.615325	-2.137544	-0.112572	99
Es	-2.557144	1.011498	-0.566208	99
Es	-0.644944	0.201569	-1.174280	99
45
Properties=species:S:1:pos:R:3:Z:I:1 energy=-344.9727768562772 field_type=dipole dipole="0.000000 0.000000 0.000000" charge=0
C	-2.326612	0.384197	-0.249252	6
C	-0.833942	0.224017	-0.439402	6
O	-0.095032	1.273337	0.245968	8
C	0.841638	0.290017	0.770428	6
C	2.173408	0.394127	0.048768	6
C	-0.124842	-0.859053	0.398998	6
O	0.401448	-2.015223	-0.292662	8
H	-2.863142	-0.446893	-0.717672	1
H	-2.677492	1.312397	-0.711842	1
H	-2.599992	0.411337	0.811298	1
H	-0.565632	0.211417	-1.503482	1
H	0.962318	0.408267	1.852848	1
H	2.050048	0.379697	-1.039112	1
H	2.831728	-0.436803	0.326918	1
H	2.681558	1.328077	0.314448	1
H	-0.712832	-1.190873	1.263348	1
H	0.857378	-1.668043	-1.079602	1
Es	2.508463	1.023645	0.232528	99
Es	2.612779	-0.169852	0.242201	99
Es	1.512366	0.326000	0.398185	99
Es	0.158365	-2.166715	-0.387826	99
Es	2.077658	0.374479	-0.696009	99
Es	0.424991	-0.347070	0.613071	99
Es	-0.833850	0.224172	-0.439281	99
Es	-2.557214	1.011495	-0.566272	99
Es	0.637372	-1.811084	-0.716317	99
Es	0.841512	0.290156	0.770312	99
Es	0.616548	-2.136230	-0.113516	99
Es	0.934335	0.371392	1.516182	99
Es	-0.277245	1.365715	0.479177	99
Es	-2.326592	0.384184	-0.249265	99
Es	-0.124719	-0.859207	0.398853	99
Es	0.401459	-2.014923	-0.292787	99
Es	0.217585	-1.564094	-0.044855	99
Es	-0.644956	0.201557	-1.174214	99
Es	0.271779	0.924281	0.455769	99
Es	-2.680933	-0.184748	-0.570990	99
Es	-0.535330	-0.382295	-0.059011	99
Es	0.051900	1.456328	0.044338	99
Es	-1.587708	0.301608	-0.345351	99
Es	-0.382518	0.897375	-0.034369	99
Es	-2.502958	0.397727	0.474695	99
Es	-0.095006	1.273094	0.245934	99
Es	-0.526402	-1.084069	0.985187	99
Es	2.173383	0.394110	0.048772	99
45
Properties=species:S:1:pos:R:3:Z:I:1 energy=-344.9727768562772 field_type=dipole dipole="0.000000 0.000000 0.000000" charge=0
C	-2.326612	0.384197	-0.249252	6
C	-0.833942	0.224017	-0.439402	6
O	-0.095032	1.273337	0.245968	8
C	0.841638	0.290017	0.770428	6
C	2.173408	0.394127	0.048768	6
C	-0.124842	-0.859053	0.398998	6
O	0.401448	-2.015223	-0.292662	8
H	-2.863142	-0.446893	-0.717672	1
H	-2.677492	1.312397	-0.711842	1
H	-2.599992	0.411337	0.811298	1
H	-0.565632	0.211417	-1.503482	1
H	0.962318	0.408267	1.852848	1
H	2.050048	0.379697	-1.039112	1
H	2.831728	-0.436803	0.326918	1
H	2.681558	1.328077	0.314448	1
H	-0.712832	-1.190873	1.263348	1
H	0.857378	-1.668043	-1.079602	1
Es	-0.124726	-0.859201	0.398854	99
Es	2.508455	1.023685	0.232575	99
Es	-1.587666	0.301700	-0.345283	99
Es	-0.644977	0.201585	-1.174344	99
Es	-0.833851	0.224172	-0.439281	99
Es	-2.680902	-0.184837	-0.571015	99
Es	0.841511	0.290157	0.770312	99
Es	0.049125	1.460550	0.046844	99
Es	2.077675	0.374406	-0.696073	99
Es	-0.535178	-0.382245	-0.058996	99
Es	0.934267	0.371426	1.516208	99
Es	-0.381508	0.897430	-0.036073	99
Es	2.612747	-0.169709	0.242179	99
Es	-2.502969	0.397871	0.474785	99
Es	0.158247	-2.164271	-0.389824	99
Es	0.401485	-2.014894	-0.292764	99
Es	0.217606	-1.564414	-0.044118	99
Es	-2.557184	1.011340	-0.566318	99
Es	-0.526559	-1.084048	0.985220	99
Es	0.273965	0.925008	0.453510	99
Es	-2.326593	0.384184	-0.249266	99
Es	-0.094994	1.273005	0.245927	99
Es	0.615767	-2.139165	-0.113318	99
Es	2.173383	0.394110	0.048771	99
Es	0.424943	-0.347150	0.612988	99
Es	1.512395	0.325942	0.398295	99
Es	0.638239	-1.810316	-0.715269	99
Es	-0.277639	1.360714	0.480615	99
45
Properties=species:S:1:pos:R:3:Z:I:1 energy=-344.9727768562772 field_type=dipole dipole="0.000000 0.000000 0.000000" charge=0
C	-2.326612	0.384197	-0.249252	6
C	-0.833942	0.224017	-0.439402	6
O	-0.095032	1.273337	0.245968	8
C	0.841638	0.290017	0.770428	6
C	2.173408	0.394127	0.048768	6
C	-0.124842	-0.859053	0.398998	6
O	0.401448	-2.015223	-0.292662	8
H	-2.863142	-0.446893	-0.717672	1
H	-2.677492	1.312397	-0.711842	1
H	-2.599992	0.411337	0.811298	1
H	-0.565632	0.211417	-1.503482	1
H	0.962318	0.408267	1.852848	1
H	2.050048	0.379697	-1.039112	1
H	2.831728	-0.436803	0.326918	1
H	2.681558	1.328077	0.314448	1
H	-0.712832	-1.190873	1.263348	1
H	0.857378	-1.668043	-1.079602	1
Es	0.401507	-2.014862	-0.292773	99
Es	-0.381744	0.897574	-0.035934	99
Es	0.216807	-1.564243	-0.045104	99
Es	-0.645058	0.201627	-1.174388	99
Es	0.615263	-2.137886	-0.112520	99
Es	2.612791	-0.169623	0.242145	99
Es	1.512350	0.325868	0.398314	99
Es	2.173384	0.394110	0.048772	99
Es	2.077638	0.374399	-0.696110	99
Es	-2.502846	0.397798	0.474781	99
Es	0.934363	0.371457	1.516224	99
Es	0.425050	-0.347174	0.612902	99
Es	-0.277790	1.363559	0.479384	99
Es	-0.833851	0.224172	-0.439281	99
Es	-1.587695	0.301539	-0.345270	99
Es	0.050549	1.458022	0.046194	99
Es	-0.535251	-0.382292	-0.059015	99
Es	-0.124726	-0.859206	0.398852	99
Es	0.639182	-1.810808	-0.715368	99
Es	0.158506	-2.165225	-0.389511	99
Es	-2.557018	1.011497	-0.566210	99
Es	0.272852	0.924510	0.455265	99
Es	-2.326593	0.384184	-0.249266	99
Es	0.841512	0.290156	0.770314	99
Es	-2.681073	-0.184786	-0.571101	99
Es	2.508410	1.023692	0.232587	99
Es	-0.526464	-1.084068	0.985295	99
Es	-0.094989	1.273041	0.245962	99
45
Properties=species:S:1:pos:R:3:Z:I:1 energy=-344.9727768562772 field_type=dipole dipole="0.000000 0.000000 0.000000" charge=0
C	-2.326612	0.384197	-0.249252	6
C	-0.833942	0.224017	-0.439402	6
O	-0.095032	1.273337	0.245968	8
C	0.841638	0.290017	0.770428	6
C	2.173408	0.394127	0.048768	6
C	-0.124842	-0.859053	0.398998	6
O	0.401448	-2.015223	-0.292662	8
H	-2.863142	-0.446893	-0.717672	1
H	-2.677492	1.312397	-0.711842	1
H	-2.599992	0.411337	0.811298	1
H	-0.565632	0.211417	-1.503482	1
H	0.962318	0.408267	1.852848	1
H	2.050048	0.379697	-1.039112	1
H	2.831728	-0.436803	0.326918	1
H	2.681558	1.328077	0.314448	1
H	-0.712832	-1.190873	1.263348	1
H	0.857378	-1.668043	-1.079602	1
Es	0.425039	-0.347057	0.612893	99
Es	-0.094976	1.272998	0.245902	99
Es	0.638543	-1.810841	-0.715442	99
Es	0.272424	0.924402	0.455214	99
Es	-0.278108	1.363755	0.479647	99
Es	-2.326592	0.384183	-0.249266	99
Es	-1.587761	0.301623	-0.345269	99
Es	2.508542	1.023535	0.232659	99
Es	0.158208	-2.165631	-0.389171	99
Es	-0.124727	-0.859203	0.398853	99
Es	-2.557020	1.011432	-0.566313	99
Es	0.401440	-2.014867	-0.292808	99
Es	1.512342	0.325956	0.398309	99
Es	0.841513	0.290154	0.770313	99
Es	2.077601	0.374531	-0.696169	99
Es	-0.526363	-1.084077	0.985278	99
Es	0.615761	-2.137579	-0.112934	99
Es	2.173383	0.394110	0.048772	99
Es	0.934378	0.371434	1.516272	99
Es	0.051014	1.457929	0.046049	99
Es	-0.833851	0.224171	-0.439282	99
Es	-0.644968	0.201582	-1.174350	99
Es	0.217349	-1.564110	-0.044918	99
Es	-2.502937	0.397859	0.474804	99
Es	-0.381441	0.897628	-0.035948	99
Es	-2.680967	-0.184833	-0.571093	99
Es	2.612671	-0.169737	0.242106	99
Es	-0.535431	-0.382318	-0.058969	99
45
Properties=species:S:1:pos:R:3:Z:I:1 energy=-344.9727768562772 field_type=dipole dipole="0.000000 0.000000 0.000000" charge=0
C	-2.326612	0.384197	-0.249252	6
C	-0.833942	0.224017	-0.439402	6
O	-0.095032	1.273337	0.245968	8
C	0.841638	0.290017	0.770428	6
C	2.173408	0.394127	0.048768	6
C	-0.124842	-0.859053	0.398998	6
O	0.401448	-2.015223	-0.292662	8
H	-2.863142	-0.446893	-0.717672	1
H	-2.677492	1.312397	-0.711842	1
H	-2.599992	0.411337	0.811298	1
H	-0.565632	0.211417	-1.503482	1
H	0.962318	0.408267	1.852848	1
H	2.050048	0.379697	-1.039112	1
H	2.831728	-0.436803	0.326918	1
H	2.681558	1.328077	0.314448	1
H	-0.712832	-1.190873	1.263348	1
H	0.857378	-1.668043	-1.079602	1
Es	0.217809	-1.564382	-0.044876	99
Es	-0.526414	-1.084086	0.985214	99
Es	0.157936	-2.164252	-0.389392	99
Es	2.508454	1.023719	0.232660	99
Es	0.615045	-2.138779	-0.112622	99
Es	-2.680946	-0.184804	-0.571103	99
Es	1.512392	0.325845	0.398214	99
Es	-0.535355	-0.382242	-0.058918	99
Es	-0.644980	0.201555	-1.174359	99
Es	-0.124726	-0.859205	0.398851	99
Es	0.425034	-0.347107	0.613013	99
Es	2.077580	0.374442	-0.696099	99
Es	0.052223	1.456500	0.046003	99
Es	2.173386	0.394112	0.048772	99
Es	-2.326593	0.384184	-0.249266	99
Es	-2.557128	1.011491	-0.566224	99
Es	-0.381998	0.897869	-0.036219	99
Es	0.841512	0.290156	0.770314	99
Es	2.612725	-0.169733	0.242132	99
Es	-0.833852	0.224170	-0.439282	99
Es	-2.502898	0.397730	0.474765	99
Es	0.934394	0.371437	1.516256	99
Es	-0.277745	1.365345	0.479327	99
Es	0.639061	-1.810751	-0.715661	99
Es	-0.095005	1.272973	0.245959	99
Es	0.271396	0.924078	0.455763	99
Es	0.401453	-2.014869	-0.292774	99
Es	-1.587695	0.301636	-0.345305	99
45
Properties=species:S:1:pos:R:3:Z:I:1 energy=-344.9727768562772 field_type=dipole dipole="0.000000 0.000000 0.000000" charge=0
C	-2.326612	0.384197	-0.249252	6
C	-0.833942	0.224017	-0.439402	6
O	-0.095032	1.273337	0.245968	8
C	0.841638	0.290017	0.770428	6
C	2.173408	0.394127	0.048768	6
C	-0.124842	-0.859053	0.398998	6
O	0.401448	-2.015223	-0.292662	8
H	-2.863142	-0.446893	-0.717672	1
H	-2.677492	1.312397	-0.711842	1
H	-2.599992	0.411337	0.811298	1