41
Properties=species:S:1:pos:R:3:Z:I:1 energy=-306.7663868373608 field_type=dipole dipole="0.000000 0.000000 0.000000" charge=0
C	-1.136334	0.444184	0.890331	6
C	0.328886	0.314554	0.476491	6
C	0.495216	-0.188166	-0.961269	6
C	0.033006	-1.577786	-1.117969	6
C	-0.345184	-2.709466	-1.252810	6
C	0.990336	1.666874	0.649601	6
O	1.572086	2.277624	-0.241189	8
H	-1.221544	0.852124	1.903790	1
H	-1.642324	-0.526216	0.881471	1
H	-1.678634	1.120134	0.219721	1
H	0.834956	-0.369716	1.169341	1
H	1.551976	-0.138696	-1.252939	1
H	-0.047984	0.462764	-1.657529	1
H	-0.681724	-3.713046	-1.377970	1
H	0.947256	2.084834	1.670931	1
Es	-0.564582	-3.364454	-1.333538	99
Es	1.576205	1.941175	0.142438	99
Es	1.690377	2.550205	-0.147205	99
Es	1.193155	-0.175665	-1.149017	99
Es	-0.492598	-2.061183	-1.083595	99
Es	0.657742	0.992636	0.555329	99
Es	0.077669	-2.264829	-0.934673	99
Es	-0.345262	-2.709697	-1.252823	99
Es	0.118870	0.231546	-1.419786	99
Es	0.247428	-0.912775	-1.033894	99
Es	1.142440	2.170264	0.022578	99
Es	-1.468463	-0.208054	0.882568	99
Es	-1.136266	0.444199	0.890324	99
Es	1.571934	2.277494	-0.240895	99
Es	0.949101	1.941795	1.355635	99
Es	-1.494648	0.905405	0.430273	99
Es	0.033095	-1.577529	-1.117936	99
Es	-0.066748	-2.142712	-1.531218	99
Es	0.495151	-0.188299	-0.961222	99
Es	0.990329	1.666871	0.649590	99
Es	1.564659	2.121394	-0.511833	99
Es	0.328875	0.314598	0.476465	99
Es	0.403639	0.049074	-0.247535	99
Es	-1.182734	0.724712	1.579744	99
Es	-0.390556	0.389267	0.679739	99
Es	0.678252	-0.131521	0.945746	99
41
Properties=species:S:1:pos:R:3:Z:I:1 energy=-306.7663868373608 field_type=dipole dipole="0.000000 0.000000 0.000000" charge=0
C	-1.136334	0.444184	0.890331	6
C	0.328886	0.314554	0.476491	6
C	0.495216	-0.188166	-0.961269	6
C	0.033006	-1.577786	-1.117969	6
C	-0.345184	-2.709466	-1.252810	6
C	0.990336	1.666874	0.649601	6
O	1.572086	2.277624	-0.241189	8
H	-1.221544	0.852124	1.903790	1
H	-1.642324	-0.526216	0.881471	1
H	-1.678634	1.120134	0.219721	1
H	0.834956	-0.369716	1.169341	1
H	1.551976	-0.138696	-1.252939	1
H	-0.047984	0.462764	-1.657529	1
H	-0.681724	-3.713046	-1.377970	1
H	0.947256	2.084834	1.670931	1
Es	-0.486370	-2.062637	-1.084674	99
Es	-0.566366	-3.365877	-1.329473	99
Es	0.247324	-0.914887	-1.036862	99
Es	-0.390230	0.389259	0.679672	99
Es	1.554450	2.114497	-0.495103	99
Es	0.659180	0.995141	0.556117	99
Es	1.191801	-0.173834	-1.148651	99
Es	-1.136267	0.444198	0.890324	99
Es	0.495152	-0.188298	-0.961222	99
Es	1.698648	2.565364	-0.158495	99
Es	1.572428	1.939455	0.139556	99
Es	-1.181186	0.726031	1.577555	99
Es	-1.492461	0.905943	0.431929	99
Es	1.147602	2.164700	0.020431	99
Es	0.990339	1.666863	0.649596	99
Es	0.064882	-2.260249	-0.934107	99
Es	0.033097	-1.577521	-1.117933	99
Es	0.328874	0.314600	0.476462	99
Es	1.571967	2.277497	-0.241011	99
Es	-0.059708	-2.145567	-1.532394	99
Es	-1.470442	-0.211996	0.882597	99
Es	0.949483	1.941880	1.355039	99
Es	0.403230	0.049462	-0.247866	99
Es	0.120959	0.231577	-1.417985	99
Es	0.675947	-0.131988	0.944593	99
Es	-0.345270	-2.709698	-1.252835	99
41
Properties=species:S:1:pos:R:3:Z:I:1 energy=-306.7663868373608 field_type=dipole dipole="0.000000 0.000000 0.000000" charge=0
C	-1.136334	0.444184	0.890331	6
C	0.328886	0.314554	0.476491	6
C	0.495216	-0.188166	-0.961269	6
C	0.033006	-1.577786	-1.117969	6
C	-0.345184	-2.709466	-1.252810	6
C	0.990336	1.666874	0.649601	6
O	1.572086	2.277624	-0.241189	8
H	-1.221544	0.852124	1.903790	1
H	-1.642324	-0.526216	0.881471	1
H	-1.678634	1.120134	0.219721	1
H	0.834956	-0.369716	1.169341	1
H	1.551976	-0.138696	-1.252939	1
H	-0.047984	0.462764	-1.657529	1
H	-0.681724	-3.713046	-1.377970	1
H	0.947256	2.084834	1.670931	1
Es	-0.474310	-2.069760	-1.049894	99
Es	-0.081396	-2.137160	-1.540511	99
Es	1.151086	2.162910	0.019177	99
Es	-1.136266	0.444200	0.890323	99
Es	0.074481	-2.261403	-0.961701	99
Es	0.328876	0.314599	0.476464	99
Es	0.121948	0.231297	-1.416793	99
Es	-0.567117	-3.366406	-1.327100	99
Es	0.403136	0.049617	-0.248286	99
Es	-1.180477	0.727043	1.576257	99
Es	-0.389799	0.389371	0.679553	99
Es	0.674436	-0.132184	0.944178	99
Es	0.495151	-0.188300	-0.961223	99
Es	0.033102	-1.577515	-1.117941	99
Es	0.990341	1.666860	0.649598	99
Es	0.949725	1.941913	1.354789	99
Es	0.247431	-0.916087	-1.038441	99
Es	1.571930	2.277483	-0.240922	99
Es	-1.491082	0.905768	0.432638	99
Es	0.659837	0.996326	0.556532	99
Es	-0.345253	-2.709709	-1.252820	99
Es	1.548715	2.111573	-0.483955	99
Es	1.190927	-0.172715	-1.148659	99
Es	1.570083	1.938360	0.138707	99
Es	-1.471321	-0.213819	0.882808	99
Es	1.702883	2.571653	-0.167520	99
41
Properties=species:S:1:pos:R:3:Z:I:1 energy=-306.7663868373608 field_type=dipole dipole="0.000000 0.000000 0.000000" charge=0
C	-1.136334	0.444184	0.890331	6
C	0.328886	0.314554	0.476491	6
C	0.495216	-0.188166	-0.961269	6
C	0.033006	-1.577786	-1.117969	6
C	-0.345184	-2.709466	-1.252810	6
C	0.990336	1.666874	0.649601	6
O	1.572086	2.277624	-0.241189	8
H	-1.221544	0.852124	1.903790	1
H	-1.642324	-0.526216	0.881471	1
H	-1.678634	1.120134	0.219721	1
H	0.834956	-0.369716	1.169341	1
H	1.551976	-0.138696	-1.252939	1
H	-0.047984	0.462764	-1.657529	1
H	-0.681724	-3.713046	-1.377970	1
H	0.947256	2.084834	1.670931	1
Es	-0.454381	-2.057500	-1.246706	99
Es	-1.136268	0.444197	0.890325	99
Es	0.673728	-0.132261	0.943846	99
Es	1.152339	2.161741	0.017707	99
Es	0.949703	1.941945	1.354379	99
Es	0.402918	0.049730	-0.248568	99
Es	1.190849	-0.171726	-1.148760	99
Es	0.033096	-1.577515	-1.117942	99
Es	0.064769	-2.196150	-1.469366	99
Es	0.990331	1.666866	0.649594	99
Es	-1.179969	0.727339	1.574917	99
Es	-0.090158	-2.215207	-0.835037	99
Es	0.660108	0.997123	0.556515	99
Es	1.571929	2.277491	-0.240887	99
Es	0.246352	-0.916506	-1.040003	99
Es	0.122552	0.230802	-1.415644	99
Es	-1.490370	0.905875	0.433267	99
Es	-0.568099	-3.366391	-1.326341	99
Es	1.569458	1.936840	0.138220	99
Es	1.544899	2.110816	-0.472629	99
Es	0.495150	-0.188300	-0.961222	99
Es	-1.471954	-0.214885	0.883225	99
Es	1.706081	2.575335	-0.176721	99
Es	0.328876	0.314600	0.476463	99
Es	-0.389609	0.389360	0.679454	99
Es	-0.345265	-2.709707	-1.252825	99
41
Properties=species:S:1:pos:R:3:Z:I:1 energy=-306.7663868373608 field_type=dipole dipole="0.000000 0.000000 0.000000" charge=0
C	-1.136334	0.444184	0.890331	6
C	0.328886	0.314554	0.476491	6
C	0.495216	-0.188166	-0.961269	6
C	0.033006	-1.577786	-1.117969	6
C	-0.345184	-2.709466	-1.252810	6
C	0.990336	1.666874	0.649601	6
O	1.572086	2.277624	-0.241189	8
H	-1.221544	0.852124	1.903790	1
H	-1.642324	-0.526216	0.881471	1
H	-1.678634	1.120134	0.219721	1
H	0.834956	-0.369716	1.169341	1
H	1.551976	-0.138696	-1.252939	1
H	-0.047984	0.462764	-1.657529	1
H	-0.681724	-3.713046	-1.377970	1
H	0.947256	2.084834	1.670931	1
Es	0.033086	-1.577513	-1.117945	99
Es	0.660294	0.997610	0.556591	99
Es	1.707315	2.577538	-0.180733	99
Es	1.569053	1.934744	0.136688	99
Es	-1.472304	-0.215598	0.883499	99
Es	-0.389325	0.389653	0.678920	99
Es	0.328876	0.314600	0.476464	99
Es	1.571937	2.277475	-0.240935	99
Es	-1.179435	0.727494	1.574050	99
Es	0.672998	-0.132658	0.943833	99
Es	1.190508	-0.171170	-1.148759	99
Es	0.990332	1.666865	0.649596	99
Es	-0.568325	-3.366550	-1.325497	99
Es	1.152883	2.159976	0.015960	99
Es	-1.136265	0.444198	0.890322	99
Es	-0.437825	-2.062819	-1.254322	99
Es	-0.345266	-2.709710	-1.252820	99
Es	0.068071	-2.197174	-1.467806	99
Es	0.246324	-0.917043	-1.040650	99
Es	1.543479	2.112650	-0.465158	99
Es	0.123023	0.230518	-1.415025	99
Es	-1.489957	0.905926	0.433840	99
Es	0.495150	-0.188300	-0.961223	99
Es	0.402802	0.049989	-0.248642	99
Es	0.949712	1.942004	1.354076	99
Es	-0.110078	-2.208792	-0.829063	99
41
Properties=species:S:1:pos:R:3:Z:I:1 energy=-306.7663868373608 field_type=dipole dipole="0.000000 0.000000 0.000000" charge=0
C	-1.136334	0.444184	0.890331	6
C	0.328886	0.314554	0.476491	6
C	0.495216	-0.188166	-0.961269	6
C	0.033006	-1.577786	-1.117969	6
C	-0.345184	-2.709466	-1.252810	6
C	0.990336	1.666874	0.649601	6
O	1.572086	2.277624	-0.241189	8
H	-1.221544	0.852124	1.903790	1
H	-1.642324	-0.526216	0.881471	1
H	-1.678634	1.120134	0.219721	1
H	0.834956	-0.369716	1.169341	1
H	1.551976	-0.138696	-1.252939	1
H	-0.047984	0.462764	-1.657529	1
H	-0.681724	-3.713046	-1.377970	1
H	0.947256	2.084834	1.670931	1
Es	-0.150027	-2.112781	-1.547783	99
Es	-0.418263	-2.097169	-0.935798	99
Es	0.660339	0.998055	0.556779	99
Es	1.571934	2.277484	-0.240930	99
Es	0.328875	0.314601	0.476464	99
Es	0.247915	-0.918033	-1.040512	99
Es	-1.489339	0.906033	0.433745	99
Es	1.190221	-0.170655	-1.148947	99
Es	1.541893	2.112999	-0.460755	99
Es	-0.388853	0.389875	0.678787	99
Es	0.950269	1.941755	1.354038	99
Es	0.033108	-1.577517	-1.117941	99
Es	0.402621	0.049852	-0.248976	99
Es	1.566003	1.932710	0.137066	99
Es	0.990336	1.666863	0.649596	99
Es	-1.472386	-0.216161	0.883635	99
Es	-1.179012	0.727817	1.573590	99
Es	0.672010	-0.133077	0.944085	99
Es	1.708606	2.578715	-0.183620	99
Es	1.155704	2.160849	0.014053	99
Es	0.123258	0.230312	-1.414336	99
Es	-0.345261	-2.709711	-1.252824	99
Es	-0.568224	-3.366727	-1.324877	99
Es	0.086456	-2.258074	-1.068384	99
Es	0.495147	-0.188299	-0.961223	99
Es	-1.136267	0.444197	0.890325	99
41
Properties=species:S:1:pos:R:3:Z:I:1 energy=-306.7663868373608 field_type=dipole dipole="0.000000 0.000000 0.000000" charge=0
C	-1.136334	0.444184	0.890331	6
C	0.328886	0.314554	0.476491	6
C	0.495216	-0.188166	-0.961269	6
C	0.033006	-1.577786	-1.117969	6
C	-0.345184	-2.709466	-1.252810	6
C	0.990336	1.666874	0.649601	6
O	1.572086	2.277624	-0.241189	8
H	-1.221544	0.852124	1.903790	1
H	-1.642324	-0.526216	0.881471	1
H	-1.678634	1.120134	0.219721	1
H	0.834956	-0.369716	1.169341	1
H	1.551976	-0.138696	-1.252939	1
H	-0.047984	0.462764	-1.657529	1
H	-0.681724	-3.713046	-1.377970	1
H	0.947256	2.084834	1.670931	1
Es	-0.138478	-2.199568	-0.822517	99
Es	-1.489361	0.906019	0.434363	99
Es	1.540875	2.115870	-0.453137	99
Es	-1.472656	-0.216482	0.884055	99
Es	0.123274	0.229860	-1.413717	99
Es	1.571928	2.277478	-0.240916	99
Es	0.660589	0.998203	0.556522	99
Es	0.328876	0.314602	0.476465	99
Es	-0.568617	-3.366690	-1.324818	99
Es	0.246283	-0.917687	-1.040842	99
Es	-0.345265	-2.709713	-1.252830	99
Es	0.672052	-0.132976	0.943739	99
Es	0.990334	1.666863	0.649596	99
Es	0.402527	0.049945	-0.249071	99
Es	0.033101	-1.577510	-1.117946	99
Es	0.495154	-0.188299	-0.961224	99
Es	-0.410073	-2.072339	-1.260408	99
Es	1.155966	2.160713	0.011755	99
Es	0.068578	-2.196811	-1.468337	99
Es	-1.136268	0.444197	0.890326	99
Es	1.565627	1.929351	0.136452	99
Es	-0.388828	0.390038	0.678721	99
Es	1.710040	2.579390	-0.188093	99
Es	1.190483	-0.170002	-1.149125	99
Es	0.949895	1.941841	1.353658	99
Es	-1.178969	0.727621	1.572590	99
41
Properties=species:S:1:pos:R:3:Z:I:1 energy=-306.7663868373608 field_type=dipole dipole="0.000000 0.000000 0.000000" charge=0
C	-1.136334	0.444184	0.890331	6
C	0.328886	0.314554	0.476491	6
C	0.495216	-0.188166	-0.961269	6
C	0.033006	-1.577786	-1.117969	6
C	-0.345184	-2.709466	-1.252810	6
C	0.990336	1.666874	0.649601	6
O	1.572086	2.277624	-0.241189	8
H	-1.221544	0.852124	1.903790	1
H	-1.642324	-0.526216	0.881471	1
H	-1.678634	1.120134	0.219721	1
H	0.834956	-0.369716	1.169341	1
H	1.551976	-0.138696	-1.252939	1
H	-0.047984	0.462764	-1.657529	1
H	-0.681724	-3.713046	-1.377970	1
H	0.947256	2.084834	1.670931	1
Es	0.328875	0.314601	0.476462	99
Es	0.990334	1.666865	0.649598	99
Es	-1.488680	0.906132	0.434152	99
Es	-1.472743	-0.216869	0.884092	99
Es	-0.345264	-2.709712	-1.252817	99
Es	1.563980	1.928994	0.135603	99
Es	0.402184	0.049949	-0.249322	99
Es	0.247837	-0.918535	-1.040645	99
Es	1.190227	-0.169973	-1.148927	99
Es	0.033107	-1.577513	-1.117934	99
Es	1.571943	2.277489	-0.240936	99
Es	0.495149	-0.188299	-0.961223	99
Es	-0.145856	-2.113780	-1.548294	99
Es	0.660606	0.998495	0.556614	99
Es	-1.178657	0.727928	1.572279	99
Es	-1.136268	0.444196	0.890325	99
Es	1.709593	2.580317	-0.186924	99
Es	0.671245	-0.133393	0.943999	99
Es	-0.568789	-3.366673	-1.324341	99
Es	-0.406176	-2.102183	-0.920812	99
Es	-0.388506	0.390212	0.678778	99
Es	0.123687	0.229893	-1.413559	99
Es	0.070338	-2.252119	-1.082853	99
Es	1.540870	2.116206	-0.452855	99
Es	0.950468	1.941607	1.353682	99
Es	1.157562	2.160079	0.011116	99
41
Properties=species:S:1:pos:R:3:Z:I:1 energy=-306.7663868373608 field_type=dipole dipole="0.000000 0.000000 0.000000" charge=0
C	-1.136334	0.444184	0.890331	6
C	0.328886	0.314554	0.476491	6
C	0.495216	-0.188166	-0.961269	6
C	0.033006	-1.577786	-1.117969	6
C	-0.345184	-2.709466	-1.252810	6
C	0.990336	1.666874	0.649601	6
O	1.572086	2.277624	-0.241189	8
H	-1.221544	0.852124	1.903790	1
H	-1.642324	-0.526216	0.881471	1
H	-1.678634	1.120134	0.219721	1
H	0.834956	-0.369716	1.169341	1
H	1.551976	-0.138696	-1.252939	1
H	-0.047984	0.462764	-1.657529	1
H	-0.681724	-3.713046	-1.377970	1
H	0.947256	2.084834	1.670931	1
Es	1.709968	2.580773	-0.189116	99
Es	-0.345267	-2.709713	-1.252818	99
Es	0.246148	-0.918108	-1.041037	99
Es	0.660647	0.998604	0.556571	99
Es	0.328865	0.314604	0.476470	99
Es	-1.136268	0.444196	0.890325	99
Es	0.033106	-1.577512	-1.117947	99
Es	0.065816	-2.195141	-1.471362	99
Es	1.156344	2.158797	0.010276	99
Es	0.990334	1.666863	0.649596	99
Es	0.402290	0.050017	-0.249500	99
Es	-1.472906	-0.217022	0.884269	99
Es	1.190448	-0.169300	-1.149244	99
Es	0.671201	-0.133660	0.943915	99
Es	1.571939	2.277488	-0.240923	99
Es	-1.488882	0.906364	0.434755	99
Es	1.540198	2.119712	-0.447389	99
Es	-0.568949	-3.366681	-1.324341	99
Es	-0.388288	0.390443	0.678343	99
Es	-0.153636	-2.194529	-0.820756	99
Es	-0.392148	-2.079053	-1.259152	99
Es	0.123552	0.229583	-1.412804	99
Es	1.565849	1.926264	0.133358	99
Es	0.495152	-0.188300	-0.961222	99
Es	0.950050	1.941754	1.353349	99
Es	-1.178501	0.727468	1.571643	99
41
Properties=species:S:1:pos:R:3:Z:I:1 energy=-306.7663868373608 field_type=dipole dipole="0.000000 0.000000 0.000000" charge=0
C	-1.136334	0.444184	0.890331	6
C	0.328886	0.314554	0.476491	6
C	0.495216	-0.188166	-0.961269	6
C	0.033006	-1.577786	-1.117969	6
C	-0.345184	-2.709466	-1.252810	6
C	0.990336	1.666874	0.649601	6
O	1.572086	2.277624	-0.241189	8
H	-1.221544	0.852124	1.903790	1
H	-1.642324	-0.526216	0.881471	1
H	-1.678634	1.120134	0.219721	1
H	0.834956	-0.369716	1.169341	1
H	1.551976	-0.138696	-1.252939	1
H	-0.047984	0.462764	-1.657529	1
H	-0.681724	-3.713046	-1.377970	1
H	0.947256	2.084834	1.670931	1
Es	0.033100	-1.577511	-1.117948	99
Es	0.671188	-0.133540	0.943703	99
Es	0.402319	0.050044	-0.249586	99
Es	-0.345271	-2.709708	-1.252813	99
Es	1.539445	2.122306	-0.444115	99
Es	0.061815	-2.193133	-1.474930	99
Es	1.157215	2.158999	0.009228	99
Es	1.710604	2.580954	-0.189484	99
Es	1.190451	-0.169137	-1.149126	99
Es	0.990332	1.666865	0.649596	99
Es	-1.472954	-0.217194	0.884560	99
Es	0.328876	0.314600	0.476464	99
Es	-1.136269	0.444197	0.890326	99
Es	0.950055	1.941679	1.353209	99
Es	-1.488810	0.906434	0.434818	99
Es	1.571956	2.277443	-0.241096	99
Es	-1.178435	0.727422	1.571123	99
Es	0.495151	-0.188300	-0.961223	99
Es	-0.383132	-2.082733	-1.256214	99
Es	-0.158694	-2.192844	-0.820118	99
Es	0.123702	0.229510	-1.412660	99
Es	0.660650	0.998756	0.556472	99
Es	-0.388427	0.390307	0.678476	99
Es	1.565093	1.923443	0.131796	99
Es	0.246137	-0.918242	-1.040860	99
Es	-0.569032	-3.366702	-1.324338	99
41
Properties=species:S:1:pos:R:3:Z:I:1 energy=-306.7663868373608 field_type=dipole dipole="0.000000 0.000000 0.000000" charge=0
C	-1.136334	0.444184	0.890331	6
C	0.328886	0.314554	0.476491	6
C	0.495216	-0.188166	-0.961269	6
C	0.033006	-1.577786	-1.117969	6
C	-0.345184	-2.709466	-1.252810	6
C	0.990336	1.666874	0.649601	6
O	1.572086	2.277624	-0.241189	8
H	-1.221544	0.852124	1.903790	1
H	-1.642324	-0.526216	0.881471	1
H	-1.678634	1.120134	0.219721	1
H	0.834956	-0.369716	1.169341	1
H	1.551976	-0.138696	-1.252939	1
H	-0.047984	0.462764	-1.657529	1
H	-0.681724	-3.713046	-1.377970	1
H	0.947256	2.084834	1.670931	1
Es	-0.134338	-2.117046	-1.548661	99
Es	0.950667	1.941388	1.353267	99
Es	-0.387918	0.390844	0.678053	99
Es	0.033087	-1.577511	-1.117939	99
Es	-0.345269	-2.709712	-1.252820	99
Es	1.157521	2.159042	0.010124	99
Es	0.123833	0.229598	-1.412302	99
Es	-0.394531	-2.106925	-0.908802	99
Es	0.328876	0.314601	0.476463	99
Es	-1.473002	-0.217422	0.884380	99
Es	0.990334	1.666864	0.649596	99
Es	0.495154	-0.188296	-0.961226	99
Es	1.571944	2.277498	-0.240921	99
Es	0.247647	-0.918938	-1.040577	99
Es	-1.136271	0.444200	0.890325	99
Es	0.660740	0.998880	0.556589	99
Es	1.190174	-0.169090	-1.149268	99
Es	-1.488197	0.906552	0.434642	99
Es	-0.569519	-3.366554	-1.324290	99
Es	1.711063	2.581136	-0.190673	99
Es	-1.178005	0.727700	1.571199	99
Es	1.538590	2.121599	-0.443602	99
Es	0.402144	0.049886	-0.249672	99
Es	0.670036	-0.134296	0.944349	99
Es	0.047592	-2.244246	-1.094328	99
Es	1.564712	1.924162	0.131358	99
41
Properties=species:S:1:pos:R:3:Z:I:1 energy=-306.7663868373608 field_type=dipole dipole="0.000000 0.000000 0.000000" charge=0
C	-1.136334	0.444184	0.890331	6
C	0.328886	0.314554	0.476491	6
C	0.495216	-0.188166	-0.961269	6
C	0.033006	-1.577786	-1.117969	6
C	-0.345184	-2.709466	-1.252810	6
C	0.990336	1.666874	0.649601	6
O	1.572086	2.277624	-0.241189	8
H	-1.221544	0.852124	1.903790	1
H	-1.642324	-0.526216	0.881471	1
H	-1.678634	1.120134	0.219721	1
H	0.834956	-0.369716	1.169341	1
H	1.551976	-0.138696	-1.252939	1
H	-0.047984	0.462764	-1.657529	1
H	-0.681724	-3.713046	-1.377970	1
H	0.947256	2.084834	1.670931	1
Es	-1.136263	0.444196	0.890325	99
Es	0.328875	0.314602	0.476461	99
Es	0.401908	0.050012	-0.249783	99
Es	1.571940	2.277494	-0.240927	99
Es	0.670039	-0.134063	0.944075	99
Es	1.158065	2.159151	0.008685	99
Es	0.495151	-0.188300	-0.961223	99
Es	0.660734	0.998981	0.556612	99
Es	0.045023	-2.242988	-1.100058	99
Es	-0.345269	-2.709711	-1.252823	99
Es	1.563727	1.921919	0.130366	99
Es	1.538169	2.123666	-0.438985	99
Es	-1.473051	-0.217507	0.884342	99
Es	-0.387851	0.390817	0.678026	99
Es	-0.569428	-3.366624	-1.324339	99
Es	1.711931	2.581242	-0.192792	99
Es	1.190193	-0.168908	-1.149226	99
Es	0.033100	-1.577511	-1.117949	99
Es	0.990334	1.666863	0.649596	99
Es	-0.389126	-2.109103	-0.903232	99
Es	-0.137369	-2.116047	-1.548374	99
Es	-1.178098	0.728008	1.571144	99
Es	0.247603	-0.919034	-1.040611	99
Es	-1.488071	0.906091	0.434906	99
Es	0.950672	1.941389	1.353187	99
Es	0.124125	0.229279	-1.412144	99
41
Properties=species:S:1:pos:R:3:Z:I:1 energy=-306.7663868373608 field_type=dipole dipole="0.000000 0.000000 0.000000" charge=0
C	-1.136334	0.444184	0.890331	6
C	0.328886	0.314554	0.476491	6
C	0.495216	-0.188166	-0.961269	6
C	0.033006	-1.577786	-1.117969	6
C	-0.345184	-2.709466	-1.252810	6
C	0.990336	1.666874	0.649601	6
O	1.572086	2.277624	-0.241189	8
H	-1.221544	0.852124	1.903790	1
H	-1.642324	-0.526216	0.881471	1
H	-1.678634	1.120134	0.219721	1
H	0.834956	-0.369716	1.169341	1
H	1.551976	-0.138696	-1.252939	1
H	-0.047984	0.462764	-1.657529	1
H	-0.681724	-3.713046	-1.377970	1
H	0.947256	2.084834	1.670931	1
Es	-0.385831	-2.110410	-0.900223	99
Es	0.247551	-0.919107	-1.040485	99
Es	-0.345268	-2.709711	-1.252814	99
Es	1.160234	2.159662	0.005234	99
Es	-1.136267	0.444196	0.890326	99
Es	0.990336	1.666863	0.649599	99
Es	0.328875	0.314602	0.476463	99
Es	0.495152	-0.188300	-0.961222	99
Es	1.571916	2.277460	-0.240903	99
Es	-1.487997	0.906395	0.434970	99
Es	1.559845	1.920352	0.131408	99
Es	-0.569553	-3.366596	-1.324254	99
Es	0.660897	0.999004	0.556522	99
Es	0.041139	-2.241534	-1.103155	99
Es	1.540268	2.124537	-0.438380	99
Es	-1.178029	0.727743	1.570767	99
Es	0.950709	1.941352	1.353088	99
Es	0.401820	0.049968	-0.249891	99
Es	1.711513	2.581537	-0.190970	99
Es	-1.473176	-0.217557	0.884451	99
Es	0.669850	-0.134230	0.944068	99
Es	-0.387800	0.390849	0.678015	99
Es	1.190559	-0.168137	-1.149739	99
Es	0.123915	0.228715	-1.411341	99
Es	0.033110	-1.577514	-1.117947	99
Es	-0.136702	-2.116227	-1.548327	99
41
Properties=species:S:1:pos:R:3:Z:I:1 energy=-306.7663868373608 field_type=dipole dipole="0.000000 0.000000 0.000000" charge=0
C	-1.136334	0.444184	0.890331	6
C	0.328886	0.314554	0.476491	6
C	0.495216	-0.188166	-0.961269	6
C	0.033006	-1.577786	-1.117969	6
C	-0.345184	-2.709466	-1.252810	6
C	0.990336	1.666874	0.649601	6
O	1.572086	2.277624	-0.241189	8
H	-1.221544	0.852124	1.903790	1
H	-1.642324	-0.526216	0.881471	1
H	-1.678634	1.120134	0.219721	1
H	0.834956	-0.369716	1.169341	1
H	1.551976	-0.138696	-1.252939	1
H	-0.047984	0.462764	-1.657529	1
H	-0.681724	-3.713046	-1.377970	1
H	0.947256	2.084834	1.670931	1
Es	1.712050	2.581484	-0.191247	99
Es	0.990335	1.666863	0.649596	99
Es	-0.383466	-2.111347	-0.898305	99
Es	1.559572	1.917971	0.129460	99
Es	1.190666	-0.167681	-1.149991	99
Es	-0.135133	-2.116669	-1.548353	99
Es	0.495150	-0.188300	-0.961222	99
Es	-1.136269	0.444198	0.890327	99
Es	0.669846	-0.134266	0.944027	99
Es	0.328875	0.314601	0.476460	99
Es	0.123899	0.228399	-1.410845	99
Es	0.950840	1.941318	1.353096	99
Es	1.571948	2.277505	-0.240929	99
Es	0.401773	0.049940	-0.249997	99
Es	0.660800	0.999101	0.556500	99
Es	0.033106	-1.577511	-1.117944	99
Es	-1.178021	0.727660	1.570597	99
Es	1.161411	2.160107	0.005680	99
Es	0.247609	-0.919208	-1.040454	99
Es	0.037266	-2.240168	-1.105144	99
Es	-1.473111	-0.217710	0.884361	99
Es	-0.387808	0.390988	0.677980	99
Es	-0.569724	-3.366552	-1.324187	99
Es	1.538684	2.126527	-0.436589	99
Es	-0.345271	-2.709712	-1.252814	99
Es	-1.487963	0.906377	0.435198	99
41
Properties=species:S:1:pos:R:3:Z:I:1 energy=-306.7663868373608 field_type=dipole dipole="0.000000 0.000000 0.000000" charge=0
C	-1.136334	0.444184	0.890331	6
C	0.328886	0.314554	0.476491	6
C	0.495216	-0.188166	-0.961269	6
C	0.033006	-1.577786	-1.117969	6
C	-0.345184	-2.709466	-1.252810	6
C	0.990336	1.666874	0.649601	6
O	1.572086	2.277624	-0.241189	8
H	-1.221544	0.852124	1.903790	1
H	-1.642324	-0.526216	0.881471	1
H	-1.678634	1.120134	0.219721	1
H	0.834956	-0.369716	1.169341	1
H	1.551976	-0.138696	-1.252939	1
H	-0.047984	0.462764	-1.657529	1
H	-0.681724	-3.713046	-1.377970	1
H	0.947256	2.084834	1.670931	1
Es	0.053724	-2.188970	-1.481533	99
Es	-1.136267	0.444195	0.890327	99
Es	1.571969	2.277485	-0.241041	99
Es	0.670017	-0.134302	0.943987	99
Es	-0.345280	-2.709709	-1.252815	99
Es	1.711555	2.581947	-0.193291	99
Es	0.123887	0.228598	-1.411105	99
Es	0.401891	0.050028	-0.249972	99
Es	-1.178079	0.727294	1.570095	99
Es	-1.473146	-0.217744	0.884618	99
Es	0.495149	-0.188300	-0.961222	99
Es	0.660764	0.999163	0.556350	99
Es	0.990336	1.666864	0.649597	99
Es	-0.387646	0.390972	0.677965	99
Es	-0.175968	-2.187050	-0.819721	99
Es	1.159015	2.158317	0.005501	99
Es	0.246339	-0.918781	-1.040708	99
Es	-0.569404	-3.366702	-1.324333	99
Es	0.033094	-1.577507	-1.117951	99
Es	0.950321	1.941497	1.352842	99
Es	1.190519	-0.167734	-1.149673	99
Es	-0.357941	-2.092608	-1.249864	99
Es	0.328875	0.314602	0.476462	99
Es	1.563185	1.916848	0.127440	99
Es	1.538324	2.128897	-0.432054	99
Es	-1.488168	0.906617	0.435360	99
