44
Properties=species:S:1:pos:R:3:Z:I:1 energy=-307.93316327615685 field_type=dipole dipole="0.000000 0.000000 0.000000" charge=0
C	-0.955992	-0.308386	1.583064	6
C	0.413018	-0.216956	0.907034	6
C	0.409487	-0.812476	-0.509886	6
C	-0.554782	-0.147506	-1.489096	6
O	-0.445933	-0.777056	-2.761496	8
C	0.895037	1.144214	0.907034	6
C	1.292318	2.266114	0.907034	6
H	-0.888442	-0.001586	2.632704	1
H	-1.334422	-1.335066	1.558994	1
H	-1.695132	0.342464	1.104694	1
H	1.106807	-0.824686	1.503244	1
H	0.166588	-1.882306	-0.454006	1
H	1.424048	-0.771636	-0.930426	1
H	-0.341712	0.917814	-1.616786	1
H	-1.591812	-0.255346	-1.160256	1
H	0.453038	-0.608596	-3.092536	1
H	1.647887	3.270994	0.910684	1
Es	-0.636314	-0.629700	-2.950088	99
Es	0.886436	-0.611198	1.308122	99
Es	-1.206218	-1.010145	1.560172	99
Es	-1.261356	-0.224101	-1.258659	99
Es	-0.445698	-0.776711	-2.761397	99
Es	0.409482	-0.812433	-0.509839	99
Es	-0.265935	-0.244115	1.232291	99
Es	-0.402283	0.584798	-1.565862	99
Es	1.524716	2.923044	0.908606	99
Es	-0.463194	-1.080378	-2.710616	99
Es	0.045099	-0.673782	-2.921594	99
Es	-0.955944	-0.308386	1.583039	99
Es	1.390076	1.615108	0.721230	99
Es	0.236422	-1.537734	-0.461898	99
Es	-0.069774	-0.470201	-0.979473	99
Es	0.894952	1.143971	0.907033	99
Es	0.413016	-0.216853	0.907009	99
Es	0.801714	1.822908	0.729890	99
Es	-1.453418	0.132280	1.250300	99
Es	0.660309	0.493825	0.903090	99
Es	0.405261	-0.483446	0.202053	99
Es	1.101247	1.716281	1.265531	99
Es	-0.904002	-0.101142	2.294259	99
Es	1.103324	-0.774713	-0.799846	99
Es	-0.462284	-0.532073	-2.280783	99
Es	1.292408	2.266368	0.907032	99
Es	-0.554726	-0.147638	-1.489272	99
44
Properties=species:S:1:pos:R:3:Z:I:1 energy=-307.93316327615685 field_type=dipole dipole="0.000000 0.000000 0.000000" charge=0
C	-0.955992	-0.308386	1.583064	6
C	0.413018	-0.216956	0.907034	6
C	0.409487	-0.812476	-0.509886	6
C	-0.554782	-0.147506	-1.489096	6
O	-0.445933	-0.777056	-2.761496	8
C	0.895037	1.144214	0.907034	6
C	1.292318	2.266114	0.907034	6
H	-0.888442	-0.001586	2.632704	1
H	-1.334422	-1.335066	1.558994	1
H	-1.695132	0.342464	1.104694	1
H	1.106807	-0.824686	1.503244	1
H	0.166588	-1.882306	-0.454006	1
H	1.424048	-0.771636	-0.930426	1
H	-0.341712	0.917814	-1.616786	1
H	-1.591812	-0.255346	-1.160256	1
H	0.453038	-0.608596	-3.092536	1
H	1.647887	3.270994	0.910684	1
Es	-1.451300	0.132835	1.252020	99
Es	-0.069521	-0.470287	-0.979421	99
Es	0.884181	-0.611410	1.306522	99
Es	0.801929	1.822865	0.739264	99
Es	0.405331	-0.483460	0.202284	99
Es	1.102391	-0.772584	-0.799713	99
Es	0.413019	-0.216853	0.907007	99
Es	-0.265808	-0.244173	1.232553	99
Es	-1.208074	-1.013753	1.560679	99
Es	0.042948	-0.668263	-2.922165	99
Es	-0.955947	-0.308384	1.583041	99
Es	-0.463466	-0.527964	-2.285534	99
Es	1.386289	1.615991	0.717492	99
Es	-0.445657	-0.776939	-2.761317	99
Es	-1.260544	-0.225771	-1.258180	99
Es	1.292410	2.266371	0.907033	99
Es	-0.480769	-1.097981	-2.719860	99
Es	0.661195	0.495901	0.903283	99
Es	1.525538	2.924448	0.908424	99
Es	-0.615524	-0.621885	-2.934969	99
Es	-0.554727	-0.147639	-1.489271	99
Es	-0.903852	-0.099897	2.291297	99
Es	0.409481	-0.812434	-0.509838	99
Es	0.235332	-1.541130	-0.461817	99
Es	0.894937	1.143973	0.907030	99
Es	1.104791	1.715121	1.259864	99
Es	-0.401269	0.587133	-1.565375	99
44
Properties=species:S:1:pos:R:3:Z:I:1 energy=-307.93316327615685 field_type=dipole dipole="0.000000 0.000000 0.000000" charge=0
C	-0.955992	-0.308386	1.583064	6
C	0.413018	-0.216956	0.907034	6
C	0.409487	-0.812476	-0.509886	6
C	-0.554782	-0.147506	-1.489096	6
O	-0.445933	-0.777056	-2.761496	8
C	0.895037	1.144214	0.907034	6
C	1.292318	2.266114	0.907034	6
H	-0.888442	-0.001586	2.632704	1
H	-1.334422	-1.335066	1.558994	1
H	-1.695132	0.342464	1.104694	1
H	1.106807	-0.824686	1.503244	1
H	0.166588	-1.882306	-0.454006	1
H	1.424048	-0.771636	-0.930426	1
H	-0.341712	0.917814	-1.616786	1
H	-1.591812	-0.255346	-1.160256	1
H	0.453038	-0.608596	-3.092536	1
H	1.647887	3.270994	0.910684	1
Es	-1.450196	0.133161	1.252982	99
Es	-1.209002	-1.015336	1.561010	99
Es	1.353797	1.627323	0.674051	99
Es	-0.955945	-0.308386	1.583040	99
Es	0.883163	-0.611673	1.305529	99
Es	0.409479	-0.812433	-0.509839	99
Es	0.405227	-0.483206	0.202507	99
Es	-0.069390	-0.470291	-0.979451	99
Es	0.041552	-0.664344	-2.923577	99
Es	-0.903848	-0.099557	2.289455	99
Es	-0.489911	-1.104429	-2.724745	99
Es	-0.445657	-0.776798	-2.761350	99
Es	-1.260046	-0.226758	-1.258028	99
Es	-0.400851	0.588252	-1.565017	99
Es	-0.554726	-0.147639	-1.489273	99
Es	0.413016	-0.216852	0.907011	99
Es	0.234741	-1.542681	-0.461603	99
Es	1.101793	-0.771604	-0.799578	99
Es	1.158948	1.696180	1.249559	99
Es	-0.603649	-0.622718	-2.925119	99
Es	0.661672	0.497016	0.903344	99
Es	0.894950	1.143962	0.907037	99
Es	-0.265433	-0.244343	1.232757	99
Es	1.525804	2.925020	0.908381	99
Es	-0.464780	-0.524818	-2.288649	99
Es	0.780194	1.830409	0.792869	99
Es	1.292411	2.266374	0.907029	99
44
Properties=species:S:1:pos:R:3:Z:I:1 energy=-307.93316327615685 field_type=dipole dipole="0.000000 0.000000 0.000000" charge=0
C	-0.955992	-0.308386	1.583064	6
C	0.413018	-0.216956	0.907034	6
C	0.409487	-0.812476	-0.509886	6
C	-0.554782	-0.147506	-1.489096	6
O	-0.445933	-0.777056	-2.761496	8
C	0.895037	1.144214	0.907034	6
C	1.292318	2.266114	0.907034	6
H	-0.888442	-0.001586	2.632704	1
H	-1.334422	-1.335066	1.558994	1
H	-1.695132	0.342464	1.104694	1
H	1.106807	-0.824686	1.503244	1
H	0.166588	-1.882306	-0.454006	1
H	1.424048	-0.771636	-0.930426	1
H	-0.341712	0.917814	-1.616786	1
H	-1.591812	-0.255346	-1.160256	1
H	0.453038	-0.608596	-3.092536	1
H	1.647887	3.270994	0.910684	1
Es	-1.449368	0.133343	1.253448	99
Es	-0.955946	-0.308386	1.583040	99
Es	1.101308	-0.770865	-0.799521	99
Es	-0.904015	-0.099351	2.288179	99
Es	0.039580	-0.660607	-2.924645	99
Es	1.525952	2.925330	0.908314	99
Es	-0.400478	0.588981	-1.564831	99
Es	-0.554723	-0.147640	-1.489277	99
Es	0.662017	0.497657	0.903315	99
Es	0.808949	1.820154	0.729268	99
Es	-1.209526	-1.016312	1.561193	99
Es	1.392143	1.613832	0.733052	99
Es	1.292413	2.266382	0.907027	99
Es	0.409483	-0.812433	-0.509839	99
Es	0.882377	-0.611630	1.304832	99
Es	0.894947	1.143963	0.907037	99
Es	-0.492221	-1.108200	-2.725270	99
Es	-0.069330	-0.470296	-0.979448	99
Es	-0.465863	-0.522221	-2.291655	99
Es	-0.445666	-0.776941	-2.761322	99
Es	0.413016	-0.216851	0.907009	99
Es	0.405251	-0.483165	0.202730	99
Es	-0.265288	-0.244450	1.233216	99
Es	-1.259617	-0.227393	-1.257852	99
Es	1.091872	1.719851	1.254188	99
Es	0.234402	-1.543639	-0.461667	99
Es	-0.598355	-0.625282	-2.920186	99
44
Properties=species:S:1:pos:R:3:Z:I:1 energy=-307.93316327615685 field_type=dipole dipole="0.000000 0.000000 0.000000" charge=0
C	-0.955992	-0.308386	1.583064	6
C	0.413018	-0.216956	0.907034	6
C	0.409487	-0.812476	-0.509886	6
C	-0.554782	-0.147506	-1.489096	6
O	-0.445933	-0.777056	-2.761496	8
C	0.895037	1.144214	0.907034	6
C	1.292318	2.266114	0.907034	6
H	-0.888442	-0.001586	2.632704	1
H	-1.334422	-1.335066	1.558994	1
H	-1.695132	0.342464	1.104694	1
H	1.106807	-0.824686	1.503244	1
H	0.166588	-1.882306	-0.454006	1
H	1.424048	-0.771636	-0.930426	1
H	-0.341712	0.917814	-1.616786	1
H	-1.591812	-0.255346	-1.160256	1
H	0.453038	-0.608596	-3.092536	1
H	1.647887	3.270994	0.910684	1
Es	0.038621	-0.658621	-2.925672	99
Es	-0.554725	-0.147639	-1.489274	99
Es	0.881894	-0.611758	1.304413	99
Es	-0.903719	-0.099499	2.286959	99
Es	-0.592782	-0.625101	-2.914282	99
Es	1.100910	-0.770395	-0.799280	99
Es	0.780979	1.829957	0.792658	99
Es	-0.400286	0.589458	-1.564633	99
Es	1.292393	2.266380	0.907028	99
Es	0.234163	-1.544336	-0.461616	99
Es	-1.449064	0.133753	1.254105	99
Es	-1.259258	-0.227838	-1.257774	99
Es	0.413016	-0.216851	0.907009	99
Es	0.662332	0.498051	0.903285	99
Es	1.353351	1.627514	0.677461	99
Es	-0.497623	-1.110146	-2.728848	99
Es	1.526074	2.925528	0.908361	99
Es	0.894948	1.143961	0.907039	99
Es	-0.955946	-0.308387	1.583039	99
Es	-0.069141	-0.470314	-0.979564	99
Es	0.409482	-0.812436	-0.509839	99
Es	-1.209848	-1.017010	1.561518	99
Es	-0.465176	-0.522551	-2.292703	99
Es	1.158456	1.696413	1.246301	99
Es	0.405168	-0.482980	0.202828	99
Es	-0.265231	-0.244491	1.233169	99
Es	-0.445676	-0.776830	-2.761355	99
44
Properties=species:S:1:pos:R:3:Z:I:1 energy=-307.93316327615685 field_type=dipole dipole="0.000000 0.000000 0.000000" charge=0
C	-0.955992	-0.308386	1.583064	6
C	0.413018	-0.216956	0.907034	6
C	0.409487	-0.812476	-0.509886	6
C	-0.554782	-0.147506	-1.489096	6
O	-0.445933	-0.777056	-2.761496	8
C	0.895037	1.144214	0.907034	6
C	1.292318	2.266114	0.907034	6
H	-0.888442	-0.001586	2.632704	1
H	-1.334422	-1.335066	1.558994	1
H	-1.695132	0.342464	1.104694	1
H	1.106807	-0.824686	1.503244	1
H	0.166588	-1.882306	-0.454006	1
H	1.424048	-0.771636	-0.930426	1
H	-0.341712	0.917814	-1.616786	1
H	-1.591812	-0.255346	-1.160256	1
H	0.453038	-0.608596	-3.092536	1
H	1.647887	3.270994	0.910684	1
Es	-0.264949	-0.244480	1.233298	99
Es	-0.500749	-1.111366	-2.730403	99
Es	-1.210124	-1.017458	1.561716	99
Es	0.405110	-0.482928	0.202915	99
Es	0.413017	-0.216852	0.907009	99
Es	0.662642	0.498352	0.903426	99
Es	0.234073	-1.544867	-0.461687	99
Es	1.526148	2.925644	0.908326	99
Es	1.153359	1.698217	1.246536	99
Es	0.409482	-0.812434	-0.509839	99
Es	1.356434	1.626500	0.683436	99
Es	-0.069170	-0.470133	-0.979547	99
Es	0.038182	-0.657246	-2.925691	99
Es	-0.554725	-0.147639	-1.489273	99
Es	1.100514	-0.769976	-0.799114	99
Es	-0.587948	-0.626879	-2.910825	99
Es	-0.466473	-0.520973	-2.294408	99
Es	0.894939	1.143961	0.907034	99
Es	-0.445653	-0.776888	-2.761329	99
Es	-0.903749	-0.099594	2.286033	99
Es	-0.400173	0.589826	-1.564523	99
Es	1.292411	2.266383	0.907032	99
Es	0.881437	-0.612016	1.304118	99
Es	0.782858	1.829205	0.786376	99
Es	-1.258947	-0.228190	-1.257720	99
Es	-0.955944	-0.308385	1.583036	99
Es	-1.448689	0.134047	1.254403	99
44
Properties=species:S:1:pos:R:3:Z:I:1 energy=-307.93316327615685 field_type=dipole dipole="0.000000 0.000000 0.000000" charge=0
C	-0.955992	-0.308386	1.583064	6
C	0.413018	-0.216956	0.907034	6
C	0.409487	-0.812476	-0.509886	6
C	-0.554782	-0.147506	-1.489096	6
O	-0.445933	-0.777056	-2.761496	8
C	0.895037	1.144214	0.907034	6
C	1.292318	2.266114	0.907034	6
H	-0.888442	-0.001586	2.632704	1
H	-1.334422	-1.335066	1.558994	1
H	-1.695132	0.342464	1.104694	1
H	1.106807	-0.824686	1.503244	1
H	0.166588	-1.882306	-0.454006	1
H	1.424048	-0.771636	-0.930426	1
H	-0.341712	0.917814	-1.616786	1
H	-1.591812	-0.255346	-1.160256	1
H	0.453038	-0.608596	-3.092536	1
H	1.647887	3.270994	0.910684	1
Es	0.404922	-0.482817	0.203024	99
Es	-1.448553	0.134188	1.254628	99
Es	-0.585791	-0.629062	-2.908038	99
Es	-0.445691	-0.776946	-2.761339	99
Es	0.233967	-1.545174	-0.461666	99
Es	-0.400140	0.590064	-1.564374	99
Es	1.427031	1.601563	0.963262	99
Es	-0.069021	-0.470381	-0.979469	99
Es	1.292411	2.266381	0.907031	99
Es	0.413016	-0.216851	0.907011	99
Es	-0.554726	-0.147643	-1.489276	99
Es	0.984094	1.758173	0.584559	99
Es	1.100292	-0.769720	-0.799068	99
Es	-1.258732	-0.228393	-1.257820	99
Es	1.525978	2.925829	0.908129	99
Es	0.036781	-0.654699	-2.926859	99
Es	-0.955944	-0.308387	1.583037	99
Es	-1.210050	-1.017887	1.561786	99
Es	-0.903641	-0.099624	2.285474	99
Es	0.662370	0.498671	0.903088	99
Es	-0.467004	-0.519956	-2.295805	99
Es	-0.500962	-1.112617	-2.730491	99
Es	0.894945	1.143959	0.907031	99
Es	0.881966	1.794024	1.168954	99
Es	0.881236	-0.612048	1.303946	99
Es	-0.264923	-0.244381	1.233418	99
Es	0.409482	-0.812436	-0.509840	99
44
Properties=species:S:1:pos:R:3:Z:I:1 energy=-307.93316327615685 field_type=dipole dipole="0.000000 0.000000 0.000000" charge=0
C	-0.955992	-0.308386	1.583064	6
C	0.413018	-0.216956	0.907034	6
C	0.409487	-0.812476	-0.509886	6
C	-0.554782	-0.147506	-1.489096	6
O	-0.445933	-0.777056	-2.761496	8
C	0.895037	1.144214	0.907034	6
C	1.292318	2.266114	0.907034	6
H	-0.888442	-0.001586	2.632704	1
H	-1.334422	-1.335066	1.558994	1
H	-1.695132	0.342464	1.104694	1
H	1.106807	-0.824686	1.503244	1
H	0.166588	-1.882306	-0.454006	1
H	1.424048	-0.771636	-0.930426	1
H	-0.341712	0.917814	-1.616786	1
H	-1.591812	-0.255346	-1.160256	1
H	0.453038	-0.608596	-3.092536	1
H	1.647887	3.270994	0.910684	1
Es	-0.501923	-1.113433	-2.730305	99
Es	1.383467	1.616959	1.081729	99
Es	-0.069054	-0.470108	-0.979759	99
Es	-0.554727	-0.147641	-1.489274	99
Es	-0.467465	-0.519117	-2.297464	99
Es	0.233877	-1.545457	-0.461815	99
Es	1.099968	-0.769530	-0.798983	99
Es	0.805794	1.820990	1.070821	99
Es	-1.258517	-0.228792	-1.257557	99
Es	0.413017	-0.216851	0.907011	99
Es	-0.903714	-0.099693	2.284849	99
Es	-0.445653	-0.776921	-2.761311	99
Es	-1.210252	-1.018128	1.561924	99
Es	1.292412	2.266381	0.907033	99
Es	-1.448288	0.134276	1.254900	99
Es	0.036132	-0.653254	-2.927291	99
Es	0.894947	1.143956	0.907032	99
Es	-0.264799	-0.244431	1.233342	99
Es	1.103415	1.715957	0.564481	99
Es	0.405117	-0.482681	0.203251	99
Es	0.409481	-0.812433	-0.509837	99
Es	-0.955944	-0.308386	1.583037	99
Es	-0.400008	0.590301	-1.564184	99
Es	0.662677	0.498778	0.903032	99
Es	1.526177	2.925851	0.907997	99
Es	-0.583752	-0.630643	-2.906081	99
Es	0.880926	-0.612118	1.303757	99
44
Properties=species:S:1:pos:R:3:Z:I:1 energy=-307.93316327615685 field_type=dipole dipole="0.000000 0.000000 0.000000" charge=0
C	-0.955992	-0.308386	1.583064	6
C	0.413018	-0.216956	0.907034	6
C	0.409487	-0.812476	-0.509886	6
C	-0.554782	-0.147506	-1.489096	6
O	-0.445933	-0.777056	-2.761496	8
C	0.895037	1.144214	0.907034	6
C	1.292318	2.266114	0.907034	6
H	-0.888442	-0.001586	2.632704	1
H	-1.334422	-1.335066	1.558994	1
H	-1.695132	0.342464	1.104694	1
H	1.106807	-0.824686	1.503244	1
H	0.166588	-1.882306	-0.454006	1
H	1.424048	-0.771636	-0.930426	1
H	-0.341712	0.917814	-1.616786	1
H	-1.591812	-0.255346	-1.160256	1
H	0.453038	-0.608596	-3.092536	1
H	1.647887	3.270994	0.910684	1
Es	0.662852	0.498910	0.902899	99
Es	1.099730	-0.769391	-0.798943	99
Es	0.770676	1.833348	0.973511	99
Es	-0.554725	-0.147639	-1.489272	99
Es	0.035323	-0.651807	-2.927900	99
Es	1.292413	2.266384	0.907031	99
Es	-0.468316	-0.518105	-2.298344	99
Es	0.413016	-0.216851	0.907009	99
Es	1.201774	1.681283	0.581938	99
Es	-0.955946	-0.308387	1.583039	99
Es	0.409481	-0.812435	-0.509839	99
Es	0.404978	-0.482482	0.203355	99
Es	0.233741	-1.545685	-0.461758	99
Es	-0.903639	-0.099776	2.284254	99
Es	1.319909	1.639386	1.161567	99
Es	-0.445655	-0.776890	-2.761322	99
Es	0.880831	-0.612335	1.303640	99
Es	1.526314	2.925867	0.908009	99
Es	-0.503340	-1.114040	-2.731395	99
Es	-1.258369	-0.228879	-1.257579	99
Es	0.894947	1.143958	0.907033	99
Es	-0.068965	-0.470228	-0.979736	99
Es	-1.448105	0.134445	1.255154	99
Es	-1.210408	-1.018352	1.562112	99
Es	-0.580780	-0.632509	-2.903353	99
Es	-0.264579	-0.244400	1.233346	99
Es	-0.399845	0.590441	-1.564121	99
44
Properties=species:S:1:pos:R:3:Z:I:1 energy=-307.93316327615685 field_type=dipole dipole="0.000000 0.000000 0.000000" charge=0
C	-0.955992	-0.308386	1.583064	6
C	0.413018	-0.216956	0.907034	6
C	0.409487	-0.812476	-0.509886	6
C	-0.554782	-0.147506	-1.489096	6
O	-0.445933	-0.777056	-2.761496	8
C	0.895037	1.144214	0.907034	6
C	1.292318	2.266114	0.907034	6
H	-0.888442	-0.001586	2.632704	1
H	-1.334422	-1.335066	1.558994	1
H	-1.695132	0.342464	1.104694	1
H	1.106807	-0.824686	1.503244	1
H	0.166588	-1.882306	-0.454006	1
H	1.424048	-0.771636	-0.930426	1
H	-0.341712	0.917814	-1.616786	1
H	-1.591812	-0.255346	-1.160256	1
H	0.453038	-0.608596	-3.092536	1
H	1.647887	3.270994	0.910684	1
Es	0.894947	1.143958	0.907034	99
Es	0.798302	1.823434	0.746622	99
Es	-0.445690	-0.776923	-2.761327	99
Es	0.413017	-0.216850	0.907009	99
Es	0.409481	-0.812436	-0.509842	99
Es	-1.210466	-1.018579	1.562121	99
Es	-0.903598	-0.099742	2.283922	99
Es	-1.447855	0.134534	1.255236	99
Es	-0.502967	-1.114855	-2.730950	99
Es	-0.554728	-0.147637	-1.489270	99
Es	0.880492	-0.612255	1.303582	99
Es	-0.955945	-0.308387	1.583038	99
Es	0.662692	0.499175	0.903283	99
Es	1.292414	2.266380	0.907037	99
Es	-1.258105	-0.229132	-1.257516	99
Es	-0.469900	-0.517014	-2.300160	99
Es	1.526250	2.925955	0.908263	99
Es	-0.264520	-0.244405	1.233430	99
Es	-0.578814	-0.635000	-2.901588	99
Es	0.233714	-1.545952	-0.461866	99
Es	-0.068873	-0.470113	-0.979827	99
Es	0.405107	-0.482565	0.203312	99
Es	1.114034	1.712235	1.247317	99
Es	1.099321	-0.769268	-0.798846	99
Es	-0.399862	0.590647	-1.564019	99
Es	1.380311	1.618209	0.722533	99
Es	0.034553	-0.649584	-2.928195	99
44
Properties=species:S:1:pos:R:3:Z:I:1 energy=-307.93316327615685 field_type=dipole dipole="0.000000 0.000000 0.000000" charge=0
C	-0.955992	-0.308386	1.583064	6
C	0.413018	-0.216956	0.907034	6
C	0.409487	-0.812476	-0.509886	6
C	-0.554782	-0.147506	-1.489096	6
O	-0.445933	-0.777056	-2.761496	8
C	0.895037	1.144214	0.907034	6
C	1.292318	2.266114	0.907034	6
H	-0.888442	-0.001586	2.632704	1
H	-1.334422	-1.335066	1.558994	1
H	-1.695132	0.342464	1.104694	1
H	1.106807	-0.824686	1.503244	1
H	0.166588	-1.882306	-0.454006	1
H	1.424048	-0.771636	-0.930426	1
H	-0.341712	0.917814	-1.616786	1
H	-1.591812	-0.255346	-1.160256	1
H	0.453038	-0.608596	-3.092536	1
H	1.647887	3.270994	0.910684	1
Es	-1.258093	-0.229101	-1.257551	99
Es	1.292411	2.266382	0.907031	99
Es	-1.447830	0.134727	1.255257	99
Es	-0.955946	-0.308387	1.583039	99
Es	-0.903737	-0.099918	2.283473	99
Es	-0.504144	-1.115185	-2.731842	99
Es	1.526062	2.926064	0.908110	99
Es	0.662605	0.499276	0.902960	99
Es	-0.399693	0.590673	-1.563999	99
Es	0.894942	1.143957	0.907031	99
Es	0.405031	-0.482425	0.203367	99
Es	0.409481	-0.812436	-0.509840	99
Es	-1.210398	-1.018736	1.562176	99
Es	-0.577099	-0.635595	-2.898977	99
Es	0.413015	-0.216850	0.907008	99
Es	0.033602	-0.648401	-2.929257	99
Es	-0.446010	-0.776716	-2.761699	99
Es	1.396783	1.612110	1.057626	99
Es	-0.264285	-0.244240	1.233632	99
Es	-0.068932	-0.470225	-0.979883	99
Es	1.099157	-0.769197	-0.798785	99
Es	-0.469257	-0.517427	-2.300354	99
Es	0.819901	1.816024	1.092045	99
Es	-0.554726	-0.147638	-1.489270	99
Es	0.880362	-0.612455	1.303525	99
Es	0.233785	-1.546076	-0.461789	99
Es	1.076326	1.725626	0.567298	99
44
Properties=species:S:1:pos:R:3:Z:I:1 energy=-307.93316327615685 field_type=dipole dipole="0.000000 0.000000 0.000000" charge=0
C	-0.955992	-0.308386	1.583064	6
C	0.413018	-0.216956	0.907034	6
C	0.409487	-0.812476	-0.509886	6
C	-0.554782	-0.147506	-1.489096	6
O	-0.445933	-0.777056	-2.761496	8
C	0.895037	1.144214	0.907034	6
C	1.292318	2.266114	0.907034	6
H	-0.888442	-0.001586	2.632704	1
H	-1.334422	-1.335066	1.558994	1
H	-1.695132	0.342464	1.104694	1
H	1.106807	-0.824686	1.503244	1
H	0.166588	-1.882306	-0.454006	1
H	1.424048	-0.771636	-0.930426	1
H	-0.341712	0.917814	-1.616786	1
H	-1.591812	-0.255346	-1.160256	1
H	0.453038	-0.608596	-3.092536	1
H	1.647887	3.270994	0.910684	1
Es	0.839497	1.808802	0.682386	99
Es	1.039629	1.738650	1.239491	99
Es	-0.445630	-0.776870	-2.761357	99
Es	0.405139	-0.482259	0.203432	99
Es	0.880218	-0.612439	1.303362	99
Es	-0.068841	-0.470191	-0.979864	99
Es	0.409481	-0.812435	-0.509839	99
Es	0.413016	-0.216850	0.907009	99
Es	0.894947	1.143956	0.907032	99
Es	-1.257859	-0.229363	-1.257498	99
Es	-0.470190	-0.517088	-2.301331	99
Es	1.098949	-0.769017	-0.798776	99
Es	-1.447670	0.134717	1.255605	99
Es	-0.554726	-0.147637	-1.489271	99
Es	-0.399748	0.590861	-1.563870	99
Es	-0.903562	-0.099927	2.283200	99
Es	0.662833	0.499351	0.903329	99
Es	-0.574787	-0.637694	-2.896546	99
Es	-0.955945	-0.308388	1.583039	99
Es	0.233672	-1.546256	-0.461885	99
Es	1.413669	1.606366	0.794527	99
Es	1.526014	2.926126	0.908382	99
Es	0.032894	-0.646170	-2.930033	99
Es	-0.264415	-0.244363	1.233353	99
Es	-1.210531	-1.018873	1.562221	99
Es	1.292403	2.266385	0.907037	99
Es	-0.505144	-1.115562	-2.732803	99
44
Properties=species:S:1:pos:R:3:Z:I:1 energy=-307.93316327615685 field_type=dipole dipole="0.000000 0.000000 0.000000" charge=0
C	-0.955992	-0.308386	1.583064	6
C	0.413018	-0.216956	0.907034	6
C	0.409487	-0.812476	-0.509886	6
C	-0.554782	-0.147506	-1.489096	6
O	-0.445933	-0.777056	-2.761496	8
C	0.895037	1.144214	0.907034	6
C	1.292318	2.266114	0.907034	6
H	-0.888442	-0.001586	2.632704	1
H	-1.334422	-1.335066	1.558994	1
H	-1.695132	0.342464	1.104694	1
H	1.106807	-0.824686	1.503244	1
H	0.166588	-1.882306	-0.454006	1
H	1.424048	-0.771636	-0.930426	1
H	-0.341712	0.917814	-1.616786	1
H	-1.591812	-0.255346	-1.160256	1
H	0.453038	-0.608596	-3.092536	1
H	1.647887	3.270994	0.910684	1
Es	0.032813	-0.646372	-2.930152	99
Es	1.048847	1.735342	0.570723	99
Es	0.894942	1.143957	0.907037	99
Es	1.292411	2.266382	0.907029	99
Es	0.233742	-1.546364	-0.461874	99
Es	-1.210342	-1.019040	1.562316	99
Es	0.409481	-0.812434	-0.509837	99
Es	1.526016	2.926148	0.908174	99
Es	-0.507152	-1.115465	-2.734141	99
Es	-0.470032	-0.516984	-2.301381	99
Es	-0.399788	0.590927	-1.563883	99
Es	0.880182	-0.612675	1.303385	99
Es	-0.068959	-0.470085	-0.979746	99
Es	-1.257707	-0.229317	-1.257603	99
Es	0.413017	-0.216850	0.907009	99
Es	-0.264320	-0.244281	1.233622	99
Es	-0.445706	-0.776942	-2.761360	99
Es	-0.903605	-0.100036	2.282855	99
Es	1.408084	1.607999	1.033291	99
Es	0.405124	-0.482335	0.203564	99
Es	-0.955946	-0.308387	1.583039	99
Es	-0.572862	-0.637629	-2.894983	99
Es	-0.554723	-0.147642	-1.489274	99
Es	0.662605	0.499496	0.903003	99
Es	-1.447707	0.134993	1.255435	99
Es	0.836110	1.810399	1.112777	99
Es	1.098789	-0.768971	-0.798693	99
44
Properties=species:S:1:pos:R:3:Z:I:1 energy=-307.93316327615685 field_type=dipole dipole="0.000000 0.000000 0.000000" charge=0
C	-0.955992	-0.308386	1.583064	6
C	0.413018	-0.216956	0.907034	6
C	0.409487	-0.812476	-0.509886	6
C	-0.554782	-0.147506	-1.489096	6
O	-0.445933	-0.777056	-2.761496	8
C	0.895037	1.144214	0.907034	6
C	1.292318	2.266114	0.907034	6
H	-0.888442	-0.001586	2.632704	1
H	-1.334422	-1.335066	1.558994	1
H	-1.695132	0.342464	1.104694	1
H	1.106807	-0.824686	1.503244	1
H	0.166588	-1.882306	-0.454006	1
H	1.424048	-0.771636	-0.930426	1
H	-0.341712	0.917814	-1.616786	1
H	-1.591812	-0.255346	-1.160256	1
H	0.453038	-0.608596	-3.092536	1
H	1.647887	3.270994	0.910684	1
Es	0.413016	-0.216851	0.907010	99
Es	-0.445659	-0.776863	-2.761321	99
Es	-1.210530	-1.019096	1.562304	99
Es	0.972636	1.762030	0.588306	99
Es	-0.571391	-0.639720	-2.894099	99
Es	-0.506995	-1.115808	-2.733468	99
Es	1.525894	2.926215	0.908263	99
Es	0.892648	1.790628	1.168595	99
Es	-0.471420	-0.515551	-2.302912	99
Es	-0.554725	-0.147639	-1.489272	99
Es	0.894946	1.143957	0.907032	99
Es	-0.955944	-0.308387	1.583039	99
Es	0.409481	-0.812435	-0.509838	99
Es	1.292419	2.266380	0.907042	99
Es	-1.257740	-0.229495	-1.257535	99
Es	-0.264297	-0.244264	1.233511	99
Es	0.662755	0.499520	0.903137	99
Es	1.098721	-0.768886	-0.798645	99
Es	0.405147	-0.482134	0.203692	99
Es	-0.399645	0.590977	-1.563792	99
Es	-0.903582	-0.100288	2.282445	99
Es	-0.068797	-0.470135	-0.979857	99
Es	-1.447596	0.135194	1.255750	99
Es	0.880006	-0.612762	1.303324	99
Es	1.427809	1.601067	0.959746	99
Es	0.233596	-1.546437	-0.462003	99
Es	0.032560	-0.645388	-2.930119	99
44
Properties=species:S:1:pos:R:3:Z:I:1 energy=-307.93316327615685 field_type=dipole dipole="0.000000 0.000000 0.000000" charge=0
C	-0.955992	-0.308386	1.583064	6
C	0.413018	-0.216956	0.907034	6
C	0.409487	-0.812476	-0.509886	6
C	-0.554782	-0.147506	-1.489096	6
O	-0.445933	-0.777056	-2.761496	8
C	0.895037	1.144214	0.907034	6
C	1.292318	2.266114	0.907034	6
H	-0.888442	-0.001586	2.632704	1
H	-1.334422	-1.335066	1.558994	1
H	-1.695132	0.342464	1.104694	1
H	1.106807	-0.824686	1.503244	1
H	0.166588	-1.882306	-0.454006	1
H	1.424048	-0.771636	-0.930426	1
H	-0.341712	0.917814	-1.616786	1
H	-1.591812	-0.255346	-1.160256	1
H	0.453038	-0.608596	-3.092536	1
H	1.647887	3.270994	0.910684	1
Es	1.526431	2.926072	0.908421	99
Es	-0.903615	-0.100246	2.282116	99
Es	0.413017	-0.216851	0.907010	99
Es	0.405091	-0.481994	0.203645	99
Es	-0.554724	-0.147640	-1.489275	99
Es	0.776814	1.830876	0.800838	99
Es	-0.445697	-0.776937	-2.761339	99
Es	1.292415	2.266381	0.907035	99
Es	0.031947	-0.644787	-2.930174	99
Es	-0.570057	-0.641287	-2.893260	99
Es	-0.472509	-0.514120	-2.303992	99
Es	0.233659	-1.546597	-0.461834	99
Es	-1.257646	-0.229641	-1.257458	99
Es	0.663055	0.499535	0.903110	99
Es	0.409481	-0.812436	-0.509840	99
Es	-0.955945	-0.308387	1.583039	99
Es	-0.068938	-0.470049	-0.980001	99
Es	0.879959	-0.612910	1.303172	99
Es	-0.264186	-0.244290	1.233647	99
Es	-1.447413	0.135220	1.255768	99
Es	0.894948	1.143955	0.907029	99
Es	1.098515	-0.768762	-0.798619	99
Es	-0.506622	-1.116205	-2.733054	99
Es	-1.210551	-1.019251	1.562398	99
Es	1.340611	1.632532	0.676490	99
Es	-0.399543	0.591058	-1.563724	99
Es	1.174815	1.690590	1.239187	99
44
Properties=species:S:1:pos:R:3:Z:I:1 energy=-307.93316327615685 field_type=dipole dipole="0.000000 0.000000 0.000000" charge=0
C	-0.955992	-0.308386	1.583064	6
C	0.413018	-0.216956	0.907034	6
C	0.409487	-0.812476	-0.509886	6
C	-0.554782	-0.147506	-1.489096	6
O	-0.445933	-0.777056	-2.761496	8
C	0.895037	1.144214	0.907034	6
C	1.292318	2.266114	0.907034	6
H	-0.888442	-0.001586	2.632704	1
H	-1.334422	-1.335066	1.558994	1
H	-1.695132	0.342464	1.104694	1
H	1.106807	-0.824686	1.503244	1
H	0.166588	-1.882306	-0.454006	1
H	1.424048	-0.771636	-0.930426	1
H	-0.341712	0.917814	-1.616786	1
H	-1.591812	-0.255346	-1.160256	1
H	0.453038	-0.608596	-3.092536	1
H	1.647887	3.270994	0.910684	1
Es	0.030957	-0.642528	-2.931524	99
Es	0.894947	1.143956	0.907032	99
Es	-0.955944	-0.308387	1.583038	99
Es	-0.903552	-0.100302	2.282052	99
Es	1.292414	2.266382	0.907028	99
Es	-1.447399	0.135345	1.255775	99
Es	0.879824	-0.612945	1.303303	99
Es	-1.257452	-0.229660	-1.257489	99
Es	0.812874	1.818014	0.717842	99
Es	0.233562	-1.546641	-0.461862	99
Es	1.098298	-0.768868	-0.798586	99
Es	-0.507929	-1.116338	-2.734344	99
Es	0.405127	-0.482003	0.203605	99
Es	0.413017	-0.216850	0.907009	99
Es	0.409481	-0.812435	-0.509839	99
Es	-0.445616	-0.776904	-2.761346	99
Es	-0.472311	-0.515058	-2.304307	99
Es	1.526167	2.926178	0.908452	99
Es	-0.264062	-0.244188	1.233637	99
Es	-0.068804	-0.470072	-0.980001	99
Es	0.662891	0.499644	0.903240	99
Es	-0.554726	-0.147637	-1.489271	99
Es	-0.568091	-0.642541	-2.890337	99
Es	-1.210477	-1.019324	1.562342	99
Es	1.084645	1.722737	1.244097	99
Es	1.395099	1.613114	0.754452	99
Es	-0.399626	0.591141	-1.563665	99
44
Properties=species:S:1:pos:R:3:Z:I:1 energy=-307.93316327615685 field_type=dipole dipole="0.000000 0.000000 0.000000" charge=0
C	-0.955992	-0.308386	1.583064	6
C	0.413018	-0.216956	0.907034	6
C	0.409487	-0.812476	-0.509886	6
C	-0.554782	-0.147506	-1.489096	6
O	-0.445933	-0.777056	-2.761496	8
C	0.895037	1.144214	0.907034	6
C	1.292318	2.266114	0.907034	6
H	-0.888442	-0.001586	2.632704	1
H	-1.334422	-1.335066	1.558994	1
H	-1.695132	0.342464	1.104694	1
H	1.106807	-0.824686	1.503244	1
H	0.166588	-1.882306	-0.454006	1
H	1.424048	-0.771636	-0.930426	1
H	-0.341712	0.917814	-1.616786	1
H	-1.591812	-0.255346	-1.160256	1
H	0.453038	-0.608596	-3.092536	1
H	1.647887	3.270994	0.910684	1
Es	-0.445694	-0.776634	-2.761470	99
Es	-1.447217	0.135331	1.255826	99
Es	-0.567556	-0.644033	-2.890738	99
Es	1.392318	1.614199	0.751647	99
Es	-0.554724	-0.147639	-1.489275	99
Es	1.088911	1.721173	1.244974	99
Es	-0.903649	-0.100291	2.281751	99
Es	-0.264022	-0.244227	1.233706	99
Es	0.662859	0.499709	0.903183	99
Es	0.413017	-0.216850	0.907010	99
Es	0.233583	-1.546751	-0.461940	99
Es	0.409482	-0.812435	-0.509839	99
Es	0.894943	1.143957	0.907031	99
Es	0.811293	1.818533	0.719745	99
Es	1.098167	-0.768721	-0.798550	99
Es	-1.210597	-1.019386	1.562443	99
Es	-0.955946	-0.308387	1.583040	99
Es	-0.399559	0.591195	-1.563638	99
Es	0.031041	-0.643043	-2.930974	99
Es	-0.507232	-1.116525	-2.732978	99
Es	1.526299	2.926146	0.908445	99
Es	0.879766	-0.612927	1.303253	99
Es	-0.473522	-0.513195	-2.305622	99
Es	-0.068801	-0.470025	-0.980076	99
Es	0.405131	-0.481916	0.203738	99
Es	1.292416	2.266381	0.907029	99
Es	-1.257394	-0.229803	-1.257389	99
44
Properties=species:S:1:pos:R:3:Z:I:1 energy=-307.93316327615685 field_type=dipole dipole="0.000000 0.000000 0.000000" charge=0
C	-0.955992	-0.308386	1.583064	6
C	0.413018	-0.216956	0.907034	6
C	0.409487	-0.812476	-0.509886	6
C	-0.554782	-0.147506	-1.489096	6
O	-0.445933	-0.777056	-2.761496	8
C	0.895037	1.144214	0.907034	6
C	1.292318	2.266114	0.907034	6
H	-0.888442	-0.001586	2.632704	1
H	-1.334422	-1.335066	1.558994	1
H	-1.695132	0.342464	1.104694	1
H	1.106807	-0.824686	1.503244	1
H	0.166588	-1.882306	-0.454006	1
H	1.424048	-0.771636	-0.930426	1
H	-0.341712	0.917814	-1.616786	1
H	-1.591812	-0.255346	-1.160256	1
H	0.453038	-0.608596	-3.092536	1
H	1.647887	3.270994	0.910684	1
Es	1.098120	-0.768689	-0.798691	99
Es	-0.554724	-0.147639	-1.489274	99
Es	0.413016	-0.216850	0.907009	99
Es	1.525830	2.926330	0.908425	99
Es	-0.903667	-0.100604	2.281580	99
Es	-0.955946	-0.308387	1.583039	99
Es	-0.445701	-0.776944	-2.761355	99
Es	1.292411	2.266384	0.907032	99
Es	-1.257427	-0.229875	-1.257313	99
Es	-0.508223	-1.116577	-2.734803	99
Es	1.432081	1.599554	0.904378	99
Es	0.918353	1.780957	0.613650	99
Es	-0.565864	-0.644664	-2.887955	99
Es	0.879762	-0.612904	1.303169	99
Es	-0.263958	-0.244091	1.233825	99
Es	0.409481	-0.812436	-0.509839	99
Es	0.030090	-0.640560	-2.932427	99
Es	0.405120	-0.481803	0.203873	99
Es	-0.399586	0.591195	-1.563685	99
Es	-0.473255	-0.514676	-2.305198	99
Es	0.894949	1.143956	0.907027	99
Es	-1.447311	0.135495	1.256099	99
Es	-1.210556	-1.019416	1.562264	99
Es	0.233540	-1.546752	-0.462085	99
Es	0.942641	1.773187	1.198405	99
Es	0.662785	0.499737	0.903171	99
Es	-0.068647	-0.470096	-0.979991	99
44
Properties=species:S:1:pos:R:3:Z:I:1 energy=-307.93316327615685 field_type=dipole dipole="0.000000 0.000000 0.000000" charge=0
C	-0.955992	-0.308386	1.583064	6
C	0.413018	-0.216956	0.907034	6
C	0.409487	-0.812476	-0.509886	6
C	-0.554782	-0.147506	-1.489096	6
O	-0.445933	-0.777056	-2.761496	8
C	0.895037	1.144214	0.907034	6
C	1.292318	2.266114	0.907034	6
H	-0.888442	-0.001586	2.632704	1
H	-1.334422	-1.335066	1.558994	1
H	-1.695132	0.342464	1.104694	1
H	1.106807	-0.824686	1.503244	1
H	0.166588	-1.882306	-0.454006	1
H	1.424048	-0.771636	-0.930426	1
H	-0.341712	0.917814	-1.616786	1
H	-1.591812	-0.255346	-1.160256	1
H	0.453038	-0.608596	-3.092536	1
H	1.647887	3.270994	0.910684	1
Es	0.413017	-0.216850	0.907009	99
Es	1.427966	1.600956	0.957383	99
Es	-0.068691	-0.470002	-0.980277	99
Es	0.965831	1.764269	0.589637	99
Es	-0.903725	-0.100713	2.281223	99