44
Properties=species:S:1:pos:R:3:Z:I:1 energy=-307.9360050871883 field_type=dipole dipole="0.000000 0.000000 0.000000" charge=0
C	-0.359054	-1.833551	-1.229914	6
C	-0.711604	-0.992391	-0.009214	6
C	-0.156183	0.443409	-0.076354	6
C	-0.693014	1.262039	1.111766	6
O	-0.416553	2.653979	0.953916	8
C	1.287816	0.443409	-0.076354	6
C	2.477977	0.443409	-0.076354	6
H	-0.844404	-2.812931	-1.162964	1
H	0.719887	-2.004271	-1.304484	1
H	-0.697074	-1.350651	-2.152034	1
H	-0.346744	-1.501201	0.891796	1
H	-1.804614	-0.952481	0.069556	1
H	-0.506984	0.918149	-1.001994	1
H	-0.263274	0.932559	2.064796	1
H	-1.781673	1.164359	1.183626	1
H	0.551436	2.747829	0.895696	1
H	3.544056	0.438339	-0.081484	1
Es	1.287563	0.443411	-0.076348	99
Es	-0.592026	-1.498096	-1.856561	99
Es	-1.459173	-0.953816	0.044140	99
Es	-0.404947	-0.263475	-0.042610	99
Es	-0.359072	-1.833531	-1.229883	99
Es	-0.532010	2.734892	0.679756	99
Es	0.598029	0.443686	-0.074560	99
Es	-0.396813	0.840554	0.509266	99
Es	1.897801	0.467927	-0.429209	99
Es	-1.436107	1.187536	1.151635	99
Es	3.173973	0.440629	-0.078860	99
Es	-0.392214	1.020619	1.760362	99
Es	-0.692932	1.262240	1.111683	99
Es	0.104226	2.682781	0.923250	99
Es	1.891644	0.749476	0.125897	99
Es	-0.495136	2.119208	1.010475	99
Es	0.372206	-1.945829	-1.278295	99
Es	-0.711570	-0.992346	-0.009247	99
Es	-0.500149	2.786203	1.215688	99
Es	-0.692977	-2.499256	-1.180704	99
Es	-0.156069	0.443381	-0.076316	99
Es	1.895232	0.124950	0.088485	99
Es	-0.416316	2.653722	0.953951	99
Es	2.478243	0.443396	-0.076351	99
Es	-0.378485	0.759416	-0.696721	99
Es	-0.527481	-1.404353	-0.621471	99
Es	-0.459169	-1.332654	0.608091	99
44
Properties=species:S:1:pos:R:3:Z:I:1 energy=-307.9360050871883 field_type=dipole dipole="0.000000 0.000000 0.000000" charge=0
C	-0.359054	-1.833551	-1.229914	6
C	-0.711604	-0.992391	-0.009214	6
C	-0.156183	0.443409	-0.076354	6
C	-0.693014	1.262039	1.111766	6
O	-0.416553	2.653979	0.953916	8
C	1.287816	0.443409	-0.076354	6
C	2.477977	0.443409	-0.076354	6
H	-0.844404	-2.812931	-1.162964	1
H	0.719887	-2.004271	-1.304484	1
H	-0.697074	-1.350651	-2.152034	1
H	-0.346744	-1.501201	0.891796	1
H	-1.804614	-0.952481	0.069556	1
H	-0.506984	0.918149	-1.001994	1
H	-0.263274	0.932559	2.064796	1
H	-1.781673	1.164359	1.183626	1
H	0.551436	2.747829	0.895696	1
H	3.544056	0.438339	-0.081484	1
Es	-0.502420	2.782188	1.207689	99
Es	3.175818	0.441179	-0.079134	99
Es	-0.527521	-1.404193	-0.621626	99
Es	-0.416281	2.653693	0.953991	99
Es	-1.463641	-0.954275	0.044446	99
Es	-0.359073	-1.833530	-1.229884	99
Es	0.111576	2.685390	0.925751	99
Es	-0.396725	0.840480	0.508688	99
Es	1.892569	0.794715	0.006926	99
Es	-0.380057	0.758344	-0.694380	99
Es	-0.457519	-1.332069	0.605361	99
Es	-1.439252	1.186438	1.152050	99
Es	-0.593463	-1.498634	-1.853554	99
Es	-0.711567	-0.992346	-0.009244	99
Es	2.478257	0.443421	-0.076344	99
Es	-0.533920	2.732631	0.682958	99
Es	1.896280	0.201681	0.188252	99
Es	1.287545	0.443410	-0.076354	99
Es	-0.497753	2.121998	1.012801	99
Es	-0.692935	1.262238	1.111684	99
Es	-0.390866	1.021370	1.758081	99
Es	0.600809	0.443717	-0.074345	99
Es	0.376902	-1.945720	-1.278611	99
Es	-0.405007	-0.263055	-0.042705	99
Es	-0.156070	0.443383	-0.076314	99
Es	1.895608	0.345627	-0.410107	99
Es	-0.695024	-2.497410	-1.180530	99
44
Properties=species:S:1:pos:R:3:Z:I:1 energy=-307.9360050871883 field_type=dipole dipole="0.000000 0.000000 0.000000" charge=0
C	-0.359054	-1.833551	-1.229914	6
C	-0.711604	-0.992391	-0.009214	6
C	-0.156183	0.443409	-0.076354	6
C	-0.693014	1.262039	1.111766	6
O	-0.416553	2.653979	0.953916	8
C	1.287816	0.443409	-0.076354	6
C	2.477977	0.443409	-0.076354	6
H	-0.844404	-2.812931	-1.162964	1
H	0.719887	-2.004271	-1.304484	1
H	-0.697074	-1.350651	-2.152034	1
H	-0.346744	-1.501201	0.891796	1
H	-1.804614	-0.952481	0.069556	1
H	-0.506984	0.918149	-1.001994	1
H	-0.263274	0.932559	2.064796	1
H	-1.781673	1.164359	1.183626	1
H	0.551436	2.747829	0.895696	1
H	3.544056	0.438339	-0.081484	1
Es	-0.495399	2.772841	1.205824	99
Es	-1.465736	-0.954465	0.044500	99
Es	-0.380602	0.757798	-0.692668	99
Es	-0.541961	2.739471	0.687694	99
Es	-0.396843	0.840262	0.508404	99
Es	1.892840	0.796066	-0.014199	99
Es	-0.156069	0.443382	-0.076317	99
Es	-0.594032	-1.499016	-1.851412	99
Es	-0.404914	-0.262790	-0.043303	99
Es	0.114475	2.685634	0.923958	99
Es	-0.456956	-1.331438	0.603735	99
Es	2.478251	0.443426	-0.076347	99
Es	-0.499371	2.123419	1.011853	99
Es	-0.359071	-1.833532	-1.229884	99
Es	1.895246	0.327488	-0.400824	99
Es	-0.696360	-2.496246	-1.180461	99
Es	-0.692935	1.262238	1.111683	99
Es	-0.390183	1.021866	1.756742	99
Es	-0.416294	2.653709	0.953943	99
Es	-0.527336	-1.404408	-0.621729	99
Es	0.379184	-1.945526	-1.278895	99
Es	1.896290	0.218285	0.200251	99
Es	3.176565	0.441397	-0.079291	99
Es	1.287548	0.443414	-0.076347	99
Es	0.602243	0.443737	-0.074472	99
Es	-0.711572	-0.992345	-0.009246	99
Es	-1.440739	1.186003	1.152352	99
44
Properties=species:S:1:pos:R:3:Z:I:1 energy=-307.9360050871883 field_type=dipole dipole="0.000000 0.000000 0.000000" charge=0
C	-0.359054	-1.833551	-1.229914	6
C	-0.711604	-0.992391	-0.009214	6
C	-0.156183	0.443409	-0.076354	6
C	-0.693014	1.262039	1.111766	6
O	-0.416553	2.653979	0.953916	8
C	1.287816	0.443409	-0.076354	6
C	2.477977	0.443409	-0.076354	6
H	-0.844404	-2.812931	-1.162964	1
H	0.719887	-2.004271	-1.304484	1
H	-0.697074	-1.350651	-2.152034	1
H	-0.346744	-1.501201	0.891796	1
H	-1.804614	-0.952481	0.069556	1
H	-0.506984	0.918149	-1.001994	1
H	-0.263274	0.932559	2.064796	1
H	-1.781673	1.164359	1.183626	1
H	0.551436	2.747829	0.895696	1
H	3.544056	0.438339	-0.081484	1
Es	-0.359071	-1.833531	-1.229884	99
Es	-0.550531	2.746559	0.691964	99
Es	-0.527269	-1.404291	-0.622042	99
Es	1.287551	0.443421	-0.076352	99
Es	0.380539	-1.945277	-1.279041	99
Es	-1.466997	-0.954755	0.044707	99
Es	-0.697404	-2.495454	-1.180454	99
Es	-0.156071	0.443380	-0.076317	99
Es	-1.441596	1.185684	1.152467	99
Es	-0.594122	-1.499443	-1.849752	99
Es	1.891887	0.766944	0.072551	99
Es	-0.500044	2.124782	1.011987	99
Es	-0.711571	-0.992345	-0.009248	99
Es	1.895715	0.158739	0.132550	99
Es	-0.389990	1.022334	1.755803	99
Es	1.896801	0.415839	-0.420041	99
Es	0.603156	0.443855	-0.074496	99
Es	-0.416290	2.653665	0.953812	99
Es	-0.487648	2.763808	1.203302	99
Es	2.478248	0.443416	-0.076333	99
Es	3.176914	0.441609	-0.079283	99
Es	-0.404861	-0.262415	-0.043506	99
Es	0.116105	2.685662	0.922263	99
Es	-0.380841	0.757061	-0.691422	99
Es	-0.692933	1.262241	1.111682	99
Es	-0.396892	0.840192	0.508240	99
Es	-0.456513	-1.331007	0.602387	99
44
Properties=species:S:1:pos:R:3:Z:I:1 energy=-307.9360050871883 field_type=dipole dipole="0.000000 0.000000 0.000000" charge=0
C	-0.359054	-1.833551	-1.229914	6
C	-0.711604	-0.992391	-0.009214	6
C	-0.156183	0.443409	-0.076354	6
C	-0.693014	1.262039	1.111766	6
O	-0.416553	2.653979	0.953916	8
C	1.287816	0.443409	-0.076354	6
C	2.477977	0.443409	-0.076354	6
H	-0.844404	-2.812931	-1.162964	1
H	0.719887	-2.004271	-1.304484	1
H	-0.697074	-1.350651	-2.152034	1
H	-0.346744	-1.501201	0.891796	1
H	-1.804614	-0.952481	0.069556	1
H	-0.506984	0.918149	-1.001994	1
H	-0.263274	0.932559	2.064796	1
H	-1.781673	1.164359	1.183626	1
H	0.551436	2.747829	0.895696	1
H	3.544056	0.438339	-0.081484	1
Es	-0.593955	-1.499800	-1.848216	99
Es	-0.557730	2.752503	0.694787	99
Es	-0.397008	0.840312	0.507964	99
Es	0.381395	-1.944948	-1.279281	99
Es	-0.359072	-1.833530	-1.229882	99
Es	-0.416267	2.653696	0.954029	99
Es	-0.156069	0.443382	-0.076316	99
Es	1.892500	0.113483	-0.158933	99
Es	-0.389793	1.022661	1.754984	99
Es	-0.698336	-2.494985	-1.180615	99
Es	-0.482150	2.755745	1.201647	99
Es	-1.442118	1.185553	1.152834	99
Es	-1.467738	-0.954973	0.044871	99
Es	3.177132	0.441205	-0.079512	99
Es	1.287547	0.443417	-0.076349	99
Es	-0.380828	0.756429	-0.690308	99
Es	1.898227	0.691331	-0.320083	99
Es	0.603695	0.444138	-0.074605	99
Es	-0.692935	1.262240	1.111683	99
Es	-0.404687	-0.262128	-0.043620	99
Es	1.893670	0.536828	0.264068	99
Es	-0.499316	2.126463	1.010870	99
Es	2.478259	0.443420	-0.076343	99
Es	0.117103	2.685581	0.922105	99
Es	-0.711572	-0.992346	-0.009248	99
Es	-0.527283	-1.404215	-0.622249	99
Es	-0.456402	-1.330791	0.601261	99
44
Properties=species:S:1:pos:R:3:Z:I:1 energy=-307.9360050871883 field_type=dipole dipole="0.000000 0.000000 0.000000" charge=0
C	-0.359054	-1.833551	-1.229914	6
C	-0.711604	-0.992391	-0.009214	6
C	-0.156183	0.443409	-0.076354	6
C	-0.693014	1.262039	1.111766	6
O	-0.416553	2.653979	0.953916	8
C	1.287816	0.443409	-0.076354	6
C	2.477977	0.443409	-0.076354	6
H	-0.844404	-2.812931	-1.162964	1
H	0.719887	-2.004271	-1.304484	1
H	-0.697074	-1.350651	-2.152034	1
H	-0.346744	-1.501201	0.891796	1
H	-1.804614	-0.952481	0.069556	1
H	-0.506984	0.918149	-1.001994	1
H	-0.263274	0.932559	2.064796	1
H	-1.781673	1.164359	1.183626	1
H	0.551436	2.747829	0.895696	1
H	3.544056	0.438339	-0.081484	1
Es	1.895449	0.138241	0.088200	99
Es	1.891636	0.739936	0.117835	99
Es	-0.699090	-2.494600	-1.180625	99
Es	-1.468310	-0.955084	0.045170	99
Es	1.287546	0.443414	-0.076360	99
Es	0.604135	0.443729	-0.074616	99
Es	-0.397330	0.840322	0.508110	99
Es	-1.442521	1.185492	1.152931	99
Es	-0.380637	0.755727	-0.689363	99
Es	-0.569813	2.764823	0.703237	99
Es	-0.500169	2.127284	1.010121	99
Es	2.478260	0.443406	-0.076351	99
Es	-0.593806	-1.500195	-1.846940	99
Es	-0.456398	-1.330346	0.600246	99
Es	-0.389776	1.023114	1.754486	99
Es	-0.470022	2.742567	1.196528	99
Es	1.897306	0.463401	-0.421012	99
Es	-0.692937	1.262235	1.111684	99
Es	-0.156067	0.443381	-0.076316	99
Es	-0.527040	-1.404229	-0.622655	99
Es	-0.711572	-0.992346	-0.009248	99
Es	3.177268	0.441802	-0.079711	99
Es	0.117827	2.684992	0.919725	99
Es	-0.359072	-1.833532	-1.229888	99
Es	-0.416282	2.653679	0.953906	99
Es	0.381997	-1.944635	-1.279576	99
Es	-0.404314	-0.261908	-0.043976	99
44
Properties=species:S:1:pos:R:3:Z:I:1 energy=-307.9360050871883 field_type=dipole dipole="0.000000 0.000000 0.000000" charge=0
C	-0.359054	-1.833551	-1.229914	6
C	-0.711604	-0.992391	-0.009214	6
C	-0.156183	0.443409	-0.076354	6
C	-0.693014	1.262039	1.111766	6
O	-0.416553	2.653979	0.953916	8
C	1.287816	0.443409	-0.076354	6
C	2.477977	0.443409	-0.076354	6
H	-0.844404	-2.812931	-1.162964	1
H	0.719887	-2.004271	-1.304484	1
H	-0.697074	-1.350651	-2.152034	1
H	-0.346744	-1.501201	0.891796	1
H	-1.804614	-0.952481	0.069556	1
H	-0.506984	0.918149	-1.001994	1
H	-0.263274	0.932559	2.064796	1
H	-1.781673	1.164359	1.183626	1
H	0.551436	2.747829	0.895696	1
H	3.544056	0.438339	-0.081484	1
Es	-0.359071	-1.833530	-1.229883	99
Es	-0.456754	-1.329865	0.599218	99
Es	-0.416227	2.653678	0.954123	99
Es	2.478258	0.443401	-0.076348	99
Es	-0.404218	-0.261779	-0.044149	99
Es	-0.156068	0.443381	-0.076315	99
Es	-0.498851	2.129119	1.011555	99
Es	-0.380142	0.755218	-0.688335	99
Es	1.287545	0.443421	-0.076344	99
Es	-0.389973	1.023498	1.753884	99
Es	0.604413	0.443590	-0.074712	99
Es	-0.700084	-2.494405	-1.181309	99
Es	-0.711570	-0.992347	-0.009251	99
Es	-1.442799	1.185520	1.153211	99
Es	1.895310	0.355890	-0.411722	99
Es	1.896486	0.204546	0.177937	99
Es	-0.526870	-1.404338	-0.622778	99
Es	-1.468692	-0.955241	0.045428	99
Es	0.382417	-1.944352	-1.279936	99
Es	-0.593101	-1.500547	-1.845313	99
Es	3.177350	0.442044	-0.080054	99
Es	-0.460662	2.732284	1.189992	99
Es	-0.397385	0.840489	0.508109	99
Es	-0.580941	2.772949	0.709893	99
Es	1.892589	0.780957	0.018837	99
Es	-0.692936	1.262244	1.111683	99
Es	0.118245	2.684847	0.918122	99
44
Properties=species:S:1:pos:R:3:Z:I:1 energy=-307.9360050871883 field_type=dipole dipole="0.000000 0.000000 0.000000" charge=0
C	-0.359054	-1.833551	-1.229914	6
C	-0.711604	-0.992391	-0.009214	6
C	-0.156183	0.443409	-0.076354	6
C	-0.693014	1.262039	1.111766	6
O	-0.416553	2.653979	0.953916	8
C	1.287816	0.443409	-0.076354	6
C	2.477977	0.443409	-0.076354	6
H	-0.844404	-2.812931	-1.162964	1
H	0.719887	-2.004271	-1.304484	1
H	-0.697074	-1.350651	-2.152034	1
H	-0.346744	-1.501201	0.891796	1
H	-1.804614	-0.952481	0.069556	1
H	-0.506984	0.918149	-1.001994	1
H	-0.263274	0.932559	2.064796	1
H	-1.781673	1.164359	1.183626	1
H	0.551436	2.747829	0.895696	1
H	3.544056	0.438339	-0.081484	1
Es	0.382664	-1.944045	-1.280165	99
Es	1.287546	0.443412	-0.076349	99
Es	-0.592817	-1.500753	-1.844365	99
Es	-0.456903	-1.329660	0.598566	99
Es	1.897382	0.492411	-0.420129	99
Es	-0.397729	0.840567	0.508106	99
Es	-0.389843	1.023675	1.753615	99
Es	-0.403702	-0.261468	-0.044282	99
Es	-1.468911	-0.955307	0.045632	99
Es	-0.380071	0.754754	-0.687823	99
Es	-0.526669	-1.404395	-0.623115	99
Es	-0.451247	2.721425	1.181920	99
Es	0.118519	2.684694	0.917004	99
Es	-0.591977	2.781945	0.718565	99
Es	-0.416282	2.653686	0.954046	99
Es	-0.497610	2.130738	1.012253	99
Es	-0.156067	0.443381	-0.076315	99
Es	-1.442952	1.185473	1.153350	99
Es	1.891500	0.717546	0.149291	99
Es	-0.359071	-1.833530	-1.229883	99
Es	3.177402	0.442243	-0.080074	99
Es	2.478261	0.443414	-0.076344	99
Es	-0.692937	1.262238	1.111683	99
Es	-0.711570	-0.992344	-0.009248	99
Es	0.604609	0.443203	-0.074770	99
Es	-0.700756	-2.494322	-1.181380	99
Es	1.895503	0.131687	0.055755	99
44
Properties=species:S:1:pos:R:3:Z:I:1 energy=-307.9360050871883 field_type=dipole dipole="0.000000 0.000000 0.000000" charge=0
C	-0.359054	-1.833551	-1.229914	6
C	-0.711604	-0.992391	-0.009214	6
C	-0.156183	0.443409	-0.076354	6
C	-0.693014	1.262039	1.111766	6
O	-0.416553	2.653979	0.953916	8
C	1.287816	0.443409	-0.076354	6
C	2.477977	0.443409	-0.076354	6
H	-0.844404	-2.812931	-1.162964	1
H	0.719887	-2.004271	-1.304484	1
H	-0.697074	-1.350651	-2.152034	1
H	-0.346744	-1.501201	0.891796	1
H	-1.804614	-0.952481	0.069556	1
H	-0.506984	0.918149	-1.001994	1
H	-0.263274	0.932559	2.064796	1
H	-1.781673	1.164359	1.183626	1
H	0.551436	2.747829	0.895696	1
H	3.544056	0.438339	-0.081484	1
Es	-0.692931	1.262241	1.111675	99
Es	-1.443069	1.185542	1.153573	99
Es	0.118593	2.684794	0.915162	99
Es	-0.416285	2.653714	0.953831	99
Es	1.893373	0.257215	-0.369290	99
Es	3.177406	0.442903	-0.080477	99
Es	-0.397970	0.840780	0.508165	99
Es	-0.604411	2.794504	0.733482	99
Es	-0.390057	1.023993	1.753286	99
Es	0.382814	-1.943875	-1.280612	99
Es	-0.711572	-0.992348	-0.009245	99
Es	-1.469028	-0.955458	0.045940	99
Es	1.895094	0.778876	-0.096694	99
Es	-0.359072	-1.833525	-1.229877	99
Es	1.895937	0.304743	0.251119	99
Es	-0.156067	0.443380	-0.076315	99
Es	-0.526555	-1.404490	-0.623110	99
Es	-0.457523	-1.329151	0.597706	99
Es	-0.439830	2.707412	1.170728	99
Es	-0.403502	-0.261380	-0.044511	99
Es	-0.496700	2.131751	1.010676	99
Es	0.604715	0.443423	-0.074934	99
Es	2.478261	0.443419	-0.076345	99
Es	-0.379372	0.754302	-0.686871	99
Es	-0.592026	-1.501234	-1.843056	99
Es	-0.701498	-2.494271	-1.182115	99
Es	1.287546	0.443412	-0.076346	99
44
Properties=species:S:1:pos:R:3:Z:I:1 energy=-307.9360050871883 field_type=dipole dipole="0.000000 0.000000 0.000000" charge=0
C	-0.359054	-1.833551	-1.229914	6
C	-0.711604	-0.992391	-0.009214	6
C	-0.156183	0.443409	-0.076354	6
C	-0.693014	1.262039	1.111766	6
O	-0.416553	2.653979	0.953916	8
C	1.287816	0.443409	-0.076354	6
C	2.477977	0.443409	-0.076354	6
H	-0.844404	-2.812931	-1.162964	1
H	0.719887	-2.004271	-1.304484	1
H	-0.697074	-1.350651	-2.152034	1
H	-0.346744	-1.501201	0.891796	1
H	-1.804614	-0.952481	0.069556	1
H	-0.506984	0.918149	-1.001994	1
H	-0.263274	0.932559	2.064796	1
H	-1.781673	1.164359	1.183626	1
H	0.551436	2.747829	0.895696	1
H	3.544056	0.438339	-0.081484	1
Es	-0.398240	0.840724	0.508244	99
Es	-0.711573	-0.992348	-0.009249	99
Es	0.383079	-1.943542	-1.280429	99
Es	-0.692938	1.262236	1.111684	99
Es	-0.457511	-1.329192	0.597118	99
Es	-0.604368	2.789335	0.729040	99
Es	-0.702318	-2.494097	-1.182127	99
Es	1.896544	0.163866	0.112682	99
Es	-0.495564	2.133881	1.014947	99
Es	2.478262	0.443416	-0.076346	99
Es	-1.469258	-0.955564	0.045944	99
Es	1.287545	0.443410	-0.076345	99
Es	0.604899	0.442961	-0.074874	99
Es	-0.389790	1.024030	1.753098	99
Es	-0.156067	0.443380	-0.076316	99
Es	1.891776	0.747011	0.099238	99
Es	-0.379746	0.754017	-0.686797	99
Es	0.118943	2.684376	0.916054	99
Es	1.896071	0.430438	-0.427156	99
Es	-0.402755	-0.260930	-0.044366	99
Es	-1.443236	1.185527	1.153557	99
Es	-0.526429	-1.404531	-0.623579	99
Es	-0.591725	-1.501238	-1.842215	99
Es	-0.359071	-1.833531	-1.229883	99
Es	-0.441518	2.710574	1.169719	99
Es	3.177458	0.442905	-0.080246	99
Es	-0.416201	2.653559	0.954146	99
44
Properties=species:S:1:pos:R:3:Z:I:1 energy=-307.9360050871883 field_type=dipole dipole="0.000000 0.000000 0.000000" charge=0
C	-0.359054	-1.833551	-1.229914	6
C	-0.711604	-0.992391	-0.009214	6
C	-0.156183	0.443409	-0.076354	6
C	-0.693014	1.262039	1.111766	6
O	-0.416553	2.653979	0.953916	8
C	1.287816	0.443409	-0.076354	6
C	2.477977	0.443409	-0.076354	6
H	-0.844404	-2.812931	-1.162964	1
H	0.719887	-2.004271	-1.304484	1
H	-0.697074	-1.350651	-2.152034	1
H	-0.346744	-1.501201	0.891796	1
H	-1.804614	-0.952481	0.069556	1
H	-0.506984	0.918149	-1.001994	1
H	-0.263274	0.932559	2.064796	1
H	-1.781673	1.164359	1.183626	1
H	0.551436	2.747829	0.895696	1
H	3.544056	0.438339	-0.081484	1
Es	-0.378947	0.753797	-0.685914	99
Es	0.604919	0.443133	-0.075003	99
Es	-0.617821	2.799574	0.745249	99
Es	1.894346	0.773556	-0.047301	99
Es	1.893849	0.300889	-0.397472	99
Es	-0.711570	-0.992347	-0.009245	99
Es	-0.390131	1.024217	1.752806	99
Es	-0.398459	0.840800	0.508305	99
Es	1.287546	0.443411	-0.076343	99
Es	-0.416279	2.653682	0.954265	99
Es	-0.692938	1.262229	1.111682	99
Es	-0.590672	-1.501782	-1.840889	99
Es	-0.526384	-1.404508	-0.623398	99
Es	0.383065	-1.943423	-1.280927	99
Es	3.177430	0.443592	-0.080325	99
Es	-0.458383	-1.328714	0.596238	99
Es	-0.156067	0.443380	-0.076314	99
Es	1.896219	0.266198	0.229562	99
Es	-0.402626	-0.261021	-0.044384	99
Es	2.478262	0.443422	-0.076346	99
Es	-1.469262	-0.955677	0.046271	99
Es	-1.443246	1.185534	1.153746	99
Es	0.118921	2.685454	0.915134	99
Es	-0.431132	2.696884	1.155227	99
Es	-0.359072	-1.833528	-1.229885	99
Es	-0.492332	2.136136	1.014164	99
Es	-0.702967	-2.494217	-1.183357	99
44
Properties=species:S:1:pos:R:3:Z:I:1 energy=-307.9360050871883 field_type=dipole dipole="0.000000 0.000000 0.000000" charge=0
C	-0.359054	-1.833551	-1.229914	6
C	-0.711604	-0.992391	-0.009214	6
C	-0.156183	0.443409	-0.076354	6
C	-0.693014	1.262039	1.111766	6
O	-0.416553	2.653979	0.953916	8
C	1.287816	0.443409	-0.076354	6
C	2.477977	0.443409	-0.076354	6
H	-0.844404	-2.812931	-1.162964	1
H	0.719887	-2.004271	-1.304484	1
H	-0.697074	-1.350651	-2.152034	1
H	-0.346744	-1.501201	0.891796	1
H	-1.804614	-0.952481	0.069556	1
H	-0.506984	0.918149	-1.001994	1
H	-0.263274	0.932559	2.064796	1
H	-1.781673	1.164359	1.183626	1
H	0.551436	2.747829	0.895696	1
H	3.544056	0.438339	-0.081484	1
Es	3.177432	0.443542	-0.080658	99
Es	1.287547	0.443415	-0.076346	99
Es	-0.692937	1.262236	1.111684	99
Es	-0.703021	-2.494294	-1.182002	99
Es	-0.591401	-1.501338	-1.841582	99
Es	0.604985	0.442401	-0.074847	99
Es	-0.491942	2.135920	1.013808	99
Es	-0.359071	-1.833530	-1.229883	99
Es	1.895924	0.137683	-0.003785	99
Es	-0.156069	0.443382	-0.076316	99
Es	-0.389769	1.024060	1.752950	99
Es	-0.379649	0.754223	-0.686371	99
Es	-0.526162	-1.404580	-0.623881	99
Es	0.383132	-1.943155	-1.280541	99
Es	-0.457746	-1.329084	0.596625	99
Es	-0.424046	2.688283	1.143564	99
Es	0.118760	2.686504	0.913744	99
Es	2.478262	0.443419	-0.076346	99
Es	-0.416336	2.653601	0.953769	99
Es	-0.711573	-0.992343	-0.009248	99
Es	-0.402772	-0.261038	-0.044471	99
Es	1.897186	0.534398	-0.415957	99
Es	-1.443259	1.185456	1.153626	99
Es	1.891280	0.669514	0.204910	99
Es	-0.625123	2.807327	0.759054	99
Es	-1.469327	-0.955899	0.046035	99
Es	-0.398034	0.840569	0.508008	99
44
Properties=species:S:1:pos:R:3:Z:I:1 energy=-307.9360050871883 field_type=dipole dipole="0.000000 0.000000 0.000000" charge=0
C	-0.359054	-1.833551	-1.229914	6
C	-0.711604	-0.992391	-0.009214	6
C	-0.156183	0.443409	-0.076354	6
C	-0.693014	1.262039	1.111766	6
O	-0.416553	2.653979	0.953916	8
C	1.287816	0.443409	-0.076354	6
C	2.477977	0.443409	-0.076354	6
H	-0.844404	-2.812931	-1.162964	1
H	0.719887	-2.004271	-1.304484	1
H	-0.697074	-1.350651	-2.152034	1
H	-0.346744	-1.501201	0.891796	1
H	-1.804614	-0.952481	0.069556	1
H	-0.506984	0.918149	-1.001994	1
H	-0.263274	0.932559	2.064796	1
H	-1.781673	1.164359	1.183626	1
H	0.551436	2.747829	0.895696	1
H	3.544056	0.438339	-0.081484	1
Es	-0.711573	-0.992346	-0.009249	99
Es	0.118969	2.686131	0.914362	99
Es	0.383249	-1.942890	-1.280710	99
Es	1.287544	0.443409	-0.076349	99
Es	-0.457648	-1.328982	0.596586	99
Es	-0.402733	-0.260977	-0.044536	99
Es	-0.591109	-1.501412	-1.840763	99
Es	-0.415961	2.653391	0.954007	99
Es	3.177437	0.443727	-0.080639	99
Es	-0.397955	0.840729	0.507873	99
Es	1.896446	0.145623	0.018388	99
Es	0.605073	0.442273	-0.074718	99
Es	-0.389806	1.024156	1.752861	99
Es	-0.379670	0.753958	-0.686236	99
Es	-1.469408	-0.955894	0.046021	99
Es	-0.627660	2.807267	0.761152	99
Es	-0.422379	2.687086	1.136049	99
Es	2.478262	0.443419	-0.076348	99
Es	-0.156066	0.443379	-0.076312	99
Es	1.891203	0.685968	0.189686	99
Es	-0.491732	2.137540	1.018445	99
Es	-0.703698	-2.494232	-1.182065	99
Es	-1.443311	1.185435	1.153622	99
Es	-0.525934	-1.404742	-0.624210	99
Es	1.896743	0.509952	-0.423170	99
Es	-0.359071	-1.833532	-1.229884	99
Es	-0.692937	1.262235	1.111683	99
44
Properties=species:S:1:pos:R:3:Z:I:1 energy=-307.9360050871883 field_type=dipole dipole="0.000000 0.000000 0.000000" charge=0
C	-0.359054	-1.833551	-1.229914	6
C	-0.711604	-0.992391	-0.009214	6
C	-0.156183	0.443409	-0.076354	6
C	-0.693014	1.262039	1.111766	6
O	-0.416553	2.653979	0.953916	8
C	1.287816	0.443409	-0.076354	6
C	2.477977	0.443409	-0.076354	6
H	-0.844404	-2.812931	-1.162964	1
H	0.719887	-2.004271	-1.304484	1
H	-0.697074	-1.350651	-2.152034	1
H	-0.346744	-1.501201	0.891796	1
H	-1.804614	-0.952481	0.069556	1
H	-0.506984	0.918149	-1.001994	1
H	-0.263274	0.932559	2.064796	1
H	-1.781673	1.164359	1.183626	1
H	0.551436	2.747829	0.895696	1
H	3.544056	0.438339	-0.081484	1
Es	-0.692938	1.262232	1.111684	99
Es	-0.633477	2.795525	0.755841	99
Es	1.895933	0.459826	-0.430651	99
Es	-0.416186	2.653645	0.954474	99
Es	-0.401895	-0.260768	-0.043983	99
Es	-0.590662	-1.501627	-1.840051	99
Es	-0.379636	0.753836	-0.685842	99
Es	-0.484179	2.145828	1.021095	99
Es	-0.397986	0.840534	0.508079	99
Es	0.118799	2.686563	0.912886	99
Es	-0.423568	2.689760	1.139829	99
Es	-1.469458	-0.955996	0.046272	99
Es	-0.458338	-1.329008	0.595493	99
Es	-0.525921	-1.404706	-0.624474	99
Es	-0.156066	0.443381	-0.076315	99
Es	3.177424	0.444219	-0.080706	99
Es	-0.711574	-0.992346	-0.009249	99
Es	1.891527	0.723328	0.137392	99
Es	0.383316	-1.942685	-1.280798	99
Es	-1.443373	1.185483	1.153736	99
Es	2.478262	0.443419	-0.076347	99
Es	-0.359071	-1.833530	-1.229884	99
Es	1.896933	0.158111	0.078014	99
Es	1.287546	0.443403	-0.076350	99
Es	-0.390057	1.024223	1.752563	99
Es	-0.704222	-2.494222	-1.182389	99
Es	0.605136	0.442245	-0.074778	99
