48
Properties=species:S:1:pos:R:3:Z:I:1 energy=-346.17439017659296 field_type=dipole dipole="0.000000 0.000000 0.000000" charge=0
C	-1.848831	-1.181666	0.176996	6
C	-0.329061	-1.114816	0.065756	6
C	0.248219	0.315954	0.035696	6
C	-0.315431	1.145783	-1.119594	6
O	-0.092501	0.953104	1.277436	8
C	1.790019	0.275864	-0.050484	6
O	2.342619	-0.370686	1.096036	8
H	-2.169001	-2.223706	0.279686	1
H	-2.333741	-0.776556	-0.715694	1
H	-2.210881	-0.632176	1.050866	1
H	-0.016461	-1.662676	-0.832184	1
H	0.077819	-1.655286	0.929996	1
H	-0.146511	0.657904	-2.085384	1
H	0.151799	2.137414	-1.150694	1
H	-1.388691	1.326844	-0.996824	1
H	0.146139	1.894814	1.208336	1
H	2.202179	1.290884	-0.066534	1
H	2.132728	-0.252116	-0.946354	1
H	1.759598	-0.128876	1.842936	1
Es	2.617068	-0.242905	1.143313	99
Es	-0.393943	0.944507	1.300284	99
Es	0.248166	0.316075	0.035873	99
Es	0.013232	1.820588	-1.131572	99
Es	1.022294	0.293432	-0.017857	99
Es	-1.090909	-1.130273	0.114781	99
Es	-0.329085	-1.114764	0.065740	99
Es	-0.050294	-1.474394	0.652075	99
Es	0.047097	1.456840	1.219730	99
Es	-2.178204	-0.901909	-0.435925	99
Es	-0.315415	1.145780	-1.119589	99
Es	-0.037562	0.734655	-0.555416	99
Es	1.790079	0.275756	-0.050300	99
Es	-1.039980	1.261071	-1.034530	99
Es	-0.111220	-1.478319	-0.554871	99
Es	2.016053	-0.084662	-0.667858	99
Es	-2.093215	-0.809761	0.767435	99
Es	2.342348	-0.370452	1.096047	99
Es	-1.848792	-1.181670	0.176980	99
Es	2.113773	-0.118210	0.670061	99
Es	-2.061563	-1.894218	0.244983	99
Es	-0.195366	0.810080	-1.772327	99
Es	2.304944	-0.671009	1.051732	99
Es	0.096459	0.825882	1.495671	99
Es	2.027299	-0.230859	1.481101	99
Es	2.057992	0.989044	-0.070414	99
Es	-0.045634	-0.390664	0.048907	99
Es	0.042493	0.739656	0.806067	99
Es	-0.092391	0.953225	1.277224	99
48
Properties=species:S:1:pos:R:3:Z:I:1 energy=-346.17439017659296 field_type=dipole dipole="0.000000 0.000000 0.000000" charge=0
C	-1.848831	-1.181666	0.176996	6
C	-0.329061	-1.114816	0.065756	6
C	0.248219	0.315954	0.035696	6
C	-0.315431	1.145783	-1.119594	6
O	-0.092501	0.953104	1.277436	8
C	1.790019	0.275864	-0.050484	6
O	2.342619	-0.370686	1.096036	8
H	-2.169001	-2.223706	0.279686	1
H	-2.333741	-0.776556	-0.715694	1
H	-2.210881	-0.632176	1.050866	1
H	-0.016461	-1.662676	-0.832184	1
H	0.077819	-1.655286	0.929996	1
H	-0.146511	0.657904	-2.085384	1
H	0.151799	2.137414	-1.150694	1
H	-1.388691	1.326844	-0.996824	1
H	0.146139	1.894814	1.208336	1
H	2.202179	1.290884	-0.066534	1
H	2.132728	-0.252116	-0.946354	1
H	1.759598	-0.128876	1.842936	1
Es	-2.093268	-0.809086	0.767959	99
Es	-1.848794	-1.181669	0.176981	99
Es	-1.090940	-1.130292	0.114813	99
Es	-2.177592	-0.902116	-0.435829	99
Es	-0.391892	0.944561	1.298178	99
Es	-1.039018	1.260916	-1.034306	99
Es	2.015908	-0.085040	-0.668487	99
Es	0.093047	0.825985	1.496878	99
Es	-2.061330	-1.894702	0.244628	99
Es	-0.050830	-1.474071	0.652092	99
Es	1.022502	0.293629	-0.017553	99
Es	0.012880	1.820968	-1.131155	99
Es	0.046491	1.457925	1.221035	99
Es	-0.092328	0.953256	1.277123	99
Es	0.044421	0.738493	0.805993	99
Es	2.114401	-0.118395	0.669416	99
Es	2.057610	0.989304	-0.070117	99
Es	2.310381	-0.674618	1.052377	99
Es	2.027975	-0.228949	1.482745	99
Es	-0.329086	-1.114765	0.065740	99
Es	-0.195513	0.809586	-1.773135	99
Es	-0.037709	0.735032	-0.555319	99
Es	2.342323	-0.370499	1.096025	99
Es	-0.111190	-1.478957	-0.555469	99
Es	0.248164	0.316076	0.035875	99
Es	-0.045701	-0.390685	0.049050	99
Es	1.790077	0.275758	-0.050304	99
Es	2.610137	-0.240905	1.141704	99
Es	-0.315410	1.145782	-1.119592	99
48
Properties=species:S:1:pos:R:3:Z:I:1 energy=-346.17439017659296 field_type=dipole dipole="0.000000 0.000000 0.000000" charge=0
C	-1.848831	-1.181666	0.176996	6
C	-0.329061	-1.114816	0.065756	6
C	0.248219	0.315954	0.035696	6
C	-0.315431	1.145783	-1.119594	6
O	-0.092501	0.953104	1.277436	8
C	1.790019	0.275864	-0.050484	6
O	2.342619	-0.370686	1.096036	8
H	-2.169001	-2.223706	0.279686	1
H	-2.333741	-0.776556	-0.715694	1
H	-2.210881	-0.632176	1.050866	1
H	-0.016461	-1.662676	-0.832184	1
H	0.077819	-1.655286	0.929996	1
H	-0.146511	0.657904	-2.085384	1
H	0.151799	2.137414	-1.150694	1
H	-1.388691	1.326844	-0.996824	1
H	0.146139	1.894814	1.208336	1
H	2.202179	1.290884	-0.066534	1
H	2.132728	-0.252116	-0.946354	1
H	1.759598	-0.128876	1.842936	1
Es	-0.195592	0.809282	-1.773570	99
Es	-0.051076	-1.473947	0.652180	99
Es	2.314023	-0.676787	1.050557	99
Es	-1.090937	-1.130316	0.114773	99
Es	-0.111262	-1.479275	-0.555730	99
Es	1.022639	0.293903	-0.017403	99
Es	0.012714	1.821197	-1.130896	99
Es	-2.061266	-1.894950	0.244385	99
Es	0.043521	0.738410	0.805039	99
Es	-1.038413	1.260842	-1.034240	99
Es	-0.045612	-0.390800	0.049039	99
Es	2.342349	-0.370545	1.096023	99
Es	-0.037920	0.735162	-0.555237	99
Es	0.248164	0.316076	0.035876	99
Es	-0.329085	-1.114767	0.065740	99
Es	-1.848794	-1.181670	0.176980	99
Es	2.015800	-0.085283	-0.668788	99
Es	2.027280	-0.229536	1.483718	99
Es	2.605307	-0.239992	1.141957	99
Es	-0.315410	1.145781	-1.119593	99
Es	2.057446	0.989449	-0.069991	99
Es	-2.177210	-0.902209	-0.435726	99
Es	0.095205	0.828032	1.493259	99
Es	-2.093277	-0.808690	0.768263	99
Es	2.116099	-0.116450	0.670020	99
Es	1.790078	0.275757	-0.050301	99
Es	-0.392130	0.942254	1.302414	99
Es	0.045340	1.458353	1.221428	99
Es	-0.092260	0.953239	1.277170	99
48
Properties=species:S:1:pos:R:3:Z:I:1 energy=-346.17439017659296 field_type=dipole dipole="0.000000 0.000000 0.000000" charge=0
C	-1.848831	-1.181666	0.176996	6
C	-0.329061	-1.114816	0.065756	6
C	0.248219	0.315954	0.035696	6
C	-0.315431	1.145783	-1.119594	6
O	-0.092501	0.953104	1.277436	8
C	1.790019	0.275864	-0.050484	6
O	2.342619	-0.370686	1.096036	8
H	-2.169001	-2.223706	0.279686	1
H	-2.333741	-0.776556	-0.715694	1
H	-2.210881	-0.632176	1.050866	1
H	-0.016461	-1.662676	-0.832184	1
H	0.077819	-1.655286	0.929996	1
H	-0.146511	0.657904	-2.085384	1
H	0.151799	2.137414	-1.150694	1
H	-1.388691	1.326844	-0.996824	1
H	0.146139	1.894814	1.208336	1
H	2.202179	1.290884	-0.066534	1
H	2.132728	-0.252116	-0.946354	1
H	1.759598	-0.128876	1.842936	1
Es	0.248163	0.316079	0.035882	99
Es	-0.037866	0.735251	-0.555149	99
Es	0.045768	1.458324	1.221003	99
Es	0.012637	1.821381	-1.130811	99
Es	-1.038126	1.260725	-1.034108	99
Es	1.790078	0.275757	-0.050301	99
Es	-0.315410	1.145782	-1.119592	99
Es	1.022726	0.294037	-0.017446	99
Es	-0.092332	0.953270	1.277153	99
Es	-2.093224	-0.808527	0.768475	99
Es	2.342355	-0.370473	1.096035	99
Es	-1.848793	-1.181669	0.176981	99
Es	-0.391801	0.942841	1.302464	99
Es	2.315961	-0.677044	1.049592	99
Es	-0.051440	-1.473904	0.652357	99
Es	-0.111200	-1.479506	-0.555944	99
Es	2.602860	-0.240170	1.142069	99
Es	-2.061106	-1.895177	0.244238	99
Es	-0.329085	-1.114768	0.065741	99
Es	-2.177067	-0.902218	-0.435666	99
Es	2.026774	-0.230182	1.484586	99
Es	2.117018	-0.115441	0.670019	99
Es	-1.090903	-1.130143	0.114546	99
Es	-0.195728	0.809168	-1.773751	99
Es	0.094231	0.828826	1.493467	99
Es	-0.045749	-0.390871	0.049085	99
Es	2.057343	0.989482	-0.069901	99
Es	0.043879	0.737060	0.805301	99
Es	2.015756	-0.085368	-0.668981	99
48
Properties=species:S:1:pos:R:3:Z:I:1 energy=-346.17439017659296 field_type=dipole dipole="0.000000 0.000000 0.000000" charge=0
C	-1.848831	-1.181666	0.176996	6
C	-0.329061	-1.114816	0.065756	6
C	0.248219	0.315954	0.035696	6
C	-0.315431	1.145783	-1.119594	6
O	-0.092501	0.953104	1.277436	8
C	1.790019	0.275864	-0.050484	6
O	2.342619	-0.370686	1.096036	8
H	-2.169001	-2.223706	0.279686	1
H	-2.333741	-0.776556	-0.715694	1
H	-2.210881	-0.632176	1.050866	1
H	-0.016461	-1.662676	-0.832184	1
H	0.077819	-1.655286	0.929996	1
H	-0.146511	0.657904	-2.085384	1
H	0.151799	2.137414	-1.150694	1
H	-1.388691	1.326844	-0.996824	1
H	0.146139	1.894814	1.208336	1
H	2.202179	1.290884	-0.066534	1
H	2.132728	-0.252116	-0.946354	1
H	1.759598	-0.128876	1.842936	1
Es	-2.093295	-0.808361	0.768571	99
Es	-2.061010	-1.895256	0.244175	99
Es	1.022633	0.294038	-0.017263	99
Es	-1.037780	1.260814	-1.034138	99
Es	2.026817	-0.229507	1.485033	99
Es	1.790079	0.275755	-0.050299	99
Es	-0.037890	0.735341	-0.555114	99
Es	0.044653	0.737161	0.804995	99
Es	2.602238	-0.241617	1.142075	99
Es	0.248164	0.316075	0.035872	99
Es	-2.176909	-0.902321	-0.435686	99
Es	0.096260	0.831345	1.490516	99
Es	2.015771	-0.085450	-0.669102	99
Es	-1.090775	-1.130234	0.114764	99
Es	-0.045902	-0.390853	0.049171	99
Es	2.057242	0.989500	-0.069850	99
Es	-0.329088	-1.114769	0.065741	99
Es	-0.051458	-1.473878	0.652265	99
Es	-0.315409	1.145779	-1.119593	99
Es	-0.111314	-1.479590	-0.556208	99
Es	2.315418	-0.676708	1.049697	99
Es	-1.848793	-1.181670	0.176980	99
Es	-0.092381	0.953250	1.277137	99
Es	-0.391754	0.939272	1.305517	99
Es	2.342363	-0.370505	1.096030	99
Es	0.042955	1.459336	1.221246	99
Es	2.118080	-0.114904	0.669461	99
Es	-0.195779	0.809073	-1.774011	99
Es	0.012587	1.821402	-1.130636	99
48
Properties=species:S:1:pos:R:3:Z:I:1 energy=-346.17439017659296 field_type=dipole dipole="0.000000 0.000000 0.000000" charge=0
C	-1.848831	-1.181666	0.176996	6
C	-0.329061	-1.114816	0.065756	6
C	0.248219	0.315954	0.035696	6
C	-0.315431	1.145783	-1.119594	6
O	-0.092501	0.953104	1.277436	8
C	1.790019	0.275864	-0.050484	6
O	2.342619	-0.370686	1.096036	8
H	-2.169001	-2.223706	0.279686	1
H	-2.333741	-0.776556	-0.715694	1
H	-2.210881	-0.632176	1.050866	1
H	-0.016461	-1.662676	-0.832184	1
H	0.077819	-1.655286	0.929996	1
H	-0.146511	0.657904	-2.085384	1
H	0.151799	2.137414	-1.150694	1
H	-1.388691	1.326844	-0.996824	1
H	0.146139	1.894814	1.208336	1
H	2.202179	1.290884	-0.066534	1
H	2.132728	-0.252116	-0.946354	1
H	1.759598	-0.128876	1.842936	1
Es	2.119043	-0.113752	0.669747	99
Es	2.599752	-0.242079	1.141840	99
Es	2.015766	-0.085523	-0.669182	99
Es	-2.093332	-0.808245	0.768671	99
Es	2.057191	0.989546	-0.069806	99
Es	-0.111365	-1.479777	-0.556317	99
Es	-2.176771	-0.902364	-0.435545	99
Es	-0.195728	0.808966	-1.774093	99
Es	-2.061042	-1.895326	0.244028	99
Es	1.790080	0.275753	-0.050297	99
Es	-1.848794	-1.181670	0.176980	99
Es	-0.092368	0.953268	1.277209	99
Es	1.022671	0.294034	-0.017240	99
Es	2.316502	-0.677696	1.048986	99
Es	-1.090770	-1.130166	0.114828	99
Es	-0.051550	-1.473770	0.652188	99
Es	-0.329086	-1.114767	0.065740	99
Es	-0.037915	0.735459	-0.555141	99
Es	2.027100	-0.229145	1.485707	99
Es	0.096059	0.830842	1.491076	99
Es	0.248163	0.316076	0.035875	99
Es	2.342426	-0.370545	1.096042	99
Es	-0.315410	1.145781	-1.119592	99
Es	-0.045821	-0.390876	0.049122	99
Es	0.012549	1.821510	-1.130531	99
Es	-1.037648	1.260733	-1.034151	99
Es	0.044101	0.737059	0.805006	99
Es	0.043818	1.458880	1.220989	99
Es	-0.391903	0.940315	1.305207	99
48
Properties=species:S:1:pos:R:3:Z:I:1 energy=-346.17439017659296 field_type=dipole dipole="0.000000 0.000000 0.000000" charge=0
C	-1.848831	-1.181666	0.176996	6
C	-0.329061	-1.114816	0.065756	6
C	0.248219	0.315954	0.035696	6
C	-0.315431	1.145783	-1.119594	6
O	-0.092501	0.953104	1.277436	8
C	1.790019	0.275864	-0.050484	6
O	2.342619	-0.370686	1.096036	8
H	-2.169001	-2.223706	0.279686	1
H	-2.333741	-0.776556	-0.715694	1
H	-2.210881	-0.632176	1.050866	1
H	-0.016461	-1.662676	-0.832184	1
H	0.077819	-1.655286	0.929996	1
H	-0.146511	0.657904	-2.085384	1
H	0.151799	2.137414	-1.150694	1
H	-1.388691	1.326844	-0.996824	1
H	0.146139	1.894814	1.208336	1
H	2.202179	1.290884	-0.066534	1
H	2.132728	-0.252116	-0.946354	1
H	1.759598	-0.128876	1.842936	1
Es	-0.195811	0.808896	-1.774138	99
Es	-1.037516	1.260754	-1.034130	99
Es	2.057262	0.989468	-0.069782	99
Es	-0.038010	0.735464	-0.555128	99
Es	-0.045809	-0.390906	0.049139	99
Es	2.120047	-0.112304	0.669843	99
Es	2.015701	-0.085661	-0.669306	99
Es	-1.848793	-1.181671	0.176980	99
Es	-0.092319	0.953304	1.277214	99
Es	-0.315409	1.145781	-1.119591	99
Es	2.027553	-0.228963	1.486485	99
Es	-0.391825	0.941734	1.302880	99
Es	-0.111468	-1.479867	-0.556443	99
Es	2.314145	-0.676658	1.048155	99
Es	2.600695	-0.244726	1.141781	99
Es	0.012573	1.821558	-1.130531	99
Es	0.248164	0.316077	0.035877	99
Es	-2.061064	-1.895373	0.243994	99
Es	0.045165	1.458788	1.221401	99
Es	-2.093300	-0.808099	0.768737	99
Es	0.092979	0.830594	1.492382	99
Es	2.342309	-0.370525	1.096020	99
Es	-2.176640	-0.902384	-0.435551	99
Es	-0.329086	-1.114764	0.065739	99
Es	1.022622	0.294326	-0.017144	99
Es	-1.090673	-1.130264	0.114893	99
Es	-0.051577	-1.473749	0.652235	99
Es	1.790079	0.275754	-0.050299	99
Es	0.045726	0.735938	0.805635	99
48
Properties=species:S:1:pos:R:3:Z:I:1 energy=-346.17439017659296 field_type=dipole dipole="0.000000 0.000000 0.000000" charge=0
C	-1.848831	-1.181666	0.176996	6
C	-0.329061	-1.114816	0.065756	6
C	0.248219	0.315954	0.035696	6
C	-0.315431	1.145783	-1.119594	6
O	-0.092501	0.953104	1.277436	8
C	1.790019	0.275864	-0.050484	6
O	2.342619	-0.370686	1.096036	8
H	-2.169001	-2.223706	0.279686	1
H	-2.333741	-0.776556	-0.715694	1
H	-2.210881	-0.632176	1.050866	1
H	-0.016461	-1.662676	-0.832184	1
H	0.077819	-1.655286	0.929996	1
H	-0.146511	0.657904	-2.085384	1
H	0.151799	2.137414	-1.150694	1
H	-1.388691	1.326844	-0.996824	1
H	0.146139	1.894814	1.208336	1
H	2.202179	1.290884	-0.066534	1
H	2.132728	-0.252116	-0.946354	1
H	1.759598	-0.128876	1.842936	1
Es	1.790078	0.275757	-0.050300	99
Es	1.022605	0.294174	-0.017032	99
Es	-2.060954	-1.895458	0.243920	99
Es	2.342278	-0.370487	1.096009	99
Es	2.119941	-0.113254	0.668985	99
Es	-2.176613	-0.902388	-0.435526	99
Es	2.598352	-0.241879	1.142924	99
Es	0.248163	0.316078	0.035877	99
Es	-0.111445	-1.479908	-0.556514	99
Es	-2.093252	-0.808042	0.768875	99
Es	2.057139	0.989570	-0.069735	99
Es	0.012459	1.821605	-1.130409	99
Es	-0.329086	-1.114764	0.065739	99
Es	0.094001	0.831577	1.489676	99
Es	2.318672	-0.676537	1.048457	99
Es	-0.195793	0.808861	-1.774305	99
Es	0.045101	1.459259	1.221883	99
Es	2.025487	-0.231051	1.485935	99
Es	-1.848793	-1.181670	0.176981	99
Es	0.045437	0.736148	0.805490	99
Es	-1.037272	1.260744	-1.034201	99
Es	-0.392355	0.940105	1.305383	99
Es	-1.090687	-1.130153	0.114677	99
Es	-0.051721	-1.473782	0.652406	99
Es	-0.092473	0.953290	1.277095	99
Es	-0.045838	-0.390973	0.049155	99
Es	-0.315408	1.145781	-1.119591	99
Es	2.015675	-0.085647	-0.669364	99
Es	-0.037978	0.735565	-0.555144	99
48
Properties=species:S:1:pos:R:3:Z:I:1 energy=-346.17439017659296 field_type=dipole dipole="0.000000 0.000000 0.000000" charge=0
C	-1.848831	-1.181666	0.176996	6
C	-0.329061	-1.114816	0.065756	6
C	0.248219	0.315954	0.035696	6
C	-0.315431	1.145783	-1.119594	6
O	-0.092501	0.953104	1.277436	8
C	1.790019	0.275864	-0.050484	6
O	2.342619	-0.370686	1.096036	8
H	-2.169001	-2.223706	0.279686	1
H	-2.333741	-0.776556	-0.715694	1
H	-2.210881	-0.632176	1.050866	1
H	-0.016461	-1.662676	-0.832184	1
H	0.077819	-1.655286	0.929996	1
H	-0.146511	0.657904	-2.085384	1
H	0.151799	2.137414	-1.150694	1
H	-1.388691	1.326844	-0.996824	1
H	0.146139	1.894814	1.208336	1
H	2.202179	1.290884	-0.066534	1
H	2.132728	-0.252116	-0.946354	1
H	1.759598	-0.128876	1.842936	1
Es	0.091851	0.830209	1.492498	99
Es	2.015640	-0.085677	-0.669342	99
Es	-2.060976	-1.895535	0.243783	99
Es	-2.093474	-0.808001	0.768823	99
Es	2.599087	-0.245589	1.142041	99
Es	-0.092285	0.953251	1.277184	99
Es	-0.037987	0.735601	-0.555018	99
Es	-0.195891	0.808726	-1.774277	99
Es	2.315128	-0.675998	1.047454	99
Es	2.057214	0.989550	-0.069773	99
Es	2.342344	-0.370499	1.096019	99
Es	0.045459	1.459079	1.222143	99
Es	-0.045873	-0.390924	0.049078	99
Es	0.248164	0.316075	0.035874	99
Es	-1.848792	-1.181671	0.176981	99
Es	0.046297	0.735984	0.805740	99
Es	1.790077	0.275758	-0.050304	99
Es	-0.111432	-1.479992	-0.556494	99
Es	-1.037243	1.260862	-1.034142	99
Es	0.012595	1.821565	-1.130492	99
Es	-0.329085	-1.114766	0.065740	99
Es	2.121331	-0.111573	0.669552	99
Es	-0.391642	0.941849	1.301999	99
Es	-0.315410	1.145783	-1.119593	99
Es	-1.090668	-1.130157	0.114895	99
Es	-0.051734	-1.473693	0.652254	99
Es	2.026811	-0.229549	1.487236	99
Es	-2.176410	-0.902443	-0.435439	99
Es	1.022622	0.294298	-0.017077	99
48
Properties=species:S:1:pos:R:3:Z:I:1 energy=-346.17439017659296 field_type=dipole dipole="0.000000 0.000000 0.000000" charge=0
C	-1.848831	-1.181666	0.176996	6
C	-0.329061	-1.114816	0.065756	6
C	0.248219	0.315954	0.035696	6
C	-0.315431	1.145783	-1.119594	6
O	-0.092501	0.953104	1.277436	8
C	1.790019	0.275864	-0.050484	6
O	2.342619	-0.370686	1.096036	8
H	-2.169001	-2.223706	0.279686	1
H	-2.333741	-0.776556	-0.715694	1
H	-2.210881	-0.632176	1.050866	1
H	-0.016461	-1.662676	-0.832184	1
H	0.077819	-1.655286	0.929996	1
H	-0.146511	0.657904	-2.085384	1
H	0.151799	2.137414	-1.150694	1
H	-1.388691	1.326844	-0.996824	1
H	0.146139	1.894814	1.208336	1
H	2.202179	1.290884	-0.066534	1
H	2.132728	-0.252116	-0.946354	1
H	1.759598	-0.128876	1.842936	1
Es	-1.037037	1.260761	-1.034165	99
Es	-0.393350	0.938859	1.308239	99
Es	1.022677	0.294248	-0.017050	99
Es	-0.045861	-0.390948	0.049034	99
Es	-0.092385	0.953277	1.277134	99
Es	-2.060985	-1.895632	0.243860	99
Es	-1.848795	-1.181671	0.176980	99
Es	-0.111471	-1.480089	-0.556506	99
Es	-0.038064	0.735603	-0.555083	99
Es	-2.176394	-0.902381	-0.435498	99
Es	2.595706	-0.243092	1.142251	99
Es	-1.090768	-1.130171	0.114843	99
Es	2.120819	-0.111966	0.668933	99
Es	2.057123	0.989599	-0.069744	99
Es	0.096262	0.832805	1.487578	99
Es	0.012516	1.821707	-1.130371	99
Es	-0.329085	-1.114767	0.065738	99
Es	-2.093279	-0.807899	0.768851	99
Es	-0.051772	-1.473647	0.652352	99
Es	0.248163	0.316078	0.035878	99
Es	-0.195926	0.808736	-1.774381	99
Es	2.319508	-0.676893	1.047881	99
Es	-0.315412	1.145783	-1.119590	99
Es	0.044518	1.458934	1.221582	99
Es	2.342341	-0.370534	1.096038	99
Es	1.790079	0.275755	-0.050298	99
Es	2.015643	-0.085732	-0.669404	99
Es	2.026278	-0.230688	1.487234	99
Es	0.044672	0.736487	0.805030	99
48
Properties=species:S:1:pos:R:3:Z:I:1 energy=-346.17439017659296 field_type=dipole dipole="0.000000 0.000000 0.000000" charge=0
C	-1.848831	-1.181666	0.176996	6
C	-0.329061	-1.114816	0.065756	6
C	0.248219	0.315954	0.035696	6
C	-0.315431	1.145783	-1.119594	6
O	-0.092501	0.953104	1.277436	8
C	1.790019	0.275864	-0.050484	6
O	2.342619	-0.370686	1.096036	8
H	-2.169001	-2.223706	0.279686	1
H	-2.333741	-0.776556	-0.715694	1
H	-2.210881	-0.632176	1.050866	1
H	-0.016461	-1.662676	-0.832184	1
H	0.077819	-1.655286	0.929996	1
H	-0.146511	0.657904	-2.085384	1
H	0.151799	2.137414	-1.150694	1
H	-1.388691	1.326844	-0.996824	1
H	0.146139	1.894814	1.208336	1
H	2.202179	1.290884	-0.066534	1
H	2.132728	-0.252116	-0.946354	1
H	1.759598	-0.128876	1.842936	1
Es	0.044021	1.459636	1.222567	99
Es	-0.092294	0.953244	1.277157	99
Es	2.121711	-0.111622	0.669061	99
Es	-2.176464	-0.902358	-0.435577	99
Es	2.342350	-0.370481	1.096021	99
Es	0.096447	0.833023	1.485878	99
Es	1.022565	0.294276	-0.017060	99
Es	-0.393296	0.937371	1.309180	99
Es	0.248165	0.316076	0.035874	99
Es	2.057068	0.989518	-0.069694	99
Es	0.044833	0.737090	0.804820	99
Es	1.790078	0.275757	-0.050303	99
Es	-0.045822	-0.391007	0.049132	99
Es	2.015737	-0.085687	-0.669458	99
Es	-1.848793	-1.181671	0.176980	99
Es	-1.090610	-1.130106	0.114728	99
Es	2.594698	-0.242404	1.143159	99
Es	-2.060908	-1.895530	0.243836	99
Es	2.320793	-0.677266	1.047426	99
Es	0.012421	1.821734	-1.130373	99
Es	-0.329085	-1.114766	0.065740	99
Es	-0.111498	-1.479998	-0.556623	99
Es	2.025070	-0.231387	1.486710	99
Es	-0.315411	1.145781	-1.119591	99
Es	-1.036947	1.260726	-1.034220	99
Es	-0.038047	0.735620	-0.555058	99
Es	-2.093287	-0.807991	0.768939	99
Es	-0.195908	0.808742	-1.774418	99
Es	-0.051866	-1.473800	0.652511	99
48
Properties=species:S:1:pos:R:3:Z:I:1 energy=-346.17439017659296 field_type=dipole dipole="0.000000 0.000000 0.000000" charge=0
C	-1.848831	-1.181666	0.176996	6
C	-0.329061	-1.114816	0.065756	6
C	0.248219	0.315954	0.035696	6
C	-0.315431	1.145783	-1.119594	6
O	-0.092501	0.953104	1.277436	8
C	1.790019	0.275864	-0.050484	6
O	2.342619	-0.370686	1.096036	8
H	-2.169001	-2.223706	0.279686	1
H	-2.333741	-0.776556	-0.715694	1
H	-2.210881	-0.632176	1.050866	1
H	-0.016461	-1.662676	-0.832184	1
H	0.077819	-1.655286	0.929996	1
H	-0.146511	0.657904	-2.085384	1
H	0.151799	2.137414	-1.150694	1
H	-1.388691	1.326844	-0.996824	1
H	0.146139	1.894814	1.208336	1
H	2.202179	1.290884	-0.066534	1
H	2.132728	-0.252116	-0.946354	1
H	1.759598	-0.128876	1.842936	1
Es	-0.329085	-1.114765	0.065740	99
Es	-2.060802	-1.895629	0.243991	99
Es	2.121996	-0.111050	0.668501	99
Es	-0.315410	1.145782	-1.119592	99
Es	-1.036878	1.260784	-1.034300	99
Es	-0.195944	0.808713	-1.774384	99
Es	2.025772	-0.231328	1.487447	99
Es	-0.111562	-1.479980	-0.556624	99
Es	2.015689	-0.085664	-0.669462	99
Es	-0.051743	-1.473787	0.652456	99
Es	2.342352	-0.370508	1.096031	99
Es	-2.176584	-0.902445	-0.435567	99
Es	1.022483	0.294355	-0.017066	99
Es	-0.393633	0.935129	1.314200	99
Es	-1.090630	-1.130073	0.114747	99
Es	0.099334	0.835414	1.482092	99
Es	0.248164	0.316076	0.035877	99
Es	2.594034	-0.243669	1.142859	99
Es	-0.045772	-0.391051	0.049149	99
Es	2.057067	0.989565	-0.069682	99
Es	1.790079	0.275756	-0.050298	99
Es	2.320461	-0.676662	1.047537	99
Es	-1.848793	-1.181670	0.176981	99
Es	-0.092330	0.953268	1.277156	99
Es	-2.093226	-0.807945	0.768858	99
Es	0.012452	1.821750	-1.130421	99
Es	0.043392	0.736941	0.804057	99
Es	0.042962	1.459654	1.222084	99
Es	-0.038124	0.735563	-0.555020	99
48
Properties=species:S:1:pos:R:3:Z:I:1 energy=-346.17439017659296 field_type=dipole dipole="0.000000 0.000000 0.000000" charge=0
C	-1.848831	-1.181666	0.176996	6
C	-0.329061	-1.114816	0.065756	6
C	0.248219	0.315954	0.035696	6
C	-0.315431	1.145783	-1.119594	6
O	-0.092501	0.953104	1.277436	8
C	1.790019	0.275864	-0.050484	6
O	2.342619	-0.370686	1.096036	8
H	-2.169001	-2.223706	0.279686	1
H	-2.333741	-0.776556	-0.715694	1
H	-2.210881	-0.632176	1.050866	1
H	-0.016461	-1.662676	-0.832184	1
H	0.077819	-1.655286	0.929996	1
H	-0.146511	0.657904	-2.085384	1
H	0.151799	2.137414	-1.150694	1
H	-1.388691	1.326844	-0.996824	1
H	0.146139	1.894814	1.208336	1
H	2.202179	1.290884	-0.066534	1
H	2.132728	-0.252116	-0.946354	1
H	1.759598	-0.128876	1.842936	1
Es	-0.037970	0.735732	-0.555131	99
Es	0.248163	0.316078	0.035877	99
Es	2.015683	-0.085753	-0.669477	99
Es	-0.315411	1.145783	-1.119593	99
Es	-0.111493	-1.480190	-0.556574	99
Es	-1.090651	-1.130160	0.114660	99
Es	2.025799	-0.230973	1.487878	99
Es	-2.176333	-0.902401	-0.435367	99
Es	2.317529	-0.675178	1.047057	99
Es	0.094416	0.833590	1.488276	99
Es	-0.195963	0.808649	-1.774458	99
Es	-0.393028	0.938929	1.306998	99
Es	1.022534	0.294282	-0.017012	99
Es	2.596213	-0.245967	1.142764	99
Es	-0.051968	-1.473680	0.652391	99
Es	0.044298	1.459249	1.221410	99
Es	-0.045783	-0.390959	0.049091	99
Es	1.790079	0.275754	-0.050298	99
Es	-0.092300	0.953248	1.277179	99
Es	0.046330	0.735368	0.805755	99
Es	-2.060999	-1.895738	0.243800	99
Es	-1.036853	1.260678	-1.034146	99
Es	-1.848794	-1.181671	0.176980	99
Es	2.122681	-0.110573	0.668607	99
Es	2.057060	0.989621	-0.069676	99
Es	0.012441	1.821825	-1.130348	99
Es	2.342333	-0.370469	1.096040	99
Es	-0.329084	-1.114765	0.065741	99
Es	-2.093208	-0.807787	0.768921	99
48
Properties=species:S:1:pos:R:3:Z:I:1 energy=-346.17439017659296 field_type=dipole dipole="0.000000 0.000000 0.000000" charge=0
C	-1.848831	-1.181666	0.176996	6
C	-0.329061	-1.114816	0.065756	6
C	0.248219	0.315954	0.035696	6
C	-0.315431	1.145783	-1.119594	6
O	-0.092501	0.953104	1.277436	8
C	1.790019	0.275864	-0.050484	6
O	2.342619	-0.370686	1.096036	8
H	-2.169001	-2.223706	0.279686	1
H	-2.333741	-0.776556	-0.715694	1
H	-2.210881	-0.632176	1.050866	1
H	-0.016461	-1.662676	-0.832184	1
H	0.077819	-1.655286	0.929996	1
H	-0.146511	0.657904	-2.085384	1
H	0.151799	2.137414	-1.150694	1
H	-1.388691	1.326844	-0.996824	1
H	0.146139	1.894814	1.208336	1
H	2.202179	1.290884	-0.066534	1
H	2.132728	-0.252116	-0.946354	1
H	1.759598	-0.128876	1.842936	1
Es	2.024474	-0.232200	1.487535	99
Es	-0.111518	-1.480131	-0.556677	99
Es	-1.036834	1.260684	-1.034156	99
Es	-0.329085	-1.114766	0.065741	99
Es	2.593867	-0.243726	1.143324	99
Es	-1.848793	-1.181671	0.176981	99
Es	2.015665	-0.085748	-0.669475	99
Es	1.022590	0.294344	-0.017059	99
Es	-2.176330	-0.902426	-0.435383	99
Es	-2.060932	-1.895730	0.243767	99
Es	-1.090558	-1.130093	0.114622	99
Es	1.790079	0.275755	-0.050298	99
Es	-0.052004	-1.473762	0.652480	99
Es	0.044801	0.736244	0.804935	99
Es	0.043868	1.459431	1.221839	99
Es	0.096484	0.833747	1.486120	99
Es	2.321153	-0.675715	1.047091	99
Es	-0.315410	1.145782	-1.119592	99
Es	2.122672	-0.111155	0.668371	99
Es	2.057047	0.989652	-0.069679	99
Es	-0.038074	0.735743	-0.555105	99
Es	2.342376	-0.370377	1.096038	99
Es	-0.393074	0.937634	1.309605	99
Es	0.012497	1.821853	-1.130357	99
Es	-0.045792	-0.391011	0.049137	99
Es	-2.093250	-0.807795	0.768964	99
Es	-0.092378	0.953277	1.277130	99
Es	-0.195983	0.808601	-1.774430	99
Es	0.248163	0.316080	0.035879	99
48
Properties=species:S:1:pos:R:3:Z:I:1 energy=-346.17439017659296 field_type=dipole dipole="0.000000 0.000000 0.000000" charge=0
C	-1.848831	-1.181666	0.176996	6
C	-0.329061	-1.114816	0.065756	6
C	0.248219	0.315954	0.035696	6
C	-0.315431	1.145783	-1.119594	6
O	-0.092501	0.953104	1.277436	8
C	1.790019	0.275864	-0.050484	6
O	2.342619	-0.370686	1.096036	8
H	-2.169001	-2.223706	0.279686	1
H	-2.333741	-0.776556	-0.715694	1
H	-2.210881	-0.632176	1.050866	1
H	-0.016461	-1.662676	-0.832184	1
H	0.077819	-1.655286	0.929996	1
H	-0.146511	0.657904	-2.085384	1
H	0.151799	2.137414	-1.150694	1
H	-1.388691	1.326844	-0.996824	1
H	0.146139	1.894814	1.208336	1
H	2.202179	1.290884	-0.066534	1
H	2.132728	-0.252116	-0.946354	1
H	1.759598	-0.128876	1.842936	1
Es	2.024237	-0.232638	1.487536	99
Es	-0.315409	1.145781	-1.119592	99
Es	2.123105	-0.110711	0.668179	99
Es	-0.038046	0.735677	-0.555106	99
Es	-2.060930	-1.895668	0.243820	99
Es	-1.036762	1.260646	-1.034249	99
Es	2.057080	0.989618	-0.069694	99
Es	-0.195987	0.808658	-1.774412	99
Es	0.248163	0.316078	0.035877	99
Es	2.592163	-0.243146	1.143622	99
Es	-2.093325	-0.807834	0.768899	99
Es	0.044432	1.459339	1.222638	99
Es	1.790078	0.275757	-0.050299	99
Es	-0.092391	0.953259	1.277157	99
Es	-0.045874	-0.391072	0.049104	99
Es	0.044751	0.736444	0.804561	99
Es	0.012476	1.821927	-1.130326	99
Es	-1.848793	-1.181670	0.176981	99
Es	1.022431	0.294338	-0.017041	99
Es	2.015721	-0.085730	-0.669427	99
Es	-2.176368	-0.902469	-0.435419	99
Es	-0.111534	-1.480121	-0.556724	99
Es	2.322699	-0.676184	1.046984	99
Es	-0.051919	-1.473722	0.652503	99
Es	-1.090423	-1.130111	0.114728	99
Es	2.342323	-0.370479	1.096037	99
Es	-0.393437	0.937484	1.310297	99
Es	0.096344	0.833836	1.484971	99
Es	-0.329086	-1.114765	0.065739	99
48
Properties=species:S:1:pos:R:3:Z:I:1 energy=-346.17439017659296 field_type=dipole dipole="0.000000 0.000000 0.000000" charge=0
C	-1.848831	-1.181666	0.176996	6
C	-0.329061	-1.114816	0.065756	6
C	0.248219	0.315954	0.035696	6
C	-0.315431	1.145783	-1.119594	6
O	-0.092501	0.953104	1.277436	8
C	1.790019	0.275864	-0.050484	6
O	2.342619	-0.370686	1.096036	8
H	-2.169001	-2.223706	0.279686	1
H	-2.333741	-0.776556	-0.715694	1
H	-2.210881	-0.632176	1.050866	1
H	-0.016461	-1.662676	-0.832184	1
H	0.077819	-1.655286	0.929996	1
H	-0.146511	0.657904	-2.085384	1
H	0.151799	2.137414	-1.150694	1
H	-1.388691	1.326844	-0.996824	1
H	0.146139	1.894814	1.208336	1
H	2.202179	1.290884	-0.066534	1
H	2.132728	-0.252116	-0.946354	1
H	1.759598	-0.128876	1.842936	1
Es	0.012394	1.821915	-1.130309	99
Es	2.024679	-0.231753	1.487787	99
Es	-2.176325	-0.902453	-0.435389	99
Es	-0.092215	0.953249	1.277175	99
Es	0.094723	0.834292	1.486324	99
Es	0.046823	0.735707	0.805523	99
Es	-0.045928	-0.390894	0.049045	99
Es	2.122966	-0.111187	0.668130	99
Es	-0.111595	-1.480221	-0.556714	99
Es	-2.060897	-1.895791	0.243811	99
Es	0.044288	1.459283	1.222266	99
Es	2.593988	-0.244436	1.143146	99
Es	2.342325	-0.370432	1.096020	99
Es	-1.848793	-1.181670	0.176981	99
Es	1.022513	0.294241	-0.017004	99
Es	-0.393910	0.937795	1.308372	99
Es	2.056993	0.989659	-0.069675	99
Es	-0.196090	0.808719	-1.774530	99
Es	-0.315409	1.145781	-1.119592	99
Es	-0.052003	-1.473715	0.652472	99
Es	2.015681	-0.085727	-0.669489	99
Es	2.320559	-0.675375	1.047318	99
Es	1.790079	0.275757	-0.050298	99
Es	-2.093256	-0.807766	0.768921	99
Es	-1.036574	1.260688	-1.034259	99
Es	-1.090418	-1.130132	0.114713	99
Es	-0.037953	0.735677	-0.555017	99
Es	-0.329085	-1.114765	0.065740	99
Es	0.248164	0.316077	0.035876	99
48
Properties=species:S:1:pos:R:3:Z:I:1 energy=-346.17439017659296 field_type=dipole dipole="0.000000 0.000000 0.000000" charge=0
C	-1.848831	-1.181666	0.176996	6
C	-0.329061	-1.114816	0.065756	6
C	0.248219	0.315954	0.035696	6
C	-0.315431	1.145783	-1.119594	6
O	-0.092501	0.953104	1.277436	8
C	1.790019	0.275864	-0.050484	6
O	2.342619	-0.370686	1.096036	8
H	-2.169001	-2.223706	0.279686	1
H	-2.333741	-0.776556	-0.715694	1
H	-2.210881	-0.632176	1.050866	1
H	-0.016461	-1.662676	-0.832184	1
H	0.077819	-1.655286	0.929996	1
H	-0.146511	0.657904	-2.085384	1
H	0.151799	2.137414	-1.150694	1
H	-1.388691	1.326844	-0.996824	1
H	0.146139	1.894814	1.208336	1
H	2.202179	1.290884	-0.066534	1
H	2.132728	-0.252116	-0.946354	1
H	1.759598	-0.128876	1.842936	1
Es	-1.848793	-1.181670	0.176981	99
Es	1.022533	0.294306	-0.016952	99
Es	-2.093261	-0.807829	0.769008	99
Es	-0.051908	-1.473716	0.652568	99
Es	-0.315411	1.145784	-1.119593	99
Es	0.098234	0.835525	1.482526	99
Es	0.043734	1.459689	1.221742	99
Es	-1.090568	-1.130121	0.114659	99
Es	0.248164	0.316077	0.035877	99
Es	2.025062	-0.232066	1.488298	99
Es	2.015664	-0.085765	-0.669552	99
Es	2.123791	-0.109447	0.668888	99
Es	-2.176437	-0.902490	-0.435532	99
Es	2.057019	0.989617	-0.069648	99
Es	-1.036546	1.260598	-1.034291	99
Es	0.012176	1.821892	-1.130187	99
Es	2.592760	-0.245296	1.143142	99
Es	2.342341	-0.370394	1.096028	99
Es	0.044270	0.736311	0.804934	99
Es	-0.394247	0.935530	1.313267	99
Es	-0.195944	0.808814	-1.774667	99
Es	2.320541	-0.675973	1.046032	99
Es	-2.060730	-1.895693	0.243856	99
Es	-0.092280	0.953273	1.277186	99
Es	1.790079	0.275756	-0.050296	99
Es	-0.329085	-1.114765	0.065740	99
Es	-0.045940	-0.390959	0.049044	99
Es	-0.111535	-1.480129	-0.556688	99
Es	-0.037961	0.735664	-0.555024	99
48
Properties=species:S:1:pos:R:3:Z:I:1 energy=-346.17439017659296 field_type=dipole dipole="0.000000 0.000000 0.000000" charge=0
C	-1.848831	-1.181666	0.176996	6
C	-0.329061	-1.114816	0.065756	6
C	0.248219	0.315954	0.035696	6
C	-0.315431	1.145783	-1.119594	6
O	-0.092501	0.953104	1.277436	8