47
Properties=species:S:1:pos:R:3:Z:I:1 energy=-309.14787254008115 field_type=dipole dipole="0.000000 0.000000 0.000000" charge=0
C	-2.645758	-1.135678	-0.820270	6
C	-1.167148	-1.121458	-0.454420	6
C	-0.560268	0.284782	-0.534710	6
O	-1.248268	1.154142	0.356720	8
C	0.914662	0.257071	-0.218220	6
C	1.555982	0.983312	0.712700	6
C	3.027272	0.909371	0.963670	6
H	-3.033188	-2.159188	-0.783880	1
H	-2.802888	-0.749138	-1.832440	1
H	-3.235048	-0.529998	-0.124260	1
H	-0.629488	-1.802888	-1.124720	1
H	-1.065208	-1.517238	0.563930	1
H	-0.688448	0.684142	-1.547030	1
H	-1.147718	0.779191	1.247640	1
H	1.499592	-0.420258	-0.839830	1
H	1.006132	1.692802	1.327720	1
H	3.527522	0.205032	0.291930	1
H	3.213232	0.590262	1.993660	1
H	3.479042	1.895742	0.821810	1
Es	-1.545997	1.129829	0.286744	99
Es	3.363121	0.428744	0.504678	99
Es	-2.905834	-1.837414	-0.795525	99
Es	-1.905891	-1.119541	-0.640025	99
Es	-0.560335	0.284890	-0.534528	99
Es	-1.182104	0.934217	0.829359	99
Es	-0.854281	-0.423977	-0.493452	99
Es	2.291907	0.939248	0.832982	99
Es	1.278962	0.852812	0.027081	99
Es	3.145321	0.694925	1.660815	99
Es	3.027232	0.909376	0.963669	99
Es	-2.747966	-0.870876	-1.513166	99
Es	-2.645724	-1.135690	-0.820270	99
Es	-0.793488	-1.582699	-0.915959	99
Es	-1.167166	-1.121440	-0.454431	99
Es	0.188747	0.271834	-0.364543	99
Es	-1.248060	1.153902	0.356815	99
Es	1.171142	0.369588	0.472221	99
Es	-3.043571	-0.728192	-0.346953	99
Es	1.190799	1.461010	1.137496	99
Es	3.324622	1.577862	0.867898	99
Es	-0.643037	0.553315	-1.222808	99
Es	-1.092176	-1.382971	0.248639	99
Es	-1.098462	1.422793	0.356409	99
Es	1.307359	-0.210057	-0.646547	99
Es	1.556057	0.983359	0.712771	99
Es	0.914604	0.257004	-0.218300	99
Es	-0.980595	0.812210	0.039058	99
47
Properties=species:S:1:pos:R:3:Z:I:1 energy=-309.14787254008115 field_type=dipole dipole="0.000000 0.000000 0.000000" charge=0
C	-2.645758	-1.135678	-0.820270	6
C	-1.167148	-1.121458	-0.454420	6
C	-0.560268	0.284782	-0.534710	6
O	-1.248268	1.154142	0.356720	8
C	0.914662	0.257071	-0.218220	6
C	1.555982	0.983312	0.712700	6
C	3.027272	0.909371	0.963670	6
H	-3.033188	-2.159188	-0.783880	1
H	-2.802888	-0.749138	-1.832440	1
H	-3.235048	-0.529998	-0.124260	1
H	-0.629488	-1.802888	-1.124720	1
H	-1.065208	-1.517238	0.563930	1
H	-0.688448	0.684142	-1.547030	1
H	-1.147718	0.779191	1.247640	1
H	1.499592	-0.420258	-0.839830	1
H	1.006132	1.692802	1.327720	1
H	3.527522	0.205032	0.291930	1
H	3.213232	0.590262	1.993660	1
H	3.479042	1.895742	0.821810	1
Es	1.171376	0.368003	0.473410	99
Es	-3.043389	-0.728433	-0.347096	99
Es	-2.645722	-1.135689	-0.820270	99
Es	-0.560335	0.284891	-0.534529	99
Es	1.191070	1.459928	1.138518	99
Es	-2.905686	-1.837337	-0.795091	99
Es	-2.747924	-0.870750	-1.513842	99
Es	-1.248132	1.153875	0.356818	99
Es	0.189210	0.271837	-0.365156	99
Es	-0.793799	-1.582363	-0.915988	99
Es	-1.178005	0.937632	0.831928	99
Es	-1.167165	-1.121442	-0.454435	99
Es	3.362879	0.428918	0.504118	99
Es	1.556060	0.983352	0.712780	99
Es	3.027231	0.909376	0.963669	99
Es	0.914602	0.257004	-0.218302	99
Es	1.278957	0.854275	0.025734	99
Es	-0.986746	0.808117	0.037034	99
Es	-1.544427	1.132768	0.291372	99
Es	-1.905819	-1.119429	-0.640027	99
Es	-0.643035	0.553435	-1.223149	99
Es	3.145337	0.694928	1.661987	99
Es	-1.092217	-1.383243	0.249354	99
Es	-0.854189	-0.423953	-0.493881	99
Es	-1.097752	1.420354	0.351510	99
Es	3.323916	1.577471	0.867551	99
Es	2.291855	0.939451	0.833464	99
Es	1.307035	-0.208915	-0.647352	99
47
Properties=species:S:1:pos:R:3:Z:I:1 energy=-309.14787254008115 field_type=dipole dipole="0.000000 0.000000 0.000000" charge=0
C	-2.645758	-1.135678	-0.820270	6
C	-1.167148	-1.121458	-0.454420	6
C	-0.560268	0.284782	-0.534710	6
O	-1.248268	1.154142	0.356720	8
C	0.914662	0.257071	-0.218220	6
C	1.555982	0.983312	0.712700	6
C	3.027272	0.909371	0.963670	6
H	-3.033188	-2.159188	-0.783880	1
H	-2.802888	-0.749138	-1.832440	1
H	-3.235048	-0.529998	-0.124260	1
H	-0.629488	-1.802888	-1.124720	1
H	-1.065208	-1.517238	0.563930	1
H	-0.688448	0.684142	-1.547030	1
H	-1.147718	0.779191	1.247640	1
H	1.499592	-0.420258	-0.839830	1
H	1.006132	1.692802	1.327720	1
H	3.527522	0.205032	0.291930	1
H	3.213232	0.590262	1.993660	1
H	3.479042	1.895742	0.821810	1
Es	-1.248162	1.153954	0.356750	99
Es	-2.905620	-1.837266	-0.794890	99
Es	1.191217	1.459369	1.139118	99
Es	-2.748057	-0.870644	-1.514129	99
Es	-1.167167	-1.121442	-0.454431	99
Es	1.278935	0.855122	0.024990	99
Es	2.291700	0.939489	0.833756	99
Es	-1.905663	-1.119331	-0.639990	99
Es	-0.993897	0.804205	0.034199	99
Es	3.323304	1.576987	0.867126	99
Es	-1.541197	1.133975	0.297523	99
Es	1.556057	0.983349	0.712782	99
Es	1.306893	-0.208304	-0.647669	99
Es	-1.097861	1.420133	0.347296	99
Es	-1.092257	-1.383478	0.249526	99
Es	3.145738	0.695118	1.662819	99
Es	0.189603	0.271518	-0.365420	99
Es	1.171552	0.367307	0.473928	99
Es	3.027232	0.909375	0.963669	99
Es	-2.645721	-1.135689	-0.820270	99
Es	-0.854358	-0.423691	-0.493907	99
Es	-3.043291	-0.728730	-0.347259	99
Es	0.914602	0.257004	-0.218303	99
Es	-0.643102	0.553362	-1.223226	99
Es	3.362656	0.429159	0.503776	99
Es	-1.173770	0.940421	0.832971	99
Es	-0.793844	-1.582101	-0.916077	99
Es	-0.560335	0.284890	-0.534528	99
47
Properties=species:S:1:pos:R:3:Z:I:1 energy=-309.14787254008115 field_type=dipole dipole="0.000000 0.000000 0.000000" charge=0
C	-2.645758	-1.135678	-0.820270	6
C	-1.167148	-1.121458	-0.454420	6
C	-0.560268	0.284782	-0.534710	6
O	-1.248268	1.154142	0.356720	8
C	0.914662	0.257071	-0.218220	6
C	1.555982	0.983312	0.712700	6
C	3.027272	0.909371	0.963670	6
H	-3.033188	-2.159188	-0.783880	1
H	-2.802888	-0.749138	-1.832440	1
H	-3.235048	-0.529998	-0.124260	1
H	-0.629488	-1.802888	-1.124720	1
H	-1.065208	-1.517238	0.563930	1
H	-0.688448	0.684142	-1.547030	1
H	-1.147718	0.779191	1.247640	1
H	1.499592	-0.420258	-0.839830	1
H	1.006132	1.692802	1.327720	1
H	3.527522	0.205032	0.291930	1
H	3.213232	0.590262	1.993660	1
H	3.479042	1.895742	0.821810	1
Es	3.362504	0.429190	0.503501	99
Es	-2.905731	-1.837436	-0.794823	99
Es	1.556057	0.983351	0.712782	99
Es	-3.043317	-0.729023	-0.347815	99
Es	-1.167167	-1.121441	-0.454432	99
Es	0.189824	0.271331	-0.365752	99
Es	-0.998112	0.802290	0.031609	99
Es	1.306834	-0.207869	-0.647749	99
Es	-1.537083	1.132815	0.302004	99
Es	3.322979	1.576586	0.866962	99
Es	-0.560334	0.284889	-0.534529	99
Es	3.027232	0.909378	0.963669	99
Es	-0.793892	-1.582023	-0.915929	99
Es	-2.748041	-0.870565	-1.514095	99
Es	-1.905461	-1.119059	-0.639728	99
Es	-1.092357	-1.383552	0.249504	99
Es	-2.645720	-1.135690	-0.820270	99
Es	3.145849	0.695300	1.663319	99
Es	0.914602	0.257005	-0.218303	99
Es	-0.854489	-0.423509	-0.494206	99
Es	2.291660	0.939844	0.833927	99
Es	1.278987	0.855599	0.024607	99
Es	-1.102042	1.418934	0.342902	99
Es	1.171711	0.366725	0.474244	99
Es	-1.248157	1.153957	0.356782	99
Es	1.191302	1.459044	1.139374	99
Es	-0.643129	0.553402	-1.222963	99
Es	-1.169324	0.944586	0.835541	99
47
Properties=species:S:1:pos:R:3:Z:I:1 energy=-309.14787254008115 field_type=dipole dipole="0.000000 0.000000 0.000000" charge=0
C	-2.645758	-1.135678	-0.820270	6
C	-1.167148	-1.121458	-0.454420	6
C	-0.560268	0.284782	-0.534710	6
O	-1.248268	1.154142	0.356720	8
C	0.914662	0.257071	-0.218220	6
C	1.555982	0.983312	0.712700	6
C	3.027272	0.909371	0.963670	6
H	-3.033188	-2.159188	-0.783880	1
H	-2.802888	-0.749138	-1.832440	1
H	-3.235048	-0.529998	-0.124260	1
H	-0.629488	-1.802888	-1.124720	1
H	-1.065208	-1.517238	0.563930	1
H	-0.688448	0.684142	-1.547030	1
H	-1.147718	0.779191	1.247640	1
H	1.499592	-0.420258	-0.839830	1
H	1.006132	1.692802	1.327720	1
H	3.527522	0.205032	0.291930	1
H	3.213232	0.590262	1.993660	1
H	3.479042	1.895742	0.821810	1
Es	0.914598	0.257000	-0.218302	99
Es	-0.793767	-1.581774	-0.915577	99
Es	2.291586	0.940047	0.834060	99
Es	3.146214	0.695798	1.663777	99
Es	-1.092396	-1.383611	0.249399	99
Es	1.171904	0.366323	0.474405	99
Es	1.191366	1.458733	1.139587	99
Es	-2.905786	-1.837336	-0.794676	99
Es	-0.560334	0.284890	-0.534530	99
Es	-1.010278	0.797053	0.027942	99
Es	1.278848	0.855985	0.024429	99
Es	-1.905421	-1.118994	-0.639892	99
Es	-1.167407	0.946791	0.836780	99
Es	-2.748210	-0.870665	-1.514134	99
Es	-1.531570	1.141691	0.306722	99
Es	3.322575	1.576101	0.866560	99
Es	-1.167167	-1.121440	-0.454431	99
Es	1.556058	0.983350	0.712782	99
Es	-3.043342	-0.729230	-0.348181	99
Es	-2.645721	-1.135689	-0.820271	99
Es	-1.248127	1.153914	0.356820	99
Es	0.190026	0.271081	-0.366013	99
Es	-1.097275	1.413050	0.340581	99
Es	3.027232	0.909376	0.963669	99
Es	1.306861	-0.207398	-0.647760	99
Es	-0.643152	0.553352	-1.222623	99
Es	-0.854542	-0.423489	-0.494390	99
Es	3.362415	0.429150	0.503398	99
47
Properties=species:S:1:pos:R:3:Z:I:1 energy=-309.14787254008115 field_type=dipole dipole="0.000000 0.000000 0.000000" charge=0
C	-2.645758	-1.135678	-0.820270	6
C	-1.167148	-1.121458	-0.454420	6
C	-0.560268	0.284782	-0.534710	6
O	-1.248268	1.154142	0.356720	8
C	0.914662	0.257071	-0.218220	6
C	1.555982	0.983312	0.712700	6
C	3.027272	0.909371	0.963670	6
H	-3.033188	-2.159188	-0.783880	1
H	-2.802888	-0.749138	-1.832440	1
H	-3.235048	-0.529998	-0.124260	1
H	-0.629488	-1.802888	-1.124720	1
H	-1.065208	-1.517238	0.563930	1
H	-0.688448	0.684142	-1.547030	1
H	-1.147718	0.779191	1.247640	1
H	1.499592	-0.420258	-0.839830	1
H	1.006132	1.692802	1.327720	1
H	3.527522	0.205032	0.291930	1
H	3.213232	0.590262	1.993660	1
H	3.479042	1.895742	0.821810	1
Es	3.322399	1.575976	0.866452	99
Es	1.172062	0.366079	0.474551	99
Es	-1.092465	-1.383752	0.249127	99
Es	1.556058	0.983349	0.712783	99
Es	3.362258	0.429078	0.503205	99
Es	-0.643009	0.553432	-1.222161	99
Es	-0.854676	-0.423362	-0.494630	99
Es	1.278812	0.856407	0.024093	99
Es	0.914601	0.257004	-0.218304	99
Es	-2.645722	-1.135690	-0.820271	99
Es	-1.103518	1.408363	0.334723	99
Es	-1.160629	0.955437	0.840037	99
Es	-1.167167	-1.121439	-0.454432	99
Es	-0.560334	0.284887	-0.534530	99
Es	2.291671	0.940345	0.834293	99
Es	-1.905314	-1.118863	-0.639670	99
Es	-1.526245	1.140127	0.311068	99
Es	1.306832	-0.207139	-0.647535	99
Es	-2.906030	-1.837628	-0.794818	99
Es	-1.016022	0.794534	0.026205	99
Es	-2.748107	-0.870531	-1.513819	99
Es	1.191434	1.458474	1.139629	99
Es	-1.248160	1.153961	0.356773	99
Es	3.146314	0.695946	1.663937	99
Es	3.027232	0.909376	0.963669	99
Es	-0.793757	-1.581594	-0.915239	99
Es	-3.043399	-0.729507	-0.348816	99
Es	0.190067	0.270791	-0.366190	99
47
Properties=species:S:1:pos:R:3:Z:I:1 energy=-309.14787254008115 field_type=dipole dipole="0.000000 0.000000 0.000000" charge=0
C	-2.645758	-1.135678	-0.820270	6
C	-1.167148	-1.121458	-0.454420	6
C	-0.560268	0.284782	-0.534710	6
O	-1.248268	1.154142	0.356720	8
C	0.914662	0.257071	-0.218220	6
C	1.555982	0.983312	0.712700	6
C	3.027272	0.909371	0.963670	6
H	-3.033188	-2.159188	-0.783880	1
H	-2.802888	-0.749138	-1.832440	1
H	-3.235048	-0.529998	-0.124260	1
H	-0.629488	-1.802888	-1.124720	1
H	-1.065208	-1.517238	0.563930	1
H	-0.688448	0.684142	-1.547030	1
H	-1.147718	0.779191	1.247640	1
H	1.499592	-0.420258	-0.839830	1
H	1.006132	1.692802	1.327720	1
H	3.527522	0.205032	0.291930	1
H	3.213232	0.590262	1.993660	1
H	3.479042	1.895742	0.821810	1
Es	-1.026511	0.792333	0.022522	99
Es	-1.248121	1.153911	0.356794	99
Es	-3.043594	-0.729793	-0.349414	99
Es	1.306861	-0.206800	-0.647412	99
Es	-0.793615	-1.581424	-0.914942	99
Es	3.322198	1.575539	0.866311	99
Es	1.556058	0.983350	0.712782	99
Es	-1.157402	0.958393	0.840719	99
Es	1.278710	0.856540	0.024065	99
Es	-1.104640	1.405239	0.333060	99
Es	-2.645718	-1.135688	-0.820273	99
Es	-0.854876	-0.423425	-0.494907	99
Es	1.191446	1.458296	1.139743	99
Es	-1.167169	-1.121442	-0.454432	99
Es	3.146632	0.696282	1.664109	99
Es	1.172207	0.365948	0.474569	99
Es	0.914601	0.257003	-0.218304	99
Es	3.027232	0.909377	0.963670	99
Es	2.291598	0.940582	0.834410	99
Es	-0.643004	0.553446	-1.221585	99
Es	-0.560336	0.284891	-0.534529	99
Es	-2.748190	-0.870689	-1.513689	99
Es	0.190240	0.270643	-0.366502	99
Es	-1.905210	-1.118629	-0.639495	99
Es	-1.517827	1.142438	0.315707	99
Es	-1.092464	-1.383740	0.248910	99
Es	-2.906114	-1.837559	-0.794812	99
Es	3.362192	0.429039	0.503055	99
47
Properties=species:S:1:pos:R:3:Z:I:1 energy=-309.14787254008115 field_type=dipole dipole="0.000000 0.000000 0.000000" charge=0
C	-2.645758	-1.135678	-0.820270	6
C	-1.167148	-1.121458	-0.454420	6
C	-0.560268	0.284782	-0.534710	6
O	-1.248268	1.154142	0.356720	8
C	0.914662	0.257071	-0.218220	6
C	1.555982	0.983312	0.712700	6
C	3.027272	0.909371	0.963670	6
H	-3.033188	-2.159188	-0.783880	1
H	-2.802888	-0.749138	-1.832440	1
H	-3.235048	-0.529998	-0.124260	1
H	-0.629488	-1.802888	-1.124720	1
H	-1.065208	-1.517238	0.563930	1
H	-0.688448	0.684142	-1.547030	1
H	-1.147718	0.779191	1.247640	1
H	1.499592	-0.420258	-0.839830	1
H	1.006132	1.692802	1.327720	1
H	3.527522	0.205032	0.291930	1
H	3.213232	0.590262	1.993660	1
H	3.479042	1.895742	0.821810	1
Es	3.321892	1.575200	0.866147	99
Es	1.278453	0.856464	0.024299	99
Es	-1.092447	-1.383660	0.248631	99
Es	1.307050	-0.206547	-0.647371	99
Es	-1.040693	0.789860	0.019671	99
Es	3.146927	0.696703	1.664242	99
Es	-1.167167	-1.121440	-0.454432	99
Es	-1.905175	-1.118645	-0.639494	99
Es	-1.248150	1.153895	0.356782	99
Es	-1.507227	1.148737	0.318101	99
Es	-0.793448	-1.581326	-0.914632	99
Es	3.362340	0.429022	0.503036	99
Es	-3.043769	-0.729876	-0.349746	99
Es	0.190344	0.270472	-0.366579	99
Es	-2.645723	-1.135690	-0.820271	99
Es	1.191270	1.458076	1.139677	99
Es	-0.642925	0.553372	-1.221066	99
Es	1.556059	0.983347	0.712783	99
Es	-0.560335	0.284886	-0.534527	99
Es	-0.855031	-0.423346	-0.495194	99
Es	-2.748165	-0.870773	-1.513333	99
Es	-2.906253	-1.837617	-0.795026	99
Es	-1.102326	1.398078	0.332009	99
Es	0.914601	0.257008	-0.218308	99
Es	-1.156224	0.961713	0.842173	99
Es	3.027232	0.909376	0.963670	99
Es	1.172431	0.365990	0.474385	99
Es	2.291643	0.940780	0.834502	99
47
Properties=species:S:1:pos:R:3:Z:I:1 energy=-309.14787254008115 field_type=dipole dipole="0.000000 0.000000 0.000000" charge=0
C	-2.645758	-1.135678	-0.820270	6
C	-1.167148	-1.121458	-0.454420	6
C	-0.560268	0.284782	-0.534710	6
O	-1.248268	1.154142	0.356720	8
C	0.914662	0.257071	-0.218220	6
C	1.555982	0.983312	0.712700	6
C	3.027272	0.909371	0.963670	6
H	-3.033188	-2.159188	-0.783880	1
H	-2.802888	-0.749138	-1.832440	1
H	-3.235048	-0.529998	-0.124260	1
H	-0.629488	-1.802888	-1.124720	1
H	-1.065208	-1.517238	0.563930	1
H	-0.688448	0.684142	-1.547030	1
H	-1.147718	0.779191	1.247640	1
H	1.499592	-0.420258	-0.839830	1
H	1.006132	1.692802	1.327720	1
H	3.527522	0.205032	0.291930	1
H	3.213232	0.590262	1.993660	1
H	3.479042	1.895742	0.821810	1
Es	-2.645721	-1.135691	-0.820272	99
Es	-1.110349	1.394104	0.328894	99
Es	-0.560335	0.284889	-0.534528	99
Es	0.914599	0.257004	-0.218305	99
Es	-1.167167	-1.121440	-0.454431	99
Es	1.191245	1.457883	1.139696	99
Es	-1.248116	1.153908	0.356801	99
Es	-1.046492	0.789556	0.018087	99
Es	0.190332	0.270172	-0.366665	99
Es	-0.855228	-0.423427	-0.495457	99
Es	1.556057	0.983350	0.712782	99
Es	-2.748112	-0.870781	-1.513036	99
Es	-3.043835	-0.730053	-0.350267	99
Es	3.362446	0.429125	0.503099	99
Es	3.146890	0.696701	1.664204	99
Es	-1.149848	0.970119	0.843511	99
Es	-2.906431	-1.837804	-0.795128	99
Es	-0.793347	-1.581256	-0.914356	99
Es	1.307089	-0.206310	-0.647217	99
Es	2.291603	0.940926	0.834365	99
Es	-1.092516	-1.383621	0.248465	99
Es	-0.642768	0.553446	-1.220613	99
Es	1.172666	0.365845	0.474377	99
Es	-1.499740	1.144546	0.321413	99
Es	-1.905120	-1.118422	-0.639384	99
Es	3.027231	0.909377	0.963669	99
Es	3.321856	1.575243	0.866210	99
Es	1.278298	0.856673	0.024216	99
47
Properties=species:S:1:pos:R:3:Z:I:1 energy=-309.14787254008115 field_type=dipole dipole="0.000000 0.000000 0.000000" charge=0
C	-2.645758	-1.135678	-0.820270	6
C	-1.167148	-1.121458	-0.454420	6
C	-0.560268	0.284782	-0.534710	6
O	-1.248268	1.154142	0.356720	8
C	0.914662	0.257071	-0.218220	6
C	1.555982	0.983312	0.712700	6
C	3.027272	0.909371	0.963670	6
H	-3.033188	-2.159188	-0.783880	1
H	-2.802888	-0.749138	-1.832440	1
H	-3.235048	-0.529998	-0.124260	1
H	-0.629488	-1.802888	-1.124720	1
H	-1.065208	-1.517238	0.563930	1
H	-0.688448	0.684142	-1.547030	1
H	-1.147718	0.779191	1.247640	1
H	1.499592	-0.420258	-0.839830	1
H	1.006132	1.692802	1.327720	1
H	3.527522	0.205032	0.291930	1
H	3.213232	0.590262	1.993660	1
H	3.479042	1.895742	0.821810	1
Es	1.556059	0.983351	0.712781	99
Es	-1.092446	-1.383593	0.248269	99
Es	1.191211	1.457816	1.139736	99
Es	1.172817	0.365694	0.474313	99
Es	-0.855316	-0.423513	-0.495818	99
Es	-1.146348	0.974394	0.843867	99
Es	-1.167167	-1.121441	-0.454431	99
Es	3.146982	0.696794	1.664090	99
Es	3.362342	0.429010	0.503008	99
Es	-1.248115	1.153877	0.356820	99
Es	0.190404	0.270162	-0.366954	99
Es	3.321930	1.575148	0.866235	99
Es	-0.642735	0.553449	-1.220034	99
Es	-2.906523	-1.837779	-0.795221	99
Es	-1.114388	1.390652	0.328344	99
Es	1.307170	-0.206024	-0.647155	99
Es	-1.905101	-1.118273	-0.639034	99
Es	-3.043957	-0.730253	-0.350658	99
Es	-1.053583	0.789888	0.016057	99
Es	-0.560335	0.284891	-0.534531	99
Es	2.291586	0.941198	0.834441	99
Es	-0.793347	-1.581235	-0.914249	99
Es	-2.645721	-1.135690	-0.820272	99
Es	-1.492130	1.143309	0.323669	99
Es	0.914600	0.257004	-0.218305	99
Es	3.027233	0.909376	0.963669	99
Es	1.278143	0.856673	0.024392	99
Es	-2.748080	-0.870827	-1.512901	99
47
Properties=species:S:1:pos:R:3:Z:I:1 energy=-309.14787254008115 field_type=dipole dipole="0.000000 0.000000 0.000000" charge=0
C	-2.645758	-1.135678	-0.820270	6
C	-1.167148	-1.121458	-0.454420	6
C	-0.560268	0.284782	-0.534710	6
O	-1.248268	1.154142	0.356720	8
C	0.914662	0.257071	-0.218220	6
C	1.555982	0.983312	0.712700	6
C	3.027272	0.909371	0.963670	6
H	-3.033188	-2.159188	-0.783880	1
H	-2.802888	-0.749138	-1.832440	1
H	-3.235048	-0.529998	-0.124260	1
H	-0.629488	-1.802888	-1.124720	1
H	-1.065208	-1.517238	0.563930	1
H	-0.688448	0.684142	-1.547030	1
H	-1.147718	0.779191	1.247640	1
H	1.499592	-0.420258	-0.839830	1
H	1.006132	1.692802	1.327720	1
H	3.527522	0.205032	0.291930	1
H	3.213232	0.590262	1.993660	1
H	3.479042	1.895742	0.821810	1
Es	-0.642490	0.553469	-1.219468	99
Es	3.027231	0.909376	0.963669	99
Es	-2.906534	-1.837832	-0.795275	99
Es	1.278080	0.856752	0.024319	99
Es	-1.092532	-1.383539	0.248006	99
Es	-1.114357	1.386379	0.328105	99
Es	1.556060	0.983351	0.712781	99
Es	3.147453	0.697466	1.664479	99
Es	2.291526	0.941162	0.834490	99
Es	-1.167167	-1.121440	-0.454432	99
Es	-1.485799	1.144721	0.323229	99
Es	1.172921	0.365795	0.474242	99
Es	-0.560333	0.284889	-0.534531	99
Es	-3.044051	-0.730343	-0.350900	99
Es	-0.793220	-1.581179	-0.913973	99
Es	3.362412	0.428957	0.503003	99
Es	1.307269	-0.205906	-0.646918	99
Es	0.914600	0.257003	-0.218304	99
Es	1.191202	1.457753	1.139803	99
Es	-1.146816	0.977580	0.845018	99
Es	-1.248224	1.154050	0.356751	99
Es	-0.855606	-0.423507	-0.496115	99
Es	-2.748133	-0.870941	-1.512703	99
Es	0.190453	0.269919	-0.367052	99
Es	3.321408	1.574647	0.865765	99
Es	-2.645721	-1.135691	-0.820272	99
Es	-1.905073	-1.118215	-0.639129	99
Es	-1.059372	0.789388	0.015539	99
47
Properties=species:S:1:pos:R:3:Z:I:1 energy=-309.14787254008115 field_type=dipole dipole="0.000000 0.000000 0.000000" charge=0
C	-2.645758	-1.135678	-0.820270	6
C	-1.167148	-1.121458	-0.454420	6
C	-0.560268	0.284782	-0.534710	6
O	-1.248268	1.154142	0.356720	8
C	0.914662	0.257071	-0.218220	6
C	1.555982	0.983312	0.712700	6
C	3.027272	0.909371	0.963670	6
H	-3.033188	-2.159188	-0.783880	1
H	-2.802888	-0.749138	-1.832440	1
H	-3.235048	-0.529998	-0.124260	1
H	-0.629488	-1.802888	-1.124720	1
H	-1.065208	-1.517238	0.563930	1
H	-0.688448	0.684142	-1.547030	1
H	-1.147718	0.779191	1.247640	1
H	1.499592	-0.420258	-0.839830	1
H	1.006132	1.692802	1.327720	1
H	3.527522	0.205032	0.291930	1
H	3.213232	0.590262	1.993660	1
H	3.479042	1.895742	0.821810	1
Es	-1.092600	-1.383618	0.247904	99
Es	-1.142655	0.983822	0.845017	99
Es	-1.066216	0.789407	0.014925	99
Es	-1.905064	-1.118211	-0.639088	99
Es	-0.642338	0.553562	-1.219156	99
Es	3.027233	0.909376	0.963670	99
Es	1.556060	0.983348	0.712786	99
Es	-1.117588	1.380283	0.327522	99
Es	-2.906617	-1.838000	-0.795634	99
Es	-3.044152	-0.730429	-0.350958	99
Es	-0.793205	-1.581118	-0.913899	99
Es	-1.167167	-1.121440	-0.454432	99
Es	1.277936	0.856811	0.024308	99
Es	0.914604	0.257013	-0.218310	99
Es	3.321621	1.574920	0.866014	99
Es	3.362313	0.428904	0.502870	99
Es	2.291796	0.941460	0.834670	99
Es	1.173080	0.365703	0.474255	99
Es	1.307217	-0.205727	-0.646961	99
Es	-2.747959	-0.870763	-1.512401	99
Es	3.147219	0.697182	1.664250	99
Es	-0.855654	-0.423504	-0.496351	99
Es	-1.248227	1.154093	0.356735	99
Es	1.191087	1.457583	1.139660	99
Es	-2.645722	-1.135690	-0.820272	99
Es	-0.560334	0.284890	-0.534530	99
Es	-1.479919	1.144427	0.324530	99
Es	0.190436	0.269776	-0.366995	99
47
Properties=species:S:1:pos:R:3:Z:I:1 energy=-309.14787254008115 field_type=dipole dipole="0.000000 0.000000 0.000000" charge=0
C	-2.645758	-1.135678	-0.820270	6
C	-1.167148	-1.121458	-0.454420	6
C	-0.560268	0.284782	-0.534710	6
O	-1.248268	1.154142	0.356720	8
C	0.914662	0.257071	-0.218220	6
C	1.555982	0.983312	0.712700	6
C	3.027272	0.909371	0.963670	6
H	-3.033188	-2.159188	-0.783880	1
H	-2.802888	-0.749138	-1.832440	1
H	-3.235048	-0.529998	-0.124260	1
H	-0.629488	-1.802888	-1.124720	1
H	-1.065208	-1.517238	0.563930	1
H	-0.688448	0.684142	-1.547030	1
H	-1.147718	0.779191	1.247640	1
H	1.499592	-0.420258	-0.839830	1
H	1.006132	1.692802	1.327720	1
H	3.527522	0.205032	0.291930	1
H	3.213232	0.590262	1.993660	1
H	3.479042	1.895742	0.821810	1
Es	3.362354	0.429016	0.503066	99
Es	-2.747865	-0.870606	-1.512187	99
Es	-2.906824	-1.838180	-0.795769	99
Es	1.191065	1.457385	1.139654	99
Es	-1.092651	-1.383715	0.247861	99
Es	-1.167167	-1.121439	-0.454432	99
Es	1.307284	-0.205559	-0.646905	99
Es	-1.139126	0.990179	0.844968	99
Es	-1.068694	0.790134	0.014078	99
Es	-1.248158	1.153960	0.356773	99
Es	3.027233	0.909376	0.963669	99
Es	-0.793252	-1.580969	-0.913678	99
Es	-1.905062	-1.118210	-0.639129	99
Es	3.147055	0.696971	1.664094	99
Es	-1.123556	1.376589	0.327248	99
Es	1.173203	0.365537	0.474261	99
Es	-2.645722	-1.135691	-0.820272	99
Es	1.277782	0.856982	0.024322	99
Es	3.321816	1.575172	0.866118	99
Es	-3.044057	-0.730530	-0.351195	99
Es	-0.642331	0.553547	-1.218936	99
Es	0.190347	0.269684	-0.367275	99
Es	-1.474946	1.141195	0.325769	99
Es	2.291736	0.941550	0.834500	99
Es	-0.560334	0.284890	-0.534531	99
Es	-0.855602	-0.423563	-0.496419	99
Es	1.556059	0.983351	0.712781	99
Es	0.914600	0.257006	-0.218306	99
