45
Properties=species:S:1:pos:R:3:Z:I:1 energy=-345.01351852368066 field_type=dipole dipole="0.000000 0.000000 0.000000" charge=0
C	-1.075068	-1.178743	1.218930	6
C	-0.890558	-0.875203	-0.264160	6
C	-0.520108	0.580197	-0.555130	6
O	-1.498178	1.449287	0.009250	8
C	0.877293	0.935637	-0.041640	6
C	2.055153	0.446947	-0.839350	6
O	1.021313	1.594267	0.992070	8
H	-1.351887	-2.228693	1.353740	1
H	-1.870647	-0.567213	1.655050	1
H	-0.154138	-0.999263	1.780170	1
H	-1.837927	-1.103603	-0.768730	1
H	-0.133367	-1.551453	-0.676710	1
H	-0.531377	0.754457	-1.637420	1
H	-1.136907	1.738787	0.872230	1
H	2.123183	-0.641103	-0.777960	1
H	2.974832	0.884177	-0.439260	1
H	1.948392	0.761517	-1.881080	1
Es	-0.510158	0.694056	-1.292266	99
Es	2.666890	0.736750	-0.572166	99
Es	-0.672418	-0.141669	-0.399313	99
Es	2.081187	-0.276476	-0.794244	99
Es	-0.520190	0.580319	-0.554996	99
Es	0.877304	0.935628	-0.041636	99
Es	1.021266	1.594076	0.991812	99
Es	-0.972560	-1.012491	0.477751	99
Es	1.464097	0.682279	-0.449964	99
Es	1.318483	1.647500	1.069798	99
Es	-1.497879	1.449189	0.009393	99
Es	1.967011	0.655687	-1.533608	99
Es	-1.497127	1.695068	-0.169132	99
Es	-0.362504	-1.330111	-0.549019	99
Es	-1.261180	-1.894570	1.303258	99
Es	-0.890524	-0.875165	-0.264139	99
Es	-1.611149	-0.764282	1.511554	99
Es	0.974206	1.148693	0.760809	99
Es	-1.075051	-1.178743	1.218879	99
Es	-0.444050	-1.055655	1.594703	99
Es	-1.747944	1.276395	0.055425	99
Es	2.055090	0.446941	-0.839342	99
Es	-1.106265	1.115062	-0.185410	99
Es	0.187110	0.753308	-0.297272	99
Es	0.966451	1.571974	0.488496	99
Es	-1.300644	1.584216	0.461231	99
Es	-1.529382	-1.022892	-0.612988	99
Es	0.735807	1.671713	1.122046	99
45
Properties=species:S:1:pos:R:3:Z:I:1 energy=-345.01351852368066 field_type=dipole dipole="0.000000 0.000000 0.000000" charge=0
C	-1.075068	-1.178743	1.218930	6
C	-0.890558	-0.875203	-0.264160	6
C	-0.520108	0.580197	-0.555130	6
O	-1.498178	1.449287	0.009250	8
C	0.877293	0.935637	-0.041640	6
C	2.055153	0.446947	-0.839350	6
O	1.021313	1.594267	0.992070	8
H	-1.351887	-2.228693	1.353740	1
H	-1.870647	-0.567213	1.655050	1
H	-0.154138	-0.999263	1.780170	1
H	-1.837927	-1.103603	-0.768730	1
H	-0.133367	-1.551453	-0.676710	1
H	-0.531377	0.754457	-1.637420	1
H	-1.136907	1.738787	0.872230	1
H	2.123183	-0.641103	-0.777960	1
H	2.974832	0.884177	-0.439260	1
H	1.948392	0.761517	-1.881080	1
Es	2.667363	0.736586	-0.571935	99
Es	-0.443844	-1.055896	1.595090	99
Es	-1.529411	-1.022363	-0.613446	99
Es	-1.075052	-1.178742	1.218883	99
Es	0.187370	0.752589	-0.296858	99
Es	-1.746555	1.280126	0.050964	99
Es	1.021255	1.594116	0.991831	99
Es	2.080814	-0.275545	-0.794094	99
Es	0.736094	1.672328	1.122505	99
Es	-1.497964	1.449209	0.009366	99
Es	-0.520195	0.580322	-0.554992	99
Es	0.965405	1.571338	0.489481	99
Es	-1.611253	-0.764535	1.511589	99
Es	-1.497761	1.684575	-0.164723	99
Es	-0.362390	-1.329811	-0.549405	99
Es	2.055092	0.446946	-0.839340	99
Es	0.877304	0.935640	-0.041648	99
Es	-1.106754	1.115162	-0.189843	99
Es	-1.261192	-1.893755	1.303383	99
Es	-0.890524	-0.875165	-0.264138	99
Es	-1.300674	1.590789	0.466015	99
Es	1.319389	1.648258	1.068449	99
Es	1.463885	0.681900	-0.449921	99
Es	1.966899	0.655122	-1.534111	99
Es	0.974007	1.148215	0.760991	99
Es	-0.672220	-0.141336	-0.399106	99
Es	-0.972637	-1.012651	0.477947	99
Es	-0.510574	0.693380	-1.293274	99
45
Properties=species:S:1:pos:R:3:Z:I:1 energy=-345.01351852368066 field_type=dipole dipole="0.000000 0.000000 0.000000" charge=0
C	-1.075068	-1.178743	1.218930	6
C	-0.890558	-0.875203	-0.264160	6
C	-0.520108	0.580197	-0.555130	6
O	-1.498178	1.449287	0.009250	8
C	0.877293	0.935637	-0.041640	6
C	2.055153	0.446947	-0.839350	6
O	1.021313	1.594267	0.992070	8
H	-1.351887	-2.228693	1.353740	1
H	-1.870647	-0.567213	1.655050	1
H	-0.154138	-0.999263	1.780170	1
H	-1.837927	-1.103603	-0.768730	1
H	-0.133367	-1.551453	-0.676710	1
H	-0.531377	0.754457	-1.637420	1
H	-1.136907	1.738787	0.872230	1
H	2.123183	-0.641103	-0.777960	1
H	2.974832	0.884177	-0.439260	1
H	1.948392	0.761517	-1.881080	1
Es	-1.529269	-1.022238	-0.613799	99
Es	1.318862	1.650059	1.070581	99
Es	-0.520195	0.580321	-0.554990	99
Es	2.080695	-0.274912	-0.793653	99
Es	-1.494092	1.676501	-0.159988	99
Es	-0.972773	-1.012953	0.478065	99
Es	1.021262	1.594117	0.991842	99
Es	-1.611386	-0.764785	1.511574	99
Es	-0.511009	0.692820	-1.294001	99
Es	0.974100	1.147084	0.761461	99
Es	2.667472	0.736813	-0.571630	99
Es	-1.260997	-1.893071	1.303757	99
Es	-0.672162	-0.141030	-0.399108	99
Es	-0.890524	-0.875165	-0.264138	99
Es	-1.075052	-1.178742	1.218882	99
Es	-1.746514	1.288380	0.046320	99
Es	0.877301	0.935627	-0.041647	99
Es	2.055090	0.446944	-0.839342	99
Es	0.735489	1.672099	1.119632	99
Es	1.966791	0.654584	-1.534662	99
Es	0.187519	0.752083	-0.296654	99
Es	-1.109439	1.111039	-0.192605	99
Es	-1.497921	1.448933	0.009555	99
Es	1.463748	0.681463	-0.450184	99
Es	-0.362287	-1.329403	-0.549620	99
Es	-1.301554	1.594930	0.468786	99
Es	0.966462	1.571146	0.489929	99
Es	-0.443739	-1.055844	1.595294	99
45
Properties=species:S:1:pos:R:3:Z:I:1 energy=-345.01351852368066 field_type=dipole dipole="0.000000 0.000000 0.000000" charge=0
C	-1.075068	-1.178743	1.218930	6
C	-0.890558	-0.875203	-0.264160	6
C	-0.520108	0.580197	-0.555130	6
O	-1.498178	1.449287	0.009250	8
C	0.877293	0.935637	-0.041640	6
C	2.055153	0.446947	-0.839350	6
O	1.021313	1.594267	0.992070	8
H	-1.351887	-2.228693	1.353740	1
H	-1.870647	-0.567213	1.655050	1
H	-0.154138	-0.999263	1.780170	1
H	-1.837927	-1.103603	-0.768730	1
H	-0.133367	-1.551453	-0.676710	1
H	-0.531377	0.754457	-1.637420	1
H	-1.136907	1.738787	0.872230	1
H	2.123183	-0.641103	-0.777960	1
H	2.974832	0.884177	-0.439260	1
H	1.948392	0.761517	-1.881080	1
Es	2.667466	0.736807	-0.571381	99
Es	1.318277	1.654086	1.077113	99
Es	0.735116	1.668305	1.113270	99
Es	-1.528968	-1.021862	-0.613829	99
Es	-0.520194	0.580321	-0.554996	99
Es	0.187474	0.751615	-0.296506	99
Es	2.055089	0.446944	-0.839342	99
Es	-0.972888	-1.013097	0.478085	99
Es	-0.443845	-1.055845	1.595511	99
Es	-1.260966	-1.892645	1.304069	99
Es	-1.111732	1.108201	-0.195534	99
Es	0.967083	1.572070	0.490093	99
Es	0.877303	0.935627	-0.041649	99
Es	0.974254	1.146299	0.761261	99
Es	1.966791	0.654381	-1.535034	99
Es	-1.492735	1.669271	-0.155692	99
Es	-1.497852	1.449154	0.009424	99
Es	2.080667	-0.274425	-0.793533	99
Es	-1.611367	-0.764909	1.511489	99
Es	-0.890525	-0.875165	-0.264139	99
Es	-1.075051	-1.178742	1.218881	99
Es	1.463651	0.681066	-0.450172	99
Es	-1.745095	1.293749	0.044470	99
Es	-1.301984	1.599406	0.469561	99
Es	1.021313	1.594078	0.991778	99
Es	-0.671791	-0.140637	-0.398996	99
Es	-0.511240	0.692241	-1.294635	99
Es	-0.362374	-1.329494	-0.549912	99
45
Properties=species:S:1:pos:R:3:Z:I:1 energy=-345.01351852368066 field_type=dipole dipole="0.000000 0.000000 0.000000" charge=0
C	-1.075068	-1.178743	1.218930	6
C	-0.890558	-0.875203	-0.264160	6
C	-0.520108	0.580197	-0.555130	6
O	-1.498178	1.449287	0.009250	8
C	0.877293	0.935637	-0.041640	6
C	2.055153	0.446947	-0.839350	6
O	1.021313	1.594267	0.992070	8
H	-1.351887	-2.228693	1.353740	1
H	-1.870647	-0.567213	1.655050	1
H	-0.154138	-0.999263	1.780170	1
H	-1.837927	-1.103603	-0.768730	1
H	-0.133367	-1.551453	-0.676710	1
H	-0.531377	0.754457	-1.637420	1
H	-1.136907	1.738787	0.872230	1
H	2.123183	-0.641103	-0.777960	1
H	2.974832	0.884177	-0.439260	1
H	1.948392	0.761517	-1.881080	1
Es	1.021257	1.594078	0.991779	99
Es	-1.302081	1.603393	0.469717	99
Es	-1.611281	-0.765040	1.511522	99
Es	0.968668	1.572866	0.491665	99
Es	2.055090	0.446944	-0.839340	99
Es	0.733362	1.663787	1.106283	99
Es	-1.741692	1.297369	0.044128	99
Es	1.316454	1.659411	1.084024	99
Es	-1.113739	1.106959	-0.199253	99
Es	-0.520194	0.580321	-0.554993	99
Es	2.667456	0.736829	-0.571493	99
Es	-1.260831	-1.892337	1.304480	99
Es	-0.671641	-0.140081	-0.398942	99
Es	-0.511599	0.691597	-1.295255	99
Es	-0.362383	-1.329332	-0.549990	99
Es	0.976239	1.144998	0.759774	99
Es	-1.528869	-1.021826	-0.613963	99
Es	-0.890525	-0.875165	-0.264139	99
Es	0.877304	0.935626	-0.041644	99
Es	-1.497887	1.449093	0.009463	99
Es	-1.493757	1.662982	-0.151667	99
Es	0.187526	0.751131	-0.296276	99
Es	1.966660	0.653884	-1.535546	99
Es	1.463680	0.680915	-0.450094	99
Es	-0.973014	-1.013188	0.478047	99
Es	-0.443886	-1.055707	1.595485	99
Es	-1.075052	-1.178741	1.218880	99
Es	2.080612	-0.273967	-0.792993	99
45
Properties=species:S:1:pos:R:3:Z:I:1 energy=-345.01351852368066 field_type=dipole dipole="0.000000 0.000000 0.000000" charge=0
C	-1.075068	-1.178743	1.218930	6
C	-0.890558	-0.875203	-0.264160	6
C	-0.520108	0.580197	-0.555130	6
O	-1.498178	1.449287	0.009250	8
C	0.877293	0.935637	-0.041640	6
C	2.055153	0.446947	-0.839350	6
O	1.021313	1.594267	0.992070	8
H	-1.351887	-2.228693	1.353740	1
H	-1.870647	-0.567213	1.655050	1
H	-0.154138	-0.999263	1.780170	1
H	-1.837927	-1.103603	-0.768730	1
H	-0.133367	-1.551453	-0.676710	1
H	-0.531377	0.754457	-1.637420	1
H	-1.136907	1.738787	0.872230	1
H	2.123183	-0.641103	-0.777960	1
H	2.974832	0.884177	-0.439260	1
H	1.948392	0.761517	-1.881080	1
Es	-1.490957	1.656986	-0.146649	99
Es	-1.303370	1.606072	0.470092	99
Es	0.877305	0.935616	-0.041639	99
Es	-1.611280	-0.764994	1.511718	99
Es	1.315119	1.663891	1.090698	99
Es	0.187446	0.750732	-0.296097	99
Es	-1.260710	-1.891956	1.304730	99
Es	-1.075051	-1.178741	1.218881	99
Es	-0.511738	0.691225	-1.295652	99
Es	-0.362458	-1.329360	-0.550293	99
Es	-1.528634	-1.021608	-0.613868	99
Es	-0.973014	-1.013156	0.478169	99
Es	-1.740316	1.302984	0.041587	99
Es	-0.671617	-0.139942	-0.399136	99
Es	-0.443989	-1.055863	1.595398	99
Es	2.055090	0.446944	-0.839340	99
Es	2.667313	0.737051	-0.571158	99
Es	0.969132	1.574093	0.493760	99
Es	0.733757	1.659564	1.099623	99
Es	-0.520193	0.580320	-0.554994	99
Es	0.976514	1.143685	0.757757	99
Es	1.021352	1.594064	0.991757	99
Es	-1.116386	1.104661	-0.201848	99
Es	-0.890523	-0.875164	-0.264139	99
Es	-1.497914	1.449163	0.009400	99
Es	2.080680	-0.273639	-0.792749	99
Es	1.966742	0.653625	-1.535879	99
Es	1.463577	0.680547	-0.450471	99
45
Properties=species:S:1:pos:R:3:Z:I:1 energy=-345.01351852368066 field_type=dipole dipole="0.000000 0.000000 0.000000" charge=0
C	-1.075068	-1.178743	1.218930	6
C	-0.890558	-0.875203	-0.264160	6
C	-0.520108	0.580197	-0.555130	6
O	-1.498178	1.449287	0.009250	8
C	0.877293	0.935637	-0.041640	6
C	2.055153	0.446947	-0.839350	6
O	1.021313	1.594267	0.992070	8
H	-1.351887	-2.228693	1.353740	1
H	-1.870647	-0.567213	1.655050	1
H	-0.154138	-0.999263	1.780170	1
H	-1.837927	-1.103603	-0.768730	1
H	-0.133367	-1.551453	-0.676710	1
H	-0.531377	0.754457	-1.637420	1
H	-1.136907	1.738787	0.872230	1
H	2.123183	-0.641103	-0.777960	1
H	2.974832	0.884177	-0.439260	1
H	1.948392	0.761517	-1.881080	1
Es	-0.362260	-1.330158	-0.551174	99
Es	0.877304	0.935622	-0.041644	99
Es	2.080995	-0.273462	-0.792800	99
Es	-1.528083	-1.020792	-0.613132	99
Es	-0.973004	-1.013187	0.478069	99
Es	-1.117504	1.103766	-0.203500	99
Es	0.187275	0.750671	-0.295934	99
Es	-0.520192	0.580319	-0.554993	99
Es	-1.260309	-1.891528	1.304935	99
Es	2.055089	0.446944	-0.839342	99
Es	1.463095	0.680877	-0.450178	99
Es	1.021460	1.594037	0.991711	99
Es	2.667077	0.736596	-0.571694	99
Es	0.736506	1.642014	1.072380	99
Es	-0.511779	0.690804	-1.296004	99
Es	-1.305091	1.608130	0.470195	99
Es	0.981839	1.143830	0.760001	99
Es	-1.611564	-0.764291	1.512507	99
Es	-0.890525	-0.875165	-0.264140	99
Es	-0.671602	-0.139815	-0.399001	99
Es	1.967151	0.653398	-1.535881	99
Es	-1.484642	1.649929	-0.139597	99
Es	-1.497857	1.449270	0.009356	99
Es	-1.743865	1.308882	0.036375	99
Es	1.302961	1.682799	1.117608	99
Es	-1.075051	-1.178743	1.218879	99
Es	0.972924	1.572643	0.491929	99
Es	-0.444475	-1.056585	1.594730	99
45
Properties=species:S:1:pos:R:3:Z:I:1 energy=-345.01351852368066 field_type=dipole dipole="0.000000 0.000000 0.000000" charge=0
C	-1.075068	-1.178743	1.218930	6
C	-0.890558	-0.875203	-0.264160	6
C	-0.520108	0.580197	-0.555130	6
O	-1.498178	1.449287	0.009250	8
C	0.877293	0.935637	-0.041640	6
C	2.055153	0.446947	-0.839350	6
O	1.021313	1.594267	0.992070	8
H	-1.351887	-2.228693	1.353740	1
H	-1.870647	-0.567213	1.655050	1
H	-0.154138	-0.999263	1.780170	1
H	-1.837927	-1.103603	-0.768730	1
H	-0.133367	-1.551453	-0.676710	1
H	-0.531377	0.754457	-1.637420	1
H	-1.136907	1.738787	0.872230	1
H	2.123183	-0.641103	-0.777960	1
H	2.974832	0.884177	-0.439260	1
H	1.948392	0.761517	-1.881080	1
Es	-1.611753	-0.763878	1.512930	99
Es	-0.972986	-1.013169	0.478060	99
Es	-0.444704	-1.056928	1.594303	99
Es	-1.075052	-1.178741	1.218880	99
Es	1.967253	0.653195	-1.535737	99
Es	2.081210	-0.273348	-0.792919	99
Es	-1.118048	1.104842	-0.206428	99
Es	-1.497862	1.449017	0.009512	99
Es	2.055091	0.446944	-0.839342	99
Es	-1.305908	1.608204	0.470677	99
Es	0.741815	1.632536	1.058580	99
Es	-0.520193	0.580321	-0.554994	99
Es	-0.671690	-0.139602	-0.398966	99
Es	0.877304	0.935628	-0.041645	99
Es	-0.362040	-1.330503	-0.551607	99
Es	-0.890525	-0.875166	-0.264139	99
Es	-0.511896	0.690384	-1.296243	99
Es	1.293983	1.692755	1.131071	99
Es	-1.527851	-1.020430	-0.612787	99
Es	0.187316	0.750423	-0.295725	99
Es	-1.260040	-1.891279	1.305054	99
Es	1.021322	1.594065	0.991759	99
Es	0.984438	1.143353	0.759710	99
Es	1.462817	0.680994	-0.449954	99
Es	-1.745314	1.312021	0.033671	99
Es	0.973991	1.572742	0.492466	99
Es	2.667053	0.736487	-0.572043	99
Es	-1.481857	1.645935	-0.134485	99
45
Properties=species:S:1:pos:R:3:Z:I:1 energy=-345.01351852368066 field_type=dipole dipole="0.000000 0.000000 0.000000" charge=0
C	-1.075068	-1.178743	1.218930	6
C	-0.890558	-0.875203	-0.264160	6
C	-0.520108	0.580197	-0.555130	6
O	-1.498178	1.449287	0.009250	8
C	0.877293	0.935637	-0.041640	6
C	2.055153	0.446947	-0.839350	6
O	1.021313	1.594267	0.992070	8
H	-1.351887	-2.228693	1.353740	1
H	-1.870647	-0.567213	1.655050	1
H	-0.154138	-0.999263	1.780170	1
H	-1.837927	-1.103603	-0.768730	1
H	-0.133367	-1.551453	-0.676710	1
H	-0.531377	0.754457	-1.637420	1
H	-1.136907	1.738787	0.872230	1
H	2.123183	-0.641103	-0.777960	1
H	2.974832	0.884177	-0.439260	1
H	1.948392	0.761517	-1.881080	1
Es	-1.497902	1.449107	0.009446	99
Es	-1.306157	1.610555	0.470022	99
Es	-0.362034	-1.330665	-0.551795	99
Es	-1.120049	1.103815	-0.207926	99
Es	-0.972985	-1.013239	0.478029	99
Es	1.967292	0.652819	-1.535917	99
Es	-0.511974	0.690227	-1.296309	99
Es	-1.745225	1.315648	0.032072	99
Es	-1.259841	-1.891037	1.305188	99
Es	0.877304	0.935628	-0.041647	99
Es	0.745342	1.629227	1.051109	99
Es	-1.527779	-1.020201	-0.612673	99
Es	-1.611894	-0.763784	1.513076	99
Es	2.055093	0.446944	-0.839342	99
Es	1.288669	1.696471	1.138439	99
Es	-0.890526	-0.875165	-0.264139	99
Es	2.081208	-0.272932	-0.792787	99
Es	1.462624	0.681037	-0.449798	99
Es	-0.444800	-1.056998	1.594169	99
Es	0.984168	1.143518	0.760230	99
Es	-0.520193	0.580320	-0.554994	99
Es	0.187251	0.750384	-0.295748	99
Es	2.667152	0.736285	-0.572268	99
Es	0.975914	1.572295	0.492151	99
Es	-1.075052	-1.178741	1.218882	99
Es	-1.479585	1.640972	-0.130488	99
Es	1.021451	1.593996	0.991645	99
Es	-0.671593	-0.139683	-0.398968	99
45
Properties=species:S:1:pos:R:3:Z:I:1 energy=-345.01351852368066 field_type=dipole dipole="0.000000 0.000000 0.000000" charge=0
C	-1.075068	-1.178743	1.218930	6
C	-0.890558	-0.875203	-0.264160	6
C	-0.520108	0.580197	-0.555130	6
O	-1.498178	1.449287	0.009250	8
C	0.877293	0.935637	-0.041640	6
C	2.055153	0.446947	-0.839350	6
O	1.021313	1.594267	0.992070	8
H	-1.351887	-2.228693	1.353740	1
H	-1.870647	-0.567213	1.655050	1
H	-0.154138	-0.999263	1.780170	1
H	-1.837927	-1.103603	-0.768730	1
H	-0.133367	-1.551453	-0.676710	1
H	-0.531377	0.754457	-1.637420	1
H	-1.136907	1.738787	0.872230	1
H	2.123183	-0.641103	-0.777960	1
H	2.974832	0.884177	-0.439260	1
H	1.948392	0.761517	-1.881080	1
Es	-0.890524	-0.875165	-0.264140	99
Es	-0.972843	-1.013097	0.478336	99
Es	-1.497795	1.449284	0.009369	99
Es	-1.530594	-1.024421	-0.617154	99
Es	0.812174	1.731126	1.201980	99
Es	-1.120316	1.101794	-0.202339	99
Es	0.877305	0.935625	-0.041645	99
Es	1.273809	1.590040	0.982463	99
Es	-0.520190	0.580319	-0.554995	99
Es	-0.513466	0.689413	-1.295991	99
Es	2.079005	-0.272621	-0.792462	99
Es	-1.765461	1.322369	0.022123	99
Es	2.055091	0.446944	-0.839342	99
Es	0.188633	0.750407	-0.296041	99
Es	2.668717	0.739269	-0.568230	99
Es	-0.442283	-1.053026	1.598887	99
Es	1.464873	0.678509	-0.452477	99
Es	-1.262177	-1.891501	1.304398	99
Es	1.020986	1.594049	0.991747	99
Es	-0.362965	-1.326094	-0.546952	99
Es	-0.670621	-0.138368	-0.398818	99
Es	-1.075052	-1.178741	1.218880	99
Es	-1.610206	-0.768090	1.507993	99
Es	0.955136	1.576053	0.495958	99
Es	1.965389	0.652811	-1.535906	99
Es	0.954535	1.144236	0.761305	99
Es	-1.465276	1.634075	-0.124877	99
Es	-1.300007	1.611603	0.467589	99
45
Properties=species:S:1:pos:R:3:Z:I:1 energy=-345.01351852368066 field_type=dipole dipole="0.000000 0.000000 0.000000" charge=0
C	-1.075068	-1.178743	1.218930	6
C	-0.890558	-0.875203	-0.264160	6
C	-0.520108	0.580197	-0.555130	6
O	-1.498178	1.449287	0.009250	8
C	0.877293	0.935637	-0.041640	6
C	2.055153	0.446947	-0.839350	6
O	1.021313	1.594267	0.992070	8
H	-1.351887	-2.228693	1.353740	1
H	-1.870647	-0.567213	1.655050	1
H	-0.154138	-0.999263	1.780170	1
H	-1.837927	-1.103603	-0.768730	1
H	-0.133367	-1.551453	-0.676710	1
H	-0.531377	0.754457	-1.637420	1
H	-1.136907	1.738787	0.872230	1
H	2.123183	-0.641103	-0.777960	1
H	2.974832	0.884177	-0.439260	1
H	1.948392	0.761517	-1.881080	1
Es	-0.972877	-1.013114	0.478359	99
Es	-0.890526	-0.875167	-0.264138	99
Es	0.950690	1.576221	0.496871	99
Es	-1.117775	1.104253	-0.201257	99
Es	0.837706	1.738721	1.215331	99
Es	1.253406	1.582467	0.967288	99
Es	-1.075051	-1.178741	1.218881	99
Es	2.078964	-0.272372	-0.792849	99
Es	-1.262058	-1.891320	1.304054	99
Es	-0.441985	-1.053398	1.598693	99
Es	-1.461661	1.630347	-0.121180	99
Es	0.188889	0.750373	-0.295909	99
Es	0.877304	0.935622	-0.041645	99
Es	1.464485	0.678821	-0.452061	99
Es	-0.670724	-0.138294	-0.398699	99
Es	1.021034	1.594062	0.991754	99
Es	2.055091	0.446944	-0.839342	99
Es	-1.610582	-0.767849	1.508288	99
Es	-1.530847	-1.024199	-0.617172	99
Es	-0.513607	0.689269	-1.295830	99
Es	0.953852	1.143953	0.762157	99
Es	-0.520193	0.580319	-0.554994	99
Es	-1.497851	1.449214	0.009392	99
Es	1.965395	0.652623	-1.535549	99
Es	-0.362714	-1.326193	-0.547017	99
Es	-1.299405	1.612164	0.466857	99
Es	2.669251	0.738953	-0.568646	99
Es	-1.772333	1.323121	0.018018	99
45
Properties=species:S:1:pos:R:3:Z:I:1 energy=-345.01351852368066 field_type=dipole dipole="0.000000 0.000000 0.000000" charge=0
C	-1.075068	-1.178743	1.218930	6
C	-0.890558	-0.875203	-0.264160	6
C	-0.520108	0.580197	-0.555130	6
O	-1.498178	1.449287	0.009250	8
C	0.877293	0.935637	-0.041640	6
C	2.055153	0.446947	-0.839350	6
O	1.021313	1.594267	0.992070	8
H	-1.351887	-2.228693	1.353740	1
H	-1.870647	-0.567213	1.655050	1
H	-0.154138	-0.999263	1.780170	1
H	-1.837927	-1.103603	-0.768730	1
H	-0.133367	-1.551453	-0.676710	1
H	-0.531377	0.754457	-1.637420	1
H	-1.136907	1.738787	0.872230	1
H	2.123183	-0.641103	-0.777960	1
H	2.974832	0.884177	-0.439260	1
H	1.948392	0.761517	-1.881080	1
Es	1.021141	1.594064	0.991766	99
Es	-0.520193	0.580320	-0.554995	99
Es	2.078774	-0.272114	-0.792882	99
Es	-0.890525	-0.875166	-0.264139	99
Es	-1.774281	1.323998	0.015921	99
Es	1.243445	1.577685	0.963489	99
Es	-0.362568	-1.326273	-0.546943	99
Es	-1.610735	-0.767922	1.508217	99
Es	0.951951	1.575816	0.495729	99
Es	0.848393	1.743303	1.218919	99
Es	-1.460599	1.627422	-0.118014	99
Es	2.055091	0.446944	-0.839342	99
Es	2.669470	0.738932	-0.568460	99
Es	-1.497899	1.449078	0.009466	99
Es	-1.075052	-1.178740	1.218880	99
Es	-0.441825	-1.053330	1.598756	99
Es	0.877304	0.935624	-0.041646	99
Es	-0.670688	-0.138353	-0.398641	99
Es	-0.972910	-1.012956	0.478411	99
Es	-0.513723	0.689138	-1.295708	99
Es	1.464464	0.678729	-0.452172	99
Es	0.951764	1.144612	0.763439	99
Es	-1.299707	1.612608	0.466781	99
Es	1.965430	0.652422	-1.535530	99
Es	-1.262003	-1.891308	1.303851	99
Es	0.188984	0.750406	-0.296053	99
Es	-1.116612	1.106041	-0.202267	99
Es	-1.531015	-1.024179	-0.617178	99
45
Properties=species:S:1:pos:R:3:Z:I:1 energy=-345.01351852368066 field_type=dipole dipole="0.000000 0.000000 0.000000" charge=0
C	-1.075068	-1.178743	1.218930	6
C	-0.890558	-0.875203	-0.264160	6
C	-0.520108	0.580197	-0.555130	6
O	-1.498178	1.449287	0.009250	8
C	0.877293	0.935637	-0.041640	6
C	2.055153	0.446947	-0.839350	6
O	1.021313	1.594267	0.992070	8
H	-1.351887	-2.228693	1.353740	1
H	-1.870647	-0.567213	1.655050	1
H	-0.154138	-0.999263	1.780170	1
H	-1.837927	-1.103603	-0.768730	1
H	-0.133367	-1.551453	-0.676710	1
H	-0.531377	0.754457	-1.637420	1
H	-1.136907	1.738787	0.872230	1
H	2.123183	-0.641103	-0.777960	1
H	2.974832	0.884177	-0.439260	1
H	1.948392	0.761517	-1.881080	1
Es	-0.361399	-1.331319	-0.552515	99
Es	-0.973091	-1.013276	0.477959	99
Es	-1.527821	-1.019342	-0.612183	99
Es	-1.752885	1.314941	0.028313	99
Es	1.244882	1.722325	1.177478	99
Es	-0.520190	0.580318	-0.554995	99
Es	2.667656	0.735884	-0.572809	99
Es	-0.444633	-1.057928	1.593521	99
Es	-0.512299	0.689465	-1.296349	99
Es	1.461643	0.681120	-0.449272	99
Es	2.081500	-0.272176	-0.793575	99
Es	2.055090	0.446944	-0.839342	99
Es	1.021338	1.594068	0.991762	99
Es	0.187649	0.750120	-0.295335	99
Es	-0.890528	-0.875165	-0.264140	99
Es	-0.671854	-0.139611	-0.398868	99
Es	-1.497914	1.449136	0.009431	99
Es	0.981141	1.573420	0.494810	99
Es	-1.306649	1.614605	0.468128	99
Es	-1.115305	1.110865	-0.211572	99
Es	1.967713	0.652178	-1.535237	99
Es	-1.075052	-1.178741	1.218880	99
Es	-1.259201	-1.889914	1.304875	99
Es	-1.476582	1.630615	-0.120958	99
Es	-1.612722	-0.763158	1.514016	99
Es	0.991641	1.142746	0.757906	99
Es	0.776443	1.603053	1.011372	99
Es	0.877304	0.935626	-0.041645	99
45
Properties=species:S:1:pos:R:3:Z:I:1 energy=-345.01351852368066 field_type=dipole dipole="0.000000 0.000000 0.000000" charge=0
C	-1.075068	-1.178743	1.218930	6
C	-0.890558	-0.875203	-0.264160	6
C	-0.520108	0.580197	-0.555130	6
O	-1.498178	1.449287	0.009250	8
C	0.877293	0.935637	-0.041640	6
C	2.055153	0.446947	-0.839350	6
O	1.021313	1.594267	0.992070	8
H	-1.351887	-2.228693	1.353740	1
H	-1.870647	-0.567213	1.655050	1
H	-0.154138	-0.999263	1.780170	1
H	-1.837927	-1.103603	-0.768730	1
H	-0.133367	-1.551453	-0.676710	1
H	-0.531377	0.754457	-1.637420	1
H	-1.136907	1.738787	0.872230	1
H	2.123183	-0.641103	-0.777960	1
H	2.974832	0.884177	-0.439260	1
H	1.948392	0.761517	-1.881080	1
Es	-1.497900	1.449072	0.009470	99
Es	-1.756044	1.320556	0.023696	99
Es	-0.361587	-1.331347	-0.552705	99
Es	-1.527498	-1.019320	-0.612018	99
Es	-0.444897	-1.057934	1.593335	99
Es	-1.471475	1.626864	-0.116848	99
Es	0.776694	1.603994	1.011607	99
Es	-0.512405	0.689364	-1.296450	99
Es	-0.520192	0.580319	-0.554993	99
Es	2.055090	0.446945	-0.839340	99
Es	-0.973093	-1.013490	0.477951	99
Es	-0.671795	-0.139504	-0.398852	99
Es	-0.890526	-0.875166	-0.264139	99
Es	0.187596	0.750159	-0.295472	99
Es	-1.075052	-1.178741	1.218882	99
Es	2.081424	-0.271951	-0.793233	99
Es	1.021243	1.594071	0.991768	99
Es	-1.116695	1.109402	-0.211489	99
Es	0.981241	1.574277	0.496334	99
Es	0.877304	0.935627	-0.041648	99
Es	-1.307056	1.614287	0.468593	99
Es	-1.612500	-0.762974	1.514079	99
Es	1.967782	0.651940	-1.535577	99
Es	0.990392	1.142050	0.756216	99
Es	1.245794	1.721278	1.177429	99
Es	-1.259233	-1.889969	1.305182	99
Es	1.461699	0.681288	-0.449210	99
Es	2.667563	0.735703	-0.572909	99
45
Properties=species:S:1:pos:R:3:Z:I:1 energy=-345.01351852368066 field_type=dipole dipole="0.000000 0.000000 0.000000" charge=0
C	-1.075068	-1.178743	1.218930	6
C	-0.890558	-0.875203	-0.264160	6
C	-0.520108	0.580197	-0.555130	6
O	-1.498178	1.449287	0.009250	8
C	0.877293	0.935637	-0.041640	6
C	2.055153	0.446947	-0.839350	6
O	1.021313	1.594267	0.992070	8
H	-1.351887	-2.228693	1.353740	1
H	-1.870647	-0.567213	1.655050	1
H	-0.154138	-0.999263	1.780170	1
H	-1.837927	-1.103603	-0.768730	1
H	-0.133367	-1.551453	-0.676710	1
H	-0.531377	0.754457	-1.637420	1
H	-1.136907	1.738787	0.872230	1
H	2.123183	-0.641103	-0.777960	1
H	2.974832	0.884177	-0.439260	1
H	1.948392	0.761517	-1.881080	1
Es	-1.261946	-1.891056	1.303822	99
Es	-0.362387	-1.326446	-0.547117	99
Es	-1.299950	1.613397	0.466456	99
Es	-1.114757	1.108634	-0.203255	99
Es	0.189049	0.750314	-0.295843	99
Es	-1.455460	1.618104	-0.108758	99
Es	-0.441640	-1.053533	1.598623	99
Es	2.669743	0.738842	-0.568871	99
Es	-0.513660	0.689264	-1.295567	99
Es	-0.670853	-0.138418	-0.398724	99
Es	-0.890524	-0.875168	-0.264139	99
Es	-1.497939	1.449187	0.009388	99
Es	0.949631	1.576129	0.496455	99
Es	-1.531107	-1.023993	-0.617023	99
Es	-0.972960	-1.013192	0.478346	99
Es	1.021053	1.594039	0.991719	99
Es	-1.781113	1.329776	0.008102	99
Es	-1.610950	-0.767702	1.508325	99
Es	1.463899	0.678828	-0.451829	99
Es	-1.075051	-1.178741	1.218880	99
Es	1.219707	1.572197	0.953204	99
Es	0.874470	1.749296	1.228055	99
Es	0.951836	1.143898	0.763801	99
Es	-0.520192	0.580320	-0.554996	99
Es	2.055090	0.446944	-0.839342	99
Es	0.877304	0.935625	-0.041645	99
Es	2.079020	-0.271736	-0.793086	99
Es	1.965565	0.651990	-1.535323	99
45
Properties=species:S:1:pos:R:3:Z:I:1 energy=-345.01351852368066 field_type=dipole dipole="0.000000 0.000000 0.000000" charge=0
C	-1.075068	-1.178743	1.218930	6
C	-0.890558	-0.875203	-0.264160	6
C	-0.520108	0.580197	-0.555130	6
O	-1.498178	1.449287	0.009250	8
C	0.877293	0.935637	-0.041640	6
C	2.055153	0.446947	-0.839350	6
O	1.021313	1.594267	0.992070	8
H	-1.351887	-2.228693	1.353740	1
H	-1.870647	-0.567213	1.655050	1
H	-0.154138	-0.999263	1.780170	1
H	-1.837927	-1.103603	-0.768730	1
H	-0.133367	-1.551453	-0.676710	1
H	-0.531377	0.754457	-1.637420	1
H	-1.136907	1.738787	0.872230	1
H	2.123183	-0.641103	-0.777960	1
H	2.974832	0.884177	-0.439260	1
H	1.948392	0.761517	-1.881080	1
Es	2.081426	-0.271891	-0.793721	99
Es	-1.259093	-1.889475	1.304946	99
Es	2.667917	0.735767	-0.572924	99
Es	-0.973112	-1.013394	0.477845	99
Es	-1.497998	1.449226	0.009341	99
Es	1.230116	1.728377	1.186888	99
Es	-0.672012	-0.139563	-0.398859	99
Es	-0.444609	-1.058145	1.593421	99
Es	-0.520194	0.580320	-0.554993	99
Es	-1.612865	-0.762987	1.514152	99
Es	1.021621	1.593871	0.991449	99
Es	-1.757564	1.318493	0.024152	99
Es	0.187825	0.750053	-0.295316	99
Es	1.967769	0.651911	-1.535081	99
Es	-1.075052	-1.178741	1.218881	99
Es	0.789049	1.597772	1.001686	99
Es	-1.472207	1.625085	-0.115124	99
Es	0.992118	1.141925	0.756817	99
Es	2.055091	0.446944	-0.839342	99
Es	0.877304	0.935625	-0.041646	99
Es	-0.890522	-0.875161	-0.264141	99
Es	-1.306656	1.614933	0.468012	99
Es	1.461449	0.681208	-0.449126	99
Es	-0.512524	0.689134	-1.296318	99
Es	-0.361176	-1.331428	-0.552674	99
Es	-1.114987	1.112407	-0.213016	99
Es	0.982549	1.573755	0.496410	99
Es	-1.527787	-1.019218	-0.612061	99
45
Properties=species:S:1:pos:R:3:Z:I:1 energy=-345.01351852368066 field_type=dipole dipole="0.000000 0.000000 0.000000" charge=0
C	-1.075068	-1.178743	1.218930	6
C	-0.890558	-0.875203	-0.264160	6
C	-0.520108	0.580197	-0.555130	6
O	-1.498178	1.449287	0.009250	8
C	0.877293	0.935637	-0.041640	6
C	2.055153	0.446947	-0.839350	6
O	1.021313	1.594267	0.992070	8
H	-1.351887	-2.228693	1.353740	1
H	-1.870647	-0.567213	1.655050	1
H	-0.154138	-0.999263	1.780170	1
H	-1.837927	-1.103603	-0.768730	1
H	-0.133367	-1.551453	-0.676710	1
H	-0.531377	0.754457	-1.637420	1
H	-1.136907	1.738787	0.872230	1
H	2.123183	-0.641103	-0.777960	1
H	2.974832	0.884177	-0.439260	1
H	1.948392	0.761517	-1.881080	1
Es	1.965601	0.651683	-1.535233	99
Es	-1.497739	1.449311	0.009342	99
Es	0.886041	1.752160	1.231034	99
Es	-0.890526	-0.875166	-0.264139	99
Es	-0.513913	0.688796	-1.295592	99
Es	0.950664	1.144225	0.764249	99
Es	-1.075052	-1.178741	1.218880	99
Es	2.670048	0.738737	-0.568946	99
Es	-1.114365	1.109777	-0.204537	99
Es	-1.457866	1.617211	-0.108651	99
Es	0.877304	0.935627	-0.041646	99
Es	-0.441528	-1.053671	1.598576	99
Es	-0.520191	0.580320	-0.554995	99
Es	-0.362053	-1.326541	-0.547232	99
Es	-1.531280	-1.023842	-0.616960	99
Es	1.463694	0.678881	-0.451733	99
Es	0.948836	1.575651	0.496839	99
Es	2.078944	-0.271386	-0.793177	99
Es	-1.299302	1.615378	0.465266	99
Es	-1.611343	-0.767580	1.508413	99
Es	1.210074	1.569450	0.949329	99
Es	-1.780056	1.327447	0.010501	99
Es	-0.670944	-0.138261	-0.398601	99
Es	-1.261704	-1.890693	1.303782	99
Es	0.189247	0.750262	-0.295821	99
Es	2.055091	0.446944	-0.839342	99
Es	-0.972875	-1.013242	0.478295	99
Es	1.021067	1.594066	0.991758	99
45
Properties=species:S:1:pos:R:3:Z:I:1 energy=-345.01351852368066 field_type=dipole dipole="0.000000 0.000000 0.000000" charge=0
C	-1.075068	-1.178743	1.218930	6
C	-0.890558	-0.875203	-0.264160	6
C	-0.520108	0.580197	-0.555130	6
O	-1.498178	1.449287	0.009250	8
C	0.877293	0.935637	-0.041640	6
C	2.055153	0.446947	-0.839350	6
O	1.021313	1.594267	0.992070	8
H	-1.351887	-2.228693	1.353740	1
H	-1.870647	-0.567213	1.655050	1
H	-0.154138	-0.999263	1.780170	1
H	-1.837927	-1.103603	-0.768730	1
H	-0.133367	-1.551453	-0.676710	1
H	-0.531377	0.754457	-1.637420	1
H	-1.136907	1.738787	0.872230	1
H	2.123183	-0.641103	-0.777960	1
H	2.974832	0.884177	-0.439260	1
H	1.948392	0.761517	-1.881080	1
Es	0.189181	0.750148	-0.295776	99
Es	0.950075	1.576318	0.497979	99
Es	-1.531144	-1.024155	-0.617315	99
Es	1.021259	1.594064	0.991762	99
Es	-1.075052	-1.178740	1.218880	99
Es	-1.262024	-1.890795	1.303997	99
Es	1.463706	0.678731	-0.451908	99
Es	-1.610824	-0.767919	1.508041	99
Es	0.877305	0.935626	-0.041645	99
Es	-1.779654	1.331523	0.009031	99
Es	1.965608	0.651533	-1.535401	99
Es	2.055091	0.446944	-0.839342	99
Es	-1.116487	1.107433	-0.204745	99
Es	1.214697	1.570768	0.951415	99
Es	-1.455982	1.615052	-0.106996	99
Es	-0.362321	-1.326186	-0.546910	99
Es	-0.890526	-0.875167	-0.264139	99
Es	-0.514010	0.688588	-1.295791	99
Es	2.669869	0.738991	-0.568780	99
Es	-0.972998	-1.013159	0.478334	99
Es	-0.670686	-0.137999	-0.398663	99
Es	-1.299212	1.615953	0.465213	99
Es	-0.441595	-1.053336	1.598892	99
Es	2.079033	-0.271306	-0.792979	99
Es	-0.520192	0.580320	-0.554993	99
Es	-1.497923	1.449124	0.009428	99
Es	0.950876	1.143674	0.762504	99
Es	0.879808	1.750774	1.229564	99
45
Properties=species:S:1:pos:R:3:Z:I:1 energy=-345.01351852368066 field_type=dipole dipole="0.000000 0.000000 0.000000" charge=0
C	-1.075068	-1.178743	1.218930	6
C	-0.890558	-0.875203	-0.264160	6
C	-0.520108	0.580197	-0.555130	6
O	-1.498178	1.449287	0.009250	8