47
Properties=species:S:1:pos:R:3:Z:I:1 energy=-309.13836007770885 field_type=dipole dipole="0.000000 0.000000 0.000000" charge=0
C	-2.861912	-0.237589	-0.219606	6
C	-1.492922	-0.105679	0.418294	6
O	-0.508892	-0.425979	-0.563426	8
C	0.825288	-0.389439	-0.050056	6
C	1.704198	-1.181299	-1.012906	6
C	1.289858	1.039751	0.018044	6
C	1.733598	1.642631	1.128994	6
H	-3.651322	0.005271	0.497494	1
H	-3.019492	-1.257349	-0.586506	1
H	-2.951302	0.429631	-1.083456	1
H	-1.412842	-0.795359	1.265454	1
H	-1.353322	0.919961	0.774804	1
H	0.861308	-0.876359	0.932704	1
H	1.650118	-0.774429	-2.029556	1
H	1.357798	-2.218929	-1.074926	1
H	2.751308	-1.184499	-0.692726	1
H	1.241318	1.606721	-0.909416	1
H	1.791208	1.120401	2.079214	1
H	2.046008	2.682541	1.107574	1
Es	1.255185	1.414142	-0.615152	99
Es	-0.851985	-0.295831	-0.167547	99
Es	1.289825	1.039699	0.017971	99
Es	1.733644	1.642674	1.129081	99
Es	-2.921610	0.220927	-0.800975	99
Es	-0.508814	-0.425943	-0.563086	99
Es	1.064399	0.338064	-0.005413	99
Es	-1.492795	-0.105744	0.418117	99
Es	-2.861896	-0.237583	-0.219581	99
Es	1.271787	-0.776793	-0.533438	99
Es	-2.968735	-0.932425	-0.462175	99
Es	1.704193	-1.181284	-1.012885	99
Es	-0.521857	-0.204182	-0.777553	99
Es	2.413948	-1.178010	-0.787394	99
Es	1.668553	-0.895087	-1.698067	99
Es	1.212906	1.439664	0.657529	99
Es	0.849403	-0.716116	0.633104	99
Es	-2.180683	-0.172671	0.098355	99
Es	-0.015128	-0.397659	-0.334596	99
Es	-1.433562	-0.581816	1.008403	99
Es	1.469267	-1.885096	-1.046440	99
Es	1.948981	2.346924	1.122848	99
Es	1.821523	1.246855	0.513935	99
Es	0.825112	-0.389409	-0.050171	99
Es	-0.560073	-0.720929	-0.631817	99
Es	-3.394459	-0.070514	0.276005	99
Es	1.774070	1.291188	1.776791	99
Es	-1.396362	0.598514	0.668532	99
47
Properties=species:S:1:pos:R:3:Z:I:1 energy=-309.13836007770885 field_type=dipole dipole="0.000000 0.000000 0.000000" charge=0
C	-2.861912	-0.237589	-0.219606	6
C	-1.492922	-0.105679	0.418294	6
O	-0.508892	-0.425979	-0.563426	8
C	0.825288	-0.389439	-0.050056	6
C	1.704198	-1.181299	-1.012906	6
C	1.289858	1.039751	0.018044	6
C	1.733598	1.642631	1.128994	6
H	-3.651322	0.005271	0.497494	1
H	-3.019492	-1.257349	-0.586506	1
H	-2.951302	0.429631	-1.083456	1
H	-1.412842	-0.795359	1.265454	1
H	-1.353322	0.919961	0.774804	1
H	0.861308	-0.876359	0.932704	1
H	1.650118	-0.774429	-2.029556	1
H	1.357798	-2.218929	-1.074926	1
H	2.751308	-1.184499	-0.692726	1
H	1.241318	1.606721	-0.909416	1
H	1.791208	1.120401	2.079214	1
H	2.046008	2.682541	1.107574	1
Es	1.948767	2.346247	1.122963	99
Es	0.825112	-0.389410	-0.050168	99
Es	1.469625	-1.884429	-1.045966	99
Es	1.064239	0.338237	-0.005695	99
Es	2.413753	-1.178391	-0.787379	99
Es	-1.433184	-0.581384	1.007782	99
Es	1.774283	1.291239	1.777102	99
Es	-0.508827	-0.425908	-0.563069	99
Es	0.849389	-0.715975	0.633528	99
Es	-0.851466	-0.297008	-0.166991	99
Es	-0.563636	-0.722873	-0.645454	99
Es	-2.921775	0.220621	-0.800408	99
Es	1.822395	1.246790	0.513677	99
Es	1.704192	-1.181283	-1.012883	99
Es	1.289822	1.039697	0.017969	99
Es	-1.395875	0.598540	0.668978	99
Es	1.733645	1.642673	1.129083	99
Es	-3.394187	-0.070187	0.275166	99
Es	1.255132	1.413834	-0.615267	99
Es	-2.969352	-0.932844	-0.462429	99
Es	-0.014173	-0.398227	-0.335157	99
Es	-0.519822	-0.200658	-0.764021	99
Es	-2.861896	-0.237583	-0.219581	99
Es	-1.492794	-0.105743	0.418117	99
Es	1.668479	-0.895387	-1.698914	99
Es	1.211892	1.440093	0.657783	99
Es	-2.180837	-0.172675	0.098887	99
Es	1.271936	-0.776449	-0.533272	99
47
Properties=species:S:1:pos:R:3:Z:I:1 energy=-309.13836007770885 field_type=dipole dipole="0.000000 0.000000 0.000000" charge=0
C	-2.861912	-0.237589	-0.219606	6
C	-1.492922	-0.105679	0.418294	6
O	-0.508892	-0.425979	-0.563426	8
C	0.825288	-0.389439	-0.050056	6
C	1.704198	-1.181299	-1.012906	6
C	1.289858	1.039751	0.018044	6
C	1.733598	1.642631	1.128994	6
H	-3.651322	0.005271	0.497494	1
H	-3.019492	-1.257349	-0.586506	1
H	-2.951302	0.429631	-1.083456	1
H	-1.412842	-0.795359	1.265454	1
H	-1.353322	0.919961	0.774804	1
H	0.861308	-0.876359	0.932704	1
H	1.650118	-0.774429	-2.029556	1
H	1.357798	-2.218929	-1.074926	1
H	2.751308	-1.184499	-0.692726	1
H	1.241318	1.606721	-0.909416	1
H	1.791208	1.120401	2.079214	1
H	2.046008	2.682541	1.107574	1
Es	-2.969706	-0.933230	-0.462931	99
Es	1.211461	1.440355	0.657908	99
Es	-1.432943	-0.581057	1.007255	99
Es	1.822935	1.246570	0.513571	99
Es	1.668185	-0.895315	-1.699616	99
Es	1.704192	-1.181282	-1.012883	99
Es	-0.565150	-0.726014	-0.651445	99
Es	1.289820	1.039698	0.017970	99
Es	0.849267	-0.715617	0.633967	99
Es	0.825112	-0.389408	-0.050171	99
Es	1.948460	2.345610	1.122775	99
Es	1.469750	-1.883548	-1.045779	99
Es	-3.393992	-0.070076	0.274572	99
Es	-0.508864	-0.425920	-0.563275	99
Es	1.064305	0.338391	-0.005931	99
Es	-0.851304	-0.295669	-0.168483	99
Es	-1.395415	0.598505	0.669354	99
Es	-1.492792	-0.105739	0.418117	99
Es	1.255156	1.413628	-0.615599	99
Es	1.272191	-0.776760	-0.532906	99
Es	-2.921896	0.220504	-0.799701	99
Es	1.774181	1.291517	1.777684	99
Es	2.413848	-1.178972	-0.787249	99
Es	-0.014636	-0.396557	-0.334329	99
Es	-2.181073	-0.172529	0.099227	99
Es	-2.861897	-0.237582	-0.219580	99
Es	1.733645	1.642674	1.129085	99
Es	-0.518004	-0.200617	-0.757227	99
47
Properties=species:S:1:pos:R:3:Z:I:1 energy=-309.13836007770885 field_type=dipole dipole="0.000000 0.000000 0.000000" charge=0
C	-2.861912	-0.237589	-0.219606	6
C	-1.492922	-0.105679	0.418294	6
O	-0.508892	-0.425979	-0.563426	8
C	0.825288	-0.389439	-0.050056	6
C	1.704198	-1.181299	-1.012906	6
C	1.289858	1.039751	0.018044	6
C	1.733598	1.642631	1.128994	6
H	-3.651322	0.005271	0.497494	1
H	-3.019492	-1.257349	-0.586506	1
H	-2.951302	0.429631	-1.083456	1
H	-1.412842	-0.795359	1.265454	1
H	-1.353322	0.919961	0.774804	1
H	0.861308	-0.876359	0.932704	1
H	1.650118	-0.774429	-2.029556	1
H	1.357798	-2.218929	-1.074926	1
H	2.751308	-1.184499	-0.692726	1
H	1.241318	1.606721	-0.909416	1
H	1.791208	1.120401	2.079214	1
H	2.046008	2.682541	1.107574	1
Es	-1.432830	-0.581041	1.007143	99
Es	1.064283	0.338516	-0.006132	99
Es	-2.861896	-0.237583	-0.219581	99
Es	0.849283	-0.715609	0.634527	99
Es	-0.508813	-0.425801	-0.563074	99
Es	-3.393605	-0.070406	0.274036	99
Es	-2.922196	0.220773	-0.799737	99
Es	2.413603	-1.179138	-0.786969	99
Es	1.948074	2.344945	1.122421	99
Es	1.272254	-0.776765	-0.532990	99
Es	-2.181135	-0.172394	0.099622	99
Es	1.470196	-1.882836	-1.045036	99
Es	1.823056	1.246646	0.513497	99
Es	1.733644	1.642675	1.129085	99
Es	-2.969878	-0.933337	-0.462890	99
Es	1.289827	1.039697	0.017968	99
Es	-1.395194	0.598474	0.669428	99
Es	-0.851254	-0.301803	-0.167008	99
Es	1.667898	-0.895503	-1.700743	99
Es	0.825118	-0.389409	-0.050169	99
Es	-0.570381	-0.721781	-0.683999	99
Es	-0.512798	-0.195654	-0.727403	99
Es	-1.492794	-0.105740	0.418118	99
Es	1.254957	1.413715	-0.615970	99
Es	-0.014628	-0.399707	-0.333267	99
Es	1.704190	-1.181283	-1.012882	99
Es	1.211530	1.440297	0.657958	99
Es	1.774327	1.291614	1.778430	99
47
Properties=species:S:1:pos:R:3:Z:I:1 energy=-309.13836007770885 field_type=dipole dipole="0.000000 0.000000 0.000000" charge=0
C	-2.861912	-0.237589	-0.219606	6
C	-1.492922	-0.105679	0.418294	6
O	-0.508892	-0.425979	-0.563426	8
C	0.825288	-0.389439	-0.050056	6
C	1.704198	-1.181299	-1.012906	6
C	1.289858	1.039751	0.018044	6
C	1.733598	1.642631	1.128994	6
H	-3.651322	0.005271	0.497494	1
H	-3.019492	-1.257349	-0.586506	1
H	-2.951302	0.429631	-1.083456	1
H	-1.412842	-0.795359	1.265454	1
H	-1.353322	0.919961	0.774804	1
H	0.861308	-0.876359	0.932704	1
H	1.650118	-0.774429	-2.029556	1
H	1.357798	-2.218929	-1.074926	1
H	2.751308	-1.184499	-0.692726	1
H	1.241318	1.606721	-0.909416	1
H	1.791208	1.120401	2.079214	1
H	2.046008	2.682541	1.107574	1
Es	1.774321	1.291560	1.778942	99
Es	1.211991	1.440165	0.657743	99
Es	-0.850872	-0.305346	-0.166463	99
Es	1.704192	-1.181283	-1.012883	99
Es	2.413077	-1.179330	-0.786881	99
Es	0.849400	-0.715555	0.635017	99
Es	-0.508738	-0.426030	-0.563035	99
Es	-2.181240	-0.172294	0.100165	99
Es	1.947891	2.344629	1.122143	99
Es	1.470491	-1.882465	-1.044428	99
Es	1.064290	0.338538	-0.006262	99
Es	-0.576194	-0.711861	-0.714765	99
Es	-2.861894	-0.237582	-0.219581	99
Es	1.255032	1.413817	-0.616445	99
Es	-0.015010	-0.404235	-0.332242	99
Es	-1.492795	-0.105743	0.418119	99
Es	0.825112	-0.389409	-0.050170	99
Es	-1.432764	-0.581177	1.007244	99
Es	1.272448	-0.776663	-0.532625	99
Es	-1.395086	0.598524	0.669327	99
Es	-2.922382	0.221248	-0.799971	99
Es	-2.970059	-0.933544	-0.462692	99
Es	-0.507171	-0.197402	-0.698427	99
Es	1.733646	1.642675	1.129087	99
Es	1.822594	1.246814	0.513715	99
Es	1.289822	1.039697	0.017968	99
Es	-3.393064	-0.070734	0.273439	99
Es	1.667799	-0.895455	-1.701657	99
47
Properties=species:S:1:pos:R:3:Z:I:1 energy=-309.13836007770885 field_type=dipole dipole="0.000000 0.000000 0.000000" charge=0
C	-2.861912	-0.237589	-0.219606	6
C	-1.492922	-0.105679	0.418294	6
O	-0.508892	-0.425979	-0.563426	8
C	0.825288	-0.389439	-0.050056	6
C	1.704198	-1.181299	-1.012906	6
C	1.289858	1.039751	0.018044	6
C	1.733598	1.642631	1.128994	6
H	-3.651322	0.005271	0.497494	1
H	-3.019492	-1.257349	-0.586506	1
H	-2.951302	0.429631	-1.083456	1
H	-1.412842	-0.795359	1.265454	1
H	-1.353322	0.919961	0.774804	1
H	0.861308	-0.876359	0.932704	1
H	1.650118	-0.774429	-2.029556	1
H	1.357798	-2.218929	-1.074926	1
H	2.751308	-1.184499	-0.692726	1
H	1.241318	1.606721	-0.909416	1
H	1.791208	1.120401	2.079214	1
H	2.046008	2.682541	1.107574	1
Es	-2.181221	-0.172234	0.100588	99
Es	1.704192	-1.181283	-1.012884	99
Es	-1.432671	-0.581245	1.007150	99
Es	-3.392649	-0.070846	0.272871	99
Es	1.733662	1.642668	1.129080	99
Es	-0.850816	-0.307009	-0.166661	99
Es	1.272525	-0.776556	-0.532419	99
Es	1.470759	-1.882172	-1.043953	99
Es	1.064395	0.338565	-0.006380	99
Es	0.849418	-0.715563	0.635311	99
Es	-1.492795	-0.105743	0.418119	99
Es	-0.508803	-0.425815	-0.563074	99
Es	1.947722	2.344366	1.121850	99
Es	1.212069	1.440202	0.657871	99
Es	1.667693	-0.895564	-1.702315	99
Es	-2.970318	-0.933803	-0.462712	99
Es	-0.577680	-0.706789	-0.727645	99
Es	-1.394982	0.598653	0.669377	99
Es	-0.015328	-0.404618	-0.331572	99
Es	-0.505420	-0.200653	-0.686068	99
Es	1.774443	1.291668	1.779319	99
Es	1.822294	1.246782	0.513707	99
Es	1.289824	1.039695	0.017968	99
Es	-2.861894	-0.237583	-0.219581	99
Es	-2.922523	0.221439	-0.799865	99
Es	1.255110	1.413807	-0.616682	99
Es	0.825110	-0.389407	-0.050170	99
Es	2.412721	-1.179403	-0.786848	99
47
Properties=species:S:1:pos:R:3:Z:I:1 energy=-309.13836007770885 field_type=dipole dipole="0.000000 0.000000 0.000000" charge=0
C	-2.861912	-0.237589	-0.219606	6
C	-1.492922	-0.105679	0.418294	6
O	-0.508892	-0.425979	-0.563426	8
C	0.825288	-0.389439	-0.050056	6
C	1.704198	-1.181299	-1.012906	6
C	1.289858	1.039751	0.018044	6
C	1.733598	1.642631	1.128994	6
H	-3.651322	0.005271	0.497494	1
H	-3.019492	-1.257349	-0.586506	1
H	-2.951302	0.429631	-1.083456	1
H	-1.412842	-0.795359	1.265454	1
H	-1.353322	0.919961	0.774804	1
H	0.861308	-0.876359	0.932704	1
H	1.650118	-0.774429	-2.029556	1
H	1.357798	-2.218929	-1.074926	1
H	2.751308	-1.184499	-0.692726	1
H	1.241318	1.606721	-0.909416	1
H	1.791208	1.120401	2.079214	1
H	2.046008	2.682541	1.107574	1
Es	1.255048	1.413909	-0.616858	99
Es	2.412294	-1.179395	-0.786828	99
Es	1.733648	1.642673	1.129085	99
Es	-0.502383	-0.205656	-0.670323	99
Es	1.774426	1.291581	1.779519	99
Es	-0.580079	-0.697615	-0.744444	99
Es	-2.181237	-0.172084	0.100862	99
Es	-1.432730	-0.581389	1.007019	99
Es	1.667685	-0.895400	-1.702738	99
Es	-2.970413	-0.934091	-0.462578	99
Es	1.272744	-0.776466	-0.532269	99
Es	1.704192	-1.181282	-1.012884	99
Es	1.470862	-1.882213	-1.043622	99
Es	-2.922739	0.221725	-0.799941	99
Es	-1.394890	0.598825	0.669473	99
Es	1.822044	1.247038	0.513778	99
Es	0.825110	-0.389406	-0.050171	99
Es	-3.392177	-0.071076	0.272358	99
Es	-0.016062	-0.407086	-0.330685	99
Es	-0.508822	-0.426201	-0.562930	99
Es	1.947562	2.344304	1.121768	99
Es	1.289821	1.039693	0.017968	99
Es	1.064399	0.338598	-0.006339	99
Es	-1.492796	-0.105737	0.418121	99
Es	1.212479	1.440014	0.657724	99
Es	-2.861896	-0.237583	-0.219582	99
Es	-0.850689	-0.308447	-0.166594	99
Es	0.849436	-0.715671	0.635489	99
47
Properties=species:S:1:pos:R:3:Z:I:1 energy=-309.13836007770885 field_type=dipole dipole="0.000000 0.000000 0.000000" charge=0
C	-2.861912	-0.237589	-0.219606	6
C	-1.492922	-0.105679	0.418294	6
O	-0.508892	-0.425979	-0.563426	8
C	0.825288	-0.389439	-0.050056	6
C	1.704198	-1.181299	-1.012906	6
C	1.289858	1.039751	0.018044	6
C	1.733598	1.642631	1.128994	6
H	-3.651322	0.005271	0.497494	1
H	-3.019492	-1.257349	-0.586506	1
H	-2.951302	0.429631	-1.083456	1
H	-1.412842	-0.795359	1.265454	1
H	-1.353322	0.919961	0.774804	1
H	0.861308	-0.876359	0.932704	1
H	1.650118	-0.774429	-2.029556	1
H	1.357798	-2.218929	-1.074926	1
H	2.751308	-1.184499	-0.692726	1
H	1.241318	1.606721	-0.909416	1
H	1.791208	1.120401	2.079214	1
H	2.046008	2.682541	1.107574	1
Es	1.064715	0.338551	-0.006273	99
Es	2.411806	-1.179370	-0.786896	99
Es	1.821431	1.247369	0.513782	99
Es	1.774426	1.291378	1.779610	99
Es	-0.850267	-0.312422	-0.166472	99
Es	0.825109	-0.389407	-0.050171	99
Es	-2.861895	-0.237582	-0.219581	99
Es	1.470866	-1.882515	-1.043501	99
Es	1.255107	1.414039	-0.616944	99
Es	-0.581784	-0.685880	-0.761966	99
Es	-2.970670	-0.934430	-0.462457	99
Es	-0.501949	-0.214003	-0.652925	99
Es	1.213087	1.439718	0.657725	99
Es	-1.492792	-0.105744	0.418116	99
Es	1.667928	-0.895215	-1.702875	99
Es	-1.394931	0.598959	0.669270	99
Es	1.289818	1.039697	0.017968	99
Es	-0.508814	-0.425939	-0.563074	99
Es	-0.015281	-0.406756	-0.330654	99
Es	1.947289	2.344593	1.121685	99
Es	-2.922786	0.222234	-0.800028	99
Es	1.704191	-1.181282	-1.012883	99
Es	-1.432658	-0.581542	1.007202	99
Es	1.272718	-0.776268	-0.532094	99
Es	0.849441	-0.715958	0.635499	99
Es	1.733643	1.642676	1.129087	99
Es	-3.391551	-0.071251	0.271816	99
Es	-2.181365	-0.172091	0.101415	99
47
Properties=species:S:1:pos:R:3:Z:I:1 energy=-309.13836007770885 field_type=dipole dipole="0.000000 0.000000 0.000000" charge=0
C	-2.861912	-0.237589	-0.219606	6
C	-1.492922	-0.105679	0.418294	6
O	-0.508892	-0.425979	-0.563426	8
C	0.825288	-0.389439	-0.050056	6
C	1.704198	-1.181299	-1.012906	6
C	1.289858	1.039751	0.018044	6
C	1.733598	1.642631	1.128994	6
H	-3.651322	0.005271	0.497494	1
H	-3.019492	-1.257349	-0.586506	1
H	-2.951302	0.429631	-1.083456	1
H	-1.412842	-0.795359	1.265454	1
H	-1.353322	0.919961	0.774804	1
H	0.861308	-0.876359	0.932704	1
H	1.650118	-0.774429	-2.029556	1
H	1.357798	-2.218929	-1.074926	1
H	2.751308	-1.184499	-0.692726	1
H	1.241318	1.606721	-0.909416	1
H	1.791208	1.120401	2.079214	1
H	2.046008	2.682541	1.107574	1
Es	1.773224	1.290983	1.776370	99
Es	1.273229	-0.776274	-0.531350	99
Es	-0.014820	-0.361137	-0.346183	99
Es	-2.922141	0.221651	-0.795009	99
Es	-0.848112	-0.264992	-0.185272	99
Es	1.704190	-1.181282	-1.012884	99
Es	1.821423	1.247535	0.513609	99
Es	-0.519204	-0.615329	-0.496019	99
Es	2.410896	-1.178021	-0.788970	99
Es	1.065170	0.338232	-0.005968	99
Es	1.733646	1.642681	1.129085	99
Es	-0.508776	-0.425592	-0.563111	99
Es	1.289823	1.039696	0.017968	99
Es	-2.861895	-0.237581	-0.219582	99
Es	0.825116	-0.389408	-0.050170	99
Es	1.213319	1.439415	0.658007	99
Es	-0.567314	-0.378352	-0.883492	99
Es	1.255982	1.413947	-0.614060	99
Es	-1.433262	-0.581100	1.003509	99
Es	1.669421	-0.893992	-1.698624	99
Es	1.469574	-1.887031	-1.046079	99
Es	-2.972095	-0.936955	-0.466183	99
Es	-1.394147	0.600510	0.672203	99
Es	-1.492795	-0.105742	0.418119	99
Es	-3.390344	-0.070026	0.269958	99
Es	0.848439	-0.716286	0.632658	99
Es	-2.181458	-0.171953	0.102249	99
Es	1.947748	2.347964	1.123604	99
47
Properties=species:S:1:pos:R:3:Z:I:1 energy=-309.13836007770885 field_type=dipole dipole="0.000000 0.000000 0.000000" charge=0
C	-2.861912	-0.237589	-0.219606	6
C	-1.492922	-0.105679	0.418294	6
O	-0.508892	-0.425979	-0.563426	8
C	0.825288	-0.389439	-0.050056	6
C	1.704198	-1.181299	-1.012906	6
C	1.289858	1.039751	0.018044	6
C	1.733598	1.642631	1.128994	6
H	-3.651322	0.005271	0.497494	1
H	-3.019492	-1.257349	-0.586506	1
H	-2.951302	0.429631	-1.083456	1
H	-1.412842	-0.795359	1.265454	1
H	-1.353322	0.919961	0.774804	1
H	0.861308	-0.876359	0.932704	1
H	1.650118	-0.774429	-2.029556	1
H	1.357798	-2.218929	-1.074926	1
H	2.751308	-1.184499	-0.692726	1
H	1.241318	1.606721	-0.909416	1
H	1.791208	1.120401	2.079214	1
H	2.046008	2.682541	1.107574	1
Es	-2.970991	-0.934943	-0.462644	99
Es	-1.492795	-0.105742	0.418119	99
Es	-0.850326	-0.312714	-0.166653	99
Es	-1.394728	0.599214	0.669372	99
Es	2.411173	-1.179389	-0.787176	99
Es	1.667856	-0.895236	-1.703434	99
Es	-0.501151	-0.221973	-0.642639	99
Es	-2.181549	-0.171885	0.102314	99
Es	1.255124	1.414065	-0.617219	99
Es	-0.582404	-0.678648	-0.772321	99
Es	1.213388	1.439407	0.657717	99
Es	-2.861898	-0.237582	-0.219581	99
Es	-0.015423	-0.405657	-0.330281	99
Es	-0.508827	-0.426115	-0.562980	99
Es	-2.922810	0.222589	-0.799704	99
Es	1.733643	1.642677	1.129088	99
Es	1.064882	0.338592	-0.006398	99
Es	0.849441	-0.715880	0.635804	99
Es	-1.432646	-0.581655	1.006995	99
Es	1.821119	1.247542	0.513895	99
Es	1.289826	1.039694	0.017967	99
Es	1.471083	-1.882536	-1.042971	99
Es	1.774483	1.291555	1.779987	99
Es	1.704193	-1.181283	-1.012884	99
Es	1.273028	-0.776109	-0.531743	99
Es	0.825113	-0.389408	-0.050169	99
Es	-3.390886	-0.071492	0.270550	99
Es	1.946919	2.344471	1.121369	99
47
Properties=species:S:1:pos:R:3:Z:I:1 energy=-309.13836007770885 field_type=dipole dipole="0.000000 0.000000 0.000000" charge=0
C	-2.861912	-0.237589	-0.219606	6
C	-1.492922	-0.105679	0.418294	6
O	-0.508892	-0.425979	-0.563426	8
C	0.825288	-0.389439	-0.050056	6
C	1.704198	-1.181299	-1.012906	6
C	1.289858	1.039751	0.018044	6
C	1.733598	1.642631	1.128994	6
H	-3.651322	0.005271	0.497494	1
H	-3.019492	-1.257349	-0.586506	1
H	-2.951302	0.429631	-1.083456	1
H	-1.412842	-0.795359	1.265454	1
H	-1.353322	0.919961	0.774804	1
H	0.861308	-0.876359	0.932704	1
H	1.650118	-0.774429	-2.029556	1
H	1.357798	-2.218929	-1.074926	1
H	2.751308	-1.184499	-0.692726	1
H	1.241318	1.606721	-0.909416	1
H	1.791208	1.120401	2.079214	1
H	2.046008	2.682541	1.107574	1
Es	1.471032	-1.882786	-1.042882	99
Es	1.704191	-1.181282	-1.012884	99
Es	-2.922944	0.222808	-0.799684	99
Es	1.774416	1.291378	1.779895	99
Es	2.410843	-1.179394	-0.787346	99
Es	-1.394729	0.599363	0.669403	99
Es	-1.432701	-0.581769	1.006939	99
Es	-2.861896	-0.237584	-0.219581	99
Es	-2.971047	-0.935213	-0.462589	99
Es	0.825112	-0.389406	-0.050170	99
Es	1.820580	1.247564	0.513808	99
Es	0.849408	-0.716017	0.635787	99
Es	1.946940	2.344782	1.121376	99
Es	1.289828	1.039694	0.017965	99
Es	-0.584294	-0.670224	-0.781535	99
Es	-3.390507	-0.071627	0.270227	99
Es	-0.849711	-0.313373	-0.166467	99
Es	-0.015290	-0.407251	-0.330321	99
Es	1.273131	-0.775929	-0.531474	99
Es	1.733644	1.642676	1.129087	99
Es	1.667975	-0.895109	-1.703469	99
Es	1.213842	1.439379	0.657863	99
Es	-1.492793	-0.105745	0.418119	99
Es	1.255200	1.414208	-0.617129	99
Es	-0.508820	-0.426179	-0.562908	99
Es	1.064997	0.338506	-0.006472	99
Es	-0.500005	-0.228155	-0.633681	99
Es	-2.181567	-0.171758	0.102506	99
47
Properties=species:S:1:pos:R:3:Z:I:1 energy=-309.13836007770885 field_type=dipole dipole="0.000000 0.000000 0.000000" charge=0
C	-2.861912	-0.237589	-0.219606	6
C	-1.492922	-0.105679	0.418294	6
O	-0.508892	-0.425979	-0.563426	8
C	0.825288	-0.389439	-0.050056	6
C	1.704198	-1.181299	-1.012906	6
C	1.289858	1.039751	0.018044	6
C	1.733598	1.642631	1.128994	6
H	-3.651322	0.005271	0.497494	1
H	-3.019492	-1.257349	-0.586506	1
H	-2.951302	0.429631	-1.083456	1
H	-1.412842	-0.795359	1.265454	1
H	-1.353322	0.919961	0.774804	1
H	0.861308	-0.876359	0.932704	1
H	1.650118	-0.774429	-2.029556	1
H	1.357798	-2.218929	-1.074926	1
H	2.751308	-1.184499	-0.692726	1
H	1.241318	1.606721	-0.909416	1
H	1.791208	1.120401	2.079214	1
H	2.046008	2.682541	1.107574	1
Es	1.065026	0.338600	-0.006440	99
Es	-2.181665	-0.171575	0.102929	99
Es	2.410462	-1.179443	-0.787505	99
Es	-1.432784	-0.581845	1.006569	99
Es	1.255301	1.414060	-0.617312	99
Es	-0.508818	-0.426040	-0.563006	99
Es	-0.015778	-0.407034	-0.328917	99
Es	-2.861895	-0.237583	-0.219581	99
Es	-0.499605	-0.229382	-0.632159	99
Es	1.273273	-0.775883	-0.531278	99
Es	0.825114	-0.389408	-0.050169	99
Es	1.704191	-1.181283	-1.012883	99
Es	-2.971293	-0.935398	-0.462790	99
Es	1.820612	1.247500	0.513903	99
Es	-1.394499	0.599376	0.669751	99
Es	-1.492794	-0.105743	0.418119	99
Es	1.213786	1.439460	0.657789	99
Es	-0.584073	-0.669407	-0.783109	99
Es	0.849410	-0.715992	0.635916	99
Es	-0.849845	-0.313318	-0.167713	99
Es	1.946923	2.344636	1.121295	99
Es	1.774260	1.291484	1.780059	99
Es	1.733642	1.642682	1.129085	99
Es	1.667977	-0.895093	-1.703762	99
Es	1.471221	-1.882741	-1.042681	99
Es	-2.922902	0.222884	-0.799397	99
Es	-3.390239	-0.071647	0.269704	99
Es	1.289829	1.039695	0.017966	99
47
Properties=species:S:1:pos:R:3:Z:I:1 energy=-309.13836007770885 field_type=dipole dipole="0.000000 0.000000 0.000000" charge=0
C	-2.861912	-0.237589	-0.219606	6
C	-1.492922	-0.105679	0.418294	6
O	-0.508892	-0.425979	-0.563426	8
C	0.825288	-0.389439	-0.050056	6
C	1.704198	-1.181299	-1.012906	6
C	1.289858	1.039751	0.018044	6
C	1.733598	1.642631	1.128994	6
H	-3.651322	0.005271	0.497494	1
H	-3.019492	-1.257349	-0.586506	1
H	-2.951302	0.429631	-1.083456	1
H	-1.412842	-0.795359	1.265454	1
H	-1.353322	0.919961	0.774804	1
H	0.861308	-0.876359	0.932704	1
H	1.650118	-0.774429	-2.029556	1
H	1.357798	-2.218929	-1.074926	1
H	2.751308	-1.184499	-0.692726	1
H	1.241318	1.606721	-0.909416	1
H	1.791208	1.120401	2.079214	1
H	2.046008	2.682541	1.107574	1
Es	1.065150	0.338577	-0.006455	99
Es	1.214116	1.439109	0.657725	99
Es	0.849388	-0.716157	0.635860	99
Es	-1.492796	-0.105742	0.418120	99
Es	-2.861896	-0.237582	-0.219582	99
Es	1.704192	-1.181282	-1.012883	99
Es	-2.971326	-0.935586	-0.462516	99
Es	-3.389874	-0.071798	0.269231	99
Es	1.946677	2.344869	1.121310	99
Es	-0.015372	-0.405710	-0.329166	99
Es	1.289824	1.039696	0.017966	99
Es	1.273415	-0.775754	-0.531051	99
Es	1.667990	-0.894956	-1.703725	99
Es	-0.508719	-0.425292	-0.562674	99
Es	-0.499542	-0.237891	-0.625959	99
Es	1.774298	1.291352	1.780038	99
Es	-1.394620	0.599556	0.669499	99
Es	1.733641	1.642677	1.129087	99
Es	-2.181738	-0.171605	0.103315	99
Es	1.471160	-1.882977	-1.042641	99
Es	1.820387	1.247793	0.513960	99
Es	-1.432668	-0.581885	1.006757	99
Es	-0.849782	-0.312859	-0.167839	99
Es	1.255313	1.414248	-0.617265	99
Es	0.825113	-0.389408	-0.050169	99
Es	-2.922984	0.223068	-0.799615	99
Es	2.410205	-1.179473	-0.787789	99
Es	-0.584719	-0.663427	-0.789157	99
47
Properties=species:S:1:pos:R:3:Z:I:1 energy=-309.13836007770885 field_type=dipole dipole="0.000000 0.000000 0.000000" charge=0
C	-2.861912	-0.237589	-0.219606	6
C	-1.492922	-0.105679	0.418294	6
O	-0.508892	-0.425979	-0.563426	8
C	0.825288	-0.389439	-0.050056	6
C	1.704198	-1.181299	-1.012906	6
C	1.289858	1.039751	0.018044	6
C	1.733598	1.642631	1.128994	6
H	-3.651322	0.005271	0.497494	1
H	-3.019492	-1.257349	-0.586506	1
H	-2.951302	0.429631	-1.083456	1
H	-1.412842	-0.795359	1.265454	1
H	-1.353322	0.919961	0.774804	1
H	0.861308	-0.876359	0.932704	1
H	1.650118	-0.774429	-2.029556	1
H	1.357798	-2.218929	-1.074926	1
H	2.751308	-1.184499	-0.692726	1
H	1.241318	1.606721	-0.909416	1
H	1.791208	1.120401	2.079214	1
H	2.046008	2.682541	1.107574	1
Es	1.774256	1.291406	1.780125	99
Es	-1.432717	-0.581993	1.006671	99
Es	-2.971329	-0.935689	-0.462717	99
Es	-0.508703	-0.424759	-0.563130	99
Es	1.289824	1.039695	0.017966	99
Es	1.255355	1.414261	-0.617326	99
Es	1.946668	2.344852	1.121213	99
Es	1.065134	0.338471	-0.006446	99
Es	2.409945	-1.179510	-0.787978	99
Es	-0.499352	-0.241092	-0.623060	99
Es	1.471259	-1.882985	-1.042499	99
Es	-2.861896	-0.237583	-0.219582	99
Es	-0.015449	-0.405408	-0.328945	99
Es	0.825113	-0.389407	-0.050170	99
Es	-1.492795	-0.105743	0.418120	99
Es	1.667968	-0.894974	-1.703879	99
Es	0.849345	-0.716126	0.635958	99
Es	1.214286	1.439110	0.657703	99
Es	1.704192	-1.181282	-1.012884	99
Es	-0.584831	-0.661505	-0.791626	99
Es	1.820204	1.247794	0.513995	99
Es	-0.849798	-0.312415	-0.168063	99
Es	-3.389708	-0.072005	0.268740	99
Es	1.733638	1.642678	1.129088	99
Es	1.273561	-0.775624	-0.530783	99
Es	-2.181838	-0.171446	0.103742	99
Es	-2.922966	0.223226	-0.799436	99
Es	-1.394529	0.599612	0.669585	99
47
Properties=species:S:1:pos:R:3:Z:I:1 energy=-309.13836007770885 field_type=dipole dipole="0.000000 0.000000 0.000000" charge=0
C	-2.861912	-0.237589	-0.219606	6
C	-1.492922	-0.105679	0.418294	6
O	-0.508892	-0.425979	-0.563426	8
C	0.825288	-0.389439	-0.050056	6
C	1.704198	-1.181299	-1.012906	6
C	1.289858	1.039751	0.018044	6
C	1.733598	1.642631	1.128994	6
H	-3.651322	0.005271	0.497494	1
H	-3.019492	-1.257349	-0.586506	1
H	-2.951302	0.429631	-1.083456	1
H	-1.412842	-0.795359	1.265454	1
H	-1.353322	0.919961	0.774804	1
H	0.861308	-0.876359	0.932704	1
H	1.650118	-0.774429	-2.029556	1
H	1.357798	-2.218929	-1.074926	1
H	2.751308	-1.184499	-0.692726	1
H	1.241318	1.606721	-0.909416	1
H	1.791208	1.120401	2.079214	1
H	2.046008	2.682541	1.107574	1
Es	-0.849355	-0.312913	-0.167790	99
Es	1.065222	0.338475	-0.006587	99
Es	-2.971385	-0.935824	-0.462993	99
Es	1.471401	-1.882844	-1.042337	99
Es	1.214285	1.439270	0.657837	99
Es	0.825116	-0.389409	-0.050170	99
Es	1.733644	1.642676	1.129088	99
Es	-1.394340	0.599653	0.669893	99
Es	1.667947	-0.895114	-1.704089	99
Es	-1.432818	-0.581993	1.006327	99
Es	-0.585379	-0.660398	-0.792850	99
Es	-0.498859	-0.239411	-0.622197	99
Es	-3.389573	-0.072119	0.268204	99
Es	-2.922958	0.223207	-0.799114	99
Es	-0.015721	-0.406429	-0.329004	99
Es	1.774234	1.291501	1.780274	99
Es	-2.861895	-0.237583	-0.219581	99
Es	2.409759	-1.179568	-0.788090	99
Es	-1.492796	-0.105742	0.418120	99
Es	1.273601	-0.775519	-0.530501	99
Es	0.849331	-0.716034	0.636073	99
Es	-0.508838	-0.426103	-0.562977	99
Es	1.255459	1.414180	-0.617365	99
Es	-2.181943	-0.171233	0.104119	99
Es	1.820101	1.247695	0.513890	99
Es	1.289824	1.039695	0.017966	99
Es	1.946582	2.344726	1.121116	99
Es	1.704191	-1.181282	-1.012883	99
47
Properties=species:S:1:pos:R:3:Z:I:1 energy=-309.13836007770885 field_type=dipole dipole="0.000000 0.000000 0.000000" charge=0
C	-2.861912	-0.237589	-0.219606	6
C	-1.492922	-0.105679	0.418294	6
O	-0.508892	-0.425979	-0.563426	8
C	0.825288	-0.389439	-0.050056	6
C	1.704198	-1.181299	-1.012906	6
C	1.289858	1.039751	0.018044	6
C	1.733598	1.642631	1.128994	6
H	-3.651322	0.005271	0.497494	1
H	-3.019492	-1.257349	-0.586506	1
H	-2.951302	0.429631	-1.083456	1
H	-1.412842	-0.795359	1.265454	1
H	-1.353322	0.919961	0.774804	1
H	0.861308	-0.876359	0.932704	1
H	1.650118	-0.774429	-2.029556	1
H	1.357798	-2.218929	-1.074926	1
H	2.751308	-1.184499	-0.692726	1
H	1.241318	1.606721	-0.909416	1
H	1.791208	1.120401	2.079214	1
H	2.046008	2.682541	1.107574	1
Es	-2.923078	0.223337	-0.799256	99
Es	1.733638	1.642677	1.129087	99
Es	1.820173	1.247741	0.513970	99
Es	1.273676	-0.775353	-0.530410	99
Es	-1.394367	0.599705	0.669952	99
Es	-0.015789	-0.404955	-0.327453	99
Es	0.849321	-0.716155	0.636053	99
Es	1.704191	-1.181281	-1.012883	99
Es	1.774070	1.291517	1.780315	99
Es	0.825111	-0.389407	-0.050168	99
Es	-0.849694	-0.312719	-0.169528	99
Es	1.946482	2.344780	1.121125	99
Es	-2.971429	-0.935960	-0.462776	99
Es	-0.508797	-0.425499	-0.563087	99
Es	1.668039	-0.895146	-1.704228	99
Es	1.214434	1.439157	0.657720	99
Es	-1.492798	-0.105741	0.418121	99
Es	-0.498940	-0.243933	-0.619393	99
Es	1.471410	-1.882844	-1.042221	99
Es	1.289824	1.039695	0.017966	99
Es	1.065223	0.338562	-0.006491	99
Es	-3.389268	-0.072215	0.267960	99
Es	-2.182022	-0.171152	0.104390	99
Es	-2.861895	-0.237583	-0.219581	99
Es	1.255471	1.414177	-0.617424	99
Es	-0.584849	-0.658139	-0.795422	99
Es	2.409491	-1.179663	-0.788218	99
Es	-1.432791	-0.582043	1.006260	99
47
Properties=species:S:1:pos:R:3:Z:I:1 energy=-309.13836007770885 field_type=dipole dipole="0.000000 0.000000 0.000000" charge=0
C	-2.861912	-0.237589	-0.219606	6
C	-1.492922	-0.105679	0.418294	6
O	-0.508892	-0.425979	-0.563426	8
C	0.825288	-0.389439	-0.050056	6
C	1.704198	-1.181299	-1.012906	6
C	1.289858	1.039751	0.018044	6
C	1.733598	1.642631	1.128994	6
H	-3.651322	0.005271	0.497494	1
H	-3.019492	-1.257349	-0.586506	1
H	-2.951302	0.429631	-1.083456	1
H	-1.412842	-0.795359	1.265454	1
H	-1.353322	0.919961	0.774804	1
H	0.861308	-0.876359	0.932704	1
H	1.650118	-0.774429	-2.029556	1
H	1.357798	-2.218929	-1.074926	1
H	2.751308	-1.184499	-0.692726	1
H	1.241318	1.606721	-0.909416	1
H	1.791208	1.120401	2.079214	1
H	2.046008	2.682541	1.107574	1
Es	1.774116	1.291489	1.780342	99
Es	1.289825	1.039695	0.017966	99
Es	-2.182061	-0.171154	0.104751	99
Es	1.704191	-1.181283	-1.012883	99
Es	-1.492797	-0.105743	0.418121	99
Es	-0.015870	-0.404946	-0.327939	99
Es	1.255530	1.414269	-0.617403	99
Es	-3.389079	-0.072367	0.267436	99
Es	-0.849836	-0.311223	-0.169010	99
Es	-2.971556	-0.935969	-0.462956	99
Es	-0.498269	-0.247117	-0.616993	99
Es	1.471392	-1.882905	-1.042150	99
Es	-2.923014	0.223452	-0.799100	99
Es	1.667958	-0.894963	-1.704299	99
Es	1.273998	-0.775291	-0.530059	99
Es	-1.432835	-0.582112	1.006184	99
Es	-1.394307	0.599770	0.669993	99
Es	2.409177	-1.179814	-0.788558	99
Es	0.825116	-0.389409	-0.050169	99
Es	1.214546	1.439136	0.657707	99
Es	1.733642	1.642676	1.129087	99
Es	-2.861896	-0.237583	-0.219582	99
Es	-0.508804	-0.426015	-0.563037	99
Es	0.849338	-0.716187	0.636101	99
Es	1.819951	1.247761	0.514026	99
Es	1.065178	0.338521	-0.006559	99
Es	1.946524	2.344794	1.121062	99
Es	-0.585322	-0.655923	-0.797699	99
47
Properties=species:S:1:pos:R:3:Z:I:1 energy=-309.13836007770885 field_type=dipole dipole="0.000000 0.000000 0.000000" charge=0
C	-2.861912	-0.237589	-0.219606	6
C	-1.492922	-0.105679	0.418294	6
O	-0.508892	-0.425979	-0.563426	8
C	0.825288	-0.389439	-0.050056	6
C	1.704198	-1.181299	-1.012906	6
C	1.289858	1.039751	0.018044	6
C	1.733598	1.642631	1.128994	6
H	-3.651322	0.005271	0.497494	1
H	-3.019492	-1.257349	-0.586506	1
H	-2.951302	0.429631	-1.083456	1
H	-1.412842	-0.795359	1.265454	1
H	-1.353322	0.919961	0.774804	1
H	0.861308	-0.876359	0.932704	1
H	1.650118	-0.774429	-2.029556	1
H	1.357798	-2.218929	-1.074926	1
H	2.751308	-1.184499	-0.692726	1
H	1.241318	1.606721	-0.909416	1
H	1.791208	1.120401	2.079214	1
H	2.046008	2.682541	1.107574	1