50
Properties=species:S:1:pos:R:3:Z:I:1 energy=-310.3217524209537 field_type=dipole dipole="0.000000 0.000000 0.000000" charge=0
C	-2.049230	-1.536561	0.156263	6
O	-0.717640	-1.058551	0.286333	8
C	-0.515680	0.252459	-0.254287	6
C	-1.203820	1.310648	0.609833	6
C	1.006870	0.510979	-0.373127	6
C	1.738560	0.431309	0.970743	6
C	1.646950	-0.478761	-1.354487	6
H	-2.062880	-2.589381	0.450803	1
H	-2.393120	-1.462152	-0.879747	1
H	-2.723550	-0.990221	0.821133	1
H	-0.942980	0.291519	-1.264877	1
H	-0.980910	1.167528	1.671673	1
H	-2.291880	1.242728	0.508723	1
H	-0.908400	2.321449	0.312493	1
H	1.153570	1.520038	-0.779357	1
H	1.621960	-0.551751	1.437203	1
H	1.368520	1.187649	1.670083	1
H	2.810430	0.612728	0.836473	1
H	1.574630	-1.509671	-0.994257	1
H	2.708320	-0.247561	-1.498247	1
H	1.160290	-0.424421	-2.333377	1
Es	-2.059865	-2.253752	0.356114	99
Es	-2.049027	-1.536483	0.156278	99
Es	1.738551	0.431328	0.970720	99
Es	0.244503	0.376846	-0.300119	99
Es	-0.549235	-1.244830	0.110978	99
Es	1.660671	-0.234522	1.283427	99
Es	1.309849	-0.438801	-2.025751	99
Es	-1.946280	1.261284	0.535968	99
Es	1.364589	0.469245	0.308342	99
Es	-0.666817	-1.031926	0.588052	99
Es	-0.515710	0.252281	-0.254159	99
Es	2.470353	0.557164	0.871450	99
Es	-0.998011	1.996098	0.401589	99
Es	1.599916	-1.175507	-1.108571	99
Es	1.646945	-0.478735	-1.354486	99
Es	2.373276	-0.315349	-1.450507	99
Es	-0.816487	0.280690	-0.955729	99
Es	-0.717803	-1.058417	0.286239	99
Es	-1.203824	1.310646	0.609817	99
Es	-1.045912	1.213575	1.327619	99
Es	1.006865	0.510943	-0.373113	99
Es	-0.682269	-0.564069	0.074216	99
Es	-0.864913	0.793071	0.188850	99
Es	-2.289552	-1.478097	-0.557533	99
Es	1.482654	0.950206	1.447263	99
Es	-2.518985	-1.157422	0.607008	99
Es	1.324107	0.007825	-0.867371	99
Es	1.098275	1.207257	-0.652746	99
Es	-1.237015	-1.205017	0.219497	99
50
Properties=species:S:1:pos:R:3:Z:I:1 energy=-310.3217524209537 field_type=dipole dipole="0.000000 0.000000 0.000000" charge=0
C	-2.049230	-1.536561	0.156263	6
O	-0.717640	-1.058551	0.286333	8
C	-0.515680	0.252459	-0.254287	6
C	-1.203820	1.310648	0.609833	6
C	1.006870	0.510979	-0.373127	6
C	1.738560	0.431309	0.970743	6
C	1.646950	-0.478761	-1.354487	6
H	-2.062880	-2.589381	0.450803	1
H	-2.393120	-1.462152	-0.879747	1
H	-2.723550	-0.990221	0.821133	1
H	-0.942980	0.291519	-1.264877	1
H	-0.980910	1.167528	1.671673	1
H	-2.291880	1.242728	0.508723	1
H	-0.908400	2.321449	0.312493	1
H	1.153570	1.520038	-0.779357	1
H	1.621960	-0.551751	1.437203	1
H	1.368520	1.187649	1.670083	1
H	2.810430	0.612728	0.836473	1
H	1.574630	-1.509671	-0.994257	1
H	2.708320	-0.247561	-1.498247	1
H	1.160290	-0.424421	-2.333377	1
Es	-0.550167	-1.243841	0.113086	99
Es	1.483010	0.949677	1.446657	99
Es	-0.865129	0.793234	0.189099	99
Es	-1.237572	-1.206218	0.219742	99
Es	1.599701	-1.176037	-1.108089	99
Es	-0.816542	0.280812	-0.955775	99
Es	-1.946351	1.260709	0.535868	99
Es	-2.518446	-1.157572	0.606547	99
Es	-2.049031	-1.536484	0.156278	99
Es	-1.203825	1.310647	0.609816	99
Es	1.738550	0.431327	0.970718	99
Es	-0.515709	0.252282	-0.254161	99
Es	1.309657	-0.438429	-2.025556	99
Es	2.470535	0.557663	0.871415	99
Es	0.244565	0.376674	-0.299988	99
Es	1.006866	0.510943	-0.373114	99
Es	1.364538	0.469375	0.308519	99
Es	1.098532	1.207649	-0.653253	99
Es	-1.045839	1.213188	1.327444	99
Es	-0.681155	-0.562986	0.073793	99
Es	1.660385	-0.234995	1.283856	99
Es	1.646945	-0.478735	-1.354485	99
Es	-0.997711	1.996645	0.401275	99
Es	-2.060140	-2.254157	0.356515	99
Es	1.324072	0.007835	-0.867389	99
Es	-0.666495	-1.032835	0.586380	99
Es	2.373325	-0.314824	-1.450520	99
Es	-0.717908	-1.058343	0.286181	99
Es	-2.289810	-1.477671	-0.557515	99
50
Properties=species:S:1:pos:R:3:Z:I:1 energy=-310.3217524209537 field_type=dipole dipole="0.000000 0.000000 0.000000" charge=0
C	-2.049230	-1.536561	0.156263	6
O	-0.717640	-1.058551	0.286333	8
C	-0.515680	0.252459	-0.254287	6
C	-1.203820	1.310648	0.609833	6
C	1.006870	0.510979	-0.373127	6
C	1.738560	0.431309	0.970743	6
C	1.646950	-0.478761	-1.354487	6
H	-2.062880	-2.589381	0.450803	1
H	-2.393120	-1.462152	-0.879747	1
H	-2.723550	-0.990221	0.821133	1
H	-0.942980	0.291519	-1.264877	1
H	-0.980910	1.167528	1.671673	1
H	-2.291880	1.242728	0.508723	1
H	-0.908400	2.321449	0.312493	1
H	1.153570	1.520038	-0.779357	1
H	1.621960	-0.551751	1.437203	1
H	1.368520	1.187649	1.670083	1
H	2.810430	0.612728	0.836473	1
H	1.574630	-1.509671	-0.994257	1
H	2.708320	-0.247561	-1.498247	1
H	1.160290	-0.424421	-2.333377	1
Es	-1.946464	1.260476	0.535889	99
Es	1.738550	0.431327	0.970718	99
Es	-0.665121	-1.034212	0.585590	99
Es	2.373368	-0.314668	-1.450415	99
Es	-2.060284	-2.254465	0.356730	99
Es	1.483170	0.949445	1.446096	99
Es	1.309662	-0.438146	-2.025506	99
Es	-1.238067	-1.206695	0.220244	99
Es	-2.049029	-1.536482	0.156278	99
Es	-2.289939	-1.477431	-0.557393	99
Es	0.244555	0.376617	-0.300054	99
Es	1.098728	1.207905	-0.653497	99
Es	-0.997352	1.996968	0.401093	99
Es	-2.518159	-1.157639	0.606246	99
Es	-1.045774	1.212909	1.327224	99
Es	1.646945	-0.478736	-1.354486	99
Es	-0.816710	0.280966	-0.955702	99
Es	-0.717936	-1.058336	0.286205	99
Es	-0.515708	0.252278	-0.254156	99
Es	1.660242	-0.235314	1.284301	99
Es	-0.865266	0.793248	0.189351	99
Es	1.364524	0.469369	0.308459	99
Es	1.324090	0.007781	-0.867293	99
Es	2.470532	0.558042	0.871481	99
Es	1.006866	0.510944	-0.373114	99
Es	1.599491	-1.176287	-1.107959	99
Es	-0.551879	-1.242581	0.113352	99
Es	-1.203825	1.310644	0.609816	99
Es	-0.680359	-0.562397	0.073845	99
50
Properties=species:S:1:pos:R:3:Z:I:1 energy=-310.3217524209537 field_type=dipole dipole="0.000000 0.000000 0.000000" charge=0
C	-2.049230	-1.536561	0.156263	6
O	-0.717640	-1.058551	0.286333	8
C	-0.515680	0.252459	-0.254287	6
C	-1.203820	1.310648	0.609833	6
C	1.006870	0.510979	-0.373127	6
C	1.738560	0.431309	0.970743	6
C	1.646950	-0.478761	-1.354487	6
H	-2.062880	-2.589381	0.450803	1
H	-2.393120	-1.462152	-0.879747	1
H	-2.723550	-0.990221	0.821133	1
H	-0.942980	0.291519	-1.264877	1
H	-0.980910	1.167528	1.671673	1
H	-2.291880	1.242728	0.508723	1
H	-0.908400	2.321449	0.312493	1
H	1.153570	1.520038	-0.779357	1
H	1.621960	-0.551751	1.437203	1
H	1.368520	1.187649	1.670083	1
H	2.810430	0.612728	0.836473	1
H	1.574630	-1.509671	-0.994257	1
H	2.708320	-0.247561	-1.498247	1
H	1.160290	-0.424421	-2.333377	1
Es	-2.517936	-1.157705	0.606019	99
Es	-0.997132	1.997234	0.400979	99
Es	1.309556	-0.437999	-2.025379	99
Es	-1.045760	1.212666	1.327097	99
Es	-2.290021	-1.477192	-0.557296	99
Es	-0.515709	0.252283	-0.254159	99
Es	1.006867	0.510946	-0.373116	99
Es	-0.717956	-1.058304	0.286241	99
Es	0.244637	0.376531	-0.300007	99
Es	-1.946465	1.260306	0.535890	99
Es	1.599427	-1.176528	-1.107721	99
Es	1.364463	0.469186	0.308282	99
Es	1.324149	0.007798	-0.867467	99
Es	1.098817	1.208159	-0.653513	99
Es	-0.816743	0.281024	-0.955697	99
Es	2.373382	-0.314372	-1.450453	99
Es	-0.865511	0.793255	0.189493	99
Es	2.470472	0.558174	0.871576	99
Es	1.646946	-0.478735	-1.354486	99
Es	-2.049026	-1.536482	0.156279	99
Es	1.738553	0.431328	0.970713	99
Es	-0.665967	-1.032891	0.585874	99
Es	-1.203825	1.310647	0.609815	99
Es	-0.550590	-1.242296	0.114469	99
Es	-0.681223	-0.562805	0.073141	99
Es	1.483372	0.949329	1.445747	99
Es	-1.237664	-1.207883	0.219517	99
Es	-2.060424	-2.254714	0.356853	99
Es	1.660163	-0.235428	1.284653	99
50
Properties=species:S:1:pos:R:3:Z:I:1 energy=-310.3217524209537 field_type=dipole dipole="0.000000 0.000000 0.000000" charge=0
C	-2.049230	-1.536561	0.156263	6
O	-0.717640	-1.058551	0.286333	8
C	-0.515680	0.252459	-0.254287	6
C	-1.203820	1.310648	0.609833	6
C	1.006870	0.510979	-0.373127	6
C	1.738560	0.431309	0.970743	6
C	1.646950	-0.478761	-1.354487	6
H	-2.062880	-2.589381	0.450803	1
H	-2.393120	-1.462152	-0.879747	1
H	-2.723550	-0.990221	0.821133	1
H	-0.942980	0.291519	-1.264877	1
H	-0.980910	1.167528	1.671673	1
H	-2.291880	1.242728	0.508723	1
H	-0.908400	2.321449	0.312493	1
H	1.153570	1.520038	-0.779357	1
H	1.621960	-0.551751	1.437203	1
H	1.368520	1.187649	1.670083	1
H	2.810430	0.612728	0.836473	1
H	1.574630	-1.509671	-0.994257	1
H	2.708320	-0.247561	-1.498247	1
H	1.160290	-0.424421	-2.333377	1
Es	1.660015	-0.235531	1.284740	99
Es	-1.238144	-1.206823	0.219773	99
Es	1.599313	-1.176676	-1.107694	99
Es	-2.290025	-1.477061	-0.557209	99
Es	-1.946609	1.260128	0.535922	99
Es	-2.049021	-1.536475	0.156279	99
Es	1.006865	0.510939	-0.373112	99
Es	1.483372	0.949103	1.445515	99
Es	-1.203826	1.310647	0.609816	99
Es	-2.517810	-1.157643	0.605856	99
Es	0.244729	0.376502	-0.299953	99
Es	1.738550	0.431327	0.970718	99
Es	1.323969	0.007651	-0.867463	99
Es	2.373442	-0.314231	-1.450378	99
Es	-0.662394	-1.037295	0.586658	99
Es	-0.816779	0.281026	-0.955597	99
Es	-0.679891	-0.561741	0.074369	99
Es	1.646945	-0.478734	-1.354485	99
Es	2.470613	0.558369	0.871664	99
Es	-0.515710	0.252279	-0.254159	99
Es	-0.865493	0.793319	0.189656	99
Es	-1.045732	1.212668	1.326906	99
Es	-0.717932	-1.058318	0.286219	99
Es	-0.555138	-1.240008	0.112219	99
Es	-0.997017	1.997345	0.400917	99
Es	1.364530	0.469295	0.308225	99
Es	1.309636	-0.437888	-2.025304	99
Es	-2.060518	-2.254906	0.356956	99
Es	1.098912	1.208263	-0.653711	99
50
Properties=species:S:1:pos:R:3:Z:I:1 energy=-310.3217524209537 field_type=dipole dipole="0.000000 0.000000 0.000000" charge=0
C	-2.049230	-1.536561	0.156263	6
O	-0.717640	-1.058551	0.286333	8
C	-0.515680	0.252459	-0.254287	6
C	-1.203820	1.310648	0.609833	6
C	1.006870	0.510979	-0.373127	6
C	1.738560	0.431309	0.970743	6
C	1.646950	-0.478761	-1.354487	6
H	-2.062880	-2.589381	0.450803	1
H	-2.393120	-1.462152	-0.879747	1
H	-2.723550	-0.990221	0.821133	1
H	-0.942980	0.291519	-1.264877	1
H	-0.980910	1.167528	1.671673	1
H	-2.291880	1.242728	0.508723	1
H	-0.908400	2.321449	0.312493	1
H	1.153570	1.520038	-0.779357	1
H	1.621960	-0.551751	1.437203	1
H	1.368520	1.187649	1.670083	1
H	2.810430	0.612728	0.836473	1
H	1.574630	-1.509671	-0.994257	1
H	2.708320	-0.247561	-1.498247	1
H	1.160290	-0.424421	-2.333377	1
Es	-0.662694	-1.036543	0.586082	99
Es	-1.203826	1.310647	0.609816	99
Es	1.324097	0.007605	-0.867419	99
Es	2.373377	-0.314183	-1.450388	99
Es	1.738551	0.431327	0.970719	99
Es	1.309603	-0.437723	-2.025276	99
Es	-1.237999	-1.207351	0.220282	99
Es	-1.045731	1.212531	1.326958	99
Es	-1.946495	1.260016	0.535892	99
Es	-2.290010	-1.477082	-0.557170	99
Es	-0.515710	0.252280	-0.254160	99
Es	-0.865621	0.793318	0.189684	99
Es	-0.816868	0.281045	-0.955547	99
Es	-2.517763	-1.157626	0.605670	99
Es	1.646946	-0.478735	-1.354486	99
Es	-2.060646	-2.254933	0.357066	99
Es	-0.679840	-0.561715	0.073449	99
Es	1.364531	0.469443	0.308209	99
Es	1.006868	0.510944	-0.373115	99
Es	-0.996991	1.997493	0.400807	99
Es	2.470536	0.558456	0.871640	99
Es	0.244757	0.376527	-0.299948	99
Es	1.098896	1.208263	-0.653828	99
Es	1.483452	0.949042	1.445467	99
Es	-0.554941	-1.240246	0.113267	99
Es	-2.049026	-1.536480	0.156274	99
Es	1.599266	-1.176826	-1.107640	99
Es	1.660058	-0.235646	1.284798	99
Es	-0.717926	-1.058315	0.286237	99
50
Properties=species:S:1:pos:R:3:Z:I:1 energy=-310.3217524209537 field_type=dipole dipole="0.000000 0.000000 0.000000" charge=0
C	-2.049230	-1.536561	0.156263	6
O	-0.717640	-1.058551	0.286333	8
C	-0.515680	0.252459	-0.254287	6
C	-1.203820	1.310648	0.609833	6
C	1.006870	0.510979	-0.373127	6
C	1.738560	0.431309	0.970743	6
C	1.646950	-0.478761	-1.354487	6
H	-2.062880	-2.589381	0.450803	1
H	-2.393120	-1.462152	-0.879747	1
H	-2.723550	-0.990221	0.821133	1
H	-0.942980	0.291519	-1.264877	1
H	-0.980910	1.167528	1.671673	1
H	-2.291880	1.242728	0.508723	1
H	-0.908400	2.321449	0.312493	1
H	1.153570	1.520038	-0.779357	1
H	1.621960	-0.551751	1.437203	1
H	1.368520	1.187649	1.670083	1
H	2.810430	0.612728	0.836473	1
H	1.574630	-1.509671	-0.994257	1
H	2.708320	-0.247561	-1.498247	1
H	1.160290	-0.424421	-2.333377	1
Es	-0.996969	1.997528	0.400854	99
Es	-1.238129	-1.207670	0.220402	99
Es	1.660100	-0.235700	1.285012	99
Es	1.599262	-1.176843	-1.107542	99
Es	-0.679844	-0.561857	0.073069	99
Es	1.364379	0.469154	0.308299	99
Es	-2.060636	-2.255060	0.357076	99
Es	2.373412	-0.314101	-1.450447	99
Es	0.244698	0.376621	-0.299974	99
Es	1.738549	0.431327	0.970717	99
Es	1.324110	0.007683	-0.867382	99
Es	1.099087	1.208374	-0.653810	99
Es	-0.555069	-1.239976	0.113701	99
Es	-0.662519	-1.036297	0.585987	99
Es	-1.045697	1.212500	1.326856	99
Es	1.483469	0.949037	1.445260	99
Es	-2.517657	-1.157692	0.605654	99
Es	-0.816722	0.281027	-0.955588	99
Es	2.470512	0.558604	0.871581	99
Es	-0.717893	-1.058374	0.286130	99
Es	-1.946607	1.259915	0.535886	99
Es	-0.515709	0.252282	-0.254158	99
Es	1.646945	-0.478735	-1.354486	99
Es	-2.290078	-1.476940	-0.557130	99
Es	1.309541	-0.437756	-2.025214	99
Es	1.006865	0.510944	-0.373114	99
Es	-1.203826	1.310647	0.609816	99
Es	-0.865699	0.793370	0.189608	99
Es	-2.049025	-1.536480	0.156278	99
50
Properties=species:S:1:pos:R:3:Z:I:1 energy=-310.3217524209537 field_type=dipole dipole="0.000000 0.000000 0.000000" charge=0
C	-2.049230	-1.536561	0.156263	6
O	-0.717640	-1.058551	0.286333	8
C	-0.515680	0.252459	-0.254287	6
C	-1.203820	1.310648	0.609833	6
C	1.006870	0.510979	-0.373127	6
C	1.738560	0.431309	0.970743	6
C	1.646950	-0.478761	-1.354487	6
H	-2.062880	-2.589381	0.450803	1
H	-2.393120	-1.462152	-0.879747	1
H	-2.723550	-0.990221	0.821133	1
H	-0.942980	0.291519	-1.264877	1
H	-0.980910	1.167528	1.671673	1
H	-2.291880	1.242728	0.508723	1
H	-0.908400	2.321449	0.312493	1
H	1.153570	1.520038	-0.779357	1
H	1.621960	-0.551751	1.437203	1
H	1.368520	1.187649	1.670083	1
H	2.810430	0.612728	0.836473	1
H	1.574630	-1.509671	-0.994257	1
H	2.708320	-0.247561	-1.498247	1
H	1.160290	-0.424421	-2.333377	1
Es	2.470475	0.558609	0.871574	99
Es	-0.996881	1.997527	0.400758	99
Es	0.244780	0.376432	-0.299955	99
Es	1.364438	0.469510	0.308311	99
Es	1.324159	0.007652	-0.867285	99
Es	-0.717818	-1.058389	0.286233	99
Es	1.599312	-1.176888	-1.107427	99
Es	-0.680015	-0.561416	0.073811	99
Es	-2.049024	-1.536479	0.156279	99
Es	1.483617	0.948947	1.445249	99
Es	1.098970	1.208405	-0.654053	99
Es	-1.946576	1.259910	0.535783	99
Es	-1.238144	-1.208038	0.220426	99
Es	-1.203825	1.310647	0.609816	99
Es	-2.290143	-1.476772	-0.557120	99
Es	2.373375	-0.314011	-1.450536	99
Es	1.738550	0.431327	0.970718	99
Es	1.006865	0.510943	-0.373113	99
Es	-0.515710	0.252280	-0.254158	99
Es	-0.662743	-1.036572	0.585336	99
Es	-1.045753	1.212497	1.326925	99
Es	-0.865546	0.793302	0.189751	99
Es	-0.554724	-1.239763	0.113620	99
Es	1.309441	-0.437767	-2.025166	99
Es	1.646945	-0.478735	-1.354486	99
Es	-2.060714	-2.255100	0.357014	99
Es	-0.816919	0.281120	-0.955599	99
Es	-2.517562	-1.157812	0.605636	99
Es	1.660018	-0.235835	1.285002	99
50
Properties=species:S:1:pos:R:3:Z:I:1 energy=-310.3217524209537 field_type=dipole dipole="0.000000 0.000000 0.000000" charge=0
C	-2.049230	-1.536561	0.156263	6
O	-0.717640	-1.058551	0.286333	8
C	-0.515680	0.252459	-0.254287	6
C	-1.203820	1.310648	0.609833	6
C	1.006870	0.510979	-0.373127	6
C	1.738560	0.431309	0.970743	6
C	1.646950	-0.478761	-1.354487	6
H	-2.062880	-2.589381	0.450803	1
H	-2.393120	-1.462152	-0.879747	1
H	-2.723550	-0.990221	0.821133	1
H	-0.942980	0.291519	-1.264877	1
H	-0.980910	1.167528	1.671673	1
H	-2.291880	1.242728	0.508723	1
H	-0.908400	2.321449	0.312493	1
H	1.153570	1.520038	-0.779357	1
H	1.621960	-0.551751	1.437203	1
H	1.368520	1.187649	1.670083	1
H	2.810430	0.612728	0.836473	1
H	1.574630	-1.509671	-0.994257	1
H	2.708320	-0.247561	-1.498247	1
H	1.160290	-0.424421	-2.333377	1
Es	-0.663285	-1.036407	0.585458	99
Es	-2.290169	-1.476863	-0.557158	99
Es	1.099105	1.208459	-0.654003	99
Es	0.244734	0.376513	-0.299954	99
Es	-2.517504	-1.157753	0.605529	99
Es	-0.717931	-1.058328	0.286171	99
Es	-0.515710	0.252281	-0.254157	99
Es	-1.203825	1.310647	0.609816	99
Es	1.309562	-0.437645	-2.025204	99
Es	-1.237942	-1.208656	0.219676	99
Es	2.470577	0.558739	0.871635	99
Es	1.324102	0.007745	-0.867405	99
Es	-2.060686	-2.255119	0.357226	99
Es	1.738549	0.431327	0.970716	99
Es	1.646945	-0.478736	-1.354488	99
Es	-0.996830	1.997556	0.400743	99
Es	-1.946656	1.259916	0.535949	99
Es	-0.865729	0.793307	0.189724	99
Es	1.483528	0.948829	1.445157	99
Es	1.364474	0.469325	0.308318	99
Es	-1.045601	1.212440	1.326799	99
Es	-2.049017	-1.536477	0.156281	99
Es	-0.680076	-0.561306	0.073671	99
Es	1.599110	-1.176944	-1.107393	99
Es	-0.554261	-1.239461	0.114331	99
Es	2.373414	-0.314087	-1.450400	99
Es	1.659984	-0.235843	1.285006	99
Es	1.006866	0.510943	-0.373113	99
Es	-0.816876	0.281128	-0.955586	99
50
Properties=species:S:1:pos:R:3:Z:I:1 energy=-310.3217524209537 field_type=dipole dipole="0.000000 0.000000 0.000000" charge=0
C	-2.049230	-1.536561	0.156263	6
O	-0.717640	-1.058551	0.286333	8
C	-0.515680	0.252459	-0.254287	6
C	-1.203820	1.310648	0.609833	6
C	1.006870	0.510979	-0.373127	6
C	1.738560	0.431309	0.970743	6
C	1.646950	-0.478761	-1.354487	6
H	-2.062880	-2.589381	0.450803	1
H	-2.393120	-1.462152	-0.879747	1
H	-2.723550	-0.990221	0.821133	1
H	-0.942980	0.291519	-1.264877	1
H	-0.980910	1.167528	1.671673	1
H	-2.291880	1.242728	0.508723	1
H	-0.908400	2.321449	0.312493	1
H	1.153570	1.520038	-0.779357	1
H	1.621960	-0.551751	1.437203	1
H	1.368520	1.187649	1.670083	1
H	2.810430	0.612728	0.836473	1
H	1.574630	-1.509671	-0.994257	1
H	2.708320	-0.247561	-1.498247	1
H	1.160290	-0.424421	-2.333377	1
Es	-0.515711	0.252280	-0.254159	99
Es	1.599008	-1.177063	-1.107488	99
Es	2.470553	0.558698	0.871614	99
Es	-0.816856	0.281087	-0.955506	99
Es	0.244788	0.376446	-0.299983	99
Es	-2.517591	-1.157733	0.605522	99
Es	2.373507	-0.313964	-1.450349	99
Es	-2.290077	-1.476770	-0.556953	99
Es	1.659921	-0.235912	1.284997	99
Es	-0.680264	-0.561116	0.074662	99
Es	1.324034	0.007663	-0.867414	99
Es	1.738550	0.431327	0.970718	99
Es	-1.238210	-1.207373	0.220995	99
Es	-2.060739	-2.255252	0.357022	99
Es	-0.717991	-1.058243	0.286330	99
Es	1.309677	-0.437560	-2.025085	99
Es	1.006865	0.510941	-0.373114	99
Es	-0.996779	1.997729	0.400742	99
Es	-1.946643	1.259814	0.536029	99
Es	-0.865821	0.793303	0.189768	99
Es	1.364449	0.469408	0.308273	99
Es	1.483593	0.948846	1.445154	99
Es	-1.045646	1.212396	1.326645	99
Es	1.099098	1.208559	-0.654018	99
Es	1.646944	-0.478734	-1.354484	99
Es	-0.558086	-1.237593	0.110782	99
Es	-1.203826	1.310648	0.609816	99
Es	-0.658875	-1.039826	0.586551	99
Es	-2.049022	-1.536476	0.156279	99
50
Properties=species:S:1:pos:R:3:Z:I:1 energy=-310.3217524209537 field_type=dipole dipole="0.000000 0.000000 0.000000" charge=0
C	-2.049230	-1.536561	0.156263	6
O	-0.717640	-1.058551	0.286333	8
C	-0.515680	0.252459	-0.254287	6
C	-1.203820	1.310648	0.609833	6
C	1.006870	0.510979	-0.373127	6
C	1.738560	0.431309	0.970743	6
C	1.646950	-0.478761	-1.354487	6
H	-2.062880	-2.589381	0.450803	1
H	-2.393120	-1.462152	-0.879747	1
H	-2.723550	-0.990221	0.821133	1
H	-0.942980	0.291519	-1.264877	1
H	-0.980910	1.167528	1.671673	1
H	-2.291880	1.242728	0.508723	1
H	-0.908400	2.321449	0.312493	1
H	1.153570	1.520038	-0.779357	1
H	1.621960	-0.551751	1.437203	1
H	1.368520	1.187649	1.670083	1
H	2.810430	0.612728	0.836473	1
H	1.574630	-1.509671	-0.994257	1
H	2.708320	-0.247561	-1.498247	1
H	1.160290	-0.424421	-2.333377	1
Es	1.483665	0.948877	1.445119	99
Es	-2.290126	-1.476780	-0.557041	99
Es	1.738550	0.431328	0.970718	99
Es	1.324087	0.007771	-0.867390	99
Es	1.309541	-0.437568	-2.025161	99
Es	1.646945	-0.478735	-1.354486	99
Es	-0.555652	-1.240366	0.113756	99
Es	-0.679589	-0.561850	0.072461	99
Es	0.244758	0.376392	-0.300012	99
Es	2.373371	-0.313891	-1.450386	99
Es	-0.816930	0.281149	-0.955579	99
Es	1.659992	-0.235916	1.285103	99
Es	1.364443	0.469279	0.308382	99
Es	-2.049025	-1.536481	0.156278	99
Es	-0.661966	-1.036166	0.585353	99
Es	-1.045697	1.212360	1.326769	99
Es	-2.060861	-2.255236	0.357257	99
Es	-0.717914	-1.058417	0.286174	99
Es	-1.238276	-1.207346	0.221621	99
Es	2.470504	0.558724	0.871510	99
Es	-1.203826	1.310647	0.609816	99
Es	-1.946656	1.259786	0.535826	99
Es	-2.517444	-1.157738	0.605324	99
Es	-0.515710	0.252280	-0.254158	99
Es	-0.865718	0.793345	0.189894	99
Es	1.099094	1.208551	-0.654060	99
Es	1.599153	-1.177086	-1.107344	99
Es	1.006865	0.510942	-0.373113	99
Es	-0.996726	1.997678	0.400713	99
50
Properties=species:S:1:pos:R:3:Z:I:1 energy=-310.3217524209537 field_type=dipole dipole="0.000000 0.000000 0.000000" charge=0
C	-2.049230	-1.536561	0.156263	6
O	-0.717640	-1.058551	0.286333	8
C	-0.515680	0.252459	-0.254287	6
C	-1.203820	1.310648	0.609833	6
C	1.006870	0.510979	-0.373127	6
C	1.738560	0.431309	0.970743	6
C	1.646950	-0.478761	-1.354487	6
H	-2.062880	-2.589381	0.450803	1
H	-2.393120	-1.462152	-0.879747	1
H	-2.723550	-0.990221	0.821133	1
H	-0.942980	0.291519	-1.264877	1
H	-0.980910	1.167528	1.671673	1
H	-2.291880	1.242728	0.508723	1
H	-0.908400	2.321449	0.312493	1
H	1.153570	1.520038	-0.779357	1
H	1.621960	-0.551751	1.437203	1
H	1.368520	1.187649	1.670083	1
H	2.810430	0.612728	0.836473	1
H	1.574630	-1.509671	-0.994257	1
H	2.708320	-0.247561	-1.498247	1
H	1.160290	-0.424421	-2.333377	1
Es	-0.816906	0.281119	-0.955526	99
Es	1.738550	0.431327	0.970718	99
Es	1.483640	0.948782	1.444971	99
Es	-0.996826	1.997771	0.400734	99
Es	2.373383	-0.313832	-1.450426	99
Es	-2.517490	-1.157735	0.605393	99
Es	1.646945	-0.478735	-1.354486	99
Es	1.099084	1.208607	-0.653981	99
Es	-0.717916	-1.058375	0.286259	99
Es	-1.238665	-1.206906	0.222219	99
Es	-0.559163	-1.237359	0.109931	99
Es	2.470539	0.558802	0.871653	99
Es	0.244794	0.376376	-0.300003	99
Es	-2.060809	-2.255248	0.357189	99
Es	-1.203825	1.310647	0.609816	99
Es	-2.049026	-1.536481	0.156279	99
Es	1.599159	-1.177155	-1.107415	99
Es	-0.515710	0.252281	-0.254159	99
Es	-2.290106	-1.476771	-0.557019	99
Es	-1.946662	1.259734	0.536073	99
Es	1.324106	0.007732	-0.867411	99
Es	-0.865754	0.793288	0.189748	99
Es	-0.679916	-0.560569	0.075351	99
Es	-1.045600	1.212397	1.326594	99
Es	-0.657787	-1.040940	0.585614	99
Es	1.006863	0.510940	-0.373112	99
Es	1.659904	-0.235956	1.285167	99
Es	1.309575	-0.437537	-2.025070	99
Es	1.364465	0.469327	0.308244	99
50
Properties=species:S:1:pos:R:3:Z:I:1 energy=-310.3217524209537 field_type=dipole dipole="0.000000 0.000000 0.000000" charge=0
C	-2.049230	-1.536561	0.156263	6
O	-0.717640	-1.058551	0.286333	8
C	-0.515680	0.252459	-0.254287	6
C	-1.203820	1.310648	0.609833	6
C	1.006870	0.510979	-0.373127	6
C	1.738560	0.431309	0.970743	6
C	1.646950	-0.478761	-1.354487	6
H	-2.062880	-2.589381	0.450803	1
H	-2.393120	-1.462152	-0.879747	1
H	-2.723550	-0.990221	0.821133	1
H	-0.942980	0.291519	-1.264877	1
H	-0.980910	1.167528	1.671673	1
H	-2.291880	1.242728	0.508723	1
H	-0.908400	2.321449	0.312493	1
H	1.153570	1.520038	-0.779357	1
H	1.621960	-0.551751	1.437203	1
H	1.368520	1.187649	1.670083	1
H	2.810430	0.612728	0.836473	1
H	1.574630	-1.509671	-0.994257	1
H	2.708320	-0.247561	-1.498247	1
H	1.160290	-0.424421	-2.333377	1
Es	-1.238452	-1.208085	0.221183	99
Es	-2.060840	-2.255401	0.357072	99
Es	-0.679717	-0.560960	0.074012	99
Es	-1.045861	1.212499	1.326687	99
Es	1.099102	1.208608	-0.654067	99
Es	-0.865595	0.793184	0.189895	99
Es	-2.517521	-1.157693	0.605373	99
Es	2.470466	0.558784	0.871601	99
Es	1.659956	-0.235997	1.285143	99
Es	-0.658638	-1.039813	0.586110	99
Es	-2.290041	-1.476664	-0.556871	99
Es	1.599126	-1.177149	-1.107397	99
Es	1.646946	-0.478735	-1.354486	99
Es	-0.558767	-1.236920	0.111868	99
Es	-1.203827	1.310648	0.609822	99
Es	1.738550	0.431328	0.970718	99
Es	-1.946664	1.259816	0.535796	99
Es	-0.996721	1.997664	0.400770	99
Es	1.324059	0.007696	-0.867383	99
Es	-0.816962	0.281141	-0.955428	99
Es	2.373417	-0.313866	-1.450511	99
Es	1.309569	-0.437573	-2.024994	99
Es	1.364486	0.469349	0.308258	99
Es	0.244895	0.376449	-0.300015	99
Es	-2.049015	-1.536470	0.156277	99
Es	1.006866	0.510943	-0.373113	99
Es	-0.515710	0.252280	-0.254158	99
Es	1.483638	0.948856	1.445027	99
Es	-0.717892	-1.058388	0.286155	99
50
Properties=species:S:1:pos:R:3:Z:I:1 energy=-310.3217524209537 field_type=dipole dipole="0.000000 0.000000 0.000000" charge=0
C	-2.049230	-1.536561	0.156263	6
O	-0.717640	-1.058551	0.286333	8
C	-0.515680	0.252459	-0.254287	6
C	-1.203820	1.310648	0.609833	6
C	1.006870	0.510979	-0.373127	6
C	1.738560	0.431309	0.970743	6
C	1.646950	-0.478761	-1.354487	6
H	-2.062880	-2.589381	0.450803	1
H	-2.393120	-1.462152	-0.879747	1
H	-2.723550	-0.990221	0.821133	1
H	-0.942980	0.291519	-1.264877	1
H	-0.980910	1.167528	1.671673	1
H	-2.291880	1.242728	0.508723	1
H	-0.908400	2.321449	0.312493	1
H	1.153570	1.520038	-0.779357	1
H	1.621960	-0.551751	1.437203	1
H	1.368520	1.187649	1.670083	1
H	2.810430	0.612728	0.836473	1
H	1.574630	-1.509671	-0.994257	1
H	2.708320	-0.247561	-1.498247	1
H	1.160290	-0.424421	-2.333377	1
Es	1.646945	-0.478735	-1.354486	99
Es	-2.049024	-1.536480	0.156278	99
Es	-0.515711	0.252281	-0.254158	99
Es	1.006866	0.510944	-0.373114	99
Es	-0.717907	-1.058393	0.286219	99
Es	-2.290095	-1.476707	-0.556900	99
Es	-0.996680	1.997765	0.400781	99
Es	2.470453	0.558917	0.871733	99
Es	1.599127	-1.177204	-1.107327	99
Es	-1.238268	-1.207691	0.220406	99
Es	1.738551	0.431327	0.970719	99
Es	2.373326	-0.313794	-1.450272	99
Es	1.309554	-0.437410	-2.025206	99
Es	-1.203826	1.310647	0.609816	99
Es	0.244798	0.376408	-0.300115	99
Es	1.364393	0.469276	0.308225	99
Es	1.483726	0.948651	1.444893	99
Es	1.324107	0.007720	-0.867366	99
Es	-0.662755	-1.036340	0.585474	99
Es	-1.946720	1.259736	0.535899	99
Es	-0.679270	-0.561707	0.072860	99
Es	-0.555272	-1.239916	0.114413	99
Es	-2.060791	-2.255391	0.357162	99
Es	-0.816925	0.281144	-0.955517	99
Es	1.659977	-0.236013	1.285266	99
Es	1.099199	1.208647	-0.654074	99
Es	-1.045697	1.212316	1.326602	99
Es	-0.865742	0.793317	0.189825	99
Es	-2.517489	-1.157784	0.605308	99
50
Properties=species:S:1:pos:R:3:Z:I:1 energy=-310.3217524209537 field_type=dipole dipole="0.000000 0.000000 0.000000" charge=0
C	-2.049230	-1.536561	0.156263	6
O	-0.717640	-1.058551	0.286333	8
C	-0.515680	0.252459	-0.254287	6
C	-1.203820	1.310648	0.609833	6
C	1.006870	0.510979	-0.373127	6
C	1.738560	0.431309	0.970743	6
C	1.646950	-0.478761	-1.354487	6
H	-2.062880	-2.589381	0.450803	1
H	-2.393120	-1.462152	-0.879747	1
H	-2.723550	-0.990221	0.821133	1
H	-0.942980	0.291519	-1.264877	1
H	-0.980910	1.167528	1.671673	1
H	-2.291880	1.242728	0.508723	1
H	-0.908400	2.321449	0.312493	1
H	1.153570	1.520038	-0.779357	1
H	1.621960	-0.551751	1.437203	1
H	1.368520	1.187649	1.670083	1
H	2.810430	0.612728	0.836473	1
H	1.574630	-1.509671	-0.994257	1
H	2.708320	-0.247561	-1.498247	1
H	1.160290	-0.424421	-2.333377	1
Es	-1.946661	1.259705	0.535913	99
Es	-2.290172	-1.476637	-0.556999	99
Es	-0.515711	0.252279	-0.254159	99
Es	1.364371	0.469309	0.308299	99
Es	1.324157	0.007800	-0.867377	99
Es	2.373435	-0.313859	-1.450453	99
Es	1.483702	0.948657	1.444979	99
Es	-1.203825	1.310647	0.609816	99
Es	-2.517382	-1.157814	0.605342	99
Es	-0.996716	1.997830	0.400798	99
Es	-0.816939	0.281104	-0.955486	99
Es	1.099200	1.208653	-0.654089	99
Es	1.738551	0.431327	0.970718	99
Es	-0.555543	-1.238849	0.114103	99
Es	-1.237899	-1.208501	0.219943	99
Es	-0.679795	-0.561077	0.073606	99
Es	-0.865842	0.793460	0.189720	99
Es	1.006865	0.510943	-0.373113	99
Es	-1.045623	1.212168	1.326645	99
Es	1.659959	-0.236007	1.285165	99
Es	-2.049025	-1.536480	0.156279	99
Es	2.470541	0.558901	0.871598	99
Es	0.244783	0.376383	-0.300081	99
Es	1.646946	-0.478736	-1.354487	99
Es	-2.060846	-2.255331	0.357202	99
Es	-0.662311	-1.037379	0.585622	99
Es	1.309513	-0.437461	-2.025029	99
Es	-0.717899	-1.058320	0.286166	99
Es	1.599018	-1.177183	-1.107298	99
50
Properties=species:S:1:pos:R:3:Z:I:1 energy=-310.3217524209537 field_type=dipole dipole="0.000000 0.000000 0.000000" charge=0
C	-2.049230	-1.536561	0.156263	6
O	-0.717640	-1.058551	0.286333	8
C	-0.515680	0.252459	-0.254287	6
C	-1.203820	1.310648	0.609833	6
C	1.006870	0.510979	-0.373127	6
C	1.738560	0.431309	0.970743	6
C	1.646950	-0.478761	-1.354487	6
H	-2.062880	-2.589381	0.450803	1
H	-2.393120	-1.462152	-0.879747	1
H	-2.723550	-0.990221	0.821133	1
H	-0.942980	0.291519	-1.264877	1
H	-0.980910	1.167528	1.671673	1
H	-2.291880	1.242728	0.508723	1
H	-0.908400	2.321449	0.312493	1
H	1.153570	1.520038	-0.779357	1
H	1.621960	-0.551751	1.437203	1
H	1.368520	1.187649	1.670083	1
H	2.810430	0.612728	0.836473	1
H	1.574630	-1.509671	-0.994257	1
H	2.708320	-0.247561	-1.498247	1
H	1.160290	-0.424421	-2.333377	1
Es	1.738551	0.431328	0.970719	99
Es	1.309486	-0.437452	-2.025124	99
Es	-0.515710	0.252280	-0.254156	99
Es	-0.865662	0.793292	0.189913	99
Es	0.244879	0.376301	-0.300092	99
Es	1.006866	0.510944	-0.373114	99
Es	-2.060855	-2.255394	0.357195	99
Es	-2.517395	-1.157798	0.605293	99
Es	-1.203826	1.310647	0.609816	99
Es	-0.556077	-1.239203	0.113815	99
Es	-0.661831	-1.037479	0.585127	99
Es	2.470484	0.558767	0.871804	99
Es	1.659781	-0.236042	1.285221	99
Es	2.373350	-0.313777	-1.450386	99
Es	-2.049024	-1.536481	0.156278	99
Es	1.364638	0.469408	0.308166	99
Es	-1.238344	-1.207906	0.220807	99
Es	-1.045635	1.212350	1.326609	99
Es	1.646945	-0.478735	-1.354486	99
Es	-0.996660	1.997727	0.400711	99
Es	-0.717896	-1.058385	0.286177	99
Es	1.099067	1.208684	-0.654139	99
Es	-0.679304	-0.561145	0.073486	99
Es	-1.946764	1.259723	0.535911	99
Es	1.324123	0.007763	-0.867397	99
Es	-0.817072	0.281199	-0.955470	99
Es	-2.290135	-1.476624	-0.556949	99
Es	1.483738	0.948739	1.444877	99
Es	1.599132	-1.177201	-1.107269	99
50
Properties=species:S:1:pos:R:3:Z:I:1 energy=-310.3217524209537 field_type=dipole dipole="0.000000 0.000000 0.000000" charge=0
C	-2.049230	-1.536561	0.156263	6
O	-0.717640	-1.058551	0.286333	8
C	-0.515680	0.252459	-0.254287	6
C	-1.203820	1.310648	0.609833	6
C	1.006870	0.510979	-0.373127	6
C	1.738560	0.431309	0.970743	6
C	1.646950	-0.478761	-1.354487	6
H	-2.062880	-2.589381	0.450803	1
H	-2.393120	-1.462152	-0.879747	1
H	-2.723550	-0.990221	0.821133	1
H	-0.942980	0.291519	-1.264877	1
H	-0.980910	1.167528	1.671673	1
H	-2.291880	1.242728	0.508723	1
H	-0.908400	2.321449	0.312493	1
H	1.153570	1.520038	-0.779357	1
H	1.621960	-0.551751	1.437203	1
H	1.368520	1.187649	1.670083	1
H	2.810430	0.612728	0.836473	1
H	1.574630	-1.509671	-0.994257	1
H	2.708320	-0.247561	-1.498247	1
H	1.160290	-0.424421	-2.333377	1
Es	-1.237618	-1.209051	0.217792	99
Es	1.599085	-1.177201	-1.107338	99
Es	-2.049025	-1.536483	0.156279	99
Es	-2.290111	-1.476608	-0.556979	99
Es	-2.060861	-2.255416	0.357249	99
Es	-0.515710	0.252281	-0.254158	99
Es	1.309453	-0.437397	-2.025071	99