42
Properties=species:S:1:pos:R:3:Z:I:1 energy=-343.8434694901813 field_type=dipole dipole="0.000000 0.000000 0.000000" charge=0
O	-2.234703	0.077497	-0.732980	8
C	-0.828212	0.065157	-0.776160	6
C	-0.240543	1.159597	0.106260	6
C	1.161637	0.661027	0.432170	6
C	0.989258	-0.830233	0.704200	6
C	-0.190012	-1.175793	-0.168900	6
O	-0.611613	-2.312073	-0.345270	8
H	-2.523782	-0.799533	-1.051260	1
H	-0.483953	0.163327	-1.811090	1
H	-0.831363	1.281807	1.022960	1
H	-0.227572	2.128837	-0.402200	1
H	1.821157	0.810797	-0.431520	1
H	1.600988	1.185607	1.285690	1
H	1.875067	-1.401463	0.419190	1
H	0.723648	-1.014553	1.748910	1
Es	-0.190010	-1.175795	-0.168896	99
Es	1.575592	-1.219048	0.510588	99
Es	0.989214	-0.830204	0.704163	99
Es	-2.234517	0.077235	-0.733072	99
Es	-1.690588	0.045228	-0.760739	99
Es	-2.371794	-0.388561	-0.911210	99
Es	-0.828404	0.065115	-0.776113	99
Es	-0.451446	-2.533818	-0.195447	99
Es	1.460364	1.019580	1.013224	99
Es	-0.574418	0.118068	-1.474462	99
Es	1.161602	0.660992	0.432164	99
Es	-0.309594	-1.933882	-0.484615	99
Es	-0.638706	1.225260	0.729515	99
Es	-0.610197	-1.879154	-0.083124	99
Es	-0.867295	-2.311025	-0.535190	99
Es	-2.323732	0.291225	-0.931553	99
Es	0.465933	0.925677	0.271732	99
Es	-0.228291	1.818791	-0.241088	99
Es	-0.240514	1.159556	0.106241	99
Es	-0.611503	-2.311774	-0.345224	99
Es	-2.300452	0.085116	-0.435161	99
Es	-0.518511	-0.565968	-0.477083	99
Es	0.795987	-0.955735	1.393880	99
Es	0.411150	-1.011558	0.264630	99
Es	1.607674	0.757033	-0.164530	99
Es	-0.549459	0.625125	-0.345925	99
Es	1.095940	-0.089914	0.583162	99
42
Properties=species:S:1:pos:R:3:Z:I:1 energy=-343.8434694901813 field_type=dipole dipole="0.000000 0.000000 0.000000" charge=0
O	-2.234703	0.077497	-0.732980	8
C	-0.828212	0.065157	-0.776160	6
C	-0.240543	1.159597	0.106260	6
C	1.161637	0.661027	0.432170	6
C	0.989258	-0.830233	0.704200	6
C	-0.190012	-1.175793	-0.168900	6
O	-0.611613	-2.312073	-0.345270	8
H	-2.523782	-0.799533	-1.051260	1
H	-0.483953	0.163327	-1.811090	1
H	-0.831363	1.281807	1.022960	1
H	-0.227572	2.128837	-0.402200	1
H	1.821157	0.810797	-0.431520	1
H	1.600988	1.185607	1.285690	1
H	1.875067	-1.401463	0.419190	1
H	0.723648	-1.014553	1.748910	1
Es	-2.300194	0.090836	-0.439166	99
Es	0.466065	0.925944	0.271877	99
Es	-0.227647	1.819918	-0.240597	99
Es	-2.234495	0.077258	-0.733187	99
Es	-0.240514	1.159556	0.106241	99
Es	-0.190002	-1.175791	-0.168903	99
Es	0.796402	-0.956458	1.392293	99
Es	1.574356	-1.219226	0.511450	99
Es	-2.374765	-0.393183	-0.909752	99
Es	0.989213	-0.830205	0.704162	99
Es	0.410876	-1.012286	0.264719	99
Es	-0.450005	-2.529633	-0.195358	99
Es	-0.828405	0.065119	-0.776115	99
Es	-0.309125	-1.932848	-0.485399	99
Es	1.460581	1.020877	1.013395	99
Es	-0.637229	1.225200	0.729049	99
Es	-0.611389	-2.311763	-0.345131	99
Es	1.161606	0.660995	0.432168	99
Es	-0.867593	-2.315791	-0.535451	99
Es	-0.575203	0.117119	-1.473382	99
Es	1.606344	0.757450	-0.164082	99
Es	-0.518476	-0.566355	-0.477822	99
Es	-1.690801	0.046927	-0.759201	99
Es	-0.549320	0.625173	-0.346223	99
Es	-0.612085	-1.879917	-0.082380	99
Es	1.096415	-0.089457	0.583244	99
Es	-2.320584	0.288106	-0.930581	99
42
Properties=species:S:1:pos:R:3:Z:I:1 energy=-343.8434694901813 field_type=dipole dipole="0.000000 0.000000 0.000000" charge=0
O	-2.234703	0.077497	-0.732980	8
C	-0.828212	0.065157	-0.776160	6
C	-0.240543	1.159597	0.106260	6
C	1.161637	0.661027	0.432170	6
C	0.989258	-0.830233	0.704200	6
C	-0.190012	-1.175793	-0.168900	6
O	-0.611613	-2.312073	-0.345270	8
H	-2.523782	-0.799533	-1.051260	1
H	-0.483953	0.163327	-1.811090	1
H	-0.831363	1.281807	1.022960	1
H	-0.227572	2.128837	-0.402200	1
H	1.821157	0.810797	-0.431520	1
H	1.600988	1.185607	1.285690	1
H	1.875067	-1.401463	0.419190	1
H	0.723648	-1.014553	1.748910	1
Es	-0.240514	1.159555	0.106241	99
Es	0.796689	-0.956798	1.390909	99
Es	-0.518339	-0.566730	-0.478309	99
Es	-0.190004	-1.175794	-0.168900	99
Es	-0.449499	-2.527117	-0.196064	99
Es	-0.613114	-1.879699	-0.080796	99
Es	0.466209	0.925843	0.271888	99
Es	-0.828401	0.065116	-0.776112	99
Es	-2.296995	0.090690	-0.442574	99
Es	0.410690	-1.012877	0.264797	99
Es	1.096464	-0.089114	0.583523	99
Es	-2.376977	-0.395514	-0.909099	99
Es	-0.549103	0.625454	-0.346695	99
Es	-0.867403	-2.318517	-0.535067	99
Es	1.161603	0.660992	0.432164	99
Es	-0.227018	1.820669	-0.240204	99
Es	-0.611522	-2.311722	-0.345245	99
Es	-0.308901	-1.933047	-0.486537	99
Es	0.989213	-0.830205	0.704164	99
Es	-1.690660	0.048818	-0.760103	99
Es	-0.575831	0.116398	-1.472453	99
Es	1.573638	-1.219341	0.512164	99
Es	-0.636272	1.225078	0.728930	99
Es	1.460606	1.021962	1.013508	99
Es	-2.321451	0.288552	-0.927076	99
Es	1.605415	0.757674	-0.164030	99
Es	-2.234498	0.077240	-0.733154	99
42
Properties=species:S:1:pos:R:3:Z:I:1 energy=-343.8434694901813 field_type=dipole dipole="0.000000 0.000000 0.000000" charge=0
O	-2.234703	0.077497	-0.732980	8
C	-0.828212	0.065157	-0.776160	6
C	-0.240543	1.159597	0.106260	6
C	1.161637	0.661027	0.432170	6
C	0.989258	-0.830233	0.704200	6
C	-0.190012	-1.175793	-0.168900	6
O	-0.611613	-2.312073	-0.345270	8
H	-2.523782	-0.799533	-1.051260	1
H	-0.483953	0.163327	-1.811090	1
H	-0.831363	1.281807	1.022960	1
H	-0.227572	2.128837	-0.402200	1
H	1.821157	0.810797	-0.431520	1
H	1.600988	1.185607	1.285690	1
H	1.875067	-1.401463	0.419190	1
H	0.723648	-1.014553	1.748910	1
Es	-0.548866	0.625467	-0.346903	99
Es	-0.828402	0.065117	-0.776114	99
Es	0.796862	-0.957140	1.389882	99
Es	-0.447856	-2.522285	-0.192984	99
Es	0.410459	-1.012987	0.265091	99
Es	1.460550	1.022666	1.013427	99
Es	-0.190004	-1.175791	-0.168900	99
Es	-0.576308	0.116051	-1.471634	99
Es	1.096600	-0.088990	0.583865	99
Es	-0.240514	1.159555	0.106241	99
Es	-2.301013	0.099733	-0.443617	99
Es	1.161603	0.660995	0.432163	99
Es	-2.378072	-0.397926	-0.905958	99
Es	1.573150	-1.219579	0.512335	99
Es	-2.234490	0.077234	-0.733088	99
Es	-0.614395	-1.878158	-0.082707	99
Es	-0.518195	-0.567042	-0.478609	99
Es	-0.867805	-2.324305	-0.535295	99
Es	0.989213	-0.830204	0.704161	99
Es	-0.226783	1.821439	-0.240019	99
Es	-0.611493	-2.311728	-0.345226	99
Es	-2.316395	0.280873	-0.930397	99
Es	-0.635506	1.224814	0.728543	99
Es	-0.308835	-1.933807	-0.487581	99
Es	1.604783	0.757889	-0.163729	99
Es	0.466199	0.925924	0.271958	99
Es	-1.690460	0.049749	-0.759036	99
42
Properties=species:S:1:pos:R:3:Z:I:1 energy=-343.8434694901813 field_type=dipole dipole="0.000000 0.000000 0.000000" charge=0
O	-2.234703	0.077497	-0.732980	8
C	-0.828212	0.065157	-0.776160	6
C	-0.240543	1.159597	0.106260	6
C	1.161637	0.661027	0.432170	6
C	0.989258	-0.830233	0.704200	6
C	-0.190012	-1.175793	-0.168900	6
O	-0.611613	-2.312073	-0.345270	8
H	-2.523782	-0.799533	-1.051260	1
H	-0.483953	0.163327	-1.811090	1
H	-0.831363	1.281807	1.022960	1
H	-0.227572	2.128837	-0.402200	1
H	1.821157	0.810797	-0.431520	1
H	1.600988	1.185607	1.285690	1
H	1.875067	-1.401463	0.419190	1
H	0.723648	-1.014553	1.748910	1
Es	-0.612797	-1.880999	-0.079760	99
Es	-0.611528	-2.311762	-0.345244	99
Es	-1.690402	0.052207	-0.762022	99
Es	-0.226374	1.821784	-0.239820	99
Es	1.161602	0.660992	0.432164	99
Es	-0.190002	-1.175791	-0.168902	99
Es	-2.378894	-0.397915	-0.908286	99
Es	1.604296	0.758066	-0.163664	99
Es	-2.319403	0.282819	-0.924564	99
Es	-2.297176	0.095199	-0.444129	99
Es	0.466433	0.925782	0.272009	99
Es	1.572793	-1.219677	0.512920	99
Es	-0.307336	-1.932956	-0.486350	99
Es	1.096511	-0.088780	0.583854	99
Es	-0.634995	1.224825	0.728377	99
Es	-0.866883	-2.314535	-0.534957	99
Es	-0.240515	1.159559	0.106242	99
Es	0.797055	-0.957128	1.388833	99
Es	-0.548639	0.625459	-0.347023	99
Es	0.410240	-1.013378	0.265125	99
Es	-0.451986	-2.530114	-0.197481	99
Es	-0.576618	0.115684	-1.471009	99
Es	-0.518143	-0.567166	-0.479032	99
Es	-0.828401	0.065114	-0.776112	99
Es	1.460444	1.023268	1.013682	99
Es	-2.234473	0.077214	-0.733148	99
Es	0.989214	-0.830206	0.704162	99
42
Properties=species:S:1:pos:R:3:Z:I:1 energy=-343.8434694901813 field_type=dipole dipole="0.000000 0.000000 0.000000" charge=0
O	-2.234703	0.077497	-0.732980	8
C	-0.828212	0.065157	-0.776160	6
C	-0.240543	1.159597	0.106260	6
C	1.161637	0.661027	0.432170	6
C	0.989258	-0.830233	0.704200	6
C	-0.190012	-1.175793	-0.168900	6
O	-0.611613	-2.312073	-0.345270	8
H	-2.523782	-0.799533	-1.051260	1
H	-0.483953	0.163327	-1.811090	1
H	-0.831363	1.281807	1.022960	1
H	-0.227572	2.128837	-0.402200	1
H	1.821157	0.810797	-0.431520	1
H	1.600988	1.185607	1.285690	1
H	1.875067	-1.401463	0.419190	1
H	0.723648	-1.014553	1.748910	1
Es	-2.234490	0.077231	-0.733098	99
Es	-0.576925	0.115427	-1.470406	99
Es	-0.518008	-0.567391	-0.479172	99
Es	0.466247	0.925762	0.271864	99
Es	-0.634517	1.224677	0.728385	99
Es	-0.240516	1.159556	0.106239	99
Es	-2.319199	0.282111	-0.925519	99
Es	-2.379361	-0.399265	-0.905895	99
Es	-0.614584	-1.880293	-0.079867	99
Es	-0.611412	-2.311756	-0.345157	99
Es	1.603860	0.758160	-0.163499	99
Es	1.096425	-0.088735	0.584306	99
Es	0.410232	-1.013448	0.265106	99
Es	1.572607	-1.219753	0.513047	99
Es	1.161603	0.660992	0.432164	99
Es	-0.225985	1.822225	-0.239708	99
Es	-0.190001	-1.175791	-0.168904	99
Es	1.460414	1.023761	1.013615	99
Es	-1.690756	0.052382	-0.762343	99
Es	-0.308282	-1.932489	-0.487619	99
Es	-0.448653	-2.523285	-0.196126	99
Es	-0.867695	-2.322617	-0.534966	99
Es	-2.296410	0.097022	-0.445365	99
Es	-0.828401	0.065116	-0.776113	99
Es	-0.548473	0.625554	-0.347321	99
Es	0.989213	-0.830205	0.704161	99
Es	0.797091	-0.957386	1.388058	99
42
Properties=species:S:1:pos:R:3:Z:I:1 energy=-343.8434694901813 field_type=dipole dipole="0.000000 0.000000 0.000000" charge=0
O	-2.234703	0.077497	-0.732980	8
C	-0.828212	0.065157	-0.776160	6
C	-0.240543	1.159597	0.106260	6
C	1.161637	0.661027	0.432170	6
C	0.989258	-0.830233	0.704200	6
C	-0.190012	-1.175793	-0.168900	6
O	-0.611613	-2.312073	-0.345270	8
H	-2.523782	-0.799533	-1.051260	1
H	-0.483953	0.163327	-1.811090	1
H	-0.831363	1.281807	1.022960	1
H	-0.227572	2.128837	-0.402200	1
H	1.821157	0.810797	-0.431520	1
H	1.600988	1.185607	1.285690	1
H	1.875067	-1.401463	0.419190	1
H	0.723648	-1.014553	1.748910	1
Es	1.161604	0.660994	0.432164	99
Es	1.603520	0.758374	-0.163460	99
Es	-0.615770	-1.878161	-0.080856	99
Es	-2.319637	0.281326	-0.924696	99
Es	-0.548247	0.625655	-0.347540	99
Es	-0.190002	-1.175791	-0.168902	99
Es	1.460351	1.024033	1.013552	99
Es	-0.634188	1.224413	0.728166	99
Es	-1.690632	0.053832	-0.762468	99
Es	-0.611499	-2.311774	-0.345224	99
Es	-0.867936	-2.329655	-0.534457	99
Es	0.989215	-0.830207	0.704161	99
Es	0.797212	-0.957365	1.387431	99
Es	0.466148	0.925645	0.272059	99
Es	-0.446565	-2.517277	-0.193844	99
Es	-2.296076	0.097276	-0.446769	99
Es	-2.379316	-0.400141	-0.905277	99
Es	-0.225696	1.822731	-0.239513	99
Es	0.410039	-1.013510	0.265451	99
Es	-2.234467	0.077173	-0.733028	99
Es	-0.577174	0.115247	-1.469949	99
Es	1.096433	-0.088693	0.584300	99
Es	-0.518020	-0.567566	-0.479291	99
Es	-0.828401	0.065117	-0.776113	99
Es	-0.308737	-1.933676	-0.489448	99
Es	-0.240512	1.159556	0.106240	99
Es	1.572376	-1.219991	0.513179	99
42
Properties=species:S:1:pos:R:3:Z:I:1 energy=-343.8434694901813 field_type=dipole dipole="0.000000 0.000000 0.000000" charge=0
O	-2.234703	0.077497	-0.732980	8
C	-0.828212	0.065157	-0.776160	6
C	-0.240543	1.159597	0.106260	6
C	1.161637	0.661027	0.432170	6
C	0.989258	-0.830233	0.704200	6
C	-0.190012	-1.175793	-0.168900	6
O	-0.611613	-2.312073	-0.345270	8
H	-2.523782	-0.799533	-1.051260	1
H	-0.483953	0.163327	-1.811090	1
H	-0.831363	1.281807	1.022960	1
H	-0.227572	2.128837	-0.402200	1
H	1.821157	0.810797	-0.431520	1
H	1.600988	1.185607	1.285690	1
H	1.875067	-1.401463	0.419190	1
H	0.723648	-1.014553	1.748910	1
Es	-0.190003	-1.175791	-0.168901	99
Es	-0.308138	-1.934084	-0.489220	99
Es	1.460280	1.024496	1.013630	99
Es	-1.690357	0.055455	-0.764431	99
Es	0.409784	-1.013703	0.265545	99
Es	-0.613923	-1.878859	-0.080061	99
Es	-0.240514	1.159556	0.106240	99
Es	-0.868042	-2.323498	-0.533990	99
Es	-2.295938	0.097814	-0.446196	99
Es	-2.379597	-0.400261	-0.905557	99
Es	-0.828386	0.065114	-0.776110	99
Es	1.161602	0.660993	0.432164	99
Es	-0.448984	-2.522379	-0.195423	99
Es	-2.234516	0.077280	-0.733084	99
Es	0.466081	0.925664	0.271846	99
Es	1.096404	-0.088561	0.584587	99
Es	-0.225469	1.822940	-0.239396	99
Es	-0.577427	0.115062	-1.469400	99
Es	-2.319643	0.279091	-0.923040	99
Es	-0.548131	0.625622	-0.347784	99
Es	0.989213	-0.830205	0.704162	99
Es	-0.633777	1.224399	0.728125	99
Es	1.572175	-1.220004	0.513328	99
Es	-0.611468	-2.311751	-0.345201	99
Es	1.603229	0.758349	-0.163279	99
Es	-0.517904	-0.567723	-0.479420	99
Es	0.797474	-0.957450	1.386732	99
42
Properties=species:S:1:pos:R:3:Z:I:1 energy=-343.8434694901813 field_type=dipole dipole="0.000000 0.000000 0.000000" charge=0
O	-2.234703	0.077497	-0.732980	8
C	-0.828212	0.065157	-0.776160	6
C	-0.240543	1.159597	0.106260	6
C	1.161637	0.661027	0.432170	6
C	0.989258	-0.830233	0.704200	6
C	-0.190012	-1.175793	-0.168900	6
O	-0.611613	-2.312073	-0.345270	8
H	-2.523782	-0.799533	-1.051260	1
H	-0.483953	0.163327	-1.811090	1
H	-0.831363	1.281807	1.022960	1
H	-0.227572	2.128837	-0.402200	1
H	1.821157	0.810797	-0.431520	1
H	1.600988	1.185607	1.285690	1
H	1.875067	-1.401463	0.419190	1
H	0.723648	-1.014553	1.748910	1
Es	1.460179	1.024730	1.013493	99
Es	-0.611479	-2.311749	-0.345210	99
Es	1.603013	0.758484	-0.163220	99
Es	-2.296250	0.099322	-0.446493	99
Es	-0.615859	-1.879264	-0.080108	99
Es	-0.633432	1.224266	0.727894	99
Es	-2.379543	-0.400934	-0.904639	99
Es	-2.234468	0.077214	-0.733127	99
Es	-0.577714	0.115006	-1.468952	99
Es	0.989213	-0.830206	0.704162	99
Es	-2.318989	0.278269	-0.923802	99
Es	-0.548035	0.625686	-0.347837	99
Es	-0.190003	-1.175792	-0.168901	99
Es	1.096252	-0.088598	0.584699	99
Es	-1.690745	0.055551	-0.764203	99
Es	-0.446429	-2.516600	-0.194594	99
Es	0.409762	-1.013758	0.265697	99
Es	1.161602	0.660992	0.432165	99
Es	0.466136	0.925556	0.271924	99
Es	-0.308450	-1.932847	-0.489624	99
Es	-0.868307	-2.330192	-0.534248	99
Es	-0.828403	0.065117	-0.776114	99
Es	0.797477	-0.957435	1.386264	99
Es	-0.225338	1.823300	-0.239332	99
Es	1.572143	-1.220174	0.513411	99
Es	-0.240503	1.159552	0.106243	99
Es	-0.517804	-0.567932	-0.479682	99
42
Properties=species:S:1:pos:R:3:Z:I:1 energy=-343.8434694901813 field_type=dipole dipole="0.000000 0.000000 0.000000" charge=0
O	-2.234703	0.077497	-0.732980	8
C	-0.828212	0.065157	-0.776160	6
C	-0.240543	1.159597	0.106260	6
C	1.161637	0.661027	0.432170	6
C	0.989258	-0.830233	0.704200	6
C	-0.190012	-1.175793	-0.168900	6
O	-0.611613	-2.312073	-0.345270	8
H	-2.523782	-0.799533	-1.051260	1
H	-0.483953	0.163327	-1.811090	1
H	-0.831363	1.281807	1.022960	1
H	-0.227572	2.128837	-0.402200	1
H	1.821157	0.810797	-0.431520	1
H	1.600988	1.185607	1.285690	1
H	1.875067	-1.401463	0.419190	1
H	0.723648	-1.014553	1.748910	1
Es	-0.517765	-0.568114	-0.479770	99
Es	0.466154	0.925653	0.271868	99
Es	-0.867843	-2.328428	-0.534028	99
Es	0.409692	-1.013719	0.265833	99
Es	-0.308482	-1.933845	-0.489893	99
Es	-0.577904	0.114867	-1.468627	99
Es	-2.319185	0.276410	-0.922903	99
Es	0.989213	-0.830205	0.704162	99
Es	-0.190003	-1.175792	-0.168902	99
Es	-0.240514	1.159555	0.106241	99
Es	-0.611492	-2.311721	-0.345234	99
Es	1.161602	0.660993	0.432164	99
Es	1.571967	-1.220209	0.513352	99
Es	1.460177	1.024938	1.013573	99
Es	-0.225295	1.823512	-0.239259	99
Es	-2.234479	0.077164	-0.732993	99
Es	-0.633142	1.224170	0.727797	99
Es	-0.447284	-2.518173	-0.195093	99
Es	-0.547884	0.625644	-0.347930	99
Es	1.602790	0.758534	-0.163082	99
Es	-2.379808	-0.401469	-0.903751	99
Es	-0.615483	-1.878503	-0.079582	99
Es	-2.296186	0.100139	-0.447487	99
Es	-0.828402	0.065118	-0.776114	99
Es	-1.690224	0.057161	-0.765143	99
Es	0.797618	-0.957529	1.385955	99
Es	1.096185	-0.088589	0.584713	99
42
Properties=species:S:1:pos:R:3:Z:I:1 energy=-343.8434694901813 field_type=dipole dipole="0.000000 0.000000 0.000000" charge=0
O	-2.234703	0.077497	-0.732980	8
C	-0.828212	0.065157	-0.776160	6
C	-0.240543	1.159597	0.106260	6
C	1.161637	0.661027	0.432170	6
C	0.989258	-0.830233	0.704200	6
C	-0.190012	-1.175793	-0.168900	6
O	-0.611613	-2.312073	-0.345270	8
H	-2.523782	-0.799533	-1.051260	1
H	-0.483953	0.163327	-1.811090	1
H	-0.831363	1.281807	1.022960	1
H	-0.227572	2.128837	-0.402200	1
H	1.821157	0.810797	-0.431520	1
H	1.600988	1.185607	1.285690	1
H	1.875067	-1.401463	0.419190	1
H	0.723648	-1.014553	1.748910	1
Es	-2.322393	0.279831	-0.918567	99
Es	-0.633197	1.224164	0.727947	99
Es	0.989213	-0.830205	0.704161	99
Es	-0.616299	-1.879203	-0.079211	99
Es	0.409534	-1.013802	0.265813	99
Es	-0.240513	1.159556	0.106240	99
Es	-0.867233	-2.328106	-0.534480	99
Es	-0.611500	-2.311722	-0.345232	99
Es	0.797659	-0.957451	1.385348	99
Es	-0.828400	0.065118	-0.776113	99
Es	-0.517766	-0.568106	-0.479693	99
Es	-0.547690	0.625779	-0.348243	99
Es	-0.224852	1.823573	-0.239213	99
Es	-2.380307	-0.401156	-0.905176	99
Es	1.571968	-1.220295	0.513639	99
Es	-0.307856	-1.933240	-0.489515	99
Es	-2.292123	0.095216	-0.448024	99
Es	1.096047	-0.088443	0.584959	99
Es	1.161603	0.660993	0.432165	99
Es	-0.447686	-2.518435	-0.195414	99
Es	0.466039	0.925464	0.271855	99
Es	-0.577932	0.114673	-1.468423	99
Es	-0.190003	-1.175791	-0.168901	99
Es	1.602670	0.758525	-0.163165	99
Es	1.460091	1.025186	1.013660	99
Es	-2.234480	0.077261	-0.733225	99
Es	-1.690568	0.058180	-0.767324	99
42
Properties=species:S:1:pos:R:3:Z:I:1 energy=-343.8434694901813 field_type=dipole dipole="0.000000 0.000000 0.000000" charge=0
O	-2.234703	0.077497	-0.732980	8
C	-0.828212	0.065157	-0.776160	6
C	-0.240543	1.159597	0.106260	6
C	1.161637	0.661027	0.432170	6
C	0.989258	-0.830233	0.704200	6
C	-0.190012	-1.175793	-0.168900	6
O	-0.611613	-2.312073	-0.345270	8
H	-2.523782	-0.799533	-1.051260	1
H	-0.483953	0.163327	-1.811090	1
H	-0.831363	1.281807	1.022960	1
H	-0.227572	2.128837	-0.402200	1
H	1.821157	0.810797	-0.431520	1
H	1.600988	1.185607	1.285690	1
H	1.875067	-1.401463	0.419190	1
H	0.723648	-1.014553	1.748910	1
Es	0.409635	-1.013731	0.266183	99
Es	-0.611531	-2.311795	-0.345242	99
Es	-0.547555	0.625685	-0.348170	99
Es	-0.578132	0.114783	-1.468159	99
Es	-0.868897	-2.344107	-0.533476	99
Es	0.797423	-0.957409	1.385248	99
Es	0.465914	0.925452	0.272053	99
Es	-0.310347	-1.932837	-0.491587	99
Es	-2.289518	0.093027	-0.449275	99
Es	-0.441581	-2.504376	-0.193286	99
Es	1.602680	0.758860	-0.163283	99
Es	1.572129	-1.220636	0.513467	99
Es	-0.633013	1.224076	0.727865	99
Es	0.989213	-0.830205	0.704162	99
Es	1.459808	1.025158	1.013487	99
Es	-1.690851	0.057440	-0.767563	99
Es	1.095841	-0.088555	0.584904	99
Es	-0.240515	1.159554	0.106243	99
Es	-0.190002	-1.175792	-0.168903	99
Es	-0.828400	0.065117	-0.776113	99
Es	-0.517656	-0.568260	-0.479893	99
Es	-2.380523	-0.401453	-0.904009	99
Es	-2.234464	0.077183	-0.733066	99
Es	-0.618096	-1.877666	-0.080214	99
Es	-2.324393	0.283241	-0.918385	99
Es	-0.224746	1.823817	-0.239283	99
Es	1.161603	0.660993	0.432165	99
42
Properties=species:S:1:pos:R:3:Z:I:1 energy=-343.8434694901813 field_type=dipole dipole="0.000000 0.000000 0.000000" charge=0
O	-2.234703	0.077497	-0.732980	8
C	-0.828212	0.065157	-0.776160	6
C	-0.240543	1.159597	0.106260	6
C	1.161637	0.661027	0.432170	6
C	0.989258	-0.830233	0.704200	6
C	-0.190012	-1.175793	-0.168900	6
O	-0.611613	-2.312073	-0.345270	8
H	-2.523782	-0.799533	-1.051260	1
H	-0.483953	0.163327	-1.811090	1
H	-0.831363	1.281807	1.022960	1
H	-0.227572	2.128837	-0.402200	1
H	1.821157	0.810797	-0.431520	1
H	1.600988	1.185607	1.285690	1
H	1.875067	-1.401463	0.419190	1
H	0.723648	-1.014553	1.748910	1
Es	0.465792	0.925498	0.271944	99
Es	1.161602	0.660992	0.432164	99
Es	-0.828402	0.065116	-0.776112	99
Es	-0.308617	-1.932303	-0.490390	99
Es	-0.547694	0.625668	-0.348285	99
Es	-0.611507	-2.311781	-0.345228	99
Es	1.095992	-0.088476	0.585083	99
Es	-0.517612	-0.568340	-0.479943	99
Es	-0.240514	1.159556	0.106240	99
Es	-0.578270	0.114668	-1.467752	99
Es	1.460071	1.025432	1.013487	99
Es	-2.380295	-0.402278	-0.902656	99
Es	-2.293543	0.099248	-0.448118	99
Es	-0.444946	-2.512192	-0.194563	99
Es	0.409457	-1.013941	0.266083	99
Es	0.989215	-0.830205	0.704162	99
Es	-0.617484	-1.879336	-0.079465	99
Es	0.797670	-0.957402	1.384716	99
Es	1.571949	-1.220583	0.513678	99
Es	-1.690777	0.058410	-0.767435	99
Es	1.602320	0.758695	-0.163051	99
Es	-0.632640	1.224141	0.727676	99
Es	-2.320640	0.276810	-0.921062	99
Es	-2.234483	0.077203	-0.733112	99
Es	-0.867995	-2.335166	-0.534147	99
Es	-0.190002	-1.175791	-0.168903	99
Es	-0.224618	1.823921	-0.239146	99
42
Properties=species:S:1:pos:R:3:Z:I:1 energy=-343.8434694901813 field_type=dipole dipole="0.000000 0.000000 0.000000" charge=0
O	-2.234703	0.077497	-0.732980	8
C	-0.828212	0.065157	-0.776160	6
C	-0.240543	1.159597	0.106260	6
C	1.161637	0.661027	0.432170	6
C	0.989258	-0.830233	0.704200	6
C	-0.190012	-1.175793	-0.168900	6
O	-0.611613	-2.312073	-0.345270	8
H	-2.523782	-0.799533	-1.051260	1
H	-0.483953	0.163327	-1.811090	1
H	-0.831363	1.281807	1.022960	1
H	-0.227572	2.128837	-0.402200	1
H	1.821157	0.810797	-0.431520	1
H	1.600988	1.185607	1.285690	1
H	1.875067	-1.401463	0.419190	1
H	0.723648	-1.014553	1.748910	1
Es	-1.691008	0.058900	-0.768661	99
Es	0.465712	0.925373	0.271887	99
Es	-0.517601	-0.568411	-0.479942	99
Es	-0.240514	1.159556	0.106241	99
Es	-2.379966	-0.402013	-0.903678	99
Es	0.409490	-1.013705	0.266504	99
Es	-0.828398	0.065117	-0.776112	99
Es	-0.190004	-1.175790	-0.168900	99
Es	-0.441516	-2.501979	-0.193364	99
Es	-0.868927	-2.346573	-0.533277	99
Es	1.161602	0.660992	0.432164	99
Es	-0.224482	1.824115	-0.239206	99
Es	-0.632728	1.223957	0.727768	99
Es	-2.288566	0.092372	-0.450003	99
Es	-0.578376	0.114731	-1.467735	99
Es	-2.325649	0.283057	-0.917204	99
Es	0.989214	-0.830205	0.704162	99
Es	-0.547447	0.625694	-0.348296	99
Es	-0.309812	-1.932297	-0.491986	99
Es	-2.234441	0.077066	-0.732767	99
Es	1.602414	0.758762	-0.163124	99
Es	1.095705	-0.088403	0.585227	99
Es	1.459791	1.025569	1.013478	99
Es	0.797624	-0.957512	1.384639	99
Es	1.572030	-1.220825	0.513308	99
Es	-0.611439	-2.311742	-0.345179	99
Es	-0.618686	-1.878245	-0.080074	99
42
Properties=species:S:1:pos:R:3:Z:I:1 energy=-343.8434694901813 field_type=dipole dipole="0.000000 0.000000 0.000000" charge=0
O	-2.234703	0.077497	-0.732980	8
C	-0.828212	0.065157	-0.776160	6
C	-0.240543	1.159597	0.106260	6
C	1.161637	0.661027	0.432170	6
C	0.989258	-0.830233	0.704200	6
C	-0.190012	-1.175793	-0.168900	6
O	-0.611613	-2.312073	-0.345270	8
H	-2.523782	-0.799533	-1.051260	1
H	-0.483953	0.163327	-1.811090	1
H	-0.831363	1.281807	1.022960	1
H	-0.227572	2.128837	-0.402200	1
H	1.821157	0.810797	-0.431520	1
H	1.600988	1.185607	1.285690	1
H	1.875067	-1.401463	0.419190	1
H	0.723648	-1.014553	1.748910	1
Es	-0.578517	0.114584	-1.467373	99
Es	1.161601	0.660992	0.432166	99
Es	-0.868620	-2.341047	-0.533314	99
Es	1.459807	1.025747	1.013476	99
Es	1.571885	-1.220822	0.513548	99
Es	1.602264	0.758730	-0.162977	99
Es	0.409504	-1.013734	0.266312	99
Es	0.989213	-0.830206	0.704162	99
Es	-0.310040	-1.931421	-0.491429	99
Es	-0.442248	-2.507210	-0.194606	99
Es	-2.321512	0.277395	-0.919850	99
Es	-1.690610	0.059074	-0.767835	99
Es	-0.240512	1.159558	0.106243	99
Es	-0.828403	0.065118	-0.776116	99
Es	-2.380515	-0.402420	-0.902594	99
Es	-0.547429	0.625761	-0.348491	99
Es	-2.234557	0.077265	-0.733058	99
Es	-0.190003	-1.175791	-0.168901	99
Es	-0.611434	-2.311748	-0.345167	99
Es	-0.632436	1.223843	0.727477	99
Es	-0.224494	1.824343	-0.239023	99
Es	0.797604	-0.957515	1.384268	99
Es	-0.517527	-0.568549	-0.480053	99
Es	-0.618131	-1.879427	-0.079255	99
Es	0.465756	0.925371	0.271874	99
Es	1.095813	-0.088391	0.585378	99
Es	-2.292434	0.098063	-0.448995	99
42
Properties=species:S:1:pos:R:3:Z:I:1 energy=-343.8434694901813 field_type=dipole dipole="0.000000 0.000000 0.000000" charge=0
O	-2.234703	0.077497	-0.732980	8
C	-0.828212	0.065157	-0.776160	6
C	-0.240543	1.159597	0.106260	6
C	1.161637	0.661027	0.432170	6
C	0.989258	-0.830233	0.704200	6
C	-0.190012	-1.175793	-0.168900	6
O	-0.611613	-2.312073	-0.345270	8
H	-2.523782	-0.799533	-1.051260	1
H	-0.483953	0.163327	-1.811090	1
H	-0.831363	1.281807	1.022960	1
H	-0.227572	2.128837	-0.402200	1
H	1.821157	0.810797	-0.431520	1
H	1.600988	1.185607	1.285690	1
H	1.875067	-1.401463	0.419190	1
H	0.723648	-1.014553	1.748910	1
Es	1.161602	0.660992	0.432163	99
Es	-2.284831	0.087486	-0.451530	99
Es	-0.240513	1.159556	0.106240	99
Es	-0.611506	-2.311722	-0.345233	99
Es	-2.328828	0.287830	-0.914393	99
Es	-1.691503	0.059002	-0.768961	99
Es	-0.869503	-2.361680	-0.530994	99
Es	1.602446	0.759031	-0.163122	99
Es	0.465638	0.925410	0.271873	99
Es	0.797147	-0.957556	1.384492	99
Es	-0.619939	-1.876646	-0.081514	99
Es	-0.578545	0.114748	-1.467490	99
Es	-2.379883	-0.402035	-0.904331	99
Es	1.459523	1.025551	1.013449	99
Es	-0.224426	1.824320	-0.239203	99
Es	-0.517479	-0.568572	-0.479876	99
Es	-0.437498	-2.488475	-0.191918	99
Es	0.989213	-0.830205	0.704162	99
Es	-0.311823	-1.932379	-0.494189	99
Es	1.095536	-0.088506	0.585230	99
Es	-2.234485	0.077215	-0.733099	99
Es	1.572188	-1.221339	0.513062	99
Es	-0.632665	1.223761	0.727846	99
Es	-0.547237	0.625772	-0.348564	99
Es	0.409800	-1.013321	0.266783	99
Es	-0.828400	0.065116	-0.776112	99
Es	-0.190003	-1.175791	-0.168901	99
42
Properties=species:S:1:pos:R:3:Z:I:1 energy=-343.8434694901813 field_type=dipole dipole="0.000000 0.000000 0.000000" charge=0
O	-2.234703	0.077497	-0.732980	8
C	-0.828212	0.065157	-0.776160	6
C	-0.240543	1.159597	0.106260	6
C	1.161637	0.661027	0.432170	6
C	0.989258	-0.830233	0.704200	6
C	-0.190012	-1.175793	-0.168900	6
O	-0.611613	-2.312073	-0.345270	8
H	-2.523782	-0.799533	-1.051260	1
H	-0.483953	0.163327	-1.811090	1
H	-0.831363	1.281807	1.022960	1
H	-0.227572	2.128837	-0.402200	1
H	1.821157	0.810797	-0.431520	1
H	1.600988	1.185607	1.285690	1
H	1.875067	-1.401463	0.419190	1
H	0.723648	-1.014553	1.748910	1
Es	-1.691710	0.059115	-0.770189	99
Es	0.797146	-0.957571	1.384252	99
Es	-0.190002	-1.175791	-0.168903	99
Es	1.602388	0.758969	-0.163077	99
Es	-0.437225	-2.487790	-0.192181	99
Es	0.989213	-0.830206	0.704162	99
Es	1.161602	0.660992	0.432164	99
Es	-0.224339	1.824405	-0.239189	99
Es	1.459541	1.025655	1.013381	99
Es	-0.869128	-2.362483	-0.531644	99
Es	-0.611501	-2.311719	-0.345226	99
Es	1.572173	-1.221316	0.513184	99
Es	0.465595	0.925407	0.272003	99
Es	-0.620485	-1.876904	-0.081208	99
Es	-2.329251	0.287500	-0.914468	99
Es	1.095454	-0.088402	0.585366	99
Es	-0.517443	-0.568564	-0.480003	99
Es	-2.380098	-0.402330	-0.903131	99
Es	-2.234482	0.077234	-0.733136	99
Es	-0.828397	0.065117	-0.776112	99
Es	-0.547132	0.625708	-0.348517	99
Es	-0.240514	1.159558	0.106241	99
Es	-2.283977	0.087950	-0.451365	99
Es	0.409806	-1.013453	0.266769	99
Es	-0.311935	-1.932025	-0.493572	99
Es	-0.578625	0.114730	-1.467365	99
Es	-0.632649	1.223780	0.727629	99
42
Properties=species:S:1:pos:R:3:Z:I:1 energy=-343.8434694901813 field_type=dipole dipole="0.000000 0.000000 0.000000" charge=0
O	-2.234703	0.077497	-0.732980	8
C	-0.828212	0.065157	-0.776160	6
C	-0.240543	1.159597	0.106260	6
C	1.161637	0.661027	0.432170	6
C	0.989258	-0.830233	0.704200	6
C	-0.190012	-1.175793	-0.168900	6
O	-0.611613	-2.312073	-0.345270	8
H	-2.523782	-0.799533	-1.051260	1
H	-0.483953	0.163327	-1.811090	1
H	-0.831363	1.281807	1.022960	1
H	-0.227572	2.128837	-0.402200	1
H	1.821157	0.810797	-0.431520	1
H	1.600988	1.185607	1.285690	1
H	1.875067	-1.401463	0.419190	1
H	0.723648	-1.014553	1.748910	1
Es	-0.517326	-0.568831	-0.480031	99
Es	-0.434708	-2.476358	-0.191949	99
Es	0.796931	-0.957582	1.384366	99
Es	-0.240513	1.159556	0.106240	99
Es	-2.285280	0.089639	-0.451293	99
Es	-0.547238	0.625753	-0.348443	99
Es	-0.632514	1.223557	0.727550	99
Es	0.465221	0.925634	0.271886	99
Es	-2.234516	0.077241	-0.733081	99
Es	-0.828395	0.065116	-0.776112	99
Es	1.572217	-1.221586	0.512983	99
Es	-0.190003	-1.175791	-0.168901	99
Es	-2.328091	0.287715	-0.917527	99
Es	1.459517	1.025389	1.013185	99
Es	-1.691925	0.057681	-0.768492	99
Es	1.095726	-0.088577	0.585199	99
Es	0.410013	-1.013273	0.266938	99
Es	-0.868549	-2.375091	-0.529870	99
Es	-0.611547	-2.311714	-0.345264	99
Es	-2.379613	-0.402691	-0.902000	99
Es	-0.224542	1.824650	-0.239227	99
Es	0.989215	-0.830206	0.704161	99
Es	-0.578737	0.114976	-1.467156	99
Es	-0.622019	-1.876719	-0.082151	99
Es	1.161602	0.660993	0.432164	99
Es	-0.313364	-1.931065	-0.494515	99
Es	1.602464	0.759151	-0.162791	99
42
Properties=species:S:1:pos:R:3:Z:I:1 energy=-343.8434694901813 field_type=dipole dipole="0.000000 0.000000 0.000000" charge=0
O	-2.234703	0.077497	-0.732980	8
C	-0.828212	0.065157	-0.776160	6
C	-0.240543	1.159597	0.106260	6
C	1.161637	0.661027	0.432170	6
C	0.989258	-0.830233	0.704200	6
C	-0.190012	-1.175793	-0.168900	6
O	-0.611613	-2.312073	-0.345270	8
H	-2.523782	-0.799533	-1.051260	1
H	-0.483953	0.163327	-1.811090	1
H	-0.831363	1.281807	1.022960	1
H	-0.227572	2.128837	-0.402200	1
H	1.821157	0.810797	-0.431520	1
H	1.600988	1.185607	1.285690	1
H	1.875067	-1.401463	0.419190	1
H	0.723648	-1.014553	1.748910	1
Es	0.796676	-0.957599	1.384900	99
Es	-0.578581	0.115051	-1.467675	99
Es	-0.517506	-0.568702	-0.479810	99
Es	-2.278405	0.079422	-0.455218	99
Es	-0.433538	-2.462478	-0.192790	99
Es	-0.240514	1.159555	0.106240	99
Es	-0.866920	-2.390052	-0.526748	99
Es	-0.314583	-1.930965	-0.495962	99
Es	1.095603	-0.088580	0.585038	99
Es	-2.234482	0.077244	-0.733207	99
Es	-0.224573	1.824493	-0.239325	99
Es	-0.547212	0.625716	-0.348367	99
Es	-0.611604	-2.311613	-0.345322	99
Es	1.602638	0.759170	-0.163067	99
Es	-1.692358	0.057355	-0.768771	99
Es	-0.623388	-1.875849	-0.082951	99
Es	-0.828401	0.065118	-0.776114	99
Es	1.459465	1.025245	1.013164	99
Es	-2.334860	0.297660	-0.911023	99
Es	-2.379236	-0.401961	-0.904117	99
Es	0.989213	-0.830205	0.704161	99
Es	1.161602	0.660993	0.432165	99
Es	0.465134	0.925583	0.271886	99
Es	1.572393	-1.221610	0.512805	99
Es	-0.632761	1.223559	0.727861	99
Es	0.410222	-1.013193	0.267018	99
Es	-0.190000	-1.175791	-0.168905	99
42
Properties=species:S:1:pos:R:3:Z:I:1 energy=-343.8434694901813 field_type=dipole dipole="0.000000 0.000000 0.000000" charge=0
O	-2.234703	0.077497	-0.732980	8
C	-0.828212	0.065157	-0.776160	6
C	-0.240543	1.159597	0.106260	6
C	1.161637	0.661027	0.432170	6
C	0.989258	-0.830233	0.704200	6
C	-0.190012	-1.175793	-0.168900	6
O	-0.611613	-2.312073	-0.345270	8
H	-2.523782	-0.799533	-1.051260	1
H	-0.483953	0.163327	-1.811090	1