39
Properties=species:S:1:pos:R:3:Z:I:1 energy=-342.6676459664755 field_type=dipole dipole="0.000000 0.000000 0.000000" charge=0
O	-2.735644	-0.492192	0.235385	8
C	-1.515534	-0.443682	0.110405	6
C	-0.814114	0.878678	-0.107015	6
C	0.695276	0.908058	0.050065	6
C	1.337445	-0.426892	-0.019915	6
C	0.616296	-1.543882	-0.008915	6
O	-0.774395	-1.586662	0.082605	8
H	-1.249694	1.595828	0.601525	1
H	-1.082494	1.213268	-1.115795	1
H	0.960066	1.373978	1.005615	1
H	1.117425	1.550388	-0.730845	1
H	2.422385	-0.480382	-0.062805	1
H	1.022986	-2.546512	-0.040305	1
Es	0.695242	0.908002	0.050055	99
Es	1.012954	0.232552	0.010421	99
Es	0.885258	-2.218860	-0.031257	99
Es	-1.125138	0.194485	0.016319	99
Es	-1.515343	-0.443902	0.110390	99
Es	-1.001410	-1.127002	0.099159	99
Es	-0.814097	0.878586	-0.107003	99
Es	-0.867379	-1.679735	-0.158663	99
Es	0.615921	-1.543978	-0.008900	99
Es	-2.735312	-0.492173	0.235349	99
Es	-0.774195	-1.586271	0.082583	99
Es	-0.832078	-1.698121	0.330505	99
Es	2.065369	-0.460471	-0.049480	99
Es	0.972895	-0.971592	-0.355430	99
Es	-2.336984	-0.493592	-0.055508	99
Es	-2.841885	-0.203073	0.229637	99
Es	0.980447	1.335970	-0.480132	99
Es	1.337458	-0.426808	-0.019921	99
Es	-0.256069	-1.511993	0.044661	99
Es	-2.285087	-0.465539	0.446283	99
Es	1.005579	-0.984940	0.314613	99
Es	-0.997767	1.078746	-0.779662	99
Es	-1.107954	1.347084	0.365904	99
Es	-0.062544	0.864197	-0.026781	99
Es	-2.848859	-0.776756	0.261689	99
Es	0.873675	1.211244	0.699411	99
39
Properties=species:S:1:pos:R:3:Z:I:1 energy=-342.6676459664755 field_type=dipole dipole="0.000000 0.000000 0.000000" charge=0
O	-2.735644	-0.492192	0.235385	8
C	-1.515534	-0.443682	0.110405	6
C	-0.814114	0.878678	-0.107015	6
C	0.695276	0.908058	0.050065	6
C	1.337445	-0.426892	-0.019915	6
C	0.616296	-1.543882	-0.008915	6
O	-0.774395	-1.586662	0.082605	8
H	-1.249694	1.595828	0.601525	1
H	-1.082494	1.213268	-1.115795	1
H	0.960066	1.373978	1.005615	1
H	1.117425	1.550388	-0.730845	1
H	2.422385	-0.480382	-0.062805	1
H	1.022986	-2.546512	-0.040305	1
Es	-2.285178	-0.462679	0.443215	99
Es	-1.126711	0.193909	0.016402	99
Es	-0.997497	1.077529	-0.775695	99
Es	0.695243	0.908003	0.050057	99
Es	1.013386	0.232067	0.011524	99
Es	1.337459	-0.426810	-0.019924	99
Es	-1.004337	-1.131981	0.141268	99
Es	-2.735298	-0.492186	0.235350	99
Es	-0.062421	0.865568	-0.027532	99
Es	-0.883821	-1.815338	0.247790	99
Es	-2.852341	-0.782155	0.261547	99
Es	-1.515333	-0.443903	0.110398	99
Es	-2.838285	-0.203835	0.228137	99
Es	0.615927	-1.543976	-0.008901	99
Es	-0.814097	0.878586	-0.107002	99
Es	-0.818719	-1.552257	-0.135518	99
Es	0.981031	1.335621	-0.478791	99
Es	-1.108807	1.347996	0.363611	99
Es	-2.337464	-0.490886	-0.051406	99
Es	2.067457	-0.460768	-0.049148	99
Es	0.972143	-0.970924	-0.353279	99
Es	0.885575	-2.218619	-0.032070	99
Es	1.005115	-0.984608	0.312357	99
Es	-0.774191	-1.586216	0.082711	99
Es	0.874325	1.210797	0.697439	99
Es	-0.250467	-1.516875	0.061701	99
39
Properties=species:S:1:pos:R:3:Z:I:1 energy=-342.6676459664755 field_type=dipole dipole="0.000000 0.000000 0.000000" charge=0
O	-2.735644	-0.492192	0.235385	8
C	-1.515534	-0.443682	0.110405	6
C	-0.814114	0.878678	-0.107015	6
C	0.695276	0.908058	0.050065	6
C	1.337445	-0.426892	-0.019915	6
C	0.616296	-1.543882	-0.008915	6
O	-0.774395	-1.586662	0.082605	8
H	-1.249694	1.595828	0.601525	1
H	-1.082494	1.213268	-1.115795	1
H	0.960066	1.373978	1.005615	1
H	1.117425	1.550388	-0.730845	1
H	2.422385	-0.480382	-0.062805	1
H	1.022986	-2.546512	-0.040305	1
Es	-1.515337	-0.443903	0.110390	99
Es	1.013259	0.231850	0.011407	99
Es	-2.287844	-0.463172	0.441599	99
Es	-0.062497	0.865860	-0.026702	99
Es	-1.127604	0.193728	0.015103	99
Es	2.068392	-0.460739	-0.051380	99
Es	-0.998019	1.078165	-0.774616	99
Es	-2.735328	-0.492184	0.235353	99
Es	0.972447	-0.970778	-0.351960	99
Es	-0.921280	-1.843868	-0.012133	99
Es	0.695242	0.908002	0.050054	99
Es	0.615919	-1.543978	-0.008884	99
Es	-0.774175	-1.586104	0.082351	99
Es	-0.814098	0.878586	-0.107003	99
Es	1.004252	-0.984359	0.312479	99
Es	-1.108371	1.347018	0.362808	99
Es	0.885628	-2.218310	-0.030286	99
Es	1.337464	-0.426804	-0.019926	99
Es	-2.335181	-0.493099	-0.052623	99
Es	0.873919	1.209015	0.695401	99
Es	-2.828402	-0.203281	0.227821	99
Es	-0.768455	-1.521463	0.247967	99
Es	-0.251155	-1.519129	0.022236	99
Es	-2.861888	-0.780173	0.265500	99
Es	0.982453	1.336944	-0.479126	99
Es	-1.016645	-1.131765	0.058410	99
39
Properties=species:S:1:pos:R:3:Z:I:1 energy=-342.6676459664755 field_type=dipole dipole="0.000000 0.000000 0.000000" charge=0
O	-2.735644	-0.492192	0.235385	8
C	-1.515534	-0.443682	0.110405	6
C	-0.814114	0.878678	-0.107015	6
C	0.695276	0.908058	0.050065	6
C	1.337445	-0.426892	-0.019915	6
C	0.616296	-1.543882	-0.008915	6
O	-0.774395	-1.586662	0.082605	8
H	-1.249694	1.595828	0.601525	1
H	-1.082494	1.213268	-1.115795	1
H	0.960066	1.373978	1.005615	1
H	1.117425	1.550388	-0.730845	1
H	2.422385	-0.480382	-0.062805	1
H	1.022986	-2.546512	-0.040305	1
Es	1.013559	0.231786	0.012343	99
Es	-2.735320	-0.492183	0.235349	99
Es	-1.013287	-1.132415	0.136913	99
Es	-0.912686	-1.860133	0.159785	99
Es	-0.246592	-1.519299	0.056788	99
Es	-1.109187	1.347460	0.362492	99
Es	-1.127741	0.194071	0.015635	99
Es	0.971541	-0.970486	-0.352390	99
Es	1.004833	-0.984371	0.311674	99
Es	0.695242	0.908003	0.050060	99
Es	-0.062369	0.865716	-0.027686	99
Es	-2.282596	-0.463408	0.443289	99
Es	-2.340251	-0.493379	-0.051061	99
Es	-2.822750	-0.204724	0.225247	99
Es	0.615919	-1.543978	-0.008902	99
Es	-2.868021	-0.778412	0.263800	99
Es	0.874887	1.209927	0.696178	99
Es	-1.515337	-0.443901	0.110406	99
Es	0.981934	1.335406	-0.478304	99
Es	-0.997664	1.077347	-0.773189	99
Es	1.337464	-0.426802	-0.019918	99
Es	-0.774166	-1.586026	0.082904	99
Es	-0.814098	0.878587	-0.107002	99
Es	2.069141	-0.460546	-0.049414	99
Es	0.885377	-2.218009	-0.032358	99
Es	-0.785137	-1.504173	-0.038400	99
39
Properties=species:S:1:pos:R:3:Z:I:1 energy=-342.6676459664755 field_type=dipole dipole="0.000000 0.000000 0.000000" charge=0
O	-2.735644	-0.492192	0.235385	8
C	-1.515534	-0.443682	0.110405	6
C	-0.814114	0.878678	-0.107015	6
C	0.695276	0.908058	0.050065	6
C	1.337445	-0.426892	-0.019915	6
C	0.616296	-1.543882	-0.008915	6
O	-0.774395	-1.586662	0.082605	8
H	-1.249694	1.595828	0.601525	1
H	-1.082494	1.213268	-1.115795	1
H	0.960066	1.373978	1.005615	1
H	1.117425	1.550388	-0.730845	1
H	2.422385	-0.480382	-0.062805	1
H	1.022986	-2.546512	-0.040305	1
Es	-1.515332	-0.443903	0.110404	99
Es	-0.062371	0.865876	-0.027803	99
Es	-0.774194	-1.586256	0.082513	99
Es	-1.016920	-1.130418	0.123272	99
Es	0.874992	1.209561	0.695775	99
Es	-2.335951	-0.492261	-0.052281	99
Es	-0.245880	-1.519872	0.051744	99
Es	1.337464	-0.426804	-0.019923	99
Es	0.615919	-1.543978	-0.008898	99
Es	0.885318	-2.217786	-0.032264	99
Es	-0.777116	-1.501001	0.001619	99
Es	-0.814098	0.878588	-0.107002	99
Es	-2.876032	-0.775358	0.261360	99
Es	-2.814941	-0.206085	0.226875	99
Es	-0.997904	1.077091	-0.772716	99
Es	0.971576	-0.970347	-0.352194	99
Es	1.013617	0.231744	0.012422	99
Es	0.982282	1.335397	-0.478131	99
Es	0.695243	0.908002	0.050055	99
Es	-1.109313	1.347278	0.362204	99
Es	-0.917887	-1.864382	0.138936	99
Es	1.004545	-0.984280	0.311478	99
Es	-2.286799	-0.466266	0.445418	99
Es	-2.735287	-0.492189	0.235349	99
Es	2.069561	-0.460550	-0.049494	99
Es	-1.127796	0.194259	0.015524	99
39
Properties=species:S:1:pos:R:3:Z:I:1 energy=-342.6676459664755 field_type=dipole dipole="0.000000 0.000000 0.000000" charge=0
O	-2.735644	-0.492192	0.235385	8
C	-1.515534	-0.443682	0.110405	6
C	-0.814114	0.878678	-0.107015	6
C	0.695276	0.908058	0.050065	6
C	1.337445	-0.426892	-0.019915	6
C	0.616296	-1.543882	-0.008915	6
O	-0.774395	-1.586662	0.082605	8
H	-1.249694	1.595828	0.601525	1
H	-1.082494	1.213268	-1.115795	1
H	0.960066	1.373978	1.005615	1
H	1.117425	1.550388	-0.730845	1
H	2.422385	-0.480382	-0.062805	1
H	1.022986	-2.546512	-0.040305	1
Es	2.069844	-0.460487	-0.050878	99
Es	-2.286986	-0.465683	0.444567	99
Es	1.004402	-0.984189	0.312025	99
Es	-1.128007	0.194323	0.014998	99
Es	1.337465	-0.426802	-0.019921	99
Es	0.615919	-1.543978	-0.008895	99
Es	0.971611	-0.970327	-0.351463	99
Es	0.982892	1.336146	-0.478415	99
Es	-0.925224	-1.866628	0.076065	99
Es	0.885245	-2.217619	-0.031453	99
Es	-2.879992	-0.773494	0.264541	99
Es	1.013429	0.231695	0.011897	99
Es	-0.062375	0.865822	-0.027233	99
Es	0.874804	1.208618	0.695065	99
Es	-0.764393	-1.499471	0.114786	99
Es	-0.246507	-1.520238	0.035162	99
Es	-1.109187	1.347038	0.361903	99
Es	-0.774167	-1.585960	0.081959	99
Es	-1.515336	-0.443902	0.110397	99
Es	-2.335947	-0.493862	-0.053734	99
Es	-0.814098	0.878588	-0.107005	99
Es	-2.735396	-0.492180	0.235361	99
Es	-0.998097	1.077105	-0.772593	99
Es	-1.021761	-1.129540	0.090561	99
Es	-2.810684	-0.206916	0.226490	99
Es	0.695241	0.908001	0.050055	99
39
Properties=species:S:1:pos:R:3:Z:I:1 energy=-342.6676459664755 field_type=dipole dipole="0.000000 0.000000 0.000000" charge=0
O	-2.735644	-0.492192	0.235385	8
C	-1.515534	-0.443682	0.110405	6
C	-0.814114	0.878678	-0.107015	6
C	0.695276	0.908058	0.050065	6
C	1.337445	-0.426892	-0.019915	6
C	0.616296	-1.543882	-0.008915	6
O	-0.774395	-1.586662	0.082605	8
H	-1.249694	1.595828	0.601525	1
H	-1.082494	1.213268	-1.115795	1
H	0.960066	1.373978	1.005615	1
H	1.117425	1.550388	-0.730845	1
H	2.422385	-0.480382	-0.062805	1
H	1.022986	-2.546512	-0.040305	1
Es	0.615913	-1.543982	-0.008898	99
Es	0.885223	-2.217517	-0.031426	99
Es	-2.809179	-0.208967	0.227525	99
Es	1.013592	0.231538	0.012408	99
Es	-2.338589	-0.491639	-0.054008	99
Es	1.004310	-0.984145	0.311562	99
Es	-0.766741	-1.498405	0.081820	99
Es	-1.021354	-1.129598	0.102752	99
Es	1.337463	-0.426802	-0.019920	99
Es	-2.881392	-0.774177	0.264319	99
Es	0.983137	1.336031	-0.478128	99
Es	0.971580	-0.970262	-0.351490	99
Es	-2.735412	-0.492174	0.235345	99
Es	-0.245767	-1.520467	0.040284	99
Es	2.070100	-0.460501	-0.050620	99
Es	-0.998114	1.076636	-0.771925	99
Es	-1.109364	1.347215	0.361545	99
Es	-1.128155	0.194452	0.015224	99
Es	-0.774165	-1.586210	0.082797	99
Es	-0.814098	0.878587	-0.107002	99
Es	0.874757	1.208495	0.694532	99
Es	-0.062357	0.866078	-0.027549	99
Es	0.695243	0.908001	0.050055	99
Es	-2.284524	-0.465220	0.443808	99
Es	-1.515336	-0.443903	0.110399	99
Es	-0.924075	-1.867006	0.090831	99
39
Properties=species:S:1:pos:R:3:Z:I:1 energy=-342.6676459664755 field_type=dipole dipole="0.000000 0.000000 0.000000" charge=0
O	-2.735644	-0.492192	0.235385	8
C	-1.515534	-0.443682	0.110405	6
C	-0.814114	0.878678	-0.107015	6
C	0.695276	0.908058	0.050065	6
C	1.337445	-0.426892	-0.019915	6
C	0.616296	-1.543882	-0.008915	6
O	-0.774395	-1.586662	0.082605	8
H	-1.249694	1.595828	0.601525	1
H	-1.082494	1.213268	-1.115795	1
H	0.960066	1.373978	1.005615	1
H	1.117425	1.550388	-0.730845	1
H	2.422385	-0.480382	-0.062805	1
H	1.022986	-2.546512	-0.040305	1
Es	-1.515334	-0.443903	0.110403	99
Es	0.615916	-1.543978	-0.008900	99
Es	1.004302	-0.984100	0.311095	99
Es	1.337463	-0.426804	-0.019916	99
Es	0.874782	1.208486	0.694123	99
Es	-0.923634	-1.866923	0.097375	99
Es	0.971493	-0.970126	-0.351005	99
Es	-0.997858	1.076385	-0.771001	99
Es	0.695244	0.908002	0.050054	99
Es	-0.767785	-1.499765	0.070973	99
Es	2.070303	-0.460669	-0.050498	99
Es	-0.245519	-1.520400	0.042552	99
Es	-1.021200	-1.129858	0.104161	99
Es	0.983066	1.335971	-0.477815	99
Es	-0.062349	0.866300	-0.027749	99
Es	-2.336294	-0.495457	-0.052768	99
Es	-1.109622	1.347439	0.361345	99
Es	-0.774030	-1.584676	0.083324	99
Es	1.013757	0.231484	0.012619	99
Es	0.885287	-2.217531	-0.031724	99
Es	-2.800781	-0.208436	0.224678	99
Es	-2.286695	-0.466473	0.444535	99
Es	-0.814097	0.878587	-0.107003	99
Es	-2.735309	-0.492230	0.235356	99
Es	-1.128365	0.194372	0.014894	99
Es	-2.890048	-0.769638	0.265132	99
39
Properties=species:S:1:pos:R:3:Z:I:1 energy=-342.6676459664755 field_type=dipole dipole="0.000000 0.000000 0.000000" charge=0
O	-2.735644	-0.492192	0.235385	8
C	-1.515534	-0.443682	0.110405	6
C	-0.814114	0.878678	-0.107015	6
C	0.695276	0.908058	0.050065	6
C	1.337445	-0.426892	-0.019915	6
C	0.616296	-1.543882	-0.008915	6
O	-0.774395	-1.586662	0.082605	8
H	-1.249694	1.595828	0.601525	1
H	-1.082494	1.213268	-1.115795	1
H	0.960066	1.373978	1.005615	1
H	1.117425	1.550388	-0.730845	1
H	2.422385	-0.480382	-0.062805	1
H	1.022986	-2.546512	-0.040305	1
Es	0.983285	1.336302	-0.477663	99
Es	-0.997824	1.076162	-0.770441	99
Es	0.971557	-0.970154	-0.350526	99
Es	-2.794934	-0.209312	0.226129	99
Es	0.874638	1.208057	0.693544	99
Es	0.885409	-2.217586	-0.031389	99
Es	-0.766201	-1.498597	0.088677	99
Es	0.615916	-1.543979	-0.008896	99
Es	2.070450	-0.460741	-0.050701	99
Es	-2.895720	-0.766639	0.265777	99
Es	-2.735272	-0.492269	0.235352	99
Es	-0.062362	0.866521	-0.027739	99
Es	0.695242	0.908001	0.050056	99
Es	-0.923967	-1.866491	0.087258	99
Es	1.013773	0.231453	0.012471	99
Es	-1.022151	-1.129997	0.100221	99
Es	-0.814098	0.878587	-0.107002	99
Es	-2.284421	-0.468743	0.443278	99
Es	-1.128612	0.194300	0.014879	99
Es	1.004143	-0.983944	0.310739	99
Es	1.337463	-0.426805	-0.019920	99
Es	-0.774168	-1.586127	0.082420	99
Es	-1.109630	1.347558	0.361007	99
Es	-0.245693	-1.520357	0.039916	99
Es	-1.515334	-0.443903	0.110402	99
Es	-2.338793	-0.495238	-0.053610	99
39
Properties=species:S:1:pos:R:3:Z:I:1 energy=-342.6676459664755 field_type=dipole dipole="0.000000 0.000000 0.000000" charge=0
O	-2.735644	-0.492192	0.235385	8
C	-1.515534	-0.443682	0.110405	6
C	-0.814114	0.878678	-0.107015	6
C	0.695276	0.908058	0.050065	6
C	1.337445	-0.426892	-0.019915	6
C	0.616296	-1.543882	-0.008915	6
O	-0.774395	-1.586662	0.082605	8
H	-1.249694	1.595828	0.601525	1
H	-1.082494	1.213268	-1.115795	1
H	0.960066	1.373978	1.005615	1
H	1.117425	1.550388	-0.730845	1
H	2.422385	-0.480382	-0.062805	1
H	1.022986	-2.546512	-0.040305	1
Es	-2.795001	-0.210091	0.224676	99
Es	-1.022422	-1.130437	0.100589	99
Es	-2.895817	-0.766690	0.265873	99
Es	-1.109830	1.347726	0.360810	99
Es	1.013855	0.231254	0.012495	99
Es	0.971377	-0.970059	-0.350249	99
Es	-2.286414	-0.467306	0.444415	99
Es	-0.923273	-1.866633	0.094067	99
Es	2.070631	-0.460667	-0.050553	99
Es	0.874700	1.207945	0.693453	99
Es	-0.814097	0.878586	-0.107003	99
Es	1.337467	-0.426798	-0.019914	99
Es	0.983227	1.336294	-0.477321	99
Es	0.885429	-2.217596	-0.031763	99
Es	-0.062272	0.866664	-0.028039	99
Es	1.004235	-0.983927	0.310527	99
Es	-2.735270	-0.492226	0.235349	99
Es	-0.766889	-1.498318	0.080265	99
Es	-2.336684	-0.495975	-0.053373	99
Es	-0.997558	1.075985	-0.769481	99
Es	-1.515335	-0.443902	0.110404	99
Es	-1.128884	0.194224	0.014423	99
Es	0.615914	-1.543980	-0.008906	99
Es	0.695243	0.908001	0.050056	99
Es	-0.245463	-1.519916	0.041293	99
Es	-0.774176	-1.586099	0.082145	99
39
Properties=species:S:1:pos:R:3:Z:I:1 energy=-342.6676459664755 field_type=dipole dipole="0.000000 0.000000 0.000000" charge=0
O	-2.735644	-0.492192	0.235385	8
C	-1.515534	-0.443682	0.110405	6
C	-0.814114	0.878678	-0.107015	6
C	0.695276	0.908058	0.050065	6
C	1.337445	-0.426892	-0.019915	6
C	0.616296	-1.543882	-0.008915	6
O	-0.774395	-1.586662	0.082605	8
H	-1.249694	1.595828	0.601525	1
H	-1.082494	1.213268	-1.115795	1
H	0.960066	1.373978	1.005615	1
H	1.117425	1.550388	-0.730845	1
H	2.422385	-0.480382	-0.062805	1
H	1.022986	-2.546512	-0.040305	1
Es	-2.790697	-0.209881	0.224082	99
Es	-0.245453	-1.519971	0.041645	99
Es	0.971443	-0.970015	-0.349883	99
Es	-0.997558	1.075946	-0.769178	99
Es	-2.338085	-0.497227	-0.052724	99
Es	0.874561	1.207781	0.692992	99
Es	-0.923394	-1.866553	0.092880	99
Es	-1.022078	-1.130492	0.104104	99
Es	1.013901	0.231202	0.012585	99
Es	-1.129094	0.194300	0.014500	99
Es	1.004032	-0.983816	0.310236	99
Es	-0.062247	0.866749	-0.027978	99
Es	-2.285132	-0.468500	0.443636	99
Es	0.695242	0.908002	0.050056	99
Es	0.885529	-2.217628	-0.031586	99
Es	-2.735247	-0.492312	0.235352	99
Es	-2.900040	-0.764358	0.266479	99
Es	-1.109788	1.347676	0.360585	99
Es	-0.767425	-1.500556	0.075521	99
Es	0.983421	1.336392	-0.477264	99
Es	-0.814099	0.878589	-0.107004	99
Es	0.615913	-1.543979	-0.008906	99
Es	-0.773893	-1.583816	0.084261	99
Es	2.070752	-0.460771	-0.050628	99
Es	-1.515335	-0.443903	0.110402	99
Es	1.337467	-0.426800	-0.019925	99
39
Properties=species:S:1:pos:R:3:Z:I:1 energy=-342.6676459664755 field_type=dipole dipole="0.000000 0.000000 0.000000" charge=0
O	-2.735644	-0.492192	0.235385	8
C	-1.515534	-0.443682	0.110405	6
C	-0.814114	0.878678	-0.107015	6
C	0.695276	0.908058	0.050065	6
C	1.337445	-0.426892	-0.019915	6
C	0.616296	-1.543882	-0.008915	6
O	-0.774395	-1.586662	0.082605	8
H	-1.249694	1.595828	0.601525	1
H	-1.082494	1.213268	-1.115795	1
H	0.960066	1.373978	1.005615	1
H	1.117425	1.550388	-0.730845	1
H	2.422385	-0.480382	-0.062805	1
H	1.022986	-2.546512	-0.040305	1
Es	-0.997435	1.075617	-0.768940	99
Es	-2.285168	-0.469116	0.443854	99
Es	-2.908120	-0.759429	0.267720	99
Es	-0.765876	-1.498483	0.092431	99
Es	1.337465	-0.426802	-0.019921	99
Es	0.695243	0.908002	0.050056	99
Es	-0.062276	0.867003	-0.027881	99
Es	1.004045	-0.983819	0.309887	99
Es	1.013836	0.231187	0.012590	99
Es	0.885662	-2.217700	-0.031474	99
Es	-1.109857	1.347988	0.360309	99
Es	0.983441	1.336676	-0.477121	99
Es	-1.129197	0.194244	0.014486	99
Es	-1.515335	-0.443903	0.110403	99
Es	-2.338117	-0.499778	-0.052117	99
Es	-1.022762	-1.130318	0.099531	99
Es	-0.814098	0.878587	-0.107003	99
Es	0.971580	-0.970004	-0.349269	99
Es	-0.923767	-1.866005	0.085009	99
Es	-2.735270	-0.492220	0.235343	99
Es	2.070772	-0.460947	-0.050893	99
Es	-2.782503	-0.211708	0.222142	99
Es	-0.245648	-1.520359	0.039115	99
Es	0.874362	1.207579	0.692472	99
Es	-0.774195	-1.586253	0.082410	99
Es	0.615915	-1.543979	-0.008899	99
39
Properties=species:S:1:pos:R:3:Z:I:1 energy=-342.6676459664755 field_type=dipole dipole="0.000000 0.000000 0.000000" charge=0
O	-2.735644	-0.492192	0.235385	8
C	-1.515534	-0.443682	0.110405	6
C	-0.814114	0.878678	-0.107015	6
C	0.695276	0.908058	0.050065	6
C	1.337445	-0.426892	-0.019915	6
C	0.616296	-1.543882	-0.008915	6
O	-0.774395	-1.586662	0.082605	8
H	-1.249694	1.595828	0.601525	1
H	-1.082494	1.213268	-1.115795	1
H	0.960066	1.373978	1.005615	1
H	1.117425	1.550388	-0.730845	1
H	2.422385	-0.480382	-0.062805	1
H	1.022986	-2.546512	-0.040305	1
Es	-1.515337	-0.443898	0.110400	99
Es	0.971521	-0.969984	-0.349341	99
Es	2.070860	-0.460986	-0.050909	99
Es	1.004006	-0.983779	0.309781	99
Es	-0.245375	-1.520514	0.040794	99
Es	-0.062245	0.867108	-0.027968	99
Es	-2.907671	-0.760288	0.267179	99
Es	-0.997407	1.075630	-0.768378	99
Es	-0.766035	-1.498434	0.090694	99
Es	-2.782811	-0.211957	0.224570	99
Es	-0.774191	-1.586259	0.082534	99
Es	-0.814097	0.878586	-0.107002	99
Es	-1.022872	-1.130441	0.099844	99
Es	1.337465	-0.426802	-0.019917	99
Es	1.013980	0.231157	0.012736	99
Es	-1.109955	1.347889	0.360327	99
Es	-2.735297	-0.492236	0.235353	99
Es	0.874292	1.207323	0.692133	99
Es	0.885605	-2.217686	-0.031337	99
Es	0.615917	-1.543978	-0.008903	99
Es	-2.338612	-0.497563	-0.052929	99
Es	0.695244	0.908002	0.050056	99
Es	0.983598	1.336829	-0.477023	99
Es	-2.284819	-0.470232	0.442731	99
Es	-1.129301	0.194218	0.014190	99
Es	-0.923770	-1.865645	0.084626	99
39
Properties=species:S:1:pos:R:3:Z:I:1 energy=-342.6676459664755 field_type=dipole dipole="0.000000 0.000000 0.000000" charge=0
O	-2.735644	-0.492192	0.235385	8
C	-1.515534	-0.443682	0.110405	6
C	-0.814114	0.878678	-0.107015	6
C	0.695276	0.908058	0.050065	6
C	1.337445	-0.426892	-0.019915	6
C	0.616296	-1.543882	-0.008915	6
O	-0.774395	-1.586662	0.082605	8
H	-1.249694	1.595828	0.601525	1
H	-1.082494	1.213268	-1.115795	1
H	0.960066	1.373978	1.005615	1
H	1.117425	1.550388	-0.730845	1
H	2.422385	-0.480382	-0.062805	1
H	1.022986	-2.546512	-0.040305	1
Es	-2.284177	-0.470084	0.443334	99
Es	2.070988	-0.460975	-0.050728	99
Es	0.615914	-1.543979	-0.008897	99
Es	-0.814098	0.878587	-0.107002	99
Es	-2.339127	-0.497285	-0.052293	99
Es	-2.907876	-0.760319	0.266280	99
Es	-0.774057	-1.585565	0.083488	99
Es	0.983585	1.336601	-0.476886	99
Es	1.014013	0.231073	0.013135	99
Es	0.874403	1.207405	0.692190	99
Es	-2.735297	-0.492157	0.235349	99
Es	-1.023017	-1.130671	0.100825	99
Es	0.885596	-2.217586	-0.032071	99
Es	1.004193	-0.983855	0.309714	99
Es	1.337466	-0.426801	-0.019923	99
Es	-0.997063	1.075191	-0.767632	99
Es	-0.062223	0.867148	-0.028275	99
Es	-1.129404	0.194236	0.013956	99
Es	-0.767002	-1.498777	0.078939	99
Es	-1.110288	1.348324	0.360150	99
Es	-1.515335	-0.443903	0.110401	99
Es	0.695242	0.908002	0.050058	99
Es	-0.922801	-1.866058	0.094598	99
Es	-2.782756	-0.212435	0.224101	99
Es	0.971248	-0.969792	-0.349131	99
Es	-0.245431	-1.520268	0.040559	99
39
Properties=species:S:1:pos:R:3:Z:I:1 energy=-342.6676459664755 field_type=dipole dipole="0.000000 0.000000 0.000000" charge=0
O	-2.735644	-0.492192	0.235385	8
C	-1.515534	-0.443682	0.110405	6
C	-0.814114	0.878678	-0.107015	6
C	0.695276	0.908058	0.050065	6
C	1.337445	-0.426892	-0.019915	6
C	0.616296	-1.543882	-0.008915	6
O	-0.774395	-1.586662	0.082605	8
H	-1.249694	1.595828	0.601525	1
H	-1.082494	1.213268	-1.115795	1
H	0.960066	1.373978	1.005615	1
H	1.117425	1.550388	-0.730845	1
H	2.422385	-0.480382	-0.062805	1
H	1.022986	-2.546512	-0.040305	1
Es	0.971403	-0.969843	-0.348986	99
Es	-2.336931	-0.496711	-0.052152	99
Es	1.337466	-0.426802	-0.019921	99
Es	-2.782294	-0.212598	0.224641	99
Es	2.071073	-0.460877	-0.050851	99
Es	0.885608	-2.217530	-0.031780	99
Es	-2.286343	-0.470447	0.443926	99
Es	0.695243	0.908001	0.050054	99
Es	-0.062245	0.867292	-0.028215	99
Es	0.874233	1.207100	0.691835	99
Es	-0.997047	1.075062	-0.767471	99
Es	-0.923567	-1.865727	0.090765	99
Es	-0.774156	-1.586167	0.082825	99
Es	1.004179	-0.983844	0.309480	99
Es	-2.908340	-0.760361	0.265147	99
Es	-2.735341	-0.492199	0.235349	99
Es	-0.814098	0.878587	-0.107003	99
Es	-0.245321	-1.520650	0.041074	99
Es	-1.022710	-1.130528	0.099729	99
Es	1.013942	0.231039	0.013123	99
Es	-1.515335	-0.443902	0.110403	99
Es	0.983744	1.336847	-0.476651	99
Es	-1.129446	0.194245	0.013795	99
Es	-1.110404	1.348272	0.359978	99
Es	0.615915	-1.543979	-0.008901	99
Es	-0.766533	-1.498225	0.084051	99
39
Properties=species:S:1:pos:R:3:Z:I:1 energy=-342.6676459664755 field_type=dipole dipole="0.000000 0.000000 0.000000" charge=0
O	-2.735644	-0.492192	0.235385	8
C	-1.515534	-0.443682	0.110405	6
C	-0.814114	0.878678	-0.107015	6
C	0.695276	0.908058	0.050065	6
C	1.337445	-0.426892	-0.019915	6
C	0.616296	-1.543882	-0.008915	6
O	-0.774395	-1.586662	0.082605	8
H	-1.249694	1.595828	0.601525	1
H	-1.082494	1.213268	-1.115795	1
H	0.960066	1.373978	1.005615	1
H	1.117425	1.550388	-0.730845	1
H	2.422385	-0.480382	-0.062805	1
H	1.022986	-2.546512	-0.040305	1
Es	-0.923187	-1.865452	0.089042	99
Es	-1.515335	-0.443903	0.110402	99
Es	0.615914	-1.543979	-0.008901	99
Es	-0.766815	-1.499995	0.083653	99
Es	-2.781975	-0.213052	0.222730	99
Es	-2.339801	-0.498135	-0.051786	99
Es	1.014025	0.231103	0.012941	99
Es	-1.110239	1.348328	0.359692	99
Es	1.337466	-0.426802	-0.019911	99
Es	1.004089	-0.983736	0.309517	99
Es	-2.908689	-0.760065	0.267273	99
Es	0.885685	-2.217570	-0.031534	99
Es	-0.814097	0.878585	-0.107004	99
Es	0.983926	1.337033	-0.476648	99
Es	-1.022997	-1.130800	0.103673	99
Es	-0.245259	-1.520633	0.041119	99
Es	-2.283508	-0.468859	0.443198	99
Es	-1.129608	0.194248	0.014132	99
Es	-0.774074	-1.584377	0.081039	99
Es	-2.735298	-0.492227	0.235351	99
Es	-0.997061	1.074984	-0.767325	99
Es	-0.062268	0.867331	-0.028158	99
Es	0.971391	-0.969874	-0.348712	99
Es	0.695242	0.908002	0.050055	99
Es	2.071077	-0.460971	-0.051050	99
Es	0.874090	1.206877	0.691452	99
39
Properties=species:S:1:pos:R:3:Z:I:1 energy=-342.6676459664755 field_type=dipole dipole="0.000000 0.000000 0.000000" charge=0
O	-2.735644	-0.492192	0.235385	8
C	-1.515534	-0.443682	0.110405	6
C	-0.814114	0.878678	-0.107015	6
C	0.695276	0.908058	0.050065	6
C	1.337445	-0.426892	-0.019915	6
C	0.616296	-1.543882	-0.008915	6
O	-0.774395	-1.586662	0.082605	8
H	-1.249694	1.595828	0.601525	1
H	-1.082494	1.213268	-1.115795	1
H	0.960066	1.373978	1.005615	1
H	1.117425	1.550388	-0.730845	1
H	2.422385	-0.480382	-0.062805	1
H	1.022986	-2.546512	-0.040305	1
Es	-2.735375	-0.492170	0.235349	99
Es	0.983950	1.337257	-0.476426	99
Es	1.337465	-0.426802	-0.019921	99
Es	-1.110095	1.348063	0.359783	99
Es	0.885725	-2.217589	-0.031120	99
Es	-0.774082	-1.585773	0.083377	99
Es	-2.338810	-0.497546	-0.051755	99
Es	0.873997	1.206612	0.691045	99
Es	1.003548	-0.983691	0.309116	99
Es	-1.129746	0.194218	0.013945	99
Es	-0.766484	-1.498697	0.085151	99
Es	-0.062318	0.867488	-0.028072	99
Es	-2.284561	-0.471240	0.443446	99
Es	0.615915	-1.543979	-0.008896	99
Es	1.014155	0.230959	0.012919	99
Es	0.971860	-0.969830	-0.348816	99
Es	-1.515334	-0.443904	0.110402	99
Es	-0.923492	-1.865632	0.085470	99
Es	-2.911582	-0.758208	0.265667	99
Es	-1.022890	-1.130789	0.103456	99
Es	2.071162	-0.461039	-0.050933	99
Es	-0.997160	1.075261	-0.767180	99
Es	-0.245362	-1.520335	0.041072	99
Es	0.695242	0.908002	0.050056	99
Es	-0.814098	0.878587	-0.107003	99
Es	-2.778936	-0.213165	0.224108	99
39
Properties=species:S:1:pos:R:3:Z:I:1 energy=-342.6676459664755 field_type=dipole dipole="0.000000 0.000000 0.000000" charge=0
O	-2.735644	-0.492192	0.235385	8
C	-1.515534	-0.443682	0.110405	6
C	-0.814114	0.878678	-0.107015	6
C	0.695276	0.908058	0.050065	6
C	1.337445	-0.426892	-0.019915	6
C	0.616296	-1.543882	-0.008915	6
O	-0.774395	-1.586662	0.082605	8
H	-1.249694	1.595828	0.601525	1
H	-1.082494	1.213268	-1.115795	1
H	0.960066	1.373978	1.005615	1
H	1.117425	1.550388	-0.730845	1
H	2.422385	-0.480382	-0.062805	1
H	1.022986	-2.546512	-0.040305	1
Es	-2.338253	-0.498901	-0.051483	99
Es	1.003978	-0.983693	0.309067	99
Es	-2.914534	-0.756327	0.266717	99
Es	2.071204	-0.460918	-0.050736	99
Es	1.337466	-0.426801	-0.019922	99
Es	0.874121	1.206838	0.691232	99
Es	0.983754	1.337069	-0.476410	99
Es	-2.776022	-0.214286	0.222757	99
Es	-1.515335	-0.443903	0.110401	99
Es	-1.023163	-1.130612	0.100515	99
Es	-0.814099	0.878588	-0.107002	99
Es	-0.245302	-1.520714	0.041086	99
Es	-2.735313	-0.492219	0.235353	99
Es	-0.923101	-1.865516	0.090999	99
Es	-0.996763	1.074690	-0.766507	99
Es	-1.110426	1.348691	0.359527	99
Es	-0.766626	-1.498772	0.084141	99
Es	-0.774146	-1.585589	0.081719	99
Es	-0.062228	0.867532	-0.028329	99
Es	-1.129841	0.194171	0.013755	99
Es	1.014161	0.230753	0.013102	99
Es	0.885749	-2.217665	-0.031712	99
Es	-2.285140	-0.470558	0.443459	99
Es	0.971395	-0.969821	-0.348639	99
Es	0.695243	0.908002	0.050054	99
Es	0.615915	-1.543979	-0.008901	99
39
Properties=species:S:1:pos:R:3:Z:I:1 energy=-342.6676459664755 field_type=dipole dipole="0.000000 0.000000 0.000000" charge=0
O	-2.735644	-0.492192	0.235385	8
C	-1.515534	-0.443682	0.110405	6
C	-0.814114	0.878678	-0.107015	6
C	0.695276	0.908058	0.050065	6
C	1.337445	-0.426892	-0.019915	6
C	0.616296	-1.543882	-0.008915	6
O	-0.774395	-1.586662	0.082605	8
H	-1.249694	1.595828	0.601525	1
H	-1.082494	1.213268	-1.115795	1
H	0.960066	1.373978	1.005615	1
H	1.117425	1.550388	-0.730845	1
H	2.422385	-0.480382	-0.062805	1
H	1.022986	-2.546512	-0.040305	1
Es	-0.814098	0.878587	-0.107002	99
Es	-2.735251	-0.492306	0.235352	99
Es	0.971457	-0.969798	-0.348469	99
Es	-1.129772	0.194166	0.013628	99
Es	-1.110586	1.348626	0.359470	99
Es	-2.915877	-0.755014	0.268436	99
Es	-0.245206	-1.520373	0.041876	99
Es	0.615914	-1.543979	-0.008900	99
Es	0.874088	1.206723	0.690918	99
Es	1.014363	0.230902	0.012934	99
Es	-1.023008	-1.130965	0.103734	99
Es	0.885794	-2.217658	-0.031589	99
Es	-0.996698	1.074652	-0.766452	99
Es	-2.341173	-0.499968	-0.051437	99
Es	0.695244	0.908003	0.050056	99
Es	-0.767005	-1.498315	0.078676	99
Es	-2.774574	-0.214249	0.222130	99
Es	0.983706	1.337171	-0.476279	99
Es	1.003875	-0.983644	0.309081	99
Es	2.071186	-0.461076	-0.050859	99
Es	-0.062292	0.867626	-0.028023	99
Es	1.337466	-0.426802	-0.019921	99
Es	-1.515332	-0.443905	0.110408	99
Es	-2.282396	-0.470774	0.442321	99
Es	-0.923010	-1.865593	0.091001	99
Es	-0.774122	-1.585980	0.083151	99
39
Properties=species:S:1:pos:R:3:Z:I:1 energy=-342.6676459664755 field_type=dipole dipole="0.000000 0.000000 0.000000" charge=0
O	-2.735644	-0.492192	0.235385	8
C	-1.515534	-0.443682	0.110405	6
C	-0.814114	0.878678	-0.107015	6
C	0.695276	0.908058	0.050065	6
C	1.337445	-0.426892	-0.019915	6
C	0.616296	-1.543882	-0.008915	6
O	-0.774395	-1.586662	0.082605	8
H	-1.249694	1.595828	0.601525	1
H	-1.082494	1.213268	-1.115795	1
H	0.960066	1.373978	1.005615	1
H	1.117425	1.550388	-0.730845	1
H	2.422385	-0.480382	-0.062805	1
H	1.022986	-2.546512	-0.040305	1
Es	-0.922911	-1.865313	0.089705	99
Es	-2.283790	-0.471530	0.443123	99
Es	1.337465	-0.426802	-0.019918	99
Es	-2.339644	-0.497881	-0.051523	99
Es	-2.916798	-0.755043	0.266192	99
Es	-0.062173	0.867692	-0.028493	99
Es	0.983919	1.337219	-0.476273	99
Es	0.971444	-0.969745	-0.348269	99
Es	2.071241	-0.461078	-0.050941	99
Es	0.615911	-1.543980	-0.008902	99
Es	0.885884	-2.217721	-0.031530	99
Es	-1.515332	-0.443905	0.110402	99
Es	-1.023468	-1.130768	0.101123	99
Es	1.014175	0.230869	0.013482	99
Es	-0.766575	-1.498681	0.083774	99
Es	0.695242	0.908001	0.050055	99
Es	1.003958	-0.983670	0.308618	99
Es	0.873826	1.206728	0.690816	99
Es	-2.735267	-0.492266	0.235352	99
Es	-0.996711	1.074581	-0.766078	99
Es	-2.773786	-0.215622	0.223584	99
Es	-0.245289	-1.520740	0.040643	99
Es	-1.110626	1.348634	0.359488	99
Es	-0.774095	-1.585675	0.083265	99
Es	-0.814098	0.878586	-0.107003	99
Es	-1.129807	0.194167	0.013548	99
39
Properties=species:S:1:pos:R:3:Z:I:1 energy=-342.6676459664755 field_type=dipole dipole="0.000000 0.000000 0.000000" charge=0
O	-2.735644	-0.492192	0.235385	8
C	-1.515534	-0.443682	0.110405	6
C	-0.814114	0.878678	-0.107015	6
C	0.695276	0.908058	0.050065	6
C	1.337445	-0.426892	-0.019915	6
C	0.616296	-1.543882	-0.008915	6
O	-0.774395	-1.586662	0.082605	8
H	-1.249694	1.595828	0.601525	1
H	-1.082494	1.213268	-1.115795	1
H	0.960066	1.373978	1.005615	1
H	1.117425	1.550388	-0.730845	1
H	2.422385	-0.480382	-0.062805	1
H	1.022986	-2.546512	-0.040305	1
Es	-1.130082	0.194045	0.013582	99
Es	-2.735273	-0.492164	0.235347	99
Es	0.873852	1.206486	0.690533	99
Es	1.003737	-0.983577	0.308759	99
Es	2.071280	-0.461141	-0.050928	99
Es	-1.515335	-0.443902	0.110403	99
Es	-2.917294	-0.754306	0.267763	99
Es	-0.923192	-1.865300	0.086198	99
Es	0.615914	-1.543979	-0.008897	99
Es	-0.766249	-1.498671	0.088709	99
Es	-2.283221	-0.471609	0.442341	99