49
Properties=species:S:1:pos:R:3:Z:I:1 energy=-273.3047931025636 field_type=dipole dipole="0.000000 0.000000 0.000000" charge=0
C	-0.400930	-2.219872	-1.284556	6
C	-0.774080	-1.427372	-0.037636	6
C	-0.238190	0.019998	-0.043586	6
C	-0.796500	0.779888	1.178434	6
C	-0.401740	2.251258	1.216454	6
C	1.274610	0.037138	-0.050656	6
C	2.012980	0.587248	-1.021916	6
H	-0.863390	-3.211462	-1.249556	1
H	0.680820	-2.362202	-1.363916	1
H	-0.752060	-1.714562	-2.189536	1
H	-0.410280	-1.963302	0.848394	1
H	-1.868770	-1.405782	0.036354	1
H	-0.615890	0.515968	-0.948286	1
H	-0.468760	0.297888	2.108474	1
H	-1.892490	0.721898	1.164524	1
H	0.675250	2.374438	1.363774	1
H	-0.907960	2.752808	2.047244	1
H	-0.686290	2.758868	0.289864	1
H	1.778790	-0.429392	0.793494	1
H	1.557570	1.065868	-1.884366	1
H	3.097310	0.570678	-0.973006	1
Es	-0.719726	-2.896956	-1.258585	99
Es	-1.525363	-1.406078	0.012575	99
Es	1.651232	0.603327	-0.388717	99
Es	2.013041	0.587290	-1.021998	99
Es	-0.489636	-0.704506	-0.041799	99
Es	1.607209	-0.283785	0.529821	99
Es	0.528745	0.027686	-0.045369	99
Es	2.750789	0.579906	-0.995923	99
Es	-0.796473	0.779908	1.178409	99
Es	0.330572	2.332533	1.316329	99
Es	-0.518376	-1.790944	0.572497	99
Es	0.334357	-2.315099	-1.336200	99
Es	-0.565647	0.445230	1.814614	99
Es	-0.492810	0.361516	-0.666379	99
Es	-0.400946	-2.219861	-1.284534	99
Es	-0.499610	0.401411	0.568223	99
Es	-1.548480	0.737271	1.162954	99
Es	1.707592	0.913668	-1.610322	99
Es	-0.238155	0.019979	-0.043546	99
Es	1.656482	0.033446	-0.707187	99
Es	-0.401757	2.251233	1.216456	99
Es	-0.579324	-1.819832	-0.666391	99
Es	-0.750572	2.591900	1.784774	99
Es	1.274532	0.037092	-0.050571	99
Es	-0.642394	-1.870139	-1.901673	99
Es	-0.774053	-1.427361	-0.037668	99
Es	-0.590693	1.518040	1.191558	99
Es	-0.598058	2.594496	0.580256	99
49
Properties=species:S:1:pos:R:3:Z:I:1 energy=-273.3047931025636 field_type=dipole dipole="0.000000 0.000000 0.000000" charge=0
C	-0.400930	-2.219872	-1.284556	6
C	-0.774080	-1.427372	-0.037636	6
C	-0.238190	0.019998	-0.043586	6
C	-0.796500	0.779888	1.178434	6
C	-0.401740	2.251258	1.216454	6
C	1.274610	0.037138	-0.050656	6
C	2.012980	0.587248	-1.021916	6
H	-0.863390	-3.211462	-1.249556	1
H	0.680820	-2.362202	-1.363916	1
H	-0.752060	-1.714562	-2.189536	1
H	-0.410280	-1.963302	0.848394	1
H	-1.868770	-1.405782	0.036354	1
H	-0.615890	0.515968	-0.948286	1
H	-0.468760	0.297888	2.108474	1
H	-1.892490	0.721898	1.164524	1
H	0.675250	2.374438	1.363774	1
H	-0.907960	2.752808	2.047244	1
H	-0.686290	2.758868	0.289864	1
H	1.778790	-0.429392	0.793494	1
H	1.557570	1.065868	-1.884366	1
H	3.097310	0.570678	-0.973006	1
Es	-0.238155	0.019976	-0.043544	99
Es	1.607034	-0.283701	0.529855	99
Es	-0.493159	0.361632	-0.666668	99
Es	-0.796472	0.779909	1.178409	99
Es	-0.719797	-2.897045	-1.258085	99
Es	0.330453	2.331854	1.316634	99
Es	-0.598218	2.594857	0.579442	99
Es	-0.499594	0.401353	0.567954	99
Es	-1.548713	0.737368	1.162865	99
Es	-0.401756	2.251233	1.216455	99
Es	-0.750442	2.591428	1.785117	99
Es	2.013043	0.587296	-1.021997	99
Es	-0.518065	-1.791113	0.572761	99
Es	-1.525745	-1.406052	0.012235	99
Es	0.334425	-2.314988	-1.335619	99
Es	-0.642680	-1.869482	-1.902102	99
Es	-0.565197	0.445133	1.814920	99
Es	-0.774054	-1.427361	-0.037667	99
Es	-0.578986	-1.820111	-0.666602	99
Es	0.529089	0.027555	-0.045227	99
Es	2.750767	0.579949	-0.995931	99
Es	1.707453	0.913677	-1.610422	99
Es	-0.590726	1.518357	1.191551	99
Es	1.274534	0.037092	-0.050569	99
Es	1.656745	0.033450	-0.707175	99
Es	1.651304	0.603246	-0.388744	99
Es	-0.489664	-0.704281	-0.041705	99
Es	-0.400947	-2.219860	-1.284534	99
49
Properties=species:S:1:pos:R:3:Z:I:1 energy=-273.3047931025636 field_type=dipole dipole="0.000000 0.000000 0.000000" charge=0
C	-0.400930	-2.219872	-1.284556	6
C	-0.774080	-1.427372	-0.037636	6
C	-0.238190	0.019998	-0.043586	6
C	-0.796500	0.779888	1.178434	6
C	-0.401740	2.251258	1.216454	6
C	1.274610	0.037138	-0.050656	6
C	2.012980	0.587248	-1.021916	6
H	-0.863390	-3.211462	-1.249556	1
H	0.680820	-2.362202	-1.363916	1
H	-0.752060	-1.714562	-2.189536	1
H	-0.410280	-1.963302	0.848394	1
H	-1.868770	-1.405782	0.036354	1
H	-0.615890	0.515968	-0.948286	1
H	-0.468760	0.297888	2.108474	1
H	-1.892490	0.721898	1.164524	1
H	0.675250	2.374438	1.363774	1
H	-0.907960	2.752808	2.047244	1
H	-0.686290	2.758868	0.289864	1
H	1.778790	-0.429392	0.793494	1
H	1.557570	1.065868	-1.884366	1
H	3.097310	0.570678	-0.973006	1
Es	0.529143	0.027297	-0.044794	99
Es	1.707510	0.913819	-1.610363	99
Es	-0.564957	0.445059	1.815249	99
Es	1.656682	0.033452	-0.707378	99
Es	-0.579042	-1.820241	-0.666534	99
Es	-0.750450	2.591266	1.785447	99
Es	-1.548816	0.737484	1.162714	99
Es	-0.499420	0.401307	0.567720	99
Es	-0.720008	-2.897223	-1.257992	99
Es	1.274532	0.037091	-0.050570	99
Es	-0.796474	0.779909	1.178409	99
Es	-1.525922	-1.406009	0.012055	99
Es	0.334494	-2.314848	-1.335375	99
Es	-0.642696	-1.869062	-1.902057	99
Es	-0.489498	-0.704020	-0.041752	99
Es	2.013043	0.587295	-1.021999	99
Es	-0.774056	-1.427362	-0.037666	99
Es	-0.401757	2.251234	1.216456	99
Es	-0.238154	0.019975	-0.043544	99
Es	-0.493375	0.361791	-0.666829	99
Es	-0.598082	2.594983	0.578603	99
Es	1.607141	-0.283655	0.529508	99
Es	-0.517897	-1.791362	0.572847	99
Es	-0.400947	-2.219859	-1.284536	99
Es	-0.590640	1.518507	1.191690	99
Es	0.330031	2.331316	1.316911	99
Es	2.750748	0.579880	-0.995945	99
Es	1.651344	0.603349	-0.388667	99
49
Properties=species:S:1:pos:R:3:Z:I:1 energy=-273.3047931025636 field_type=dipole dipole="0.000000 0.000000 0.000000" charge=0
C	-0.400930	-2.219872	-1.284556	6
C	-0.774080	-1.427372	-0.037636	6
C	-0.238190	0.019998	-0.043586	6
C	-0.796500	0.779888	1.178434	6
C	-0.401740	2.251258	1.216454	6
C	1.274610	0.037138	-0.050656	6
C	2.012980	0.587248	-1.021916	6
H	-0.863390	-3.211462	-1.249556	1
H	0.680820	-2.362202	-1.363916	1
H	-0.752060	-1.714562	-2.189536	1
H	-0.410280	-1.963302	0.848394	1
H	-1.868770	-1.405782	0.036354	1
H	-0.615890	0.515968	-0.948286	1
H	-0.468760	0.297888	2.108474	1
H	-1.892490	0.721898	1.164524	1
H	0.675250	2.374438	1.363774	1
H	-0.907960	2.752808	2.047244	1
H	-0.686290	2.758868	0.289864	1
H	1.778790	-0.429392	0.793494	1
H	1.557570	1.065868	-1.884366	1
H	3.097310	0.570678	-0.973006	1
Es	-0.400946	-2.219861	-1.284534	99
Es	-0.499207	0.401342	0.567322	99
Es	2.750726	0.580011	-0.995957	99
Es	-0.401756	2.251234	1.216456	99
Es	-0.750794	2.591004	1.786169	99
Es	2.013044	0.587295	-1.021998	99
Es	1.707625	0.913773	-1.610273	99
Es	-0.493449	0.361827	-0.667026	99
Es	-0.796474	0.779908	1.178410	99
Es	-0.590409	1.519031	1.191665	99
Es	-0.774054	-1.427361	-0.037667	99
Es	-0.578488	-1.820326	-0.667322	99
Es	-0.489386	-0.703821	-0.041664	99
Es	-0.597636	2.595119	0.577714	99
Es	-0.517795	-1.791397	0.572815	99
Es	-1.526110	-1.406083	0.012003	99
Es	-0.238154	0.019976	-0.043545	99
Es	1.651296	0.603720	-0.388577	99
Es	-1.548746	0.737667	1.162466	99
Es	0.529235	0.027094	-0.044399	99
Es	-0.720703	-2.897496	-1.257224	99
Es	1.656734	0.033085	-0.707619	99
Es	1.607037	-0.283499	0.529266	99
Es	1.274531	0.037090	-0.050570	99
Es	-0.565017	0.444950	1.815585	99
Es	0.329460	2.330504	1.317225	99
Es	-0.642645	-1.868581	-1.902172	99
Es	0.334558	-2.314835	-1.334941	99
49
Properties=species:S:1:pos:R:3:Z:I:1 energy=-273.3047931025636 field_type=dipole dipole="0.000000 0.000000 0.000000" charge=0
C	-0.400930	-2.219872	-1.284556	6
C	-0.774080	-1.427372	-0.037636	6
C	-0.238190	0.019998	-0.043586	6
C	-0.796500	0.779888	1.178434	6
C	-0.401740	2.251258	1.216454	6
C	1.274610	0.037138	-0.050656	6
C	2.012980	0.587248	-1.021916	6
H	-0.863390	-3.211462	-1.249556	1
H	0.680820	-2.362202	-1.363916	1
H	-0.752060	-1.714562	-2.189536	1
H	-0.410280	-1.963302	0.848394	1
H	-1.868770	-1.405782	0.036354	1
H	-0.615890	0.515968	-0.948286	1
H	-0.468760	0.297888	2.108474	1
H	-1.892490	0.721898	1.164524	1
H	0.675250	2.374438	1.363774	1
H	-0.907960	2.752808	2.047244	1
H	-0.686290	2.758868	0.289864	1
H	1.778790	-0.429392	0.793494	1
H	1.557570	1.065868	-1.884366	1
H	3.097310	0.570678	-0.973006	1
Es	1.707598	0.913501	-1.610224	99
Es	1.274533	0.037088	-0.050570	99
Es	-0.751224	2.590551	1.786573	99
Es	0.328891	2.330212	1.317677	99
Es	-0.499151	0.401239	0.567207	99
Es	0.334470	-2.314627	-1.334584	99
Es	-0.589956	1.519297	1.191486	99
Es	-0.238154	0.019976	-0.043546	99
Es	-0.578436	-1.820356	-0.667648	99
Es	-1.526353	-1.406173	0.012148	99
Es	1.656687	0.033020	-0.707634	99
Es	-0.400946	-2.219861	-1.284535	99
Es	-0.720941	-2.897777	-1.256568	99
Es	-1.548785	0.737745	1.162516	99
Es	1.651352	0.604079	-0.388507	99
Es	2.750784	0.580048	-0.996143	99
Es	0.529161	0.026782	-0.043992	99
Es	-0.642641	-1.868388	-1.902398	99
Es	-0.597229	2.595299	0.577049	99
Es	2.013044	0.587303	-1.021995	99
Es	-0.796473	0.779907	1.178410	99
Es	-0.401753	2.251232	1.216456	99
Es	-0.489066	-0.703484	-0.041948	99
Es	-0.493574	0.361948	-0.667088	99
Es	-0.517582	-1.791444	0.572604	99
Es	-0.774054	-1.427362	-0.037666	99
Es	-0.564860	0.444917	1.815685	99
Es	1.607135	-0.283303	0.528842	99
49
Properties=species:S:1:pos:R:3:Z:I:1 energy=-273.3047931025636 field_type=dipole dipole="0.000000 0.000000 0.000000" charge=0
C	-0.400930	-2.219872	-1.284556	6
C	-0.774080	-1.427372	-0.037636	6
C	-0.238190	0.019998	-0.043586	6
C	-0.796500	0.779888	1.178434	6
C	-0.401740	2.251258	1.216454	6
C	1.274610	0.037138	-0.050656	6
C	2.012980	0.587248	-1.021916	6
H	-0.863390	-3.211462	-1.249556	1
H	0.680820	-2.362202	-1.363916	1
H	-0.752060	-1.714562	-2.189536	1
H	-0.410280	-1.963302	0.848394	1
H	-1.868770	-1.405782	0.036354	1
H	-0.615890	0.515968	-0.948286	1
H	-0.468760	0.297888	2.108474	1
H	-1.892490	0.721898	1.164524	1
H	0.675250	2.374438	1.363774	1
H	-0.907960	2.752808	2.047244	1
H	-0.686290	2.758868	0.289864	1
H	1.778790	-0.429392	0.793494	1
H	1.557570	1.065868	-1.884366	1
H	3.097310	0.570678	-0.973006	1
Es	-0.400945	-2.219860	-1.284534	99
Es	2.013044	0.587295	-1.021999	99
Es	1.656564	0.032740	-0.707790	99
Es	-0.498818	0.401425	0.566655	99
Es	1.651506	0.604418	-0.388417	99
Es	-0.401756	2.251235	1.216455	99
Es	1.707688	0.913466	-1.610138	99
Es	-0.642494	-1.868100	-1.902555	99
Es	-0.488876	-0.703287	-0.042040	99
Es	-0.238154	0.019976	-0.043546	99
Es	-0.721600	-2.898083	-1.255607	99
Es	-0.596781	2.595468	0.576446	99
Es	-1.526491	-1.406171	0.012060	99
Es	0.328227	2.329611	1.317794	99
Es	1.274531	0.037091	-0.050570	99
Es	-0.589545	1.519755	1.191261	99
Es	0.529244	0.026650	-0.043478	99
Es	1.607108	-0.283046	0.528417	99
Es	0.334380	-2.314530	-1.334206	99
Es	-0.493626	0.361858	-0.667138	99
Es	-1.548594	0.737995	1.162164	99
Es	-0.565108	0.444774	1.816085	99
Es	-0.796475	0.779908	1.178409	99
Es	2.750779	0.579984	-0.996245	99
Es	-0.751650	2.590064	1.787465	99
Es	-0.774055	-1.427361	-0.037666	99
Es	-0.517583	-1.791488	0.572599	99
Es	-0.578040	-1.820418	-0.668274	99
49
Properties=species:S:1:pos:R:3:Z:I:1 energy=-273.3047931025636 field_type=dipole dipole="0.000000 0.000000 0.000000" charge=0
C	-0.400930	-2.219872	-1.284556	6
C	-0.774080	-1.427372	-0.037636	6
C	-0.238190	0.019998	-0.043586	6
C	-0.796500	0.779888	1.178434	6
C	-0.401740	2.251258	1.216454	6
C	1.274610	0.037138	-0.050656	6
C	2.012980	0.587248	-1.021916	6
H	-0.863390	-3.211462	-1.249556	1
H	0.680820	-2.362202	-1.363916	1
H	-0.752060	-1.714562	-2.189536	1
H	-0.410280	-1.963302	0.848394	1
H	-1.868770	-1.405782	0.036354	1
H	-0.615890	0.515968	-0.948286	1
H	-0.468760	0.297888	2.108474	1
H	-1.892490	0.721898	1.164524	1
H	0.675250	2.374438	1.363774	1
H	-0.907960	2.752808	2.047244	1
H	-0.686290	2.758868	0.289864	1
H	1.778790	-0.429392	0.793494	1
H	1.557570	1.065868	-1.884366	1
H	3.097310	0.570678	-0.973006	1
Es	-0.565119	0.444709	1.816263	99
Es	1.707734	0.913456	-1.609961	99
Es	-0.774053	-1.427362	-0.037668	99
Es	0.334259	-2.314420	-1.333858	99
Es	-1.548490	0.738083	1.162096	99
Es	1.607015	-0.282753	0.528040	99
Es	-0.238156	0.019981	-0.043543	99
Es	-0.400946	-2.219860	-1.284535	99
Es	-0.642261	-1.867733	-1.902569	99
Es	-0.589033	1.520499	1.190848	99
Es	0.529091	0.026389	-0.043134	99
Es	2.013044	0.587295	-1.022001	99
Es	2.750790	0.580171	-0.996304	99
Es	-1.526731	-1.406278	0.012335	99
Es	1.651449	0.604583	-0.388270	99
Es	-0.401756	2.251233	1.216455	99
Es	-0.752433	2.589233	1.788215	99
Es	-0.796475	0.779909	1.178411	99
Es	-0.493607	0.361931	-0.667228	99
Es	0.327436	2.329038	1.318323	99
Es	-0.595995	2.595754	0.575734	99
Es	-0.577648	-1.820535	-0.669098	99
Es	-0.722403	-2.898403	-1.254643	99
Es	1.274531	0.037092	-0.050569	99
Es	-0.498726	0.401476	0.566475	99
Es	1.656776	0.032332	-0.708049	99
Es	-0.517327	-1.791430	0.572340	99
Es	-0.488489	-0.703020	-0.042501	99
49
Properties=species:S:1:pos:R:3:Z:I:1 energy=-273.3047931025636 field_type=dipole dipole="0.000000 0.000000 0.000000" charge=0
C	-0.400930	-2.219872	-1.284556	6
C	-0.774080	-1.427372	-0.037636	6
C	-0.238190	0.019998	-0.043586	6
C	-0.796500	0.779888	1.178434	6
C	-0.401740	2.251258	1.216454	6
C	1.274610	0.037138	-0.050656	6
C	2.012980	0.587248	-1.021916	6
H	-0.863390	-3.211462	-1.249556	1
H	0.680820	-2.362202	-1.363916	1
H	-0.752060	-1.714562	-2.189536	1
H	-0.410280	-1.963302	0.848394	1
H	-1.868770	-1.405782	0.036354	1
H	-0.615890	0.515968	-0.948286	1
H	-0.468760	0.297888	2.108474	1
H	-1.892490	0.721898	1.164524	1
H	0.675250	2.374438	1.363774	1
H	-0.907960	2.752808	2.047244	1
H	-0.686290	2.758868	0.289864	1
H	1.778790	-0.429392	0.793494	1
H	1.557570	1.065868	-1.884366	1
H	3.097310	0.570678	-0.973006	1
Es	2.013042	0.587297	-1.022002	99
Es	1.707621	0.913193	-1.609736	99
Es	-0.774057	-1.427365	-0.037665	99
Es	0.326425	2.328546	1.318663	99
Es	1.274533	0.037088	-0.050569	99
Es	-0.493674	0.361973	-0.667115	99
Es	-0.400946	-2.219860	-1.284535	99
Es	-0.796474	0.779908	1.178410	99
Es	-0.401751	2.251239	1.216458	99
Es	0.528971	0.026128	-0.042548	99
Es	-0.565364	0.444531	1.816465	99
Es	-0.642009	-1.867483	-1.902780	99
Es	1.607176	-0.282362	0.527395	99
Es	-0.588326	1.521315	1.190699	99
Es	1.656850	0.032176	-0.708171	99
Es	-0.723314	-2.898711	-1.253013	99
Es	-0.576928	-1.820623	-0.670180	99
Es	-1.526836	-1.406407	0.012411	99
Es	-0.753307	2.588159	1.789211	99
Es	-0.498175	0.401838	0.565795	99
Es	-0.488270	-0.702922	-0.042879	99
Es	0.333910	-2.314291	-1.333541	99
Es	2.750886	0.580297	-0.996641	99
Es	-0.238154	0.019974	-0.043546	99
Es	-0.595204	2.595953	0.575017	99
Es	-1.548272	0.738254	1.161899	99
Es	1.651399	0.604906	-0.388110	99
Es	-0.517273	-1.791380	0.572214	99
49
Properties=species:S:1:pos:R:3:Z:I:1 energy=-273.3047931025636 field_type=dipole dipole="0.000000 0.000000 0.000000" charge=0
C	-0.400930	-2.219872	-1.284556	6
C	-0.774080	-1.427372	-0.037636	6
C	-0.238190	0.019998	-0.043586	6
C	-0.796500	0.779888	1.178434	6
C	-0.401740	2.251258	1.216454	6
C	1.274610	0.037138	-0.050656	6
C	2.012980	0.587248	-1.021916	6
H	-0.863390	-3.211462	-1.249556	1
H	0.680820	-2.362202	-1.363916	1
H	-0.752060	-1.714562	-2.189536	1
H	-0.410280	-1.963302	0.848394	1
H	-1.868770	-1.405782	0.036354	1
H	-0.615890	0.515968	-0.948286	1
H	-0.468760	0.297888	2.108474	1
H	-1.892490	0.721898	1.164524	1
H	0.675250	2.374438	1.363774	1
H	-0.907960	2.752808	2.047244	1
H	-0.686290	2.758868	0.289864	1
H	1.778790	-0.429392	0.793494	1
H	1.557570	1.065868	-1.884366	1
H	3.097310	0.570678	-0.973006	1
Es	-1.548102	0.738351	1.161748	99
Es	-1.526885	-1.406390	0.012582	99
Es	-0.593759	2.596453	0.574302	99
Es	-0.487720	-0.702712	-0.043488	99
Es	2.013044	0.587296	-1.021999	99
Es	0.325008	2.327778	1.319234	99
Es	-0.724506	-2.898764	-1.250948	99
Es	-0.565582	0.444512	1.816646	99
Es	-0.641762	-1.867277	-1.902899	99
Es	-0.774056	-1.427362	-0.037664	99
Es	-0.576245	-1.821029	-0.671709	99
Es	-0.497857	0.402150	0.565439	99
Es	-0.238154	0.019977	-0.043546	99
Es	1.656936	0.031899	-0.708344	99
Es	2.750958	0.580429	-0.996817	99
Es	1.274530	0.037089	-0.050572	99
Es	1.707646	0.913000	-1.609543	99
Es	-0.587546	1.522634	1.190041	99
Es	-0.754440	2.586656	1.790305	99
Es	-0.493568	0.361877	-0.667172	99
Es	-0.401756	2.251234	1.216454	99
Es	1.651313	0.605193	-0.387992	99
Es	0.333700	-2.314208	-1.333240	99
Es	0.528776	0.025789	-0.041963	99
Es	-0.517296	-1.791318	0.572073	99
Es	1.607220	-0.281933	0.526799	99
Es	-0.796472	0.779905	1.178411	99
Es	-0.400947	-2.219857	-1.284530	99
49
Properties=species:S:1:pos:R:3:Z:I:1 energy=-273.3047931025636 field_type=dipole dipole="0.000000 0.000000 0.000000" charge=0
C	-0.400930	-2.219872	-1.284556	6
C	-0.774080	-1.427372	-0.037636	6
C	-0.238190	0.019998	-0.043586	6
C	-0.796500	0.779888	1.178434	6
C	-0.401740	2.251258	1.216454	6
C	1.274610	0.037138	-0.050656	6
C	2.012980	0.587248	-1.021916	6
H	-0.863390	-3.211462	-1.249556	1
H	0.680820	-2.362202	-1.363916	1
H	-0.752060	-1.714562	-2.189536	1
H	-0.410280	-1.963302	0.848394	1
H	-1.868770	-1.405782	0.036354	1
H	-0.615890	0.515968	-0.948286	1
H	-0.468760	0.297888	2.108474	1
H	-1.892490	0.721898	1.164524	1
H	0.675250	2.374438	1.363774	1
H	-0.907960	2.752808	2.047244	1
H	-0.686290	2.758868	0.289864	1
H	1.778790	-0.429392	0.793494	1
H	1.557570	1.065868	-1.884366	1
H	3.097310	0.570678	-0.973006	1
Es	-0.586515	1.524512	1.189465	99
Es	1.656795	0.031609	-0.708356	99
Es	-0.238154	0.019977	-0.043546	99
Es	-0.565865	0.444394	1.816874	99
Es	1.607282	-0.281557	0.526084	99
Es	1.651478	0.605548	-0.387969	99
Es	-0.725579	-2.898597	-1.249047	99
Es	2.013044	0.587295	-1.022000	99
Es	1.274532	0.037090	-0.050571	99
Es	1.707648	0.912869	-1.609311	99
Es	-0.755735	2.584631	1.791416	99
Es	-0.641294	-1.867111	-1.903158	99
Es	-0.493494	0.361991	-0.667107	99
Es	0.528608	0.025455	-0.041278	99
Es	-0.400946	-2.219859	-1.284532	99
Es	-0.401756	2.251233	1.216454	99
Es	-0.487478	-0.702652	-0.044013	99
Es	-0.774056	-1.427363	-0.037664	99
Es	-1.527139	-1.406668	0.012985	99
Es	-0.517139	-1.791037	0.571624	99
Es	2.751007	0.580570	-0.997022	99
Es	0.333298	-2.314290	-1.332892	99
Es	-0.592356	2.596812	0.573612	99
Es	0.323503	2.327183	1.319697	99
Es	-1.547737	0.738462	1.161613	99
Es	-0.497487	0.402353	0.564878	99
Es	-0.796475	0.779903	1.178411	99
Es	-0.575512	-1.821382	-0.673040	99
49
Properties=species:S:1:pos:R:3:Z:I:1 energy=-273.3047931025636 field_type=dipole dipole="0.000000 0.000000 0.000000" charge=0
C	-0.400930	-2.219872	-1.284556	6
C	-0.774080	-1.427372	-0.037636	6
C	-0.238190	0.019998	-0.043586	6
C	-0.796500	0.779888	1.178434	6
C	-0.401740	2.251258	1.216454	6
C	1.274610	0.037138	-0.050656	6
C	2.012980	0.587248	-1.021916	6
H	-0.863390	-3.211462	-1.249556	1
H	0.680820	-2.362202	-1.363916	1
H	-0.752060	-1.714562	-2.189536	1
H	-0.410280	-1.963302	0.848394	1
H	-1.868770	-1.405782	0.036354	1
H	-0.615890	0.515968	-0.948286	1
H	-0.468760	0.297888	2.108474	1
H	-1.892490	0.721898	1.164524	1
H	0.675250	2.374438	1.363774	1
H	-0.907960	2.752808	2.047244	1
H	-0.686290	2.758868	0.289864	1
H	1.778790	-0.429392	0.793494	1
H	1.557570	1.065868	-1.884366	1
H	3.097310	0.570678	-0.973006	1
Es	0.528315	0.024822	-0.040435	99
Es	-0.400946	-2.219860	-1.284536	99
Es	2.013044	0.587297	-1.021999	99
Es	1.274531	0.037090	-0.050571	99
Es	1.651060	0.605774	-0.387602	99
Es	-0.774056	-1.427363	-0.037664	99
Es	-1.527314	-1.406897	0.013362	99
Es	0.321849	2.326634	1.320187	99
Es	-0.496080	0.403748	0.563455	99
Es	-0.756576	2.583141	1.792067	99
Es	-0.640810	-1.866952	-1.903426	99
Es	-0.488560	-0.703026	-0.042462	99
Es	1.707619	0.912607	-1.609027	99
Es	-0.517025	-1.790878	0.571191	99
Es	1.607347	-0.281016	0.525269	99
Es	-0.493240	0.361897	-0.667241	99
Es	-0.573652	-1.821955	-0.676752	99
Es	0.332869	-2.314374	-1.332540	99
Es	1.657198	0.031386	-0.708767	99
Es	-0.796476	0.779907	1.178412	99
Es	-0.565991	0.444375	1.816885	99
Es	-0.238153	0.019977	-0.043546	99
Es	-1.547631	0.738419	1.161569	99
Es	-0.727132	-2.897972	-1.245960	99
Es	-0.401756	2.251234	1.216454	99
Es	-0.586287	1.525297	1.189578	99
Es	-0.590753	2.597271	0.573020	99
Es	2.751082	0.580790	-0.997313	99
49
Properties=species:S:1:pos:R:3:Z:I:1 energy=-273.3047931025636 field_type=dipole dipole="0.000000 0.000000 0.000000" charge=0
C	-0.400930	-2.219872	-1.284556	6
C	-0.774080	-1.427372	-0.037636	6
C	-0.238190	0.019998	-0.043586	6
C	-0.796500	0.779888	1.178434	6
C	-0.401740	2.251258	1.216454	6
C	1.274610	0.037138	-0.050656	6
C	2.012980	0.587248	-1.021916	6
H	-0.863390	-3.211462	-1.249556	1
H	0.680820	-2.362202	-1.363916	1
H	-0.752060	-1.714562	-2.189536	1
H	-0.410280	-1.963302	0.848394	1
H	-1.868770	-1.405782	0.036354	1
H	-0.615890	0.515968	-0.948286	1
H	-0.468760	0.297888	2.108474	1
H	-1.892490	0.721898	1.164524	1
H	0.675250	2.374438	1.363774	1
H	-0.907960	2.752808	2.047244	1
H	-0.686290	2.758868	0.289864	1
H	1.778790	-0.429392	0.793494	1
H	1.557570	1.065868	-1.884366	1
H	3.097310	0.570678	-0.973006	1
Es	1.656856	0.031062	-0.708582	99
Es	-0.774057	-1.427363	-0.037664	99
Es	1.651418	0.606233	-0.387725	99
Es	-0.796476	0.779907	1.178412	99
Es	-0.487394	-0.702707	-0.044122	99
Es	-0.573703	-1.822743	-0.677165	99
Es	-0.238151	0.019977	-0.043546	99
Es	-0.493100	0.361921	-0.667251	99
Es	-0.640432	-1.866805	-1.903561	99
Es	-0.400945	-2.219859	-1.284536	99
Es	2.013045	0.587295	-1.022000	99
Es	-0.585564	1.526911	1.189365	99
Es	-1.547158	0.738639	1.161276	99
Es	-0.727909	-2.897592	-1.244380	99
Es	-0.496099	0.403971	0.563382	99
Es	1.607389	-0.280564	0.524415	99
Es	0.528111	0.024395	-0.039571	99
Es	1.707550	0.912387	-1.608753	99
Es	0.320010	2.326077	1.320612	99
Es	-0.566472	0.444146	1.817180	99
Es	-0.757608	2.581187	1.792779	99
Es	1.274531	0.037091	-0.050572	99
Es	-0.401756	2.251228	1.216453	99
Es	-0.516918	-1.790630	0.570774	99
Es	2.751183	0.580961	-0.997601	99
Es	0.332558	-2.314359	-1.332284	99
Es	-1.527490	-1.407092	0.013779	99
Es	-0.588938	2.597697	0.572491	99
49
Properties=species:S:1:pos:R:3:Z:I:1 energy=-273.3047931025636 field_type=dipole dipole="0.000000 0.000000 0.000000" charge=0
C	-0.400930	-2.219872	-1.284556	6
C	-0.774080	-1.427372	-0.037636	6
C	-0.238190	0.019998	-0.043586	6
C	-0.796500	0.779888	1.178434	6
C	-0.401740	2.251258	1.216454	6
C	1.274610	0.037138	-0.050656	6
C	2.012980	0.587248	-1.021916	6
H	-0.863390	-3.211462	-1.249556	1
H	0.680820	-2.362202	-1.363916	1
H	-0.752060	-1.714562	-2.189536	1
H	-0.410280	-1.963302	0.848394	1
H	-1.868770	-1.405782	0.036354	1
H	-0.615890	0.515968	-0.948286	1
H	-0.468760	0.297888	2.108474	1
H	-1.892490	0.721898	1.164524	1
H	0.675250	2.374438	1.363774	1
H	-0.907960	2.752808	2.047244	1
H	-0.686290	2.758868	0.289864	1
H	1.778790	-0.429392	0.793494	1
H	1.557570	1.065868	-1.884366	1
H	3.097310	0.570678	-0.973006	1
Es	-0.774057	-1.427363	-0.037665	99
Es	0.332008	-2.314521	-1.331915	99
Es	-0.584198	1.529815	1.188511	99
Es	1.607396	-0.280047	0.523587	99
Es	-0.566765	0.444071	1.817375	99
Es	2.751336	0.581334	-0.997782	99
Es	-0.238153	0.019976	-0.043547	99
Es	-0.728658	-2.897071	-1.242778	99
Es	2.013044	0.587288	-1.022002	99
Es	1.707462	0.912247	-1.608396	99
Es	0.317899	2.325458	1.321077	99
Es	-0.400946	-2.219862	-1.284536	99
Es	-0.796476	0.779907	1.178413	99
Es	-0.493098	0.361890	-0.667055	99
Es	-0.496318	0.403597	0.563653	99
Es	-0.516796	-1.790428	0.570264	99
Es	1.650909	0.606060	-0.387454	99
Es	-0.758756	2.578566	1.793427	99
Es	1.657361	0.030945	-0.709040	99
Es	1.274532	0.037089	-0.050570	99
Es	-0.586822	2.598284	0.572009	99
Es	0.528103	0.024033	-0.038908	99
Es	-1.546886	0.738761	1.161089	99
Es	-0.573126	-1.823270	-0.678422	99
Es	-0.401756	2.251234	1.216455	99
Es	-0.487160	-0.702632	-0.044479	99
Es	-1.527742	-1.407345	0.014186	99
Es	-0.639860	-1.866644	-1.903891	99
49
Properties=species:S:1:pos:R:3:Z:I:1 energy=-273.3047931025636 field_type=dipole dipole="0.000000 0.000000 0.000000" charge=0
C	-0.400930	-2.219872	-1.284556	6
C	-0.774080	-1.427372	-0.037636	6
C	-0.238190	0.019998	-0.043586	6
C	-0.796500	0.779888	1.178434	6
C	-0.401740	2.251258	1.216454	6
C	1.274610	0.037138	-0.050656	6
C	2.012980	0.587248	-1.021916	6
H	-0.863390	-3.211462	-1.249556	1
H	0.680820	-2.362202	-1.363916	1
H	-0.752060	-1.714562	-2.189536	1
H	-0.410280	-1.963302	0.848394	1
H	-1.868770	-1.405782	0.036354	1
H	-0.615890	0.515968	-0.948286	1
H	-0.468760	0.297888	2.108474	1
H	-1.892490	0.721898	1.164524	1
H	0.675250	2.374438	1.363774	1
H	-0.907960	2.752808	2.047244	1
H	-0.686290	2.758868	0.289864	1
H	1.778790	-0.429392	0.793494	1
H	1.557570	1.065868	-1.884366	1
H	3.097310	0.570678	-0.973006	1
Es	-0.774055	-1.427363	-0.037664	99
Es	0.331651	-2.314504	-1.331583	99
Es	1.274530	0.037089	-0.050573	99
Es	-0.729229	-2.896649	-1.241452	99
Es	1.707320	0.912119	-1.608045	99
Es	-0.401755	2.251232	1.216453	99
Es	-0.488235	-0.702976	-0.043136	99
Es	-0.584966	2.598746	0.571663	99
Es	-0.516565	-1.790152	0.569744	99
Es	-0.238154	0.019978	-0.043548	99
Es	2.013045	0.587296	-1.021999	99
Es	-0.572260	-1.823888	-0.680517	99
Es	-0.796476	0.779907	1.178412	99
Es	2.751440	0.581405	-0.998203	99
Es	-0.400945	-2.219858	-1.284535	99
Es	-0.639469	-1.866433	-1.904078	99
Es	0.315904	2.325145	1.321400	99
Es	-0.583044	1.532429	1.188132	99
Es	-1.527902	-1.407684	0.014749	99
Es	-0.759848	2.575735	1.793907	99
Es	-0.493024	0.361898	-0.667010	99
Es	-0.495548	0.403999	0.562847	99
Es	1.651415	0.606443	-0.387545	99
Es	-1.546639	0.738820	1.160902	99
Es	0.527974	0.023513	-0.038034	99
Es	1.607434	-0.279597	0.522608	99
Es	-0.567035	0.443987	1.817527	99
Es	1.656915	0.030733	-0.708816	99
49
Properties=species:S:1:pos:R:3:Z:I:1 energy=-273.3047931025636 field_type=dipole dipole="0.000000 0.000000 0.000000" charge=0
C	-0.400930	-2.219872	-1.284556	6
C	-0.774080	-1.427372	-0.037636	6
C	-0.238190	0.019998	-0.043586	6
C	-0.796500	0.779888	1.178434	6
C	-0.401740	2.251258	1.216454	6
C	1.274610	0.037138	-0.050656	6
C	2.012980	0.587248	-1.021916	6
H	-0.863390	-3.211462	-1.249556	1
H	0.680820	-2.362202	-1.363916	1
H	-0.752060	-1.714562	-2.189536	1
H	-0.410280	-1.963302	0.848394	1
H	-1.868770	-1.405782	0.036354	1
H	-0.615890	0.515968	-0.948286	1
H	-0.468760	0.297888	2.108474	1
H	-1.892490	0.721898	1.164524	1
H	0.675250	2.374438	1.363774	1
H	-0.907960	2.752808	2.047244	1
H	-0.686290	2.758868	0.289864	1
H	1.778790	-0.429392	0.793494	1
H	1.557570	1.065868	-1.884366	1
H	3.097310	0.570678	-0.973006	1
Es	-0.495987	0.403945	0.563282	99
Es	-0.487150	-0.702767	-0.044658	99
Es	-0.729917	-2.895882	-1.239634	99
Es	-0.760348	2.574567	1.794101	99
Es	0.527879	0.023084	-0.037332	99
Es	-0.400944	-2.219858	-1.284536	99
Es	1.607327	-0.279025	0.521920	99
Es	1.274531	0.037090	-0.050572	99
Es	-0.774060	-1.427364	-0.037666	99
Es	-0.238153	0.019976	-0.043547	99
Es	-0.492935	0.361892	-0.667036	99
Es	-0.583436	2.598913	0.571401	99
Es	-0.639012	-1.866376	-1.904418	99
Es	0.331170	-2.314647	-1.331328	99
Es	0.314409	2.324778	1.321582	99
Es	1.657655	0.030728	-0.709239	99
Es	-0.572156	-1.824707	-0.681270	99
Es	-0.401753	2.251231	1.216453	99
Es	-0.516423	-1.789885	0.569308	99
Es	-0.567248	0.443790	1.817637	99
Es	-0.582592	1.533742	1.188125	99
Es	1.707243	0.911869	-1.607756	99
Es	2.751533	0.581752	-0.998430	99
Es	-1.528069	-1.407852	0.015226	99
Es	2.013044	0.587296	-1.021999	99
Es	-0.796476	0.779908	1.178414	99
Es	1.650724	0.606249	-0.387212	99
Es	-1.546377	0.738924	1.160788	99
