42
Properties=species:S:1:pos:R:3:Z:I:1 energy=-343.8101813059484 field_type=dipole dipole="0.000000 0.000000 0.000000" charge=0
O	-0.567542	-1.821939	-1.491068	8
C	-0.396742	-1.420389	-0.140148	6
C	0.450438	-0.162149	-0.122338	6
C	-0.202112	1.114971	-0.729208	6
C	0.312938	1.864301	0.515472	6
O	0.462958	3.033001	0.799082	8
C	0.575228	0.540961	1.260002	6
H	-1.081292	-2.648489	-1.484688	1
H	0.100128	-2.228749	0.405072	1
H	-1.383982	-1.250099	0.301092	1
H	1.440738	-0.355839	-0.560698	1
H	-1.293962	1.106811	-0.795918	1
H	0.230008	1.453011	-1.673448	1
H	1.559028	0.471311	1.728802	1
H	-0.205832	0.303281	1.987992	1
Es	0.029228	1.556920	-0.151307	99
Es	-0.845838	-2.266678	-1.467108	99
Es	0.023065	-0.790300	-0.127623	99
Es	0.450392	-0.162097	-0.122290	99
Es	0.526526	0.119659	0.611068	99
Es	0.462920	3.032694	0.799010	99
Es	0.579623	3.068627	1.081019	99
Es	1.236101	0.496974	1.576018	99
Es	0.465478	1.230129	0.967193	99
Es	0.575210	0.540978	1.259955	99
Es	-0.396758	-1.420441	-0.140371	99
Es	0.088951	1.347027	-1.358769	99
Es	-0.287808	-1.893122	-1.592773	99
Es	0.041010	0.388169	1.732841	99
Es	-0.054370	-1.975224	0.245379	99
Es	0.096694	0.437479	-0.489867	99
Es	-0.517444	-1.690891	-0.971619	99
Es	0.175348	2.624367	0.793108	99
Es	0.378135	3.216269	0.568472	99
Es	-1.076706	-1.295353	0.174074	99
Es	-0.743646	-1.606918	-1.623090	99
Es	1.122068	-0.289369	-0.416776	99
Es	-0.202090	1.114967	-0.729149	99
Es	-0.567656	-1.822128	-1.490795	99
Es	0.312938	1.864222	0.515458	99
Es	0.646128	2.600594	0.601140	99
Es	-0.929114	1.108386	-0.751017	99
42
Properties=species:S:1:pos:R:3:Z:I:1 energy=-343.8101813059484 field_type=dipole dipole="0.000000 0.000000 0.000000" charge=0
O	-0.567542	-1.821939	-1.491068	8
C	-0.396742	-1.420389	-0.140148	6
C	0.450438	-0.162149	-0.122338	6
C	-0.202112	1.114971	-0.729208	6
C	0.312938	1.864301	0.515472	6
O	0.462958	3.033001	0.799082	8
C	0.575228	0.540961	1.260002	6
H	-1.081292	-2.648489	-1.484688	1
H	0.100128	-2.228749	0.405072	1
H	-1.383982	-1.250099	0.301092	1
H	1.440738	-0.355839	-0.560698	1
H	-1.293962	1.106811	-0.795918	1
H	0.230008	1.453011	-1.673448	1
H	1.559028	0.471311	1.728802	1
H	-0.205832	0.303281	1.987992	1
Es	-0.293107	-1.888466	-1.589684	99
Es	0.465073	1.231970	0.967484	99
Es	0.042928	0.388157	1.732823	99
Es	-0.202088	1.114966	-0.729149	99
Es	0.022949	-0.790619	-0.127464	99
Es	0.097267	0.436242	-0.490351	99
Es	-0.927259	1.108628	-0.751787	99
Es	1.121039	-0.288324	-0.416081	99
Es	0.450392	-0.162098	-0.122291	99
Es	-0.516742	-1.687739	-0.971826	99
Es	0.579199	3.067183	1.080265	99
Es	0.462954	3.032591	0.799097	99
Es	0.646640	2.601304	0.601552	99
Es	-0.567671	-1.822066	-1.490833	99
Es	-0.741123	-1.608914	-1.624027	99
Es	-0.396760	-1.420441	-0.140374	99
Es	1.234215	0.496817	1.575816	99
Es	0.527265	0.118435	0.610371	99
Es	0.028973	1.558471	-0.150378	99
Es	-0.843997	-2.272821	-1.468761	99
Es	0.379192	3.217817	0.568953	99
Es	0.312942	1.864219	0.515457	99
Es	0.174598	2.623815	0.792800	99
Es	-1.075763	-1.296185	0.173325	99
Es	0.575209	0.540977	1.259956	99
Es	-0.055521	-1.975568	0.245487	99
Es	0.087581	1.346593	-1.358200	99
42
Properties=species:S:1:pos:R:3:Z:I:1 energy=-343.8101813059484 field_type=dipole dipole="0.000000 0.000000 0.000000" charge=0
O	-0.567542	-1.821939	-1.491068	8
C	-0.396742	-1.420389	-0.140148	6
C	0.450438	-0.162149	-0.122338	6
C	-0.202112	1.114971	-0.729208	6
C	0.312938	1.864301	0.515472	6
O	0.462958	3.033001	0.799082	8
C	0.575228	0.540961	1.260002	6
H	-1.081292	-2.648489	-1.484688	1
H	0.100128	-2.228749	0.405072	1
H	-1.383982	-1.250099	0.301092	1
H	1.440738	-0.355839	-0.560698	1
H	-1.293962	1.106811	-0.795918	1
H	0.230008	1.453011	-1.673448	1
H	1.559028	0.471311	1.728802	1
H	-0.205832	0.303281	1.987992	1
Es	-0.843806	-2.275807	-1.470445	99
Es	0.022640	-0.790819	-0.127490	99
Es	0.172282	2.624148	0.791838	99
Es	-0.734115	-1.608649	-1.630834	99
Es	0.097637	0.435194	-0.490661	99
Es	0.527945	0.117680	0.609949	99
Es	0.575209	0.540977	1.259954	99
Es	0.044274	0.388093	1.732937	99
Es	-1.075051	-1.296773	0.172795	99
Es	1.120141	-0.287589	-0.415686	99
Es	0.381681	3.221515	0.571746	99
Es	0.462931	3.032663	0.799051	99
Es	-0.056185	-1.975698	0.245605	99
Es	-0.520163	-1.683971	-0.972297	99
Es	-0.396758	-1.420442	-0.140373	99
Es	0.450392	-0.162099	-0.122291	99
Es	-0.567625	-1.822055	-1.490895	99
Es	0.646907	2.601812	0.600622	99
Es	1.232672	0.496735	1.575396	99
Es	0.312939	1.864218	0.515458	99
Es	0.578866	3.062698	1.079363	99
Es	-0.925884	1.108913	-0.752533	99
Es	0.465033	1.233225	0.967748	99
Es	0.028881	1.559584	-0.149719	99
Es	0.086707	1.346205	-1.357463	99
Es	-0.297077	-1.889783	-1.580448	99
Es	-0.202088	1.114965	-0.729146	99
42
Properties=species:S:1:pos:R:3:Z:I:1 energy=-343.8101813059484 field_type=dipole dipole="0.000000 0.000000 0.000000" charge=0
O	-0.567542	-1.821939	-1.491068	8
C	-0.396742	-1.420389	-0.140148	6
C	0.450438	-0.162149	-0.122338	6
C	-0.202112	1.114971	-0.729208	6
C	0.312938	1.864301	0.515472	6
O	0.462958	3.033001	0.799082	8
C	0.575228	0.540961	1.260002	6
H	-1.081292	-2.648489	-1.484688	1
H	0.100128	-2.228749	0.405072	1
H	-1.383982	-1.250099	0.301092	1
H	1.440738	-0.355839	-0.560698	1
H	-1.293962	1.106811	-0.795918	1
H	0.230008	1.453011	-1.673448	1
H	1.559028	0.471311	1.728802	1
H	-0.205832	0.303281	1.987992	1
Es	-0.396759	-1.420441	-0.140366	99
Es	-0.056653	-1.975805	0.245580	99
Es	0.085858	1.345831	-1.356810	99
Es	0.381489	3.220490	0.571253	99
Es	1.119560	-0.286821	-0.415337	99
Es	0.028952	1.560456	-0.149479	99
Es	0.097607	0.434251	-0.490891	99
Es	0.578983	3.064026	1.078522	99
Es	1.231259	0.496546	1.575127	99
Es	0.575208	0.540976	1.259953	99
Es	0.647449	2.601577	0.600916	99
Es	-0.840823	-2.279501	-1.471099	99
Es	-0.298471	-1.884188	-1.583026	99
Es	-1.074529	-1.297268	0.172435	99
Es	-0.735761	-1.612784	-1.627165	99
Es	0.022744	-0.791093	-0.127474	99
Es	-0.202087	1.114964	-0.729144	99
Es	0.312929	1.864220	0.515462	99
Es	0.465287	1.234261	0.967872	99
Es	-0.520157	-1.681747	-0.972707	99
Es	0.528183	0.116770	0.609763	99
Es	-0.924789	1.109291	-0.752932	99
Es	0.045342	0.388335	1.732901	99
Es	-0.567667	-1.822128	-1.490771	99
Es	0.462914	3.032710	0.799011	99
Es	0.450392	-0.162099	-0.122291	99
Es	0.171924	2.624112	0.792880	99
42
Properties=species:S:1:pos:R:3:Z:I:1 energy=-343.8101813059484 field_type=dipole dipole="0.000000 0.000000 0.000000" charge=0
O	-0.567542	-1.821939	-1.491068	8
C	-0.396742	-1.420389	-0.140148	6
C	0.450438	-0.162149	-0.122338	6
C	-0.202112	1.114971	-0.729208	6
C	0.312938	1.864301	0.515472	6
O	0.462958	3.033001	0.799082	8
C	0.575228	0.540961	1.260002	6
H	-1.081292	-2.648489	-1.484688	1
H	0.100128	-2.228749	0.405072	1
H	-1.383982	-1.250099	0.301092	1
H	1.440738	-0.355839	-0.560698	1
H	-1.293962	1.106811	-0.795918	1
H	0.230008	1.453011	-1.673448	1
H	1.559028	0.471311	1.728802	1
H	-0.205832	0.303281	1.987992	1
Es	0.462932	3.032622	0.799017	99
Es	0.046186	0.388475	1.732877	99
Es	0.097998	0.433655	-0.491094	99
Es	-0.924241	1.109475	-0.753512	99
Es	-1.074123	-1.297531	0.172170	99
Es	0.383729	3.226522	0.574612	99
Es	0.022699	-0.791265	-0.127507	99
Es	-0.396758	-1.420441	-0.140370	99
Es	0.647071	2.601640	0.599719	99
Es	0.312940	1.864219	0.515457	99
Es	0.085324	1.345416	-1.355938	99
Es	-0.567606	-1.822039	-1.490915	99
Es	0.578387	3.057277	1.077423	99
Es	0.575209	0.540976	1.259956	99
Es	0.170732	2.624900	0.791806	99
Es	0.528360	0.116227	0.609424	99
Es	-0.057192	-1.975831	0.245547	99
Es	-0.839038	-2.281579	-1.472419	99
Es	0.465449	1.234978	0.968132	99
Es	-0.522641	-1.679885	-0.973025	99
Es	1.230133	0.496462	1.574845	99
Es	1.119154	-0.286399	-0.415034	99
Es	-0.733675	-1.613934	-1.628732	99
Es	-0.202086	1.114965	-0.729146	99
Es	0.450391	-0.162099	-0.122291	99
Es	-0.299994	-1.883050	-1.579552	99
Es	0.029046	1.561186	-0.149269	99
42
Properties=species:S:1:pos:R:3:Z:I:1 energy=-343.8101813059484 field_type=dipole dipole="0.000000 0.000000 0.000000" charge=0
O	-0.567542	-1.821939	-1.491068	8
C	-0.396742	-1.420389	-0.140148	6
C	0.450438	-0.162149	-0.122338	6
C	-0.202112	1.114971	-0.729208	6
C	0.312938	1.864301	0.515472	6
O	0.462958	3.033001	0.799082	8
C	0.575228	0.540961	1.260002	6
H	-1.081292	-2.648489	-1.484688	1
H	0.100128	-2.228749	0.405072	1
H	-1.383982	-1.250099	0.301092	1
H	1.440738	-0.355839	-0.560698	1
H	-1.293962	1.106811	-0.795918	1
H	0.230008	1.453011	-1.673448	1
H	1.559028	0.471311	1.728802	1
H	-0.205832	0.303281	1.987992	1
Es	-0.567650	-1.822106	-1.490795	99
Es	0.097956	0.433015	-0.491308	99
Es	0.450391	-0.162099	-0.122291	99
Es	-0.202085	1.114965	-0.729145	99
Es	-0.523819	-1.677142	-0.973228	99
Es	-0.301075	-1.884320	-1.577468	99
Es	-0.840770	-2.281490	-1.472900	99
Es	0.462926	3.032634	0.799029	99
Es	0.575208	0.540977	1.259955	99
Es	0.578495	3.052352	1.075767	99
Es	0.170331	2.624498	0.792162	99
Es	-0.923547	1.109772	-0.753919	99
Es	0.029143	1.561848	-0.149164	99
Es	1.118853	-0.286067	-0.414844	99
Es	-0.729669	-1.615555	-1.630170	99
Es	0.312938	1.864220	0.515458	99
Es	0.647189	2.602433	0.598255	99
Es	0.384019	3.231074	0.577360	99
Es	-0.396757	-1.420443	-0.140371	99
Es	0.022585	-0.791279	-0.127497	99
Es	0.084783	1.345023	-1.355235	99
Es	-1.073799	-1.297878	0.171981	99
Es	-0.057428	-1.975772	0.245519	99
Es	0.465602	1.235583	0.968312	99
Es	1.229177	0.496403	1.574553	99
Es	0.047001	0.388675	1.732852	99
Es	0.528386	0.115618	0.609313	99
42
Properties=species:S:1:pos:R:3:Z:I:1 energy=-343.8101813059484 field_type=dipole dipole="0.000000 0.000000 0.000000" charge=0
O	-0.567542	-1.821939	-1.491068	8
C	-0.396742	-1.420389	-0.140148	6
C	0.450438	-0.162149	-0.122338	6
C	-0.202112	1.114971	-0.729208	6
C	0.312938	1.864301	0.515472	6
O	0.462958	3.033001	0.799082	8
C	0.575228	0.540961	1.260002	6
H	-1.081292	-2.648489	-1.484688	1
H	0.100128	-2.228749	0.405072	1
H	-1.383982	-1.250099	0.301092	1
H	1.440738	-0.355839	-0.560698	1
H	-1.293962	1.106811	-0.795918	1
H	0.230008	1.453011	-1.673448	1
H	1.559028	0.471311	1.728802	1
H	-0.205832	0.303281	1.987992	1
Es	-0.838905	-2.283191	-1.473483	99
Es	0.168974	2.624810	0.790089	99
Es	-0.524086	-1.674696	-0.973241	99
Es	0.575211	0.540976	1.259954	99
Es	-0.057751	-1.975763	0.245455	99
Es	-1.073595	-1.298028	0.171834	99
Es	0.084247	1.344620	-1.354659	99
Es	0.528610	0.115384	0.609241	99
Es	0.462929	3.032622	0.799038	99
Es	-0.396758	-1.420441	-0.140369	99
Es	0.465545	1.235828	0.968491	99
Es	0.387614	3.240062	0.581994	99
Es	-0.567691	-1.822120	-1.490753	99
Es	1.228613	0.496533	1.574567	99
Es	-0.202086	1.114965	-0.729146	99
Es	0.029426	1.562409	-0.149140	99
Es	0.450392	-0.162100	-0.122289	99
Es	0.575828	3.042622	1.073385	99
Es	0.312937	1.864221	0.515459	99
Es	0.022623	-0.791351	-0.127495	99
Es	0.647631	2.602887	0.598113	99
Es	0.047477	0.388861	1.732657	99
Es	0.098044	0.432380	-0.491399	99
Es	-0.729288	-1.618526	-1.629169	99
Es	-0.923137	1.109883	-0.754175	99
Es	1.118612	-0.285770	-0.414913	99
Es	-0.303032	-1.882139	-1.577864	99
42
Properties=species:S:1:pos:R:3:Z:I:1 energy=-343.8101813059484 field_type=dipole dipole="0.000000 0.000000 0.000000" charge=0
O	-0.567542	-1.821939	-1.491068	8
C	-0.396742	-1.420389	-0.140148	6
C	0.450438	-0.162149	-0.122338	6
C	-0.202112	1.114971	-0.729208	6
C	0.312938	1.864301	0.515472	6
O	0.462958	3.033001	0.799082	8
C	0.575228	0.540961	1.260002	6
H	-1.081292	-2.648489	-1.484688	1
H	0.100128	-2.228749	0.405072	1
H	-1.383982	-1.250099	0.301092	1
H	1.440738	-0.355839	-0.560698	1
H	-1.293962	1.106811	-0.795918	1
H	0.230008	1.453011	-1.673448	1
H	1.559028	0.471311	1.728802	1
H	-0.205832	0.303281	1.987992	1
Es	0.645369	2.603968	0.593827	99
Es	0.083925	1.344285	-1.354467	99
Es	-0.057874	-1.975448	0.245387	99
Es	0.029445	1.562860	-0.149067	99
Es	-0.396759	-1.420441	-0.140368	99
Es	0.528357	0.115414	0.609650	99
Es	0.167064	2.627053	0.785478	99
Es	0.047863	0.389387	1.732306	99
Es	-0.567684	-1.822093	-1.490780	99
Es	0.462867	3.032651	0.798876	99
Es	-0.923020	1.109502	-0.754381	99
Es	-0.729043	-1.621412	-1.626431	99
Es	0.098513	0.432165	-0.491611	99
Es	-1.073400	-1.298186	0.171902	99
Es	0.450391	-0.162099	-0.122291	99
Es	0.396295	3.263505	0.599116	99
Es	-0.202088	1.114965	-0.729147	99
Es	1.117995	-0.285584	-0.414893	99
Es	0.022694	-0.791410	-0.127809	99
Es	-0.522947	-1.673394	-0.972606	99
Es	-0.304753	-1.880421	-1.580058	99
Es	0.575208	0.540977	1.259954	99
Es	-0.838655	-2.283594	-1.474796	99
Es	1.228688	0.496427	1.574806	99
Es	0.465473	1.235867	0.968676	99
Es	0.571520	3.015778	1.065450	99
Es	0.312940	1.864219	0.515458	99
42
Properties=species:S:1:pos:R:3:Z:I:1 energy=-343.8101813059484 field_type=dipole dipole="0.000000 0.000000 0.000000" charge=0
O	-0.567542	-1.821939	-1.491068	8
C	-0.396742	-1.420389	-0.140148	6
C	0.450438	-0.162149	-0.122338	6
C	-0.202112	1.114971	-0.729208	6
C	0.312938	1.864301	0.515472	6
O	0.462958	3.033001	0.799082	8
C	0.575228	0.540961	1.260002	6
H	-1.081292	-2.648489	-1.484688	1
H	0.100128	-2.228749	0.405072	1
H	-1.383982	-1.250099	0.301092	1
H	1.440738	-0.355839	-0.560698	1
H	-1.293962	1.106811	-0.795918	1
H	0.230008	1.453011	-1.673448	1
H	1.559028	0.471311	1.728802	1
H	-0.205832	0.303281	1.987992	1
Es	-1.073101	-1.298337	0.171753	99
Es	0.029439	1.563104	-0.149074	99
Es	0.462899	3.032685	0.798967	99
Es	0.528376	0.115274	0.609836	99
Es	-0.202088	1.114966	-0.729147	99
Es	0.166091	2.628368	0.783668	99
Es	-0.396758	-1.420441	-0.140368	99
Es	0.400507	3.271909	0.606790	99
Es	0.569088	3.005880	1.061084	99
Es	-0.922733	1.109609	-0.754582	99
Es	1.117535	-0.285428	-0.414891	99
Es	1.228605	0.496444	1.574880	99
Es	-0.567673	-1.822093	-1.490798	99
Es	0.098441	0.431810	-0.491712	99
Es	0.312937	1.864219	0.515459	99
Es	0.575207	0.540977	1.259957	99
Es	0.450393	-0.162100	-0.122291	99
Es	-0.523065	-1.672587	-0.972525	99
Es	-0.728220	-1.622698	-1.625475	99
Es	-0.838977	-2.283637	-1.475468	99
Es	0.048244	0.389685	1.732107	99
Es	0.465385	1.235951	0.968773	99
Es	0.083802	1.344082	-1.354221	99
Es	-0.305187	-1.879967	-1.580465	99
Es	0.022727	-0.791409	-0.127779	99
Es	0.644612	2.604091	0.592304	99
Es	-0.058100	-1.975416	0.245400	99
42
Properties=species:S:1:pos:R:3:Z:I:1 energy=-343.8101813059484 field_type=dipole dipole="0.000000 0.000000 0.000000" charge=0
O	-0.567542	-1.821939	-1.491068	8
C	-0.396742	-1.420389	-0.140148	6
C	0.450438	-0.162149	-0.122338	6
C	-0.202112	1.114971	-0.729208	6
C	0.312938	1.864301	0.515472	6
O	0.462958	3.033001	0.799082	8
C	0.575228	0.540961	1.260002	6
H	-1.081292	-2.648489	-1.484688	1
H	0.100128	-2.228749	0.405072	1
H	-1.383982	-1.250099	0.301092	1
H	1.440738	-0.355839	-0.560698	1
H	-1.293962	1.106811	-0.795918	1
H	0.230008	1.453011	-1.673448	1
H	1.559028	0.471311	1.728802	1
H	-0.205832	0.303281	1.987992	1
Es	-0.396758	-1.420441	-0.140369	99
Es	0.083601	1.343849	-1.353960	99
Es	0.048460	0.389820	1.732033	99
Es	-0.567667	-1.822099	-1.490803	99
Es	0.462900	3.032653	0.798956	99
Es	-0.726851	-1.623154	-1.626624	99
Es	1.117515	-0.285294	-0.414858	99
Es	-0.058142	-1.975215	0.245286	99
Es	0.022737	-0.791404	-0.127829	99
Es	1.228334	0.496456	1.574853	99
Es	0.401685	3.275126	0.609950	99
Es	0.450391	-0.162100	-0.122291	99
Es	0.029495	1.563403	-0.148976	99
Es	0.644820	2.604639	0.591868	99
Es	-1.073035	-1.298511	0.171815	99
Es	-0.202087	1.114966	-0.729146	99
Es	-0.523677	-1.671534	-0.972544	99
Es	0.165769	2.628032	0.783652	99
Es	0.098562	0.431553	-0.491844	99
Es	-0.837739	-2.284585	-1.476367	99
Es	-0.922607	1.109484	-0.754768	99
Es	0.528220	0.115295	0.609928	99
Es	0.575211	0.540977	1.259955	99
Es	0.312938	1.864219	0.515459	99
Es	0.465447	1.236071	0.968813	99
Es	0.568088	3.002484	1.058384	99
Es	-0.307225	-1.879747	-1.578392	99
42
Properties=species:S:1:pos:R:3:Z:I:1 energy=-343.8101813059484 field_type=dipole dipole="0.000000 0.000000 0.000000" charge=0
O	-0.567542	-1.821939	-1.491068	8
C	-0.396742	-1.420389	-0.140148	6
C	0.450438	-0.162149	-0.122338	6
C	-0.202112	1.114971	-0.729208	6
C	0.312938	1.864301	0.515472	6
O	0.462958	3.033001	0.799082	8
C	0.575228	0.540961	1.260002	6
H	-1.081292	-2.648489	-1.484688	1
H	0.100128	-2.228749	0.405072	1
H	-1.383982	-1.250099	0.301092	1
H	1.440738	-0.355839	-0.560698	1
H	-1.293962	1.106811	-0.795918	1
H	0.230008	1.453011	-1.673448	1
H	1.559028	0.471311	1.728802	1
H	-0.205832	0.303281	1.987992	1
Es	0.048631	0.389947	1.731963	99
Es	0.164539	2.630614	0.781632	99
Es	-0.726738	-1.622797	-1.626529	99
Es	0.408018	3.286237	0.622526	99
Es	0.083518	1.343847	-1.353981	99
Es	0.462934	3.032611	0.799057	99
Es	0.312938	1.864218	0.515458	99
Es	0.565163	2.988841	1.051025	99
Es	1.228650	0.496626	1.574941	99
Es	0.022747	-0.791434	-0.128005	99
Es	0.465116	1.235884	0.968901	99
Es	-0.838807	-2.283859	-1.476218	99
Es	-1.072839	-1.298493	0.171753	99
Es	-0.522120	-1.671877	-0.972247	99
Es	-0.202086	1.114966	-0.729146	99
Es	-0.058268	-1.975193	0.245340	99
Es	-0.307867	-1.880521	-1.579082	99
Es	1.116897	-0.285304	-0.414767	99
Es	0.450392	-0.162100	-0.122291	99
Es	0.575208	0.540977	1.259954	99
Es	-0.396758	-1.420442	-0.140373	99
Es	-0.567690	-1.822102	-1.490785	99
Es	0.098902	0.431483	-0.492108	99
Es	0.029382	1.563527	-0.148871	99
Es	0.642595	2.604602	0.588656	99
Es	-0.922426	1.109266	-0.754852	99
Es	0.528357	0.115419	0.610232	99
42
Properties=species:S:1:pos:R:3:Z:I:1 energy=-343.8101813059484 field_type=dipole dipole="0.000000 0.000000 0.000000" charge=0
O	-0.567542	-1.821939	-1.491068	8
C	-0.396742	-1.420389	-0.140148	6
C	0.450438	-0.162149	-0.122338	6
C	-0.202112	1.114971	-0.729208	6
C	0.312938	1.864301	0.515472	6
O	0.462958	3.033001	0.799082	8
C	0.575228	0.540961	1.260002	6
H	-1.081292	-2.648489	-1.484688	1
H	0.100128	-2.228749	0.405072	1
H	-1.383982	-1.250099	0.301092	1
H	1.440738	-0.355839	-0.560698	1
H	-1.293962	1.106811	-0.795918	1
H	0.230008	1.453011	-1.673448	1
H	1.559028	0.471311	1.728802	1
H	-0.205832	0.303281	1.987992	1
Es	0.465260	1.235877	0.968971	99
Es	-0.396759	-1.420441	-0.140371	99
Es	0.163704	2.631343	0.779184	99
Es	0.528291	0.115370	0.610219	99
Es	0.562637	2.983182	1.048157	99
Es	0.022799	-0.791415	-0.127983	99
Es	-0.725450	-1.622607	-1.627549	99
Es	-0.202090	1.114967	-0.729148	99
Es	0.462813	3.032495	0.798759	99
Es	-0.567714	-1.822100	-1.490767	99
Es	0.312939	1.864219	0.515458	99
Es	0.098584	0.431367	-0.491880	99
Es	-0.309403	-1.880855	-1.577490	99
Es	0.450392	-0.162099	-0.122291	99
Es	0.642559	2.605214	0.588071	99
Es	1.228587	0.496565	1.574972	99
Es	-0.522088	-1.671513	-0.972189	99
Es	-0.058400	-1.975153	0.245407	99
Es	0.029429	1.563604	-0.148885	99
Es	-0.838546	-2.284167	-1.476914	99
Es	-0.922316	1.109352	-0.754856	99
Es	0.048647	0.390078	1.731919	99
Es	0.575209	0.540977	1.259954	99
Es	0.083534	1.343699	-1.354051	99
Es	0.411573	3.290665	0.628733	99
Es	1.116878	-0.285159	-0.414889	99
Es	-1.072683	-1.298523	0.171639	99
42
Properties=species:S:1:pos:R:3:Z:I:1 energy=-343.8101813059484 field_type=dipole dipole="0.000000 0.000000 0.000000" charge=0
O	-0.567542	-1.821939	-1.491068	8
C	-0.396742	-1.420389	-0.140148	6
C	0.450438	-0.162149	-0.122338	6
C	-0.202112	1.114971	-0.729208	6
C	0.312938	1.864301	0.515472	6
O	0.462958	3.033001	0.799082	8
C	0.575228	0.540961	1.260002	6
H	-1.081292	-2.648489	-1.484688	1
H	0.100128	-2.228749	0.405072	1
H	-1.383982	-1.250099	0.301092	1
H	1.440738	-0.355839	-0.560698	1
H	-1.293962	1.106811	-0.795918	1
H	0.230008	1.453011	-1.673448	1
H	1.559028	0.471311	1.728802	1
H	-0.205832	0.303281	1.987992	1
Es	0.083474	1.343749	-1.354117	99
Es	-0.058433	-1.975122	0.245411	99
Es	0.561379	2.978173	1.044432	99
Es	1.116582	-0.285157	-0.414854	99
Es	-0.202087	1.114966	-0.729146	99
Es	0.098855	0.431128	-0.492006	99
Es	0.528276	0.115453	0.610453	99
Es	-0.567658	-1.822147	-1.490744	99
Es	0.163876	2.629789	0.778136	99
Es	-0.396758	-1.420441	-0.140368	99
Es	0.048748	0.390306	1.731747	99
Es	0.450393	-0.162100	-0.122292	99
Es	-0.838515	-2.284156	-1.477171	99
Es	0.575209	0.540977	1.259955	99
Es	-1.072635	-1.298517	0.171635	99
Es	0.022804	-0.791428	-0.128130	99
Es	-0.521706	-1.671403	-0.971985	99
Es	1.228577	0.496566	1.575119	99
Es	0.642673	2.607417	0.587299	99
Es	-0.922173	1.109233	-0.754843	99
Es	-0.310246	-1.880934	-1.577291	99
Es	0.462840	3.032636	0.798807	99
Es	0.312938	1.864219	0.515459	99
Es	0.029270	1.563648	-0.148838	99
Es	0.412628	3.294858	0.634271	99
Es	-0.725105	-1.622633	-1.627744	99
Es	0.465183	1.235862	0.968989	99
42
Properties=species:S:1:pos:R:3:Z:I:1 energy=-343.8101813059484 field_type=dipole dipole="0.000000 0.000000 0.000000" charge=0
O	-0.567542	-1.821939	-1.491068	8
C	-0.396742	-1.420389	-0.140148	6
C	0.450438	-0.162149	-0.122338	6
C	-0.202112	1.114971	-0.729208	6
C	0.312938	1.864301	0.515472	6
O	0.462958	3.033001	0.799082	8
C	0.575228	0.540961	1.260002	6
H	-1.081292	-2.648489	-1.484688	1
H	0.100128	-2.228749	0.405072	1
H	-1.383982	-1.250099	0.301092	1
H	1.440738	-0.355839	-0.560698	1
H	-1.293962	1.106811	-0.795918	1
H	0.230008	1.453011	-1.673448	1
H	1.559028	0.471311	1.728802	1
H	-0.205832	0.303281	1.987992	1
Es	0.641839	2.607431	0.586053	99
Es	0.528320	0.115480	0.610592	99
Es	0.048735	0.390301	1.731778	99
Es	-0.922096	1.109132	-0.754912	99
Es	-1.072536	-1.298542	0.171590	99
Es	0.083548	1.343716	-1.354218	99
Es	-0.396758	-1.420441	-0.140372	99
Es	0.163534	2.630640	0.777852	99
Es	0.465063	1.235703	0.969014	99
Es	0.462924	3.032761	0.799031	99
Es	-0.838150	-2.284335	-1.477528	99
Es	-0.202087	1.114965	-0.729146	99
Es	0.098766	0.431211	-0.492044	99
Es	0.312938	1.864219	0.515458	99
Es	-0.726181	-1.622464	-1.626548	99
Es	0.575209	0.540977	1.259954	99
Es	0.450391	-0.162100	-0.122290	99
Es	-0.519411	-1.672218	-0.971568	99
Es	0.415566	3.299685	0.640860	99
Es	0.559435	2.972350	1.039186	99
Es	1.228763	0.496696	1.575142	99
Es	0.022821	-0.791380	-0.128226	99
Es	1.116438	-0.285129	-0.414857	99
Es	-0.058508	-1.975107	0.245424	99
Es	0.029302	1.563650	-0.148669	99
Es	-0.311770	-1.880176	-1.578592	99
Es	-0.567712	-1.822085	-1.490783	99
42
Properties=species:S:1:pos:R:3:Z:I:1 energy=-343.8101813059484 field_type=dipole dipole="0.000000 0.000000 0.000000" charge=0
O	-0.567542	-1.821939	-1.491068	8
C	-0.396742	-1.420389	-0.140148	6
C	0.450438	-0.162149	-0.122338	6
C	-0.202112	1.114971	-0.729208	6
C	0.312938	1.864301	0.515472	6
O	0.462958	3.033001	0.799082	8
C	0.575228	0.540961	1.260002	6
H	-1.081292	-2.648489	-1.484688	1
H	0.100128	-2.228749	0.405072	1
H	-1.383982	-1.250099	0.301092	1
H	1.440738	-0.355839	-0.560698	1
H	-1.293962	1.106811	-0.795918	1
H	0.230008	1.453011	-1.673448	1
H	1.559028	0.471311	1.728802	1
H	-0.205832	0.303281	1.987992	1
Es	-1.072180	-1.297781	0.170322	99
Es	0.084531	1.346377	-1.356583	99
Es	-0.726043	-1.599625	-1.646068	99
Es	0.462874	3.032654	0.798897	99
Es	1.117793	-0.285888	-0.412935	99
Es	1.226793	0.495719	1.573238	99
Es	0.529992	0.114255	0.607871	99
Es	-0.202087	1.114967	-0.729146	99
Es	0.466345	1.237302	0.968516	99
Es	0.373096	3.087064	0.569046	99
Es	0.450391	-0.162100	-0.122290	99
Es	0.096411	0.434003	-0.491651	99
Es	0.571451	3.204985	1.035654	99
Es	-0.522106	-1.683695	-0.975887	99
Es	-0.920793	1.110968	-0.752696	99
Es	-0.567710	-1.822053	-1.490760	99
Es	-0.833596	-2.286057	-1.471360	99
Es	0.027859	1.561279	-0.149026	99
Es	0.178777	2.619587	0.818073	99
Es	0.312938	1.864219	0.515458	99
Es	0.575209	0.540976	1.259954	99
Es	-0.396758	-1.420442	-0.140370	99
Es	0.656722	2.598879	0.620126	99
Es	-0.313676	-1.888470	-1.559680	99
Es	0.022269	-0.791470	-0.126724	99
Es	0.047562	0.386946	1.733404	99
Es	-0.057679	-1.977659	0.246795	99
42
Properties=species:S:1:pos:R:3:Z:I:1 energy=-343.8101813059484 field_type=dipole dipole="0.000000 0.000000 0.000000" charge=0
O	-0.567542	-1.821939	-1.491068	8
C	-0.396742	-1.420389	-0.140148	6
C	0.450438	-0.162149	-0.122338	6
C	-0.202112	1.114971	-0.729208	6
C	0.312938	1.864301	0.515472	6
O	0.462958	3.033001	0.799082	8
C	0.575228	0.540961	1.260002	6
H	-1.081292	-2.648489	-1.484688	1
H	0.100128	-2.228749	0.405072	1
H	-1.383982	-1.250099	0.301092	1
H	1.440738	-0.355839	-0.560698	1
H	-1.293962	1.106811	-0.795918	1
H	0.230008	1.453011	-1.673448	1
H	1.559028	0.471311	1.728802	1
H	-0.205832	0.303281	1.987992	1
Es	0.528509	0.115446	0.610721	99
Es	0.557967	2.967609	1.035699	99
Es	0.418159	3.303342	0.647133	99
Es	-0.520182	-1.671463	-0.971738	99
Es	-0.312456	-1.881126	-1.576746	99
Es	-0.058572	-1.975096	0.245417	99
Es	0.029429	1.563755	-0.148709	99
Es	1.228510	0.496549	1.575213	99
Es	1.115999	-0.285145	-0.414725	99
Es	0.465171	1.235880	0.969097	99
Es	-0.838641	-2.284229	-1.477922	99
Es	0.641218	2.607725	0.584614	99
Es	0.312939	1.864219	0.515458	99
Es	-0.724362	-1.622371	-1.627869	99
Es	0.048845	0.390428	1.731633	99
Es	-1.072334	-1.298611	0.171554	99
Es	0.575209	0.540977	1.259954	99
Es	0.450391	-0.162099	-0.122291	99
Es	0.163318	2.631534	0.776878	99
Es	0.462787	3.032627	0.798665	99
Es	-0.396758	-1.420441	-0.140370	99
Es	0.022861	-0.791378	-0.128228	99
Es	-0.567690	-1.822111	-1.490779	99
Es	0.098853	0.431223	-0.492306	99
Es	-0.922045	1.109120	-0.754797	99
Es	-0.202086	1.114965	-0.729146	99
Es	0.083348	1.343614	-1.354227	99
42
Properties=species:S:1:pos:R:3:Z:I:1 energy=-343.8101813059484 field_type=dipole dipole="0.000000 0.000000 0.000000" charge=0
O	-0.567542	-1.821939	-1.491068	8
C	-0.396742	-1.420389	-0.140148	6
C	0.450438	-0.162149	-0.122338	6
C	-0.202112	1.114971	-0.729208	6
C	0.312938	1.864301	0.515472	6
O	0.462958	3.033001	0.799082	8
C	0.575228	0.540961	1.260002	6
H	-1.081292	-2.648489	-1.484688	1
H	0.100128	-2.228749	0.405072	1
H	-1.383982	-1.250099	0.301092	1
H	1.440738	-0.355839	-0.560698	1
H	-1.293962	1.106811	-0.795918	1
H	0.230008	1.453011	-1.673448	1
H	1.559028	0.471311	1.728802	1
H	-0.205832	0.303281	1.987992	1
Es	0.022905	-0.791435	-0.128309	99
Es	0.462871	3.032640	0.798890	99
Es	0.450391	-0.162100	-0.122290	99
Es	0.575209	0.540977	1.259951	99
Es	-0.837203	-2.284948	-1.477945	99
Es	0.083362	1.343597	-1.354283	99
Es	0.312935	1.864221	0.515462	99
Es	-0.202086	1.114966	-0.729146	99
Es	-0.519477	-1.671566	-0.971620	99
Es	0.555881	2.965802	1.034319	99
Es	-1.072303	-1.298607	0.171526	99
Es	-0.058616	-1.975047	0.245448	99
Es	0.029238	1.563803	-0.148678	99
Es	-0.313397	-1.879983	-1.577463	99
Es	-0.567713	-1.822111	-1.490741	99
Es	0.464955	1.235787	0.969126	99
Es	0.048916	0.390471	1.731660	99
Es	1.115994	-0.285040	-0.414722	99
Es	-0.725520	-1.622752	-1.627307	99
Es	0.420289	3.304751	0.649106	99
Es	0.098814	0.431043	-0.492185	99
Es	0.641884	2.608046	0.585664	99
Es	0.528342	0.115500	0.610751	99
Es	-0.921815	1.109104	-0.754852	99
Es	-0.396757	-1.420442	-0.140371	99
Es	1.228703	0.496676	1.575195	99
Es	0.162584	2.631590	0.774995	99
42
Properties=species:S:1:pos:R:3:Z:I:1 energy=-343.8101813059484 field_type=dipole dipole="0.000000 0.000000 0.000000" charge=0
O	-0.567542	-1.821939	-1.491068	8
C	-0.396742	-1.420389	-0.140148	6
C	0.450438	-0.162149	-0.122338	6
C	-0.202112	1.114971	-0.729208	6
C	0.312938	1.864301	0.515472	6
O	0.462958	3.033001	0.799082	8
C	0.575228	0.540961	1.260002	6
H	-1.081292	-2.648489	-1.484688	1
H	0.100128	-2.228749	0.405072	1
H	-1.383982	-1.250099	0.301092	1
H	1.440738	-0.355839	-0.560698	1
H	-1.293962	1.106811	-0.795918	1
H	0.230008	1.453011	-1.673448	1
H	1.559028	0.471311	1.728802	1
H	-0.205832	0.303281	1.987992	1
Es	-0.834216	-2.285835	-1.470941	99
Es	0.450391	-0.162099	-0.122290	99
Es	-0.202088	1.114967	-0.729147	99
Es	0.657647	2.598932	0.621034	99
Es	0.568839	3.213706	1.029564	99
Es	0.084505	1.346495	-1.356729	99
Es	0.096273	0.433885	-0.491672	99
Es	0.047772	0.386759	1.733274	99
Es	0.312937	1.864219	0.515458	99
Es	0.575208	0.540976	1.259955	99
Es	0.466208	1.237505	0.968673	99
Es	0.027696	1.561202	-0.149030	99
Es	0.530032	0.114338	0.607989	99
Es	-0.722975	-1.598292	-1.649573	99
Es	1.117639	-0.285905	-0.412908	99
Es	-0.567679	-1.822105	-1.490797	99
Es	0.462960	3.032190	0.799162	99
Es	-1.072071	-1.297722	0.170216	99
Es	-0.920546	1.111091	-0.752557	99
Es	-0.396758	-1.420442	-0.140369	99
Es	0.022304	-0.791457	-0.126764	99
Es	-0.316701	-1.890436	-1.556516	99
Es	0.178813	2.619458	0.818658	99
Es	-0.521563	-1.683215	-0.975937	99
Es	1.226753	0.495587	1.573213	99
Es	-0.057737	-1.977746	0.246902	99
Es	0.374741	3.078882	0.573314	99
42
Properties=species:S:1:pos:R:3:Z:I:1 energy=-343.8101813059484 field_type=dipole dipole="0.000000 0.000000 0.000000" charge=0
O	-0.567542	-1.821939	-1.491068	8
C	-0.396742	-1.420389	-0.140148	6
C	0.450438	-0.162149	-0.122338	6
C	-0.202112	1.114971	-0.729208	6
C	0.312938	1.864301	0.515472	6
O	0.462958	3.033001	0.799082	8
C	0.575228	0.540961	1.260002	6
H	-1.081292	-2.648489	-1.484688	1
H	0.100128	-2.228749	0.405072	1
H	-1.383982	-1.250099	0.301092	1
H	1.440738	-0.355839	-0.560698	1
H	-1.293962	1.106811	-0.795918	1
H	0.230008	1.453011	-1.673448	1
H	1.559028	0.471311	1.728802	1
H	-0.205832	0.303281	1.987992	1
Es	0.178663	2.619875	0.818675	99
Es	-0.521542	-1.683664	-0.976136	99
Es	0.656814	2.598631	0.619733	99
Es	-0.202087	1.114966	-0.729146	99
Es	-0.920280	1.111153	-0.752788	99
Es	0.466489	1.237687	0.968663	99
Es	0.084380	1.346321	-1.356442	99
Es	0.096299	0.433930	-0.491750	99
Es	0.022337	-0.791531	-0.126794	99
Es	0.575208	0.540978	1.259953	99
Es	-0.725403	-1.599036	-1.646777	99
Es	0.462969	3.032549	0.799140	99
Es	-1.072038	-1.297884	0.170199	99
Es	0.450391	-0.162101	-0.122290	99
Es	0.047901	0.386774	1.733422	99
Es	0.312936	1.864219	0.515459	99
Es	-0.315190	-1.888501	-1.558801	99
Es	0.373755	3.082053	0.572102	99
Es	0.027692	1.561503	-0.149000	99
Es	-0.057752	-1.977773	0.246791	99
Es	-0.833293	-2.286533	-1.471150	99
Es	-0.567711	-1.822119	-1.490751	99
Es	0.570793	3.210075	1.032081	99
Es	0.530130	0.114006	0.607796	99
Es	-0.396758	-1.420442	-0.140369	99
Es	1.226205	0.495584	1.572974	99
Es	1.117475	-0.285779	-0.412612	99
42
Properties=species:S:1:pos:R:3:Z:I:1 energy=-343.8101813059484 field_type=dipole dipole="0.000000 0.000000 0.000000" charge=0
O	-0.567542	-1.821939	-1.491068	8
C	-0.396742	-1.420389	-0.140148	6
C	0.450438	-0.162149	-0.122338	6
C	-0.202112	1.114971	-0.729208	6
C	0.312938	1.864301	0.515472	6
O	0.462958	3.033001	0.799082	8
C	0.575228	0.540961	1.260002	6
H	-1.081292	-2.648489	-1.484688	1
H	0.100128	-2.228749	0.405072	1
H	-1.383982	-1.250099	0.301092	1
H	1.440738	-0.355839	-0.560698	1
H	-1.293962	1.106811	-0.795918	1
H	0.230008	1.453011	-1.673448	1
H	1.559028	0.471311	1.728802	1
H	-0.205832	0.303281	1.987992	1
Es	-0.519529	-1.670821	-0.971663	99
Es	0.450392	-0.162099	-0.122291	99