42
Properties=species:S:1:pos:R:3:Z:I:1 energy=-343.80841372855036 field_type=dipole dipole="0.000000 0.000000 0.000000" charge=0
O	-0.153927	-1.832183	0.755257	8
C	-0.810397	-1.209563	-0.336823	6
C	-0.439708	0.245587	-0.351383	6
C	-1.369697	1.217536	-0.355383	6
C	1.033163	0.566297	-0.408833	6
C	1.598083	0.720037	0.985047	6
O	2.311092	1.664817	1.317807	8
H	-0.471707	-2.751283	0.782027	1
H	-1.889597	-1.356183	-0.223273	1
H	-0.488287	-1.693173	-1.264733	1
H	-2.432077	0.994036	-0.325743	1
H	-1.091328	2.267986	-0.376783	1
H	1.206283	1.499286	-0.957923	1
H	1.586723	-0.224073	-0.926123	1
H	1.411383	-0.109123	1.686857	1
Es	2.349351	1.876931	1.086551	99
Es	2.256764	1.200231	1.117853	99
Es	2.408807	1.643239	1.614454	99
Es	-0.439593	0.245487	-0.351379	99
Es	-2.089474	1.067449	-0.335016	99
Es	0.146339	-1.839864	0.684275	99
Es	1.141640	1.191969	-0.773589	99
Es	0.303450	0.395482	-0.370733	99
Es	-1.369755	1.217591	-0.355386	99
Es	1.402503	0.030341	-0.737854	99
Es	-0.624383	-0.478747	-0.339676	99
Es	-0.154148	-1.832320	0.755038	99
Es	1.033119	0.566255	-0.408782	99
Es	1.294094	0.636672	0.281753	99
Es	-0.259167	-1.695103	1.008078	99
Es	-0.588638	-1.532441	-0.978948	99
Es	-0.902509	0.740685	-0.023677	99
Es	-1.184549	1.927727	-0.373671	99
Es	-0.810268	-1.209630	-0.336642	99
Es	-1.555084	-1.305957	-0.265032	99
Es	1.845378	1.445576	1.272888	99
Es	1.459451	0.157670	1.452649	99
Es	-0.334191	-2.322894	0.751728	99
Es	-0.411431	-1.613089	0.335422	99
Es	-0.917778	0.721247	-0.680463	99
Es	1.598066	0.720064	0.985000	99
Es	2.310889	1.664579	1.317683	99
42
Properties=species:S:1:pos:R:3:Z:I:1 energy=-343.80841372855036 field_type=dipole dipole="0.000000 0.000000 0.000000" charge=0
O	-0.153927	-1.832183	0.755257	8
C	-0.810397	-1.209563	-0.336823	6
C	-0.439708	0.245587	-0.351383	6
C	-1.369697	1.217536	-0.355383	6
C	1.033163	0.566297	-0.408833	6
C	1.598083	0.720037	0.985047	6
O	2.311092	1.664817	1.317807	8
H	-0.471707	-2.751283	0.782027	1
H	-1.889597	-1.356183	-0.223273	1
H	-0.488287	-1.693173	-1.264733	1
H	-2.432077	0.994036	-0.325743	1
H	-1.091328	2.267986	-0.376783	1
H	1.206283	1.499286	-0.957923	1
H	1.586723	-0.224073	-0.926123	1
H	1.411383	-0.109123	1.686857	1
Es	1.460659	0.157079	1.451863	99
Es	1.598068	0.720063	0.984997	99
Es	-2.089429	1.066500	-0.336265	99
Es	-1.554898	-1.307038	-0.265383	99
Es	-0.439591	0.245485	-0.351387	99
Es	1.403928	0.029583	-0.737766	99
Es	-0.903661	0.739691	-0.026620	99
Es	0.302881	0.396369	-0.369132	99
Es	-0.330803	-2.327489	0.748556	99
Es	2.259100	1.198679	1.113258	99
Es	-0.624845	-0.478449	-0.341053	99
Es	1.842597	1.448425	1.275188	99
Es	0.149558	-1.830711	0.687952	99
Es	-1.369762	1.217601	-0.355385	99
Es	-0.262619	-1.702401	1.002317	99
Es	2.407949	1.641359	1.611433	99
Es	-0.810268	-1.209631	-0.336643	99
Es	-0.916690	0.722219	-0.677223	99
Es	2.349508	1.878385	1.092181	99
Es	-0.414677	-1.610624	0.340040	99
Es	1.293129	0.636633	0.280406	99
Es	1.141704	1.192391	-0.772527	99
Es	1.033120	0.566257	-0.408782	99
Es	-0.154101	-1.832326	0.755060	99
Es	-1.183745	1.929041	-0.372576	99
Es	2.310887	1.664565	1.317709	99
Es	-0.589111	-1.532507	-0.977695	99
42
Properties=species:S:1:pos:R:3:Z:I:1 energy=-343.80841372855036 field_type=dipole dipole="0.000000 0.000000 0.000000" charge=0
O	-0.153927	-1.832183	0.755257	8
C	-0.810397	-1.209563	-0.336823	6
C	-0.439708	0.245587	-0.351383	6
C	-1.369697	1.217536	-0.355383	6
C	1.033163	0.566297	-0.408833	6
C	1.598083	0.720037	0.985047	6
O	2.311092	1.664817	1.317807	8
H	-0.471707	-2.751283	0.782027	1
H	-1.889597	-1.356183	-0.223273	1
H	-0.488287	-1.693173	-1.264733	1
H	-2.432077	0.994036	-0.325743	1
H	-1.091328	2.267986	-0.376783	1
H	1.206283	1.499286	-0.957923	1
H	1.586723	-0.224073	-0.926123	1
H	1.411383	-0.109123	1.686857	1
Es	-0.904524	0.738875	-0.028712	99
Es	0.152047	-1.824246	0.690416	99
Es	1.033121	0.566257	-0.408783	99
Es	1.404882	0.028989	-0.737838	99
Es	-0.625252	-0.478240	-0.342028	99
Es	2.345648	1.876278	1.093571	99
Es	2.310905	1.664579	1.317704	99
Es	1.141647	1.192489	-0.771700	99
Es	1.461488	0.156853	1.451271	99
Es	1.841481	1.448904	1.277709	99
Es	-0.439592	0.245486	-0.351382	99
Es	-0.810268	-1.209631	-0.336641	99
Es	-0.262179	-1.709776	0.995696	99
Es	-0.154150	-1.832351	0.755002	99
Es	-1.369762	1.217600	-0.355386	99
Es	1.598069	0.720065	0.984998	99
Es	-1.554653	-1.307681	-0.265564	99
Es	-2.089333	1.065788	-0.337412	99
Es	-0.915834	0.723097	-0.675276	99
Es	-1.183281	1.929812	-0.371651	99
Es	0.302589	0.397116	-0.367597	99
Es	2.407981	1.646144	1.608925	99
Es	-0.329091	-2.330283	0.747354	99
Es	1.292342	0.636701	0.279611	99
Es	-0.419306	-1.606983	0.345076	99
Es	-0.589427	-1.532603	-0.976961	99
Es	2.263337	1.195912	1.112122	99
42
Properties=species:S:1:pos:R:3:Z:I:1 energy=-343.80841372855036 field_type=dipole dipole="0.000000 0.000000 0.000000" charge=0
O	-0.153927	-1.832183	0.755257	8
C	-0.810397	-1.209563	-0.336823	6
C	-0.439708	0.245587	-0.351383	6
C	-1.369697	1.217536	-0.355383	6
C	1.033163	0.566297	-0.408833	6
C	1.598083	0.720037	0.985047	6
O	2.311092	1.664817	1.317807	8
H	-0.471707	-2.751283	0.782027	1
H	-1.889597	-1.356183	-0.223273	1
H	-0.488287	-1.693173	-1.264733	1
H	-2.432077	0.994036	-0.325743	1
H	-1.091328	2.267986	-0.376783	1
H	1.206283	1.499286	-0.957923	1
H	1.586723	-0.224073	-0.926123	1
H	1.411383	-0.109123	1.686857	1
Es	-2.089186	1.065311	-0.338324	99
Es	1.405649	0.028596	-0.737846	99
Es	0.155143	-1.816365	0.697096	99
Es	2.344057	1.874759	1.095283	99
Es	1.141710	1.192817	-0.770893	99
Es	-0.154111	-1.832365	0.755008	99
Es	-0.810268	-1.209631	-0.336643	99
Es	-0.905208	0.738341	-0.029993	99
Es	2.407201	1.648546	1.608227	99
Es	1.598071	0.720062	0.984998	99
Es	1.291543	0.636406	0.278794	99
Es	-0.589671	-1.532580	-0.976363	99
Es	-0.625508	-0.478065	-0.342779	99
Es	1.462306	0.156733	1.450797	99
Es	-0.422087	-1.604822	0.348209	99
Es	2.265847	1.194733	1.111249	99
Es	-0.325605	-2.332376	0.744584	99
Es	-1.369762	1.217600	-0.355372	99
Es	1.033121	0.566255	-0.408782	99
Es	-0.439590	0.245484	-0.351382	99
Es	1.840667	1.449549	1.278019	99
Es	-0.266087	-1.717856	0.988273	99
Es	0.302339	0.397643	-0.366781	99
Es	2.310858	1.664577	1.317568	99
Es	-1.182980	1.930302	-0.370886	99
Es	-0.915125	0.723691	-0.673787	99
Es	-1.554439	-1.308195	-0.265746	99
42
Properties=species:S:1:pos:R:3:Z:I:1 energy=-343.80841372855036 field_type=dipole dipole="0.000000 0.000000 0.000000" charge=0
O	-0.153927	-1.832183	0.755257	8
C	-0.810397	-1.209563	-0.336823	6
C	-0.439708	0.245587	-0.351383	6
C	-1.369697	1.217536	-0.355383	6
C	1.033163	0.566297	-0.408833	6
C	1.598083	0.720037	0.985047	6
O	2.311092	1.664817	1.317807	8
H	-0.471707	-2.751283	0.782027	1
H	-1.889597	-1.356183	-0.223273	1
H	-0.488287	-1.693173	-1.264733	1
H	-2.432077	0.994036	-0.325743	1
H	-1.091328	2.267986	-0.376783	1
H	1.206283	1.499286	-0.957923	1
H	1.586723	-0.224073	-0.926123	1
H	1.411383	-0.109123	1.686857	1
Es	1.840034	1.450494	1.278240	99
Es	-0.154041	-1.832414	0.754915	99
Es	2.267015	1.193885	1.110656	99
Es	1.463014	0.156593	1.450432	99
Es	-0.424106	-1.602393	0.351189	99
Es	-0.810272	-1.209629	-0.336650	99
Es	1.141801	1.193068	-0.770286	99
Es	1.406203	0.027937	-0.737840	99
Es	-0.322342	-2.334219	0.741466	99
Es	-0.589902	-1.532693	-0.976078	99
Es	-1.554070	-1.308555	-0.265770	99
Es	2.408032	1.651998	1.608318	99
Es	-0.914581	0.724104	-0.672884	99
Es	-0.625820	-0.477920	-0.343456	99
Es	-1.182761	1.930703	-0.370168	99
Es	-0.439590	0.245484	-0.351391	99
Es	-1.369762	1.217601	-0.355385	99
Es	2.341827	1.871404	1.095809	99
Es	-2.088977	1.064973	-0.338764	99
Es	1.033120	0.566257	-0.408779	99
Es	1.290839	0.636214	0.278068	99
Es	0.302221	0.398320	-0.366001	99
Es	-0.905743	0.737948	-0.031051	99
Es	1.598073	0.720060	0.984995	99
Es	-0.270916	-1.727619	0.977511	99
Es	0.158626	-1.807171	0.707821	99
Es	2.310965	1.664720	1.317608	99
42
Properties=species:S:1:pos:R:3:Z:I:1 energy=-343.80841372855036 field_type=dipole dipole="0.000000 0.000000 0.000000" charge=0
O	-0.153927	-1.832183	0.755257	8
C	-0.810397	-1.209563	-0.336823	6
C	-0.439708	0.245587	-0.351383	6
C	-1.369697	1.217536	-0.355383	6
C	1.033163	0.566297	-0.408833	6
C	1.598083	0.720037	0.985047	6
O	2.311092	1.664817	1.317807	8
H	-0.471707	-2.751283	0.782027	1
H	-1.889597	-1.356183	-0.223273	1
H	-0.488287	-1.693173	-1.264733	1
H	-2.432077	0.994036	-0.325743	1
H	-1.091328	2.267986	-0.376783	1
H	1.206283	1.499286	-0.957923	1
H	1.586723	-0.224073	-0.926123	1
H	1.411383	-0.109123	1.686857	1
Es	-0.319470	-2.335655	0.739192	99
Es	1.033121	0.566257	-0.408780	99
Es	0.302174	0.398623	-0.365642	99
Es	1.406679	0.027385	-0.737492	99
Es	2.310884	1.664508	1.317758	99
Es	2.418434	1.672525	1.608423	99
Es	-2.088683	1.064746	-0.338833	99
Es	-1.553799	-1.308787	-0.265853	99
Es	-0.154102	-1.832379	0.754957	99
Es	-0.625892	-0.477867	-0.343621	99
Es	-1.369764	1.217602	-0.355389	99
Es	-0.428166	-1.598069	0.356014	99
Es	1.290119	0.635652	0.276964	99
Es	-0.271156	-1.737189	0.966783	99
Es	-0.439590	0.245483	-0.351385	99
Es	1.839652	1.450831	1.280888	99
Es	1.598071	0.720059	0.984998	99
Es	-0.589995	-1.532797	-0.975884	99
Es	-0.906009	0.737879	-0.031672	99
Es	1.142059	1.193966	-0.769760	99
Es	-0.914449	0.724111	-0.672264	99
Es	-0.810267	-1.209631	-0.336642	99
Es	1.463467	0.156383	1.450229	99
Es	-1.182662	1.931081	-0.369860	99
Es	0.159969	-1.800544	0.715778	99
Es	2.267958	1.191352	1.114188	99
Es	2.330300	1.853627	1.089431	99
42
Properties=species:S:1:pos:R:3:Z:I:1 energy=-343.80841372855036 field_type=dipole dipole="0.000000 0.000000 0.000000" charge=0
O	-0.153927	-1.832183	0.755257	8
C	-0.810397	-1.209563	-0.336823	6
C	-0.439708	0.245587	-0.351383	6
C	-1.369697	1.217536	-0.355383	6
C	1.033163	0.566297	-0.408833	6
C	1.598083	0.720037	0.985047	6
O	2.311092	1.664817	1.317807	8
H	-0.471707	-2.751283	0.782027	1
H	-1.889597	-1.356183	-0.223273	1
H	-0.488287	-1.693173	-1.264733	1
H	-2.432077	0.994036	-0.325743	1
H	-1.091328	2.267986	-0.376783	1
H	1.206283	1.499286	-0.957923	1
H	1.586723	-0.224073	-0.926123	1
H	1.411383	-0.109123	1.686857	1
Es	-0.626176	-0.477771	-0.343902	99
Es	-0.914141	0.724404	-0.671761	99
Es	-0.439588	0.245482	-0.351387	99
Es	2.268945	1.190477	1.114355	99
Es	-2.088507	1.064451	-0.339135	99
Es	-0.431227	-1.595649	0.360832	99
Es	-0.590050	-1.532876	-0.975750	99
Es	2.310893	1.664532	1.317747	99
Es	-1.553581	-1.309008	-0.265882	99
Es	0.302072	0.398819	-0.365073	99
Es	-0.906240	0.737685	-0.032338	99
Es	-0.810271	-1.209629	-0.336645	99
Es	1.463759	0.156352	1.450064	99
Es	1.407061	0.027123	-0.737408	99
Es	1.289650	0.635488	0.276395	99
Es	1.840716	1.450271	1.281358	99
Es	1.033121	0.566258	-0.408783	99
Es	0.160713	-1.795931	0.720085	99
Es	-1.182634	1.931336	-0.369508	99
Es	1.142121	1.194216	-0.769336	99
Es	-0.270974	-1.743375	0.960176	99
Es	-1.369761	1.217600	-0.355381	99
Es	-0.154006	-1.832453	0.754841	99
Es	2.419292	1.676877	1.608352	99
Es	1.598071	0.720062	0.984997	99
Es	2.327099	1.850793	1.088974	99
Es	-0.317472	-2.336383	0.736636	99
42
Properties=species:S:1:pos:R:3:Z:I:1 energy=-343.80841372855036 field_type=dipole dipole="0.000000 0.000000 0.000000" charge=0
O	-0.153927	-1.832183	0.755257	8
C	-0.810397	-1.209563	-0.336823	6
C	-0.439708	0.245587	-0.351383	6
C	-1.369697	1.217536	-0.355383	6
C	1.033163	0.566297	-0.408833	6
C	1.598083	0.720037	0.985047	6
O	2.311092	1.664817	1.317807	8
H	-0.471707	-2.751283	0.782027	1
H	-1.889597	-1.356183	-0.223273	1
H	-0.488287	-1.693173	-1.264733	1
H	-2.432077	0.994036	-0.325743	1
H	-1.091328	2.267986	-0.376783	1
H	1.206283	1.499286	-0.957923	1
H	1.586723	-0.224073	-0.926123	1
H	1.411383	-0.109123	1.686857	1
Es	-2.088323	1.064404	-0.339008	99
Es	-0.626168	-0.477763	-0.343800	99
Es	0.302254	0.399092	-0.364866	99
Es	2.310884	1.664476	1.317816	99
Es	-0.154094	-1.832381	0.754984	99
Es	-0.810269	-1.209630	-0.336643	99
Es	-1.182758	1.931464	-0.369545	99
Es	1.407250	0.026536	-0.737220	99
Es	-0.314532	-2.337602	0.735096	99
Es	-0.432991	-1.593526	0.363359	99
Es	-0.914207	0.724314	-0.671733	99
Es	-0.272138	-1.750251	0.950239	99
Es	-0.906148	0.737801	-0.032287	99
Es	2.320496	1.836112	1.086482	99
Es	-1.369763	1.217601	-0.355387	99
Es	1.289216	0.635115	0.275513	99
Es	1.033121	0.566257	-0.408782	99
Es	2.426581	1.692451	1.605802	99
Es	1.464001	0.156083	1.449908	99
Es	1.142262	1.194998	-0.768955	99
Es	-0.590087	-1.532946	-0.975693	99
Es	2.268480	1.188401	1.117925	99
Es	0.160719	-1.790039	0.728842	99
Es	1.839973	1.451765	1.282803	99
Es	1.598078	0.720058	0.984992	99
Es	-1.553363	-1.309122	-0.265929	99
Es	-0.439589	0.245483	-0.351387	99
42
Properties=species:S:1:pos:R:3:Z:I:1 energy=-343.80841372855036 field_type=dipole dipole="0.000000 0.000000 0.000000" charge=0
O	-0.153927	-1.832183	0.755257	8
C	-0.810397	-1.209563	-0.336823	6
C	-0.439708	0.245587	-0.351383	6
C	-1.369697	1.217536	-0.355383	6
C	1.033163	0.566297	-0.408833	6
C	1.598083	0.720037	0.985047	6
O	2.311092	1.664817	1.317807	8
H	-0.471707	-2.751283	0.782027	1
H	-1.889597	-1.356183	-0.223273	1
H	-0.488287	-1.693173	-1.264733	1
H	-2.432077	0.994036	-0.325743	1
H	-1.091328	2.267986	-0.376783	1
H	1.206283	1.499286	-0.957923	1
H	1.586723	-0.224073	-0.926123	1
H	1.411383	-0.109123	1.686857	1
Es	-0.435633	-1.590637	0.367540	99
Es	-0.810265	-1.209632	-0.336641	99
Es	1.033124	0.566257	-0.408784	99
Es	-0.626275	-0.477736	-0.343928	99
Es	1.142226	1.195296	-0.768829	99
Es	1.464112	0.156032	1.449912	99
Es	-1.182812	1.931644	-0.369406	99
Es	-0.313617	-2.337781	0.733940	99
Es	-0.271329	-1.756877	0.939984	99
Es	2.429422	1.699673	1.604608	99
Es	1.407362	0.026215	-0.737141	99
Es	1.598075	0.720062	0.984996	99
Es	1.288890	0.634982	0.275244	99
Es	-1.553114	-1.309076	-0.265848	99
Es	0.161611	-1.786130	0.736005	99
Es	-2.088016	1.064474	-0.338718	99
Es	0.302378	0.399100	-0.364961	99
Es	-1.369762	1.217600	-0.355389	99
Es	2.269884	1.188524	1.118175	99
Es	2.310865	1.664533	1.317702	99
Es	-0.914176	0.724152	-0.671876	99
Es	-0.154155	-1.832342	0.755025	99
Es	1.840709	1.449952	1.283867	99
Es	-0.906231	0.737892	-0.032181	99
Es	-0.590172	-1.533143	-0.975805	99
Es	-0.439589	0.245484	-0.351385	99
Es	2.315374	1.830633	1.086420	99
42
Properties=species:S:1:pos:R:3:Z:I:1 energy=-343.80841372855036 field_type=dipole dipole="0.000000 0.000000 0.000000" charge=0
O	-0.153927	-1.832183	0.755257	8
C	-0.810397	-1.209563	-0.336823	6
C	-0.439708	0.245587	-0.351383	6
C	-1.369697	1.217536	-0.355383	6
C	1.033163	0.566297	-0.408833	6
C	1.598083	0.720037	0.985047	6
O	2.311092	1.664817	1.317807	8
H	-0.471707	-2.751283	0.782027	1
H	-1.889597	-1.356183	-0.223273	1
H	-0.488287	-1.693173	-1.264733	1
H	-2.432077	0.994036	-0.325743	1
H	-1.091328	2.267986	-0.376783	1
H	1.206283	1.499286	-0.957923	1
H	1.586723	-0.224073	-0.926123	1
H	1.411383	-0.109123	1.686857	1
Es	2.312974	1.824721	1.086722	99
Es	1.840422	1.450875	1.284374	99
Es	-0.590260	-1.533242	-0.975837	99
Es	1.033121	0.566257	-0.408782	99
Es	-1.552962	-1.309060	-0.265777	99
Es	0.302501	0.399168	-0.364920	99
Es	1.407440	0.025978	-0.736975	99
Es	-0.439589	0.245484	-0.351385	99
Es	1.598072	0.720062	0.984996	99
Es	-1.182838	1.931729	-0.369343	99
Es	2.310890	1.664546	1.317721	99
Es	-0.626237	-0.477792	-0.343947	99
Es	-0.154133	-1.832558	0.754875	99
Es	-0.270679	-1.760482	0.933737	99
Es	1.288698	0.634783	0.274810	99
Es	-0.914223	0.724104	-0.671824	99
Es	-0.312484	-2.338188	0.733075	99
Es	-1.369762	1.217601	-0.355387	99
Es	-0.810269	-1.209630	-0.336643	99
Es	0.161151	-1.783375	0.740756	99
Es	-2.087903	1.064453	-0.338654	99
Es	2.269758	1.187604	1.119191	99
Es	2.431900	1.705693	1.602859	99
Es	-0.906229	0.737924	-0.032232	99
Es	-0.436969	-1.589151	0.370017	99
Es	1.142259	1.195747	-0.768690	99
Es	1.464237	0.155900	1.449790	99
42
Properties=species:S:1:pos:R:3:Z:I:1 energy=-343.80841372855036 field_type=dipole dipole="0.000000 0.000000 0.000000" charge=0
O	-0.153927	-1.832183	0.755257	8
C	-0.810397	-1.209563	-0.336823	6
C	-0.439708	0.245587	-0.351383	6
C	-1.369697	1.217536	-0.355383	6
C	1.033163	0.566297	-0.408833	6
C	1.598083	0.720037	0.985047	6
O	2.311092	1.664817	1.317807	8
H	-0.471707	-2.751283	0.782027	1
H	-1.889597	-1.356183	-0.223273	1
H	-0.488287	-1.693173	-1.264733	1
H	-2.432077	0.994036	-0.325743	1
H	-1.091328	2.267986	-0.376783	1
H	1.206283	1.499286	-0.957923	1
H	1.586723	-0.224073	-0.926123	1
H	1.411383	-0.109123	1.686857	1
Es	-1.369763	1.217601	-0.355388	99
Es	2.310884	1.664477	1.317807	99
Es	-0.154100	-1.832374	0.754967	99
Es	1.840618	1.451086	1.284297	99
Es	0.160475	-1.786684	0.734369	99
Es	-0.914211	0.724278	-0.671802	99
Es	1.288528	0.634783	0.274471	99
Es	-1.182991	1.931911	-0.369743	99
Es	0.302402	0.399274	-0.364243	99
Es	1.464309	0.155674	1.449794	99
Es	-0.810270	-1.209630	-0.336642	99
Es	1.598067	0.720064	0.984997	99
Es	1.142395	1.196026	-0.768619	99
Es	-0.906134	0.737832	-0.032407	99
Es	-0.590448	-1.533101	-0.975534	99
Es	-0.438443	-1.588051	0.372237	99
Es	1.407441	0.025749	-0.736769	99
Es	2.436443	1.718154	1.599722	99
Es	-2.087705	1.064285	-0.338968	99
Es	-0.439590	0.245484	-0.351390	99
Es	-0.313243	-2.338325	0.734373	99
Es	2.308135	1.813141	1.087335	99
Es	-0.267729	-1.758500	0.936502	99
Es	1.033121	0.566257	-0.408782	99
Es	-0.626268	-0.477689	-0.343743	99
Es	-1.552771	-1.309252	-0.265918	99
Es	2.269732	1.186683	1.121605	99
42
Properties=species:S:1:pos:R:3:Z:I:1 energy=-343.80841372855036 field_type=dipole dipole="0.000000 0.000000 0.000000" charge=0
O	-0.153927	-1.832183	0.755257	8
C	-0.810397	-1.209563	-0.336823	6
C	-0.439708	0.245587	-0.351383	6
C	-1.369697	1.217536	-0.355383	6
C	1.033163	0.566297	-0.408833	6
C	1.598083	0.720037	0.985047	6
O	2.311092	1.664817	1.317807	8
H	-0.471707	-2.751283	0.782027	1
H	-1.889597	-1.356183	-0.223273	1
H	-0.488287	-1.693173	-1.264733	1
H	-2.432077	0.994036	-0.325743	1
H	-1.091328	2.267986	-0.376783	1
H	1.206283	1.499286	-0.957923	1
H	1.586723	-0.224073	-0.926123	1
H	1.411383	-0.109123	1.686857	1
Es	-0.914197	0.724268	-0.671934	99
Es	0.302559	0.399005	-0.364176	99
Es	-0.438803	-1.587787	0.373007	99
Es	2.270859	1.186483	1.122304	99
Es	-0.626338	-0.477697	-0.343642	99
Es	-0.439588	0.245485	-0.351381	99
Es	-1.552697	-1.309220	-0.265929	99
Es	0.160449	-1.783851	0.739013	99
Es	-0.906195	0.737836	-0.032203	99
Es	-0.590446	-1.533070	-0.975632	99
Es	1.598077	0.720059	0.984994	99
Es	1.840669	1.450437	1.284636	99
Es	1.464403	0.155597	1.449724	99
Es	-1.369763	1.217601	-0.355379	99
Es	2.310769	1.664228	1.317847	99
Es	1.142270	1.196440	-0.768381	99
Es	-0.268392	-1.761246	0.931680	99
Es	1.288230	0.634627	0.274065	99
Es	2.437665	1.723509	1.597554	99
Es	-1.183079	1.931995	-0.369762	99
Es	-2.087528	1.064303	-0.339024	99
Es	-0.312217	-2.338700	0.733880	99
Es	1.033121	0.566257	-0.408783	99
Es	-0.154070	-1.832411	0.754900	99
Es	2.305673	1.808948	1.088443	99
Es	-0.810268	-1.209631	-0.336641	99
Es	1.407721	0.025686	-0.736657	99
42
Properties=species:S:1:pos:R:3:Z:I:1 energy=-343.80841372855036 field_type=dipole dipole="0.000000 0.000000 0.000000" charge=0
O	-0.153927	-1.832183	0.755257	8
C	-0.810397	-1.209563	-0.336823	6
C	-0.439708	0.245587	-0.351383	6
C	-1.369697	1.217536	-0.355383	6
C	1.033163	0.566297	-0.408833	6
C	1.598083	0.720037	0.985047	6
O	2.311092	1.664817	1.317807	8
H	-0.471707	-2.751283	0.782027	1
H	-1.889597	-1.356183	-0.223273	1
H	-0.488287	-1.693173	-1.264733	1
H	-2.432077	0.994036	-0.325743	1
H	-1.091328	2.267986	-0.376783	1
H	1.206283	1.499286	-0.957923	1
H	1.586723	-0.224073	-0.926123	1
H	1.411383	-0.109123	1.686857	1
Es	2.310879	1.664444	1.317847	99
Es	-0.267612	-1.760987	0.931200	99
Es	-0.439591	0.245483	-0.351381	99
Es	0.302667	0.399052	-0.364137	99
Es	1.598073	0.720062	0.984996	99
Es	-0.438522	-1.586773	0.372484	99
Es	-0.810271	-1.209630	-0.336640	99
Es	-1.552609	-1.309221	-0.265966	99
Es	-0.914479	0.724120	-0.672178	99
Es	2.443731	1.738305	1.590993	99
Es	1.407583	0.025469	-0.736476	99
Es	1.142293	1.196690	-0.768561	99
Es	-0.626178	-0.477720	-0.343335	99
Es	-1.369764	1.217601	-0.355389	99
Es	-0.906035	0.737903	-0.031785	99
Es	2.299788	1.794751	1.090304	99
Es	-0.311874	-2.339041	0.734861	99
Es	1.288195	0.634669	0.273932	99
Es	-2.087357	1.064414	-0.339087	99
Es	1.840997	1.451328	1.286234	99
Es	0.159251	-1.784962	0.739006	99
Es	1.464424	0.155410	1.449744	99
Es	1.033121	0.566258	-0.408780	99
Es	-0.154172	-1.832328	0.755030	99
Es	-1.183210	1.932040	-0.370228	99
Es	-0.590577	-1.533017	-0.975498	99
Es	2.270135	1.184831	1.125337	99
42
Properties=species:S:1:pos:R:3:Z:I:1 energy=-343.80841372855036 field_type=dipole dipole="0.000000 0.000000 0.000000" charge=0
O	-0.153927	-1.832183	0.755257	8
C	-0.810397	-1.209563	-0.336823	6
C	-0.439708	0.245587	-0.351383	6
C	-1.369697	1.217536	-0.355383	6
C	1.033163	0.566297	-0.408833	6
C	1.598083	0.720037	0.985047	6
O	2.311092	1.664817	1.317807	8
H	-0.471707	-2.751283	0.782027	1
H	-1.889597	-1.356183	-0.223273	1
H	-0.488287	-1.693173	-1.264733	1
H	-2.432077	0.994036	-0.325743	1
H	-1.091328	2.267986	-0.376783	1
H	1.206283	1.499286	-0.957923	1
H	1.586723	-0.224073	-0.926123	1
H	1.411383	-0.109123	1.686857	1
Es	-0.311105	-2.339033	0.734480	99
Es	-1.552446	-1.309260	-0.265995	99
Es	-0.439589	0.245483	-0.351387	99
Es	-1.369763	1.217602	-0.355386	99
Es	-1.183326	1.932083	-0.370370	99
Es	2.298658	1.789836	1.091759	99
Es	1.142285	1.196845	-0.768607	99
Es	-0.626209	-0.477673	-0.343211	99
Es	-0.914465	0.724224	-0.672272	99
Es	2.271586	1.184600	1.127398	99
Es	1.840367	1.450977	1.285730	99
Es	0.159396	-1.783529	0.741295	99
Es	1.033120	0.566255	-0.408782	99
Es	-0.268142	-1.762357	0.929205	99
Es	0.302771	0.399110	-0.363932	99
Es	1.288033	0.634633	0.273779	99
Es	-0.438849	-1.586958	0.372541	99
Es	1.407540	0.025189	-0.736368	99
Es	-2.087289	1.064344	-0.339154	99
Es	2.310768	1.664672	1.317178	99
Es	-0.154224	-1.832317	0.755042	99
Es	1.464511	0.155365	1.449776	99
Es	-0.590647	-1.532973	-0.975498	99
Es	-0.810269	-1.209630	-0.336644	99
Es	2.444018	1.743660	1.588608	99
Es	-0.905918	0.737945	-0.031654	99
Es	1.598075	0.720058	0.984993	99
42
Properties=species:S:1:pos:R:3:Z:I:1 energy=-343.80841372855036 field_type=dipole dipole="0.000000 0.000000 0.000000" charge=0
O	-0.153927	-1.832183	0.755257	8
C	-0.810397	-1.209563	-0.336823	6
C	-0.439708	0.245587	-0.351383	6
C	-1.369697	1.217536	-0.355383	6
C	1.033163	0.566297	-0.408833	6
C	1.598083	0.720037	0.985047	6
O	2.311092	1.664817	1.317807	8
H	-0.471707	-2.751283	0.782027	1
H	-1.889597	-1.356183	-0.223273	1
H	-0.488287	-1.693173	-1.264733	1
H	-2.432077	0.994036	-0.325743	1
H	-1.091328	2.267986	-0.376783	1
H	1.206283	1.499286	-0.957923	1
H	1.586723	-0.224073	-0.926123	1
H	1.411383	-0.109123	1.686857	1
Es	1.142109	1.197038	-0.768777	99
Es	2.310885	1.664527	1.317739	99
Es	-0.268400	-1.761540	0.929819	99
Es	-0.437877	-1.586966	0.371135	99
Es	-0.810267	-1.209631	-0.336642	99
Es	-1.183451	1.932148	-0.370641	99
Es	-2.087095	1.064420	-0.339162	99
Es	0.158659	-1.784080	0.741631	99
Es	1.840118	1.452579	1.285804	99
Es	-0.154048	-1.832492	0.754868	99
Es	-0.914626	0.724201	-0.672708	99
Es	-0.439590	0.245483	-0.351384	99
Es	1.598077	0.720059	0.984995	99
Es	1.464630	0.155267	1.449735	99
Es	-0.905843	0.737908	-0.031491	99
Es	1.288099	0.634680	0.273510	99
Es	1.033121	0.566257	-0.408782	99
Es	-0.626062	-0.477722	-0.342996	99
Es	-1.369761	1.217598	-0.355386	99
Es	1.407584	0.025122	-0.736218	99
Es	0.302766	0.398920	-0.363388	99
Es	-0.311150	-2.339218	0.735166	99
Es	2.270970	1.183175	1.130076	99
Es	-1.552419	-1.309178	-0.265950	99
Es	-0.590782	-1.532925	-0.975480	99
Es	2.296026	1.780137	1.093893	99
Es	2.447212	1.753383	1.583163	99
42
Properties=species:S:1:pos:R:3:Z:I:1 energy=-343.80841372855036 field_type=dipole dipole="0.000000 0.000000 0.000000" charge=0
O	-0.153927	-1.832183	0.755257	8
C	-0.810397	-1.209563	-0.336823	6
C	-0.439708	0.245587	-0.351383	6
C	-1.369697	1.217536	-0.355383	6
C	1.033163	0.566297	-0.408833	6
C	1.598083	0.720037	0.985047	6
O	2.311092	1.664817	1.317807	8
H	-0.471707	-2.751283	0.782027	1
H	-1.889597	-1.356183	-0.223273	1
H	-0.488287	-1.693173	-1.264733	1
H	-2.432077	0.994036	-0.325743	1
H	-1.091328	2.267986	-0.376783	1
H	1.206283	1.499286	-0.957923	1
H	1.586723	-0.224073	-0.926123	1
H	1.411383	-0.109123	1.686857	1
Es	-0.914488	0.724128	-0.672574	99
Es	1.142191	1.197048	-0.768472	99
Es	-0.267386	-1.765876	0.922375	99
Es	-0.310258	-2.339434	0.733928	99
Es	1.464657	0.155240	1.449696	99
Es	2.310877	1.664436	1.317842	99
Es	2.297046	1.785564	1.092761	99
Es	1.407486	0.025104	-0.736505	99
Es	2.272027	1.184450	1.128194	99
Es	-1.552296	-1.309224	-0.265953	99
Es	-0.905937	0.737960	-0.031383	99
Es	-0.439589	0.245483	-0.351384	99
Es	0.302792	0.399060	-0.363732	99
Es	-0.154104	-1.832342	0.755141	99
Es	-2.087029	1.064446	-0.339009	99
Es	-1.369763	1.217601	-0.355386	99
Es	1.839993	1.451049	1.285607	99
Es	-0.590658	-1.533104	-0.975602	99
Es	-0.810270	-1.209630	-0.336642	99
Es	0.158868	-1.781404	0.745754	99
Es	2.445156	1.748365	1.586326	99
Es	-0.440058	-1.585074	0.375423	99
Es	1.288176	0.634501	0.273579	99
Es	-0.626278	-0.477685	-0.343252	99
Es	1.598073	0.720061	0.984994	99
Es	1.033121	0.566257	-0.408782	99
Es	-1.183464	1.932172	-0.370418	99
42
Properties=species:S:1:pos:R:3:Z:I:1 energy=-343.80841372855036 field_type=dipole dipole="0.000000 0.000000 0.000000" charge=0
O	-0.153927	-1.832183	0.755257	8
C	-0.810397	-1.209563	-0.336823	6
C	-0.439708	0.245587	-0.351383	6
C	-1.369697	1.217536	-0.355383	6
C	1.033163	0.566297	-0.408833	6
C	1.598083	0.720037	0.985047	6
O	2.311092	1.664817	1.317807	8
H	-0.471707	-2.751283	0.782027	1
H	-1.889597	-1.356183	-0.223273	1
H	-0.488287	-1.693173	-1.264733	1
H	-2.432077	0.994036	-0.325743	1
H	-1.091328	2.267986	-0.376783	1
H	1.206283	1.499286	-0.957923	1
H	1.586723	-0.224073	-0.926123	1
H	1.411383	-0.109123	1.686857	1
Es	-0.810270	-1.209630	-0.336642	99
Es	-0.154068	-1.832417	0.754888	99
Es	-0.626290	-0.477629	-0.343149	99
Es	0.302895	0.398976	-0.363472	99
Es	2.296334	1.779518	1.095015	99
Es	-0.439589	0.245483	-0.351385	99
Es	1.464708	0.155072	1.449562	99
Es	-1.183492	1.932217	-0.370701	99
Es	-1.369762	1.217601	-0.355382	99
Es	1.840095	1.452839	1.284665	99
Es	0.158527	-1.784585	0.740965	99
Es	-0.905874	0.737830	-0.031532	99
Es	-0.914504	0.724314	-0.672405	99
Es	2.310897	1.664493	1.317794	99
Es	-0.311301	-2.339242	0.734537	99
Es	1.033121	0.566257	-0.408783	99
Es	1.287927	0.634605	0.273453	99
Es	2.270879	1.183335	1.129508	99
Es	1.407572	0.025053	-0.736173	99
Es	1.598073	0.720060	0.984995	99
Es	-2.087017	1.064330	-0.339396	99
Es	1.142243	1.197297	-0.768514	99
Es	-0.590867	-1.533013	-0.975442	99
Es	2.446795	1.753681	1.583851	99
Es	-1.552188	-1.309279	-0.265936	99
Es	-0.266231	-1.763338	0.926815	99
Es	-0.439729	-1.584679	0.375390	99
42
Properties=species:S:1:pos:R:3:Z:I:1 energy=-343.80841372855036 field_type=dipole dipole="0.000000 0.000000 0.000000" charge=0
O	-0.153927	-1.832183	0.755257	8
C	-0.810397	-1.209563	-0.336823	6
C	-0.439708	0.245587	-0.351383	6
C	-1.369697	1.217536	-0.355383	6
C	1.033163	0.566297	-0.408833	6
C	1.598083	0.720037	0.985047	6
O	2.311092	1.664817	1.317807	8
H	-0.471707	-2.751283	0.782027	1
H	-1.889597	-1.356183	-0.223273	1
H	-0.488287	-1.693173	-1.264733	1
H	-2.432077	0.994036	-0.325743	1
H	-1.091328	2.267986	-0.376783	1
H	1.206283	1.499286	-0.957923	1
H	1.586723	-0.224073	-0.926123	1
H	1.411383	-0.109123	1.686857	1
Es	1.840191	1.452869	1.285409	99
Es	1.407695	0.024877	-0.736180	99
Es	-1.552067	-1.309225	-0.265927	99
Es	-0.905970	0.737882	-0.031364	99
Es	-0.914569	0.724099	-0.672588	99
Es	1.287810	0.634500	0.273295	99
Es	0.159043	-1.780708	0.747657	99
Es	1.598076	0.720060	0.984995	99
Es	-0.267265	-1.767403	0.919966	99
Es	1.142269	1.197262	-0.768377	99
Es	-2.086892	1.064491	-0.339087	99
Es	2.270735	1.183230	1.129232	99
Es	-0.590761	-1.533164	-0.975638	99
Es	-1.369763	1.217601	-0.355384	99
Es	2.446436	1.751826	1.584282	99
Es	-0.309988	-2.339296	0.733468	99
Es	1.464810	0.155121	1.449607	99
Es	-1.183486	1.932234	-0.370478	99
Es	0.302900	0.399150	-0.363773	99
Es	1.033124	0.566256	-0.408783	99
Es	-0.439589	0.245483	-0.351391	99
Es	2.296579	1.781552	1.094053	99
Es	-0.626330	-0.477636	-0.343157	99
Es	2.310889	1.664488	1.317802	99
Es	-0.810272	-1.209630	-0.336644	99
Es	-0.154103	-1.832368	0.755023	99
Es	-0.440617	-1.584402	0.376507	99
42
Properties=species:S:1:pos:R:3:Z:I:1 energy=-343.80841372855036 field_type=dipole dipole="0.000000 0.000000 0.000000" charge=0
O	-0.153927	-1.832183	0.755257	8
C	-0.810397	-1.209563	-0.336823	6
C	-0.439708	0.245587	-0.351383	6
C	-1.369697	1.217536	-0.355383	6
C	1.033163	0.566297	-0.408833	6
C	1.598083	0.720037	0.985047	6
O	2.311092	1.664817	1.317807	8
H	-0.471707	-2.751283	0.782027	1
H	-1.889597	-1.356183	-0.223273	1
H	-0.488287	-1.693173	-1.264733	1
H	-2.432077	0.994036	-0.325743	1
H	-1.091328	2.267986	-0.376783	1
H	1.206283	1.499286	-0.957923	1
H	1.586723	-0.224073	-0.926123	1
H	1.411383	-0.109123	1.686857	1
Es	-1.369763	1.217601	-0.355387	99
Es	-0.905922	0.737882	-0.031205	99
Es	1.598076	0.720061	0.984994	99
Es	1.287833	0.634490	0.273289	99
Es	-0.440229	-1.584290	0.376302	99
Es	-0.154030	-1.832468	0.754877	99
Es	-0.914634	0.724046	-0.673038	99
Es	-0.810268	-1.209631	-0.336641	99
Es	-1.183579	1.932230	-0.370721	99
Es	-0.309912	-2.339617	0.733839	99
Es	-0.590856	-1.532988	-0.975520	99
Es	-1.552053	-1.309234	-0.266016	99
Es	1.033121	0.566257	-0.408782	99
Es	0.302881	0.399035	-0.363551	99
Es	0.158252	-1.781217	0.747057	99
Es	-0.439589	0.245483	-0.351386	99
Es	1.142292	1.197353	-0.768403	99
Es	-0.266954	-1.766771	0.920563	99
Es	2.447029	1.757841	1.581565	99
Es	1.464809	0.155056	1.449627	99
Es	1.407611	0.024909	-0.736197	99
Es	2.295389	1.775862	1.096362	99
Es	2.271743	1.183029	1.130787	99
Es	1.839852	1.452811	1.284262	99
Es	-0.626287	-0.477593	-0.342903	99
Es	2.310845	1.664398	1.317783	99
Es	-2.086774	1.064617	-0.339031	99
42
Properties=species:S:1:pos:R:3:Z:I:1 energy=-343.80841372855036 field_type=dipole dipole="0.000000 0.000000 0.000000" charge=0
O	-0.153927	-1.832183	0.755257	8
C	-0.810397	-1.209563	-0.336823	6
C	-0.439708	0.245587	-0.351383	6
C	-1.369697	1.217536	-0.355383	6
C	1.033163	0.566297	-0.408833	6
C	1.598083	0.720037	0.985047	6
O	2.311092	1.664817	1.317807	8
H	-0.471707	-2.751283	0.782027	1
H	-1.889597	-1.356183	-0.223273	1
H	-0.488287	-1.693173	-1.264733	1
H	-2.432077	0.994036	-0.325743	1
H	-1.091328	2.267986	-0.376783	1
H	1.206283	1.499286	-0.957923	1