41
Properties=species:S:1:pos:R:3:Z:I:1 energy=-359.74981800367345 field_type=dipole dipole="0.000000 0.000000 0.000000" charge=0
C	0.811076	-0.755544	0.641461	6
C	-0.447014	-1.153924	-0.100979	6
C	-1.532324	-0.109944	-0.169749	6
N	-1.468014	1.164116	0.079241	7
O	-0.226684	1.619256	0.564481	8
C	0.838036	1.395336	-0.361719	6
O	1.580326	0.208326	-0.074349	8
H	1.450556	-1.637173	0.757541	1
H	0.598036	-0.389524	1.652891	1
H	-0.890634	-2.034034	0.378191	1
H	-0.210914	-1.427854	-1.135859	1
H	-2.505474	-0.476394	-0.541769	1
H	1.529296	2.241117	-0.293289	1
H	0.473726	1.356236	-1.396089	1
Es	1.799638	0.293972	0.119175	99
Es	1.255016	-0.132065	0.188366	99
Es	-0.297100	-1.325653	-0.794957	99
Es	-0.226769	1.619227	0.563980	99
Es	-1.467508	1.163671	0.079299	99
Es	1.643326	0.086723	-0.348830	99
Es	0.147172	1.502572	0.191804	99
Es	-0.447074	-1.153859	-0.100973	99
Es	-0.249724	1.926647	0.580081	99
Es	0.158631	-0.940270	0.261640	99
Es	1.263991	0.639916	-0.164570	99
Es	0.573181	1.360573	-1.066410	99
Es	-1.563922	0.551076	0.247841	99
Es	-1.397288	0.668222	-0.302147	99
Es	1.241161	-1.361211	0.712252	99
Es	1.307095	1.969982	-0.308533	99
Es	-1.532306	-0.109978	-0.169769	99
Es	-0.979029	-0.605229	-0.120487	99
Es	-0.164132	1.437724	0.798924	99
Es	-1.737651	1.426171	0.054152	99
Es	0.837958	1.395138	-0.361480	99
Es	0.811141	-0.755403	0.641289	99
Es	-2.181814	-0.359508	-0.418682	99
Es	-0.742839	1.387486	0.323531	99
Es	0.652701	-0.512246	1.326913	99
Es	1.579970	0.208343	-0.074319	99
Es	-0.751043	-1.738319	0.224977	99
41
Properties=species:S:1:pos:R:3:Z:I:1 energy=-359.74981800367345 field_type=dipole dipole="0.000000 0.000000 0.000000" charge=0
C	0.811076	-0.755544	0.641461	6
C	-0.447014	-1.153924	-0.100979	6
C	-1.532324	-0.109944	-0.169749	6
N	-1.468014	1.164116	0.079241	7
O	-0.226684	1.619256	0.564481	8
C	0.838036	1.395336	-0.361719	6
O	1.580326	0.208326	-0.074349	8
H	1.450556	-1.637173	0.757541	1
H	0.598036	-0.389524	1.652891	1
H	-0.890634	-2.034034	0.378191	1
H	-0.210914	-1.427854	-1.135859	1
H	-2.505474	-0.476394	-0.541769	1
H	1.529296	2.241117	-0.293289	1
H	0.473726	1.356236	-1.396089	1
Es	-1.396652	0.668081	-0.302645	99
Es	0.572834	1.359877	-1.064961	99
Es	1.802175	0.289152	0.115609	99
Es	-2.182017	-0.360072	-0.418046	99
Es	-1.736650	1.425169	0.052371	99
Es	1.579979	0.208362	-0.074291	99
Es	-0.751879	-1.740273	0.225518	99
Es	-0.297310	-1.324429	-0.793661	99
Es	1.241062	-1.361161	0.712512	99
Es	-1.564335	0.550896	0.249227	99
Es	0.837953	1.395133	-0.361478	99
Es	0.144615	1.501990	0.192605	99
Es	-0.249960	1.936265	0.593026	99
Es	-0.978647	-0.604825	-0.121202	99
Es	1.266508	0.643239	-0.159998	99
Es	-0.742066	1.384194	0.325338	99
Es	-0.226661	1.618899	0.564170	99
Es	1.253728	-0.135907	0.185967	99
Es	1.307824	1.971261	-0.309267	99
Es	0.652353	-0.512449	1.326684	99
Es	-0.162462	1.433609	0.782776	99
Es	-1.532307	-0.109982	-0.169767	99
Es	0.811141	-0.755398	0.641286	99
Es	-0.447076	-1.153865	-0.100973	99
Es	0.158903	-0.939920	0.260742	99
Es	-1.467502	1.163679	0.079298	99
Es	1.639229	0.092175	-0.347772	99
41
Properties=species:S:1:pos:R:3:Z:I:1 energy=-359.74981800367345 field_type=dipole dipole="0.000000 0.000000 0.000000" charge=0
C	0.811076	-0.755544	0.641461	6
C	-0.447014	-1.153924	-0.100979	6
C	-1.532324	-0.109944	-0.169749	6
N	-1.468014	1.164116	0.079241	7
O	-0.226684	1.619256	0.564481	8
C	0.838036	1.395336	-0.361719	6
O	1.580326	0.208326	-0.074349	8
H	1.450556	-1.637173	0.757541	1
H	0.598036	-0.389524	1.652891	1
H	-0.890634	-2.034034	0.378191	1
H	-0.210914	-1.427854	-1.135859	1
H	-2.505474	-0.476394	-0.541769	1
H	1.529296	2.241117	-0.293289	1
H	0.473726	1.356236	-1.396089	1
Es	-0.161479	1.433960	0.772517	99
Es	1.643908	0.096858	-0.345645	99
Es	0.572647	1.359544	-1.064049	99
Es	-1.564130	0.550713	0.249668	99
Es	-0.978690	-0.604815	-0.121310	99
Es	-1.467509	1.163666	0.079302	99
Es	1.579968	0.208371	-0.074263	99
Es	-0.741751	1.380915	0.328185	99
Es	0.159239	-0.939628	0.260591	99
Es	0.652156	-0.512638	1.326723	99
Es	-2.182234	-0.360458	-0.417704	99
Es	-0.226727	1.619097	0.564109	99
Es	1.251459	-0.139969	0.179841	99
Es	-0.249800	1.941346	0.599511	99
Es	1.240933	-1.361137	0.712433	99
Es	-0.297479	-1.323089	-0.792749	99
Es	-0.752302	-1.741759	0.225089	99
Es	-1.395938	0.667984	-0.303144	99
Es	0.837955	1.395135	-0.361483	99
Es	0.142852	1.500833	0.193487	99
Es	-1.736255	1.424214	0.051623	99
Es	1.797802	0.286357	0.117989	99
Es	1.268199	0.645454	-0.158556	99
Es	-0.447078	-1.153865	-0.100972	99
Es	1.308196	1.971994	-0.309640	99
Es	0.811144	-0.755397	0.641280	99
Es	-1.532307	-0.109985	-0.169768	99
41
Properties=species:S:1:pos:R:3:Z:I:1 energy=-359.74981800367345 field_type=dipole dipole="0.000000 0.000000 0.000000" charge=0
C	0.811076	-0.755544	0.641461	6
C	-0.447014	-1.153924	-0.100979	6
C	-1.532324	-0.109944	-0.169749	6
N	-1.468014	1.164116	0.079241	7
O	-0.226684	1.619256	0.564481	8
C	0.838036	1.395336	-0.361719	6
O	1.580326	0.208326	-0.074349	8
H	1.450556	-1.637173	0.757541	1
H	0.598036	-0.389524	1.652891	1
H	-0.890634	-2.034034	0.378191	1
H	-0.210914	-1.427854	-1.135859	1
H	-2.505474	-0.476394	-0.541769	1
H	1.529296	2.241117	-0.293289	1
H	0.473726	1.356236	-1.396089	1
Es	-0.752571	-1.742627	0.225201	99
Es	-0.161742	1.434412	0.765761	99
Es	1.269989	0.647599	-0.154516	99
Es	1.641971	0.100183	-0.345470	99
Es	0.141479	1.499381	0.195242	99
Es	-2.182198	-0.360921	-0.417722	99
Es	-0.978610	-0.604585	-0.121489	99
Es	0.811143	-0.755399	0.641283	99
Es	1.308386	1.972533	-0.309895	99
Es	0.837953	1.395133	-0.361481	99
Es	-0.226671	1.619110	0.564138	99
Es	1.251368	-0.142353	0.178265	99
Es	-0.248616	1.944538	0.603600	99
Es	1.579975	0.208361	-0.074275	99
Es	1.797879	0.283332	0.115231	99
Es	-0.447075	-1.153863	-0.100974	99
Es	1.240813	-1.361077	0.712387	99
Es	-1.532307	-0.109983	-0.169770	99
Es	-1.467511	1.163659	0.079297	99
Es	-0.297692	-1.322420	-0.792206	99
Es	-1.735842	1.423374	0.051237	99
Es	0.159387	-0.939343	0.260204	99
Es	-1.564106	0.550479	0.250362	99
Es	0.572549	1.359335	-1.063353	99
Es	0.652041	-0.512802	1.326738	99
Es	-0.741575	1.379623	0.328785	99
Es	-1.395637	0.668026	-0.303514	99
41
Properties=species:S:1:pos:R:3:Z:I:1 energy=-359.74981800367345 field_type=dipole dipole="0.000000 0.000000 0.000000" charge=0
C	0.811076	-0.755544	0.641461	6
C	-0.447014	-1.153924	-0.100979	6
C	-1.532324	-0.109944	-0.169749	6
N	-1.468014	1.164116	0.079241	7
O	-0.226684	1.619256	0.564481	8
C	0.838036	1.395336	-0.361719	6
O	1.580326	0.208326	-0.074349	8
H	1.450556	-1.637173	0.757541	1
H	0.598036	-0.389524	1.652891	1
H	-0.890634	-2.034034	0.378191	1
H	-0.210914	-1.427854	-1.135859	1
H	-2.505474	-0.476394	-0.541769	1
H	1.529296	2.241117	-0.293289	1
H	0.473726	1.356236	-1.396089	1
Es	1.798013	0.280135	0.112716	99
Es	-1.467507	1.163660	0.079298	99
Es	-0.226715	1.619074	0.564145	99
Es	1.308470	1.972893	-0.310000	99
Es	-0.160736	1.434211	0.758757	99
Es	-1.735733	1.422579	0.051624	99
Es	0.572472	1.359220	-1.062935	99
Es	-0.752810	-1.743423	0.224831	99
Es	-0.978659	-0.604520	-0.121747	99
Es	1.640033	0.102823	-0.343174	99
Es	-0.297617	-1.321712	-0.791604	99
Es	-1.532307	-0.109985	-0.169767	99
Es	1.272114	0.650267	-0.152318	99
Es	0.811138	-0.755393	0.641276	99
Es	1.580047	0.208398	-0.074291	99
Es	0.159543	-0.939264	0.260223	99
Es	0.139858	1.500342	0.195015	99
Es	1.240720	-1.360959	0.712301	99
Es	-1.563671	0.550183	0.250421	99
Es	1.250823	-0.144507	0.176216	99
Es	0.651861	-0.512864	1.326885	99
Es	-1.395498	0.668288	-0.304165	99
Es	-0.741438	1.378021	0.330396	99
Es	-0.248301	1.946131	0.609119	99
Es	-0.447076	-1.153863	-0.100973	99
Es	-2.182198	-0.361165	-0.417702	99
Es	0.837952	1.395131	-0.361480	99
41
Properties=species:S:1:pos:R:3:Z:I:1 energy=-359.74981800367345 field_type=dipole dipole="0.000000 0.000000 0.000000" charge=0
C	0.811076	-0.755544	0.641461	6
C	-0.447014	-1.153924	-0.100979	6
C	-1.532324	-0.109944	-0.169749	6
N	-1.468014	1.164116	0.079241	7
O	-0.226684	1.619256	0.564481	8
C	0.838036	1.395336	-0.361719	6
O	1.580326	0.208326	-0.074349	8
H	1.450556	-1.637173	0.757541	1
H	0.598036	-0.389524	1.652891	1
H	-0.890634	-2.034034	0.378191	1
H	-0.210914	-1.427854	-1.135859	1
H	-2.505474	-0.476394	-0.541769	1
H	1.529296	2.241117	-0.293289	1
H	0.473726	1.356236	-1.396089	1
Es	1.273833	0.652109	-0.150113	99
Es	-0.247851	1.947760	0.610571	99
Es	-1.563733	0.550111	0.250839	99
Es	0.811144	-0.755398	0.641282	99
Es	1.250283	-0.145947	0.173877	99
Es	1.308560	1.973133	-0.310145	99
Es	1.642913	0.104501	-0.343028	99
Es	0.159744	-0.939011	0.260092	99
Es	-1.467523	1.163650	0.079289	99
Es	0.651862	-0.513055	1.326970	99
Es	-1.395237	0.668240	-0.304360	99
Es	-0.741125	1.376574	0.331383	99
Es	-0.297796	-1.321116	-0.790927	99
Es	0.138895	1.499767	0.196334	99
Es	0.572381	1.359145	-1.062537	99
Es	-0.160804	1.435423	0.754966	99
Es	-0.978542	-0.604345	-0.122039	99
Es	1.793788	0.278112	0.112705	99
Es	-0.226656	1.619099	0.564167	99
Es	-1.735271	1.421810	0.051347	99
Es	-2.182227	-0.361458	-0.417807	99
Es	1.240624	-1.360934	0.712124	99
Es	1.580062	0.208358	-0.074291	99
Es	0.837952	1.395131	-0.361479	99
Es	-0.447075	-1.153864	-0.100973	99
Es	-0.753115	-1.744110	0.224592	99
Es	-1.532306	-0.109984	-0.169770	99
41
Properties=species:S:1:pos:R:3:Z:I:1 energy=-359.74981800367345 field_type=dipole dipole="0.000000 0.000000 0.000000" charge=0
C	0.811076	-0.755544	0.641461	6
C	-0.447014	-1.153924	-0.100979	6
C	-1.532324	-0.109944	-0.169749	6
N	-1.468014	1.164116	0.079241	7
O	-0.226684	1.619256	0.564481	8
C	0.838036	1.395336	-0.361719	6
O	1.580326	0.208326	-0.074349	8
H	1.450556	-1.637173	0.757541	1
H	0.598036	-0.389524	1.652891	1
H	-0.890634	-2.034034	0.378191	1
H	-0.210914	-1.427854	-1.135859	1
H	-2.505474	-0.476394	-0.541769	1
H	1.529296	2.241117	-0.293289	1
H	0.473726	1.356236	-1.396089	1
Es	-1.735278	1.421239	0.051418	99
Es	-0.297803	-1.320819	-0.790732	99
Es	-0.978600	-0.604201	-0.121949	99
Es	-0.226709	1.619108	0.564118	99
Es	1.580013	0.208383	-0.074262	99
Es	0.572326	1.359072	-1.062236	99
Es	-0.447075	-1.153864	-0.100973	99
Es	1.308603	1.973360	-0.310226	99
Es	1.796465	0.275642	0.109295	99
Es	0.837952	1.395132	-0.361479	99
Es	-1.563321	0.549838	0.250727	99
Es	1.240588	-1.360976	0.712110	99
Es	-0.753097	-1.744471	0.224537	99
Es	-0.246372	1.948755	0.614886	99
Es	-1.467519	1.163654	0.079292	99
Es	1.275637	0.653688	-0.147558	99
Es	0.651698	-0.513108	1.326947	99
Es	1.638488	0.105427	-0.342688	99
Es	-0.159460	1.434443	0.749639	99
Es	-1.395079	0.668406	-0.304586	99
Es	-1.532307	-0.109985	-0.169767	99
Es	-0.741544	1.376036	0.332456	99
Es	0.159795	-0.938982	0.259973	99
Es	0.136277	1.500917	0.196299	99
Es	0.811143	-0.755399	0.641283	99
Es	-2.182204	-0.361634	-0.417755	99
Es	1.250162	-0.145959	0.174299	99
41
Properties=species:S:1:pos:R:3:Z:I:1 energy=-359.74981800367345 field_type=dipole dipole="0.000000 0.000000 0.000000" charge=0
C	0.811076	-0.755544	0.641461	6
C	-0.447014	-1.153924	-0.100979	6
C	-1.532324	-0.109944	-0.169749	6
N	-1.468014	1.164116	0.079241	7
O	-0.226684	1.619256	0.564481	8
C	0.838036	1.395336	-0.361719	6
O	1.580326	0.208326	-0.074349	8
H	1.450556	-1.637173	0.757541	1
H	0.598036	-0.389524	1.652891	1
H	-0.890634	-2.034034	0.378191	1
H	-0.210914	-1.427854	-1.135859	1
H	-2.505474	-0.476394	-0.541769	1
H	1.529296	2.241117	-0.293289	1
H	0.473726	1.356236	-1.396089	1
Es	1.240512	-1.360833	0.712041	99
Es	-0.978558	-0.604271	-0.122058	99
Es	-2.182209	-0.361853	-0.417805	99
Es	0.811143	-0.755399	0.641283	99
Es	1.580043	0.208400	-0.074264	99
Es	1.308586	1.973506	-0.310093	99
Es	-0.447075	-1.153864	-0.100973	99
Es	-0.741116	1.374654	0.333063	99
Es	0.837951	1.395132	-0.361480	99
Es	0.159812	-0.938784	0.259948	99
Es	0.572228	1.359009	-1.062211	99
Es	-0.753202	-1.745059	0.224209	99
Es	-1.563596	0.549940	0.251149	99
Es	-1.734787	1.420804	0.051437	99
Es	1.790277	0.275110	0.110324	99
Es	1.276299	0.655010	-0.147080	99
Es	-1.532307	-0.109985	-0.169766	99
Es	0.651798	-0.513212	1.327027	99
Es	-0.245895	1.949760	0.614594	99
Es	1.643869	0.107393	-0.340865	99
Es	0.136994	1.498825	0.198043	99
Es	-0.297969	-1.320197	-0.790343	99
Es	-0.226649	1.619151	0.564061	99
Es	-0.161123	1.437099	0.747577	99
Es	-1.394985	0.668396	-0.305066	99
Es	1.250239	-0.148689	0.171016	99
Es	-1.467501	1.163660	0.079301	99
41
Properties=species:S:1:pos:R:3:Z:I:1 energy=-359.74981800367345 field_type=dipole dipole="0.000000 0.000000 0.000000" charge=0
C	0.811076	-0.755544	0.641461	6
C	-0.447014	-1.153924	-0.100979	6
C	-1.532324	-0.109944	-0.169749	6
N	-1.468014	1.164116	0.079241	7
O	-0.226684	1.619256	0.564481	8
C	0.838036	1.395336	-0.361719	6
O	1.580326	0.208326	-0.074349	8
H	1.450556	-1.637173	0.757541	1
H	0.598036	-0.389524	1.652891	1
H	-0.890634	-2.034034	0.378191	1
H	-0.210914	-1.427854	-1.135859	1
H	-2.505474	-0.476394	-0.541769	1
H	1.529296	2.241117	-0.293289	1
H	0.473726	1.356236	-1.396089	1
Es	1.308579	1.973634	-0.310115	99
Es	-1.467506	1.163652	0.079295	99
Es	-0.978641	-0.604115	-0.122318	99
Es	1.249646	-0.149074	0.169473	99
Es	0.651651	-0.513171	1.326986	99
Es	-0.447075	-1.153864	-0.100973	99
Es	-0.740900	1.374553	0.333425	99
Es	-0.297840	-1.320213	-0.790157	99
Es	-1.734361	1.420261	0.050814	99
Es	1.641191	0.108901	-0.340744	99
Es	1.277937	0.655923	-0.144481	99
Es	-0.161273	1.437398	0.745408	99
Es	0.811142	-0.755401	0.641285	99
Es	-1.532307	-0.109985	-0.169768	99
Es	-0.753284	-1.745157	0.224267	99
Es	1.791960	0.273065	0.109042	99
Es	-0.226733	1.619100	0.564178	99
Es	0.159825	-0.938572	0.260019	99
Es	-1.394708	0.668216	-0.304930	99
Es	-0.245432	1.950762	0.615459	99
Es	-2.182160	-0.361993	-0.417843	99
Es	0.572212	1.359022	-1.062011	99
Es	-1.563783	0.549934	0.251649	99
Es	1.240481	-1.361002	0.712029	99
Es	0.837954	1.395134	-0.361482	99
Es	1.579930	0.208350	-0.074260	99
Es	0.136274	1.498344	0.198819	99
41
Properties=species:S:1:pos:R:3:Z:I:1 energy=-359.74981800367345 field_type=dipole dipole="0.000000 0.000000 0.000000" charge=0
C	0.811076	-0.755544	0.641461	6
C	-0.447014	-1.153924	-0.100979	6
C	-1.532324	-0.109944	-0.169749	6
N	-1.468014	1.164116	0.079241	7
O	-0.226684	1.619256	0.564481	8
C	0.838036	1.395336	-0.361719	6
O	1.580326	0.208326	-0.074349	8
H	1.450556	-1.637173	0.757541	1
H	0.598036	-0.389524	1.652891	1
H	-0.890634	-2.034034	0.378191	1
H	-0.210914	-1.427854	-1.135859	1
H	-2.505474	-0.476394	-0.541769	1
H	1.529296	2.241117	-0.293289	1
H	0.473726	1.356236	-1.396089	1
Es	1.788265	0.271452	0.108118	99
Es	-0.753392	-1.745471	0.223999	99
Es	0.811143	-0.755400	0.641284	99
Es	0.651624	-0.513221	1.327059	99
Es	-1.563426	0.549950	0.251214	99
Es	-0.740547	1.372990	0.334344	99
Es	1.279545	0.657854	-0.143021	99
Es	-1.467518	1.163648	0.079290	99
Es	-1.734615	1.420202	0.051716	99
Es	0.572187	1.358934	-1.061897	99
Es	1.240530	-1.360614	0.712119	99
Es	-0.978597	-0.604323	-0.122295	99
Es	-1.394696	0.668330	-0.305465	99
Es	-0.161022	1.438491	0.744999	99
Es	-1.532304	-0.109984	-0.169773	99
Es	0.837955	1.395136	-0.361482	99
Es	-2.182160	-0.362196	-0.417964	99
Es	-0.226709	1.619093	0.564091	99
Es	1.580027	0.208360	-0.074271	99
Es	0.135542	1.498226	0.199373	99
Es	1.643086	0.109896	-0.339474	99
Es	-0.447074	-1.153864	-0.100976	99
Es	-0.297955	-1.319835	-0.789934	99
Es	1.308590	1.973748	-0.310153	99
Es	-0.245270	1.951262	0.614468	99
Es	0.159911	-0.938603	0.259958	99
Es	1.249662	-0.150360	0.167743	99
41
Properties=species:S:1:pos:R:3:Z:I:1 energy=-359.74981800367345 field_type=dipole dipole="0.000000 0.000000 0.000000" charge=0
C	0.811076	-0.755544	0.641461	6
C	-0.447014	-1.153924	-0.100979	6
C	-1.532324	-0.109944	-0.169749	6
N	-1.468014	1.164116	0.079241	7
O	-0.226684	1.619256	0.564481	8
C	0.838036	1.395336	-0.361719	6
O	1.580326	0.208326	-0.074349	8
H	1.450556	-1.637173	0.757541	1
H	0.598036	-0.389524	1.652891	1
H	-0.890634	-2.034034	0.378191	1
H	-0.210914	-1.427854	-1.135859	1
H	-2.505474	-0.476394	-0.541769	1
H	1.529296	2.241117	-0.293289	1
H	0.473726	1.356236	-1.396089	1
Es	1.279835	0.657993	-0.142188	99
Es	-2.182057	-0.362371	-0.418018	99
Es	1.580028	0.208364	-0.074298	99
Es	1.249933	-0.151240	0.167205	99
Es	-1.734178	1.419573	0.051153	99
Es	-0.740796	1.373044	0.334713	99
Es	0.159852	-0.938315	0.260151	99
Es	-0.226677	1.619124	0.564171	99
Es	0.811146	-0.755402	0.641281	99
Es	0.135328	1.497607	0.200164	99
Es	-0.161589	1.439273	0.742954	99
Es	-1.467508	1.163653	0.079293	99
Es	0.572097	1.358869	-1.061716	99
Es	0.651699	-0.513332	1.327170	99
Es	-0.447074	-1.153864	-0.100973	99
Es	0.837956	1.395137	-0.361483	99
Es	1.240411	-1.360780	0.711860	99
Es	1.308594	1.973878	-0.310185	99
Es	1.642858	0.110873	-0.339033	99
Es	-0.297870	-1.319668	-0.789766	99
Es	-0.244530	1.951747	0.615282	99
Es	-1.563638	0.549892	0.251589	99
Es	1.787874	0.271216	0.107391	99
Es	-0.978682	-0.604191	-0.122354	99
Es	-1.532307	-0.109985	-0.169765	99
Es	-0.753356	-1.745673	0.223824	99
Es	-1.394568	0.668282	-0.305357	99
41
Properties=species:S:1:pos:R:3:Z:I:1 energy=-359.74981800367345 field_type=dipole dipole="0.000000 0.000000 0.000000" charge=0
C	0.811076	-0.755544	0.641461	6
C	-0.447014	-1.153924	-0.100979	6
C	-1.532324	-0.109944	-0.169749	6
N	-1.468014	1.164116	0.079241	7
O	-0.226684	1.619256	0.564481	8
C	0.838036	1.395336	-0.361719	6
O	1.580326	0.208326	-0.074349	8
H	1.450556	-1.637173	0.757541	1
H	0.598036	-0.389524	1.652891	1
H	-0.890634	-2.034034	0.378191	1
H	-0.210914	-1.427854	-1.135859	1
H	-2.505474	-0.476394	-0.541769	1
H	1.529296	2.241117	-0.293289	1
H	0.473726	1.356236	-1.396089	1
Es	0.572116	1.358958	-1.061586	99
Es	-0.226732	1.619129	0.564138	99
Es	0.651504	-0.513278	1.327101	99
Es	-0.753403	-1.745795	0.223871	99
Es	1.579971	0.208347	-0.074292	99
Es	-0.447076	-1.153864	-0.100973	99
Es	1.280739	0.658696	-0.141598	99
Es	0.811143	-0.755401	0.641283	99
Es	-0.740474	1.372264	0.334937	99
Es	1.308598	1.973915	-0.310164	99
Es	1.240460	-1.360711	0.712001	99
Es	-1.394703	0.668684	-0.305468	99
Es	1.644016	0.111441	-0.338397	99
Es	-0.978657	-0.604062	-0.122335	99
Es	-0.298003	-1.319581	-0.789619	99
Es	0.837959	1.395139	-0.361486	99
Es	-1.734095	1.419402	0.051412	99
Es	0.134113	1.499186	0.200014	99
Es	-0.244534	1.951780	0.617477	99
Es	-1.467546	1.163648	0.079281	99
Es	-1.563303	0.549504	0.251398	99
Es	-0.160679	1.438532	0.740758	99
Es	0.160061	-0.938555	0.259864	99
Es	1.249495	-0.151672	0.165652	99
Es	-2.182119	-0.362349	-0.418048	99
Es	-1.532306	-0.109985	-0.169767	99
Es	1.786235	0.270329	0.107613	99
41
Properties=species:S:1:pos:R:3:Z:I:1 energy=-359.74981800367345 field_type=dipole dipole="0.000000 0.000000 0.000000" charge=0
C	0.811076	-0.755544	0.641461	6
C	-0.447014	-1.153924	-0.100979	6
C	-1.532324	-0.109944	-0.169749	6
N	-1.468014	1.164116	0.079241	7
O	-0.226684	1.619256	0.564481	8
C	0.838036	1.395336	-0.361719	6
O	1.580326	0.208326	-0.074349	8
H	1.450556	-1.637173	0.757541	1
H	0.598036	-0.389524	1.652891	1
H	-0.890634	-2.034034	0.378191	1
H	-0.210914	-1.427854	-1.135859	1
H	-2.505474	-0.476394	-0.541769	1
H	1.529296	2.241117	-0.293289	1
H	0.473726	1.356236	-1.396089	1
Es	0.811141	-0.755402	0.641288	99
Es	1.579949	0.208397	-0.074205	99
Es	-0.740142	1.371302	0.335823	99
Es	0.651551	-0.513310	1.327174	99
Es	-1.734227	1.419256	0.051633	99
Es	0.134076	1.497616	0.201068	99
Es	-1.394631	0.668540	-0.305637	99
Es	-0.753514	-1.746061	0.223600	99
Es	-0.298027	-1.319272	-0.789392	99
Es	0.572020	1.358858	-1.061679	99
Es	1.786372	0.269479	0.105864	99
Es	0.837948	1.395125	-0.361480	99
Es	-1.467485	1.163665	0.079304	99
Es	-1.563216	0.549608	0.251501	99
Es	1.308544	1.973996	-0.310085	99
Es	1.281599	0.659471	-0.140226	99
Es	-0.447075	-1.153864	-0.100973	99
Es	-1.532308	-0.109986	-0.169762	99
Es	-0.226701	1.619122	0.564108	99
Es	-2.182043	-0.362559	-0.418119	99
Es	1.249774	-0.151985	0.165905	99
Es	0.160084	-0.938309	0.260041	99
Es	1.642763	0.111834	-0.338245	99
Es	-0.244033	1.952665	0.615816	99
Es	1.240419	-1.360687	0.711922	99
Es	-0.161451	1.440317	0.740361	99
Es	-0.978606	-0.604114	-0.122536	99
41
Properties=species:S:1:pos:R:3:Z:I:1 energy=-359.74981800367345 field_type=dipole dipole="0.000000 0.000000 0.000000" charge=0
C	0.811076	-0.755544	0.641461	6
C	-0.447014	-1.153924	-0.100979	6
C	-1.532324	-0.109944	-0.169749	6
N	-1.468014	1.164116	0.079241	7
O	-0.226684	1.619256	0.564481	8
C	0.838036	1.395336	-0.361719	6
O	1.580326	0.208326	-0.074349	8
H	1.450556	-1.637173	0.757541	1
H	0.598036	-0.389524	1.652891	1
H	-0.890634	-2.034034	0.378191	1
H	-0.210914	-1.427854	-1.135859	1
H	-2.505474	-0.476394	-0.541769	1
H	1.529296	2.241117	-0.293289	1
H	0.473726	1.356236	-1.396089	1
Es	1.283523	0.660848	-0.137571	99
Es	-1.563254	0.549814	0.251549	99
Es	0.811142	-0.755404	0.641288	99
Es	-0.244381	1.952095	0.619193	99
Es	1.638019	0.112382	-0.338106	99
Es	-0.740274	1.372070	0.335250	99
Es	-1.394403	0.668186	-0.305384	99
Es	-0.226701	1.619101	0.564105	99
Es	1.250174	-0.151853	0.167099	99
Es	0.572025	1.358839	-1.061545	99
Es	0.133498	1.499468	0.200062	99
Es	-0.298037	-1.319091	-0.789068	99
Es	0.160077	-0.938105	0.260067	99
Es	-2.182005	-0.362792	-0.418198	99
Es	-1.532306	-0.109984	-0.169769	99
Es	-1.734121	1.418974	0.051407	99
Es	1.240473	-1.360794	0.711923	99
Es	-0.978682	-0.603927	-0.122672	99
Es	0.837956	1.395135	-0.361481	99
Es	-1.467542	1.163644	0.079281	99
Es	-0.447077	-1.153863	-0.100973	99
Es	1.308559	1.974058	-0.310131	99
Es	-0.160624	1.438716	0.738552	99
Es	0.651532	-0.513358	1.327067	99
Es	1.579963	0.208347	-0.074302	99
Es	1.788678	0.267526	0.101997	99
Es	-0.753431	-1.746332	0.223428	99
41
Properties=species:S:1:pos:R:3:Z:I:1 energy=-359.74981800367345 field_type=dipole dipole="0.000000 0.000000 0.000000" charge=0
C	0.811076	-0.755544	0.641461	6
C	-0.447014	-1.153924	-0.100979	6
C	-1.532324	-0.109944	-0.169749	6
N	-1.468014	1.164116	0.079241	7
O	-0.226684	1.619256	0.564481	8
C	0.838036	1.395336	-0.361719	6
O	1.580326	0.208326	-0.074349	8
H	1.450556	-1.637173	0.757541	1
H	0.598036	-0.389524	1.652891	1
H	-0.890634	-2.034034	0.378191	1
H	-0.210914	-1.427854	-1.135859	1
H	-2.505474	-0.476394	-0.541769	1
H	1.529296	2.241117	-0.293289	1
H	0.473726	1.356236	-1.396089	1
Es	1.641220	0.113066	-0.337551	99
Es	0.132854	1.498739	0.200963	99
Es	-1.394237	0.668110	-0.305506	99
Es	-1.733990	1.418672	0.051371	99
Es	-0.226690	1.619126	0.564111	99
Es	1.308556	1.974077	-0.310160	99
Es	-0.753407	-1.746453	0.223336	99
Es	0.651510	-0.513353	1.327168	99
Es	0.811143	-0.755402	0.641286	99
Es	-0.298114	-1.318936	-0.789031	99
Es	-2.181996	-0.362791	-0.418248	99
Es	0.837954	1.395131	-0.361475	99
Es	1.249784	-0.152708	0.164643	99
Es	-1.563320	0.549882	0.251584	99
Es	1.240420	-1.360627	0.711925	99
Es	0.572009	1.358837	-1.061501	99
Es	-1.467504	1.163650	0.079296	99
Es	-0.978745	-0.603894	-0.122462	99
Es	-0.740359	1.371618	0.335940	99
Es	-0.160797	1.439575	0.738298	99
Es	-0.447074	-1.153866	-0.100972	99
Es	0.160138	-0.938312	0.259921	99
Es	-0.243651	1.952697	0.617933	99
Es	1.785598	0.267585	0.103960	99
Es	1.283624	0.660894	-0.137638	99
Es	1.580157	0.208371	-0.074352	99
Es	-1.532305	-0.109984	-0.169771	99
41
Properties=species:S:1:pos:R:3:Z:I:1 energy=-359.74981800367345 field_type=dipole dipole="0.000000 0.000000 0.000000" charge=0
C	0.811076	-0.755544	0.641461	6
C	-0.447014	-1.153924	-0.100979	6
C	-1.532324	-0.109944	-0.169749	6
N	-1.468014	1.164116	0.079241	7
O	-0.226684	1.619256	0.564481	8
C	0.838036	1.395336	-0.361719	6
O	1.580326	0.208326	-0.074349	8
H	1.450556	-1.637173	0.757541	1
H	0.598036	-0.389524	1.652891	1
H	-0.890634	-2.034034	0.378191	1
H	-0.210914	-1.427854	-1.135859	1
H	-2.505474	-0.476394	-0.541769	1
H	1.529296	2.241117	-0.293289	1
H	0.473726	1.356236	-1.396089	1
Es	1.644420	0.113419	-0.336835	99
Es	1.240471	-1.360374	0.711970	99
Es	-0.978726	-0.604054	-0.122632	99
Es	-0.739813	1.369998	0.336734	99
Es	1.580000	0.208353	-0.074289	99
Es	-0.160524	1.440237	0.737078	99
Es	-1.532309	-0.109987	-0.169766	99
Es	1.782709	0.268031	0.105110	99
Es	0.571945	1.358816	-1.061465	99
Es	-1.394340	0.668336	-0.305637	99
Es	-2.181996	-0.362739	-0.418250	99
Es	0.837957	1.395137	-0.361483	99
Es	-0.226720	1.619123	0.564070	99
Es	-1.734065	1.418828	0.051554	99
Es	-1.467508	1.163654	0.079295	99
Es	-0.753447	-1.746450	0.223351	99
Es	-1.563190	0.549698	0.251516	99
Es	-0.447075	-1.153865	-0.100973	99
Es	1.283379	0.660944	-0.138265	99
Es	-0.243612	1.952955	0.617969	99
Es	0.651477	-0.513366	1.327246	99
Es	1.249782	-0.153559	0.163354	99
Es	-0.298124	-1.318975	-0.788942	99
Es	0.160179	-0.938417	0.259815	99
Es	1.308553	1.974137	-0.310085	99
Es	0.811142	-0.755399	0.641284	99
Es	0.132217	1.499222	0.201344	99
41
Properties=species:S:1:pos:R:3:Z:I:1 energy=-359.74981800367345 field_type=dipole dipole="0.000000 0.000000 0.000000" charge=0
C	0.811076	-0.755544	0.641461	6
C	-0.447014	-1.153924	-0.100979	6
C	-1.532324	-0.109944	-0.169749	6
N	-1.468014	1.164116	0.079241	7
O	-0.226684	1.619256	0.564481	8
C	0.838036	1.395336	-0.361719	6
O	1.580326	0.208326	-0.074349	8
H	1.450556	-1.637173	0.757541	1
H	0.598036	-0.389524	1.652891	1
H	-0.890634	-2.034034	0.378191	1
H	-0.210914	-1.427854	-1.135859	1
H	-2.505474	-0.476394	-0.541769	1
H	1.529296	2.241117	-0.293289	1
H	0.473726	1.356236	-1.396089	1
Es	-0.243253	1.953315	0.617363	99
Es	-1.467501	1.163654	0.079297	99
Es	1.308534	1.974157	-0.310091	99
Es	0.160197	-0.938241	0.259991	99
Es	0.571892	1.358751	-1.061519	99
Es	0.837956	1.395135	-0.361483	99
Es	-0.740052	1.370999	0.336289	99
Es	-0.753533	-1.746607	0.223138	99
Es	-1.532304	-0.109983	-0.169776	99
Es	-0.978710	-0.603966	-0.122446	99
Es	-0.298171	-1.318699	-0.788936	99
Es	-2.181957	-0.362886	-0.418328	99
Es	-0.161178	1.440309	0.737479	99
Es	0.651493	-0.513364	1.327208	99
Es	1.641137	0.114200	-0.336638	99
Es	1.240434	-1.360594	0.711896	99
Es	1.580011	0.208357	-0.074283	99
Es	1.783779	0.265823	0.102324	99
Es	0.132562	1.498098	0.201837	99
Es	-0.226665	1.619109	0.564264	99
Es	-1.733892	1.418554	0.051393	99
Es	1.285941	0.662403	-0.135327	99
Es	0.811143	-0.755399	0.641281	99
Es	-0.447075	-1.153865	-0.100974	99
Es	1.249468	-0.153552	0.163085	99
Es	-1.394108	0.668083	-0.305651	99
Es	-1.563371	0.549910	0.251674	99
41
Properties=species:S:1:pos:R:3:Z:I:1 energy=-359.74981800367345 field_type=dipole dipole="0.000000 0.000000 0.000000" charge=0
C	0.811076	-0.755544	0.641461	6
C	-0.447014	-1.153924	-0.100979	6
C	-1.532324	-0.109944	-0.169749	6
N	-1.468014	1.164116	0.079241	7
O	-0.226684	1.619256	0.564481	8
C	0.838036	1.395336	-0.361719	6
O	1.580326	0.208326	-0.074349	8
H	1.450556	-1.637173	0.757541	1
H	0.598036	-0.389524	1.652891	1
H	-0.890634	-2.034034	0.378191	1
H	-0.210914	-1.427854	-1.135859	1
H	-2.505474	-0.476394	-0.541769	1
H	1.529296	2.241117	-0.293289	1
H	0.473726	1.356236	-1.396089	1
Es	1.786420	0.271235	0.103711	99
Es	-1.532306	-0.109985	-0.169766	99
Es	0.571400	1.359034	-1.062909	99
Es	-1.467512	1.163648	0.079291	99
Es	1.251361	-0.152284	0.169445	99
Es	0.159247	-0.938321	0.259920	99
Es	1.641949	0.110149	-0.334555	99
Es	1.240503	-1.360875	0.711730	99
Es	1.280334	0.659900	-0.144698	99
Es	-0.198701	1.537365	0.641552	99
Es	-0.979038	-0.604475	-0.121120	99
Es	0.837954	1.395134	-0.361480	99
Es	1.580041	0.208354	-0.074288	99
Es	-0.737168	1.363436	0.340646	99
Es	-2.181510	-0.362161	-0.418159	99
Es	0.811146	-0.755404	0.641282	99
Es	-0.193654	1.531748	0.657475	99
Es	-0.297488	-1.319089	-0.789456	99
Es	-1.732660	1.419822	0.047140	99
Es	1.308084	1.973787	-0.308989	99
Es	0.133380	1.492602	0.208152	99
Es	-0.753223	-1.746499	0.224134	99
Es	-1.392788	0.667914	-0.304816	99
Es	-0.447075	-1.153864	-0.100973	99
Es	0.651600	-0.513491	1.327191	99
Es	-1.565589	0.549759	0.253259	99
Es	-0.241925	1.956263	0.609349	99
41
Properties=species:S:1:pos:R:3:Z:I:1 energy=-359.74981800367345 field_type=dipole dipole="0.000000 0.000000 0.000000" charge=0
C	0.811076	-0.755544	0.641461	6
C	-0.447014	-1.153924	-0.100979	6
C	-1.532324	-0.109944	-0.169749	6
N	-1.468014	1.164116	0.079241	7
O	-0.226684	1.619256	0.564481	8
C	0.838036	1.395336	-0.361719	6
O	1.580326	0.208326	-0.074349	8
H	1.450556	-1.637173	0.757541	1
H	0.598036	-0.389524	1.652891	1
H	-0.890634	-2.034034	0.378191	1
H	-0.210914	-1.427854	-1.135859	1
H	-2.505474	-0.476394	-0.541769	1
H	1.529296	2.241117	-0.293289	1
H	0.473726	1.356236	-1.396089	1
Es	0.571876	1.358744	-1.061423	99
Es	-0.447075	-1.153865	-0.100973	99
Es	-0.739813	1.370518	0.336106	99
Es	-0.978813	-0.603774	-0.122610	99
Es	-1.563322	0.549623	0.251876	99
Es	1.249972	-0.154499	0.162164	99
Es	-0.753409	-1.746692	0.223222	99
Es	1.639823	0.115469	-0.335961	99
Es	0.160040	-0.938358	0.259868	99
Es	-0.243242	1.953122	0.619875	99
Es	1.308519	1.974234	-0.310080	99
Es	0.131961	1.499308	0.201833	99
Es	0.651536	-0.513464	1.327259	99
Es	-1.394265	0.668361	-0.305709	99
Es	0.837953	1.395134	-0.361481	99
Es	-1.467490	1.163671	0.079305	99
Es	-2.181940	-0.362884	-0.418309	99
Es	-1.733595	1.418217	0.051283	99
Es	-0.298041	-1.318765	-0.788789	99
Es	0.811144	-0.755400	0.641283	99
Es	1.240384	-1.360492	0.711830	99
Es	-0.226703	1.619058	0.564139	99
Es	1.286464	0.662764	-0.133725	99
Es	1.783922	0.265185	0.101005	99
Es	-1.532305	-0.109986	-0.169769	99
Es	-0.160889	1.440136	0.735153	99
Es	1.580088	0.208337	-0.074304	99
41
Properties=species:S:1:pos:R:3:Z:I:1 energy=-359.74981800367345 field_type=dipole dipole="0.000000 0.000000 0.000000" charge=0
C	0.811076	-0.755544	0.641461	6
C	-0.447014	-1.153924	-0.100979	6
C	-1.532324	-0.109944	-0.169749	6
N	-1.468014	1.164116	0.079241	7
O	-0.226684	1.619256	0.564481	8
C	0.838036	1.395336	-0.361719	6
O	1.580326	0.208326	-0.074349	8
H	1.450556	-1.637173	0.757541	1
H	0.598036	-0.389524	1.652891	1
H	-0.890634	-2.034034	0.378191	1
H	-0.210914	-1.427854	-1.135859	1
H	-2.505474	-0.476394	-0.541769	1
H	1.529296	2.241117	-0.293289	1
H	0.473726	1.356236	-1.396089	1
Es	-1.467509	1.163646	0.079297	99
Es	-0.298148	-1.318586	-0.788672	99
Es	-1.394275	0.668576	-0.306002	99
Es	-2.181904	-0.363088	-0.418349	99
Es	-0.161405	1.440719	0.735194	99
Es	1.579971	0.208332	-0.074310	99
Es	-0.753461	-1.746828	0.223064	99
Es	-0.978844	-0.603712	-0.122518	99
Es	-1.532306	-0.109986	-0.169769	99
Es	1.641736	0.115345	-0.335534	99
Es	-1.563118	0.549475	0.251683	99
Es	0.571874	1.358779	-1.061410	99
Es	-0.242833	1.953495	0.619024	99
Es	1.249620	-0.154666	0.161379	99
Es	-0.447075	-1.153864	-0.100974	99
Es	0.811143	-0.755400	0.641283	99
Es	1.286953	0.663069	-0.134133	99
Es	-1.733573	1.418024	0.051622	99