42
Properties=species:S:1:pos:R:3:Z:I:1 energy=-339.94576001719895 field_type=dipole dipole="0.000000 0.000000 0.000000" charge=0
C	1.297906	0.026729	0.060851	6
C	0.393956	-1.101931	0.536371	6
N	-0.768394	-1.233251	-0.340889	7
N	-1.852704	-0.451561	-0.096939	7
C	-1.707844	0.812659	0.154601	6
O	-0.592574	1.585769	0.157481	8
C	0.536166	1.158459	-0.610899	6
H	2.043146	-0.358921	-0.645709	1
H	1.847806	0.414989	0.926651	1
H	0.965666	-2.036681	0.532551	1
H	0.074596	-0.939731	1.573221	1
H	-1.071604	-2.211142	-0.348999	1
H	-2.575064	1.423809	0.448481	1
H	1.198226	2.023549	-0.724159	1
H	0.210716	0.887259	-1.622619	1
Es	-0.198610	1.385943	-0.131328	99
Es	0.173120	-0.982215	1.247126	99
Es	1.673503	0.294376	0.652264	99
Es	-1.284873	-0.821483	-0.186317	99
Es	-2.292030	1.222044	0.347661	99
Es	-1.707621	0.812776	0.154620	99
Es	0.841550	-0.526838	0.295818	99
Es	0.535971	1.158509	-0.610725	99
Es	-0.956671	-1.819617	-0.319748	99
Es	-0.695497	1.839473	0.042426	99
Es	-1.800204	0.157255	-0.277040	99
Es	-1.745261	0.015239	0.299761	99
Es	-0.768682	-1.233311	-0.340251	99
Es	-0.592587	1.585386	0.157324	99
Es	-1.852178	-0.451297	-0.096928	99
Es	1.297879	0.026736	0.060842	99
Es	0.311094	0.967771	-1.296081	99
Es	0.777983	-1.743430	0.525461	99
Es	-0.292587	-1.163504	0.069134	99
Es	-2.180940	-0.609385	-0.108465	99
Es	-0.535761	1.556301	0.438566	99
Es	1.802015	-0.232360	-0.427501	99
Es	0.393868	-1.101922	0.536259	99
Es	0.905284	0.584137	-0.268874	99
Es	-0.989203	1.249896	0.121087	99
Es	-0.676042	-1.139014	-0.643782	99
Es	0.987075	1.748849	-0.680595	99
42
Properties=species:S:1:pos:R:3:Z:I:1 energy=-339.94576001719895 field_type=dipole dipole="0.000000 0.000000 0.000000" charge=0
C	1.297906	0.026729	0.060851	6
C	0.393956	-1.101931	0.536371	6
N	-0.768394	-1.233251	-0.340889	7
N	-1.852704	-0.451561	-0.096939	7
C	-1.707844	0.812659	0.154601	6
O	-0.592574	1.585769	0.157481	8
C	0.536166	1.158459	-0.610899	6
H	2.043146	-0.358921	-0.645709	1
H	1.847806	0.414989	0.926651	1
H	0.965666	-2.036681	0.532551	1
H	0.074596	-0.939731	1.573221	1
H	-1.071604	-2.211142	-0.348999	1
H	-2.575064	1.423809	0.448481	1
H	1.198226	2.023549	-0.724159	1
H	0.210716	0.887259	-1.622619	1
Es	0.172654	-0.981895	1.245780	99
Es	-0.686166	1.870729	0.070810	99
Es	-0.955536	-1.824383	-0.327749	99
Es	1.673050	0.294250	0.651801	99
Es	-0.543250	1.523744	0.412994	99
Es	-0.291772	-1.162426	0.067976	99
Es	1.297879	0.026737	0.060842	99
Es	0.840534	-0.526191	0.296273	99
Es	1.802478	-0.232251	-0.427461	99
Es	-0.677647	-1.137591	-0.632180	99
Es	-1.743943	0.015720	0.299547	99
Es	-0.592603	1.585418	0.157287	99
Es	-0.198991	1.385722	-0.131206	99
Es	-1.286175	-0.821339	-0.188940	99
Es	0.904884	0.583929	-0.269041	99
Es	-0.768607	-1.233285	-0.340382	99
Es	-1.852132	-0.451271	-0.096928	99
Es	0.535972	1.158511	-0.610725	99
Es	-0.990997	1.251564	0.118391	99
Es	0.310867	0.967627	-1.295121	99
Es	-2.180764	-0.607251	-0.108169	99
Es	-2.292248	1.222029	0.348140	99
Es	0.778656	-1.745136	0.525651	99
Es	-1.799537	0.156968	-0.276673	99
Es	0.393870	-1.101923	0.536261	99
Es	0.987739	1.749528	-0.681089	99
Es	-1.707619	0.812779	0.154625	99
42
Properties=species:S:1:pos:R:3:Z:I:1 energy=-339.94576001719895 field_type=dipole dipole="0.000000 0.000000 0.000000" charge=0
C	1.297906	0.026729	0.060851	6
C	0.393956	-1.101931	0.536371	6
N	-0.768394	-1.233251	-0.340889	7
N	-1.852704	-0.451561	-0.096939	7
C	-1.707844	0.812659	0.154601	6
O	-0.592574	1.585769	0.157481	8
C	0.536166	1.158459	-0.610899	6
H	2.043146	-0.358921	-0.645709	1
H	1.847806	0.414989	0.926651	1
H	0.965666	-2.036681	0.532551	1
H	0.074596	-0.939731	1.573221	1
H	-1.071604	-2.211142	-0.348999	1
H	-2.575064	1.423809	0.448481	1
H	1.198226	2.023549	-0.724159	1
H	0.210716	0.887259	-1.622619	1
Es	0.904498	0.583593	-0.269068	99
Es	1.802520	-0.232210	-0.427508	99
Es	1.297879	0.026736	0.060843	99
Es	-1.707620	0.812780	0.154617	99
Es	-0.993803	1.254287	0.114803	99
Es	-0.291271	-1.162056	0.067388	99
Es	-1.744668	0.015067	0.301098	99
Es	-0.673328	1.892398	0.106407	99
Es	0.535977	1.158512	-0.610728	99
Es	-0.678655	-1.136971	-0.626587	99
Es	0.393867	-1.101923	0.536257	99
Es	0.310713	0.967538	-1.294709	99
Es	-1.798273	0.157364	-0.276215	99
Es	-0.200206	1.386745	-0.133173	99
Es	0.988030	1.749805	-0.681321	99
Es	-2.179638	-0.604914	-0.109812	99
Es	0.172306	-0.981746	1.245185	99
Es	-0.552223	1.498488	0.382974	99
Es	-1.852119	-0.451309	-0.096943	99
Es	-2.292208	1.221994	0.348467	99
Es	1.672982	0.294343	0.651879	99
Es	-1.287147	-0.822280	-0.190099	99
Es	-0.592627	1.585450	0.157271	99
Es	0.840314	-0.525804	0.296274	99
Es	-0.954788	-1.826308	-0.332138	99
Es	0.778797	-1.745950	0.525721	99
Es	-0.768716	-1.233317	-0.340168	99
42
Properties=species:S:1:pos:R:3:Z:I:1 energy=-339.94576001719895 field_type=dipole dipole="0.000000 0.000000 0.000000" charge=0
C	1.297906	0.026729	0.060851	6
C	0.393956	-1.101931	0.536371	6
N	-0.768394	-1.233251	-0.340889	7
N	-1.852704	-0.451561	-0.096939	7
C	-1.707844	0.812659	0.154601	6
O	-0.592574	1.585769	0.157481	8
C	0.536166	1.158459	-0.610899	6
H	2.043146	-0.358921	-0.645709	1
H	1.847806	0.414989	0.926651	1
H	0.965666	-2.036681	0.532551	1
H	0.074596	-0.939731	1.573221	1
H	-1.071604	-2.211142	-0.348999	1
H	-2.575064	1.423809	0.448481	1
H	1.198226	2.023549	-0.724159	1
H	0.210716	0.887259	-1.622619	1
Es	-1.707618	0.812780	0.154624	99
Es	1.297879	0.026736	0.060842	99
Es	-0.663554	1.903007	0.133624	99
Es	-0.995025	1.256662	0.112173	99
Es	-1.287809	-0.822880	-0.190865	99
Es	0.310630	0.967661	-1.294526	99
Es	0.840049	-0.525679	0.296236	99
Es	0.535973	1.158512	-0.610724	99
Es	0.904284	0.583498	-0.269144	99
Es	-0.202062	1.387558	-0.135393	99
Es	-0.678978	-1.136843	-0.623466	99
Es	-0.291383	-1.161827	0.067252	99
Es	-0.592681	1.585406	0.157144	99
Es	-0.558978	1.484821	0.360715	99
Es	-1.744252	0.015396	0.301672	99
Es	0.988128	1.749963	-0.681347	99
Es	1.673082	0.294202	0.651894	99
Es	-0.954307	-1.827335	-0.334373	99
Es	-2.178431	-0.603759	-0.109422	99
Es	-2.292193	1.221993	0.348529	99
Es	0.778985	-1.746477	0.525692	99
Es	-0.768723	-1.233297	-0.340167	99
Es	1.802389	-0.232111	-0.427402	99
Es	-1.852128	-0.451290	-0.096925	99
Es	0.393870	-1.101922	0.536260	99
Es	-1.798669	0.157178	-0.276994	99
Es	0.172116	-0.981642	1.244807	99
42
Properties=species:S:1:pos:R:3:Z:I:1 energy=-339.94576001719895 field_type=dipole dipole="0.000000 0.000000 0.000000" charge=0
C	1.297906	0.026729	0.060851	6
C	0.393956	-1.101931	0.536371	6
N	-0.768394	-1.233251	-0.340889	7
N	-1.852704	-0.451561	-0.096939	7
C	-1.707844	0.812659	0.154601	6
O	-0.592574	1.585769	0.157481	8
C	0.536166	1.158459	-0.610899	6
H	2.043146	-0.358921	-0.645709	1
H	1.847806	0.414989	0.926651	1
H	0.965666	-2.036681	0.532551	1
H	0.074596	-0.939731	1.573221	1
H	-1.071604	-2.211142	-0.348999	1
H	-2.575064	1.423809	0.448481	1
H	1.198226	2.023549	-0.724159	1
H	0.210716	0.887259	-1.622619	1
Es	-0.563709	1.484987	0.348675	99
Es	0.988211	1.750134	-0.681387	99
Es	0.535973	1.158512	-0.610724	99
Es	-2.177426	-0.602530	-0.109478	99
Es	-0.293388	-1.162339	0.068597	99
Es	-0.953756	-1.828170	-0.337154	99
Es	-1.707621	0.812780	0.154613	99
Es	-0.677415	-1.135972	-0.621088	99
Es	0.839875	-0.525560	0.296103	99
Es	-0.768686	-1.233318	-0.340190	99
Es	0.310512	0.967661	-1.294386	99
Es	-1.798596	0.157188	-0.277394	99
Es	1.297879	0.026736	0.060843	99
Es	-2.292154	1.221988	0.348624	99
Es	-1.744117	0.015412	0.302332	99
Es	-1.852098	-0.451270	-0.096926	99
Es	-0.660385	1.906251	0.140764	99
Es	1.673218	0.294081	0.651933	99
Es	-0.995043	1.255049	0.113966	99
Es	1.802218	-0.232025	-0.427322	99
Es	-1.288648	-0.823614	-0.191858	99
Es	-0.200372	1.385901	-0.132173	99
Es	0.778987	-1.746888	0.525675	99
Es	-0.592892	1.585294	0.157087	99
Es	0.171964	-0.981567	1.244537	99
Es	0.393867	-1.101922	0.536257	99
Es	0.904199	0.583516	-0.269211	99
42
Properties=species:S:1:pos:R:3:Z:I:1 energy=-339.94576001719895 field_type=dipole dipole="0.000000 0.000000 0.000000" charge=0
C	1.297906	0.026729	0.060851	6
C	0.393956	-1.101931	0.536371	6
N	-0.768394	-1.233251	-0.340889	7
N	-1.852704	-0.451561	-0.096939	7
C	-1.707844	0.812659	0.154601	6
O	-0.592574	1.585769	0.157481	8
C	0.536166	1.158459	-0.610899	6
H	2.043146	-0.358921	-0.645709	1
H	1.847806	0.414989	0.926651	1
H	0.965666	-2.036681	0.532551	1
H	0.074596	-0.939731	1.573221	1
H	-1.071604	-2.211142	-0.348999	1
H	-2.575064	1.423809	0.448481	1
H	1.198226	2.023549	-0.724159	1
H	0.210716	0.887259	-1.622619	1
Es	-2.176780	-0.601563	-0.109281	99
Es	-0.953501	-1.828627	-0.338196	99
Es	-0.677586	-1.136311	-0.619135	99
Es	0.779011	-1.747249	0.525679	99
Es	0.171846	-0.981567	1.244218	99
Es	-1.743954	0.015378	0.302579	99
Es	-1.707619	0.812780	0.154623	99
Es	-0.293445	-1.162145	0.068458	99
Es	-0.994857	1.255150	0.114063	99
Es	-1.289244	-0.823948	-0.192774	99
Es	-1.798420	0.157277	-0.277543	99
Es	0.310441	0.967804	-1.294182	99
Es	0.903955	0.583312	-0.269443	99
Es	1.673227	0.294102	0.651907	99
Es	-0.768714	-1.233318	-0.340158	99
Es	-0.657226	1.908907	0.150768	99
Es	-0.592743	1.585415	0.157179	99
Es	0.393867	-1.101924	0.536254	99
Es	0.839869	-0.525531	0.296191	99
Es	-2.292150	1.222033	0.348599	99
Es	-0.202132	1.386500	-0.133982	99
Es	1.297879	0.026736	0.060842	99
Es	-0.565480	1.481539	0.340261	99
Es	0.988308	1.750241	-0.681423	99
Es	0.535980	1.158512	-0.610735	99
Es	-1.852107	-0.451271	-0.096930	99
Es	1.802170	-0.231916	-0.427126	99
42
Properties=species:S:1:pos:R:3:Z:I:1 energy=-339.94576001719895 field_type=dipole dipole="0.000000 0.000000 0.000000" charge=0
C	1.297906	0.026729	0.060851	6
C	0.393956	-1.101931	0.536371	6
N	-0.768394	-1.233251	-0.340889	7
N	-1.852704	-0.451561	-0.096939	7
C	-1.707844	0.812659	0.154601	6
O	-0.592574	1.585769	0.157481	8
C	0.536166	1.158459	-0.610899	6
H	2.043146	-0.358921	-0.645709	1
H	1.847806	0.414989	0.926651	1
H	0.965666	-2.036681	0.532551	1
H	0.074596	-0.939731	1.573221	1
H	-1.071604	-2.211142	-0.348999	1
H	-2.575064	1.423809	0.448481	1
H	1.198226	2.023549	-0.724159	1
H	0.210716	0.887259	-1.622619	1
Es	0.535976	1.158511	-0.610727	99
Es	0.779011	-1.747549	0.525709	99
Es	0.988282	1.750354	-0.681507	99
Es	0.310369	0.967749	-1.294110	99
Es	1.802053	-0.231734	-0.426868	99
Es	-0.677747	-1.136329	-0.617255	99
Es	-1.798403	0.157717	-0.277963	99
Es	-0.202493	1.386681	-0.134370	99
Es	-0.654802	1.910595	0.158861	99
Es	-2.175614	-0.600773	-0.109191	99
Es	-2.292110	1.222062	0.348521	99
Es	1.297877	0.026737	0.060841	99
Es	-0.994544	1.254445	0.114958	99
Es	-0.953205	-1.828994	-0.339652	99
Es	0.171741	-0.981547	1.243939	99
Es	-0.592569	1.585323	0.157391	99
Es	0.393865	-1.101921	0.536257	99
Es	1.673281	0.293963	0.651977	99
Es	-0.293463	-1.162170	0.068605	99
Es	0.903965	0.583438	-0.269495	99
Es	-0.768710	-1.233315	-0.340153	99
Es	-1.852098	-0.451272	-0.096933	99
Es	0.839759	-0.525525	0.295996	99
Es	-1.289697	-0.824307	-0.193362	99
Es	-1.744429	0.014892	0.303202	99
Es	-0.568087	1.480501	0.331421	99
Es	-1.707618	0.812782	0.154621	99
42
Properties=species:S:1:pos:R:3:Z:I:1 energy=-339.94576001719895 field_type=dipole dipole="0.000000 0.000000 0.000000" charge=0
C	1.297906	0.026729	0.060851	6
C	0.393956	-1.101931	0.536371	6
N	-0.768394	-1.233251	-0.340889	7
N	-1.852704	-0.451561	-0.096939	7
C	-1.707844	0.812659	0.154601	6
O	-0.592574	1.585769	0.157481	8
C	0.536166	1.158459	-0.610899	6
H	2.043146	-0.358921	-0.645709	1
H	1.847806	0.414989	0.926651	1
H	0.965666	-2.036681	0.532551	1
H	0.074596	-0.939731	1.573221	1
H	-1.071604	-2.211142	-0.348999	1
H	-2.575064	1.423809	0.448481	1
H	1.198226	2.023549	-0.724159	1
H	0.210716	0.887259	-1.622619	1
Es	-0.592640	1.585459	0.157158	99
Es	0.171635	-0.981646	1.243740	99
Es	0.310308	0.967744	-1.293977	99
Es	0.393866	-1.101922	0.536257	99
Es	0.535976	1.158512	-0.610726	99
Es	-1.707617	0.812781	0.154625	99
Es	-0.568168	1.480224	0.328994	99
Es	-0.768708	-1.233313	-0.340166	99
Es	0.903972	0.583215	-0.269404	99
Es	-2.174804	-0.599684	-0.108928	99
Es	0.779012	-1.747732	0.525659	99
Es	-1.798495	0.157592	-0.278211	99
Es	-0.293321	-1.162009	0.068454	99
Es	-2.292104	1.222031	0.348635	99
Es	-1.290243	-0.824857	-0.194013	99
Es	-0.952881	-1.829435	-0.341021	99
Es	0.839597	-0.525302	0.296133	99
Es	-0.653822	1.911492	0.160699	99
Es	0.988286	1.750483	-0.681581	99
Es	1.297879	0.026737	0.060842	99
Es	-1.852239	-0.451409	-0.096963	99
Es	-0.678215	-1.136488	-0.615131	99
Es	1.673362	0.294093	0.651947	99
Es	-0.994322	1.253969	0.116044	99
Es	-0.203558	1.386407	-0.134671	99
Es	1.801985	-0.231726	-0.426993	99
Es	-1.744146	0.015098	0.303313	99
42
Properties=species:S:1:pos:R:3:Z:I:1 energy=-339.94576001719895 field_type=dipole dipole="0.000000 0.000000 0.000000" charge=0
C	1.297906	0.026729	0.060851	6
C	0.393956	-1.101931	0.536371	6
N	-0.768394	-1.233251	-0.340889	7
N	-1.852704	-0.451561	-0.096939	7
C	-1.707844	0.812659	0.154601	6
O	-0.592574	1.585769	0.157481	8
C	0.536166	1.158459	-0.610899	6
H	2.043146	-0.358921	-0.645709	1
H	1.847806	0.414989	0.926651	1
H	0.965666	-2.036681	0.532551	1
H	0.074596	-0.939731	1.573221	1
H	-1.071604	-2.211142	-0.348999	1
H	-2.575064	1.423809	0.448481	1
H	1.198226	2.023549	-0.724159	1
H	0.210716	0.887259	-1.622619	1
Es	-0.203129	1.386358	-0.133735	99
Es	-0.678348	-1.136382	-0.614054	99
Es	-2.292102	1.222067	0.348642	99
Es	0.535971	1.158511	-0.610724	99
Es	0.393868	-1.101923	0.536259	99
Es	-0.768661	-1.233314	-0.340200	99
Es	-1.852154	-0.451259	-0.096921	99
Es	1.673467	0.293972	0.651927	99
Es	1.297880	0.026737	0.060844	99
Es	-1.744089	0.015233	0.303723	99
Es	-1.707616	0.812785	0.154614	99
Es	-2.174071	-0.598932	-0.109088	99
Es	0.839595	-0.525284	0.296092	99
Es	-0.592771	1.585426	0.157121	99
Es	-0.293422	-1.161917	0.068675	99
Es	0.171574	-0.981599	1.243666	99
Es	-0.993805	1.252216	0.117783	99
Es	-0.952631	-1.829645	-0.342036	99
Es	-1.798543	0.157413	-0.278335	99
Es	1.801842	-0.231742	-0.426811	99
Es	0.988352	1.750558	-0.681513	99
Es	0.778939	-1.747949	0.525570	99
Es	-0.653207	1.912207	0.163247	99
Es	-1.290858	-0.825630	-0.194297	99
Es	-0.569593	1.481294	0.323817	99
Es	0.310264	0.967807	-1.293954	99
Es	0.903842	0.583304	-0.269595	99
42
Properties=species:S:1:pos:R:3:Z:I:1 energy=-339.94576001719895 field_type=dipole dipole="0.000000 0.000000 0.000000" charge=0
C	1.297906	0.026729	0.060851	6
C	0.393956	-1.101931	0.536371	6
N	-0.768394	-1.233251	-0.340889	7
N	-1.852704	-0.451561	-0.096939	7
C	-1.707844	0.812659	0.154601	6
O	-0.592574	1.585769	0.157481	8
C	0.536166	1.158459	-0.610899	6
H	2.043146	-0.358921	-0.645709	1
H	1.847806	0.414989	0.926651	1
H	0.965666	-2.036681	0.532551	1
H	0.074596	-0.939731	1.573221	1
H	-1.071604	-2.211142	-0.348999	1
H	-2.575064	1.423809	0.448481	1
H	1.198226	2.023549	-0.724159	1
H	0.210716	0.887259	-1.622619	1
Es	0.988305	1.750645	-0.681518	99
Es	-0.678909	-1.136587	-0.613015	99
Es	0.310212	0.967938	-1.293862	99
Es	0.393868	-1.101923	0.536258	99
Es	-1.798128	0.157838	-0.278448	99
Es	-1.291391	-0.826132	-0.194583	99
Es	-1.852111	-0.451307	-0.096945	99
Es	-0.768724	-1.233320	-0.340142	99
Es	-1.744132	0.014847	0.303792	99
Es	1.673456	0.293819	0.651887	99
Es	0.903707	0.583277	-0.269582	99
Es	0.171583	-0.981652	1.243423	99
Es	-2.292098	1.222107	0.348564	99
Es	-0.651117	1.912773	0.168883	99
Es	1.801823	-0.231603	-0.426717	99
Es	-0.952433	-1.829867	-0.342519	99
Es	1.297880	0.026736	0.060844	99
Es	-0.204456	1.386972	-0.135448	99
Es	-0.570191	1.479746	0.319774	99
Es	0.839622	-0.525322	0.296179	99
Es	-0.994092	1.252563	0.117728	99
Es	0.778966	-1.748188	0.525518	99
Es	-0.592666	1.585438	0.157200	99
Es	-2.173693	-0.598225	-0.108766	99
Es	-1.707616	0.812783	0.154623	99
Es	-0.293049	-1.161555	0.068315	99
Es	0.535977	1.158512	-0.610728	99
42
Properties=species:S:1:pos:R:3:Z:I:1 energy=-339.94576001719895 field_type=dipole dipole="0.000000 0.000000 0.000000" charge=0
C	1.297906	0.026729	0.060851	6
C	0.393956	-1.101931	0.536371	6
N	-0.768394	-1.233251	-0.340889	7
N	-1.852704	-0.451561	-0.096939	7
C	-1.707844	0.812659	0.154601	6
O	-0.592574	1.585769	0.157481	8
C	0.536166	1.158459	-0.610899	6
H	2.043146	-0.358921	-0.645709	1
H	1.847806	0.414989	0.926651	1
H	0.965666	-2.036681	0.532551	1
H	0.074596	-0.939731	1.573221	1
H	-1.071604	-2.211142	-0.348999	1
H	-2.575064	1.423809	0.448481	1
H	1.198226	2.023549	-0.724159	1
H	0.210716	0.887259	-1.622619	1
Es	-0.768699	-1.233320	-0.340173	99
Es	0.903706	0.583058	-0.269673	99
Es	0.779009	-1.748214	0.525611	99
Es	-1.291581	-0.825672	-0.195761	99
Es	0.393870	-1.101923	0.536260	99
Es	-0.294037	-1.161959	0.069133	99
Es	-0.678050	-1.136763	-0.611421	99
Es	-0.992996	1.249854	0.122723	99
Es	-2.292087	1.222092	0.348657	99
Es	-0.651711	1.913208	0.169314	99
Es	-1.743811	0.015320	0.303994	99
Es	1.801697	-0.231579	-0.426678	99
Es	0.310195	0.967969	-1.293867	99
Es	-0.570454	1.482346	0.314628	99
Es	-0.204751	1.386601	-0.135700	99
Es	0.171541	-0.981645	1.243317	99
Es	-1.852099	-0.451290	-0.096944	99
Es	0.535973	1.158513	-0.610724	99
Es	-1.798484	0.157371	-0.278676	99
Es	-0.952282	-1.829974	-0.343759	99
Es	0.839613	-0.525229	0.296029	99
Es	1.297879	0.026736	0.060841	99
Es	-0.592619	1.585435	0.157259	99
Es	-2.173430	-0.598059	-0.108944	99
Es	-1.707618	0.812779	0.154627	99
Es	1.673550	0.293972	0.652132	99
Es	0.988270	1.750687	-0.681488	99
42
Properties=species:S:1:pos:R:3:Z:I:1 energy=-339.94576001719895 field_type=dipole dipole="0.000000 0.000000 0.000000" charge=0
C	1.297906	0.026729	0.060851	6
C	0.393956	-1.101931	0.536371	6
N	-0.768394	-1.233251	-0.340889	7
N	-1.852704	-0.451561	-0.096939	7
C	-1.707844	0.812659	0.154601	6
O	-0.592574	1.585769	0.157481	8
C	0.536166	1.158459	-0.610899	6
H	2.043146	-0.358921	-0.645709	1
H	1.847806	0.414989	0.926651	1
H	0.965666	-2.036681	0.532551	1
H	0.074596	-0.939731	1.573221	1
H	-1.071604	-2.211142	-0.348999	1
H	-2.575064	1.423809	0.448481	1
H	1.198226	2.023549	-0.724159	1
H	0.210716	0.887259	-1.622619	1
Es	-1.744364	0.014740	0.304361	99
Es	-1.291903	-0.826015	-0.195881	99
Es	-0.592598	1.585433	0.157287	99
Es	-2.292048	1.222170	0.348600	99
Es	1.801699	-0.231506	-0.426572	99
Es	0.310141	0.967981	-1.293824	99
Es	-2.172878	-0.597456	-0.109137	99
Es	-0.678239	-1.136877	-0.610946	99
Es	0.839569	-0.525255	0.295987	99
Es	0.171468	-0.981583	1.243167	99
Es	-0.768701	-1.233313	-0.340155	99
Es	1.297879	0.026738	0.060843	99
Es	-1.852100	-0.451298	-0.096938	99
Es	-0.204675	1.386899	-0.134997	99
Es	0.903657	0.583281	-0.269657	99
Es	1.673532	0.293739	0.651985	99
Es	-1.707616	0.812782	0.154624	99
Es	-0.572052	1.480999	0.312367	99
Es	0.988270	1.750755	-0.681496	99
Es	0.393867	-1.101923	0.536257	99
Es	-0.952155	-1.830150	-0.343902	99
Es	-0.293932	-1.161872	0.068945	99
Es	-1.797967	0.157876	-0.278608	99
Es	0.778969	-1.748395	0.525651	99
Es	0.535972	1.158511	-0.610725	99
Es	-0.649902	1.913643	0.173160	99
Es	-0.993301	1.250408	0.120320	99
42
Properties=species:S:1:pos:R:3:Z:I:1 energy=-339.94576001719895 field_type=dipole dipole="0.000000 0.000000 0.000000" charge=0
C	1.297906	0.026729	0.060851	6
C	0.393956	-1.101931	0.536371	6
N	-0.768394	-1.233251	-0.340889	7
N	-1.852704	-0.451561	-0.096939	7
C	-1.707844	0.812659	0.154601	6
O	-0.592574	1.585769	0.157481	8
C	0.536166	1.158459	-0.610899	6
H	2.043146	-0.358921	-0.645709	1
H	1.847806	0.414989	0.926651	1
H	0.965666	-2.036681	0.532551	1
H	0.074596	-0.939731	1.573221	1
H	-1.071604	-2.211142	-0.348999	1
H	-2.575064	1.423809	0.448481	1
H	1.198226	2.023549	-0.724159	1
H	0.210716	0.887259	-1.622619	1
Es	1.673647	0.293885	0.652013	99
Es	-0.649784	1.913904	0.174515	99
Es	-0.952013	-1.830215	-0.344949	99
Es	-0.992809	1.249016	0.121656	99
Es	-0.572732	1.481819	0.309334	99
Es	-0.204529	1.387269	-0.134576	99
Es	-2.292083	1.222156	0.348545	99
Es	0.393866	-1.101923	0.536258	99
Es	0.171487	-0.981621	1.243105	99
Es	1.297879	0.026737	0.060843	99
Es	-1.852086	-0.451266	-0.096930	99
Es	0.535975	1.158512	-0.610726	99
Es	-0.768696	-1.233321	-0.340171	99
Es	-0.294992	-1.162187	0.069859	99
Es	0.903589	0.583072	-0.269607	99
Es	1.801585	-0.231407	-0.426655	99
Es	0.310118	0.967997	-1.293800	99
Es	0.778956	-1.748495	0.525574	99
Es	-1.798135	0.157855	-0.278683	99
Es	-1.707617	0.812782	0.154623	99
Es	0.988285	1.750780	-0.681491	99
Es	0.839542	-0.525281	0.296032	99
Es	-1.292112	-0.825860	-0.196879	99
Es	-0.677256	-1.136832	-0.609838	99
Es	-0.592652	1.585421	0.157214	99
Es	-1.744512	0.014708	0.304611	99
Es	-2.172327	-0.597188	-0.109162	99
42
Properties=species:S:1:pos:R:3:Z:I:1 energy=-339.94576001719895 field_type=dipole dipole="0.000000 0.000000 0.000000" charge=0
C	1.297906	0.026729	0.060851	6
C	0.393956	-1.101931	0.536371	6
N	-0.768394	-1.233251	-0.340889	7
N	-1.852704	-0.451561	-0.096939	7
C	-1.707844	0.812659	0.154601	6
O	-0.592574	1.585769	0.157481	8
C	0.536166	1.158459	-0.610899	6
H	2.043146	-0.358921	-0.645709	1
H	1.847806	0.414989	0.926651	1
H	0.965666	-2.036681	0.532551	1
H	0.074596	-0.939731	1.573221	1
H	-1.071604	-2.211142	-0.348999	1
H	-2.575064	1.423809	0.448481	1
H	1.198226	2.023549	-0.724159	1
H	0.210716	0.887259	-1.622619	1
Es	-0.992901	1.250333	0.120094	99
Es	-0.768764	-1.233287	-0.340136	99
Es	-2.172214	-0.596579	-0.109054	99
Es	0.903610	0.583145	-0.269646	99
Es	-0.677801	-1.136926	-0.609317	99
Es	-0.294514	-1.161955	0.069345	99
Es	-1.852094	-0.451263	-0.096931	99
Es	-0.649427	1.914136	0.174091	99
Es	0.393867	-1.101923	0.536257	99
Es	-0.592413	1.584976	0.157879	99
Es	0.171363	-0.981695	1.242957	99
Es	-2.292019	1.222097	0.348684	99
Es	-0.573077	1.481371	0.310450	99
Es	0.988335	1.750895	-0.681549	99
Es	-1.707618	0.812781	0.154622	99
Es	-0.951838	-1.830423	-0.345129	99
Es	0.839482	-0.525076	0.296082	99
Es	-1.292537	-0.826481	-0.196678	99
Es	1.801593	-0.231460	-0.426617	99
Es	0.310120	0.967994	-1.293654	99
Es	1.673640	0.293794	0.651906	99
Es	1.297879	0.026736	0.060843	99
Es	-1.744094	0.014964	0.304497	99
Es	-1.798014	0.157676	-0.278719	99
Es	0.535974	1.158511	-0.610726	99
Es	-0.204749	1.386610	-0.134401	99
Es	0.778807	-1.748637	0.525564	99
42
Properties=species:S:1:pos:R:3:Z:I:1 energy=-339.94576001719895 field_type=dipole dipole="0.000000 0.000000 0.000000" charge=0
C	1.297906	0.026729	0.060851	6
C	0.393956	-1.101931	0.536371	6
N	-0.768394	-1.233251	-0.340889	7
N	-1.852704	-0.451561	-0.096939	7
C	-1.707844	0.812659	0.154601	6
O	-0.592574	1.585769	0.157481	8
C	0.536166	1.158459	-0.610899	6
H	2.043146	-0.358921	-0.645709	1
H	1.847806	0.414989	0.926651	1
H	0.965666	-2.036681	0.532551	1
H	0.074596	-0.939731	1.573221	1
H	-1.071604	-2.211142	-0.348999	1
H	-2.575064	1.423809	0.448481	1
H	1.198226	2.023549	-0.724159	1
H	0.210716	0.887259	-1.622619	1
Es	-1.852111	-0.451310	-0.096949	99
Es	-0.294491	-1.161918	0.069413	99
Es	0.310083	0.967990	-1.293815	99
Es	1.801554	-0.231403	-0.426424	99
Es	0.393867	-1.101922	0.536257	99
Es	-0.992551	1.248343	0.123364	99
Es	0.171413	-0.981732	1.242796	99
Es	-0.204754	1.386461	-0.134132	99
Es	0.778847	-1.748708	0.525626	99
Es	-2.171454	-0.596051	-0.108774	99
Es	-0.648953	1.914414	0.175419	99
Es	0.839507	-0.525088	0.296056	99
Es	-1.744005	0.015156	0.304652	99
Es	1.297878	0.026737	0.060842	99
Es	0.535975	1.158512	-0.610725	99
Es	-0.573675	1.482788	0.306237	99
Es	-1.707618	0.812782	0.154624	99
Es	-0.768685	-1.233321	-0.340186	99
Es	-0.678143	-1.136762	-0.608762	99
Es	-1.798454	0.157537	-0.279120	99
Es	1.673629	0.293844	0.652066	99
Es	-0.592608	1.585415	0.157264	99
Es	-1.292908	-0.827086	-0.196620	99
Es	-2.291983	1.222129	0.348701	99
Es	0.988355	1.750822	-0.681419	99
Es	-0.951674	-1.830451	-0.345899	99
Es	0.903553	0.583135	-0.269778	99
42
Properties=species:S:1:pos:R:3:Z:I:1 energy=-339.94576001719895 field_type=dipole dipole="0.000000 0.000000 0.000000" charge=0
C	1.297906	0.026729	0.060851	6
C	0.393956	-1.101931	0.536371	6
N	-0.768394	-1.233251	-0.340889	7
N	-1.852704	-0.451561	-0.096939	7
C	-1.707844	0.812659	0.154601	6
O	-0.592574	1.585769	0.157481	8
C	0.536166	1.158459	-0.610899	6
H	2.043146	-0.358921	-0.645709	1
H	1.847806	0.414989	0.926651	1
H	0.965666	-2.036681	0.532551	1
H	0.074596	-0.939731	1.573221	1
H	-1.071604	-2.211142	-0.348999	1
H	-2.575064	1.423809	0.448481	1
H	1.198226	2.023549	-0.724159	1
H	0.210716	0.887259	-1.622619	1
Es	-0.574286	1.483632	0.305981	99
Es	-0.294138	-1.161688	0.069356	99
Es	-0.203951	1.385485	-0.132890	99
Es	0.171333	-0.981700	1.242857	99
Es	-1.707617	0.812781	0.154623	99
Es	-0.951641	-1.830556	-0.346066	99
Es	-0.992023	1.248140	0.123854	99
Es	-2.171207	-0.595542	-0.109209	99
Es	0.393865	-1.101923	0.536256	99
Es	0.903607	0.583139	-0.269746	99
Es	-0.649483	1.914670	0.174116	99
Es	1.297879	0.026737	0.060842	99
Es	-1.293339	-0.827548	-0.196875	99
Es	-2.291996	1.222107	0.348744	99
Es	-0.678570	-1.136883	-0.608248	99
Es	0.778849	-1.748775	0.525489	99
Es	1.673667	0.293952	0.652103	99
Es	-0.768651	-1.233306	-0.340278	99
Es	-1.744153	0.014884	0.304942	99
Es	-1.852111	-0.451254	-0.096927	99
Es	1.801520	-0.231412	-0.426487	99
Es	-0.592752	1.585437	0.157087	99
Es	0.535969	1.158511	-0.610723	99
Es	0.839336	-0.525070	0.296029	99
Es	0.988374	1.750945	-0.681415	99
Es	0.310011	0.967840	-1.293810	99
Es	-1.797897	0.157708	-0.278888	99
42
Properties=species:S:1:pos:R:3:Z:I:1 energy=-339.94576001719895 field_type=dipole dipole="0.000000 0.000000 0.000000" charge=0
C	1.297906	0.026729	0.060851	6
C	0.393956	-1.101931	0.536371	6
N	-0.768394	-1.233251	-0.340889	7
N	-1.852704	-0.451561	-0.096939	7
C	-1.707844	0.812659	0.154601	6
O	-0.592574	1.585769	0.157481	8
C	0.536166	1.158459	-0.610899	6
H	2.043146	-0.358921	-0.645709	1
H	1.847806	0.414989	0.926651	1
H	0.965666	-2.036681	0.532551	1
H	0.074596	-0.939731	1.573221	1
H	-1.071604	-2.211142	-0.348999	1
H	-2.575064	1.423809	0.448481	1
H	1.198226	2.023549	-0.724159	1
H	0.210716	0.887259	-1.622619	1
Es	0.310033	0.967969	-1.293615	99
Es	-1.797668	0.158102	-0.278940	99
Es	-0.768724	-1.233291	-0.340156	99
Es	0.171309	-0.981788	1.242764	99
Es	-0.992877	1.249202	0.122281	99
Es	-0.647617	1.914717	0.177361	99
Es	-2.170818	-0.595031	-0.108730	99
Es	1.673673	0.293861	0.652038	99
Es	1.297878	0.026737	0.060843	99
Es	-0.679124	-1.137237	-0.607288	99
Es	-1.707618	0.812781	0.154624	99
Es	-0.573693	1.481579	0.305935	99
Es	-0.951451	-1.830644	-0.346451	99
Es	-1.293727	-0.827723	-0.196848	99
Es	-1.852102	-0.451273	-0.096933	99
Es	0.535974	1.158511	-0.610726	99
Es	-0.592593	1.585428	0.157254	99
Es	-2.292003	1.222178	0.348651	99
Es	-0.205771	1.386428	-0.134761	99
Es	0.988320	1.750992	-0.681553	99
Es	0.393867	-1.101923	0.536258	99
Es	0.778810	-1.748812	0.525490	99
Es	-0.293665	-1.161680	0.068650	99
Es	0.903578	0.583057	-0.269765	99
Es	-1.744315	0.014560	0.304701	99
Es	1.801498	-0.231325	-0.426416	99
Es	0.839419	-0.525061	0.296048	99
42
Properties=species:S:1:pos:R:3:Z:I:1 energy=-339.94576001719895 field_type=dipole dipole="0.000000 0.000000 0.000000" charge=0
C	1.297906	0.026729	0.060851	6
C	0.393956	-1.101931	0.536371	6
N	-0.768394	-1.233251	-0.340889	7
N	-1.852704	-0.451561	-0.096939	7
C	-1.707844	0.812659	0.154601	6
O	-0.592574	1.585769	0.157481	8
C	0.536166	1.158459	-0.610899	6
H	2.043146	-0.358921	-0.645709	1
H	1.847806	0.414989	0.926651	1
H	0.965666	-2.036681	0.532551	1
H	0.074596	-0.939731	1.573221	1
H	-1.071604	-2.211142	-0.348999	1
H	-2.575064	1.423809	0.448481	1
H	1.198226	2.023549	-0.724159	1
H	0.210716	0.887259	-1.622619	1
Es	-0.647384	1.914959	0.180002	99
Es	1.297878	0.026735	0.060842	99
Es	0.988270	1.751004	-0.681527	99
Es	-0.678440	-1.137132	-0.607483	99
Es	0.903570	0.583105	-0.269832	99
Es	-0.592718	1.585423	0.157190	99
Es	-1.798454	0.157491	-0.279381	99
Es	-2.292014	1.222189	0.348633	99
Es	0.839398	-0.525041	0.296036	99
Es	0.778869	-1.748897	0.525509	99
Es	-1.852084	-0.451274	-0.096936	99
Es	-0.992070	1.247761	0.123951	99
Es	-0.294358	-1.161628	0.069267	99
Es	0.309999	0.967931	-1.293678	99
Es	-0.574915	1.482579	0.301368	99
Es	1.801499	-0.231377	-0.426301	99
Es	-0.205424	1.386614	-0.134431	99
Es	0.535971	1.158510	-0.610726	99
Es	-1.707617	0.812781	0.154623	99
Es	-2.170667	-0.595163	-0.108344	99
Es	0.393866	-1.101922	0.536257	99
Es	-1.743622	0.015263	0.304741	99
Es	-1.293785	-0.827701	-0.197406	99
Es	1.673645	0.293858	0.652124	99
Es	-0.951443	-1.830702	-0.346320	99
Es	0.171345	-0.981743	1.242673	99
Es	-0.768719	-1.233309	-0.340137	99
42
Properties=species:S:1:pos:R:3:Z:I:1 energy=-339.94576001719895 field_type=dipole dipole="0.000000 0.000000 0.000000" charge=0
C	1.297906	0.026729	0.060851	6
C	0.393956	-1.101931	0.536371	6
N	-0.768394	-1.233251	-0.340889	7
N	-1.852704	-0.451561	-0.096939	7
C	-1.707844	0.812659	0.154601	6
O	-0.592574	1.585769	0.157481	8
C	0.536166	1.158459	-0.610899	6
H	2.043146	-0.358921	-0.645709	1
H	1.847806	0.414989	0.926651	1
H	0.965666	-2.036681	0.532551	1
H	0.074596	-0.939731	1.573221	1
H	-1.071604	-2.211142	-0.348999	1
H	-2.575064	1.423809	0.448481	1
H	1.198226	2.023549	-0.724159	1
H	0.210716	0.887259	-1.622619	1
Es	-0.206331	1.386252	-0.134965	99
Es	-0.294146	-1.161641	0.069223	99
Es	1.801443	-0.231393	-0.426402	99
Es	0.903526	0.583021	-0.269831	99
Es	-2.292017	1.222167	0.348681	99
Es	-0.647590	1.915064	0.177867	99
Es	-1.293738	-0.827292	-0.197897	99
Es	-1.797195	0.158018	-0.278453	99
Es	-0.951278	-1.830800	-0.347061	99
Es	-1.744572	0.014448	0.305126	99
Es	-0.592618	1.585435	0.157252	99
Es	0.988371	1.751030	-0.681535	99
Es	1.297878	0.026736	0.060843	99
Es	1.673724	0.293837	0.652031	99
Es	0.393866	-1.101922	0.536257	99
Es	-1.852099	-0.451254	-0.096927	99
Es	0.839327	-0.524910	0.296054	99
Es	0.535975	1.158512	-0.610726	99
Es	-0.992203	1.248254	0.124169	99
Es	-1.707615	0.812784	0.154621	99
Es	-2.170884	-0.594846	-0.109623	99
Es	-0.678771	-1.137474	-0.606111	99
Es	-0.768681	-1.233316	-0.340172	99
Es	0.309984	0.968010	-1.293572	99
Es	0.778750	-1.749012	0.525518	99
Es	0.171271	-0.981751	1.242575	99
Es	-0.573784	1.482356	0.303774	99
42
Properties=species:S:1:pos:R:3:Z:I:1 energy=-339.94576001719895 field_type=dipole dipole="0.000000 0.000000 0.000000" charge=0
C	1.297906	0.026729	0.060851	6
C	0.393956	-1.101931	0.536371	6
N	-0.768394	-1.233251	-0.340889	7
N	-1.852704	-0.451561	-0.096939	7
C	-1.707844	0.812659	0.154601	6
O	-0.592574	1.585769	0.157481	8
C	0.536166	1.158459	-0.610899	6
H	2.043146	-0.358921	-0.645709	1
H	1.847806	0.414989	0.926651	1
H	0.965666	-2.036681	0.532551	1
H	0.074596	-0.939731	1.573221	1
H	-1.071604	-2.211142	-0.348999	1
H	-2.575064	1.423809	0.448481	1
H	1.198226	2.023549	-0.724159	1