38
Properties=species:S:1:pos:R:3:Z:I:1 energy=-358.5536087066075 field_type=dipole dipole="0.000000 0.000000 0.000000" charge=0
C	1.453384	-0.132245	0.229547	6
O	0.621244	-1.305955	0.424577	8
C	-0.455756	-0.681815	-0.315063	6
C	-1.605146	-0.094445	0.510617	6
N	-1.532276	1.183615	0.707247	7
O	-0.335376	1.685715	0.084527	8
C	0.354804	0.578955	-0.557723	6
H	2.354014	-0.373165	-0.343573	1
H	1.731954	0.326685	1.182677	1
H	-0.752656	-1.252615	-1.196593	1
H	-2.424076	-0.730245	0.876377	1
H	0.589884	0.795515	-1.602613	1
Es	-0.845709	1.419329	0.341004	99
Es	0.540515	-1.328663	0.718772	99
Es	0.729822	-1.531453	0.248420	99
Es	-0.670490	-1.071824	-0.906384	99
Es	-1.738650	1.439521	0.879721	99
Es	0.952706	-0.874117	0.367066	99
Es	1.641322	0.183440	0.872345	99
Es	0.354712	0.579098	-0.557584	99
Es	-1.418559	0.555126	0.862321	99
Es	2.064344	-0.293539	-0.168573	99
Es	-1.531886	1.183191	0.706928	99
Es	-0.098449	-0.031188	-0.502502	99
Es	-0.442490	1.861927	-0.138021	99
Es	0.517068	0.735452	-1.264232	99
Es	-0.082605	1.245008	-0.148858	99
Es	0.180525	-1.087668	0.153694	99
Es	0.954447	0.304998	-0.169491	99
Es	-2.149084	-0.509308	0.754528	99
Es	0.621251	-1.305982	0.424542	99
Es	-0.335414	1.685395	0.084531	99
Es	-1.050568	-0.424773	0.114038	99
Es	-1.605128	-0.094477	0.510588	99
Es	-0.165461	1.775310	0.318512	99
Es	-0.455650	-0.681880	-0.314888	99
Es	-1.713065	0.645029	0.366155	99
Es	1.453224	-0.132421	0.229547	99
38
Properties=species:S:1:pos:R:3:Z:I:1 energy=-358.5536087066075 field_type=dipole dipole="0.000000 0.000000 0.000000" charge=0
C	1.453384	-0.132245	0.229547	6
O	0.621244	-1.305955	0.424577	8
C	-0.455756	-0.681815	-0.315063	6
C	-1.605146	-0.094445	0.510617	6
N	-1.532276	1.183615	0.707247	7
O	-0.335376	1.685715	0.084527	8
C	0.354804	0.578955	-0.557723	6
H	2.354014	-0.373165	-0.343573	1
H	1.731954	0.326685	1.182677	1
H	-0.752656	-1.252615	-1.196593	1
H	-2.424076	-0.730245	0.876377	1
H	0.589884	0.795515	-1.602613	1
Es	0.539288	-1.315889	0.706592	99
Es	-0.441223	1.860201	-0.135099	99
Es	0.518449	0.736250	-1.262175	99
Es	-0.455652	-0.681883	-0.314885	99
Es	1.453224	-0.132423	0.229545	99
Es	0.728419	-1.546783	0.256006	99
Es	-1.739485	1.438309	0.880375	99
Es	-0.335414	1.685403	0.084509	99
Es	-1.531872	1.183237	0.706930	99
Es	0.180072	-1.088263	0.157614	99
Es	-2.150323	-0.510092	0.754286	99
Es	0.955057	-0.871749	0.367785	99
Es	-1.050067	-0.424834	0.114553	99
Es	-0.846902	1.420575	0.340814	99
Es	0.354712	0.579101	-0.557583	99
Es	-1.605130	-0.094476	0.510585	99
Es	0.953992	0.305896	-0.169798	99
Es	-0.671118	-1.072562	-0.904996	99
Es	-0.099123	-0.032074	-0.504417	99
Es	-0.165682	1.776676	0.317739	99
Es	-1.710921	0.644375	0.367078	99
Es	-0.081446	1.246239	-0.150508	99
Es	0.621227	-1.305672	0.424373	99
Es	2.065116	-0.292915	-0.168579	99
Es	-1.418908	0.555243	0.860016	99
Es	1.640439	0.183644	0.871418	99
38
Properties=species:S:1:pos:R:3:Z:I:1 energy=-358.5536087066075 field_type=dipole dipole="0.000000 0.000000 0.000000" charge=0
C	1.453384	-0.132245	0.229547	6
O	0.621244	-1.305955	0.424577	8
C	-0.455756	-0.681815	-0.315063	6
C	-1.605146	-0.094445	0.510617	6
N	-1.532276	1.183615	0.707247	7
O	-0.335376	1.685715	0.084527	8
C	0.354804	0.578955	-0.557723	6
H	2.354014	-0.373165	-0.343573	1
H	1.731954	0.326685	1.182677	1
H	-0.752656	-1.252615	-1.196593	1
H	-2.424076	-0.730245	0.876377	1
H	0.589884	0.795515	-1.602613	1
Es	-0.671411	-1.072993	-0.903993	99
Es	-1.605123	-0.094478	0.510593	99
Es	-0.099436	-0.032474	-0.505589	99
Es	2.065458	-0.292456	-0.168813	99
Es	1.640029	0.183677	0.870785	99
Es	-1.531875	1.183181	0.706918	99
Es	0.519482	0.736662	-1.260882	99
Es	-0.335484	1.685322	0.084481	99
Es	-0.455652	-0.681883	-0.314887	99
Es	-1.740458	1.437660	0.879958	99
Es	1.453224	-0.132422	0.229546	99
Es	0.539937	-1.308243	0.697241	99
Es	-0.443729	1.848381	-0.135196	99
Es	0.179644	-1.088042	0.161549	99
Es	-0.078725	1.246602	-0.148436	99
Es	-2.150819	-0.510735	0.754290	99
Es	-1.419080	0.555271	0.858977	99
Es	0.726407	-1.556178	0.260883	99
Es	0.956357	-0.870442	0.368169	99
Es	-1.709247	0.643860	0.367761	99
Es	0.953224	0.306349	-0.169786	99
Es	-1.049785	-0.424860	0.114970	99
Es	0.621193	-1.305664	0.424441	99
Es	-0.164934	1.789008	0.315180	99
Es	0.354716	0.579114	-0.557576	99
Es	-0.847185	1.421315	0.341596	99
38
Properties=species:S:1:pos:R:3:Z:I:1 energy=-358.5536087066075 field_type=dipole dipole="0.000000 0.000000 0.000000" charge=0
C	1.453384	-0.132245	0.229547	6
O	0.621244	-1.305955	0.424577	8
C	-0.455756	-0.681815	-0.315063	6
C	-1.605146	-0.094445	0.510617	6
N	-1.532276	1.183615	0.707247	7
O	-0.335376	1.685715	0.084527	8
C	0.354804	0.578955	-0.557723	6
H	2.354014	-0.373165	-0.343573	1
H	1.731954	0.326685	1.182677	1
H	-0.752656	-1.252615	-1.196593	1
H	-2.424076	-0.730245	0.876377	1
H	0.589884	0.795515	-1.602613	1
Es	-0.099268	-0.032758	-0.505971	99
Es	2.065942	-0.292178	-0.168620	99
Es	-1.531866	1.183207	0.706922	99
Es	0.538600	-1.293194	0.687043	99
Es	-1.605121	-0.094480	0.510600	99
Es	1.453223	-0.132423	0.229545	99
Es	-0.162543	1.826597	0.304083	99
Es	0.621144	-1.305549	0.424492	99
Es	-0.451425	1.812007	-0.133249	99
Es	-0.455654	-0.681882	-0.314887	99
Es	-1.708410	0.643672	0.367880	99
Es	0.181149	-1.089359	0.160679	99
Es	1.639615	0.183314	0.869981	99
Es	-0.845583	1.421540	0.345055	99
Es	-1.741138	1.436982	0.878637	99
Es	-1.419176	0.555233	0.858947	99
Es	-2.150743	-0.511293	0.754848	99
Es	-0.074936	1.246284	-0.142999	99
Es	0.952098	0.307089	-0.169765	99
Es	0.520395	0.736955	-1.260618	99
Es	-1.049787	-0.424882	0.115638	99
Es	0.354719	0.579102	-0.557579	99
Es	-0.335395	1.685286	0.084633	99
Es	-0.671472	-1.073004	-0.903182	99
Es	0.958072	-0.870964	0.364998	99
Es	0.724287	-1.569769	0.275068	99
38
Properties=species:S:1:pos:R:3:Z:I:1 energy=-358.5536087066075 field_type=dipole dipole="0.000000 0.000000 0.000000" charge=0
C	1.453384	-0.132245	0.229547	6
O	0.621244	-1.305955	0.424577	8
C	-0.455756	-0.681815	-0.315063	6
C	-1.605146	-0.094445	0.510617	6
N	-1.532276	1.183615	0.707247	7
O	-0.335376	1.685715	0.084527	8
C	0.354804	0.578955	-0.557723	6
H	2.354014	-0.373165	-0.343573	1
H	1.731954	0.326685	1.182677	1
H	-0.752656	-1.252615	-1.196593	1
H	-2.424076	-0.730245	0.876377	1
H	0.589884	0.795515	-1.602613	1
Es	0.181263	-1.089855	0.161519	99
Es	-0.452607	1.760691	-0.117229	99
Es	-0.671564	-1.072837	-0.902641	99
Es	2.065938	-0.292163	-0.168132	99
Es	0.958063	-0.870862	0.364454	99
Es	-1.707978	0.643681	0.367358	99
Es	-1.741800	1.437000	0.876072	99
Es	-0.099434	-0.032431	-0.506053	99
Es	0.354711	0.579105	-0.557585	99
Es	0.520516	0.737045	-1.260815	99
Es	-0.069603	1.245902	-0.134608	99
Es	0.723976	-1.567493	0.272867	99
Es	-1.605119	-0.094479	0.510602	99
Es	-0.844371	1.421635	0.348470	99
Es	1.639712	0.182886	0.869552	99
Es	0.621260	-1.305663	0.424194	99
Es	-0.455652	-0.681883	-0.314887	99
Es	-0.335369	1.685270	0.084647	99
Es	-2.150286	-0.511660	0.755563	99
Es	-1.049584	-0.425079	0.116261	99
Es	-0.167972	1.878516	0.276053	99
Es	-1.531900	1.183175	0.706937	99
Es	0.951735	0.307684	-0.169957	99
Es	0.538801	-1.295363	0.689558	99
Es	-1.419230	0.555130	0.860432	99
Es	1.453220	-0.132422	0.229545	99
38
Properties=species:S:1:pos:R:3:Z:I:1 energy=-358.5536087066075 field_type=dipole dipole="0.000000 0.000000 0.000000" charge=0
C	1.453384	-0.132245	0.229547	6
O	0.621244	-1.305955	0.424577	8
C	-0.455756	-0.681815	-0.315063	6
C	-1.605146	-0.094445	0.510617	6
N	-1.532276	1.183615	0.707247	7
O	-0.335376	1.685715	0.084527	8
C	0.354804	0.578955	-0.557723	6
H	2.354014	-0.373165	-0.343573	1
H	1.731954	0.326685	1.182677	1
H	-0.752656	-1.252615	-1.196593	1
H	-2.424076	-0.730245	0.876377	1
H	0.589884	0.795515	-1.602613	1
Es	0.722170	-1.571877	0.277106	99
Es	-0.335369	1.685203	0.084702	99
Es	1.639833	0.182717	0.869382	99
Es	1.453222	-0.132424	0.229543	99
Es	-0.171227	1.892944	0.265121	99
Es	0.951298	0.307968	-0.169920	99
Es	0.959278	-0.871784	0.363168	99
Es	0.354711	0.579099	-0.557584	99
Es	-0.099506	-0.032424	-0.506218	99
Es	-1.605119	-0.094483	0.510604	99
Es	0.539011	-1.290738	0.685889	99
Es	0.621267	-1.305650	0.424188	99
Es	-0.068304	1.246277	-0.132390	99
Es	-1.049519	-0.424964	0.116572	99
Es	-2.150149	-0.512015	0.755807	99
Es	-0.671653	-1.072868	-0.902357	99
Es	-1.741617	1.436455	0.875645	99
Es	-1.708170	0.643721	0.367055	99
Es	-1.531872	1.183184	0.706922	99
Es	-0.455651	-0.681882	-0.314887	99
Es	0.520845	0.737240	-1.260719	99
Es	-1.419324	0.555160	0.860468	99
Es	-0.450960	1.746355	-0.109569	99
Es	0.181617	-1.089272	0.162300	99
Es	2.065848	-0.292089	-0.168149	99
Es	-0.843931	1.421680	0.349498	99
38
Properties=species:S:1:pos:R:3:Z:I:1 energy=-358.5536087066075 field_type=dipole dipole="0.000000 0.000000 0.000000" charge=0
C	1.453384	-0.132245	0.229547	6
O	0.621244	-1.305955	0.424577	8
C	-0.455756	-0.681815	-0.315063	6
C	-1.605146	-0.094445	0.510617	6
N	-1.532276	1.183615	0.707247	7
O	-0.335376	1.685715	0.084527	8
C	0.354804	0.578955	-0.557723	6
H	2.354014	-0.373165	-0.343573	1
H	1.731954	0.326685	1.182677	1
H	-0.752656	-1.252615	-1.196593	1
H	-2.424076	-0.730245	0.876377	1
H	0.589884	0.795515	-1.602613	1
Es	-1.049550	-0.424907	0.116680	99
Es	-0.178738	1.916316	0.244212	99
Es	0.520727	0.737248	-1.260866	99
Es	-1.419250	0.555160	0.861927	99
Es	-1.741339	1.436216	0.874334	99
Es	2.065797	-0.292194	-0.167827	99
Es	0.958418	-0.871065	0.363675	99
Es	1.639847	0.182761	0.869426	99
Es	-0.445127	1.722712	-0.092230	99
Es	-1.605120	-0.094482	0.510601	99
Es	0.180989	-1.091029	0.160225	99
Es	0.354713	0.579099	-0.557583	99
Es	-0.066519	1.246189	-0.129328	99
Es	-1.708451	0.643825	0.366534	99
Es	-2.150042	-0.512192	0.755811	99
Es	-0.099690	-0.032139	-0.506077	99
Es	-0.843744	1.422032	0.350379	99
Es	0.538495	-1.292633	0.687971	99
Es	1.453225	-0.132419	0.229546	99
Es	-1.531882	1.183178	0.706926	99
Es	-0.335627	1.685297	0.084243	99
Es	-0.455654	-0.681882	-0.314887	99
Es	0.951477	0.307958	-0.170158	99
Es	-0.671716	-1.072822	-0.902347	99
Es	0.621202	-1.305624	0.424365	99
Es	0.724284	-1.569074	0.276627	99
38
Properties=species:S:1:pos:R:3:Z:I:1 energy=-358.5536087066075 field_type=dipole dipole="0.000000 0.000000 0.000000" charge=0
C	1.453384	-0.132245	0.229547	6
O	0.621244	-1.305955	0.424577	8
C	-0.455756	-0.681815	-0.315063	6
C	-1.605146	-0.094445	0.510617	6
N	-1.532276	1.183615	0.707247	7
O	-0.335376	1.685715	0.084527	8
C	0.354804	0.578955	-0.557723	6
H	2.354014	-0.373165	-0.343573	1
H	1.731954	0.326685	1.182677	1
H	-0.752656	-1.252615	-1.196593	1
H	-2.424076	-0.730245	0.876377	1
H	0.589884	0.795515	-1.602613	1
Es	-1.740768	1.435872	0.874290	99
Es	0.520731	0.737297	-1.260804	99
Es	0.621184	-1.305624	0.424354	99
Es	-1.708991	0.643979	0.366109	99
Es	-0.335365	1.685264	0.084647	99
Es	0.182333	-1.091678	0.157741	99
Es	1.453222	-0.132423	0.229545	99
Es	0.951462	0.308203	-0.170091	99
Es	-0.183310	1.927443	0.232413	99
Es	0.536666	-1.290573	0.687706	99
Es	-0.065610	1.246306	-0.127877	99
Es	-0.441504	1.711381	-0.082581	99
Es	0.354713	0.579100	-0.557583	99
Es	-0.843979	1.422276	0.350607	99
Es	-2.150012	-0.512373	0.755794	99
Es	0.724201	-1.570120	0.279426	99
Es	0.959114	-0.871566	0.363606	99
Es	-0.455650	-0.681882	-0.314886	99
Es	1.640029	0.182594	0.869381	99
Es	-1.605121	-0.094482	0.510601	99
Es	-0.099773	-0.032145	-0.506245	99
Es	-0.671933	-1.072842	-0.902226	99
Es	-1.531873	1.183183	0.706922	99
Es	2.065628	-0.292139	-0.167766	99
Es	-1.419102	0.555140	0.862278	99
Es	-1.049566	-0.424660	0.116819	99
38
Properties=species:S:1:pos:R:3:Z:I:1 energy=-358.5536087066075 field_type=dipole dipole="0.000000 0.000000 0.000000" charge=0
C	1.453384	-0.132245	0.229547	6
O	0.621244	-1.305955	0.424577	8
C	-0.455756	-0.681815	-0.315063	6
C	-1.605146	-0.094445	0.510617	6
N	-1.532276	1.183615	0.707247	7
O	-0.335376	1.685715	0.084527	8
C	0.354804	0.578955	-0.557723	6
H	2.354014	-0.373165	-0.343573	1
H	1.731954	0.326685	1.182677	1
H	-0.752656	-1.252615	-1.196593	1
H	-2.424076	-0.730245	0.876377	1
H	0.589884	0.795515	-1.602613	1
Es	-0.088651	1.254518	-0.170892	99
Es	0.959740	-0.869488	0.371318	99
Es	1.453224	-0.132420	0.229547	99
Es	0.175678	-1.090192	0.159719	99
Es	-2.152966	-0.511191	0.751066	99
Es	2.064196	-0.292302	-0.169018	99
Es	-1.531884	1.183179	0.706927	99
Es	0.540904	-1.303070	0.683908	99
Es	-0.100765	-0.032292	-0.506800	99
Es	-0.326076	1.990452	-0.013979	99
Es	-0.857800	1.427415	0.324150	99
Es	-1.417686	0.555175	0.859865	99
Es	0.955846	0.306145	-0.170455	99
Es	0.725272	-1.559532	0.272423	99
Es	-0.672982	-1.074409	-0.904175	99
Es	0.354714	0.579094	-0.557585	99
Es	0.621234	-1.305697	0.424404	99
Es	-0.259948	1.635200	0.234947	99
Es	-0.455656	-0.681880	-0.314894	99
Es	-1.733824	1.433351	0.883619	99
Es	0.518595	0.736871	-1.258001	99
Es	-0.336293	1.684626	0.083848	99
Es	-1.050079	-0.423346	0.114199	99
Es	-1.713606	0.644990	0.365633	99
Es	1.640669	0.184812	0.871821	99
Es	-1.605129	-0.094477	0.510586	99
38
Properties=species:S:1:pos:R:3:Z:I:1 energy=-358.5536087066075 field_type=dipole dipole="0.000000 0.000000 0.000000" charge=0
C	1.453384	-0.132245	0.229547	6
O	0.621244	-1.305955	0.424577	8
C	-0.455756	-0.681815	-0.315063	6
C	-1.605146	-0.094445	0.510617	6
N	-1.532276	1.183615	0.707247	7
O	-0.335376	1.685715	0.084527	8
C	0.354804	0.578955	-0.557723	6
H	2.354014	-0.373165	-0.343573	1
H	1.731954	0.326685	1.182677	1
H	-0.752656	-1.252615	-1.196593	1
H	-2.424076	-0.730245	0.876377	1
H	0.589884	0.795515	-1.602613	1
Es	-0.455651	-0.681880	-0.314889	99
Es	-1.531880	1.183181	0.706926	99
Es	0.537866	-1.292259	0.687914	99
Es	-0.844433	1.422673	0.350364	99
Es	-0.188510	1.938441	0.219419	99
Es	-1.049430	-0.424570	0.117103	99
Es	1.453222	-0.132424	0.229545	99
Es	-1.709374	0.644067	0.365414	99
Es	-1.419003	0.555163	0.862848	99
Es	0.354715	0.579101	-0.557582	99
Es	0.951446	0.308238	-0.170270	99
Es	0.723263	-1.568901	0.277765	99
Es	-0.335345	1.685203	0.084740	99
Es	0.621170	-1.305618	0.424374	99
Es	0.181490	-1.091248	0.159583	99
Es	-0.099926	-0.031963	-0.506235	99
Es	0.520840	0.737437	-1.260757	99
Es	1.640182	0.182655	0.869485	99
Es	0.959616	-0.871618	0.363275	99
Es	2.065412	-0.292168	-0.167641	99
Es	-1.740303	1.435376	0.873857	99
Es	-2.149955	-0.512601	0.755728	99
Es	-0.436215	1.700233	-0.070169	99
Es	-1.605123	-0.094483	0.510597	99
Es	-0.065170	1.246431	-0.127099	99
Es	-0.672178	-1.072936	-0.902116	99
38
Properties=species:S:1:pos:R:3:Z:I:1 energy=-358.5536087066075 field_type=dipole dipole="0.000000 0.000000 0.000000" charge=0
C	1.453384	-0.132245	0.229547	6
O	0.621244	-1.305955	0.424577	8
C	-0.455756	-0.681815	-0.315063	6
C	-1.605146	-0.094445	0.510617	6
N	-1.532276	1.183615	0.707247	7
O	-0.335376	1.685715	0.084527	8
C	0.354804	0.578955	-0.557723	6
H	2.354014	-0.373165	-0.343573	1
H	1.731954	0.326685	1.182677	1
H	-0.752656	-1.252615	-1.196593	1
H	-2.424076	-0.730245	0.876377	1
H	0.589884	0.795515	-1.602613	1
Es	0.621148	-1.305564	0.424468	99
Es	1.453221	-0.132423	0.229548	99
Es	0.181748	-1.091684	0.159405	99
Es	-0.189961	1.941075	0.215948	99
Es	0.537661	-1.291328	0.687123	99
Es	-0.099965	-0.031928	-0.506167	99
Es	-1.740223	1.435085	0.873630	99
Es	-1.049469	-0.424573	0.117105	99
Es	0.959675	-0.871412	0.363054	99
Es	0.354713	0.579100	-0.557582	99
Es	1.640247	0.182674	0.869483	99
Es	-1.418981	0.555154	0.863034	99
Es	0.723182	-1.569682	0.278864	99
Es	-1.531856	1.183196	0.706911	99
Es	2.065314	-0.292159	-0.167595	99
Es	-0.455651	-0.681880	-0.314888	99
Es	-2.149990	-0.512682	0.755695	99
Es	-0.434627	1.697516	-0.066839	99
Es	-1.605124	-0.094477	0.510595	99
Es	0.951543	0.308324	-0.170418	99
Es	-0.064954	1.246782	-0.126848	99
Es	-0.335316	1.685173	0.084818	99
Es	-1.709366	0.644066	0.365379	99
Es	-0.672177	-1.072929	-0.902062	99
Es	0.520708	0.737362	-1.260721	99
Es	-0.844776	1.422746	0.350241	99
38
Properties=species:S:1:pos:R:3:Z:I:1 energy=-358.5536087066075 field_type=dipole dipole="0.000000 0.000000 0.000000" charge=0
C	1.453384	-0.132245	0.229547	6
O	0.621244	-1.305955	0.424577	8
C	-0.455756	-0.681815	-0.315063	6
C	-1.605146	-0.094445	0.510617	6
N	-1.532276	1.183615	0.707247	7
O	-0.335376	1.685715	0.084527	8
C	0.354804	0.578955	-0.557723	6
H	2.354014	-0.373165	-0.343573	1
H	1.731954	0.326685	1.182677	1
H	-0.752656	-1.252615	-1.196593	1
H	-2.424076	-0.730245	0.876377	1
H	0.589884	0.795515	-1.602613	1
Es	0.537426	-1.289583	0.686214	99
Es	-1.531871	1.183186	0.706921	99
Es	1.453221	-0.132423	0.229548	99
Es	-0.192199	1.945439	0.209912	99
Es	-0.065065	1.246754	-0.126726	99
Es	0.951659	0.308241	-0.170318	99
Es	-0.672260	-1.073026	-0.902118	99
Es	-1.739959	1.435054	0.873587	99
Es	1.640331	0.182721	0.869514	99
Es	-0.100051	-0.031828	-0.506115	99
Es	0.621213	-1.305642	0.424438	99
Es	0.723398	-1.570597	0.281207	99
Es	-2.150046	-0.512744	0.755521	99
Es	-0.455653	-0.681887	-0.314880	99
Es	0.181466	-1.092074	0.158355	99
Es	0.354714	0.579094	-0.557585	99
Es	-1.418952	0.555144	0.863339	99
Es	-1.709556	0.644126	0.365220	99
Es	0.520640	0.737466	-1.260754	99
Es	-1.605120	-0.094482	0.510601	99
Es	0.959839	-0.871700	0.362739	99
Es	2.065244	-0.292170	-0.167730	99
Es	-0.432566	1.693172	-0.061536	99
Es	-0.844419	1.422648	0.350739	99
Es	-0.335269	1.685122	0.084938	99
Es	-1.049438	-0.424480	0.117148	99
38
Properties=species:S:1:pos:R:3:Z:I:1 energy=-358.5536087066075 field_type=dipole dipole="0.000000 0.000000 0.000000" charge=0
C	1.453384	-0.132245	0.229547	6
O	0.621244	-1.305955	0.424577	8
C	-0.455756	-0.681815	-0.315063	6
C	-1.605146	-0.094445	0.510617	6
N	-1.532276	1.183615	0.707247	7
O	-0.335376	1.685715	0.084527	8
C	0.354804	0.578955	-0.557723	6
H	2.354014	-0.373165	-0.343573	1
H	1.731954	0.326685	1.182677	1
H	-0.752656	-1.252615	-1.196593	1
H	-2.424076	-0.730245	0.876377	1
H	0.589884	0.795515	-1.602613	1
Es	2.065203	-0.292185	-0.167464	99
Es	-1.709635	0.644140	0.365114	99
Es	-1.605121	-0.094482	0.510600	99
Es	-0.844677	1.422871	0.350455	99
Es	-0.672349	-1.073077	-0.902045	99
Es	-1.418743	0.555119	0.863449	99
Es	0.621224	-1.305688	0.424388	99
Es	1.640331	0.182678	0.869503	99
Es	0.520752	0.737485	-1.260630	99
Es	-0.335212	1.684873	0.085150	99
Es	-1.531874	1.183182	0.706921	99
Es	0.951592	0.308425	-0.170550	99
Es	0.959844	-0.871441	0.363592	99
Es	-0.100128	-0.031921	-0.506215	99
Es	-0.455652	-0.681881	-0.314888	99
Es	0.180953	-1.091635	0.159388	99
Es	-1.739804	1.434749	0.873471	99
Es	1.453218	-0.132422	0.229562	99
Es	0.354713	0.579097	-0.557585	99
Es	-2.150038	-0.512787	0.755593	99
Es	-0.064757	1.246830	-0.126470	99
Es	0.723355	-1.568563	0.278418	99
Es	-1.049536	-0.424419	0.117029	99
Es	-0.430955	1.690920	-0.058260	99
Es	0.538005	-1.292303	0.687161	99
Es	-0.193982	1.947966	0.206492	99
38
Properties=species:S:1:pos:R:3:Z:I:1 energy=-358.5536087066075 field_type=dipole dipole="0.000000 0.000000 0.000000" charge=0
C	1.453384	-0.132245	0.229547	6
O	0.621244	-1.305955	0.424577	8
C	-0.455756	-0.681815	-0.315063	6
C	-1.605146	-0.094445	0.510617	6
N	-1.532276	1.183615	0.707247	7
O	-0.335376	1.685715	0.084527	8
C	0.354804	0.578955	-0.557723	6
H	2.354014	-0.373165	-0.343573	1
H	1.731954	0.326685	1.182677	1
H	-0.752656	-1.252615	-1.196593	1
H	-2.424076	-0.730245	0.876377	1
H	0.589884	0.795515	-1.602613	1
Es	0.518277	0.736896	-1.258735	99
Es	0.960380	-0.870434	0.370760	99
Es	0.354714	0.579104	-0.557583	99
Es	-0.101237	-0.031598	-0.506335	99
Es	0.726252	-1.552936	0.272109	99
Es	0.621086	-1.305448	0.424625	99
Es	-0.858330	1.428028	0.325509	99
Es	-0.304947	1.627870	0.173362	99
Es	2.063452	-0.292581	-0.168205	99
Es	-1.605129	-0.094480	0.510587	99
Es	0.955905	0.306908	-0.170821	99
Es	-0.673473	-1.074150	-0.904111	99
Es	-0.336090	1.685294	0.083679	99
Es	1.453225	-0.132426	0.229542	99
Es	-0.082714	1.251789	-0.165063	99
Es	-1.733059	1.432666	0.880590	99
Es	-1.531871	1.183195	0.706920	99
Es	-1.049819	-0.423232	0.114913	99
Es	-0.286866	1.999471	0.040291	99
Es	0.539517	-1.307124	0.689698	99
Es	-1.417344	0.554893	0.863217	99
Es	-0.455653	-0.681883	-0.314887	99
Es	-2.152315	-0.511681	0.751408	99
Es	0.176081	-1.092501	0.155135	99
Es	-1.714925	0.645713	0.363675	99
Es	1.641609	0.184178	0.871900	99
38
Properties=species:S:1:pos:R:3:Z:I:1 energy=-358.5536087066075 field_type=dipole dipole="0.000000 0.000000 0.000000" charge=0
C	1.453384	-0.132245	0.229547	6
O	0.621244	-1.305955	0.424577	8
C	-0.455756	-0.681815	-0.315063	6
C	-1.605146	-0.094445	0.510617	6
N	-1.532276	1.183615	0.707247	7
O	-0.335376	1.685715	0.084527	8
C	0.354804	0.578955	-0.557723	6
H	2.354014	-0.373165	-0.343573	1
H	1.731954	0.326685	1.182677	1
H	-0.752656	-1.252615	-1.196593	1
H	-2.424076	-0.730245	0.876377	1
H	0.589884	0.795515	-1.602613	1
Es	2.063452	-0.292477	-0.168438	99
Es	-0.290940	1.999312	0.034041	99
Es	-1.049906	-0.423255	0.114955	99
Es	-2.152473	-0.511702	0.751455	99
Es	1.453223	-0.132422	0.229546	99
Es	1.641543	0.184361	0.871888	99
Es	-0.084031	1.252531	-0.166314	99
Es	0.621219	-1.305672	0.424373	99
Es	0.726004	-1.553008	0.271941	99
Es	0.518384	0.736967	-1.258281	99
Es	0.175854	-1.092320	0.155611	99
Es	-0.299679	1.627196	0.181799	99
Es	0.539579	-1.307213	0.688676	99
Es	0.354712	0.579094	-0.557585	99
Es	-1.714523	0.645510	0.363961	99
Es	-0.101249	-0.031704	-0.506737	99
Es	-0.335561	1.685314	0.084383	99
Es	-1.531928	1.183180	0.706954	99
Es	-1.605129	-0.094478	0.510587	99
Es	-1.733214	1.432715	0.880720	99
Es	-0.673436	-1.074259	-0.904003	99
Es	0.960531	-0.870155	0.371602	99
Es	-0.455654	-0.681880	-0.314889	99
Es	-0.858641	1.428206	0.323964	99
Es	0.955965	0.306753	-0.170720	99
Es	-1.417373	0.554939	0.862688	99
38
Properties=species:S:1:pos:R:3:Z:I:1 energy=-358.5536087066075 field_type=dipole dipole="0.000000 0.000000 0.000000" charge=0
C	1.453384	-0.132245	0.229547	6
O	0.621244	-1.305955	0.424577	8
C	-0.455756	-0.681815	-0.315063	6
C	-1.605146	-0.094445	0.510617	6
N	-1.532276	1.183615	0.707247	7
O	-0.335376	1.685715	0.084527	8
C	0.354804	0.578955	-0.557723	6
H	2.354014	-0.373165	-0.343573	1
H	1.731954	0.326685	1.182677	1
H	-0.752656	-1.252615	-1.196593	1
H	-2.424076	-0.730245	0.876377	1
H	0.589884	0.795515	-1.602613	1
Es	0.520764	0.737610	-1.260666	99
Es	0.951686	0.308323	-0.170477	99
Es	-0.455651	-0.681882	-0.314886	99
Es	-1.418662	0.555152	0.864075	99
Es	-0.065129	1.246858	-0.127457	99
Es	-0.335422	1.684509	0.085082	99
Es	2.064992	-0.292181	-0.167612	99
Es	0.960509	-0.871855	0.362792	99
Es	-1.739009	1.434474	0.873417	99
Es	-0.100077	-0.031824	-0.506213	99
Es	0.354713	0.579099	-0.557583	99
Es	0.181971	-1.092760	0.156799	99
Es	-0.426160	1.685359	-0.048094	99
Es	-0.672441	-1.073114	-0.902046	99
Es	0.621240	-1.305646	0.424282	99
Es	1.640503	0.182805	0.869659	99
Es	-1.531861	1.183195	0.706918	99
Es	0.723134	-1.572095	0.284768	99
Es	-1.049693	-0.424193	0.117258	99
Es	1.453222	-0.132424	0.229545	99
Es	-1.710383	0.644348	0.364662	99
Es	-2.150052	-0.513002	0.755407	99
Es	-1.605121	-0.094482	0.510600	99
Es	-0.197549	1.953740	0.198108	99
Es	0.536456	-1.287255	0.684285	99
Es	-0.845254	1.422774	0.349557	99
38
Properties=species:S:1:pos:R:3:Z:I:1 energy=-358.5536087066075 field_type=dipole dipole="0.000000 0.000000 0.000000" charge=0
C	1.453384	-0.132245	0.229547	6
O	0.621244	-1.305955	0.424577	8
C	-0.455756	-0.681815	-0.315063	6
C	-1.605146	-0.094445	0.510617	6
N	-1.532276	1.183615	0.707247	7
O	-0.335376	1.685715	0.084527	8
C	0.354804	0.578955	-0.557723	6
H	2.354014	-0.373165	-0.343573	1
H	1.731954	0.326685	1.182677	1
H	-0.752656	-1.252615	-1.196593	1
H	-2.424076	-0.730245	0.876377	1
H	0.589884	0.795515	-1.602613	1
Es	-1.710008	0.644230	0.364630	99
Es	0.723327	-1.567104	0.277440	99
Es	-1.739301	1.434346	0.873343	99
Es	-1.531866	1.183191	0.706918	99
Es	0.951541	0.308511	-0.170510	99
Es	1.453222	-0.132424	0.229544	99
Es	-0.425333	1.684760	-0.047484	99
Es	-0.064582	1.247132	-0.126247	99
Es	-0.672635	-1.073214	-0.901947	99
Es	-2.150019	-0.513075	0.755450	99
Es	0.520855	0.737548	-1.260443	99
Es	-0.100223	-0.031797	-0.506249	99
Es	0.621240	-1.305682	0.424334	99
Es	-0.198484	1.954644	0.196865	99
Es	0.180995	-1.091853	0.159146	99
Es	0.537708	-1.293858	0.687806	99
Es	-0.455652	-0.681881	-0.314887	99
Es	-1.605124	-0.094481	0.510595	99
Es	-0.335392	1.684182	0.085291	99
Es	-0.845708	1.423002	0.348946	99
Es	1.640497	0.182670	0.869580	99
Es	0.354717	0.579097	-0.557585	99
Es	-1.049342	-0.424226	0.117234	99
Es	-1.418718	0.555135	0.863733	99
Es	2.065009	-0.292129	-0.167533	99
Es	0.960005	-0.871192	0.364208	99
38
Properties=species:S:1:pos:R:3:Z:I:1 energy=-358.5536087066075 field_type=dipole dipole="0.000000 0.000000 0.000000" charge=0
C	1.453384	-0.132245	0.229547	6
O	0.621244	-1.305955	0.424577	8
C	-0.455756	-0.681815	-0.315063	6
C	-1.605146	-0.094445	0.510617	6
N	-1.532276	1.183615	0.707247	7
O	-0.335376	1.685715	0.084527	8
C	0.354804	0.578955	-0.557723	6
H	2.354014	-0.373165	-0.343573	1
H	1.731954	0.326685	1.182677	1
H	-0.752656	-1.252615	-1.196593	1
H	-2.424076	-0.730245	0.876377	1
H	0.589884	0.795515	-1.602613	1
Es	-1.531872	1.183267	0.706936	99
Es	0.537791	-1.288929	0.684687	99
Es	-2.150063	-0.513089	0.755428	99
Es	-0.100239	-0.031776	-0.506198	99
Es	-1.049622	-0.424177	0.117268	99
Es	-0.455653	-0.681881	-0.314888	99
Es	-0.198194	1.954825	0.196618	99
Es	2.064890	-0.292176	-0.167582	99
Es	-1.710283	0.644316	0.364525	99
Es	1.453222	-0.132424	0.229544	99
Es	-1.605120	-0.094482	0.510603	99
Es	0.722693	-1.571306	0.282144	99
Es	1.640556	0.182875	0.869685	99
Es	0.354714	0.579096	-0.557584	99
Es	-0.425222	1.683393	-0.046259	99
Es	-0.672541	-1.073206	-0.901902	99
Es	0.520890	0.737668	-1.260671	99
Es	0.181185	-1.091907	0.159024	99
Es	-1.418595	0.555151	0.864213	99
Es	-0.064837	1.246782	-0.126814	99
Es	0.951572	0.308314	-0.170596	99
Es	0.960394	-0.871773	0.362721	99
Es	-1.738960	1.434017	0.873067	99
Es	-0.335501	1.685302	0.084472	99
Es	0.621218	-1.305691	0.424400	99
Es	-0.845699	1.423341	0.349338	99
38
Properties=species:S:1:pos:R:3:Z:I:1 energy=-358.5536087066075 field_type=dipole dipole="0.000000 0.000000 0.000000" charge=0
C	1.453384	-0.132245	0.229547	6
O	0.621244	-1.305955	0.424577	8
C	-0.455756	-0.681815	-0.315063	6
C	-1.605146	-0.094445	0.510617	6
N	-1.532276	1.183615	0.707247	7
O	-0.335376	1.685715	0.084527	8
C	0.354804	0.578955	-0.557723	6
H	2.354014	-0.373165	-0.343573	1
H	1.731954	0.326685	1.182677	1
H	-0.752656	-1.252615	-1.196593	1
H	-2.424076	-0.730245	0.876377	1
H	0.589884	0.795515	-1.602613	1
Es	-1.531864	1.183187	0.706915	99
Es	-0.424491	1.683459	-0.044236	99
Es	-1.418594	0.555137	0.864174	99
Es	1.453223	-0.132421	0.229544	99
Es	0.621210	-1.305692	0.424400	99
Es	-0.845355	1.423243	0.349816	99
Es	0.960622	-0.871792	0.362178	99
Es	-0.065560	1.246958	-0.128144	99
Es	0.951733	0.308491	-0.170649	99
Es	0.537038	-1.286654	0.683447	99
Es	-1.605121	-0.094481	0.510599	99
Es	0.722734	-1.572656	0.285284	99
Es	-1.049678	-0.424113	0.117154	99
Es	-1.738999	1.433939	0.873092	99
Es	-0.335729	1.684559	0.084597	99
Es	-2.150114	-0.513114	0.755315	99
Es	0.520719	0.737637	-1.260626	99
Es	-0.672505	-1.073131	-0.901986	99
Es	-0.198375	1.955552	0.195291	99
Es	-1.710181	0.644285	0.364700	99
Es	0.354712	0.579099	-0.557583	99
Es	0.181661	-1.092879	0.157701	99
Es	2.065082	-0.292171	-0.167478	99
Es	-0.100169	-0.031849	-0.506060	99
Es	-0.455652	-0.681880	-0.314888	99
Es	1.640382	0.182819	0.869622	99
38
Properties=species:S:1:pos:R:3:Z:I:1 energy=-358.5536087066075 field_type=dipole dipole="0.000000 0.000000 0.000000" charge=0
C	1.453384	-0.132245	0.229547	6
O	0.621244	-1.305955	0.424577	8
C	-0.455756	-0.681815	-0.315063	6
C	-1.605146	-0.094445	0.510617	6
N	-1.532276	1.183615	0.707247	7
O	-0.335376	1.685715	0.084527	8
C	0.354804	0.578955	-0.557723	6
H	2.354014	-0.373165	-0.343573	1
H	1.731954	0.326685	1.182677	1
H	-0.752656	-1.252615	-1.196593	1
H	-2.424076	-0.730245	0.876377	1
H	0.589884	0.795515	-1.602613	1
Es	-0.064862	1.247188	-0.126003	99
Es	-0.427388	1.685739	-0.051070	99
Es	-0.100108	-0.031998	-0.506312	99
Es	-1.531865	1.183250	0.706926	99
Es	-0.672422	-1.073206	-0.901751	99
Es	-0.455651	-0.681880	-0.314888	99
Es	-0.845355	1.422989	0.349627	99
Es	-0.335312	1.685177	0.084769	99
Es	2.065156	-0.292055	-0.167620	99
Es	0.536954	-1.285337	0.681848	99
Es	0.182097	-1.092724	0.158072	99
Es	-1.049775	-0.424146	0.117274	99
Es	1.453221	-0.132424	0.229545	99
Es	0.621203	-1.305640	0.424415	99
Es	0.521306	0.737754	-1.260520	99
Es	-1.739062	1.434041	0.873391	99
Es	0.951054	0.308495	-0.170497	99
Es	-2.150060	-0.513174	0.755547	99
Es	0.722472	-1.574399	0.286312	99
Es	-1.710139	0.644259	0.364785	99
Es	1.640315	0.182769	0.869429	99
Es	-1.418643	0.555139	0.863639	99
Es	-0.196464	1.952612	0.199930	99
Es	0.960462	-0.871512	0.362320	99
Es	0.354712	0.579099	-0.557584	99
Es	-1.605122	-0.094483	0.510598	99
38
Properties=species:S:1:pos:R:3:Z:I:1 energy=-358.5536087066075 field_type=dipole dipole="0.000000 0.000000 0.000000" charge=0
C	1.453384	-0.132245	0.229547	6
O	0.621244	-1.305955	0.424577	8
C	-0.455756	-0.681815	-0.315063	6
C	-1.605146	-0.094445	0.510617	6
N	-1.532276	1.183615	0.707247	7
O	-0.335376	1.685715	0.084527	8
C	0.354804	0.578955	-0.557723	6
H	2.354014	-0.373165	-0.343573	1
H	1.731954	0.326685	1.182677	1
H	-0.752656	-1.252615	-1.196593	1
H	-2.424076	-0.730245	0.876377	1
H	0.589884	0.795515	-1.602613	1
Es	-0.200856	1.958703	0.190239	99
Es	-1.418487	0.555115	0.864235	99
Es	-1.049608	-0.424113	0.117279	99
Es	-0.845314	1.423070	0.349799	99
Es	2.064894	-0.292176	-0.167504	99
Es	-1.605120	-0.094482	0.510601	99
Es	1.453223	-0.132423	0.229544	99
Es	0.723065	-1.569401	0.281273	99
Es	-0.335184	1.685134	0.085070	99
Es	0.960481	-0.871387	0.363540	99
Es	-0.065195	1.247040	-0.127493	99
Es	0.951653	0.308470	-0.170637	99
Es	0.180382	-1.092337	0.158859	99
Es	0.354716	0.579101	-0.557582	99
Es	-0.100317	-0.031755	-0.506181	99
Es	0.621142	-1.305535	0.424534	99
Es	-1.531894	1.183172	0.706933	99
Es	-1.738657	1.433950	0.873308	99
Es	-0.672632	-1.073248	-0.901955	99
Es	-0.422911	1.679804	-0.040336	99
Es	-1.710481	0.644366	0.364333	99
Es	0.538196	-1.290975	0.684766	99
Es	1.640556	0.182816	0.869682	99
Es	0.520835	0.737670	-1.260470	99
Es	-2.150109	-0.513168	0.755230	99
Es	-0.455652	-0.681881	-0.314887	99
38
Properties=species:S:1:pos:R:3:Z:I:1 energy=-358.5536087066075 field_type=dipole dipole="0.000000 0.000000 0.000000" charge=0
C	1.453384	-0.132245	0.229547	6
O	0.621244	-1.305955	0.424577	8
C	-0.455756	-0.681815	-0.315063	6
C	-1.605146	-0.094445	0.510617	6
N	-1.532276	1.183615	0.707247	7