40
Properties=species:S:1:pos:R:3:Z:I:1 energy=-322.7852113677819 field_type=dipole dipole="0.000000 0.000000 0.000000" charge=0
C	-2.464969	-0.660366	-0.017585	6
C	-1.005019	-0.469336	-0.007145	6
C	-0.179789	0.627544	-0.001465	6
C	1.123901	0.083014	0.007835	6
C	2.419861	0.795124	0.017315	6
N	1.091681	-1.255486	0.007835	7
O	-0.248729	-1.598786	-0.001775	8
H	-2.987459	0.301244	-0.009925	1
H	-2.784279	-1.227526	0.861955	1
H	-2.774119	-1.208396	-0.912975	1
H	-0.472489	1.666513	-0.003625	1
H	2.274111	1.880264	0.004195	1
H	3.015381	0.524064	-0.860445	1
H	2.991921	0.542134	0.915805	1
Es	2.791633	0.621123	0.618587	99
Es	0.299791	-1.426370	0.017055	99
Es	2.419792	0.795105	0.017315	99
Es	1.081109	-0.702709	-0.276112	99
Es	-0.493615	0.155684	-0.313881	99
Es	1.761038	0.441979	0.012331	99
Es	-1.004973	-0.469614	-0.007144	99
Es	-0.516450	-1.170776	0.093882	99
Es	-2.805419	-0.008650	-0.012420	99
Es	-0.371330	1.328683	-0.002643	99
Es	-1.725166	-0.560982	-0.011621	99
Es	-0.341930	-1.863957	0.123986	99
Es	1.342423	-1.537399	0.009659	99
Es	1.123946	0.082998	0.007832	99
Es	1.078174	-0.703668	0.290279	99
Es	-0.298916	-1.484974	-0.240383	99
Es	-0.248651	-1.598291	-0.001676	99
Es	2.807610	0.609151	-0.570142	99
Es	-2.661573	-1.036724	0.570084	99
Es	0.491365	0.413457	0.005308	99
Es	2.310471	1.528366	0.008442	99
Es	-0.505881	0.153893	0.304093	99
Es	-2.654599	-1.023848	-0.615665	99
Es	-0.179789	0.627562	-0.001432	99
Es	1.091199	-1.255059	0.007830	99
Es	-2.464890	-0.660347	-0.017585	99
40
Properties=species:S:1:pos:R:3:Z:I:1 energy=-322.7852113677819 field_type=dipole dipole="0.000000 0.000000 0.000000" charge=0
C	-2.464969	-0.660366	-0.017585	6
C	-1.005019	-0.469336	-0.007145	6
C	-0.179789	0.627544	-0.001465	6
C	1.123901	0.083014	0.007835	6
C	2.419861	0.795124	0.017315	6
N	1.091681	-1.255486	0.007835	7
O	-0.248729	-1.598786	-0.001775	8
H	-2.987459	0.301244	-0.009925	1
H	-2.784279	-1.227526	0.861955	1
H	-2.774119	-1.208396	-0.912975	1
H	-0.472489	1.666513	-0.003625	1
H	2.274111	1.880264	0.004195	1
H	3.015381	0.524064	-0.860445	1
H	2.991921	0.542134	0.915805	1
Es	-0.539665	-1.153512	0.027475	99
Es	1.081256	-0.699635	-0.271595	99
Es	-0.371771	1.329074	-0.002753	99
Es	0.303213	-1.425750	0.008445	99
Es	1.760020	0.439505	0.012510	99
Es	1.344555	-1.536738	0.009626	99
Es	-0.265044	-1.462807	-0.066537	99
Es	-0.179785	0.627570	-0.001460	99
Es	2.419792	0.795103	0.017315	99
Es	-1.723251	-0.561291	-0.012097	99
Es	-0.497856	0.152299	-0.310136	99
Es	-0.358188	-1.905806	0.024476	99
Es	2.807317	0.609724	-0.566073	99
Es	-1.004974	-0.469613	-0.007144	99
Es	0.492699	0.410808	0.004263	99
Es	2.312893	1.530623	0.008415	99
Es	-2.807276	-0.009107	-0.012219	99
Es	1.077477	-0.699694	0.286523	99
Es	2.791843	0.621495	0.614542	99
Es	1.091196	-1.255058	0.007832	99
Es	1.123946	0.083000	0.007835	99
Es	-2.464887	-0.660346	-0.017585	99
Es	-0.248622	-1.598179	-0.001410	99
Es	-2.655047	-1.023397	-0.613505	99
Es	-2.662131	-1.036643	0.567574	99
Es	-0.502341	0.153009	0.301659	99
40
Properties=species:S:1:pos:R:3:Z:I:1 energy=-322.7852113677819 field_type=dipole dipole="0.000000 0.000000 0.000000" charge=0
C	-2.464969	-0.660366	-0.017585	6
C	-1.005019	-0.469336	-0.007145	6
C	-0.179789	0.627544	-0.001465	6
C	1.123901	0.083014	0.007835	6
C	2.419861	0.795124	0.017315	6
N	1.091681	-1.255486	0.007835	7
O	-0.248729	-1.598786	-0.001775	8
H	-2.987459	0.301244	-0.009925	1
H	-2.784279	-1.227526	0.861955	1
H	-2.774119	-1.208396	-0.912975	1
H	-0.472489	1.666513	-0.003625	1
H	2.274111	1.880264	0.004195	1
H	3.015381	0.524064	-0.860445	1
H	2.991921	0.542134	0.915805	1
Es	-0.498281	0.151019	-0.307376	99
Es	1.080546	-0.697508	-0.268133	99
Es	2.419793	0.795102	0.017315	99
Es	1.076923	-0.697737	0.284127	99
Es	2.807087	0.609798	-0.562800	99
Es	-0.372179	1.329343	-0.002978	99
Es	0.303065	-1.425227	0.002802	99
Es	-1.004972	-0.469616	-0.007145	99
Es	-0.500812	0.151893	0.300005	99
Es	-2.655135	-1.023071	-0.611677	99
Es	1.759824	0.437537	0.012311	99
Es	-0.264961	-1.463597	-0.008615	99
Es	-0.360250	-1.908107	0.000150	99
Es	-2.464889	-0.660346	-0.017585	99
Es	1.091195	-1.255057	0.007828	99
Es	-1.722030	-0.561415	-0.012380	99
Es	2.790985	0.621804	0.611170	99
Es	2.314835	1.532497	0.008478	99
Es	0.493460	0.409326	0.003592	99
Es	1.123947	0.083000	0.007825	99
Es	-0.248606	-1.598337	-0.001774	99
Es	-0.539819	-1.151857	-0.000424	99
Es	1.346339	-1.536348	0.008945	99
Es	-2.808533	-0.009497	-0.012473	99
Es	-2.662378	-1.036534	0.566253	99
Es	-0.179785	0.627570	-0.001465	99
40
Properties=species:S:1:pos:R:3:Z:I:1 energy=-322.7852113677819 field_type=dipole dipole="0.000000 0.000000 0.000000" charge=0
C	-2.464969	-0.660366	-0.017585	6
C	-1.005019	-0.469336	-0.007145	6
C	-0.179789	0.627544	-0.001465	6
C	1.123901	0.083014	0.007835	6
C	2.419861	0.795124	0.017315	6
N	1.091681	-1.255486	0.007835	7
O	-0.248729	-1.598786	-0.001775	8
H	-2.987459	0.301244	-0.009925	1
H	-2.784279	-1.227526	0.861955	1
H	-2.774119	-1.208396	-0.912975	1
H	-0.472489	1.666513	-0.003625	1
H	2.274111	1.880264	0.004195	1
H	3.015381	0.524064	-0.860445	1
H	2.991921	0.542134	0.915805	1
Es	2.419792	0.795103	0.017315	99
Es	-2.464890	-0.660346	-0.017585	99
Es	1.759873	0.436096	0.012419	99
Es	1.347959	-1.536012	0.009627	99
Es	2.316665	1.534013	0.008613	99
Es	-0.266614	-1.463990	0.004163	99
Es	2.790264	0.621839	0.608194	99
Es	-1.004974	-0.469616	-0.007143	99
Es	-0.372561	1.329696	-0.002670	99
Es	-0.179785	0.627570	-0.001504	99
Es	-0.502686	0.149989	0.297937	99
Es	-2.809800	-0.009575	-0.012560	99
Es	2.806293	0.609981	-0.559967	99
Es	1.091169	-1.255068	0.007832	99
Es	-1.721254	-0.561622	-0.012358	99
Es	1.076104	-0.696385	0.281122	99
Es	-0.361065	-1.908413	-0.006262	99
Es	-0.495175	0.151120	-0.305562	99
Es	-0.248610	-1.598335	-0.001844	99
Es	1.123948	0.083004	0.007832	99
Es	-2.662381	-1.036513	0.564841	99
Es	0.493696	0.407993	0.003428	99
Es	-0.538797	-1.152445	-0.006468	99
Es	-2.654911	-1.022801	-0.610172	99
Es	1.080298	-0.696038	-0.265728	99
Es	0.302812	-1.424612	0.002476	99
40
Properties=species:S:1:pos:R:3:Z:I:1 energy=-322.7852113677819 field_type=dipole dipole="0.000000 0.000000 0.000000" charge=0
C	-2.464969	-0.660366	-0.017585	6
C	-1.005019	-0.469336	-0.007145	6
C	-0.179789	0.627544	-0.001465	6
C	1.123901	0.083014	0.007835	6
C	2.419861	0.795124	0.017315	6
N	1.091681	-1.255486	0.007835	7
O	-0.248729	-1.598786	-0.001775	8
H	-2.987459	0.301244	-0.009925	1
H	-2.784279	-1.227526	0.861955	1
H	-2.774119	-1.208396	-0.912975	1
H	-0.472489	1.666513	-0.003625	1
H	2.274111	1.880264	0.004195	1
H	3.015381	0.524064	-0.860445	1
H	2.991921	0.542134	0.915805	1
Es	1.348786	-1.535725	0.009408	99
Es	-0.361990	-1.908518	-0.002412	99
Es	1.076369	-0.694615	0.279604	99
Es	1.123947	0.083002	0.007828	99
Es	2.419792	0.795103	0.017315	99
Es	-2.654474	-1.022258	-0.608783	99
Es	-0.372758	1.330021	-0.002905	99
Es	-1.004974	-0.469617	-0.007146	99
Es	-2.810839	-0.009649	-0.012789	99
Es	2.318451	1.535232	0.008452	99
Es	-0.248608	-1.598308	-0.001648	99
Es	0.302695	-1.424589	0.001665	99
Es	1.091190	-1.255053	0.007830	99
Es	-0.537904	-1.152548	-0.003371	99
Es	2.788817	0.622283	0.605563	99
Es	-0.502447	0.147845	-0.303532	99
Es	-2.464890	-0.660346	-0.017585	99
Es	-1.720705	-0.561809	-0.012520	99
Es	-0.179784	0.627572	-0.001464	99
Es	1.079584	-0.695676	-0.264213	99
Es	2.806010	0.609747	-0.557239	99
Es	-2.662495	-1.036807	0.563860	99
Es	1.759988	0.434879	0.012417	99
Es	-0.267533	-1.464265	-0.002036	99
Es	-0.494704	0.151807	0.296745	99
Es	0.493846	0.406925	0.002932	99
40
Properties=species:S:1:pos:R:3:Z:I:1 energy=-322.7852113677819 field_type=dipole dipole="0.000000 0.000000 0.000000" charge=0
C	-2.464969	-0.660366	-0.017585	6
C	-1.005019	-0.469336	-0.007145	6
C	-0.179789	0.627544	-0.001465	6
C	1.123901	0.083014	0.007835	6
C	2.419861	0.795124	0.017315	6
N	1.091681	-1.255486	0.007835	7
O	-0.248729	-1.598786	-0.001775	8
H	-2.987459	0.301244	-0.009925	1
H	-2.784279	-1.227526	0.861955	1
H	-2.774119	-1.208396	-0.912975	1
H	-0.472489	1.666513	-0.003625	1
H	2.274111	1.880264	0.004195	1
H	3.015381	0.524064	-0.860445	1
H	2.991921	0.542134	0.915805	1
Es	0.493761	0.406192	0.007456	99
Es	-0.362388	-1.908694	-0.005565	99
Es	-0.532119	0.139545	0.286994	99
Es	2.419792	0.795103	0.017315	99
Es	-1.720341	-0.561976	-0.012321	99
Es	-2.811474	-0.009740	-0.012210	99
Es	-0.537304	-1.153027	-0.005712	99
Es	-2.655614	-1.024295	-0.608711	99
Es	-0.268759	-1.464238	0.000289	99
Es	-2.661176	-1.034522	0.562427	99
Es	1.123949	0.083003	0.007836	99
Es	-0.248600	-1.598335	-0.001817	99
Es	1.076305	-0.692738	0.277349	99
Es	-0.463816	0.159669	-0.298244	99
Es	-0.372855	1.330153	-0.002242	99
Es	-1.004974	-0.469616	-0.007148	99
Es	0.302530	-1.424192	0.004683	99
Es	2.791215	0.620838	0.604372	99
Es	1.078862	-0.696735	-0.263207	99
Es	1.349713	-1.535415	0.010270	99
Es	1.760225	0.434051	0.011977	99
Es	-0.179785	0.627571	-0.001470	99
Es	2.319763	1.535985	0.007948	99
Es	1.091165	-1.255053	0.007827	99
Es	2.802179	0.611446	-0.554534	99
Es	-2.464888	-0.660344	-0.017586	99
40
Properties=species:S:1:pos:R:3:Z:I:1 energy=-322.7852113677819 field_type=dipole dipole="0.000000 0.000000 0.000000" charge=0
C	-2.464969	-0.660366	-0.017585	6
C	-1.005019	-0.469336	-0.007145	6
C	-0.179789	0.627544	-0.001465	6
C	1.123901	0.083014	0.007835	6
C	2.419861	0.795124	0.017315	6
N	1.091681	-1.255486	0.007835	7
O	-0.248729	-1.598786	-0.001775	8
H	-2.987459	0.301244	-0.009925	1
H	-2.784279	-1.227526	0.861955	1
H	-2.774119	-1.208396	-0.912975	1
H	-0.472489	1.666513	-0.003625	1
H	2.274111	1.880264	0.004195	1
H	3.015381	0.524064	-0.860445	1
H	2.991921	0.542134	0.915805	1
Es	-1.004975	-0.469618	-0.007146	99
Es	1.091183	-1.255057	0.007834	99
Es	0.493785	0.405870	0.013029	99
Es	1.123948	0.083004	0.007837	99
Es	2.419793	0.795103	0.017315	99
Es	2.319194	1.535567	0.007018	99
Es	2.794506	0.619480	0.605773	99
Es	-0.580616	0.124275	0.243827	99
Es	-0.536417	-1.153131	-0.011999	99
Es	-2.464888	-0.660346	-0.017586	99
Es	-0.372538	1.330181	-0.001507	99
Es	0.302349	-1.424227	0.008453	99
Es	-2.810468	-0.010254	-0.011993	99
Es	1.348189	-1.535094	0.010204	99
Es	1.078625	-0.698826	-0.265609	99
Es	-2.660294	-1.032229	0.562802	99
Es	-2.657194	-1.026669	-0.609934	99
Es	1.759974	0.434788	0.011473	99
Es	-0.179785	0.627569	-0.001439	99
Es	-0.248597	-1.598336	-0.001800	99
Es	2.799496	0.612787	-0.554040	99
Es	1.076851	-0.692864	0.279399	99
Es	-0.362616	-1.908655	-0.012932	99
Es	-0.270699	-1.464059	0.009898	99
Es	-0.412801	0.176870	-0.260633	99
Es	-1.720634	-0.561496	-0.012265	99
40
Properties=species:S:1:pos:R:3:Z:I:1 energy=-322.7852113677819 field_type=dipole dipole="0.000000 0.000000 0.000000" charge=0
C	-2.464969	-0.660366	-0.017585	6
C	-1.005019	-0.469336	-0.007145	6
C	-0.179789	0.627544	-0.001465	6
C	1.123901	0.083014	0.007835	6
C	2.419861	0.795124	0.017315	6
N	1.091681	-1.255486	0.007835	7
O	-0.248729	-1.598786	-0.001775	8
H	-2.987459	0.301244	-0.009925	1
H	-2.784279	-1.227526	0.861955	1
H	-2.774119	-1.208396	-0.912975	1
H	-0.472489	1.666513	-0.003625	1
H	2.274111	1.880264	0.004195	1
H	3.015381	0.524064	-0.860445	1
H	2.991921	0.542134	0.915805	1
Es	1.123948	0.083003	0.007834	99
Es	-0.536137	-1.153406	0.005206	99
Es	-0.248869	-1.596847	-0.000830	99
Es	-2.665323	-1.041269	0.564406	99
Es	-0.372408	1.330205	-0.004046	99
Es	-1.720655	-0.561383	-0.012397	99
Es	2.810519	0.607519	-0.557173	99
Es	-2.652228	-1.017713	-0.607546	99
Es	-1.004974	-0.469617	-0.007140	99
Es	2.783312	0.624751	0.601315	99
Es	1.759922	0.434779	0.013678	99
Es	0.494045	0.405640	-0.006551	99
Es	-0.405466	0.180432	0.239927	99
Es	1.091176	-1.255077	0.007827	99
Es	1.074527	-0.699432	0.281362	99
Es	2.319398	1.535704	0.010341	99
Es	1.080818	-0.692497	-0.264072	99
Es	-0.587157	0.121020	-0.237708	99
Es	-0.363094	-1.908838	0.004941	99
Es	-2.464889	-0.660346	-0.017585	99
Es	-2.810362	-0.010383	-0.013469	99
Es	2.419793	0.795104	0.017315	99
Es	-0.271123	-1.465381	-0.012690	99
Es	1.347976	-1.534857	0.008614	99
Es	0.302403	-1.424051	-0.004104	99
Es	-0.179785	0.627573	-0.001479	99
40
Properties=species:S:1:pos:R:3:Z:I:1 energy=-322.7852113677819 field_type=dipole dipole="0.000000 0.000000 0.000000" charge=0
C	-2.464969	-0.660366	-0.017585	6
C	-1.005019	-0.469336	-0.007145	6
C	-0.179789	0.627544	-0.001465	6
C	1.123901	0.083014	0.007835	6
C	2.419861	0.795124	0.017315	6
N	1.091681	-1.255486	0.007835	7
O	-0.248729	-1.598786	-0.001775	8
H	-2.987459	0.301244	-0.009925	1
H	-2.784279	-1.227526	0.861955	1
H	-2.774119	-1.208396	-0.912975	1
H	-0.472489	1.666513	-0.003625	1
H	2.274111	1.880264	0.004195	1
H	3.015381	0.524064	-0.860445	1
H	2.991921	0.542134	0.915805	1
Es	-0.179785	0.627571	-0.001485	99
Es	0.302480	-1.424140	-0.004759	99
Es	1.074211	-0.700412	0.282237	99
Es	-1.004974	-0.469617	-0.007144	99
Es	-2.810004	-0.010575	-0.013559	99
Es	2.810108	0.607714	-0.557489	99
Es	-0.363332	-1.908778	0.005733	99
Es	2.783800	0.624609	0.601395	99
Es	-2.652559	-1.018168	-0.607963	99
Es	0.494124	0.405444	-0.007783	99
Es	-0.598484	0.117470	-0.217498	99
Es	-0.535600	-1.153695	0.010432	99
Es	1.081179	-0.692280	-0.264774	99
Es	-0.393028	0.184624	0.220886	99
Es	-2.665199	-1.040869	0.564997	99
Es	-0.248613	-1.598342	-0.001815	99
Es	1.091190	-1.255052	0.007830	99
Es	2.419792	0.795103	0.017316	99
Es	1.123948	0.083003	0.007829	99
Es	1.759907	0.434868	0.013761	99
Es	-0.372205	1.330255	-0.004340	99
Es	-0.272577	-1.463524	-0.016923	99
Es	2.319314	1.535642	0.010379	99
Es	-2.464890	-0.660346	-0.017584	99
Es	-1.720797	-0.561189	-0.012456	99
Es	1.347359	-1.534684	0.008756	99
40
Properties=species:S:1:pos:R:3:Z:I:1 energy=-322.7852113677819 field_type=dipole dipole="0.000000 0.000000 0.000000" charge=0
C	-2.464969	-0.660366	-0.017585	6
C	-1.005019	-0.469336	-0.007145	6
C	-0.179789	0.627544	-0.001465	6
C	1.123901	0.083014	0.007835	6
C	2.419861	0.795124	0.017315	6
N	1.091681	-1.255486	0.007835	7
O	-0.248729	-1.598786	-0.001775	8
H	-2.987459	0.301244	-0.009925	1
H	-2.784279	-1.227526	0.861955	1
H	-2.774119	-1.208396	-0.912975	1
H	-0.472489	1.666513	-0.003625	1
H	2.274111	1.880264	0.004195	1
H	3.015381	0.524064	-0.860445	1
H	2.991921	0.542134	0.915805	1
Es	2.319208	1.535575	0.010551	99
Es	-0.535412	-1.153814	0.009353	99
Es	-0.384415	0.187691	0.205344	99
Es	2.784214	0.624384	0.601552	99
Es	-2.652577	-1.018044	-0.608209	99
Es	1.074028	-0.701546	0.283064	99
Es	1.123948	0.083003	0.007834	99
Es	-0.248630	-1.598346	-0.001809	99
Es	0.494270	0.405226	-0.008359	99
Es	-2.665397	-1.040989	0.565227	99
Es	-2.464889	-0.660348	-0.017582	99
Es	2.809808	0.607890	-0.557891	99
Es	1.346709	-1.534481	0.008391	99
Es	-0.273187	-1.463448	-0.014284	99
Es	1.759800	0.435175	0.013792	99
Es	-0.372089	1.330266	-0.004467	99
Es	2.419792	0.795103	0.017316	99
Es	-2.809727	-0.010795	-0.013561	99
Es	-1.720889	-0.561012	-0.012366	99
Es	1.081549	-0.691998	-0.265255	99
Es	-0.179786	0.627567	-0.001507	99
Es	-0.606110	0.115056	-0.201251	99
Es	1.091197	-1.255043	0.007830	99
Es	-1.004973	-0.469617	-0.007143	99
Es	-0.363417	-1.908957	0.004237	99
Es	0.302343	-1.423865	-0.004828	99
40
Properties=species:S:1:pos:R:3:Z:I:1 energy=-322.7852113677819 field_type=dipole dipole="0.000000 0.000000 0.000000" charge=0
C	-2.464969	-0.660366	-0.017585	6
C	-1.005019	-0.469336	-0.007145	6
C	-0.179789	0.627544	-0.001465	6
C	1.123901	0.083014	0.007835	6
C	2.419861	0.795124	0.017315	6
N	1.091681	-1.255486	0.007835	7
O	-0.248729	-1.598786	-0.001775	8
H	-2.987459	0.301244	-0.009925	1
H	-2.784279	-1.227526	0.861955	1
H	-2.774119	-1.208396	-0.912975	1
H	-0.472489	1.666513	-0.003625	1
H	2.274111	1.880264	0.004195	1
H	3.015381	0.524064	-0.860445	1
H	2.991921	0.542134	0.915805	1
Es	-0.611513	0.113380	-0.188071	99
Es	1.123948	0.083003	0.007831	99
Es	0.494383	0.404997	-0.008274	99
Es	-0.378361	0.189860	0.191935	99
Es	-0.248642	-1.598180	-0.001475	99
Es	-2.809545	-0.010993	-0.013526	99
Es	-2.464887	-0.660350	-0.017585	99
Es	2.784230	0.624369	0.601692	99
Es	-1.720983	-0.560822	-0.012321	99
Es	2.319242	1.535589	0.010404	99
Es	1.759738	0.435213	0.013590	99
Es	2.809767	0.607942	-0.557649	99
Es	-0.372032	1.330358	-0.004398	99
Es	-2.665210	-1.040657	0.565561	99
Es	1.346345	-1.534272	0.009023	99
Es	0.302357	-1.423883	-0.005148	99
Es	1.091180	-1.255055	0.007830	99
Es	1.081173	-0.693510	-0.266339	99
Es	-0.179785	0.627571	-0.001486	99
Es	2.419792	0.795103	0.017315	99
Es	-0.274024	-1.463388	-0.021117	99
Es	-0.534940	-1.154078	0.012781	99
Es	-1.004974	-0.469620	-0.007140	99
Es	-2.652823	-1.018454	-0.608627	99
Es	1.074492	-0.700593	0.283573	99
Es	-0.363560	-1.908898	0.007597	99
40
Properties=species:S:1:pos:R:3:Z:I:1 energy=-322.7852113677819 field_type=dipole dipole="0.000000 0.000000 0.000000" charge=0
C	-2.464969	-0.660366	-0.017585	6
C	-1.005019	-0.469336	-0.007145	6
C	-0.179789	0.627544	-0.001465	6
C	1.123901	0.083014	0.007835	6
C	2.419861	0.795124	0.017315	6
N	1.091681	-1.255486	0.007835	7
O	-0.248729	-1.598786	-0.001775	8
H	-2.987459	0.301244	-0.009925	1
H	-2.784279	-1.227526	0.861955	1
H	-2.774119	-1.208396	-0.912975	1
H	-0.472489	1.666513	-0.003625	1
H	2.274111	1.880264	0.004195	1
H	3.015381	0.524064	-0.860445	1
H	2.991921	0.542134	0.915805	1
Es	-0.248661	-1.598023	-0.001309	99
Es	-2.464889	-0.660347	-0.017584	99
Es	-0.363781	-1.908944	0.007816	99
Es	-0.371876	1.330368	-0.004405	99
Es	2.319207	1.535558	0.010521	99
Es	-0.615391	0.112120	-0.177551	99
Es	2.419792	0.795103	0.017315	99
Es	1.346147	-1.534094	0.008325	99
Es	1.123948	0.083004	0.007834	99
Es	1.081054	-0.693361	-0.266355	99
Es	-0.373958	0.191370	0.181753	99
Es	-0.274188	-1.463664	-0.018287	99
Es	-0.179785	0.627571	-0.001485	99
Es	-2.809381	-0.011026	-0.013528	99
Es	-2.665082	-1.040309	0.565766	99
Es	0.302322	-1.423869	-0.004968	99
Es	-2.653057	-1.018803	-0.608862	99
Es	0.494500	0.404842	-0.008358	99
Es	1.091175	-1.255059	0.007829	99
Es	2.809855	0.607965	-0.557727	99
Es	1.074457	-0.701087	0.284140	99
Es	-1.721064	-0.560822	-0.012296	99
Es	-0.534871	-1.153984	0.009320	99
Es	2.784169	0.624393	0.601636	99
Es	-1.004974	-0.469617	-0.007143	99
Es	1.759700	0.435346	0.013578	99
40
Properties=species:S:1:pos:R:3:Z:I:1 energy=-322.7852113677819 field_type=dipole dipole="0.000000 0.000000 0.000000" charge=0
C	-2.464969	-0.660366	-0.017585	6
C	-1.005019	-0.469336	-0.007145	6
C	-0.179789	0.627544	-0.001465	6
C	1.123901	0.083014	0.007835	6
C	2.419861	0.795124	0.017315	6
N	1.091681	-1.255486	0.007835	7
O	-0.248729	-1.598786	-0.001775	8
H	-2.987459	0.301244	-0.009925	1
H	-2.784279	-1.227526	0.861955	1
H	-2.774119	-1.208396	-0.912975	1
H	-0.472489	1.666513	-0.003625	1
H	2.274111	1.880264	0.004195	1
H	3.015381	0.524064	-0.860445	1
H	2.991921	0.542134	0.915805	1
Es	1.123948	0.083003	0.007838	99
Es	-2.809134	-0.011259	-0.011836	99
Es	-0.371855	1.330435	-0.001149	99
Es	2.793448	0.619912	0.606191	99
Es	1.759758	0.435346	0.011235	99
Es	2.800575	0.612508	-0.554064	99
Es	-2.657843	-1.027036	-0.611494	99
Es	-0.275087	-1.463218	0.016950	99
Es	1.077299	-0.693165	0.281757	99
Es	-0.534292	-1.154119	-0.019422	99
Es	-0.248601	-1.598339	-0.001735	99
Es	1.091154	-1.255066	0.007812	99
Es	-2.464889	-0.660346	-0.017584	99
Es	1.078177	-0.701664	-0.269237	99
Es	2.319114	1.535508	0.007078	99
Es	-2.660477	-1.032026	0.564101	99
Es	0.302232	-1.423808	0.009399	99
Es	-0.621824	0.110779	0.155870	99
Es	-1.721078	-0.560703	-0.012413	99
Es	-0.366730	0.193032	-0.174913	99
Es	-0.363786	-1.908924	-0.013688	99
Es	-0.179786	0.627572	-0.001444	99
Es	0.494280	0.404794	0.015584	99
Es	2.419793	0.795104	0.017315	99
Es	1.345948	-1.534072	0.010978	99
Es	-1.004976	-0.469616	-0.007150	99
40
Properties=species:S:1:pos:R:3:Z:I:1 energy=-322.7852113677819 field_type=dipole dipole="0.000000 0.000000 0.000000" charge=0
C	-2.464969	-0.660366	-0.017585	6
C	-1.005019	-0.469336	-0.007145	6
C	-0.179789	0.627544	-0.001465	6
C	1.123901	0.083014	0.007835	6
C	2.419861	0.795124	0.017315	6
N	1.091681	-1.255486	0.007835	7
O	-0.248729	-1.598786	-0.001775	8
H	-2.987459	0.301244	-0.009925	1
H	-2.784279	-1.227526	0.861955	1
H	-2.774119	-1.208396	-0.912975	1
H	-0.472489	1.666513	-0.003625	1
H	2.274111	1.880264	0.004195	1
H	3.015381	0.524064	-0.860445	1
H	2.991921	0.542134	0.915805	1
Es	2.809843	0.608005	-0.557773	99
Es	2.784196	0.624405	0.601629	99
Es	0.302396	-1.423793	-0.004407	99
Es	1.091170	-1.255095	0.007839	99
Es	0.494570	0.404708	-0.008473	99
Es	-0.534427	-1.154195	0.008419	99
Es	-0.274922	-1.463225	-0.016107	99
Es	-2.653228	-1.018920	-0.609276	99
Es	-2.464890	-0.660347	-0.017584	99
Es	-1.004975	-0.469615	-0.007144	99
Es	1.123948	0.083003	0.007833	99
Es	-0.364285	-1.908975	0.006360	99
Es	2.319184	1.535523	0.010535	99
Es	-0.248576	-1.598317	-0.001781	99
Es	-2.809036	-0.011284	-0.013499	99
Es	-0.179785	0.627572	-0.001485	99
Es	1.759636	0.435428	0.013708	99
Es	1.074507	-0.700663	0.284469	99
Es	-1.721132	-0.560626	-0.012231	99
Es	-0.367453	0.193561	0.164585	99
Es	-0.621017	0.110329	-0.160373	99
Es	2.419804	0.795102	0.017328	99
Es	1.080986	-0.694342	-0.267344	99
Es	-2.665156	-1.040189	0.566085	99
Es	-0.371752	1.330447	-0.004353	99
Es	1.345762	-1.533865	0.009016	99
40
Properties=species:S:1:pos:R:3:Z:I:1 energy=-322.7852113677819 field_type=dipole dipole="0.000000 0.000000 0.000000" charge=0
C	-2.464969	-0.660366	-0.017585	6
C	-1.005019	-0.469336	-0.007145	6
C	-0.179789	0.627544	-0.001465	6
C	1.123901	0.083014	0.007835	6
C	2.419861	0.795124	0.017315	6
N	1.091681	-1.255486	0.007835	7
O	-0.248729	-1.598786	-0.001775	8
H	-2.987459	0.301244	-0.009925	1
H	-2.784279	-1.227526	0.861955	1
H	-2.774119	-1.208396	-0.912975	1
H	-0.472489	1.666513	-0.003625	1
H	2.274111	1.880264	0.004195	1
H	3.015381	0.524064	-0.860445	1
H	2.991921	0.542134	0.915805	1
Es	-0.362647	0.194406	-0.162159	99
Es	-1.004973	-0.469618	-0.007146	99
Es	1.345553	-1.533825	0.010177	99
Es	1.759619	0.435457	0.011329	99
Es	-2.660641	-1.032359	0.564280	99
Es	1.077785	-0.692773	0.282561	99
Es	2.800167	0.612513	-0.553627	99
Es	-2.808993	-0.011430	-0.011732	99
Es	-0.534320	-1.154137	-0.015619	99
Es	2.419800	0.795103	0.017307	99
Es	-0.364094	-1.909074	-0.010055	99
Es	-0.275039	-1.463872	0.010058	99
Es	-0.248738	-1.597709	-0.002268	99
Es	2.793700	0.619960	0.606167	99
Es	1.077696	-0.702360	-0.269172	99
Es	-2.657760	-1.026726	-0.611764	99
Es	-1.721130	-0.560524	-0.012384	99
Es	-0.371741	1.330500	-0.001338	99
Es	1.123948	0.083003	0.007837	99
Es	-0.625349	0.109663	0.143490	99
Es	1.091186	-1.255049	0.007834	99
Es	-0.179786	0.627571	-0.001436	99
Es	2.319324	1.535514	0.006606	99
Es	0.494470	0.404535	0.015288	99
Es	-2.464890	-0.660347	-0.017585	99
Es	0.302223	-1.423787	0.009330	99
40
Properties=species:S:1:pos:R:3:Z:I:1 energy=-322.7852113677819 field_type=dipole dipole="0.000000 0.000000 0.000000" charge=0
C	-2.464969	-0.660366	-0.017585	6
C	-1.005019	-0.469336	-0.007145	6
C	-0.179789	0.627544	-0.001465	6
C	1.123901	0.083014	0.007835	6
C	2.419861	0.795124	0.017315	6
N	1.091681	-1.255486	0.007835	7
O	-0.248729	-1.598786	-0.001775	8
H	-2.987459	0.301244	-0.009925	1
H	-2.784279	-1.227526	0.861955	1
H	-2.774119	-1.208396	-0.912975	1
H	-0.472489	1.666513	-0.003625	1
H	2.274111	1.880264	0.004195	1
H	3.015381	0.524064	-0.860445	1
H	2.991921	0.542134	0.915805	1
Es	-0.363005	0.195166	0.149869	99
Es	0.302348	-1.423741	-0.004528	99
Es	1.091177	-1.255053	0.007829	99
Es	-0.275244	-1.463614	-0.014932	99
Es	-2.464890	-0.660347	-0.017584	99
Es	1.123948	0.083003	0.007836	99
Es	1.074428	-0.701706	0.285272	99
Es	-2.808839	-0.011503	-0.013442	99
Es	2.809440	0.608146	-0.557798	99
Es	-0.179785	0.627573	-0.001482	99
Es	1.081210	-0.693766	-0.267403	99
Es	1.345277	-1.533648	0.008086	99
Es	2.784555	0.624176	0.601761	99
Es	-2.664947	-1.039830	0.566406	99
Es	-0.364346	-1.909067	0.006769	99
Es	-1.721252	-0.560408	-0.012247	99
Es	-2.653529	-1.019323	-0.609647	99
Es	2.419794	0.795104	0.017314	99
Es	-0.371557	1.330524	-0.004077	99
Es	-0.624957	0.109155	-0.146621	99
Es	-1.004974	-0.469617	-0.007143	99
Es	1.759506	0.435677	0.013677	99
Es	-0.248691	-1.597983	-0.001359	99
Es	0.494706	0.404365	-0.007656	99
Es	2.319292	1.535535	0.010524	99
Es	-0.534298	-1.154186	0.006555	99
40
Properties=species:S:1:pos:R:3:Z:I:1 energy=-322.7852113677819 field_type=dipole dipole="0.000000 0.000000 0.000000" charge=0
C	-2.464969	-0.660366	-0.017585	6
C	-1.005019	-0.469336	-0.007145	6
C	-0.179789	0.627544	-0.001465	6
C	1.123901	0.083014	0.007835	6
C	2.419861	0.795124	0.017315	6
N	1.091681	-1.255486	0.007835	7
O	-0.248729	-1.598786	-0.001775	8
H	-2.987459	0.301244	-0.009925	1
H	-2.784279	-1.227526	0.861955	1
H	-2.774119	-1.208396	-0.912975	1
H	-0.472489	1.666513	-0.003625	1
H	2.274111	1.880264	0.004195	1
H	3.015381	0.524064	-0.860445	1
H	2.991921	0.542134	0.915805	1
Es	-2.808665	-0.011601	-0.011713	99
Es	-0.275784	-1.463023	0.010318	99
Es	-1.004974	-0.469616	-0.007148	99
Es	2.319168	1.535505	0.007134	99
Es	0.494611	0.404263	0.015857	99
Es	-2.660869	-1.032771	0.564773	99
Es	-0.248601	-1.598341	-0.001737	99
Es	-2.657714	-1.026331	-0.612070	99
Es	-0.629681	0.108425	0.126425	99
Es	1.759587	0.435617	0.011423	99
Es	-0.533842	-1.154369	-0.017553	99
Es	1.077508	-0.694251	0.283390	99
Es	-1.721283	-0.560397	-0.012514	99
Es	2.801387	0.612080	-0.554307	99
Es	2.792620	0.620345	0.606133	99
Es	0.302144	-1.423617	0.009551	99
Es	2.419793	0.795104	0.017315	99
Es	-0.364345	-1.909163	-0.009025	99
Es	1.123948	0.083003	0.007841	99
Es	-0.179786	0.627572	-0.001446	99
Es	1.078185	-0.701607	-0.270233	99
Es	1.091178	-1.255059	0.007829	99
Es	-0.371566	1.330525	-0.001290	99
Es	-0.357763	0.196288	-0.145425	99
Es	-2.464889	-0.660346	-0.017586	99
Es	1.345003	-1.533603	0.010036	99
