39
Properties=species:S:1:pos:R:3:Z:I:1 energy=-338.750601713586 field_type=dipole dipole="0.000000 0.000000 0.000000" charge=0
C	-1.744174	0.164542	0.093009	6
C	-0.268504	0.222962	0.080479	6
C	0.628886	1.263972	-0.037561	6
C	1.899746	0.649132	-0.036451	6
N	1.811285	-0.684918	0.058689	7
N	0.502226	-0.888668	0.195139	7
O	0.039226	-2.180038	0.265539	8
H	-2.177034	1.168062	0.103129	1
H	-2.104144	-0.372058	0.975419	1
H	-2.108864	-0.354888	-0.798861	1
H	0.400876	2.319652	-0.129211	1
H	2.878626	1.111102	-0.118531	1
H	0.241846	-2.418858	-0.650791	1
Es	0.230597	-2.325064	0.453338	99
Es	2.045837	-0.974184	0.059942	99
Es	-0.268494	0.222736	0.080528	99
Es	0.321575	0.780567	-0.286719	99
Es	-1.974077	-0.185690	-0.507732	99
Es	0.142374	-2.308934	-0.220877	99
Es	-1.973138	-0.194394	0.683183	99
Es	-1.744087	0.164547	0.093001	99
Es	1.899767	0.649055	-0.036447	99
Es	0.628875	1.263988	-0.037555	99
Es	1.829782	-0.103304	0.288108	99
Es	1.285520	1.014295	-0.031072	99
Es	0.352672	-0.548105	0.448546	99
Es	-0.993943	0.191293	0.091174	99
Es	1.787518	-0.142445	-0.255972	99
Es	0.257384	-0.538505	-0.100277	99
Es	-2.025013	0.843118	0.098030	99
Es	0.502213	-0.888815	0.195140	99
Es	0.475128	1.976281	-0.098454	99
Es	0.251666	-1.586132	0.227181	99
Es	0.039359	-2.179864	0.265253	99
Es	-0.269952	-2.153524	0.297659	99
Es	1.123260	-0.805557	0.123059	99
Es	1.810798	-0.684515	0.058693	99
Es	0.315050	0.831296	0.301717	99
Es	2.555941	0.970257	-0.093793	99
39
Properties=species:S:1:pos:R:3:Z:I:1 energy=-338.750601713586 field_type=dipole dipole="0.000000 0.000000 0.000000" charge=0
C	-1.744174	0.164542	0.093009	6
C	-0.268504	0.222962	0.080479	6
C	0.628886	1.263972	-0.037561	6
C	1.899746	0.649132	-0.036451	6
N	1.811285	-0.684918	0.058689	7
N	0.502226	-0.888668	0.195139	7
O	0.039226	-2.180038	0.265539	8
H	-2.177034	1.168062	0.103129	1
H	-2.104144	-0.372058	0.975419	1
H	-2.108864	-0.354888	-0.798861	1
H	0.400876	2.319652	-0.129211	1
H	2.878626	1.111102	-0.118531	1
H	0.241846	-2.418858	-0.650791	1
Es	-1.972814	-0.184164	-0.502764	99
Es	0.442964	-0.617372	0.386531	99
Es	0.039293	-2.179852	0.265281	99
Es	1.810790	-0.684518	0.058695	99
Es	-0.268498	0.222735	0.080525	99
Es	-1.744092	0.164545	0.092997	99
Es	0.253830	-1.584729	0.225802	99
Es	1.123080	-0.805302	0.111182	99
Es	-0.285597	-2.166869	0.299955	99
Es	1.286989	1.010173	-0.028374	99
Es	1.784977	-0.133232	-0.247178	99
Es	-1.974006	-0.195654	0.679992	99
Es	0.502209	-0.888822	0.194749	99
Es	0.278204	0.819223	0.291637	99
Es	0.628879	1.263996	-0.037557	99
Es	0.355867	0.787578	-0.277428	99
Es	-0.992132	0.189265	0.090914	99
Es	1.827247	-0.093723	0.282229	99
Es	0.152287	-2.306139	-0.206580	99
Es	0.474320	1.977786	-0.096738	99
Es	2.557714	0.970811	-0.093796	99
Es	-2.028484	0.844330	0.097150	99
Es	1.899768	0.649059	-0.036445	99
Es	2.050581	-0.972502	0.055604	99
Es	0.232175	-2.316924	0.437493	99
Es	0.171062	-0.481298	-0.028225	99
39
Properties=species:S:1:pos:R:3:Z:I:1 energy=-338.750601713586 field_type=dipole dipole="0.000000 0.000000 0.000000" charge=0
C	-1.744174	0.164542	0.093009	6
C	-0.268504	0.222962	0.080479	6
C	0.628886	1.263972	-0.037561	6
C	1.899746	0.649132	-0.036451	6
N	1.811285	-0.684918	0.058689	7
N	0.502226	-0.888668	0.195139	7
O	0.039226	-2.180038	0.265539	8
H	-2.177034	1.168062	0.103129	1
H	-2.104144	-0.372058	0.975419	1
H	-2.108864	-0.354888	-0.798861	1
H	0.400876	2.319652	-0.129211	1
H	2.878626	1.111102	-0.118531	1
H	0.241846	-2.418858	-0.650791	1
Es	-1.972254	-0.183597	-0.501568	99
Es	0.502218	-0.888854	0.194908	99
Es	0.233557	-2.314940	0.432302	99
Es	-2.029167	0.844942	0.097017	99
Es	0.363511	-0.568645	0.430741	99
Es	0.473647	1.978840	-0.095997	99
Es	0.628878	1.263997	-0.037504	99
Es	1.776551	-0.151484	-0.242828	99
Es	0.545625	0.858714	-0.057947	99
Es	0.039284	-2.179856	0.265283	99
Es	1.124525	-0.805125	0.122482	99
Es	-1.974109	-0.196238	0.679225	99
Es	-0.992234	0.189528	0.090750	99
Es	0.152002	-2.304658	-0.203546	99
Es	1.821961	-0.110964	0.281251	99
Es	2.557915	0.971186	-0.093561	99
Es	-0.287387	-2.171030	0.302587	99
Es	1.899769	0.649060	-0.036443	99
Es	2.051715	-0.972438	0.054403	99
Es	-1.744088	0.164547	0.093001	99
Es	-0.268499	0.222733	0.080527	99
Es	0.133600	0.771578	0.067260	99
Es	0.215915	-0.515573	-0.083592	99
Es	0.254590	-1.584112	0.226236	99
Es	1.288303	1.005306	-0.028024	99
Es	1.810782	-0.684513	0.058693	99
39
Properties=species:S:1:pos:R:3:Z:I:1 energy=-338.750601713586 field_type=dipole dipole="0.000000 0.000000 0.000000" charge=0
C	-1.744174	0.164542	0.093009	6
C	-0.268504	0.222962	0.080479	6
C	0.628886	1.263972	-0.037561	6
C	1.899746	0.649132	-0.036451	6
N	1.811285	-0.684918	0.058689	7
N	0.502226	-0.888668	0.195139	7
O	0.039226	-2.180038	0.265539	8
H	-2.177034	1.168062	0.103129	1
H	-2.104144	-0.372058	0.975419	1
H	-2.108864	-0.354888	-0.798861	1
H	0.400876	2.319652	-0.129211	1
H	2.878626	1.111102	-0.118531	1
H	0.241846	-2.418858	-0.650791	1
Es	0.162965	-0.475466	-0.018430	99
Es	-0.288478	-2.177579	0.311151	99
Es	0.474482	1.979059	-0.095228	99
Es	-1.744087	0.164546	0.093000	99
Es	0.502215	-0.888856	0.194830	99
Es	0.254690	-1.583728	0.225908	99
Es	0.424628	-0.617322	0.374200	99
Es	-2.029056	0.844803	0.097169	99
Es	0.135176	0.771970	0.073160	99
Es	1.123707	-0.806089	0.113587	99
Es	0.628879	1.263998	-0.037520	99
Es	-0.992263	0.188939	0.091028	99
Es	-1.971881	-0.182915	-0.501681	99
Es	1.810784	-0.684514	0.058693	99
Es	0.538878	0.857182	-0.062639	99
Es	2.050557	-0.970893	0.051697	99
Es	0.233709	-2.308760	0.422709	99
Es	0.039368	-2.179845	0.265221	99
Es	1.774839	-0.147256	-0.242652	99
Es	0.152119	-2.304806	-0.202776	99
Es	2.558020	0.971705	-0.093538	99
Es	1.288156	1.004922	-0.028488	99
Es	-0.268499	0.222734	0.080520	99
Es	-1.974577	-0.196969	0.679191	99
Es	1.899770	0.649060	-0.036448	99
Es	1.822513	-0.105520	0.282990	99
39
Properties=species:S:1:pos:R:3:Z:I:1 energy=-338.750601713586 field_type=dipole dipole="0.000000 0.000000 0.000000" charge=0
C	-1.744174	0.164542	0.093009	6
C	-0.268504	0.222962	0.080479	6
C	0.628886	1.263972	-0.037561	6
C	1.899746	0.649132	-0.036451	6
N	1.811285	-0.684918	0.058689	7
N	0.502226	-0.888668	0.195139	7
O	0.039226	-2.180038	0.265539	8
H	-2.177034	1.168062	0.103129	1
H	-2.104144	-0.372058	0.975419	1
H	-2.108864	-0.354888	-0.798861	1
H	0.400876	2.319652	-0.129211	1
H	2.878626	1.111102	-0.118531	1
H	0.241846	-2.418858	-0.650791	1
Es	-1.971806	-0.182653	-0.502110	99
Es	0.502214	-0.888864	0.194829	99
Es	-0.268500	0.222736	0.080529	99
Es	1.124729	-0.806180	0.117943	99
Es	-1.744087	0.164546	0.093001	99
Es	1.810790	-0.684512	0.058694	99
Es	-0.288889	-2.176872	0.308858	99
Es	-1.974960	-0.197245	0.679597	99
Es	0.628878	1.263999	-0.037548	99
Es	0.448822	-0.643136	0.311361	99
Es	1.899769	0.649061	-0.036442	99
Es	-2.028629	0.844490	0.097138	99
Es	0.141950	-0.455663	0.041125	99
Es	1.823146	-0.101985	0.283485	99
Es	0.230365	-2.307608	0.423420	99
Es	0.039303	-2.179965	0.265349	99
Es	-0.992415	0.188610	0.090887	99
Es	1.773430	-0.144620	-0.245494	99
Es	0.135871	0.772037	0.075552	99
Es	2.048983	-0.969500	0.052620	99
Es	0.475140	1.979243	-0.095100	99
Es	1.288149	1.004713	-0.026825	99
Es	0.255789	-1.583939	0.226681	99
Es	0.536032	0.855915	-0.066755	99
Es	0.154540	-2.306417	-0.201870	99
Es	2.557998	0.972210	-0.093271	99
39
Properties=species:S:1:pos:R:3:Z:I:1 energy=-338.750601713586 field_type=dipole dipole="0.000000 0.000000 0.000000" charge=0
C	-1.744174	0.164542	0.093009	6
C	-0.268504	0.222962	0.080479	6
C	0.628886	1.263972	-0.037561	6
C	1.899746	0.649132	-0.036451	6
N	1.811285	-0.684918	0.058689	7
N	0.502226	-0.888668	0.195139	7
O	0.039226	-2.180038	0.265539	8
H	-2.177034	1.168062	0.103129	1
H	-2.104144	-0.372058	0.975419	1
H	-2.108864	-0.354888	-0.798861	1
H	0.400876	2.319652	-0.129211	1
H	2.878626	1.111102	-0.118531	1
H	0.241846	-2.418858	-0.650791	1
Es	0.147836	-2.300769	-0.200802	99
Es	-0.288775	-2.179935	0.313518	99
Es	0.475592	1.979338	-0.095486	99
Es	1.288022	1.004398	-0.026662	99
Es	1.810781	-0.684512	0.058695	99
Es	0.039665	-2.179866	0.265300	99
Es	-1.974810	-0.196886	0.679846	99
Es	0.456261	-0.653993	0.269133	99
Es	1.821686	-0.101883	0.284136	99
Es	-0.992376	0.188362	0.090784	99
Es	0.134874	-0.447156	0.080418	99
Es	0.134677	0.771012	0.066623	99
Es	0.236430	-2.310520	0.417791	99
Es	0.537933	0.857180	-0.058092	99
Es	0.502234	-0.888873	0.195210	99
Es	2.048253	-0.968661	0.053038	99
Es	0.628878	1.263998	-0.037562	99
Es	1.899770	0.649061	-0.036439	99
Es	0.255780	-1.583730	0.227015	99
Es	-1.744089	0.164546	0.093001	99
Es	2.557945	0.972581	-0.093268	99
Es	-0.268499	0.222735	0.080526	99
Es	-2.028507	0.844298	0.097073	99
Es	-1.972051	-0.183049	-0.502352	99
Es	1.125163	-0.806266	0.120833	99
Es	1.773938	-0.143010	-0.246624	99
39
Properties=species:S:1:pos:R:3:Z:I:1 energy=-338.750601713586 field_type=dipole dipole="0.000000 0.000000 0.000000" charge=0
C	-1.744174	0.164542	0.093009	6
C	-0.268504	0.222962	0.080479	6
C	0.628886	1.263972	-0.037561	6
C	1.899746	0.649132	-0.036451	6
N	1.811285	-0.684918	0.058689	7
N	0.502226	-0.888668	0.195139	7
O	0.039226	-2.180038	0.265539	8
H	-2.177034	1.168062	0.103129	1
H	-2.104144	-0.372058	0.975419	1
H	-2.108864	-0.354888	-0.798861	1
H	0.400876	2.319652	-0.129211	1
H	2.878626	1.111102	-0.118531	1
H	0.241846	-2.418858	-0.650791	1
Es	0.540841	0.859336	-0.042781	99
Es	-2.028747	0.844245	0.096781	99
Es	-0.992218	0.188307	0.090823	99
Es	1.810772	-0.684513	0.058694	99
Es	0.502220	-0.888872	0.194938	99
Es	-0.268499	0.222734	0.080526	99
Es	0.475914	1.979434	-0.095765	99
Es	0.039329	-2.179820	0.265227	99
Es	-1.975456	-0.197773	0.679700	99
Es	1.820981	-0.101847	0.284240	99
Es	1.773173	-0.142549	-0.246174	99
Es	1.125429	-0.806356	0.122904	99
Es	0.133094	-0.444619	0.096517	99
Es	0.628879	1.264000	-0.037541	99
Es	-0.290325	-2.180186	0.309575	99
Es	-1.971252	-0.182229	-0.501889	99
Es	-1.744087	0.164544	0.092998	99
Es	0.233675	-2.309101	0.419264	99
Es	0.256617	-1.583862	0.227413	99
Es	2.558024	0.972761	-0.093387	99
Es	1.899770	0.649060	-0.036443	99
Es	1.287854	1.004014	-0.028345	99
Es	0.151549	-2.301864	-0.198067	99
Es	0.457537	-0.657702	0.251038	99
Es	2.048236	-0.968151	0.052700	99
Es	0.133302	0.769410	0.052706	99
39
Properties=species:S:1:pos:R:3:Z:I:1 energy=-338.750601713586 field_type=dipole dipole="0.000000 0.000000 0.000000" charge=0
C	-1.744174	0.164542	0.093009	6
C	-0.268504	0.222962	0.080479	6
C	0.628886	1.263972	-0.037561	6
C	1.899746	0.649132	-0.036451	6
N	1.811285	-0.684918	0.058689	7
N	0.502226	-0.888668	0.195139	7
O	0.039226	-2.180038	0.265539	8
H	-2.177034	1.168062	0.103129	1
H	-2.104144	-0.372058	0.975419	1
H	-2.108864	-0.354888	-0.798861	1
H	0.400876	2.319652	-0.129211	1
H	2.878626	1.111102	-0.118531	1
H	0.241846	-2.418858	-0.650791	1
Es	1.772024	-0.143257	-0.246184	99
Es	-1.970866	-0.181380	-0.501406	99
Es	0.039300	-2.179844	0.265245	99
Es	1.287723	1.003731	-0.029424	99
Es	0.502225	-0.888879	0.195016	99
Es	-0.268499	0.222735	0.080528	99
Es	1.810778	-0.684513	0.058695	99
Es	2.048277	-0.967665	0.053318	99
Es	0.132459	-0.443371	0.104625	99
Es	0.457370	-0.658996	0.242376	99
Es	-0.992104	0.187916	0.090600	99
Es	-2.028789	0.844402	0.096848	99
Es	1.125463	-0.806719	0.123418	99
Es	-1.744087	0.164547	0.093001	99
Es	-1.975883	-0.198532	0.679409	99
Es	0.476056	1.979502	-0.096110	99
Es	0.543493	0.861338	-0.030556	99
Es	0.628878	1.263999	-0.037550	99
Es	1.821032	-0.101855	0.283841	99
Es	0.230709	-2.305513	0.417815	99
Es	0.256854	-1.583674	0.227673	99
Es	2.557968	0.972930	-0.093521	99
Es	0.132541	0.768238	0.041550	99
Es	1.899769	0.649060	-0.036445	99
Es	-0.291880	-2.183106	0.307697	99
Es	0.155803	-2.302693	-0.194806	99
39
Properties=species:S:1:pos:R:3:Z:I:1 energy=-338.750601713586 field_type=dipole dipole="0.000000 0.000000 0.000000" charge=0
C	-1.744174	0.164542	0.093009	6
C	-0.268504	0.222962	0.080479	6
C	0.628886	1.263972	-0.037561	6
C	1.899746	0.649132	-0.036451	6
N	1.811285	-0.684918	0.058689	7
N	0.502226	-0.888668	0.195139	7
O	0.039226	-2.180038	0.265539	8
H	-2.177034	1.168062	0.103129	1
H	-2.104144	-0.372058	0.975419	1
H	-2.108864	-0.354888	-0.798861	1
H	0.400876	2.319652	-0.129211	1
H	2.878626	1.111102	-0.118531	1
H	0.241846	-2.418858	-0.650791	1
Es	1.770791	-0.143846	-0.245452	99
Es	-1.976069	-0.198632	0.679186	99
Es	-0.292188	-2.185735	0.309480	99
Es	-1.970691	-0.181188	-0.500987	99
Es	1.899769	0.649060	-0.036445	99
Es	0.256822	-1.583523	0.227021	99
Es	0.039236	-2.179722	0.265117	99
Es	1.125548	-0.807019	0.124060	99
Es	1.821051	-0.101415	0.283397	99
Es	0.628878	1.263989	-0.037479	99
Es	1.810772	-0.684514	0.058688	99
Es	0.132521	0.768356	0.042469	99
Es	-1.744088	0.164546	0.093001	99
Es	0.544823	0.861732	-0.032369	99
Es	0.457392	-0.660680	0.231149	99
Es	-2.028994	0.844403	0.096682	99
Es	2.048407	-0.967171	0.053138	99
Es	0.234886	-2.307119	0.414377	99
Es	-0.991844	0.187710	0.090470	99
Es	-0.268499	0.222735	0.080526	99
Es	0.131885	-0.442112	0.115145	99
Es	1.287520	1.003573	-0.028870	99
Es	0.502228	-0.888883	0.195059	99
Es	2.558074	0.973040	-0.093294	99
Es	0.152016	-2.298748	-0.192395	99
Es	0.476365	1.979562	-0.096020	99
39
Properties=species:S:1:pos:R:3:Z:I:1 energy=-338.750601713586 field_type=dipole dipole="0.000000 0.000000 0.000000" charge=0
C	-1.744174	0.164542	0.093009	6
C	-0.268504	0.222962	0.080479	6
C	0.628886	1.263972	-0.037561	6
C	1.899746	0.649132	-0.036451	6
N	1.811285	-0.684918	0.058689	7
N	0.502226	-0.888668	0.195139	7
O	0.039226	-2.180038	0.265539	8
H	-2.177034	1.168062	0.103129	1
H	-2.104144	-0.372058	0.975419	1
H	-2.108864	-0.354888	-0.798861	1
H	0.400876	2.319652	-0.129211	1
H	2.878626	1.111102	-0.118531	1
H	0.241846	-2.418858	-0.650791	1
Es	0.545667	0.862067	-0.030752	99
Es	2.558033	0.973156	-0.093286	99
Es	1.769400	-0.144335	-0.245620	99
Es	0.628878	1.263999	-0.037549	99
Es	-1.970359	-0.180796	-0.500621	99
Es	1.287441	1.003659	-0.027831	99
Es	-1.744088	0.164547	0.093001	99
Es	-2.029133	0.844457	0.096560	99
Es	1.821831	-0.100780	0.282682	99
Es	-0.292625	-2.187980	0.310564	99
Es	0.256658	-1.583417	0.227157	99
Es	0.476465	1.979604	-0.096054	99
Es	0.132434	0.767991	0.039988	99
Es	0.237813	-2.307948	0.411209	99
Es	0.502209	-0.888836	0.194754	99
Es	1.899770	0.649060	-0.036441	99
Es	1.810773	-0.684511	0.058706	99
Es	0.131633	-0.440777	0.126646	99
Es	2.048362	-0.966773	0.053531	99
Es	1.125690	-0.807226	0.125924	99
Es	-0.991775	0.187553	0.090452	99
Es	-1.976300	-0.199041	0.679057	99
Es	0.039293	-2.179853	0.265249	99
Es	0.457461	-0.662506	0.218177	99
Es	-0.268499	0.222735	0.080528	99
Es	0.149581	-2.295650	-0.190376	99
39
Properties=species:S:1:pos:R:3:Z:I:1 energy=-338.750601713586 field_type=dipole dipole="0.000000 0.000000 0.000000" charge=0
C	-1.744174	0.164542	0.093009	6
C	-0.268504	0.222962	0.080479	6
C	0.628886	1.263972	-0.037561	6
C	1.899746	0.649132	-0.036451	6
N	1.811285	-0.684918	0.058689	7
N	0.502226	-0.888668	0.195139	7
O	0.039226	-2.180038	0.265539	8
H	-2.177034	1.168062	0.103129	1
H	-2.104144	-0.372058	0.975419	1
H	-2.108864	-0.354888	-0.798861	1
H	0.400876	2.319652	-0.129211	1
H	2.878626	1.111102	-0.118531	1
H	0.241846	-2.418858	-0.650791	1
Es	0.476639	1.979643	-0.096302	99
Es	-1.977229	-0.200346	0.678547	99
Es	1.125786	-0.807422	0.126703	99
Es	-0.268499	0.222735	0.080526	99
Es	-1.744087	0.164544	0.092999	99
Es	0.152165	-2.296375	-0.188499	99
Es	0.235441	-2.306931	0.412343	99
Es	0.546952	0.863073	-0.025064	99
Es	1.287272	1.003448	-0.028639	99
Es	2.048353	-0.966499	0.053083	99
Es	-0.293539	-2.188144	0.307448	99
Es	1.899770	0.649060	-0.036441	99
Es	0.457071	-0.663168	0.211371	99
Es	0.502233	-0.888877	0.195115	99
Es	1.810778	-0.684515	0.058695	99
Es	0.628878	1.263998	-0.037551	99
Es	-1.969436	-0.179455	-0.500071	99
Es	0.039317	-2.179838	0.265263	99
Es	2.558083	0.973215	-0.093339	99
Es	1.822980	-0.100168	0.282194	99
Es	-2.029190	0.844479	0.096533	99
Es	1.767528	-0.145239	-0.244479	99
Es	0.257317	-1.583546	0.227251	99
Es	0.131535	-0.440156	0.132496	99
Es	0.132201	0.767507	0.035027	99
Es	-0.991706	0.187378	0.090443	99
39
Properties=species:S:1:pos:R:3:Z:I:1 energy=-338.750601713586 field_type=dipole dipole="0.000000 0.000000 0.000000" charge=0
C	-1.744174	0.164542	0.093009	6
C	-0.268504	0.222962	0.080479	6
C	0.628886	1.263972	-0.037561	6
C	1.899746	0.649132	-0.036451	6
N	1.811285	-0.684918	0.058689	7
N	0.502226	-0.888668	0.195139	7
O	0.039226	-2.180038	0.265539	8
H	-2.177034	1.168062	0.103129	1
H	-2.104144	-0.372058	0.975419	1
H	-2.108864	-0.354888	-0.798861	1
H	0.400876	2.319652	-0.129211	1
H	2.878626	1.111102	-0.118531	1
H	0.241846	-2.418858	-0.650791	1
Es	0.476735	1.979670	-0.096309	99
Es	0.502235	-0.888867	0.195221	99
Es	1.766149	-0.145578	-0.244662	99
Es	-0.268499	0.222735	0.080526	99
Es	0.239398	-2.311097	0.411774	99
Es	1.899769	0.649060	-0.036448	99
Es	-0.293938	-2.188198	0.305352	99
Es	1.810792	-0.684511	0.058690	99
Es	2.048153	-0.965886	0.053220	99
Es	0.257450	-1.583556	0.226915	99
Es	0.132329	0.767796	0.037802	99
Es	0.039286	-2.179820	0.265161	99
Es	-1.969270	-0.179208	-0.500058	99
Es	0.628879	1.263999	-0.037549	99
Es	1.126094	-0.807670	0.130174	99
Es	2.558083	0.973318	-0.093307	99
Es	-0.991666	0.187358	0.090332	99
Es	1.287361	1.003432	-0.027183	99
Es	0.148479	-2.292187	-0.185280	99
Es	0.456351	-0.665088	0.190032	99
Es	1.823786	-0.099637	0.281597	99
Es	-2.029191	0.844432	0.096589	99
Es	0.547443	0.862771	-0.029076	99
Es	0.131891	-0.438795	0.150708	99
Es	-1.744087	0.164545	0.092999	99
Es	-1.977399	-0.200617	0.678434	99
39
Properties=species:S:1:pos:R:3:Z:I:1 energy=-338.750601713586 field_type=dipole dipole="0.000000 0.000000 0.000000" charge=0
C	-1.744174	0.164542	0.093009	6
C	-0.268504	0.222962	0.080479	6
C	0.628886	1.263972	-0.037561	6
C	1.899746	0.649132	-0.036451	6
N	1.811285	-0.684918	0.058689	7
N	0.502226	-0.888668	0.195139	7
O	0.039226	-2.180038	0.265539	8
H	-2.177034	1.168062	0.103129	1
H	-2.104144	-0.372058	0.975419	1
H	-2.108864	-0.354888	-0.798861	1
H	0.400876	2.319652	-0.129211	1
H	2.878626	1.111102	-0.118531	1
H	0.241846	-2.418858	-0.650791	1
Es	0.502226	-0.888881	0.195025	99
Es	1.822041	-0.100348	0.282229	99
Es	2.048274	-0.965930	0.053743	99
Es	-1.977293	-0.200539	0.678369	99
Es	0.039245	-2.179800	0.265211	99
Es	-1.744087	0.164546	0.093001	99
Es	-0.268499	0.222735	0.080524	99
Es	1.287178	1.003268	-0.028486	99
Es	-1.969296	-0.179263	-0.499796	99
Es	1.767397	-0.145143	-0.245044	99
Es	0.257508	-1.583501	0.227146	99
Es	0.455827	-0.665406	0.184908	99
Es	1.899770	0.649061	-0.036442	99
Es	0.628878	1.263999	-0.037552	99
Es	0.132167	0.767300	0.033399	99
Es	0.239071	-2.309980	0.410401	99
Es	-0.991501	0.187303	0.090125	99
Es	0.132128	-0.438445	0.156100	99
Es	1.126063	-0.807672	0.129759	99
Es	0.149617	-2.291174	-0.182241	99
Es	2.558035	0.973445	-0.093222	99
Es	-0.294822	-2.190377	0.303466	99
Es	1.810783	-0.684533	0.058693	99
Es	0.548417	0.863592	-0.023785	99
Es	-2.029395	0.844425	0.096514	99
Es	0.476879	1.979718	-0.096393	99
39
Properties=species:S:1:pos:R:3:Z:I:1 energy=-338.750601713586 field_type=dipole dipole="0.000000 0.000000 0.000000" charge=0
C	-1.744174	0.164542	0.093009	6
C	-0.268504	0.222962	0.080479	6
C	0.628886	1.263972	-0.037561	6
C	1.899746	0.649132	-0.036451	6
N	1.811285	-0.684918	0.058689	7
N	0.502226	-0.888668	0.195139	7
O	0.039226	-2.180038	0.265539	8
H	-2.177034	1.168062	0.103129	1
H	-2.104144	-0.372058	0.975419	1
H	-2.108864	-0.354888	-0.798861	1
H	0.400876	2.319652	-0.129211	1
H	2.878626	1.111102	-0.118531	1
H	0.241846	-2.418858	-0.650791	1
Es	0.455724	-0.665123	0.189628	99
Es	-1.744087	0.164546	0.093001	99
Es	0.502239	-0.888791	0.195506	99
Es	2.558061	0.973474	-0.093305	99
Es	0.132245	0.767288	0.033885	99
Es	-1.977991	-0.201492	0.677805	99
Es	0.149744	-2.291005	-0.181684	99
Es	-1.968535	-0.178262	-0.499128	99
Es	0.238921	-2.308792	0.408791	99
Es	0.549114	0.863819	-0.024611	99
Es	0.131852	-0.438699	0.150777	99
Es	-0.294771	-2.191933	0.304513	99
Es	1.810774	-0.684507	0.058695	99
Es	-0.268500	0.222736	0.080526	99
Es	0.628878	1.263998	-0.037554	99
Es	1.765584	-0.145978	-0.243846	99
Es	1.287074	1.003255	-0.027790	99
Es	2.048312	-0.965901	0.052637	99
Es	0.039218	-2.179713	0.265062	99
Es	-0.991466	0.187007	0.090261	99
Es	-2.029501	0.844599	0.096410	99
Es	1.823454	-0.099871	0.281601	99
Es	0.476994	1.979755	-0.096276	99
Es	0.257516	-1.583408	0.227253	99
Es	1.125991	-0.807663	0.129941	99
Es	1.899770	0.649062	-0.036443	99
39
Properties=species:S:1:pos:R:3:Z:I:1 energy=-338.750601713586 field_type=dipole dipole="0.000000 0.000000 0.000000" charge=0
C	-1.744174	0.164542	0.093009	6
C	-0.268504	0.222962	0.080479	6
C	0.628886	1.263972	-0.037561	6
C	1.899746	0.649132	-0.036451	6
N	1.811285	-0.684918	0.058689	7
N	0.502226	-0.888668	0.195139	7
O	0.039226	-2.180038	0.265539	8
H	-2.177034	1.168062	0.103129	1
H	-2.104144	-0.372058	0.975419	1
H	-2.108864	-0.354888	-0.798861	1
H	0.400876	2.319652	-0.129211	1
H	2.878626	1.111102	-0.118531	1
H	0.241846	-2.418858	-0.650791	1
Es	0.628878	1.263999	-0.037549	99
Es	0.549747	0.864344	-0.021516	99
Es	-2.029501	0.844496	0.096474	99
Es	1.822378	-0.100487	0.282171	99
Es	0.244178	-2.311580	0.403739	99
Es	1.126045	-0.807908	0.129741	99
Es	1.287099	1.003217	-0.028529	99
Es	-0.991433	0.187104	0.090260	99
Es	-1.968602	-0.178341	-0.499274	99
Es	1.810792	-0.684512	0.058691	99
Es	1.766210	-0.145479	-0.244132	99
Es	0.257368	-1.583337	0.227064	99
Es	0.455249	-0.665526	0.183418	99
Es	0.039368	-2.179843	0.265242	99
Es	-0.268500	0.222735	0.080525	99
Es	-1.977937	-0.201434	0.677850	99
Es	2.048262	-0.965690	0.052522	99
Es	1.899770	0.649061	-0.036440	99
Es	0.132152	0.766972	0.031078	99
Es	-0.294777	-2.194062	0.306348	99
Es	0.502187	-0.888829	0.194591	99
Es	2.558064	0.973512	-0.093260	99
Es	0.144465	-2.286038	-0.178559	99
Es	0.132263	-0.438288	0.158250	99
Es	0.476980	1.979772	-0.096053	99
Es	-1.744088	0.164545	0.093001	99
39
Properties=species:S:1:pos:R:3:Z:I:1 energy=-338.750601713586 field_type=dipole dipole="0.000000 0.000000 0.000000" charge=0
C	-1.744174	0.164542	0.093009	6
C	-0.268504	0.222962	0.080479	6
C	0.628886	1.263972	-0.037561	6
C	1.899746	0.649132	-0.036451	6
N	1.811285	-0.684918	0.058689	7
N	0.502226	-0.888668	0.195139	7
O	0.039226	-2.180038	0.265539	8
H	-2.177034	1.168062	0.103129	1
H	-2.104144	-0.372058	0.975419	1
H	-2.108864	-0.354888	-0.798861	1
H	0.400876	2.319652	-0.129211	1
H	2.878626	1.111102	-0.118531	1
H	0.241846	-2.418858	-0.650791	1
Es	-0.991211	0.186996	0.090227	99
Es	0.550325	0.864570	-0.020864	99
Es	0.502242	-0.888836	0.195364	99
Es	-0.295050	-2.193937	0.304778	99
Es	0.132080	0.766927	0.030084	99
Es	-1.978730	-0.202667	0.677045	99
Es	0.239895	-2.308702	0.406191	99
Es	1.765001	-0.146225	-0.242813	99
Es	0.131973	-0.438616	0.152742	99
Es	1.822959	-0.099812	0.281401	99
Es	-1.967697	-0.177069	-0.498339	99
Es	0.257776	-1.583437	0.226943	99
Es	2.048683	-0.965515	0.052210	99
Es	-2.029772	0.844557	0.096432	99
Es	0.628879	1.263999	-0.037523	99
Es	0.477126	1.979807	-0.095920	99
Es	-0.268500	0.222735	0.080523	99
Es	1.810778	-0.684507	0.058693	99
Es	1.899768	0.649062	-0.036446	99
Es	0.455282	-0.665169	0.188783	99
Es	0.039458	-2.179900	0.265075	99
Es	1.125932	-0.808207	0.128665	99
Es	-1.744087	0.164546	0.093001	99
Es	0.148497	-2.288888	-0.179133	99
Es	2.558081	0.973545	-0.093173	99
Es	1.286924	1.003142	-0.028293	99
39
Properties=species:S:1:pos:R:3:Z:I:1 energy=-338.750601713586 field_type=dipole dipole="0.000000 0.000000 0.000000" charge=0
C	-1.744174	0.164542	0.093009	6
C	-0.268504	0.222962	0.080479	6
C	0.628886	1.263972	-0.037561	6
C	1.899746	0.649132	-0.036451	6
N	1.811285	-0.684918	0.058689	7
N	0.502226	-0.888668	0.195139	7
O	0.039226	-2.180038	0.265539	8
H	-2.177034	1.168062	0.103129	1
H	-2.104144	-0.372058	0.975419	1
H	-2.108864	-0.354888	-0.798861	1
H	0.400876	2.319652	-0.129211	1
H	2.878626	1.111102	-0.118531	1
H	0.241846	-2.418858	-0.650791	1
Es	0.132039	0.766908	0.030002	99
Es	-1.967146	-0.176348	-0.497836	99
Es	1.810782	-0.684507	0.058694	99
Es	-0.991243	0.186874	0.090189	99
Es	0.502224	-0.888883	0.195000	99
Es	-1.744087	0.164542	0.093004	99
Es	0.039321	-2.179819	0.265197	99
Es	0.477223	1.979836	-0.095843	99
Es	0.258154	-1.583655	0.226415	99
Es	1.899769	0.649060	-0.036442	99
Es	2.558042	0.973676	-0.093200	99
Es	1.761527	-0.148307	-0.240863	99
Es	2.048593	-0.965393	0.052075	99
Es	-0.268499	0.222735	0.080525	99
Es	1.826082	-0.098182	0.279515	99
Es	0.239104	-2.307926	0.406739	99
Es	0.628878	1.263999	-0.037551	99
Es	0.149534	-2.289416	-0.178478	99
Es	0.455137	-0.664963	0.190120	99
Es	1.286917	1.002962	-0.028983	99
Es	0.131985	-0.438712	0.152204	99
Es	-2.029796	0.844598	0.096306	99
Es	-0.295548	-2.194050	0.303870	99
Es	1.125958	-0.808216	0.128411	99
Es	0.550890	0.864987	-0.020153	99
Es	-1.979228	-0.203397	0.676736	99
39
Properties=species:S:1:pos:R:3:Z:I:1 energy=-338.750601713586 field_type=dipole dipole="0.000000 0.000000 0.000000" charge=0
C	-1.744174	0.164542	0.093009	6
C	-0.268504	0.222962	0.080479	6
C	0.628886	1.263972	-0.037561	6
C	1.899746	0.649132	-0.036451	6
N	1.811285	-0.684918	0.058689	7
N	0.502226	-0.888668	0.195139	7
O	0.039226	-2.180038	0.265539	8
H	-2.177034	1.168062	0.103129	1
H	-2.104144	-0.372058	0.975419	1
H	-2.108864	-0.354888	-0.798861	1
H	0.400876	2.319652	-0.129211	1
H	2.878626	1.111102	-0.118531	1
H	0.241846	-2.418858	-0.650791	1
Es	0.132100	0.766853	0.029889	99
Es	1.286792	1.003057	-0.029045	99
Es	1.825847	-0.098565	0.279663	99
Es	0.039346	-2.179820	0.265222	99
Es	2.558092	0.973589	-0.093227	99
Es	0.257757	-1.583353	0.227079	99
Es	0.132288	-0.438336	0.159381	99
Es	1.126011	-0.808018	0.129950	99
Es	1.810783	-0.684508	0.058692	99
Es	-0.295198	-2.196004	0.305132	99
Es	-0.268499	0.222734	0.080517	99
Es	0.628877	1.263993	-0.037591	99
Es	0.551578	0.865241	-0.020093	99
Es	-0.991147	0.186951	0.090267	99
Es	1.761606	-0.148255	-0.241115	99
Es	2.048452	-0.965408	0.052004	99
Es	0.242949	-2.309894	0.402749	99
Es	0.502219	-0.888883	0.194959	99
Es	0.454371	-0.665384	0.181636	99
Es	-1.744087	0.164546	0.093001	99
Es	1.899770	0.649060	-0.036441	99
Es	-1.979047	-0.203112	0.676825	99
Es	0.145713	-2.285792	-0.176299	99
Es	-1.967350	-0.176626	-0.498014	99
Es	-2.029856	0.844495	0.096352	99
Es	0.477244	1.979839	-0.095842	99
39
Properties=species:S:1:pos:R:3:Z:I:1 energy=-338.750601713586 field_type=dipole dipole="0.000000 0.000000 0.000000" charge=0
C	-1.744174	0.164542	0.093009	6
C	-0.268504	0.222962	0.080479	6
C	0.628886	1.263972	-0.037561	6
C	1.899746	0.649132	-0.036451	6
N	1.811285	-0.684918	0.058689	7
N	0.502226	-0.888668	0.195139	7
O	0.039226	-2.180038	0.265539	8
H	-2.177034	1.168062	0.103129	1
H	-2.104144	-0.372058	0.975419	1
H	-2.108864	-0.354888	-0.798861	1
H	0.400876	2.319652	-0.129211	1
H	2.878626	1.111102	-0.118531	1
H	0.241846	-2.418858	-0.650791	1
Es	1.286848	1.003006	-0.028520	99
Es	0.243307	-2.309316	0.401055	99
Es	-2.029800	0.844654	0.096447	99
Es	0.628878	1.263999	-0.037541	99
Es	0.132100	-0.438494	0.154832	99
Es	0.132011	0.766866	0.029509	99
Es	1.899769	0.649061	-0.036440	99
Es	0.502229	-0.888881	0.195039	99
Es	-1.966853	-0.175846	-0.497618	99
Es	-0.991214	0.186773	0.090386	99
Es	1.824596	-0.099070	0.280449	99
Es	0.145335	-2.284910	-0.174874	99
Es	2.048561	-0.965278	0.051590	99
Es	1.762544	-0.147619	-0.241467	99
Es	1.810776	-0.684508	0.058694	99
Es	0.257976	-1.583461	0.226850	99
Es	-1.979532	-0.203888	0.676332	99
Es	0.454765	-0.665204	0.187207	99
Es	-1.744087	0.164546	0.093001	99
Es	1.125941	-0.808340	0.128504	99
Es	0.477323	1.979852	-0.095436	99
Es	0.039314	-2.179793	0.265202	99
Es	-0.295381	-2.197396	0.305444	99
Es	2.558086	0.973644	-0.093080	99
Es	0.551619	0.865269	-0.020440	99
Es	-0.268500	0.222734	0.080528	99
39
Properties=species:S:1:pos:R:3:Z:I:1 energy=-338.750601713586 field_type=dipole dipole="0.000000 0.000000 0.000000" charge=0
C	-1.744174	0.164542	0.093009	6
C	-0.268504	0.222962	0.080479	6
C	0.628886	1.263972	-0.037561	6
C	1.899746	0.649132	-0.036451	6
N	1.811285	-0.684918	0.058689	7
N	0.502226	-0.888668	0.195139	7
O	0.039226	-2.180038	0.265539	8
H	-2.177034	1.168062	0.103129	1
H	-2.104144	-0.372058	0.975419	1
H	-2.108864	-0.354888	-0.798861	1
H	0.400876	2.319652	-0.129211	1
H	2.878626	1.111102	-0.118531	1
H	0.241846	-2.418858	-0.650791	1
Es	1.125977	-0.808265	0.129719	99
Es	-1.744087	0.164546	0.093001	99
Es	2.048270	-0.965100	0.052388	99
Es	0.039227	-2.179765	0.265167	99
Es	2.558120	0.973653	-0.093137	99
Es	0.132480	-0.438155	0.162630	99
Es	1.899770	0.649061	-0.036440	99
Es	-1.979733	-0.204147	0.676187	99
Es	0.628878	1.263990	-0.037596	99
Es	0.242648	-2.310412	0.403771	99
Es	-1.966652	-0.175582	-0.497416	99
Es	-0.268498	0.222735	0.080526	99
Es	0.453844	-0.665528	0.178348	99
Es	0.477392	1.979869	-0.095858	99
Es	0.132128	0.767077	0.031899	99
Es	1.758768	-0.150024	-0.239295	99
Es	0.146173	-2.285581	-0.174930	99
Es	0.552325	0.865245	-0.022719	99
Es	-0.295661	-2.195573	0.303022	99
Es	1.828274	-0.097080	0.277314	99
Es	-2.029865	0.844557	0.096401	99
Es	1.286816	1.002963	-0.028203	99
Es	1.810766	-0.684503	0.058706	99
Es	-0.991131	0.186842	0.090268	99
Es	0.502222	-0.888884	0.195012	99
Es	0.258163	-1.583539	0.226889	99
39
Properties=species:S:1:pos:R:3:Z:I:1 energy=-338.750601713586 field_type=dipole dipole="0.000000 0.000000 0.000000" charge=0
C	-1.744174	0.164542	0.093009	6
C	-0.268504	0.222962	0.080479	6
C	0.628886	1.263972	-0.037561	6
C	1.899746	0.649132	-0.036451	6
N	1.811285	-0.684918	0.058689	7
N	0.502226	-0.888668	0.195139	7
O	0.039226	-2.180038	0.265539	8
H	-2.177034	1.168062	0.103129	1
H	-2.104144	-0.372058	0.975419	1
H	-2.108864	-0.354888	-0.798861	1
H	0.400876	2.319652	-0.129211	1
H	2.878626	1.111102	-0.118531	1
H	0.241846	-2.418858	-0.650791	1
Es	2.048320	-0.965085	0.051210	99
Es	-1.744087	0.164546	0.093001	99
Es	1.899770	0.649061	-0.036438	99
Es	-1.966162	-0.174726	-0.496821	99
Es	0.502230	-0.888882	0.195059	99
Es	0.132254	-0.438355	0.158118	99
Es	0.552783	0.865706	-0.019700	99
Es	1.286744	1.003027	-0.027994	99
Es	0.477339	1.979872	-0.095534	99
Es	-2.029810	0.844683	0.096436	99
Es	0.258008	-1.583436	0.226816	99
Es	-0.991097	0.186647	0.090415	99
Es	0.242675	-2.309195	0.401806	99
Es	0.453911	-0.665185	0.183272	99
Es	1.761699	-0.148309	-0.240909	99
Es	-0.268500	0.222736	0.080527	99
Es	1.810777	-0.684509	0.058694	99
Es	0.039326	-2.179849	0.265164	99
Es	0.628878	1.263999	-0.037549	99
Es	-0.295825	-2.197818	0.302987	99