40
Properties=species:S:1:pos:R:3:Z:I:1 energy=-322.8115053455172 field_type=dipole dipole="0.000000 0.000000 0.000000" charge=0
C	-1.781298	-0.418431	0.014143	6
C	-0.300788	-0.355681	0.018073	6
C	0.506022	0.762289	0.067853	6
N	0.251052	2.073119	0.116903	7
O	1.814582	0.414169	0.056593	8
C	1.865012	-0.940351	0.004423	6
C	0.594502	-1.463691	-0.021277	6
H	-2.231378	0.579389	0.023253	1
H	-2.141588	-0.959471	0.895343	1
H	-2.137868	-0.940571	-0.879787	1
H	1.022642	2.705079	-0.070267	1
H	-0.656578	2.429089	-0.157627	1
H	2.855512	-1.371611	-0.006687	1
H	0.340172	-2.513331	-0.060937	1
Es	1.814190	0.413977	0.056620	99
Es	-1.040881	-0.380781	0.015305	99
Es	0.704566	2.432760	-0.023190	99
Es	0.103798	-0.949185	-0.001267	99
Es	1.865086	-0.940048	0.004441	99
Es	1.244982	-1.206387	-0.336427	99
Es	0.251133	2.072833	0.116238	99
Es	1.243503	-1.232710	0.315271	99
Es	-0.280861	2.266316	-0.072922	99
Es	1.822311	-0.090953	0.068378	99
Es	0.067054	0.105163	0.358168	99
Es	0.594475	-1.463729	-0.021278	99
Es	0.414123	-2.170465	-0.048302	99
Es	-1.781254	-0.418410	0.014141	99
Es	0.069719	0.121452	-0.282524	99
Es	0.247858	2.010750	0.391729	99
Es	1.314657	0.537678	0.096469	99
Es	1.797943	0.425580	-0.194039	99
Es	-2.081039	0.268052	0.019295	99
Es	-2.019839	-0.772152	-0.591629	99
Es	0.359918	1.518680	0.005140	99
Es	0.506330	0.762464	0.067877	99
Es	1.990247	0.558284	0.246726	99
Es	-2.022234	-0.783970	0.610327	99
Es	2.533275	-1.229529	-0.002559	99
Es	-0.300815	-0.355666	0.018102	99
40
Properties=species:S:1:pos:R:3:Z:I:1 energy=-322.8115053455172 field_type=dipole dipole="0.000000 0.000000 0.000000" charge=0
C	-1.781298	-0.418431	0.014143	6
C	-0.300788	-0.355681	0.018073	6
C	0.506022	0.762289	0.067853	6
N	0.251052	2.073119	0.116903	7
O	1.814582	0.414169	0.056593	8
C	1.865012	-0.940351	0.004423	6
C	0.594502	-1.463691	-0.021277	6
H	-2.231378	0.579389	0.023253	1
H	-2.141588	-0.959471	0.895343	1
H	-2.137868	-0.940571	-0.879787	1
H	1.022642	2.705079	-0.070267	1
H	-0.656578	2.429089	-0.157627	1
H	2.855512	-1.371611	-0.006687	1
H	0.340172	-2.513331	-0.060937	1
Es	0.068735	0.105512	0.356760	99
Es	1.721427	0.352540	0.099842	99
Es	1.308682	0.550474	0.051698	99
Es	1.865091	-0.940045	0.004438	99
Es	0.506333	0.762467	0.067866	99
Es	0.248531	2.013030	0.341005	99
Es	-2.021716	-0.783730	0.608306	99
Es	-2.082676	0.269025	0.019596	99
Es	2.064144	0.626808	0.041039	99
Es	-1.781254	-0.418411	0.014141	99
Es	1.243799	-1.207455	-0.332288	99
Es	0.709518	2.441156	-0.006578	99
Es	1.814205	0.413879	0.056726	99
Es	2.533378	-1.230275	-0.003044	99
Es	0.360564	1.505323	0.026605	99
Es	1.830476	-0.097922	0.024008	99
Es	-0.287037	2.269538	-0.060027	99
Es	0.070047	0.122753	-0.279062	99
Es	-1.040428	-0.381477	0.015388	99
Es	0.251190	2.072582	0.116165	99
Es	-0.300817	-0.355663	0.018063	99
Es	0.594473	-1.463730	-0.021292	99
Es	-2.019867	-0.772566	-0.590068	99
Es	1.241054	-1.232473	0.312891	99
Es	0.414145	-2.172546	-0.048803	99
Es	0.106252	-0.948786	-0.003286	99
40
Properties=species:S:1:pos:R:3:Z:I:1 energy=-322.8115053455172 field_type=dipole dipole="0.000000 0.000000 0.000000" charge=0
C	-1.781298	-0.418431	0.014143	6
C	-0.300788	-0.355681	0.018073	6
C	0.506022	0.762289	0.067853	6
N	0.251052	2.073119	0.116903	7
O	1.814582	0.414169	0.056593	8
C	1.865012	-0.940351	0.004423	6
C	0.594502	-1.463691	-0.021277	6
H	-2.231378	0.579389	0.023253	1
H	-2.141588	-0.959471	0.895343	1
H	-2.137868	-0.940571	-0.879787	1
H	1.022642	2.705079	-0.070267	1
H	-0.656578	2.429089	-0.157627	1
H	2.855512	-1.371611	-0.006687	1
H	0.340172	-2.513331	-0.060937	1
Es	0.711066	2.444727	0.002100	99
Es	-2.083568	0.269389	0.019529	99
Es	-1.781254	-0.418412	0.014141	99
Es	1.242225	-1.207358	-0.330819	99
Es	2.065692	0.627793	0.069102	99
Es	-0.290000	2.271323	-0.050025	99
Es	0.414034	-2.173510	-0.048599	99
Es	2.533368	-1.230622	-0.003446	99
Es	0.251156	2.072746	0.116049	99
Es	-0.300824	-0.355673	0.018079	99
Es	0.069377	0.106399	0.354997	99
Es	0.070860	0.121849	-0.278359	99
Es	0.107626	-0.948516	-0.002347	99
Es	1.865090	-0.940045	0.004434	99
Es	-1.040054	-0.381983	0.015728	99
Es	1.720690	0.355704	0.037135	99
Es	1.829472	-0.098929	0.039706	99
Es	1.814238	0.413902	0.056601	99
Es	0.359953	1.500024	0.038961	99
Es	1.309183	0.548578	0.071102	99
Es	1.239839	-1.232853	0.311061	99
Es	0.594475	-1.463730	-0.021279	99
Es	-2.021590	-0.783352	0.607173	99
Es	-2.019903	-0.772786	-0.588989	99
Es	0.506332	0.762466	0.067870	99
Es	0.250766	2.012877	0.310181	99
40
Properties=species:S:1:pos:R:3:Z:I:1 energy=-322.8115053455172 field_type=dipole dipole="0.000000 0.000000 0.000000" charge=0
C	-1.781298	-0.418431	0.014143	6
C	-0.300788	-0.355681	0.018073	6
C	0.506022	0.762289	0.067853	6
N	0.251052	2.073119	0.116903	7
O	1.814582	0.414169	0.056593	8
C	1.865012	-0.940351	0.004423	6
C	0.594502	-1.463691	-0.021277	6
H	-2.231378	0.579389	0.023253	1
H	-2.141588	-0.959471	0.895343	1
H	-2.137868	-0.940571	-0.879787	1
H	1.022642	2.705079	-0.070267	1
H	-0.656578	2.429089	-0.157627	1
H	2.855512	-1.371611	-0.006687	1
H	0.340172	-2.513331	-0.060937	1
Es	1.721282	0.355587	0.053829	99
Es	1.828697	-0.098693	0.034410	99
Es	2.065806	0.629223	0.063184	99
Es	-2.021445	-0.783100	0.606395	99
Es	0.069951	0.107180	0.354085	99
Es	1.241144	-1.207395	-0.329656	99
Es	2.533337	-1.230846	-0.003688	99
Es	1.814246	0.413930	0.056433	99
Es	0.413911	-2.174128	-0.048618	99
Es	1.309661	0.547722	0.065713	99
Es	-0.300820	-0.355673	0.018114	99
Es	0.108668	-0.948267	-0.002299	99
Es	-0.291791	2.272291	-0.042448	99
Es	1.238809	-1.232934	0.309978	99
Es	0.359433	1.497318	0.047784	99
Es	0.251218	2.072465	0.115924	99
Es	-1.781254	-0.418412	0.014141	99
Es	0.506331	0.762466	0.067876	99
Es	0.711855	2.447116	0.009643	99
Es	0.071320	0.120958	-0.277327	99
Es	-2.020030	-0.772867	-0.588384	99
Es	0.252318	2.012566	0.286431	99
Es	1.865093	-0.940042	0.004434	99
Es	0.594475	-1.463730	-0.021271	99
Es	-1.039772	-0.382107	0.015759	99
Es	-2.084196	0.269379	0.019648	99
40
Properties=species:S:1:pos:R:3:Z:I:1 energy=-322.8115053455172 field_type=dipole dipole="0.000000 0.000000 0.000000" charge=0
C	-1.781298	-0.418431	0.014143	6
C	-0.300788	-0.355681	0.018073	6
C	0.506022	0.762289	0.067853	6
N	0.251052	2.073119	0.116903	7
O	1.814582	0.414169	0.056593	8
C	1.865012	-0.940351	0.004423	6
C	0.594502	-1.463691	-0.021277	6
H	-2.231378	0.579389	0.023253	1
H	-2.141588	-0.959471	0.895343	1
H	-2.137868	-0.940571	-0.879787	1
H	1.022642	2.705079	-0.070267	1
H	-0.656578	2.429089	-0.157627	1
H	2.855512	-1.371611	-0.006687	1
H	0.340172	-2.513331	-0.060937	1
Es	2.066242	0.629531	0.065893	99
Es	-2.021299	-0.783143	0.605744	99
Es	0.358996	1.495525	0.054981	99
Es	1.814241	0.413895	0.056609	99
Es	-2.084770	0.269454	0.019820	99
Es	0.071684	0.117218	-0.276884	99
Es	0.070382	0.110702	0.352984	99
Es	-0.292896	2.273011	-0.036309	99
Es	0.712139	2.448365	0.014296	99
Es	1.865094	-0.940041	0.004448	99
Es	0.251130	2.072868	0.116188	99
Es	1.237949	-1.232998	0.309069	99
Es	0.109468	-0.948091	-0.001511	99
Es	-1.039630	-0.382352	0.015903	99
Es	-2.020009	-0.772744	-0.587836	99
Es	1.310066	0.547145	0.066619	99
Es	0.253788	2.012018	0.268245	99
Es	1.240479	-1.207298	-0.329060	99
Es	1.827934	-0.098629	0.037581	99
Es	-1.781254	-0.418412	0.014141	99
Es	0.413758	-2.174504	-0.048650	99
Es	0.506333	0.762468	0.067872	99
Es	1.721444	0.356464	0.046894	99
Es	2.533331	-1.231043	-0.003757	99
Es	-0.300827	-0.355675	0.018088	99
Es	0.594474	-1.463731	-0.021279	99
40
Properties=species:S:1:pos:R:3:Z:I:1 energy=-322.8115053455172 field_type=dipole dipole="0.000000 0.000000 0.000000" charge=0
C	-1.781298	-0.418431	0.014143	6
C	-0.300788	-0.355681	0.018073	6
C	0.506022	0.762289	0.067853	6
N	0.251052	2.073119	0.116903	7
O	1.814582	0.414169	0.056593	8
C	1.865012	-0.940351	0.004423	6
C	0.594502	-1.463691	-0.021277	6
H	-2.231378	0.579389	0.023253	1
H	-2.141588	-0.959471	0.895343	1
H	-2.137868	-0.940571	-0.879787	1
H	1.022642	2.705079	-0.070267	1
H	-0.656578	2.429089	-0.157627	1
H	2.855512	-1.371611	-0.006687	1
H	0.340172	-2.513331	-0.060937	1
Es	1.721592	0.356863	0.049498	99
Es	-0.300827	-0.355676	0.018103	99
Es	0.254777	2.011565	0.253749	99
Es	0.358427	1.494422	0.059959	99
Es	-2.021142	-0.782677	0.604990	99
Es	0.506335	0.762467	0.067875	99
Es	-2.085232	0.269398	0.019941	99
Es	2.533270	-1.231175	-0.003784	99
Es	1.310422	0.546488	0.068494	99
Es	0.072034	0.119953	-0.276415	99
Es	0.110150	-0.947750	-0.001929	99
Es	1.237445	-1.232851	0.308626	99
Es	1.239909	-1.207535	-0.328429	99
Es	-0.293433	2.273578	-0.031297	99
Es	0.594474	-1.463730	-0.021275	99
Es	0.413575	-2.174770	-0.048621	99
Es	1.865091	-0.940041	0.004439	99
Es	0.070667	0.107728	0.352769	99
Es	1.814199	0.413871	0.056749	99
Es	0.251130	2.072875	0.116156	99
Es	-1.781254	-0.418412	0.014141	99
Es	1.827516	-0.098365	0.034369	99
Es	2.066369	0.630115	0.064501	99
Es	-1.039391	-0.382679	0.016128	99
Es	-2.020174	-0.772998	-0.587469	99
Es	0.712315	2.449339	0.018821	99
40
Properties=species:S:1:pos:R:3:Z:I:1 energy=-322.8115053455172 field_type=dipole dipole="0.000000 0.000000 0.000000" charge=0
C	-1.781298	-0.418431	0.014143	6
C	-0.300788	-0.355681	0.018073	6
C	0.506022	0.762289	0.067853	6
N	0.251052	2.073119	0.116903	7
O	1.814582	0.414169	0.056593	8
C	1.865012	-0.940351	0.004423	6
C	0.594502	-1.463691	-0.021277	6
H	-2.231378	0.579389	0.023253	1
H	-2.141588	-0.959471	0.895343	1
H	-2.137868	-0.940571	-0.879787	1
H	1.022642	2.705079	-0.070267	1
H	-0.656578	2.429089	-0.157627	1
H	2.855512	-1.371611	-0.006687	1
H	0.340172	-2.513331	-0.060937	1
Es	0.594474	-1.463732	-0.021272	99
Es	2.066672	0.630555	0.066457	99
Es	-0.294061	2.273940	-0.026281	99
Es	-1.039217	-0.382905	0.015960	99
Es	1.236899	-1.232891	0.308027	99
Es	0.110793	-0.947611	-0.001953	99
Es	-2.085533	0.269371	0.019879	99
Es	0.413489	-2.174996	-0.048500	99
Es	-2.020935	-0.782301	0.604677	99
Es	-2.020433	-0.773182	-0.586906	99
Es	1.721735	0.357499	0.044358	99
Es	0.255747	2.011185	0.240958	99
Es	1.826614	-0.098425	0.036898	99
Es	2.533307	-1.231300	-0.003825	99
Es	0.072211	0.117773	-0.275713	99
Es	-1.781258	-0.418416	0.014144	99
Es	1.865094	-0.940040	0.004437	99
Es	-0.300827	-0.355675	0.018081	99
Es	0.358188	1.493728	0.064636	99
Es	1.311067	0.545850	0.069020	99
Es	0.712343	2.449941	0.021638	99
Es	0.070923	0.109804	0.352128	99
Es	0.251092	2.072998	0.116434	99
Es	1.814153	0.413848	0.056893	99
Es	1.239377	-1.207479	-0.327955	99
Es	0.506335	0.762467	0.067871	99
40
Properties=species:S:1:pos:R:3:Z:I:1 energy=-322.8115053455172 field_type=dipole dipole="0.000000 0.000000 0.000000" charge=0
C	-1.781298	-0.418431	0.014143	6
C	-0.300788	-0.355681	0.018073	6
C	0.506022	0.762289	0.067853	6
N	0.251052	2.073119	0.116903	7
O	1.814582	0.414169	0.056593	8
C	1.865012	-0.940351	0.004423	6
C	0.594502	-1.463691	-0.021277	6
H	-2.231378	0.579389	0.023253	1
H	-2.141588	-0.959471	0.895343	1
H	-2.137868	-0.940571	-0.879787	1
H	1.022642	2.705079	-0.070267	1
H	-0.656578	2.429089	-0.157627	1
H	2.855512	-1.371611	-0.006687	1
H	0.340172	-2.513331	-0.060937	1
Es	0.594476	-1.463730	-0.021277	99
Es	0.111233	-0.947335	-0.000955	99
Es	-0.300827	-0.355675	0.018081	99
Es	0.251499	2.070851	0.116138	99
Es	0.357886	1.493257	0.068099	99
Es	0.255908	2.013110	0.231630	99
Es	-1.781256	-0.418416	0.014137	99
Es	0.072577	0.113872	-0.275484	99
Es	2.066687	0.631286	0.062252	99
Es	-0.294200	2.274026	-0.022929	99
Es	0.413322	-2.175174	-0.048545	99
Es	-2.020574	-0.781730	0.604253	99
Es	-2.085960	0.269330	0.019817	99
Es	1.311346	0.545423	0.065830	99
Es	0.506334	0.762467	0.067874	99
Es	1.239344	-1.207776	-0.327457	99
Es	1.722156	0.357498	0.053272	99
Es	-1.039065	-0.383023	0.015869	99
Es	1.826231	-0.098315	0.035990	99
Es	2.533296	-1.231403	-0.003768	99
Es	1.236198	-1.232655	0.307457	99
Es	-2.020689	-0.773637	-0.586367	99
Es	1.865093	-0.940041	0.004433	99
Es	0.071022	0.113486	0.351164	99
Es	1.813946	0.413745	0.056190	99
Es	0.712265	2.450564	0.024386	99
40
Properties=species:S:1:pos:R:3:Z:I:1 energy=-322.8115053455172 field_type=dipole dipole="0.000000 0.000000 0.000000" charge=0
C	-1.781298	-0.418431	0.014143	6
C	-0.300788	-0.355681	0.018073	6
C	0.506022	0.762289	0.067853	6
N	0.251052	2.073119	0.116903	7
O	1.814582	0.414169	0.056593	8
C	1.865012	-0.940351	0.004423	6
C	0.594502	-1.463691	-0.021277	6
H	-2.231378	0.579389	0.023253	1
H	-2.141588	-0.959471	0.895343	1
H	-2.137868	-0.940571	-0.879787	1
H	1.022642	2.705079	-0.070267	1
H	-0.656578	2.429089	-0.157627	1
H	2.855512	-1.371611	-0.006687	1
H	0.340172	-2.513331	-0.060937	1
Es	1.721955	0.357632	0.051807	99
Es	-1.781254	-0.418412	0.014141	99
Es	0.071135	0.117453	0.349911	99
Es	-2.020528	-0.781749	0.603807	99
Es	1.814230	0.413901	0.056523	99
Es	-0.300827	-0.355675	0.018084	99
Es	2.066963	0.631416	0.063597	99
Es	-0.294043	2.274176	-0.021617	99
Es	0.712325	2.450732	0.025317	99
Es	0.111638	-0.947197	-0.000505	99
Es	2.533315	-1.231576	-0.003795	99
Es	1.238875	-1.207457	-0.327077	99
Es	1.865094	-0.940040	0.004438	99
Es	0.413305	-2.175356	-0.048359	99
Es	-1.038978	-0.383148	0.016092	99
Es	-2.020588	-0.773525	-0.585991	99
Es	0.357418	1.492762	0.071479	99
Es	0.256473	2.011716	0.226296	99
Es	0.072829	0.109738	-0.274793	99
Es	0.594474	-1.463732	-0.021277	99
Es	1.235915	-1.232761	0.306956	99
Es	-2.086395	0.269281	0.019869	99
Es	0.506334	0.762468	0.067874	99
Es	0.251235	2.072411	0.115797	99
Es	1.311710	0.545162	0.065978	99
Es	1.825639	-0.098213	0.035536	99
40
Properties=species:S:1:pos:R:3:Z:I:1 energy=-322.8115053455172 field_type=dipole dipole="0.000000 0.000000 0.000000" charge=0
C	-1.781298	-0.418431	0.014143	6
C	-0.300788	-0.355681	0.018073	6
C	0.506022	0.762289	0.067853	6
N	0.251052	2.073119	0.116903	7
O	1.814582	0.414169	0.056593	8
C	1.865012	-0.940351	0.004423	6
C	0.594502	-1.463691	-0.021277	6
H	-2.231378	0.579389	0.023253	1
H	-2.141588	-0.959471	0.895343	1
H	-2.137868	-0.940571	-0.879787	1
H	1.022642	2.705079	-0.070267	1
H	-0.656578	2.429089	-0.157627	1
H	2.855512	-1.371611	-0.006687	1
H	0.340172	-2.513331	-0.060937	1
Es	-0.300827	-0.355674	0.018076	99
Es	0.072898	0.107014	-0.273844	99
Es	0.413170	-2.175467	-0.048332	99
Es	-2.020236	-0.781135	0.603524	99
Es	-1.781256	-0.418414	0.014141	99
Es	-1.038896	-0.383297	0.016030	99
Es	1.865095	-0.940039	0.004433	99
Es	0.712190	2.451236	0.027010	99
Es	0.251223	2.072475	0.115795	99
Es	-2.020838	-0.774027	-0.585565	99
Es	0.594473	-1.463732	-0.021278	99
Es	1.825007	-0.098202	0.037320	99
Es	0.112128	-0.946920	-0.000673	99
Es	1.312009	0.545226	0.066764	99
Es	1.235756	-1.232878	0.306595	99
Es	1.238506	-1.207391	-0.326607	99
Es	2.533306	-1.231665	-0.003799	99
Es	0.506334	0.762469	0.067869	99
Es	0.256802	2.011539	0.220623	99
Es	-2.086649	0.269243	0.019713	99
Es	-0.294015	2.273967	-0.019955	99
Es	0.071235	0.119964	0.349048	99
Es	1.722038	0.357868	0.052288	99
Es	2.067312	0.631369	0.060485	99
Es	1.814232	0.413894	0.056654	99
Es	0.357252	1.492584	0.073776	99
40
Properties=species:S:1:pos:R:3:Z:I:1 energy=-322.8115053455172 field_type=dipole dipole="0.000000 0.000000 0.000000" charge=0
C	-1.781298	-0.418431	0.014143	6
C	-0.300788	-0.355681	0.018073	6
C	0.506022	0.762289	0.067853	6
N	0.251052	2.073119	0.116903	7
O	1.814582	0.414169	0.056593	8
C	1.865012	-0.940351	0.004423	6
C	0.594502	-1.463691	-0.021277	6
H	-2.231378	0.579389	0.023253	1
H	-2.141588	-0.959471	0.895343	1
H	-2.137868	-0.940571	-0.879787	1
H	1.022642	2.705079	-0.070267	1
H	-0.656578	2.429089	-0.157627	1
H	2.855512	-1.371611	-0.006687	1
H	0.340172	-2.513331	-0.060937	1
Es	-0.294055	2.273828	-0.020222	99
Es	-2.019738	-0.772227	-0.585563	99
Es	1.238515	-1.206889	-0.327156	99
Es	1.235785	-1.233206	0.306447	99
Es	1.825381	-0.098190	0.040139	99
Es	-2.021461	-0.782922	0.604011	99
Es	2.067013	0.632047	0.059953	99
Es	0.250986	2.071809	0.122432	99
Es	-0.300827	-0.355675	0.018085	99
Es	1.311977	0.544556	0.063202	99
Es	0.357205	1.492350	0.077907	99
Es	0.712212	2.451288	0.027153	99
Es	-1.038865	-0.383384	0.016088	99
Es	0.594473	-1.463732	-0.021279	99
Es	-1.781254	-0.418412	0.014142	99
Es	-2.086567	0.269098	0.019423	99
Es	0.506336	0.762470	0.067868	99
Es	1.814069	0.413782	0.056882	99
Es	0.112335	-0.946948	0.001057	99
Es	2.533224	-1.231606	-0.003561	99
Es	1.722146	0.358204	0.053190	99
Es	0.257188	2.012533	0.209865	99
Es	0.073143	0.089100	-0.268731	99
Es	0.070937	0.137623	0.342249	99
Es	1.865095	-0.940038	0.004436	99
Es	0.412990	-2.175453	-0.047926	99
40
Properties=species:S:1:pos:R:3:Z:I:1 energy=-322.8115053455172 field_type=dipole dipole="0.000000 0.000000 0.000000" charge=0
C	-1.781298	-0.418431	0.014143	6
C	-0.300788	-0.355681	0.018073	6
C	0.506022	0.762289	0.067853	6
N	0.251052	2.073119	0.116903	7
O	1.814582	0.414169	0.056593	8
C	1.865012	-0.940351	0.004423	6
C	0.594502	-1.463691	-0.021277	6
H	-2.231378	0.579389	0.023253	1
H	-2.141588	-0.959471	0.895343	1
H	-2.137868	-0.940571	-0.879787	1
H	1.022642	2.705079	-0.070267	1
H	-0.656578	2.429089	-0.157627	1
H	2.855512	-1.371611	-0.006687	1
H	0.340172	-2.513331	-0.060937	1
Es	0.073506	0.086066	-0.267467	99
Es	0.356898	1.492350	0.079332	99
Es	0.251060	2.073073	0.116782	99
Es	1.813847	0.413681	0.056110	99
Es	0.257328	2.011190	0.212139	99
Es	1.235252	-1.232933	0.306185	99
Es	1.238570	-1.207178	-0.326928	99
Es	2.533201	-1.231669	-0.003557	99
Es	-1.038768	-0.383347	0.015950	99
Es	0.070914	0.140477	0.340288	99
Es	-2.086852	0.269050	0.019467	99
Es	0.712382	2.451268	0.027507	99
Es	-2.020331	-0.773079	-0.585171	99
Es	0.412844	-2.175533	-0.047890	99
Es	-1.781254	-0.418413	0.014142	99
Es	-0.294136	2.273916	-0.018756	99
Es	0.506334	0.762468	0.067864	99
Es	-0.300827	-0.355675	0.018086	99
Es	0.112616	-0.946852	0.001839	99
Es	1.824977	-0.098216	0.040971	99
Es	2.067099	0.632224	0.059681	99
Es	-2.020781	-0.781987	0.603725	99
Es	0.594473	-1.463732	-0.021279	99
Es	1.865093	-0.940038	0.004430	99
Es	1.722470	0.358423	0.053425	99
Es	1.312333	0.544470	0.063214	99
40
Properties=species:S:1:pos:R:3:Z:I:1 energy=-322.8115053455172 field_type=dipole dipole="0.000000 0.000000 0.000000" charge=0
C	-1.781298	-0.418431	0.014143	6
C	-0.300788	-0.355681	0.018073	6
C	0.506022	0.762289	0.067853	6
N	0.251052	2.073119	0.116903	7
O	1.814582	0.414169	0.056593	8
C	1.865012	-0.940351	0.004423	6
C	0.594502	-1.463691	-0.021277	6
H	-2.231378	0.579389	0.023253	1
H	-2.141588	-0.959471	0.895343	1
H	-2.137868	-0.940571	-0.879787	1
H	1.022642	2.705079	-0.070267	1
H	-0.656578	2.429089	-0.157627	1
H	2.855512	-1.371611	-0.006687	1
H	0.340172	-2.513331	-0.060937	1
Es	0.112652	-0.946937	0.002359	99
Es	1.824566	-0.098111	0.041055	99
Es	1.312563	0.544226	0.061013	99
Es	-1.038804	-0.383144	0.016018	99
Es	0.070782	0.151459	0.333200	99
Es	-1.781255	-0.418413	0.014143	99
Es	0.712293	2.451435	0.026826	99
Es	0.356814	1.492148	0.082269	99
Es	2.533184	-1.231640	-0.003607	99
Es	2.067283	0.632419	0.058783	99
Es	-0.300829	-0.355675	0.018072	99
Es	-2.019365	-0.771774	-0.585279	99
Es	0.257268	2.011660	0.211781	99
Es	1.865094	-0.940040	0.004436	99
Es	0.073463	0.074555	-0.260764	99
Es	-0.293904	2.273582	-0.020247	99
Es	0.251105	2.072961	0.116328	99
Es	1.235479	-1.232936	0.306228	99
Es	-2.086766	0.268900	0.019171	99
Es	0.412760	-2.175525	-0.047680	99
Es	-2.021810	-0.783340	0.604049	99
Es	1.722191	0.358465	0.056197	99
Es	0.506335	0.762468	0.067874	99
Es	1.814072	0.413832	0.056266	99
Es	1.238601	-1.206837	-0.327119	99
Es	0.594474	-1.463732	-0.021282	99
40
Properties=species:S:1:pos:R:3:Z:I:1 energy=-322.8115053455172 field_type=dipole dipole="0.000000 0.000000 0.000000" charge=0
C	-1.781298	-0.418431	0.014143	6
C	-0.300788	-0.355681	0.018073	6
C	0.506022	0.762289	0.067853	6
N	0.251052	2.073119	0.116903	7
O	1.814582	0.414169	0.056593	8
C	1.865012	-0.940351	0.004423	6
C	0.594502	-1.463691	-0.021277	6
H	-2.231378	0.579389	0.023253	1
H	-2.141588	-0.959471	0.895343	1
H	-2.137868	-0.940571	-0.879787	1
H	1.022642	2.705079	-0.070267	1
H	-0.656578	2.429089	-0.157627	1
H	2.855512	-1.371611	-0.006687	1
H	0.340172	-2.513331	-0.060937	1
Es	-1.781254	-0.418412	0.014141	99
Es	0.252286	2.056361	0.151074	99
Es	2.533116	-1.231592	-0.003400	99
Es	0.112842	-0.946878	0.002200	99
Es	0.073563	0.073752	-0.260528	99
Es	0.712369	2.451423	0.028057	99
Es	1.235401	-1.233047	0.306393	99
Es	0.412683	-2.175552	-0.047638	99
Es	-0.293968	2.273835	-0.018843	99
Es	1.238410	-1.206784	-0.327203	99
Es	-2.022346	-0.783992	0.604156	99
Es	0.506334	0.762468	0.067876	99
Es	1.814239	0.413902	0.056568	99
Es	2.067119	0.632500	0.059627	99
Es	0.594474	-1.463732	-0.021278	99
Es	0.256417	2.028131	0.170893	99
Es	-2.018974	-0.771027	-0.585113	99
Es	1.721947	0.358556	0.053758	99
Es	0.356533	1.492033	0.085731	99
Es	1.865094	-0.940040	0.004436	99
Es	-2.086670	0.268899	0.019010	99
Es	1.824678	-0.098252	0.041922	99
Es	-0.300826	-0.355675	0.018090	99
Es	0.070844	0.152406	0.332504	99
Es	-1.038721	-0.383557	0.016211	99
Es	1.312658	0.544278	0.061446	99
40
Properties=species:S:1:pos:R:3:Z:I:1 energy=-322.8115053455172 field_type=dipole dipole="0.000000 0.000000 0.000000" charge=0
C	-1.781298	-0.418431	0.014143	6
C	-0.300788	-0.355681	0.018073	6
C	0.506022	0.762289	0.067853	6
N	0.251052	2.073119	0.116903	7
O	1.814582	0.414169	0.056593	8
C	1.865012	-0.940351	0.004423	6
C	0.594502	-1.463691	-0.021277	6
H	-2.231378	0.579389	0.023253	1
H	-2.141588	-0.959471	0.895343	1
H	-2.137868	-0.940571	-0.879787	1
H	1.022642	2.705079	-0.070267	1
H	-0.656578	2.429089	-0.157627	1
H	2.855512	-1.371611	-0.006687	1
H	0.340172	-2.513331	-0.060937	1
Es	1.865094	-0.940037	0.004432	99
Es	0.412700	-2.175611	-0.049055	99
Es	0.356861	1.493065	0.068086	99
Es	2.067399	0.632297	0.066133	99
Es	0.251092	2.073001	0.116451	99
Es	0.113149	-0.946417	-0.004734	99
Es	2.533103	-1.231646	-0.004675	99
Es	-2.025882	-0.781613	-0.583041	99
Es	1.237985	-1.207991	-0.325702	99
Es	-1.038680	-0.383458	0.016317	99
Es	-2.087186	0.268785	0.020644	99
Es	0.257657	2.009206	0.209800	99
Es	-1.781254	-0.418413	0.014141	99
Es	-0.293884	2.274458	-0.008668	99
Es	0.506336	0.762466	0.067875	99
Es	0.594475	-1.463732	-0.021280	99
Es	1.722184	0.358664	0.049900	99
Es	0.072470	0.160971	-0.259964	99
Es	1.814225	0.413885	0.056683	99
Es	1.312910	0.543576	0.071369	99
Es	0.711962	2.452026	0.032019	99
Es	0.072338	0.065029	0.339091	99
Es	1.824215	-0.097529	0.029552	99
Es	-2.015182	-0.773285	0.599662	99
Es	-0.300827	-0.355675	0.018076	99
Es	1.234989	-1.232015	0.306978	99
40
Properties=species:S:1:pos:R:3:Z:I:1 energy=-322.8115053455172 field_type=dipole dipole="0.000000 0.000000 0.000000" charge=0
C	-1.781298	-0.418431	0.014143	6
C	-0.300788	-0.355681	0.018073	6
C	0.506022	0.762289	0.067853	6
N	0.251052	2.073119	0.116903	7
O	1.814582	0.414169	0.056593	8
C	1.865012	-0.940351	0.004423	6
C	0.594502	-1.463691	-0.021277	6
H	-2.231378	0.579389	0.023253	1
H	-2.141588	-0.959471	0.895343	1
H	-2.137868	-0.940571	-0.879787	1
H	1.022642	2.705079	-0.070267	1
H	-0.656578	2.429089	-0.157627	1
H	2.855512	-1.371611	-0.006687	1
H	0.340172	-2.513331	-0.060937	1
Es	1.238880	-1.206408	-0.327901	99
Es	-2.022789	-0.784623	0.604440	99
Es	-0.293544	2.273275	-0.022863	99
Es	0.594474	-1.463732	-0.021278	99
Es	0.506335	0.762468	0.067872	99
Es	0.250960	2.072773	0.119613	99
Es	1.722054	0.358841	0.056912	99
Es	0.070512	0.168589	0.317770	99
Es	2.533033	-1.231453	-0.003369	99
Es	-1.038833	-0.383432	0.016151	99
Es	0.356566	1.492133	0.082630	99
Es	-0.300829	-0.355676	0.018090	99
Es	2.067237	0.632713	0.055804	99
Es	1.865095	-0.940039	0.004434	99
Es	-2.018670	-0.770448	-0.585317	99
Es	0.112967	-0.946963	0.003737	99
Es	1.824444	-0.098120	0.044980	99
Es	1.235526	-1.232874	0.306613	99
Es	0.412472	-2.175478	-0.047461	99
Es	-2.086459	0.268729	0.018975	99
Es	0.712488	2.451370	0.026252	99
Es	1.814121	0.413846	0.056272	99
Es	0.257228	2.012191	0.211212	99
Es	1.312814	0.543989	0.059330	99
Es	0.073420	0.056748	-0.246951	99
Es	-1.781255	-0.418413	0.014143	99
40
Properties=species:S:1:pos:R:3:Z:I:1 energy=-322.8115053455172 field_type=dipole dipole="0.000000 0.000000 0.000000" charge=0
C	-1.781298	-0.418431	0.014143	6
C	-0.300788	-0.355681	0.018073	6
C	0.506022	0.762289	0.067853	6
N	0.251052	2.073119	0.116903	7
O	1.814582	0.414169	0.056593	8
C	1.865012	-0.940351	0.004423	6
C	0.594502	-1.463691	-0.021277	6
H	-2.231378	0.579389	0.023253	1
H	-2.141588	-0.959471	0.895343	1
H	-2.137868	-0.940571	-0.879787	1
H	1.022642	2.705079	-0.070267	1
H	-0.656578	2.429089	-0.157627	1
H	2.855512	-1.371611	-0.006687	1
H	0.340172	-2.513331	-0.060937	1
Es	-2.086485	0.268625	0.018818	99
Es	1.865093	-0.940039	0.004437	99
Es	1.824370	-0.098103	0.044513	99
Es	-1.038772	-0.383358	0.016035	99
Es	0.113089	-0.947087	0.003847	99
Es	-1.781255	-0.418412	0.014141	99
Es	-0.293601	2.273194	-0.021938	99
Es	0.506335	0.762468	0.067869	99
Es	0.594474	-1.463732	-0.021278	99
Es	0.356565	1.492175	0.082908	99
Es	0.712447	2.451523	0.026439	99
Es	2.067243	0.632853	0.058573	99
Es	0.070431	0.170992	0.315075	99
Es	-2.023474	-0.785602	0.604428	99
Es	1.239249	-1.206861	-0.327961	99
Es	0.251122	2.072907	0.116202	99
Es	-2.018028	-0.769438	-0.585082	99
Es	0.073496	0.054169	-0.244521	99
Es	-0.300828	-0.355675	0.018091	99
Es	1.721921	0.358943	0.053735	99
Es	0.257184	2.011945	0.213147	99
Es	0.412398	-2.175519	-0.047368	99
Es	2.533003	-1.231490	-0.003128	99
Es	1.312939	0.543783	0.059740	99
Es	1.814228	0.413889	0.056675	99
Es	1.235103	-1.232145	0.306694	99
40
Properties=species:S:1:pos:R:3:Z:I:1 energy=-322.8115053455172 field_type=dipole dipole="0.000000 0.000000 0.000000" charge=0
C	-1.781298	-0.418431	0.014143	6
C	-0.300788	-0.355681	0.018073	6
C	0.506022	0.762289	0.067853	6
N	0.251052	2.073119	0.116903	7
O	1.814582	0.414169	0.056593	8
C	1.865012	-0.940351	0.004423	6
C	0.594502	-1.463691	-0.021277	6
H	-2.231378	0.579389	0.023253	1
H	-2.141588	-0.959471	0.895343	1
H	-2.137868	-0.940571	-0.879787	1
H	1.022642	2.705079	-0.070267	1
H	-0.656578	2.429089	-0.157627	1
H	2.855512	-1.371611	-0.006687	1
H	0.340172	-2.513331	-0.060937	1
Es	0.712513	2.451383	0.025781	99
Es	0.257330	2.011939	0.210837	99
Es	1.235518	-1.232790	0.306659	99
Es	2.067346	0.632873	0.058895	99
Es	0.073513	0.051173	-0.241567	99
Es	0.412432	-2.175500	-0.047421	99
Es	1.721896	0.359034	0.052799	99
Es	0.594473	-1.463732	-0.021285	99
Es	-0.300826	-0.355675	0.018107	99
Es	1.823957	-0.098181	0.045622	99
Es	0.251002	2.073059	0.117926	99
Es	-1.038766	-0.383361	0.016187	99
Es	0.506335	0.762468	0.067869	99
Es	2.532980	-1.231429	-0.003306	99
Es	-0.293576	2.273277	-0.022078	99
Es	1.814225	0.413910	0.056494	99
Es	1.865095	-0.940036	0.004437	99
Es	1.238879	-1.206154	-0.328168	99
Es	-2.023398	-0.785473	0.604347	99
Es	-2.086501	0.268493	0.018967	99
Es	0.070343	0.173819	0.311883	99
Es	-1.781254	-0.418415	0.014136	99
Es	-2.018114	-0.769590	-0.585314	99
Es	1.313231	0.543818	0.059488	99
Es	0.356505	1.492107	0.084317	99
Es	0.113107	-0.947012	0.004479	99
40
Properties=species:S:1:pos:R:3:Z:I:1 energy=-322.8115053455172 field_type=dipole dipole="0.000000 0.000000 0.000000" charge=0
C	-1.781298	-0.418431	0.014143	6
C	-0.300788	-0.355681	0.018073	6
C	0.506022	0.762289	0.067853	6
N	0.251052	2.073119	0.116903	7
O	1.814582	0.414169	0.056593	8
C	1.865012	-0.940351	0.004423	6
C	0.594502	-1.463691	-0.021277	6
H	-2.231378	0.579389	0.023253	1
H	-2.141588	-0.959471	0.895343	1
H	-2.137868	-0.940571	-0.879787	1
H	1.022642	2.705079	-0.070267	1
H	-0.656578	2.429089	-0.157627	1
H	2.855512	-1.371611	-0.006687	1
H	0.340172	-2.513331	-0.060937	1
Es	0.072729	0.042577	0.322121	99
Es	2.532996	-1.231458	-0.004893	99
Es	0.356772	1.493608	0.062767	99
Es	-1.038769	-0.383365	0.016265	99
Es	0.594474	-1.463732	-0.021279	99
Es	-0.300827	-0.355674	0.018065	99
Es	-2.086833	0.268356	0.021182	99
Es	0.257693	2.008406	0.212910	99
Es	-0.293572	2.274380	-0.007511	99
Es	1.814233	0.413930	0.056561	99
Es	1.313357	0.542974	0.073715	99
Es	-2.025636	-0.780794	-0.584393	99
Es	1.865094	-0.940039	0.004430	99
Es	1.238201	-1.208286	-0.325743	99
Es	1.722071	0.358955	0.050385	99
Es	1.823796	-0.097134	0.025462	99
Es	0.071725	0.182484	-0.240312	99
Es	-1.781254	-0.418413	0.014141	99
Es	0.412177	-2.175448	-0.049612	99
Es	-2.015683	-0.774171	0.600182	99
Es	0.711793	2.452339	0.033443	99
Es	0.251100	2.072975	0.116387	99
Es	0.113545	-0.946191	-0.007799	99
Es	0.506334	0.762467	0.067873	99
Es	2.067449	0.632509	0.067745	99
Es	1.235282	-1.231251	0.307999	99
40
Properties=species:S:1:pos:R:3:Z:I:1 energy=-322.8115053455172 field_type=dipole dipole="0.000000 0.000000 0.000000" charge=0
C	-1.781298	-0.418431	0.014143	6
C	-0.300788	-0.355681	0.018073	6
C	0.506022	0.762289	0.067853	6
N	0.251052	2.073119	0.116903	7
O	1.814582	0.414169	0.056593	8
C	1.865012	-0.940351	0.004423	6
C	0.594502	-1.463691	-0.021277	6
H	-2.231378	0.579389	0.023253	1
H	-2.141588	-0.959471	0.895343	1
H	-2.137868	-0.940571	-0.879787	1
H	1.022642	2.705079	-0.070267	1
H	-0.656578	2.429089	-0.157627	1
H	2.855512	-1.371611	-0.006687	1
H	0.340172	-2.513331	-0.060937	1
Es	0.113477	-0.946218	-0.007076	99
Es	0.594474	-1.463731	-0.021281	99
Es	1.238094	-1.208161	-0.325901	99
Es	1.823272	-0.097099	0.024648	99
Es	-2.026297	-0.782005	-0.583633	99
Es	0.711877	2.452297	0.032973	99
Es	-1.781254	-0.418413	0.014141	99
Es	1.313575	0.543350	0.074068	99
Es	2.067744	0.632175	0.067770	99
Es	0.251444	2.071250	0.115791	99
Es	2.532947	-1.231413	-0.004906	99
Es	1.813743	0.413606	0.056093	99
Es	0.072681	0.042337	0.321679	99
Es	-2.015008	-0.772939	0.599491	99
Es	0.356696	1.493382	0.064543	99
Es	1.865094	-0.940039	0.004433	99
Es	1.235235	-1.231385	0.307835	99
Es	-2.086920	0.268312	0.021046	99
Es	-0.293540	2.274396	-0.007069	99
Es	0.506334	0.762468	0.067877	99
Es	0.257368	2.010373	0.211718	99
Es	1.722648	0.359243	0.051287	99
Es	0.412197	-2.175474	-0.049605	99
Es	-0.300828	-0.355674	0.018063	99
Es	0.071910	0.182663	-0.240205	99
Es	-1.038718	-0.383297	0.016307	99
40
Properties=species:S:1:pos:R:3:Z:I:1 energy=-322.8115053455172 field_type=dipole dipole="0.000000 0.000000 0.000000" charge=0
C	-1.781298	-0.418431	0.014143	6
C	-0.300788	-0.355681	0.018073	6
C	0.506022	0.762289	0.067853	6
N	0.251052	2.073119	0.116903	7
O	1.814582	0.414169	0.056593	8
C	1.865012	-0.940351	0.004423	6
C	0.594502	-1.463691	-0.021277	6
H	-2.231378	0.579389	0.023253	1
H	-2.141588	-0.959471	0.895343	1
H	-2.137868	-0.940571	-0.879787	1
H	1.022642	2.705079	-0.070267	1
H	-0.656578	2.429089	-0.157627	1
H	2.855512	-1.371611	-0.006687	1
H	0.340172	-2.513331	-0.060937	1
Es	-1.781254	-0.418412	0.014141	99