43
Properties=species:S:1:pos:R:3:Z:I:1 energy=-323.9637354834463 field_type=dipole dipole="0.000000 0.000000 0.000000" charge=0
C	-2.088337	-0.888400	-0.002485	6
C	-0.668307	-0.558470	0.306305	6
N	0.400143	-1.411990	-0.192125	7
C	0.257883	-0.064080	-0.779535	6
C	1.428763	0.824330	-0.545145	6
C	1.580183	1.454270	0.809865	6
O	2.206303	1.054290	-1.466485	8
H	-2.711597	0.003110	0.113905	1
H	-2.456937	-1.653090	0.687965	1
H	-2.216627	-1.260410	-1.023875	1
H	-0.548727	-0.202370	1.322175	1
H	0.062263	-2.112550	-0.854485	1
H	-0.122617	-0.033860	-1.795335	1
H	0.674883	2.010180	1.065045	1
H	2.421813	2.152910	0.793905	1
H	1.780913	0.686130	1.560305	1
Es	1.500533	1.133222	0.144856	99
Es	0.399658	-1.411772	-0.192453	99
Es	0.964381	1.816490	0.970309	99
Es	-0.291318	-0.089013	-0.239489	99
Es	2.124353	0.906391	-1.734637	99
Es	-0.579912	-0.312792	0.994421	99
Es	-2.088310	-0.888393	-0.002482	99
Es	1.428743	0.824315	-0.545116	99
Es	-2.505377	-0.282669	0.078867	99
Es	-2.164119	-1.142061	-0.699373	99
Es	0.436232	-0.833120	-0.541718	99
Es	2.063253	0.772806	-1.066462	99
Es	2.206070	1.054212	-1.466252	99
Es	0.257899	-0.064302	-0.779381	99
Es	-0.668142	-0.558565	0.306153	99
Es	1.786350	1.170960	-1.202474	99
Es	0.820977	0.387360	-0.639454	99
Es	0.685703	-1.474463	0.014211	99
Es	-1.372666	-0.726809	0.133640	99
Es	-2.330598	-1.406606	0.466952	99
Es	2.442275	1.247104	-1.383945	99
Es	1.580153	1.454237	0.809835	99
Es	1.702266	0.934414	1.299303	99
Es	0.177831	-1.816757	-0.592872	99
Es	-0.004412	-0.040657	-1.461403	99
Es	2.142448	1.921037	0.800163	99
Es	-0.114701	-1.160172	0.099028	99
43
Properties=species:S:1:pos:R:3:Z:I:1 energy=-323.9637354834463 field_type=dipole dipole="0.000000 0.000000 0.000000" charge=0
C	-2.088337	-0.888400	-0.002485	6
C	-0.668307	-0.558470	0.306305	6
N	0.400143	-1.411990	-0.192125	7
C	0.257883	-0.064080	-0.779535	6
C	1.428763	0.824330	-0.545145	6
C	1.580183	1.454270	0.809865	6
O	2.206303	1.054290	-1.466485	8
H	-2.711597	0.003110	0.113905	1
H	-2.456937	-1.653090	0.687965	1
H	-2.216627	-1.260410	-1.023875	1
H	-0.548727	-0.202370	1.322175	1
H	0.062263	-2.112550	-0.854485	1
H	-0.122617	-0.033860	-1.795335	1
H	0.674883	2.010180	1.065045	1
H	2.421813	2.152910	0.793905	1
H	1.780913	0.686130	1.560305	1
Es	1.500292	1.133753	0.145535	99
Es	-0.580517	-0.314042	0.994546	99
Es	0.182175	-1.817391	-0.590077	99
Es	-2.331495	-1.408671	0.469093	99
Es	2.441239	1.246204	-1.384986	99
Es	2.126120	0.908784	-1.732730	99
Es	-2.503789	-0.282209	0.077566	99
Es	0.444398	-0.829394	-0.546561	99
Es	2.142138	1.920746	0.799392	99
Es	-2.162816	-1.140653	-0.698937	99
Es	-0.118386	-1.162492	0.108894	99
Es	1.702865	0.933685	1.299193	99
Es	-0.002610	-0.041597	-1.460910	99
Es	-1.373157	-0.727447	0.133511	99
Es	-2.088310	-0.888393	-0.002482	99
Es	1.785000	1.173363	-1.205152	99
Es	1.428740	0.824318	-0.545116	99
Es	0.821709	0.385776	-0.640040	99
Es	-0.293696	-0.087255	-0.238757	99
Es	1.580155	1.454238	0.809833	99
Es	0.676279	-1.472496	0.005102	99
Es	-0.668143	-0.558563	0.306158	99
Es	2.063998	0.769196	-1.065066	99
Es	2.206019	1.054167	-1.466265	99
Es	0.399744	-1.411756	-0.192388	99
Es	0.257895	-0.064294	-0.779382	99
Es	0.963722	1.816822	0.970250	99
43
Properties=species:S:1:pos:R:3:Z:I:1 energy=-323.9637354834463 field_type=dipole dipole="0.000000 0.000000 0.000000" charge=0
C	-2.088337	-0.888400	-0.002485	6
C	-0.668307	-0.558470	0.306305	6
N	0.400143	-1.411990	-0.192125	7
C	0.257883	-0.064080	-0.779535	6
C	1.428763	0.824330	-0.545145	6
C	1.580183	1.454270	0.809865	6
O	2.206303	1.054290	-1.466485	8
H	-2.711597	0.003110	0.113905	1
H	-2.456937	-1.653090	0.687965	1
H	-2.216627	-1.260410	-1.023875	1
H	-0.548727	-0.202370	1.322175	1
H	0.062263	-2.112550	-0.854485	1
H	-0.122617	-0.033860	-1.795335	1
H	0.674883	2.010180	1.065045	1
H	2.421813	2.152910	0.793905	1
H	1.780913	0.686130	1.560305	1
Es	1.703430	0.933091	1.298909	99
Es	-0.294776	-0.086705	-0.238069	99
Es	-2.502541	-0.281877	0.076775	99
Es	2.206144	1.054238	-1.466302	99
Es	-0.001530	-0.041962	-1.460528	99
Es	-1.373400	-0.727994	0.133134	99
Es	0.185420	-1.817640	-0.587356	99
Es	0.963104	1.817107	0.970301	99
Es	0.257896	-0.064296	-0.779379	99
Es	0.399653	-1.411773	-0.192460	99
Es	0.821882	0.384668	-0.640461	99
Es	-0.668140	-0.558568	0.306155	99
Es	1.580153	1.454237	0.809835	99
Es	-0.581100	-0.314824	0.994795	99
Es	-0.120008	-1.164621	0.115806	99
Es	1.428740	0.824320	-0.545112	99
Es	2.126461	0.909869	-1.732598	99
Es	2.067546	0.767579	-1.064976	99
Es	-2.162062	-1.139843	-0.698624	99
Es	0.667012	-1.469997	-0.001891	99
Es	0.451607	-0.827267	-0.550086	99
Es	1.499929	1.134260	0.146352	99
Es	-2.332056	-1.409649	0.470408	99
Es	-2.088311	-0.888393	-0.002484	99
Es	2.438968	1.245545	-1.386322	99
Es	1.783496	1.174384	-1.204126	99
Es	2.142055	1.920505	0.798528	99
43
Properties=species:S:1:pos:R:3:Z:I:1 energy=-323.9637354834463 field_type=dipole dipole="0.000000 0.000000 0.000000" charge=0
C	-2.088337	-0.888400	-0.002485	6
C	-0.668307	-0.558470	0.306305	6
N	0.400143	-1.411990	-0.192125	7
C	0.257883	-0.064080	-0.779535	6
C	1.428763	0.824330	-0.545145	6
C	1.580183	1.454270	0.809865	6
O	2.206303	1.054290	-1.466485	8
H	-2.711597	0.003110	0.113905	1
H	-2.456937	-1.653090	0.687965	1
H	-2.216627	-1.260410	-1.023875	1
H	-0.548727	-0.202370	1.322175	1
H	0.062263	-2.112550	-0.854485	1
H	-0.122617	-0.033860	-1.795335	1
H	0.674883	2.010180	1.065045	1
H	2.421813	2.152910	0.793905	1
H	1.780913	0.686130	1.560305	1
Es	-0.121068	-1.166497	0.120175	99
Es	-0.668143	-0.558572	0.306158	99
Es	2.206109	1.054262	-1.466188	99
Es	-1.373407	-0.728330	0.132855	99
Es	2.142715	1.920536	0.797290	99
Es	-0.000938	-0.042422	-1.459771	99
Es	1.580153	1.454238	0.809835	99
Es	2.065178	0.765503	-1.064354	99
Es	1.428740	0.824318	-0.545115	99
Es	-0.295292	-0.086750	-0.237580	99
Es	-0.581467	-0.315551	0.994755	99
Es	-2.501732	-0.281852	0.075811	99
Es	0.962414	1.817174	0.970256	99
Es	0.456384	-0.826187	-0.552886	99
Es	0.659312	-1.466835	-0.006910	99
Es	-2.088310	-0.888393	-0.002481	99
Es	-2.332837	-1.410442	0.471134	99
Es	2.145965	0.916423	-1.745653	99
Es	1.499482	1.134568	0.147991	99
Es	1.781608	1.175165	-1.209224	99
Es	1.703645	0.932504	1.298314	99
Es	0.188787	-1.818037	-0.584687	99
Es	2.423858	1.240413	-1.368974	99
Es	0.257912	-0.064309	-0.779388	99
Es	0.822297	0.384293	-0.640884	99
Es	0.399678	-1.411750	-0.192435	99
Es	-2.161472	-1.139072	-0.697819	99
43
Properties=species:S:1:pos:R:3:Z:I:1 energy=-323.9637354834463 field_type=dipole dipole="0.000000 0.000000 0.000000" charge=0
C	-2.088337	-0.888400	-0.002485	6
C	-0.668307	-0.558470	0.306305	6
N	0.400143	-1.411990	-0.192125	7
C	0.257883	-0.064080	-0.779535	6
C	1.428763	0.824330	-0.545145	6
C	1.580183	1.454270	0.809865	6
O	2.206303	1.054290	-1.466485	8
H	-2.711597	0.003110	0.113905	1
H	-2.456937	-1.653090	0.687965	1
H	-2.216627	-1.260410	-1.023875	1
H	-0.548727	-0.202370	1.322175	1
H	0.062263	-2.112550	-0.854485	1
H	-0.122617	-0.033860	-1.795335	1
H	0.674883	2.010180	1.065045	1
H	2.421813	2.152910	0.793905	1
H	1.780913	0.686130	1.560305	1
Es	1.778445	1.172733	-1.215110	99
Es	0.822896	0.385160	-0.641214	99
Es	2.205995	1.054145	-1.466283	99
Es	-2.333945	-1.410630	0.471031	99
Es	0.190180	-1.819563	-0.584405	99
Es	2.221742	0.961625	-1.772626	99
Es	-2.162046	-1.138534	-0.696673	99
Es	-0.294976	-0.087482	-0.237834	99
Es	-2.501526	-0.282718	0.075045	99
Es	2.358899	1.205207	-1.328100	99
Es	1.580154	1.454236	0.809834	99
Es	-0.000929	-0.043323	-1.458294	99
Es	2.057842	0.758341	-1.071999	99
Es	0.257899	-0.064295	-0.779382	99
Es	1.702971	0.932388	1.297403	99
Es	-2.088309	-0.888393	-0.002481	99
Es	0.399635	-1.411761	-0.192467	99
Es	-0.668141	-0.558564	0.306157	99
Es	-0.121131	-1.166425	0.121558	99
Es	0.459476	-0.825291	-0.552831	99
Es	1.499253	1.134775	0.148695	99
Es	0.962251	1.816176	0.970310	99
Es	2.144084	1.921534	0.796856	99
Es	0.653956	-1.465102	-0.008762	99
Es	1.428740	0.824319	-0.545115	99
Es	-1.373246	-0.728224	0.133281	99
Es	-0.580598	-0.315936	0.993633	99
43
Properties=species:S:1:pos:R:3:Z:I:1 energy=-323.9637354834463 field_type=dipole dipole="0.000000 0.000000 0.000000" charge=0
C	-2.088337	-0.888400	-0.002485	6
C	-0.668307	-0.558470	0.306305	6
N	0.400143	-1.411990	-0.192125	7
C	0.257883	-0.064080	-0.779535	6
C	1.428763	0.824330	-0.545145	6
C	1.580183	1.454270	0.809865	6
O	2.206303	1.054290	-1.466485	8
H	-2.711597	0.003110	0.113905	1
H	-2.456937	-1.653090	0.687965	1
H	-2.216627	-1.260410	-1.023875	1
H	-0.548727	-0.202370	1.322175	1
H	0.062263	-2.112550	-0.854485	1
H	-0.122617	-0.033860	-1.795335	1
H	0.674883	2.010180	1.065045	1
H	2.421813	2.152910	0.793905	1
H	1.780913	0.686130	1.560305	1
Es	0.962372	1.815642	0.970492	99
Es	2.258496	0.988874	-1.771725	99
Es	0.649942	-1.463670	-0.010656	99
Es	-2.334329	-1.410553	0.471059	99
Es	-0.294747	-0.088171	-0.237884	99
Es	1.580152	1.454236	0.809835	99
Es	1.428741	0.824316	-0.545114	99
Es	-0.120640	-1.166023	0.122776	99
Es	-2.162536	-1.138223	-0.696806	99
Es	1.702610	0.932815	1.297105	99
Es	1.777595	1.172770	-1.215692	99
Es	2.144537	1.922001	0.797038	99
Es	2.056071	0.755621	-1.075568	99
Es	2.325041	1.180997	-1.324898	99
Es	-1.372983	-0.728391	0.133203	99
Es	2.205700	1.053968	-1.466169	99
Es	-2.088308	-0.888392	-0.002481	99
Es	0.461762	-0.824569	-0.551990	99
Es	-0.668141	-0.558564	0.306156	99
Es	-0.000946	-0.043816	-1.457899	99
Es	1.499091	1.134446	0.148574	99
Es	0.399650	-1.411758	-0.192456	99
Es	0.823243	0.385539	-0.641450	99
Es	0.257895	-0.064298	-0.779381	99
Es	-2.501081	-0.283218	0.075218	99
Es	-0.580525	-0.316074	0.993640	99
Es	0.190909	-1.821108	-0.584701	99
43
Properties=species:S:1:pos:R:3:Z:I:1 energy=-323.9637354834463 field_type=dipole dipole="0.000000 0.000000 0.000000" charge=0
C	-2.088337	-0.888400	-0.002485	6
C	-0.668307	-0.558470	0.306305	6
N	0.400143	-1.411990	-0.192125	7
C	0.257883	-0.064080	-0.779535	6
C	1.428763	0.824330	-0.545145	6
C	1.580183	1.454270	0.809865	6
O	2.206303	1.054290	-1.466485	8
H	-2.711597	0.003110	0.113905	1
H	-2.456937	-1.653090	0.687965	1
H	-2.216627	-1.260410	-1.023875	1
H	-0.548727	-0.202370	1.322175	1
H	0.062263	-2.112550	-0.854485	1
H	-0.122617	-0.033860	-1.795335	1
H	0.674883	2.010180	1.065045	1
H	2.421813	2.152910	0.793905	1
H	1.780913	0.686130	1.560305	1
Es	0.963681	1.817053	0.971747	99
Es	-0.582809	-0.314751	0.997294	99
Es	-0.668143	-0.558570	0.306152	99
Es	-2.088309	-0.888393	-0.002482	99
Es	-2.160224	-1.139841	-0.701943	99
Es	0.257892	-0.064292	-0.779371	99
Es	-2.332316	-1.408790	0.472399	99
Es	1.499775	1.133151	0.144333	99
Es	1.703616	0.935088	1.298742	99
Es	2.206244	1.054458	-1.465859	99
Es	-0.295748	-0.089109	-0.237264	99
Es	0.649675	-1.460804	-0.014799	99
Es	0.191454	-1.823649	-0.586142	99
Es	2.140833	1.919851	0.799976	99
Es	2.463453	1.199715	-1.569272	99
Es	1.795146	1.188455	-1.192148	99
Es	0.822578	0.383327	-0.640859	99
Es	-2.499981	-0.282472	0.077206	99
Es	1.580154	1.454237	0.809834	99
Es	0.459168	-0.823326	-0.550065	99
Es	0.399660	-1.411763	-0.192450	99
Es	2.079671	0.937244	-1.568448	99
Es	2.077842	0.771308	-1.059026	99
Es	-0.118026	-1.166478	0.126231	99
Es	-1.374172	-0.728578	0.133468	99
Es	1.428738	0.824319	-0.545115	99
Es	-0.000284	-0.042994	-1.461912	99
43
Properties=species:S:1:pos:R:3:Z:I:1 energy=-323.9637354834463 field_type=dipole dipole="0.000000 0.000000 0.000000" charge=0
C	-2.088337	-0.888400	-0.002485	6
C	-0.668307	-0.558470	0.306305	6
N	0.400143	-1.411990	-0.192125	7
C	0.257883	-0.064080	-0.779535	6
C	1.428763	0.824330	-0.545145	6
C	1.580183	1.454270	0.809865	6
O	2.206303	1.054290	-1.466485	8
H	-2.711597	0.003110	0.113905	1
H	-2.456937	-1.653090	0.687965	1
H	-2.216627	-1.260410	-1.023875	1
H	-0.548727	-0.202370	1.322175	1
H	0.062263	-2.112550	-0.854485	1
H	-0.122617	-0.033860	-1.795335	1
H	0.674883	2.010180	1.065045	1
H	2.421813	2.152910	0.793905	1
H	1.780913	0.686130	1.560305	1
Es	1.499153	1.132047	0.144584	99
Es	0.649916	-1.463286	-0.012590	99
Es	-1.373191	-0.727925	0.133927	99
Es	0.823581	0.385639	-0.640773	99
Es	1.701566	0.936320	1.297577	99
Es	-2.162956	-1.139798	-0.701213	99
Es	2.175716	1.038837	-1.451497	99
Es	-0.668143	-0.558567	0.306159	99
Es	1.787786	1.187026	-1.201009	99
Es	2.143586	1.922566	0.800532	99
Es	0.399661	-1.411774	-0.192453	99
Es	-2.333473	-1.408063	0.471569	99
Es	1.428740	0.824317	-0.545114	99
Es	2.063411	0.755117	-1.071411	99
Es	-0.580804	-0.314570	0.996161	99
Es	1.580153	1.454238	0.809835	99
Es	2.398200	1.113936	-1.691986	99
Es	-2.500334	-0.284740	0.076995	99
Es	0.964544	1.814488	0.971734	99
Es	-2.088309	-0.888393	-0.002482	99
Es	-0.116472	-1.163165	0.124239	99
Es	-0.001195	-0.044287	-1.460577	99
Es	-0.294243	-0.091305	-0.238335	99
Es	0.187745	-1.824444	-0.589391	99
Es	2.197213	1.056951	-1.438351	99
Es	0.257897	-0.064296	-0.779379	99
Es	0.459821	-0.822470	-0.546526	99
43
Properties=species:S:1:pos:R:3:Z:I:1 energy=-323.9637354834463 field_type=dipole dipole="0.000000 0.000000 0.000000" charge=0
C	-2.088337	-0.888400	-0.002485	6
C	-0.668307	-0.558470	0.306305	6
N	0.400143	-1.411990	-0.192125	7
C	0.257883	-0.064080	-0.779535	6
C	1.428763	0.824330	-0.545145	6
C	1.580183	1.454270	0.809865	6
O	2.206303	1.054290	-1.466485	8
H	-2.711597	0.003110	0.113905	1
H	-2.456937	-1.653090	0.687965	1
H	-2.216627	-1.260410	-1.023875	1
H	-0.548727	-0.202370	1.322175	1
H	0.062263	-2.112550	-0.854485	1
H	-0.122617	-0.033860	-1.795335	1
H	0.674883	2.010180	1.065045	1
H	2.421813	2.152910	0.793905	1
H	1.780913	0.686130	1.560305	1
Es	-0.119133	-1.165698	0.125915	99
Es	1.428745	0.824312	-0.545113	99
Es	-0.000809	-0.044400	-1.457920	99
Es	1.778629	1.174973	-1.215206	99
Es	2.271679	1.137736	-1.337856	99
Es	-2.500441	-0.284087	0.075314	99
Es	-0.294482	-0.089783	-0.237937	99
Es	-1.372878	-0.728315	0.133420	99
Es	2.053435	0.752550	-1.078830	99
Es	-0.580610	-0.315867	0.994290	99
Es	-2.088310	-0.888393	-0.002481	99
Es	1.702185	0.933937	1.296927	99
Es	0.465211	-0.823136	-0.550518	99
Es	-2.162632	-1.138263	-0.697780	99
Es	0.399650	-1.411772	-0.192462	99
Es	0.643303	-1.461172	-0.014940	99
Es	2.144695	1.922537	0.797866	99
Es	-2.334723	-1.410069	0.471447	99
Es	0.823627	0.385750	-0.641547	99
Es	0.257898	-0.064295	-0.779380	99
Es	1.580153	1.454237	0.809835	99
Es	2.205368	1.053718	-1.466251	99
Es	2.313667	1.033188	-1.755973	99
Es	0.962973	1.814942	0.971093	99
Es	-0.668138	-0.558566	0.306159	99
Es	1.498891	1.133692	0.147477	99
Es	0.191619	-1.823357	-0.585320	99
43
Properties=species:S:1:pos:R:3:Z:I:1 energy=-323.9637354834463 field_type=dipole dipole="0.000000 0.000000 0.000000" charge=0
C	-2.088337	-0.888400	-0.002485	6
C	-0.668307	-0.558470	0.306305	6
N	0.400143	-1.411990	-0.192125	7
C	0.257883	-0.064080	-0.779535	6
C	1.428763	0.824330	-0.545145	6
C	1.580183	1.454270	0.809865	6
O	2.206303	1.054290	-1.466485	8
H	-2.711597	0.003110	0.113905	1
H	-2.456937	-1.653090	0.687965	1
H	-2.216627	-1.260410	-1.023875	1
H	-0.548727	-0.202370	1.322175	1
H	0.062263	-2.112550	-0.854485	1
H	-0.122617	-0.033860	-1.795335	1
H	0.674883	2.010180	1.065045	1
H	2.421813	2.152910	0.793905	1
H	1.780913	0.686130	1.560305	1
Es	-0.668142	-0.558568	0.306158	99
Es	-2.088309	-0.888393	-0.002481	99
Es	1.787471	1.186247	-1.200740	99
Es	2.389775	1.105757	-1.701484	99
Es	0.257898	-0.064293	-0.779381	99
Es	-0.294440	-0.091343	-0.238330	99
Es	0.399634	-1.411772	-0.192469	99
Es	-0.000857	-0.044516	-1.460292	99
Es	1.499040	1.132186	0.144787	99
Es	0.823672	0.385526	-0.640821	99
Es	1.580151	1.454236	0.809835	99
Es	-2.333849	-1.408374	0.471729	99
Es	1.428746	0.824313	-0.545116	99
Es	2.062367	0.754425	-1.073191	99
Es	2.191984	1.048631	-1.453821	99
Es	2.190873	1.056758	-1.424976	99
Es	2.143872	1.922694	0.800375	99
Es	-1.373137	-0.728097	0.134041	99
Es	0.645539	-1.461947	-0.015104	99
Es	0.188845	-1.824739	-0.588577	99
Es	-2.500090	-0.284972	0.076702	99
Es	-2.162836	-1.139418	-0.700953	99
Es	1.701532	0.936242	1.297256	99
Es	0.964352	1.814357	0.971827	99
Es	-0.116376	-1.163736	0.126189	99
Es	0.462677	-0.822037	-0.546902	99
Es	-0.580821	-0.314768	0.995965	99
43
Properties=species:S:1:pos:R:3:Z:I:1 energy=-323.9637354834463 field_type=dipole dipole="0.000000 0.000000 0.000000" charge=0
C	-2.088337	-0.888400	-0.002485	6
C	-0.668307	-0.558470	0.306305	6
N	0.400143	-1.411990	-0.192125	7
C	0.257883	-0.064080	-0.779535	6
C	1.428763	0.824330	-0.545145	6
C	1.580183	1.454270	0.809865	6
O	2.206303	1.054290	-1.466485	8
H	-2.711597	0.003110	0.113905	1
H	-2.456937	-1.653090	0.687965	1
H	-2.216627	-1.260410	-1.023875	1
H	-0.548727	-0.202370	1.322175	1
H	0.062263	-2.112550	-0.854485	1
H	-0.122617	-0.033860	-1.795335	1
H	0.674883	2.010180	1.065045	1
H	2.421813	2.152910	0.793905	1
H	1.780913	0.686130	1.560305	1
Es	2.327623	1.046431	-1.749267	99
Es	-0.118690	-1.165727	0.127213	99
Es	-2.162593	-1.138372	-0.698337	99
Es	2.205625	1.053860	-1.466377	99
Es	1.498807	1.133398	0.147329	99
Es	0.962947	1.814801	0.971290	99
Es	-2.088310	-0.888394	-0.002481	99
Es	1.702094	0.934413	1.296749	99
Es	0.257901	-0.064296	-0.779382	99
Es	-2.334905	-1.409741	0.471818	99
Es	1.428739	0.824318	-0.545114	99
Es	-1.373019	-0.728356	0.133543	99
Es	-0.000692	-0.044652	-1.458045	99
Es	2.144780	1.922598	0.798077	99
Es	1.580153	1.454237	0.809835	99
Es	0.640148	-1.459618	-0.016932	99
Es	1.779909	1.176747	-1.212730	99
Es	-2.500007	-0.284458	0.075288	99
Es	0.399657	-1.411779	-0.192452	99
Es	0.466501	-0.822692	-0.550189	99
Es	-0.668141	-0.558573	0.306158	99
Es	-0.580666	-0.315851	0.994542	99
Es	2.255706	1.123197	-1.346453	99
Es	0.192601	-1.824406	-0.584985	99
Es	2.054005	0.751806	-1.079243	99
Es	0.823809	0.385745	-0.641685	99
Es	-0.294412	-0.090241	-0.237943	99
43
Properties=species:S:1:pos:R:3:Z:I:1 energy=-323.9637354834463 field_type=dipole dipole="0.000000 0.000000 0.000000" charge=0
C	-2.088337	-0.888400	-0.002485	6
C	-0.668307	-0.558470	0.306305	6
N	0.400143	-1.411990	-0.192125	7
C	0.257883	-0.064080	-0.779535	6
C	1.428763	0.824330	-0.545145	6
C	1.580183	1.454270	0.809865	6
O	2.206303	1.054290	-1.466485	8
H	-2.711597	0.003110	0.113905	1
H	-2.456937	-1.653090	0.687965	1
H	-2.216627	-1.260410	-1.023875	1
H	-0.548727	-0.202370	1.322175	1
H	0.062263	-2.112550	-0.854485	1
H	-0.122617	-0.033860	-1.795335	1
H	0.674883	2.010180	1.065045	1
H	2.421813	2.152910	0.793905	1
H	1.780913	0.686130	1.560305	1
Es	1.796174	1.190544	-1.192030	99
Es	0.399940	-1.411770	-0.192246	99
Es	0.963680	1.815916	0.972219	99
Es	-0.000167	-0.044119	-1.461531	99
Es	-0.295196	-0.090927	-0.237320	99
Es	-0.668143	-0.558565	0.306158	99
Es	-2.160804	-1.139662	-0.702202	99
Es	2.206194	1.054513	-1.465607	99
Es	-0.582391	-0.314833	0.997268	99
Es	0.823235	0.383969	-0.641035	99
Es	2.074088	0.766332	-1.062026	99
Es	1.428738	0.824319	-0.545114	99
Es	0.641352	-1.458195	-0.019681	99
Es	-2.499274	-0.283707	0.076843	99
Es	1.580153	1.454238	0.809836	99
Es	0.463249	-0.821636	-0.548911	99
Es	-1.374051	-0.728465	0.133674	99
Es	2.442027	1.164006	-1.628748	99
Es	-2.333167	-1.408367	0.472841	99
Es	2.103997	0.975858	-1.506176	99
Es	1.702874	0.935907	1.297734	99
Es	0.257897	-0.064295	-0.779381	99
Es	-2.088309	-0.888393	-0.002482	99
Es	2.142080	1.920940	0.800310	99
Es	0.192514	-1.825633	-0.586384	99
Es	1.499421	1.132601	0.144390	99
Es	-0.116541	-1.166177	0.129826	99
43
Properties=species:S:1:pos:R:3:Z:I:1 energy=-323.9637354834463 field_type=dipole dipole="0.000000 0.000000 0.000000" charge=0
C	-2.088337	-0.888400	-0.002485	6
C	-0.668307	-0.558470	0.306305	6
N	0.400143	-1.411990	-0.192125	7
C	0.257883	-0.064080	-0.779535	6
C	1.428763	0.824330	-0.545145	6
C	1.580183	1.454270	0.809865	6
O	2.206303	1.054290	-1.466485	8
H	-2.711597	0.003110	0.113905	1
H	-2.456937	-1.653090	0.687965	1
H	-2.216627	-1.260410	-1.023875	1
H	-0.548727	-0.202370	1.322175	1
H	0.062263	-2.112550	-0.854485	1
H	-0.122617	-0.033860	-1.795335	1
H	0.674883	2.010180	1.065045	1
H	2.421813	2.152910	0.793905	1
H	1.780913	0.686130	1.560305	1
Es	0.963859	1.815678	0.972341	99
Es	0.823373	0.384227	-0.641043	99
Es	-0.668141	-0.558568	0.306159	99
Es	-1.373895	-0.728578	0.133715	99
Es	2.204920	1.054244	-1.463946	99
Es	-0.000203	-0.044408	-1.461352	99
Es	-0.582188	-0.314833	0.997126	99
Es	1.796489	1.191373	-1.192106	99
Es	-0.116502	-1.165768	0.129891	99
Es	1.428741	0.824316	-0.545114	99
Es	2.112278	0.985173	-1.495477	99
Es	-2.499200	-0.283900	0.076800	99
Es	2.436261	1.155611	-1.639874	99
Es	0.640671	-1.458278	-0.019684	99
Es	1.580153	1.454237	0.809835	99
Es	2.142423	1.921173	0.800326	99
Es	-2.088302	-0.888393	-0.002483	99
Es	1.499194	1.132505	0.144340	99
Es	-2.161122	-1.139526	-0.702046	99
Es	-2.333428	-1.408383	0.472738	99
Es	2.072525	0.765054	-1.063118	99
Es	0.192335	-1.825603	-0.586517	99
Es	-0.295148	-0.091277	-0.237405	99
Es	0.257900	-0.064297	-0.779381	99
Es	0.399635	-1.411778	-0.192472	99
Es	1.702658	0.935990	1.297555	99
Es	0.464284	-0.821594	-0.548585	99
43
Properties=species:S:1:pos:R:3:Z:I:1 energy=-323.9637354834463 field_type=dipole dipole="0.000000 0.000000 0.000000" charge=0
C	-2.088337	-0.888400	-0.002485	6
C	-0.668307	-0.558470	0.306305	6
N	0.400143	-1.411990	-0.192125	7
C	0.257883	-0.064080	-0.779535	6
C	1.428763	0.824330	-0.545145	6
C	1.580183	1.454270	0.809865	6
O	2.206303	1.054290	-1.466485	8
H	-2.711597	0.003110	0.113905	1
H	-2.456937	-1.653090	0.687965	1
H	-2.216627	-1.260410	-1.023875	1
H	-0.548727	-0.202370	1.322175	1
H	0.062263	-2.112550	-0.854485	1
H	-0.122617	-0.033860	-1.795335	1
H	0.674883	2.010180	1.065045	1
H	2.421813	2.152910	0.793905	1
H	1.780913	0.686130	1.560305	1
Es	-0.117666	-1.165057	0.128385	99
Es	-2.334962	-1.409251	0.472072	99
Es	0.823901	0.385688	-0.641600	99
Es	1.498844	1.132845	0.146501	99
Es	1.580153	1.454238	0.809834	99
Es	0.963318	1.814383	0.971568	99
Es	0.638571	-1.459167	-0.018405	99
Es	0.399639	-1.411767	-0.192461	99
Es	0.191994	-1.825114	-0.585747	99
Es	2.352277	1.069996	-1.733971	99
Es	2.144553	1.922882	0.798894	99
Es	-0.000626	-0.044915	-1.458689	99
Es	-2.499623	-0.285015	0.075527	99
Es	0.257900	-0.064296	-0.779382	99
Es	2.055679	0.751216	-1.079740	99
Es	0.467325	-0.821927	-0.549211	99
Es	1.783030	1.181218	-1.206742	99
Es	1.701906	0.935188	1.296744	99
Es	-0.580746	-0.315605	0.995134	99
Es	-0.294339	-0.091250	-0.237849	99
Es	2.206137	1.054300	-1.466112	99
Es	-0.668140	-0.558567	0.306162	99
Es	-2.088311	-0.888393	-0.002482	99
Es	-2.162574	-1.138552	-0.699331	99
Es	1.428740	0.824318	-0.545115	99
Es	-1.373076	-0.728236	0.133787	99
Es	2.225665	1.095236	-1.367548	99
43
Properties=species:S:1:pos:R:3:Z:I:1 energy=-323.9637354834463 field_type=dipole dipole="0.000000 0.000000 0.000000" charge=0
C	-2.088337	-0.888400	-0.002485	6
C	-0.668307	-0.558470	0.306305	6
N	0.400143	-1.411990	-0.192125	7
C	0.257883	-0.064080	-0.779535	6
C	1.428763	0.824330	-0.545145	6
C	1.580183	1.454270	0.809865	6
O	2.206303	1.054290	-1.466485	8
H	-2.711597	0.003110	0.113905	1
H	-2.456937	-1.653090	0.687965	1
H	-2.216627	-1.260410	-1.023875	1
H	-0.548727	-0.202370	1.322175	1
H	0.062263	-2.112550	-0.854485	1
H	-0.122617	-0.033860	-1.795335	1
H	0.674883	2.010180	1.065045	1
H	2.421813	2.152910	0.793905	1
H	1.780913	0.686130	1.560305	1
Es	-0.581389	-0.314883	0.996533	99
Es	0.964028	1.814609	0.972222	99
Es	2.143497	1.922333	0.800312	99
Es	-0.668143	-0.558570	0.306156	99
Es	2.064718	0.757466	-1.070009	99
Es	0.257899	-0.064299	-0.779379	99
Es	1.580153	1.454237	0.809835	99
Es	-2.499352	-0.284899	0.076504	99
Es	1.499024	1.132137	0.144718	99
Es	2.406624	1.122202	-1.683353	99
Es	-2.334014	-1.408212	0.472466	99
Es	2.187720	1.047939	-1.448427	99
Es	0.399675	-1.411786	-0.192439	99
Es	1.789722	1.187149	-1.198611	99
Es	2.173718	1.036893	-1.453951	99
Es	1.428741	0.824316	-0.545114	99
Es	0.639134	-1.458590	-0.019771	99
Es	-2.088310	-0.888393	-0.002482	99
Es	-0.294528	-0.091865	-0.237818	99
Es	0.191460	-1.826067	-0.587314	99
Es	1.701969	0.936410	1.297084	99
Es	-0.000493	-0.044881	-1.460505	99
Es	0.823803	0.385026	-0.641149	99
Es	-0.115913	-1.165047	0.129746	99
Es	-1.373548	-0.728256	0.133967	99
Es	-2.162066	-1.139438	-0.701582	99
Es	0.465442	-0.821135	-0.547413	99
43
Properties=species:S:1:pos:R:3:Z:I:1 energy=-323.9637354834463 field_type=dipole dipole="0.000000 0.000000 0.000000" charge=0
C	-2.088337	-0.888400	-0.002485	6
C	-0.668307	-0.558470	0.306305	6
N	0.400143	-1.411990	-0.192125	7
C	0.257883	-0.064080	-0.779535	6
C	1.428763	0.824330	-0.545145	6
C	1.580183	1.454270	0.809865	6
O	2.206303	1.054290	-1.466485	8
H	-2.711597	0.003110	0.113905	1
H	-2.456937	-1.653090	0.687965	1
H	-2.216627	-1.260410	-1.023875	1
H	-0.548727	-0.202370	1.322175	1
H	0.062263	-2.112550	-0.854485	1
H	-0.122617	-0.033860	-1.795335	1
H	0.674883	2.010180	1.065045	1
H	2.421813	2.152910	0.793905	1
H	1.780913	0.686130	1.560305	1
Es	1.428740	0.824316	-0.545114	99
Es	1.783342	1.180796	-1.208151	99
Es	0.467979	-0.821598	-0.548870	99
Es	0.963286	1.814559	0.971811	99
Es	1.580153	1.454237	0.809835	99
Es	1.498889	1.132659	0.146315	99
Es	-0.294443	-0.091464	-0.237870	99
Es	-0.117113	-1.165502	0.129439	99
Es	0.636630	-1.458187	-0.019893	99
Es	0.192539	-1.825692	-0.585735	99
Es	-2.334976	-1.409065	0.472148	99
Es	2.203794	1.052817	-1.465737	99
Es	0.823989	0.385477	-0.641556	99
Es	-0.000523	-0.044957	-1.458868	99
Es	-2.088309	-0.888394	-0.002482	99
Es	1.701948	0.935480	1.296639	99
Es	2.218707	1.089218	-1.375377	99
Es	-2.162350	-1.138675	-0.699720	99
Es	0.257897	-0.064293	-0.779378	99
Es	-0.668141	-0.558571	0.306157	99
Es	2.055630	0.752309	-1.077426	99
Es	2.144498	1.922642	0.799039	99
Es	-1.373064	-0.728374	0.133899	99
Es	-0.580932	-0.315478	0.995477	99
Es	2.361209	1.076815	-1.727515	99
Es	-2.499469	-0.284924	0.075607	99
Es	0.399661	-1.411753	-0.192447	99
43
Properties=species:S:1:pos:R:3:Z:I:1 energy=-323.9637354834463 field_type=dipole dipole="0.000000 0.000000 0.000000" charge=0
C	-2.088337	-0.888400	-0.002485	6
C	-0.668307	-0.558470	0.306305	6
N	0.400143	-1.411990	-0.192125	7
C	0.257883	-0.064080	-0.779535	6
C	1.428763	0.824330	-0.545145	6
C	1.580183	1.454270	0.809865	6
O	2.206303	1.054290	-1.466485	8
H	-2.711597	0.003110	0.113905	1
H	-2.456937	-1.653090	0.687965	1
H	-2.216627	-1.260410	-1.023875	1
H	-0.548727	-0.202370	1.322175	1
H	0.062263	-2.112550	-0.854485	1
H	-0.122617	-0.033860	-1.795335	1
H	0.674883	2.010180	1.065045	1
H	2.421813	2.152910	0.793905	1
H	1.780913	0.686130	1.560305	1
Es	1.782715	1.181061	-1.205957	99
Es	2.361173	1.078039	-1.727393	99
Es	2.144465	1.922643	0.799022	99
Es	0.192756	-1.825693	-0.585619	99
Es	1.428740	0.824318	-0.545115	99
Es	1.498847	1.132716	0.146311	99
Es	2.205824	1.053987	-1.466426	99
Es	-2.335056	-1.409037	0.472345	99
Es	-0.000543	-0.045077	-1.458812	99
Es	-1.373111	-0.728461	0.133804	99
Es	-0.668145	-0.558568	0.306157	99
Es	-2.088307	-0.888391	-0.002481	99
Es	1.580153	1.454237	0.809835	99
Es	0.635815	-1.457890	-0.020476	99
Es	-0.580885	-0.315530	0.995421	99
Es	0.824009	0.385553	-0.641710	99
Es	0.963396	1.814602	0.971621	99
Es	0.257899	-0.064293	-0.779382	99
Es	-0.117173	-1.165495	0.129869	99
Es	0.468348	-0.821632	-0.548854	99
Es	2.215992	1.087040	-1.375140	99
Es	1.701870	0.935393	1.296844	99
Es	-2.162486	-1.138613	-0.699698	99
Es	0.399788	-1.411753	-0.192350	99
Es	2.057053	0.751758	-1.079253	99
Es	-0.294329	-0.091498	-0.237892	99
Es	-2.499241	-0.285019	0.075558	99
