42
Properties=species:S:1:pos:R:3:Z:I:1 energy=-339.9306462312177 field_type=dipole dipole="0.000000 0.000000 0.000000" charge=0
C	-2.288335	-0.128800	0.124957	6
C	-0.781785	-0.051510	0.013507	6
N	-0.264045	1.133520	0.040327	7
C	1.199595	1.182890	-0.117613	6
C	1.868615	-0.156620	0.157387	6
O	1.193595	-1.156090	-0.613503	8
N	-0.101165	-1.252330	-0.085903	7
H	-2.631065	-1.166520	0.149687	1
H	-2.738544	0.375360	-0.735153	1
H	-2.611105	0.374470	1.041027	1
H	1.411085	1.499050	-1.145693	1
H	1.608425	1.944580	0.554217	1
H	2.917085	-0.131240	-0.155173	1
H	1.839625	-0.421000	1.221817	1
H	-0.621985	-2.045760	-0.449893	1
Es	1.199475	1.182834	-0.117576	99
Es	-2.498213	0.202282	0.735838	99
Es	1.841641	-0.334874	0.885774	99
Es	-0.408147	-1.704339	-0.330493	99
Es	-0.781770	-0.051703	0.013519	99
Es	-0.101285	-1.252011	-0.086549	99
Es	-2.578229	0.202440	-0.452566	99
Es	2.579227	-0.142508	-0.061998	99
Es	1.868490	-0.156786	0.157240	99
Es	-1.528945	-0.121899	0.073412	99
Es	1.537492	0.508195	0.029347	99
Es	-0.394798	-0.738232	-0.146698	99
Es	-0.460424	1.439648	0.074208	99
Es	1.160689	-1.031064	-0.902790	99
Es	0.602074	-1.181147	-0.368614	99
Es	1.193481	-1.155939	-0.613167	99
Es	1.348421	1.389049	-0.818501	99
Es	-0.263760	1.133039	0.040277	99
Es	-2.514052	-0.843114	0.138455	99
Es	0.382599	1.121105	-0.024215	99
Es	1.324402	-1.433975	-0.555439	99
Es	-2.288269	-0.128831	0.124947	99
Es	-0.472855	0.667710	-0.256054	99
Es	-0.129392	-1.234278	0.255536	99
Es	1.485117	1.695547	0.345332	99
Es	-0.418354	0.635704	0.317539	99
Es	1.423312	-0.786574	-0.306028	99
42
Properties=species:S:1:pos:R:3:Z:I:1 energy=-339.9306462312177 field_type=dipole dipole="0.000000 0.000000 0.000000" charge=0
C	-2.288335	-0.128800	0.124957	6
C	-0.781785	-0.051510	0.013507	6
N	-0.264045	1.133520	0.040327	7
C	1.199595	1.182890	-0.117613	6
C	1.868615	-0.156620	0.157387	6
O	1.193595	-1.156090	-0.613503	8
N	-0.101165	-1.252330	-0.085903	7
H	-2.631065	-1.166520	0.149687	1
H	-2.738544	0.375360	-0.735153	1
H	-2.611105	0.374470	1.041027	1
H	1.411085	1.499050	-1.145693	1
H	1.608425	1.944580	0.554217	1
H	2.917085	-0.131240	-0.155173	1
H	1.839625	-0.421000	1.221817	1
H	-0.621985	-2.045760	-0.449893	1
Es	0.383473	1.124097	-0.024911	99
Es	-2.516511	-0.845946	0.138291	99
Es	-0.129034	-1.228455	0.238478	99
Es	-0.781773	-0.051706	0.013521	99
Es	-0.417191	0.635731	0.316272	99
Es	1.347639	1.387804	-0.816814	99
Es	0.601987	-1.183350	-0.367639	99
Es	-0.472680	0.667594	-0.256132	99
Es	-1.528684	-0.120451	0.073325	99
Es	1.199475	1.182835	-0.117577	99
Es	1.868493	-0.156783	0.157241	99
Es	-0.408755	-1.714317	-0.321353	99
Es	-2.576621	0.202628	-0.449633	99
Es	1.157101	-1.031990	-0.891436	99
Es	1.327245	-1.436471	-0.563779	99
Es	1.486158	1.697222	0.345175	99
Es	-2.288268	-0.128830	0.124947	99
Es	1.193459	-1.155876	-0.613244	99
Es	-0.461977	1.436816	0.075527	99
Es	1.537435	0.508102	0.028998	99
Es	-0.395984	-0.734433	-0.139608	99
Es	-2.497692	0.203116	0.733212	99
Es	2.579909	-0.142565	-0.061369	99
Es	1.424280	-0.781133	-0.308965	99
Es	-0.263762	1.133042	0.040269	99
Es	-0.101286	-1.252003	-0.086571	99
Es	1.841493	-0.334397	0.884511	99
42
Properties=species:S:1:pos:R:3:Z:I:1 energy=-339.9306462312177 field_type=dipole dipole="0.000000 0.000000 0.000000" charge=0
C	-2.288335	-0.128800	0.124957	6
C	-0.781785	-0.051510	0.013507	6
N	-0.264045	1.133520	0.040327	7
C	1.199595	1.182890	-0.117613	6
C	1.868615	-0.156620	0.157387	6
O	1.193595	-1.156090	-0.613503	8
N	-0.101165	-1.252330	-0.085903	7
H	-2.631065	-1.166520	0.149687	1
H	-2.738544	0.375360	-0.735153	1
H	-2.611105	0.374470	1.041027	1
H	1.411085	1.499050	-1.145693	1
H	1.608425	1.944580	0.554217	1
H	2.917085	-0.131240	-0.155173	1
H	1.839625	-0.421000	1.221817	1
H	-0.621985	-2.045760	-0.449893	1
Es	1.425025	-0.776630	-0.311622	99
Es	1.486864	1.698288	0.345049	99
Es	-2.288267	-0.128830	0.124947	99
Es	-1.528527	-0.119416	0.073275	99
Es	-2.576030	0.202724	-0.447777	99
Es	0.383896	1.126534	-0.024778	99
Es	-0.417209	0.635554	0.316769	99
Es	1.193472	-1.155929	-0.613195	99
Es	0.602046	-1.185630	-0.367174	99
Es	-0.781770	-0.051706	0.013525	99
Es	1.841465	-0.334082	0.883970	99
Es	1.199474	1.182837	-0.117577	99
Es	-2.497093	0.203164	0.731267	99
Es	1.328115	-1.436024	-0.567938	99
Es	-0.129538	-1.224795	0.228340	99
Es	-0.263765	1.133039	0.040273	99
Es	-0.101295	-1.251994	-0.086572	99
Es	-0.462777	1.434331	0.074600	99
Es	1.868498	-0.156784	0.157241	99
Es	1.155392	-1.034719	-0.884513	99
Es	-0.396333	-0.732842	-0.136188	99
Es	1.537487	0.508268	0.028576	99
Es	-2.517847	-0.847462	0.138485	99
Es	2.580070	-0.142558	-0.061041	99
Es	-0.471786	0.667676	-0.256279	99
Es	1.347095	1.386933	-0.815858	99
Es	-0.408732	-1.719667	-0.315069	99
42
Properties=species:S:1:pos:R:3:Z:I:1 energy=-339.9306462312177 field_type=dipole dipole="0.000000 0.000000 0.000000" charge=0
C	-2.288335	-0.128800	0.124957	6
C	-0.781785	-0.051510	0.013507	6
N	-0.264045	1.133520	0.040327	7
C	1.199595	1.182890	-0.117613	6
C	1.868615	-0.156620	0.157387	6
O	1.193595	-1.156090	-0.613503	8
N	-0.101165	-1.252330	-0.085903	7
H	-2.631065	-1.166520	0.149687	1
H	-2.738544	0.375360	-0.735153	1
H	-2.611105	0.374470	1.041027	1
H	1.411085	1.499050	-1.145693	1
H	1.608425	1.944580	0.554217	1
H	2.917085	-0.131240	-0.155173	1
H	1.839625	-0.421000	1.221817	1
H	-0.621985	-2.045760	-0.449893	1
Es	-2.288268	-0.128830	0.124946	99
Es	1.154096	-1.036006	-0.879481	99
Es	-0.408632	-1.722915	-0.310726	99
Es	0.384185	1.128999	-0.024936	99
Es	-0.471402	0.667661	-0.256722	99
Es	-1.528417	-0.118889	0.073471	99
Es	1.841547	-0.333794	0.883692	99
Es	1.328732	-1.435531	-0.571311	99
Es	1.199474	1.182835	-0.117578	99
Es	-2.518857	-0.848264	0.138533	99
Es	-0.396548	-0.731910	-0.133951	99
Es	-0.263757	1.133034	0.040268	99
Es	0.602323	-1.187558	-0.366449	99
Es	-0.781769	-0.051706	0.013525	99
Es	1.425267	-0.773991	-0.313468	99
Es	1.346633	1.386292	-0.815180	99
Es	1.868491	-0.156785	0.157239	99
Es	-0.101275	-1.252011	-0.086560	99
Es	1.537593	0.508211	0.028322	99
Es	-0.130150	-1.222493	0.221418	99
Es	-0.463162	1.431853	0.074141	99
Es	-2.575513	0.202921	-0.446628	99
Es	-2.496658	0.203000	0.729890	99
Es	-0.416871	0.635437	0.317504	99
Es	1.193508	-1.155950	-0.613194	99
Es	2.580088	-0.142480	-0.060939	99
Es	1.487273	1.699149	0.344910	99
42
Properties=species:S:1:pos:R:3:Z:I:1 energy=-339.9306462312177 field_type=dipole dipole="0.000000 0.000000 0.000000" charge=0
C	-2.288335	-0.128800	0.124957	6
C	-0.781785	-0.051510	0.013507	6
N	-0.264045	1.133520	0.040327	7
C	1.199595	1.182890	-0.117613	6
C	1.868615	-0.156620	0.157387	6
O	1.193595	-1.156090	-0.613503	8
N	-0.101165	-1.252330	-0.085903	7
H	-2.631065	-1.166520	0.149687	1
H	-2.738544	0.375360	-0.735153	1
H	-2.611105	0.374470	1.041027	1
H	1.411085	1.499050	-1.145693	1
H	1.608425	1.944580	0.554217	1
H	2.917085	-0.131240	-0.155173	1
H	1.839625	-0.421000	1.221817	1
H	-0.621985	-2.045760	-0.449893	1
Es	2.579942	-0.142515	-0.060802	99
Es	-0.417357	0.634403	0.317957	99
Es	-0.263736	1.133017	0.040251	99
Es	-0.781770	-0.051706	0.013524	99
Es	-0.101313	-1.251984	-0.086573	99
Es	1.199473	1.182836	-0.117576	99
Es	1.868488	-0.156791	0.157236	99
Es	1.841689	-0.333723	0.883503	99
Es	-2.496314	0.202819	0.728861	99
Es	0.602438	-1.189606	-0.365943	99
Es	-2.288268	-0.128830	0.124947	99
Es	1.346254	1.385593	-0.814496	99
Es	-0.130387	-1.221715	0.215063	99
Es	1.193477	-1.155913	-0.613217	99
Es	-0.396681	-0.730628	-0.130733	99
Es	1.425480	-0.771560	-0.315454	99
Es	0.384388	1.131334	-0.024723	99
Es	-2.575225	0.203047	-0.445965	99
Es	-0.463445	1.429583	0.073553	99
Es	-1.528408	-0.118530	0.073623	99
Es	1.487771	1.699923	0.344706	99
Es	1.328773	-1.433696	-0.572469	99
Es	-2.519399	-0.848828	0.138703	99
Es	-0.470565	0.668706	-0.257161	99
Es	1.537546	0.508355	0.028102	99
Es	-0.408479	-1.725119	-0.307486	99
Es	1.153557	-1.038192	-0.876694	99
42
Properties=species:S:1:pos:R:3:Z:I:1 energy=-339.9306462312177 field_type=dipole dipole="0.000000 0.000000 0.000000" charge=0
C	-2.288335	-0.128800	0.124957	6
C	-0.781785	-0.051510	0.013507	6
N	-0.264045	1.133520	0.040327	7
C	1.199595	1.182890	-0.117613	6
C	1.868615	-0.156620	0.157387	6
O	1.193595	-1.156090	-0.613503	8
N	-0.101165	-1.252330	-0.085903	7
H	-2.631065	-1.166520	0.149687	1
H	-2.738544	0.375360	-0.735153	1
H	-2.611105	0.374470	1.041027	1
H	1.411085	1.499050	-1.145693	1
H	1.608425	1.944580	0.554217	1
H	2.917085	-0.131240	-0.155173	1
H	1.839625	-0.421000	1.221817	1
H	-0.621985	-2.045760	-0.449893	1
Es	-2.288267	-0.128831	0.124948	99
Es	1.193491	-1.155925	-0.613264	99
Es	0.602520	-1.190358	-0.365724	99
Es	-0.470680	0.668697	-0.257718	99
Es	1.345945	1.385188	-0.813987	99
Es	-2.496259	0.202681	0.727795	99
Es	1.329144	-1.433063	-0.572514	99
Es	-0.101179	-1.252106	-0.086432	99
Es	-1.528264	-0.118120	0.074002	99
Es	-0.416796	0.634311	0.318223	99
Es	1.537766	0.508439	0.027787	99
Es	2.579791	-0.142610	-0.060664	99
Es	1.487973	1.700494	0.344520	99
Es	1.199475	1.182836	-0.117577	99
Es	0.384425	1.133546	-0.024992	99
Es	-0.781770	-0.051706	0.013518	99
Es	-0.263764	1.133021	0.040261	99
Es	-0.408343	-1.726385	-0.305563	99
Es	1.425177	-0.769030	-0.318072	99
Es	-0.130959	-1.220529	0.212334	99
Es	1.153287	-1.040518	-0.873980	99
Es	1.868491	-0.156785	0.157238	99
Es	-2.574755	0.203022	-0.445310	99
Es	-2.519986	-0.849244	0.138724	99
Es	-0.463564	1.427396	0.073891	99
Es	-0.396687	-0.730559	-0.130165	99
Es	1.841718	-0.333582	0.883458	99
42
Properties=species:S:1:pos:R:3:Z:I:1 energy=-339.9306462312177 field_type=dipole dipole="0.000000 0.000000 0.000000" charge=0
C	-2.288335	-0.128800	0.124957	6
C	-0.781785	-0.051510	0.013507	6
N	-0.264045	1.133520	0.040327	7
C	1.199595	1.182890	-0.117613	6
C	1.868615	-0.156620	0.157387	6
O	1.193595	-1.156090	-0.613503	8
N	-0.101165	-1.252330	-0.085903	7
H	-2.631065	-1.166520	0.149687	1
H	-2.738544	0.375360	-0.735153	1
H	-2.611105	0.374470	1.041027	1
H	1.411085	1.499050	-1.145693	1
H	1.608425	1.944580	0.554217	1
H	2.917085	-0.131240	-0.155173	1
H	1.839625	-0.421000	1.221817	1
H	-0.621985	-2.045760	-0.449893	1
Es	-0.470726	0.668698	-0.258363	99
Es	-0.130971	-1.219847	0.208709	99
Es	1.488282	1.701021	0.344304	99
Es	-2.288269	-0.128831	0.124949	99
Es	1.153022	-1.041419	-0.871936	99
Es	1.868492	-0.156784	0.157237	99
Es	-0.463391	1.425895	0.073933	99
Es	1.841745	-0.333498	0.883362	99
Es	-0.781769	-0.051705	0.013528	99
Es	-1.528281	-0.117857	0.074020	99
Es	2.579683	-0.142703	-0.060531	99
Es	1.328900	-1.431324	-0.573915	99
Es	1.345711	1.384682	-0.813552	99
Es	-0.416652	0.634373	0.318568	99
Es	0.384394	1.135037	-0.024990	99
Es	-2.520402	-0.849569	0.138843	99
Es	1.537765	0.508539	0.027648	99
Es	1.425499	-0.768026	-0.319016	99
Es	-2.495866	0.202413	0.727063	99
Es	1.193456	-1.155847	-0.613255	99
Es	-0.101363	-1.251926	-0.086639	99
Es	-2.574662	0.203201	-0.444740	99
Es	-0.396835	-0.729907	-0.128827	99
Es	-0.408011	-1.727908	-0.302891	99
Es	1.199474	1.182835	-0.117578	99
Es	-0.263752	1.133025	0.040267	99
Es	0.602455	-1.192287	-0.365463	99
42
Properties=species:S:1:pos:R:3:Z:I:1 energy=-339.9306462312177 field_type=dipole dipole="0.000000 0.000000 0.000000" charge=0
C	-2.288335	-0.128800	0.124957	6
C	-0.781785	-0.051510	0.013507	6
N	-0.264045	1.133520	0.040327	7
C	1.199595	1.182890	-0.117613	6
C	1.868615	-0.156620	0.157387	6
O	1.193595	-1.156090	-0.613503	8
N	-0.101165	-1.252330	-0.085903	7
H	-2.631065	-1.166520	0.149687	1
H	-2.738544	0.375360	-0.735153	1
H	-2.611105	0.374470	1.041027	1
H	1.411085	1.499050	-1.145693	1
H	1.608425	1.944580	0.554217	1
H	2.917085	-0.131240	-0.155173	1
H	1.839625	-0.421000	1.221817	1
H	-0.621985	-2.045760	-0.449893	1
Es	-2.574645	0.203378	-0.444225	99
Es	1.345414	1.384278	-0.813119	99
Es	1.329404	-1.431553	-0.575434	99
Es	-0.101360	-1.251932	-0.086668	99
Es	1.868491	-0.156785	0.157238	99
Es	-2.520768	-0.849776	0.138921	99
Es	1.193439	-1.155853	-0.613208	99
Es	1.152190	-1.041580	-0.869734	99
Es	1.537824	0.508654	0.027516	99
Es	1.488517	1.701527	0.344077	99
Es	-2.495492	0.202125	0.726512	99
Es	0.384579	1.136846	-0.024769	99
Es	-0.417452	0.631891	0.318264	99
Es	-1.528174	-0.117623	0.073882	99
Es	1.199472	1.182836	-0.117579	99
Es	-0.408071	-1.728306	-0.302418	99
Es	-0.470038	0.671359	-0.258930	99
Es	0.602962	-1.192876	-0.364939	99
Es	-0.396836	-0.729501	-0.127016	99
Es	1.425185	-0.766902	-0.320150	99
Es	2.579502	-0.142746	-0.060452	99
Es	-2.288269	-0.128831	0.124946	99
Es	-0.781769	-0.051706	0.013526	99
Es	1.841898	-0.333456	0.883255	99
Es	-0.463186	1.423836	0.074460	99
Es	-0.263759	1.133062	0.040271	99
Es	-0.131129	-1.220083	0.206509	99
42
Properties=species:S:1:pos:R:3:Z:I:1 energy=-339.9306462312177 field_type=dipole dipole="0.000000 0.000000 0.000000" charge=0
C	-2.288335	-0.128800	0.124957	6
C	-0.781785	-0.051510	0.013507	6
N	-0.264045	1.133520	0.040327	7
C	1.199595	1.182890	-0.117613	6
C	1.868615	-0.156620	0.157387	6
O	1.193595	-1.156090	-0.613503	8
N	-0.101165	-1.252330	-0.085903	7
H	-2.631065	-1.166520	0.149687	1
H	-2.738544	0.375360	-0.735153	1
H	-2.611105	0.374470	1.041027	1
H	1.411085	1.499050	-1.145693	1
H	1.608425	1.944580	0.554217	1
H	2.917085	-0.131240	-0.155173	1
H	1.839625	-0.421000	1.221817	1
H	-0.621985	-2.045760	-0.449893	1
Es	0.602946	-1.194345	-0.364954	99
Es	-1.528263	-0.117544	0.073826	99
Es	1.537922	0.508792	0.027422	99
Es	1.329580	-1.431017	-0.578074	99
Es	-0.417100	0.633338	0.319051	99
Es	-2.520951	-0.849948	0.139156	99
Es	-0.263752	1.133019	0.040266	99
Es	1.151748	-1.040738	-0.866945	99
Es	1.425260	-0.766765	-0.320103	99
Es	-2.495210	0.202084	0.726129	99
Es	1.868491	-0.156780	0.157241	99
Es	-0.463212	1.422477	0.073591	99
Es	2.579357	-0.142833	-0.060379	99
Es	1.193501	-1.155918	-0.613267	99
Es	-0.101227	-1.252055	-0.086470	99
Es	1.841985	-0.333395	0.883180	99
Es	-0.396845	-0.729516	-0.127058	99
Es	-0.470098	0.669838	-0.259201	99
Es	-0.407803	-1.729550	-0.300070	99
Es	-2.288268	-0.128831	0.124948	99
Es	-0.781769	-0.051709	0.013526	99
Es	-0.131652	-1.218728	0.204008	99
Es	1.488624	1.701785	0.343969	99
Es	0.384471	1.138297	-0.024513	99
Es	1.345299	1.384060	-0.812901	99
Es	1.199475	1.182836	-0.117578	99
Es	-2.574582	0.203424	-0.444061	99
42
Properties=species:S:1:pos:R:3:Z:I:1 energy=-339.9306462312177 field_type=dipole dipole="0.000000 0.000000 0.000000" charge=0
C	-2.288335	-0.128800	0.124957	6
C	-0.781785	-0.051510	0.013507	6
N	-0.264045	1.133520	0.040327	7
C	1.199595	1.182890	-0.117613	6
C	1.868615	-0.156620	0.157387	6
O	1.193595	-1.156090	-0.613503	8
N	-0.101165	-1.252330	-0.085903	7
H	-2.631065	-1.166520	0.149687	1
H	-2.738544	0.375360	-0.735153	1
H	-2.611105	0.374470	1.041027	1
H	1.411085	1.499050	-1.145693	1
H	1.608425	1.944580	0.554217	1
H	2.917085	-0.131240	-0.155173	1
H	1.839625	-0.421000	1.221817	1
H	-0.621985	-2.045760	-0.449893	1
Es	-2.521099	-0.850130	0.139098	99
Es	1.345101	1.383886	-0.812685	99
Es	-0.131824	-1.218602	0.202143	99
Es	1.842001	-0.333396	0.883136	99
Es	1.199474	1.182835	-0.117584	99
Es	-0.101337	-1.251951	-0.086633	99
Es	-0.781774	-0.051704	0.013520	99
Es	1.193465	-1.155898	-0.613182	99
Es	-2.495218	0.201776	0.725543	99
Es	-0.263752	1.133044	0.040264	99
Es	1.424781	-0.764882	-0.322172	99
Es	1.537881	0.508869	0.027259	99
Es	-0.416773	0.634268	0.319505	99
Es	-1.528319	-0.117430	0.074292	99
Es	-0.407678	-1.730087	-0.299083	99
Es	1.488787	1.702023	0.343925	99
Es	-0.470424	0.668990	-0.259322	99
Es	0.384509	1.139133	-0.024596	99
Es	1.151746	-1.042764	-0.866201	99
Es	-0.396812	-0.729035	-0.126208	99
Es	-2.574357	0.203642	-0.443993	99
Es	1.329686	-1.429769	-0.577161	99
Es	0.603370	-1.195556	-0.364363	99
Es	-2.288267	-0.128830	0.124948	99
Es	2.579317	-0.142854	-0.060315	99
Es	1.868490	-0.156786	0.157237	99
Es	-0.463044	1.421488	0.073365	99
42
Properties=species:S:1:pos:R:3:Z:I:1 energy=-339.9306462312177 field_type=dipole dipole="0.000000 0.000000 0.000000" charge=0
C	-2.288335	-0.128800	0.124957	6
C	-0.781785	-0.051510	0.013507	6
N	-0.264045	1.133520	0.040327	7
C	1.199595	1.182890	-0.117613	6
C	1.868615	-0.156620	0.157387	6
O	1.193595	-1.156090	-0.613503	8
N	-0.101165	-1.252330	-0.085903	7
H	-2.631065	-1.166520	0.149687	1
H	-2.738544	0.375360	-0.735153	1
H	-2.611105	0.374470	1.041027	1
H	1.411085	1.499050	-1.145693	1
H	1.608425	1.944580	0.554217	1
H	2.917085	-0.131240	-0.155173	1
H	1.839625	-0.421000	1.221817	1
H	-0.621985	-2.045760	-0.449893	1
Es	-0.263752	1.133014	0.040266	99
Es	-0.463309	1.419690	0.073252	99
Es	-2.288268	-0.128830	0.124948	99
Es	1.488942	1.702476	0.343642	99
Es	-0.781770	-0.051707	0.013520	99
Es	-0.101316	-1.251971	-0.086597	99
Es	-0.396947	-0.728860	-0.125336	99
Es	-0.416699	0.633728	0.319418	99
Es	2.579044	-0.142950	-0.060213	99
Es	0.603005	-1.194980	-0.364779	99
Es	-0.131869	-1.218628	0.200795	99
Es	-2.574397	0.203520	-0.443603	99
Es	1.868491	-0.156785	0.157236	99
Es	-2.521235	-0.850284	0.139295	99
Es	1.424745	-0.763910	-0.323657	99
Es	1.537930	0.509010	0.027252	99
Es	0.384455	1.141241	-0.024507	99
Es	1.152381	-1.044854	-0.866480	99
Es	1.193488	-1.155989	-0.613051	99
Es	-0.469973	0.669293	-0.259402	99
Es	1.329272	-1.429014	-0.575183	99
Es	-1.528365	-0.117237	0.073925	99
Es	-2.494935	0.201822	0.725326	99
Es	1.199475	1.182837	-0.117576	99
Es	1.842187	-0.333400	0.883056	99
Es	1.344921	1.383477	-0.812304	99
Es	-0.407572	-1.730428	-0.298509	99
42
Properties=species:S:1:pos:R:3:Z:I:1 energy=-339.9306462312177 field_type=dipole dipole="0.000000 0.000000 0.000000" charge=0
C	-2.288335	-0.128800	0.124957	6
C	-0.781785	-0.051510	0.013507	6
N	-0.264045	1.133520	0.040327	7
C	1.199595	1.182890	-0.117613	6
C	1.868615	-0.156620	0.157387	6
O	1.193595	-1.156090	-0.613503	8
N	-0.101165	-1.252330	-0.085903	7
H	-2.631065	-1.166520	0.149687	1
H	-2.738544	0.375360	-0.735153	1
H	-2.611105	0.374470	1.041027	1
H	1.411085	1.499050	-1.145693	1
H	1.608425	1.944580	0.554217	1
H	2.917085	-0.131240	-0.155173	1
H	1.839625	-0.421000	1.221817	1
H	-0.621985	-2.045760	-0.449893	1
Es	-0.407530	-1.730735	-0.297895	99
Es	1.151979	-1.044833	-0.864644	99
Es	1.868491	-0.156786	0.157236	99
Es	-0.396869	-0.729076	-0.125679	99
Es	1.489026	1.702757	0.343473	99
Es	-2.494973	0.201596	0.724854	99
Es	-0.131954	-1.218205	0.200650	99
Es	-2.521382	-0.850370	0.139250	99
Es	-1.528165	-0.116942	0.074170	99
Es	2.579015	-0.143038	-0.060124	99
Es	-0.263751	1.133033	0.040265	99
Es	1.538095	0.508971	0.027014	99
Es	-2.288268	-0.128830	0.124948	99
Es	-0.416593	0.633548	0.319383	99
Es	-0.469994	0.669486	-0.259727	99
Es	1.193482	-1.155911	-0.613257	99
Es	1.329485	-1.428319	-0.576397	99
Es	1.199472	1.182836	-0.117577	99
Es	-2.574317	0.203519	-0.443314	99
Es	1.842125	-0.333275	0.883035	99
Es	0.603305	-1.196495	-0.364681	99
Es	-0.101326	-1.251958	-0.086585	99
Es	-0.781770	-0.051707	0.013525	99
Es	1.424459	-0.763214	-0.324172	99
Es	0.384401	1.141831	-0.024447	99
Es	-0.463228	1.419091	0.073452	99
Es	1.344714	1.383307	-0.812019	99
42
Properties=species:S:1:pos:R:3:Z:I:1 energy=-339.9306462312177 field_type=dipole dipole="0.000000 0.000000 0.000000" charge=0
C	-2.288335	-0.128800	0.124957	6
C	-0.781785	-0.051510	0.013507	6
N	-0.264045	1.133520	0.040327	7
C	1.199595	1.182890	-0.117613	6
C	1.868615	-0.156620	0.157387	6
O	1.193595	-1.156090	-0.613503	8
N	-0.101165	-1.252330	-0.085903	7
H	-2.631065	-1.166520	0.149687	1
H	-2.738544	0.375360	-0.735153	1
H	-2.611105	0.374470	1.041027	1
H	1.411085	1.499050	-1.145693	1
H	1.608425	1.944580	0.554217	1
H	2.917085	-0.131240	-0.155173	1
H	1.839625	-0.421000	1.221817	1
H	-0.621985	-2.045760	-0.449893	1
Es	1.329584	-1.428668	-0.579508	99
Es	-0.781770	-0.051706	0.013525	99
Es	-0.469865	0.669254	-0.259756	99
Es	-0.416719	0.633827	0.319940	99
Es	0.384253	1.143372	-0.024394	99
Es	-1.528325	-0.117099	0.073991	99
Es	1.199473	1.182837	-0.117576	99
Es	1.538073	0.509046	0.026993	99
Es	-0.101482	-1.251815	-0.086619	99
Es	-2.288266	-0.128831	0.124946	99
Es	1.842308	-0.333350	0.883025	99
Es	-2.574192	0.203609	-0.443325	99
Es	-2.494753	0.201675	0.724880	99
Es	-0.463042	1.417565	0.072849	99
Es	1.193417	-1.155815	-0.613206	99
Es	1.424760	-0.763334	-0.323910	99
Es	-0.263746	1.133009	0.040264	99
Es	-0.407304	-1.731502	-0.296320	99
Es	-2.521509	-0.850419	0.139301	99
Es	-0.132190	-1.217401	0.199268	99
Es	0.603568	-1.197352	-0.364308	99
Es	2.578825	-0.143042	-0.060152	99
Es	1.151404	-1.043709	-0.861970	99
Es	1.344702	1.383255	-0.811838	99
Es	1.489087	1.702821	0.343455	99
Es	-0.396852	-0.729161	-0.126051	99
Es	1.868490	-0.156786	0.157236	99
42
Properties=species:S:1:pos:R:3:Z:I:1 energy=-339.9306462312177 field_type=dipole dipole="0.000000 0.000000 0.000000" charge=0
C	-2.288335	-0.128800	0.124957	6
C	-0.781785	-0.051510	0.013507	6
N	-0.264045	1.133520	0.040327	7
C	1.199595	1.182890	-0.117613	6
C	1.868615	-0.156620	0.157387	6
O	1.193595	-1.156090	-0.613503	8
N	-0.101165	-1.252330	-0.085903	7
H	-2.631065	-1.166520	0.149687	1
H	-2.738544	0.375360	-0.735153	1
H	-2.611105	0.374470	1.041027	1
H	1.411085	1.499050	-1.145693	1
H	1.608425	1.944580	0.554217	1
H	2.917085	-0.131240	-0.155173	1
H	1.839625	-0.421000	1.221817	1
H	-0.621985	-2.045760	-0.449893	1
Es	-0.416621	0.633141	0.319577	99
Es	-0.463080	1.416958	0.073347	99
Es	-0.407312	-1.731530	-0.296358	99
Es	-0.101399	-1.251892	-0.086636	99
Es	-0.781769	-0.051709	0.013523	99
Es	1.151697	-1.044967	-0.862872	99
Es	1.868489	-0.156786	0.157235	99
Es	1.538026	0.508949	0.026877	99
Es	1.842310	-0.333275	0.882995	99
Es	-2.574300	0.203737	-0.443079	99
Es	1.193487	-1.155986	-0.613056	99
Es	1.424384	-0.762631	-0.324832	99
Es	-1.528141	-0.116671	0.074325	99
Es	0.603463	-1.197411	-0.364628	99
Es	-2.521470	-0.850555	0.139252	99
Es	1.344426	1.382914	-0.811490	99
Es	-0.469771	0.669865	-0.260044	99
Es	-2.288269	-0.128830	0.124947	99
Es	1.199474	1.182835	-0.117577	99
Es	-2.494787	0.201225	0.724359	99
Es	-0.263747	1.133020	0.040267	99
Es	2.578801	-0.143006	-0.060130	99
Es	-0.396922	-0.728864	-0.124441	99
Es	0.384244	1.144101	-0.024326	99
Es	1.329514	-1.427607	-0.577774	99
Es	1.489308	1.703217	0.343196	99
Es	-0.132104	-1.217963	0.198081	99
42
Properties=species:S:1:pos:R:3:Z:I:1 energy=-339.9306462312177 field_type=dipole dipole="0.000000 0.000000 0.000000" charge=0
C	-2.288335	-0.128800	0.124957	6
C	-0.781785	-0.051510	0.013507	6
N	-0.264045	1.133520	0.040327	7
C	1.199595	1.182890	-0.117613	6
C	1.868615	-0.156620	0.157387	6
O	1.193595	-1.156090	-0.613503	8
N	-0.101165	-1.252330	-0.085903	7
H	-2.631065	-1.166520	0.149687	1
H	-2.738544	0.375360	-0.735153	1
H	-2.611105	0.374470	1.041027	1
H	1.411085	1.499050	-1.145693	1
H	1.608425	1.944580	0.554217	1
H	2.917085	-0.131240	-0.155173	1
H	1.839625	-0.421000	1.221817	1
H	-0.621985	-2.045760	-0.449893	1
Es	-1.528185	-0.116733	0.074276	99
Es	-2.494667	0.201227	0.724209	99
Es	1.538165	0.509157	0.026734	99
Es	-0.416835	0.632263	0.319422	99
Es	0.604037	-1.198282	-0.363583	99
Es	1.489293	1.703247	0.343252	99
Es	1.329672	-1.428265	-0.580748	99
Es	-0.132564	-1.217384	0.197801	99
Es	2.578654	-0.143183	-0.059950	99
Es	1.868491	-0.156786	0.157235	99
Es	-0.469353	0.670672	-0.260108	99
Es	-0.396843	-0.728767	-0.124998	99
Es	1.344439	1.382892	-0.811517	99
Es	-0.463037	1.415813	0.073364	99
Es	-0.101196	-1.252086	-0.086489	99
Es	-0.781769	-0.051708	0.013524	99
Es	1.193559	-1.156004	-0.613483	99
Es	1.842275	-0.333228	0.882993	99
Es	-2.574198	0.203743	-0.442941	99
Es	-2.521667	-0.850571	0.139288	99
Es	1.150554	-1.043656	-0.859925	99
Es	-0.263746	1.133039	0.040285	99
Es	0.384158	1.145235	-0.024166	99
Es	1.199475	1.182836	-0.117577	99
Es	1.424759	-0.762658	-0.325056	99
Es	-2.288267	-0.128831	0.124947	99
Es	-0.407274	-1.731702	-0.296054	99
42
Properties=species:S:1:pos:R:3:Z:I:1 energy=-339.9306462312177 field_type=dipole dipole="0.000000 0.000000 0.000000" charge=0
C	-2.288335	-0.128800	0.124957	6
C	-0.781785	-0.051510	0.013507	6
N	-0.264045	1.133520	0.040327	7
C	1.199595	1.182890	-0.117613	6
C	1.868615	-0.156620	0.157387	6
O	1.193595	-1.156090	-0.613503	8
N	-0.101165	-1.252330	-0.085903	7
H	-2.631065	-1.166520	0.149687	1
H	-2.738544	0.375360	-0.735153	1
H	-2.611105	0.374470	1.041027	1
H	1.411085	1.499050	-1.145693	1
H	1.608425	1.944580	0.554217	1
H	2.917085	-0.131240	-0.155173	1
H	1.839625	-0.421000	1.221817	1
H	-0.621985	-2.045760	-0.449893	1
Es	-0.396891	-0.727975	-0.123113	99
Es	-1.528206	-0.116772	0.074403	99
Es	1.489308	1.703395	0.343194	99
Es	1.868490	-0.156785	0.157237	99
Es	-0.416329	0.634241	0.320246	99
Es	-2.494566	0.201022	0.723884	99
Es	-2.574174	0.203899	-0.442906	99
Es	1.842438	-0.333289	0.883059	99
Es	1.538248	0.509216	0.026585	99
Es	-0.101285	-1.252001	-0.086588	99
Es	1.199474	1.182836	-0.117578	99
Es	1.150952	-1.043931	-0.860828	99
Es	0.384079	1.146051	-0.024406	99
Es	1.424695	-0.762782	-0.324657	99
Es	-0.462963	1.415038	0.072508	99
Es	-0.469747	0.668669	-0.259866	99
Es	-0.263767	1.133026	0.040269	99
Es	-0.407107	-1.732171	-0.295035	99
Es	-0.781769	-0.051708	0.013526	99
Es	1.193471	-1.155896	-0.613215	99
Es	1.344331	1.382841	-0.811286	99
Es	0.603873	-1.199009	-0.363940	99
Es	1.329443	-1.427177	-0.580305	99
Es	-0.132449	-1.217789	0.195237	99
Es	-2.521790	-0.850596	0.139348	99
Es	2.578437	-0.143241	-0.059984	99
Es	-2.288268	-0.128831	0.124948	99
42
Properties=species:S:1:pos:R:3:Z:I:1 energy=-339.9306462312177 field_type=dipole dipole="0.000000 0.000000 0.000000" charge=0
C	-2.288335	-0.128800	0.124957	6
C	-0.781785	-0.051510	0.013507	6
N	-0.264045	1.133520	0.040327	7
C	1.199595	1.182890	-0.117613	6
C	1.868615	-0.156620	0.157387	6
O	1.193595	-1.156090	-0.613503	8
N	-0.101165	-1.252330	-0.085903	7
H	-2.631065	-1.166520	0.149687	1
H	-2.738544	0.375360	-0.735153	1
H	-2.611105	0.374470	1.041027	1
H	1.411085	1.499050	-1.145693	1
H	1.608425	1.944580	0.554217	1
H	2.917085	-0.131240	-0.155173	1
H	1.839625	-0.421000	1.221817	1
H	-0.621985	-2.045760	-0.449893	1
Es	-0.781770	-0.051707	0.013526	99
Es	-0.416243	0.634328	0.320579	99
Es	1.868491	-0.156786	0.157237	99
Es	-0.462849	1.414028	0.072245	99
Es	1.489438	1.703545	0.343063	99
Es	-0.132551	-1.218039	0.193773	99
Es	1.193481	-1.155954	-0.613105	99
Es	-2.574144	0.203959	-0.442971	99
Es	1.538219	0.509220	0.026560	99
Es	1.151282	-1.045148	-0.861006	99
Es	-0.396882	-0.727783	-0.121986	99
Es	1.842446	-0.333226	0.882994	99
Es	-2.494478	0.201005	0.723800	99
Es	2.578389	-0.143325	-0.059927	99
Es	0.603923	-1.198775	-0.363879	99
Es	-0.407158	-1.732281	-0.294836	99
Es	-2.288267	-0.128831	0.124948	99
Es	-2.521809	-0.850638	0.139434	99
Es	-1.528224	-0.116773	0.074483	99
Es	0.383836	1.147260	-0.024363	99
Es	-0.469652	0.668523	-0.260089	99
Es	-0.263752	1.133011	0.040265	99
Es	1.329457	-1.426873	-0.579061	99
Es	1.424339	-0.762010	-0.325630	99
Es	1.344291	1.382643	-0.811131	99
Es	1.199475	1.182837	-0.117576	99
Es	-0.101358	-1.251932	-0.086609	99
42
Properties=species:S:1:pos:R:3:Z:I:1 energy=-339.9306462312177 field_type=dipole dipole="0.000000 0.000000 0.000000" charge=0
C	-2.288335	-0.128800	0.124957	6
C	-0.781785	-0.051510	0.013507	6
N	-0.264045	1.133520	0.040327	7
C	1.199595	1.182890	-0.117613	6
C	1.868615	-0.156620	0.157387	6
O	1.193595	-1.156090	-0.613503	8
N	-0.101165	-1.252330	-0.085903	7
H	-2.631065	-1.166520	0.149687	1
H	-2.738544	0.375360	-0.735153	1
H	-2.611105	0.374470	1.041027	1
H	1.411085	1.499050	-1.145693	1
H	1.608425	1.944580	0.554217	1
H	2.917085	-0.131240	-0.155173	1
H	1.839625	-0.421000	1.221817	1
H	-0.621985	-2.045760	-0.449893	1
Es	1.151109	-1.045356	-0.859440	99
Es	1.538216	0.509228	0.026510	99
Es	1.424279	-0.761516	-0.326245	99
Es	-2.521810	-0.850754	0.139364	99
Es	-0.101599	-1.251701	-0.086579	99
Es	-0.781770	-0.051706	0.013522	99
Es	1.868488	-0.156787	0.157236	99
Es	2.578314	-0.143288	-0.059920	99
Es	-2.494600	0.201095	0.723645	99
Es	1.193474	-1.155896	-0.613230	99
Es	-0.263760	1.133009	0.040267	99
Es	-2.288267	-0.128830	0.124947	99
Es	1.489477	1.703689	0.343007	99
Es	-0.416417	0.633370	0.320039	99
Es	-1.528176	-0.116530	0.074489	99
Es	1.842539	-0.333196	0.882917	99
Es	-0.396973	-0.728265	-0.123483	99
Es	1.329428	-1.426435	-0.579857	99
Es	-0.406964	-1.732404	-0.294648	99
Es	1.344212	1.382553	-0.810951	99
Es	-0.469817	0.669696	-0.260274	99
Es	0.604033	-1.199620	-0.363872	99
Es	1.199474	1.182836	-0.117577	99
Es	-2.573997	0.203739	-0.442722	99
Es	0.384006	1.147229	-0.024521	99
Es	-0.132301	-1.217736	0.195086	99
Es	-0.462668	1.413858	0.073026	99
42
Properties=species:S:1:pos:R:3:Z:I:1 energy=-339.9306462312177 field_type=dipole dipole="0.000000 0.000000 0.000000" charge=0
C	-2.288335	-0.128800	0.124957	6
C	-0.781785	-0.051510	0.013507	6
N	-0.264045	1.133520	0.040327	7
C	1.199595	1.182890	-0.117613	6
C	1.868615	-0.156620	0.157387	6
O	1.193595	-1.156090	-0.613503	8
N	-0.101165	-1.252330	-0.085903	7
H	-2.631065	-1.166520	0.149687	1
H	-2.738544	0.375360	-0.735153	1
H	-2.611105	0.374470	1.041027	1
H	1.411085	1.499050	-1.145693	1
H	1.608425	1.944580	0.554217	1
H	2.917085	-0.131240	-0.155173	1
H	1.839625	-0.421000	1.221817	1
H	-0.621985	-2.045760	-0.449893	1
Es	-0.132639	-1.217364	0.194436	99
Es	-2.521827	-0.850760	0.139467	99
Es	0.604140	-1.200542	-0.363721	99
Es	0.383741	1.148645	-0.024083	99
Es	1.424382	-0.761536	-0.326239	99
Es	-0.101408	-1.251878	-0.086624	99
Es	1.538239	0.509355	0.026616	99
Es	1.868491	-0.156786	0.157234	99
Es	1.329610	-1.426457	-0.581924	99
Es	1.199477	1.182836	-0.117575	99
Es	-0.406980	-1.732600	-0.294142	99
Es	-0.263745	1.133033	0.040274	99
Es	-0.781768	-0.051710	0.013526	99
Es	1.150788	-1.044479	-0.857505	99
Es	-2.494534	0.201055	0.723546	99
Es	-0.469474	0.669458	-0.260375	99
Es	1.344142	1.382385	-0.810938	99
Es	1.842510	-0.333294	0.882958	99
Es	-2.288267	-0.128831	0.124948	99
Es	2.578244	-0.143393	-0.059815	99
Es	-1.528123	-0.116435	0.074456	99
Es	1.489527	1.703834	0.342809	99
Es	-0.396939	-0.728165	-0.123384	99
Es	-0.416436	0.633435	0.320263	99
Es	1.193489	-1.155897	-0.613267	99
Es	-0.462680	1.412623	0.072524	99
Es	-2.574033	0.203751	-0.442729	99
42
Properties=species:S:1:pos:R:3:Z:I:1 energy=-339.9306462312177 field_type=dipole dipole="0.000000 0.000000 0.000000" charge=0
C	-2.288335	-0.128800	0.124957	6
C	-0.781785	-0.051510	0.013507	6
N	-0.264045	1.133520	0.040327	7
C	1.199595	1.182890	-0.117613	6
C	1.868615	-0.156620	0.157387	6
O	1.193595	-1.156090	-0.613503	8
N	-0.101165	-1.252330	-0.085903	7
H	-2.631065	-1.166520	0.149687	1
H	-2.738544	0.375360	-0.735153	1
H	-2.611105	0.374470	1.041027	1
H	1.411085	1.499050	-1.145693	1