46
Properties=species:S:1:pos:R:3:Z:I:1 energy=-325.12256534127937 field_type=dipole dipole="0.000000 0.000000 0.000000" charge=0
C	-1.462119	-2.032670	0.479003	6
C	-0.544879	-1.781530	-0.708457	6
C	0.500311	-0.763541	-0.384147	6
O	0.794631	0.149159	-1.451107	8
C	0.152851	0.701430	-0.291667	6
C	0.996721	1.622639	0.521013	6
N	0.578411	2.998639	0.270933	7
H	-2.185609	-2.818430	0.242823	1
H	-2.017359	-1.126740	0.741313	1
H	-0.890409	-2.341630	1.359383	1
H	-1.147519	-1.466171	-1.569137	1
H	-0.051829	-2.719951	-0.990987	1
H	1.320351	-1.153951	0.201923	1
H	-0.889209	0.987030	-0.351777	1
H	2.059361	1.512379	0.279423	1
H	0.868891	1.396260	1.584073	1
H	0.725921	3.206850	-0.717627	1
H	1.191481	3.630229	0.785013	1
Es	0.794505	0.149136	-1.450847	99
Es	0.996650	1.622763	0.520981	99
Es	0.966540	3.370937	0.575147	99
Es	0.578933	2.998554	0.270798	99
Es	-1.066401	-2.243210	1.078904	99
Es	-0.996912	-1.905120	-0.108446	99
Es	-0.953837	-1.559415	-1.287317	99
Es	-0.025097	-1.264836	-0.544901	99
Es	0.782335	2.405545	0.372331	99
Es	0.579128	1.158066	0.110075	99
Es	0.234576	-0.067661	-0.113885	99
Es	-1.838422	-1.412150	0.654996	99
Es	0.686948	3.115422	-0.324753	99
Es	0.541371	0.457886	-1.065762	99
Es	0.740868	-0.273992	-1.101735	99
Es	0.237718	3.048829	0.360681	99
Es	0.904662	1.466731	1.247235	99
Es	-0.203382	-2.420417	-0.897061	99
Es	1.093424	0.235485	-1.442804	99
Es	-1.953316	-2.569295	0.317095	99
Es	-0.552789	0.897775	-0.345388	99
Es	1.068399	-1.026910	0.013165	99
Es	0.500373	-0.763331	-0.384379	99
Es	1.723747	1.532144	0.355209	99
Es	-0.544877	-1.781525	-0.708402	99
Es	0.588013	0.100158	-1.678490	99
Es	0.153013	0.701287	-0.291911	99
Es	-1.462095	-2.032667	0.478983	99
46
Properties=species:S:1:pos:R:3:Z:I:1 energy=-325.12256534127937 field_type=dipole dipole="0.000000 0.000000 0.000000" charge=0
C	-1.462119	-2.032670	0.479003	6
C	-0.544879	-1.781530	-0.708457	6
C	0.500311	-0.763541	-0.384147	6
O	0.794631	0.149159	-1.451107	8
C	0.152851	0.701430	-0.291667	6
C	0.996721	1.622639	0.521013	6
N	0.578411	2.998639	0.270933	7
H	-2.185609	-2.818430	0.242823	1
H	-2.017359	-1.126740	0.741313	1
H	-0.890409	-2.341630	1.359383	1
H	-1.147519	-1.466171	-1.569137	1
H	-0.051829	-2.719951	-0.990987	1
H	1.320351	-1.153951	0.201923	1
H	-0.889209	0.987030	-0.351777	1
H	2.059361	1.512379	0.279423	1
H	0.868891	1.396260	1.584073	1
H	0.725921	3.206850	-0.717627	1
H	1.191481	3.630229	0.785013	1
Es	0.233463	-0.068211	-0.111419	99
Es	-0.025472	-1.265205	-0.545460	99
Es	0.996650	1.622761	0.520983	99
Es	0.540410	0.461609	-1.066907	99
Es	0.743906	-0.277782	-1.101066	99
Es	0.579617	1.158829	0.109264	99
Es	-0.202285	-2.421612	-0.897543	99
Es	-0.996975	-1.904884	-0.108429	99
Es	0.242635	3.048855	0.358537	99
Es	0.781201	2.403728	0.373755	99
Es	0.153013	0.701286	-0.291912	99
Es	1.087766	0.235415	-1.443241	99
Es	-1.462095	-2.032667	0.478983	99
Es	-1.066685	-2.244122	1.078019	99
Es	0.963227	3.371915	0.576265	99
Es	0.578969	2.998556	0.270781	99
Es	-0.551816	0.898342	-0.345816	99
Es	-1.839563	-1.411002	0.655771	99
Es	-0.953333	-1.558761	-1.286633	99
Es	1.722588	1.531864	0.354850	99
Es	0.904879	1.465677	1.247771	99
Es	1.068228	-1.027226	0.012396	99
Es	-0.544879	-1.781527	-0.708404	99
Es	0.794492	0.149109	-1.450824	99
Es	0.686196	3.117146	-0.325557	99
Es	0.500377	-0.763336	-0.384383	99
Es	0.591532	0.100256	-1.677591	99
Es	-1.951968	-2.568823	0.317329	99
46
Properties=species:S:1:pos:R:3:Z:I:1 energy=-325.12256534127937 field_type=dipole dipole="0.000000 0.000000 0.000000" charge=0
C	-1.462119	-2.032670	0.479003	6
C	-0.544879	-1.781530	-0.708457	6
C	0.500311	-0.763541	-0.384147	6
O	0.794631	0.149159	-1.451107	8
C	0.152851	0.701430	-0.291667	6
C	0.996721	1.622639	0.521013	6
N	0.578411	2.998639	0.270933	7
H	-2.185609	-2.818430	0.242823	1
H	-2.017359	-1.126740	0.741313	1
H	-0.890409	-2.341630	1.359383	1
H	-1.147519	-1.466171	-1.569137	1
H	-0.051829	-2.719951	-0.990987	1
H	1.320351	-1.153951	0.201923	1
H	-0.889209	0.987030	-0.351777	1
H	2.059361	1.512379	0.279423	1
H	0.868891	1.396260	1.584073	1
H	0.725921	3.206850	-0.717627	1
H	1.191481	3.630229	0.785013	1
Es	0.996649	1.622760	0.520985	99
Es	-1.840268	-1.410377	0.656300	99
Es	-0.996900	-1.904773	-0.108331	99
Es	0.961181	3.372288	0.576828	99
Es	-0.544876	-1.781525	-0.708402	99
Es	0.597203	0.102397	-1.680153	99
Es	0.905019	1.465120	1.248022	99
Es	1.721858	1.531662	0.354678	99
Es	0.686054	3.118122	-0.325983	99
Es	-0.953015	-1.558417	-1.285903	99
Es	-0.201699	-2.422289	-0.898099	99
Es	0.245501	3.048958	0.357162	99
Es	0.232784	-0.068578	-0.110000	99
Es	-1.462094	-2.032666	0.478983	99
Es	0.743970	-0.281008	-1.102286	99
Es	0.153012	0.701284	-0.291905	99
Es	0.780507	2.402777	0.374790	99
Es	-1.066970	-2.244535	1.077351	99
Es	0.500371	-0.763333	-0.384372	99
Es	0.578976	2.998548	0.270779	99
Es	1.082655	0.233214	-1.438813	99
Es	0.579751	1.159208	0.108860	99
Es	1.067973	-1.027460	0.011895	99
Es	0.794575	0.149135	-1.450757	99
Es	-0.025651	-1.265305	-0.545964	99
Es	-0.551146	0.898587	-0.345980	99
Es	-1.951114	-2.568598	0.317582	99
Es	0.539770	0.464989	-1.067748	99
46
Properties=species:S:1:pos:R:3:Z:I:1 energy=-325.12256534127937 field_type=dipole dipole="0.000000 0.000000 0.000000" charge=0
C	-1.462119	-2.032670	0.479003	6
C	-0.544879	-1.781530	-0.708457	6
C	0.500311	-0.763541	-0.384147	6
O	0.794631	0.149159	-1.451107	8
C	0.152851	0.701430	-0.291667	6
C	0.996721	1.622639	0.521013	6
N	0.578411	2.998639	0.270933	7
H	-2.185609	-2.818430	0.242823	1
H	-2.017359	-1.126740	0.741313	1
H	-0.890409	-2.341630	1.359383	1
H	-1.147519	-1.466171	-1.569137	1
H	-0.051829	-2.719951	-0.990987	1
H	1.320351	-1.153951	0.201923	1
H	-0.889209	0.987030	-0.351777	1
H	2.059361	1.512379	0.279423	1
H	0.868891	1.396260	1.584073	1
H	0.725921	3.206850	-0.717627	1
H	1.191481	3.630229	0.785013	1
Es	-0.996905	-1.904803	-0.108525	99
Es	0.578972	2.998547	0.270781	99
Es	0.996649	1.622764	0.520981	99
Es	-1.950534	-2.568216	0.317946	99
Es	0.794477	0.149106	-1.450800	99
Es	-1.067190	-2.244856	1.076953	99
Es	0.779431	2.402000	0.375411	99
Es	0.959878	3.372578	0.577445	99
Es	0.232168	-0.068928	-0.108829	99
Es	0.596680	0.102629	-1.676738	99
Es	-0.544877	-1.781526	-0.708404	99
Es	1.067871	-1.027636	0.011518	99
Es	-1.840684	-1.409892	0.656567	99
Es	1.721283	1.531494	0.354373	99
Es	0.579916	1.159612	0.108611	99
Es	-0.550554	0.898846	-0.346143	99
Es	-0.952722	-1.558163	-1.285515	99
Es	0.744679	-0.282413	-1.102918	99
Es	0.500369	-0.763331	-0.384379	99
Es	0.685809	3.118860	-0.326284	99
Es	0.540679	0.467060	-1.067428	99
Es	0.153013	0.701286	-0.291907	99
Es	-0.201302	-2.422822	-0.898307	99
Es	0.905143	1.464604	1.248301	99
Es	-1.462095	-2.032668	0.478982	99
Es	0.248037	3.049033	0.356025	99
Es	1.081618	0.232480	-1.441894	99
Es	-0.025735	-1.265457	-0.546306	99
46
Properties=species:S:1:pos:R:3:Z:I:1 energy=-325.12256534127937 field_type=dipole dipole="0.000000 0.000000 0.000000" charge=0
C	-1.462119	-2.032670	0.479003	6
C	-0.544879	-1.781530	-0.708457	6
C	0.500311	-0.763541	-0.384147	6
O	0.794631	0.149159	-1.451107	8
C	0.152851	0.701430	-0.291667	6
C	0.996721	1.622639	0.521013	6
N	0.578411	2.998639	0.270933	7
H	-2.185609	-2.818430	0.242823	1
H	-2.017359	-1.126740	0.741313	1
H	-0.890409	-2.341630	1.359383	1
H	-1.147519	-1.466171	-1.569137	1
H	-0.051829	-2.719951	-0.990987	1
H	1.320351	-1.153951	0.201923	1
H	-0.889209	0.987030	-0.351777	1
H	2.059361	1.512379	0.279423	1
H	0.868891	1.396260	1.584073	1
H	0.725921	3.206850	-0.717627	1
H	1.191481	3.630229	0.785013	1
Es	-1.462096	-2.032671	0.478980	99
Es	0.580143	1.159929	0.108300	99
Es	-1.950265	-2.568183	0.318114	99
Es	0.601828	0.102767	-1.680103	99
Es	0.248914	3.048574	0.354968	99
Es	0.686419	3.119533	-0.326230	99
Es	0.539086	0.469066	-1.069585	99
Es	1.077383	0.231446	-1.436923	99
Es	-1.840865	-1.409612	0.656888	99
Es	-0.952460	-1.557996	-1.285082	99
Es	-0.550233	0.898899	-0.346197	99
Es	0.794525	0.149119	-1.450837	99
Es	0.231978	-0.069169	-0.108073	99
Es	0.500370	-0.763332	-0.384375	99
Es	0.996648	1.622763	0.520984	99
Es	1.067726	-1.027529	0.011239	99
Es	-0.996829	-1.904853	-0.108378	99
Es	0.578999	2.998552	0.270752	99
Es	0.905036	1.464251	1.248370	99
Es	-0.201103	-2.423011	-0.898719	99
Es	-1.067465	-2.244945	1.076511	99
Es	0.958148	3.372807	0.578071	99
Es	0.779545	2.401738	0.375706	99
Es	1.721022	1.531472	0.354379	99
Es	-0.025805	-1.265753	-0.546515	99
Es	0.153012	0.701287	-0.291909	99
Es	-0.544876	-1.781526	-0.708402	99
Es	0.745290	-0.283433	-1.102413	99
46
Properties=species:S:1:pos:R:3:Z:I:1 energy=-325.12256534127937 field_type=dipole dipole="0.000000 0.000000 0.000000" charge=0
C	-1.462119	-2.032670	0.479003	6
C	-0.544879	-1.781530	-0.708457	6
C	0.500311	-0.763541	-0.384147	6
O	0.794631	0.149159	-1.451107	8
C	0.152851	0.701430	-0.291667	6
C	0.996721	1.622639	0.521013	6
N	0.578411	2.998639	0.270933	7
H	-2.185609	-2.818430	0.242823	1
H	-2.017359	-1.126740	0.741313	1
H	-0.890409	-2.341630	1.359383	1
H	-1.147519	-1.466171	-1.569137	1
H	-0.051829	-2.719951	-0.990987	1
H	1.320351	-1.153951	0.201923	1
H	-0.889209	0.987030	-0.351777	1
H	2.059361	1.512379	0.279423	1
H	0.868891	1.396260	1.584073	1
H	0.725921	3.206850	-0.717627	1
H	1.191481	3.630229	0.785013	1
Es	-1.841184	-1.409426	0.657071	99
Es	-1.462094	-2.032667	0.478983	99
Es	0.746176	-0.284942	-1.103856	99
Es	0.779473	2.401571	0.375875	99
Es	0.250733	3.047694	0.353971	99
Es	0.996649	1.622763	0.520982	99
Es	-0.952235	-1.557853	-1.284778	99
Es	-1.949848	-2.567950	0.318394	99
Es	1.067572	-1.027600	0.011044	99
Es	0.905104	1.463796	1.248546	99
Es	-0.025786	-1.265842	-0.546721	99
Es	-0.200954	-2.423297	-0.898916	99
Es	0.956739	3.373477	0.579049	99
Es	0.578993	2.998545	0.270768	99
Es	0.794551	0.149129	-1.450804	99
Es	0.231624	-0.069301	-0.107307	99
Es	1.076860	0.231073	-1.440825	99
Es	0.153015	0.701289	-0.291911	99
Es	0.580264	1.160299	0.108016	99
Es	0.500373	-0.763333	-0.384376	99
Es	-0.996920	-1.904831	-0.108546	99
Es	0.599929	0.103543	-1.676148	99
Es	-0.544876	-1.781525	-0.708403	99
Es	0.540683	0.470111	-1.068281	99
Es	1.720567	1.531386	0.354194	99
Es	-1.067539	-2.245090	1.076271	99
Es	0.686083	3.120143	-0.326444	99
Es	-0.549876	0.899025	-0.346327	99
46
Properties=species:S:1:pos:R:3:Z:I:1 energy=-325.12256534127937 field_type=dipole dipole="0.000000 0.000000 0.000000" charge=0
C	-1.462119	-2.032670	0.479003	6
C	-0.544879	-1.781530	-0.708457	6
C	0.500311	-0.763541	-0.384147	6
O	0.794631	0.149159	-1.451107	8
C	0.152851	0.701430	-0.291667	6
C	0.996721	1.622639	0.521013	6
N	0.578411	2.998639	0.270933	7
H	-2.185609	-2.818430	0.242823	1
H	-2.017359	-1.126740	0.741313	1
H	-0.890409	-2.341630	1.359383	1
H	-1.147519	-1.466171	-1.569137	1
H	-0.051829	-2.719951	-0.990987	1
H	1.320351	-1.153951	0.201923	1
H	-0.889209	0.987030	-0.351777	1
H	2.059361	1.512379	0.279423	1
H	0.868891	1.396260	1.584073	1
H	0.725921	3.206850	-0.717627	1
H	1.191481	3.630229	0.785013	1
Es	-1.949721	-2.567843	0.318468	99
Es	0.686495	3.120365	-0.326452	99
Es	0.905098	1.463670	1.248641	99
Es	0.252107	3.047629	0.352747	99
Es	0.778980	2.401129	0.376488	99
Es	-0.200687	-2.423444	-0.899105	99
Es	-0.549635	0.898984	-0.346361	99
Es	0.500385	-0.763330	-0.384391	99
Es	0.153016	0.701291	-0.291908	99
Es	1.075553	0.231503	-1.440677	99
Es	0.747350	-0.285727	-1.103937	99
Es	-1.462095	-2.032669	0.478983	99
Es	-1.841211	-1.409162	0.657291	99
Es	-0.025993	-1.266048	-0.546894	99
Es	0.996648	1.622764	0.520982	99
Es	-0.996872	-1.904823	-0.108365	99
Es	-0.544876	-1.781526	-0.708402	99
Es	-0.952063	-1.557723	-1.284555	99
Es	0.580329	1.160476	0.107943	99
Es	0.578988	2.998541	0.270773	99
Es	0.794536	0.149105	-1.450850	99
Es	-1.067719	-2.245242	1.075967	99
Es	0.601040	0.103304	-1.675563	99
Es	0.539728	0.470698	-1.068976	99
Es	1.067415	-1.027592	0.010852	99
Es	1.720311	1.531329	0.354199	99
Es	0.955492	3.373872	0.579517	99
Es	0.231477	-0.069343	-0.106895	99
46
Properties=species:S:1:pos:R:3:Z:I:1 energy=-325.12256534127937 field_type=dipole dipole="0.000000 0.000000 0.000000" charge=0
C	-1.462119	-2.032670	0.479003	6
C	-0.544879	-1.781530	-0.708457	6
C	0.500311	-0.763541	-0.384147	6
O	0.794631	0.149159	-1.451107	8
C	0.152851	0.701430	-0.291667	6
C	0.996721	1.622639	0.521013	6
N	0.578411	2.998639	0.270933	7
H	-2.185609	-2.818430	0.242823	1
H	-2.017359	-1.126740	0.741313	1
H	-0.890409	-2.341630	1.359383	1
H	-1.147519	-1.466171	-1.569137	1
H	-0.051829	-2.719951	-0.990987	1
H	1.320351	-1.153951	0.201923	1
H	-0.889209	0.987030	-0.351777	1
H	2.059361	1.512379	0.279423	1
H	0.868891	1.396260	1.584073	1
H	0.725921	3.206850	-0.717627	1
H	1.191481	3.630229	0.785013	1
Es	1.073864	0.230488	-1.438018	99
Es	0.580502	1.160812	0.107758	99
Es	-1.841441	-1.409112	0.657493	99
Es	0.954541	3.374168	0.580109	99
Es	0.578985	2.998550	0.270770	99
Es	-0.544875	-1.781523	-0.708402	99
Es	-1.067886	-2.245306	1.075751	99
Es	0.539465	0.471758	-1.069750	99
Es	-0.200620	-2.423612	-0.899324	99
Es	0.746645	-0.286595	-1.104411	99
Es	-1.949439	-2.567745	0.318604	99
Es	0.500372	-0.763333	-0.384374	99
Es	0.779028	2.401087	0.376517	99
Es	-0.549381	0.899041	-0.346407	99
Es	-0.996838	-1.904759	-0.108460	99
Es	0.904933	1.463330	1.248730	99
Es	0.686528	3.120756	-0.326525	99
Es	0.603482	0.104131	-1.676463	99
Es	0.996649	1.622762	0.520983	99
Es	1.720169	1.531274	0.354124	99
Es	-0.026029	-1.266136	-0.546998	99
Es	1.067383	-1.027599	0.010683	99
Es	0.252942	3.047063	0.352152	99
Es	-0.951882	-1.557639	-1.284271	99
Es	0.794729	0.149198	-1.451364	99
Es	0.153013	0.701286	-0.291908	99
Es	-1.462094	-2.032667	0.478983	99
Es	0.231330	-0.069491	-0.106462	99
46
Properties=species:S:1:pos:R:3:Z:I:1 energy=-325.12256534127937 field_type=dipole dipole="0.000000 0.000000 0.000000" charge=0
C	-1.462119	-2.032670	0.479003	6
C	-0.544879	-1.781530	-0.708457	6
C	0.500311	-0.763541	-0.384147	6
O	0.794631	0.149159	-1.451107	8
C	0.152851	0.701430	-0.291667	6
C	0.996721	1.622639	0.521013	6
N	0.578411	2.998639	0.270933	7
H	-2.185609	-2.818430	0.242823	1
H	-2.017359	-1.126740	0.741313	1
H	-0.890409	-2.341630	1.359383	1
H	-1.147519	-1.466171	-1.569137	1
H	-0.051829	-2.719951	-0.990987	1
H	1.320351	-1.153951	0.201923	1
H	-0.889209	0.987030	-0.351777	1
H	2.059361	1.512379	0.279423	1
H	0.868891	1.396260	1.584073	1
H	0.725921	3.206850	-0.717627	1
H	1.191481	3.630229	0.785013	1
Es	0.603241	0.104371	-1.675969	99
Es	-1.068007	-2.245292	1.075527	99
Es	-1.949313	-2.567689	0.318819	99
Es	0.953944	3.373997	0.580190	99
Es	0.996648	1.622763	0.520982	99
Es	1.073101	0.229761	-1.439160	99
Es	-1.462094	-2.032667	0.478983	99
Es	-0.549199	0.899114	-0.346453	99
Es	0.500372	-0.763330	-0.384378	99
Es	0.778485	2.400795	0.376972	99
Es	0.153013	0.701289	-0.291908	99
Es	0.231158	-0.069626	-0.106243	99
Es	1.067326	-1.027610	0.010630	99
Es	-0.026154	-1.266134	-0.547171	99
Es	0.904866	1.463209	1.248716	99
Es	-0.544876	-1.781526	-0.708402	99
Es	0.253850	3.047307	0.351669	99
Es	-0.200451	-2.423788	-0.899448	99
Es	-1.841502	-1.408991	0.657630	99
Es	-0.951750	-1.557653	-1.284021	99
Es	-0.996815	-1.904740	-0.108555	99
Es	1.720084	1.531181	0.354094	99
Es	0.578941	2.998546	0.270792	99
Es	0.580586	1.160972	0.107729	99
Es	0.540480	0.472731	-1.069603	99
Es	0.746765	-0.287008	-1.104483	99
Es	0.794580	0.149136	-1.450767	99
Es	0.686796	3.121070	-0.326652	99
46
Properties=species:S:1:pos:R:3:Z:I:1 energy=-325.12256534127937 field_type=dipole dipole="0.000000 0.000000 0.000000" charge=0
C	-1.462119	-2.032670	0.479003	6
C	-0.544879	-1.781530	-0.708457	6
C	0.500311	-0.763541	-0.384147	6
O	0.794631	0.149159	-1.451107	8
C	0.152851	0.701430	-0.291667	6
C	0.996721	1.622639	0.521013	6
N	0.578411	2.998639	0.270933	7
H	-2.185609	-2.818430	0.242823	1
H	-2.017359	-1.126740	0.741313	1
H	-0.890409	-2.341630	1.359383	1
H	-1.147519	-1.466171	-1.569137	1
H	-0.051829	-2.719951	-0.990987	1
H	1.320351	-1.153951	0.201923	1
H	-0.889209	0.987030	-0.351777	1
H	2.059361	1.512379	0.279423	1
H	0.868891	1.396260	1.584073	1
H	0.725921	3.206850	-0.717627	1
H	1.191481	3.630229	0.785013	1
Es	0.746429	-0.287841	-1.105489	99
Es	0.539991	0.473048	-1.069796	99
Es	-0.200496	-2.423842	-0.899576	99
Es	-0.544875	-1.781525	-0.708403	99
Es	0.231040	-0.069653	-0.105831	99
Es	-0.549085	0.899235	-0.346463	99
Es	0.605463	0.105399	-1.677132	99
Es	0.794566	0.149124	-1.450769	99
Es	0.500378	-0.763332	-0.384388	99
Es	0.687411	3.121254	-0.326499	99
Es	-0.951619	-1.557485	-1.283938	99
Es	0.996654	1.622759	0.520985	99
Es	0.580482	1.160947	0.107629	99
Es	1.071784	0.229293	-1.436875	99
Es	1.067277	-1.027656	0.010521	99
Es	0.153012	0.701286	-0.291909	99
Es	1.719892	1.531114	0.353953	99
Es	-0.996774	-1.904718	-0.108470	99
Es	-1.949257	-2.567612	0.318799	99
Es	0.904995	1.463103	1.248749	99
Es	-1.068141	-2.245415	1.075362	99
Es	0.579004	2.998545	0.270761	99
Es	-0.026086	-1.266289	-0.547206	99
Es	0.778382	2.400722	0.377164	99
Es	0.952993	3.374262	0.580769	99
Es	-1.841507	-1.408896	0.657800	99
Es	-1.462095	-2.032667	0.478983	99
Es	0.254260	3.047025	0.350786	99
46
Properties=species:S:1:pos:R:3:Z:I:1 energy=-325.12256534127937 field_type=dipole dipole="0.000000 0.000000 0.000000" charge=0
C	-1.462119	-2.032670	0.479003	6
C	-0.544879	-1.781530	-0.708457	6
C	0.500311	-0.763541	-0.384147	6
O	0.794631	0.149159	-1.451107	8
C	0.152851	0.701430	-0.291667	6
C	0.996721	1.622639	0.521013	6
N	0.578411	2.998639	0.270933	7
H	-2.185609	-2.818430	0.242823	1
H	-2.017359	-1.126740	0.741313	1
H	-0.890409	-2.341630	1.359383	1
H	-1.147519	-1.466171	-1.569137	1
H	-0.051829	-2.719951	-0.990987	1
H	1.320351	-1.153951	0.201923	1
H	-0.889209	0.987030	-0.351777	1
H	2.059361	1.512379	0.279423	1
H	0.868891	1.396260	1.584073	1
H	0.725921	3.206850	-0.717627	1
H	1.191481	3.630229	0.785013	1
Es	0.578988	2.998547	0.270759	99
Es	0.580748	1.161155	0.107477	99
Es	-0.996747	-1.904695	-0.108427	99
Es	1.072537	0.229866	-1.440855	99
Es	0.747532	-0.287661	-1.104667	99
Es	-1.068142	-2.245430	1.075256	99
Es	-0.026073	-1.266332	-0.547358	99
Es	0.153013	0.701288	-0.291911	99
Es	0.793865	0.148930	-1.450896	99
Es	-1.841650	-1.408858	0.657876	99
Es	-1.462094	-2.032667	0.478983	99
Es	-0.200422	-2.423879	-0.899639	99
Es	0.951730	3.375216	0.581759	99
Es	0.230997	-0.069667	-0.105580	99
Es	0.604174	0.104069	-1.673307	99
Es	0.996649	1.622762	0.520982	99
Es	0.256114	3.045834	0.350027	99
Es	-0.549016	0.899272	-0.346429	99
Es	0.540088	0.473807	-1.070345	99
Es	-0.951623	-1.557483	-1.283841	99
Es	-1.949083	-2.567576	0.318887	99
Es	0.500373	-0.763330	-0.384377	99
Es	0.778523	2.400710	0.377132	99
Es	1.719784	1.531092	0.353998	99
Es	0.686666	3.121570	-0.326769	99
Es	0.904799	1.462841	1.248802	99
Es	-0.544876	-1.781525	-0.708402	99
Es	1.067221	-1.027666	0.010385	99
46
Properties=species:S:1:pos:R:3:Z:I:1 energy=-325.12256534127937 field_type=dipole dipole="0.000000 0.000000 0.000000" charge=0
C	-1.462119	-2.032670	0.479003	6
C	-0.544879	-1.781530	-0.708457	6
C	0.500311	-0.763541	-0.384147	6
O	0.794631	0.149159	-1.451107	8
C	0.152851	0.701430	-0.291667	6
C	0.996721	1.622639	0.521013	6
N	0.578411	2.998639	0.270933	7
H	-2.185609	-2.818430	0.242823	1
H	-2.017359	-1.126740	0.741313	1
H	-0.890409	-2.341630	1.359383	1
H	-1.147519	-1.466171	-1.569137	1
H	-0.051829	-2.719951	-0.990987	1
H	1.320351	-1.153951	0.201923	1
H	-0.889209	0.987030	-0.351777	1
H	2.059361	1.512379	0.279423	1
H	0.868891	1.396260	1.584073	1
H	0.725921	3.206850	-0.717627	1
H	1.191481	3.630229	0.785013	1
Es	-1.068394	-2.245369	1.074838	99
Es	0.500369	-0.763332	-0.384372	99
Es	0.578910	2.998547	0.270799	99
Es	-1.949053	-2.567713	0.318969	99
Es	-0.544876	-1.781526	-0.708402	99
Es	-0.026114	-1.266363	-0.547312	99
Es	0.904771	1.462726	1.248740	99
Es	-0.200437	-2.423984	-0.899769	99
Es	-1.841625	-1.408693	0.658156	99
Es	-0.951420	-1.557405	-1.283685	99
Es	0.609683	0.106586	-1.680770	99
Es	0.745921	-0.288567	-1.105856	99
Es	0.230955	-0.069908	-0.105280	99
Es	0.687986	3.121621	-0.326163	99
Es	1.069375	0.228715	-1.431811	99
Es	0.538702	0.473304	-1.070737	99
Es	0.794511	0.149111	-1.450810	99
Es	0.255010	3.046913	0.349729	99
Es	0.153013	0.701287	-0.291912	99
Es	-1.462094	-2.032667	0.478983	99
Es	-0.996697	-1.904700	-0.108414	99
Es	0.580689	1.161461	0.107689	99
Es	0.778075	2.400456	0.377229	99
Es	1.719801	1.530840	0.353762	99
Es	0.952056	3.374445	0.581319	99
Es	0.996649	1.622763	0.520981	99
Es	1.067127	-1.027714	0.010169	99
Es	-0.548817	0.899352	-0.346553	99
46
Properties=species:S:1:pos:R:3:Z:I:1 energy=-325.12256534127937 field_type=dipole dipole="0.000000 0.000000 0.000000" charge=0
C	-1.462119	-2.032670	0.479003	6
C	-0.544879	-1.781530	-0.708457	6
C	0.500311	-0.763541	-0.384147	6
O	0.794631	0.149159	-1.451107	8
C	0.152851	0.701430	-0.291667	6
C	0.996721	1.622639	0.521013	6
N	0.578411	2.998639	0.270933	7
H	-2.185609	-2.818430	0.242823	1
H	-2.017359	-1.126740	0.741313	1
H	-0.890409	-2.341630	1.359383	1
H	-1.147519	-1.466171	-1.569137	1
H	-0.051829	-2.719951	-0.990987	1
H	1.320351	-1.153951	0.201923	1
H	-0.889209	0.987030	-0.351777	1
H	2.059361	1.512379	0.279423	1
H	0.868891	1.396260	1.584073	1
H	0.725921	3.206850	-0.717627	1
H	1.191481	3.630229	0.785013	1
Es	0.777779	2.400292	0.377351	99
Es	-1.068468	-2.245265	1.074772	99
Es	0.231140	-0.069869	-0.105137	99
Es	1.067063	-1.027543	0.010171	99
Es	0.687819	3.121795	-0.326267	99
Es	-1.462094	-2.032667	0.478983	99
Es	0.578982	2.998546	0.270764	99
Es	0.611505	0.107225	-1.682069	99
Es	0.952096	3.374161	0.581031	99
Es	-0.026203	-1.266346	-0.547376	99
Es	-0.200331	-2.423990	-0.899941	99
Es	0.538848	0.474090	-1.070933	99
Es	0.500370	-0.763333	-0.384378	99
Es	-0.996724	-1.904698	-0.108404	99
Es	-0.544876	-1.781527	-0.708403	99
Es	0.745707	-0.289048	-1.106293	99
Es	1.067657	0.227728	-1.429966	99
Es	-1.841749	-1.408726	0.658177	99
Es	-1.948933	-2.567768	0.319065	99
Es	-0.548807	0.899157	-0.346558	99
Es	0.996649	1.622763	0.520983	99
Es	0.255235	3.047176	0.349986	99
Es	0.794504	0.149110	-1.450770	99
Es	1.719863	1.530916	0.353864	99
Es	0.580681	1.161624	0.107509	99
Es	0.153014	0.701289	-0.291911	99
Es	0.904648	1.462664	1.248694	99
Es	-0.951298	-1.557568	-1.283423	99
46
Properties=species:S:1:pos:R:3:Z:I:1 energy=-325.12256534127937 field_type=dipole dipole="0.000000 0.000000 0.000000" charge=0
C	-1.462119	-2.032670	0.479003	6
C	-0.544879	-1.781530	-0.708457	6
C	0.500311	-0.763541	-0.384147	6
O	0.794631	0.149159	-1.451107	8
C	0.152851	0.701430	-0.291667	6
C	0.996721	1.622639	0.521013	6
N	0.578411	2.998639	0.270933	7
H	-2.185609	-2.818430	0.242823	1
H	-2.017359	-1.126740	0.741313	1
H	-0.890409	-2.341630	1.359383	1
H	-1.147519	-1.466171	-1.569137	1
H	-0.051829	-2.719951	-0.990987	1
H	1.320351	-1.153951	0.201923	1
H	-0.889209	0.987030	-0.351777	1
H	2.059361	1.512379	0.279423	1
H	0.868891	1.396260	1.584073	1
H	0.725921	3.206850	-0.717627	1
H	1.191481	3.630229	0.785013	1
Es	-0.548616	0.899174	-0.346572	99
Es	0.153012	0.701290	-0.291912	99
Es	0.996648	1.622763	0.520982	99
Es	0.604452	0.104409	-1.672494	99
Es	0.904796	1.462493	1.248903	99
Es	-0.026162	-1.266649	-0.547588	99
Es	-1.068423	-2.245576	1.074917	99
Es	0.777846	2.400332	0.377579	99
Es	-0.544876	-1.781526	-0.708402	99
Es	-1.462094	-2.032667	0.478983	99
Es	0.500373	-0.763332	-0.384378	99
Es	-0.200265	-2.424095	-0.899871	99
Es	0.539994	0.474656	-1.070600	99
Es	0.230784	-0.069890	-0.104933	99
Es	0.578948	2.998549	0.270788	99
Es	0.950361	3.375481	0.582468	99
Es	-1.841862	-1.408693	0.658163	99
Es	1.067085	-1.027655	0.010103	99
Es	-1.948737	-2.567317	0.319132	99
Es	1.071077	0.229691	-1.440529	99
Es	0.794597	0.149145	-1.451053	99
Es	1.719469	1.531010	0.353825	99
Es	0.580776	1.161633	0.107415	99
Es	0.687236	3.121999	-0.326697	99
Es	-0.951323	-1.557309	-1.283541	99
Es	0.748079	-0.288718	-1.105363	99
Es	0.257598	3.045647	0.348697	99
Es	-0.996699	-1.904659	-0.108502	99
