37
Properties=species:S:1:pos:R:3:Z:I:1 energy=-321.59454315408226 field_type=dipole dipole="0.000000 0.000000 0.000000" charge=0
C	-2.470727	-0.189929	0.182574	6
C	-1.026727	-0.189929	0.182574	6
C	0.163433	-0.189929	0.182574	6
C	1.607433	-0.189929	0.182574	6
O	2.075533	-0.910409	-0.963046	8
C	2.089453	1.171241	0.182574	6
N	2.473663	2.256231	0.182574	7
H	-2.864707	0.830961	0.194224	1
H	-2.864797	-0.710449	1.060824	1
H	-2.864747	-0.690229	-0.707376	1
H	1.984743	-0.720559	1.062664	1
H	1.697453	-0.467069	-1.742736	1
Es	2.089325	1.170901	0.182576	99
Es	2.152046	1.805759	-0.089102	99
Es	-2.712432	-0.523645	-0.411008	99
Es	0.163731	-0.189923	0.182577	99
Es	2.594416	2.603150	0.182421	99
Es	-0.401633	0.035661	0.461757	99
Es	1.856666	0.530042	0.181028	99
Es	2.591040	1.659446	0.184295	99
Es	-2.713070	-0.537308	0.768145	99
Es	2.473511	2.255803	0.182575	99
Es	1.939024	-1.178569	-0.936183	99
Es	1.851671	-0.518194	0.764755	99
Es	1.865852	-0.658257	-1.365491	99
Es	1.607447	-0.189856	0.182355	99
Es	-0.412916	-0.548493	0.237213	99
Es	1.880670	-0.596164	-0.530215	99
Es	-2.713411	0.490506	0.190221	99
Es	-0.403946	-0.054248	-0.159296	99
Es	2.145772	1.800122	0.449128	99
Es	0.870898	-0.170040	0.187205	99
Es	2.378858	-0.869983	-0.968426	99
Es	-1.026981	-0.189923	0.182575	99
Es	2.075289	-0.910146	-0.963050	99
Es	-2.470600	-0.189931	0.182573	99
Es	-1.722602	-0.190136	0.181925	99
37
Properties=species:S:1:pos:R:3:Z:I:1 energy=-321.59454315408226 field_type=dipole dipole="0.000000 0.000000 0.000000" charge=0
C	-2.470727	-0.189929	0.182574	6
C	-1.026727	-0.189929	0.182574	6
C	0.163433	-0.189929	0.182574	6
C	1.607433	-0.189929	0.182574	6
O	2.075533	-0.910409	-0.963046	8
C	2.089453	1.171241	0.182574	6
N	2.473663	2.256231	0.182574	7
H	-2.864707	0.830961	0.194224	1
H	-2.864797	-0.710449	1.060824	1
H	-2.864747	-0.690229	-0.707376	1
H	1.984743	-0.720559	1.062664	1
H	1.697453	-0.467069	-1.742736	1
Es	-1.720187	-0.191716	0.181941	99
Es	0.869561	-0.169066	0.188718	99
Es	1.879358	-0.597633	-0.535461	99
Es	-2.470599	-0.189931	0.182573	99
Es	2.601151	2.602031	0.180590	99
Es	2.586463	1.658942	0.256109	99
Es	2.089322	1.170890	0.182578	99
Es	1.855019	0.530937	0.181607	99
Es	-1.026989	-0.189930	0.182565	99
Es	1.862543	-0.659784	-1.357173	99
Es	2.473511	2.255804	0.182573	99
Es	2.216144	1.779288	-0.104713	99
Es	2.075330	-0.910129	-0.963099	99
Es	1.852099	-0.517013	0.761954	99
Es	0.163741	-0.189920	0.182575	99
Es	2.083111	1.827153	0.394677	99
Es	-0.405336	-0.030021	-0.139140	99
Es	-0.401379	0.017139	0.469033	99
Es	1.929997	-1.175745	-0.935677	99
Es	2.392768	-0.869647	-0.970500	99
Es	-2.715179	0.489234	0.190192	99
Es	-2.713280	-0.522921	-0.408841	99
Es	-0.412031	-0.555092	0.209222	99
Es	1.607447	-0.189857	0.182357	99
Es	-2.713961	-0.536441	0.765894	99
37
Properties=species:S:1:pos:R:3:Z:I:1 energy=-321.59454315408226 field_type=dipole dipole="0.000000 0.000000 0.000000" charge=0
C	-2.470727	-0.189929	0.182574	6
C	-1.026727	-0.189929	0.182574	6
C	0.163433	-0.189929	0.182574	6
C	1.607433	-0.189929	0.182574	6
O	2.075533	-0.910409	-0.963046	8
C	2.089453	1.171241	0.182574	6
N	2.473663	2.256231	0.182574	7
H	-2.864707	0.830961	0.194224	1
H	-2.864797	-0.710449	1.060824	1
H	-2.864747	-0.690229	-0.707376	1
H	1.984743	-0.720559	1.062664	1
H	1.697453	-0.467069	-1.742736	1
Es	-0.402009	0.035429	0.452145	99
Es	1.926132	-1.175475	-0.934574	99
Es	1.878273	-0.598777	-0.539945	99
Es	1.854091	0.531747	0.181690	99
Es	1.852180	-0.516516	0.760262	99
Es	-2.716071	0.488466	0.190260	99
Es	2.605171	2.600829	0.179821	99
Es	1.861586	-0.661101	-1.353347	99
Es	-2.714198	-0.535906	0.764645	99
Es	-1.719045	-0.192399	0.181355	99
Es	-0.403780	-0.049354	-0.142285	99
Es	1.607445	-0.189856	0.182356	99
Es	2.473511	2.255804	0.182573	99
Es	0.868838	-0.168949	0.189459	99
Es	2.584261	1.657652	0.268755	99
Es	2.061772	1.837065	0.373492	99
Es	-2.470598	-0.189930	0.182576	99
Es	0.163745	-0.189914	0.182573	99
Es	2.237698	1.771053	-0.095092	99
Es	-1.026992	-0.189916	0.182561	99
Es	2.075362	-0.910115	-0.963049	99
Es	-0.413008	-0.554479	0.229538	99
Es	2.398668	-0.867102	-0.970072	99
Es	2.089313	1.170889	0.182552	99
Es	-2.713722	-0.522572	-0.407696	99
37
Properties=species:S:1:pos:R:3:Z:I:1 energy=-321.59454315408226 field_type=dipole dipole="0.000000 0.000000 0.000000" charge=0
C	-2.470727	-0.189929	0.182574	6
C	-1.026727	-0.189929	0.182574	6
C	0.163433	-0.189929	0.182574	6
C	1.607433	-0.189929	0.182574	6
O	2.075533	-0.910409	-0.963046	8
C	2.089453	1.171241	0.182574	6
N	2.473663	2.256231	0.182574	7
H	-2.864707	0.830961	0.194224	1
H	-2.864797	-0.710449	1.060824	1
H	-2.864747	-0.690229	-0.707376	1
H	1.984743	-0.720559	1.062664	1
H	1.697453	-0.467069	-1.742736	1
Es	0.868404	-0.168864	0.189483	99
Es	2.089315	1.170886	0.182573	99
Es	2.473511	2.255804	0.182573	99
Es	-2.713633	-0.522151	-0.406837	99
Es	1.851904	-0.515784	0.758735	99
Es	2.075344	-0.910125	-0.963064	99
Es	1.861204	-0.662738	-1.348953	99
Es	1.878027	-0.599259	-0.541936	99
Es	2.247197	1.765052	0.442811	99
Es	-0.402439	0.040223	0.449105	99
Es	-2.714570	-0.535857	0.764179	99
Es	0.163746	-0.189909	0.182566	99
Es	1.923343	-1.175235	-0.934698	99
Es	-0.403383	-0.054536	-0.139618	99
Es	2.402209	-0.865276	-0.971945	99
Es	-2.470599	-0.189932	0.182573	99
Es	-1.026993	-0.189936	0.182570	99
Es	1.853420	0.532405	0.183701	99
Es	1.607444	-0.189855	0.182356	99
Es	2.052104	1.850764	-0.000919	99
Es	2.581248	1.651225	0.098177	99
Es	-2.716668	0.487785	0.190006	99
Es	-1.718396	-0.192830	0.181785	99
Es	2.609891	2.598889	0.185350	99
Es	-0.413007	-0.554172	0.229979	99
37
Properties=species:S:1:pos:R:3:Z:I:1 energy=-321.59454315408226 field_type=dipole dipole="0.000000 0.000000 0.000000" charge=0
C	-2.470727	-0.189929	0.182574	6
C	-1.026727	-0.189929	0.182574	6
C	0.163433	-0.189929	0.182574	6
C	1.607433	-0.189929	0.182574	6
O	2.075533	-0.910409	-0.963046	8
C	2.089453	1.171241	0.182574	6
N	2.473663	2.256231	0.182574	7
H	-2.864707	0.830961	0.194224	1
H	-2.864797	-0.710449	1.060824	1
H	-2.864747	-0.690229	-0.707376	1
H	1.984743	-0.720559	1.062664	1
H	1.697453	-0.467069	-1.742736	1
Es	0.868184	-0.168699	0.190136	99
Es	1.877023	-0.600429	-0.544638	99
Es	-0.412961	-0.555378	0.225360	99
Es	2.293745	1.748023	-0.069141	99
Es	-1.026994	-0.189927	0.182561	99
Es	0.163748	-0.189907	0.182574	99
Es	2.017104	1.858499	0.306999	99
Es	2.473512	2.255805	0.182572	99
Es	-0.401924	0.033093	0.450922	99
Es	-1.718116	-0.192892	0.181306	99
Es	-2.716784	0.487286	0.190224	99
Es	2.089311	1.170893	0.182572	99
Es	2.612425	2.597742	0.178447	99
Es	1.607446	-0.189856	0.182356	99
Es	1.923081	-1.175378	-0.933519	99
Es	1.860763	-0.663029	-1.349244	99
Es	-0.403971	-0.046302	-0.136955	99
Es	2.567264	1.661640	0.310782	99
Es	-2.714421	-0.535491	0.763860	99
Es	1.852039	-0.515919	0.758343	99
Es	2.075349	-0.910136	-0.963090	99
Es	-2.714016	-0.522262	-0.406872	99
Es	-2.470598	-0.189933	0.182577	99
Es	2.403712	-0.863273	-0.969582	99
Es	1.853705	0.532403	0.182001	99
37
Properties=species:S:1:pos:R:3:Z:I:1 energy=-321.59454315408226 field_type=dipole dipole="0.000000 0.000000 0.000000" charge=0
C	-2.470727	-0.189929	0.182574	6
C	-1.026727	-0.189929	0.182574	6
C	0.163433	-0.189929	0.182574	6
C	1.607433	-0.189929	0.182574	6
O	2.075533	-0.910409	-0.963046	8
C	2.089453	1.171241	0.182574	6
N	2.473663	2.256231	0.182574	7
H	-2.864707	0.830961	0.194224	1
H	-2.864797	-0.710449	1.060824	1
H	-2.864747	-0.690229	-0.707376	1
H	1.984743	-0.720559	1.062664	1
H	1.697453	-0.467069	-1.742736	1
Es	1.852772	0.533076	0.184282	99
Es	0.163747	-0.189911	0.182584	99
Es	2.578282	1.650150	0.090762	99
Es	-2.714845	-0.535589	0.763843	99
Es	-1.717743	-0.193298	0.181434	99
Es	-0.402485	-0.065295	-0.140189	99
Es	2.029726	1.860014	0.029600	99
Es	2.614568	2.596746	0.185640	99
Es	-2.714000	-0.521734	-0.406428	99
Es	-0.402955	0.049745	0.439639	99
Es	2.075327	-0.910086	-0.963053	99
Es	2.473511	2.255804	0.182573	99
Es	1.851737	-0.515298	0.757469	99
Es	1.877501	-0.600970	-0.544407	99
Es	-1.026995	-0.189940	0.182561	99
Es	-2.716825	0.486735	0.190063	99
Es	-0.413438	-0.552825	0.240120	99
Es	1.861920	-0.662520	-1.345944	99
Es	2.405144	-0.863927	-0.971125	99
Es	2.089305	1.170902	0.182589	99
Es	1.920268	-1.174925	-0.935456	99
Es	0.867923	-0.168679	0.189903	99
Es	-2.470601	-0.189931	0.182573	99
Es	2.269335	1.758185	0.419165	99
Es	1.607444	-0.189856	0.182354	99
37
Properties=species:S:1:pos:R:3:Z:I:1 energy=-321.59454315408226 field_type=dipole dipole="0.000000 0.000000 0.000000" charge=0
C	-2.470727	-0.189929	0.182574	6
C	-1.026727	-0.189929	0.182574	6
C	0.163433	-0.189929	0.182574	6
C	1.607433	-0.189929	0.182574	6
O	2.075533	-0.910409	-0.963046	8
C	2.089453	1.171241	0.182574	6
N	2.473663	2.256231	0.182574	7
H	-2.864707	0.830961	0.194224	1
H	-2.864797	-0.710449	1.060824	1
H	-2.864747	-0.690229	-0.707376	1
H	1.984743	-0.720559	1.062664	1
H	1.697453	-0.467069	-1.742736	1
Es	-2.716756	0.486157	0.190048	99
Es	-1.717502	-0.193189	0.181510	99
Es	2.075349	-0.910120	-0.963051	99
Es	-0.401679	-0.074257	-0.140583	99
Es	1.852593	0.533295	0.184651	99
Es	1.877668	-0.601393	-0.545960	99
Es	1.919270	-1.174661	-0.934653	99
Es	-1.026998	-0.189947	0.182566	99
Es	0.867792	-0.168677	0.190133	99
Es	-0.413683	-0.551674	0.246347	99
Es	1.861502	-0.663037	-1.345156	99
Es	2.274181	1.756821	0.412765	99
Es	-2.714113	-0.521558	-0.406450	99
Es	2.616119	2.595873	0.185307	99
Es	-2.470601	-0.189932	0.182572	99
Es	-2.715078	-0.535465	0.763790	99
Es	2.406307	-0.863077	-0.970913	99
Es	0.163748	-0.189908	0.182571	99
Es	-0.403544	0.057561	0.433635	99
Es	1.607447	-0.189859	0.182356	99
Es	2.089309	1.170893	0.182573	99
Es	2.473511	2.255803	0.182573	99
Es	2.024822	1.862122	0.037379	99
Es	2.577225	1.650022	0.089410	99
Es	1.851735	-0.515219	0.757130	99
37
Properties=species:S:1:pos:R:3:Z:I:1 energy=-321.59454315408226 field_type=dipole dipole="0.000000 0.000000 0.000000" charge=0
C	-2.470727	-0.189929	0.182574	6
C	-1.026727	-0.189929	0.182574	6
C	0.163433	-0.189929	0.182574	6
C	1.607433	-0.189929	0.182574	6
O	2.075533	-0.910409	-0.963046	8
C	2.089453	1.171241	0.182574	6
N	2.473663	2.256231	0.182574	7
H	-2.864707	0.830961	0.194224	1
H	-2.864797	-0.710449	1.060824	1
H	-2.864747	-0.690229	-0.707376	1
H	1.984743	-0.720559	1.062664	1
H	1.697453	-0.467069	-1.742736	1
Es	2.617432	2.595236	0.185319	99
Es	0.163751	-0.189920	0.182575	99
Es	1.852442	0.533486	0.184668	99
Es	2.075337	-0.910130	-0.963096	99
Es	1.851556	-0.514880	0.756582	99
Es	2.273573	1.757168	0.402405	99
Es	1.860580	-0.664214	-1.344077	99
Es	-2.716768	0.485973	0.189951	99
Es	-0.402875	-0.060042	-0.137101	99
Es	2.089304	1.170898	0.182585	99
Es	-2.714233	-0.521575	-0.406267	99
Es	-2.715086	-0.535306	0.763824	99
Es	-0.413347	-0.553758	0.234737	99
Es	-1.717413	-0.193343	0.181577	99
Es	1.920549	-1.175505	-0.934490	99
Es	0.867675	-0.168635	0.190250	99
Es	2.022621	1.863040	0.040570	99
Es	-1.026997	-0.189933	0.182563	99
Es	2.406434	-0.860820	-0.972098	99
Es	2.579141	1.649184	0.096712	99
Es	1.607443	-0.189855	0.182361	99
Es	1.877283	-0.601735	-0.545886	99
Es	-0.402687	0.045368	0.441741	99
Es	2.473511	2.255803	0.182573	99
Es	-2.470600	-0.189931	0.182573	99
37
Properties=species:S:1:pos:R:3:Z:I:1 energy=-321.59454315408226 field_type=dipole dipole="0.000000 0.000000 0.000000" charge=0
C	-2.470727	-0.189929	0.182574	6
C	-1.026727	-0.189929	0.182574	6
C	0.163433	-0.189929	0.182574	6
C	1.607433	-0.189929	0.182574	6
O	2.075533	-0.910409	-0.963046	8
C	2.089453	1.171241	0.182574	6
N	2.473663	2.256231	0.182574	7
H	-2.864707	0.830961	0.194224	1
H	-2.864797	-0.710449	1.060824	1
H	-2.864747	-0.690229	-0.707376	1
H	1.984743	-0.720559	1.062664	1
H	1.697453	-0.467069	-1.742736	1
Es	2.075341	-0.910117	-0.963058	99
Es	2.567668	1.659389	0.306325	99
Es	1.607445	-0.189855	0.182357	99
Es	-2.714910	-0.534901	0.763310	99
Es	-2.470599	-0.189926	0.182573	99
Es	0.867653	-0.168598	0.190884	99
Es	1.851873	-0.515281	0.756796	99
Es	-0.413566	-0.554241	0.236583	99
Es	2.473511	2.255804	0.182573	99
Es	-1.026996	-0.189936	0.182562	99
Es	-2.714514	-0.521802	-0.406427	99
Es	2.301275	1.745560	-0.039697	99
Es	-0.402629	-0.060984	-0.136464	99
Es	2.618059	2.594847	0.178497	99
Es	1.917998	-1.174226	-0.934765	99
Es	1.877331	-0.602857	-0.547606	99
Es	-1.717270	-0.193393	0.181298	99
Es	2.407528	-0.862669	-0.969087	99
Es	-0.402715	0.046732	0.439055	99
Es	1.861658	-0.662153	-1.344757	99
Es	-2.716829	0.485875	0.190202	99
Es	0.163747	-0.189916	0.182571	99
Es	2.089302	1.170905	0.182577	99
Es	1.852726	0.533356	0.182524	99
Es	2.005537	1.864961	0.281728	99
37
Properties=species:S:1:pos:R:3:Z:I:1 energy=-321.59454315408226 field_type=dipole dipole="0.000000 0.000000 0.000000" charge=0
C	-2.470727	-0.189929	0.182574	6
C	-1.026727	-0.189929	0.182574	6
C	0.163433	-0.189929	0.182574	6
C	1.607433	-0.189929	0.182574	6
O	2.075533	-0.910409	-0.963046	8
C	2.089453	1.171241	0.182574	6
N	2.473663	2.256231	0.182574	7
H	-2.864707	0.830961	0.194224	1
H	-2.864797	-0.710449	1.060824	1
H	-2.864747	-0.690229	-0.707376	1
H	1.984743	-0.720559	1.062664	1
H	1.697453	-0.467069	-1.742736	1
Es	-2.714340	-0.521191	-0.406256	99
Es	2.408073	-0.860884	-0.971133	99
Es	1.607445	-0.189855	0.182358	99
Es	1.851599	-0.514824	0.756277	99
Es	0.867514	-0.168561	0.190568	99
Es	1.877187	-0.602612	-0.547570	99
Es	-2.470598	-0.189933	0.182570	99
Es	-2.716811	0.485391	0.190182	99
Es	2.017375	1.865408	0.051306	99
Es	-1.026996	-0.189934	0.182565	99
Es	-0.413340	-0.554420	0.232134	99
Es	-0.402760	0.045092	0.441739	99
Es	-0.402813	-0.059132	-0.134659	99
Es	1.860678	-0.664185	-1.343225	99
Es	-2.715293	-0.535338	0.763479	99
Es	2.075365	-0.910166	-0.963053	99
Es	0.163749	-0.189912	0.182577	99
Es	2.619235	2.594254	0.185303	99
Es	2.577201	1.649190	0.092816	99
Es	2.089316	1.170899	0.182576	99
Es	2.473509	2.255799	0.182571	99
Es	2.279586	1.755389	0.395330	99
Es	1.918752	-1.174360	-0.934260	99
Es	1.852094	0.533821	0.184864	99
Es	-1.717103	-0.193364	0.181492	99
37
Properties=species:S:1:pos:R:3:Z:I:1 energy=-321.59454315408226 field_type=dipole dipole="0.000000 0.000000 0.000000" charge=0
C	-2.470727	-0.189929	0.182574	6
C	-1.026727	-0.189929	0.182574	6
C	0.163433	-0.189929	0.182574	6
C	1.607433	-0.189929	0.182574	6
O	2.075533	-0.910409	-0.963046	8
C	2.089453	1.171241	0.182574	6
N	2.473663	2.256231	0.182574	7
H	-2.864707	0.830961	0.194224	1
H	-2.864797	-0.710449	1.060824	1
H	-2.864747	-0.690229	-0.707376	1
H	1.984743	-0.720559	1.062664	1
H	1.697453	-0.467069	-1.742736	1
Es	1.851874	-0.515080	0.756568	99
Es	1.878711	-0.603343	-0.549448	99
Es	1.607444	-0.189855	0.182356	99
Es	-0.413297	-0.555121	0.229154	99
Es	-2.714824	-0.534679	0.763069	99
Es	-0.403205	-0.053596	-0.133874	99
Es	2.296368	1.747961	-0.030262	99
Es	2.075354	-0.910157	-0.963071	99
Es	2.572195	1.657178	0.295025	99
Es	-2.716853	0.485435	0.190414	99
Es	-1.717065	-0.193389	0.181288	99
Es	1.852222	0.533584	0.182563	99
Es	-2.470599	-0.189931	0.182573	99
Es	0.867464	-0.168289	0.191191	99
Es	-0.402400	0.040012	0.443631	99
Es	2.089312	1.170899	0.182567	99
Es	-2.714816	-0.521790	-0.406476	99
Es	2.473512	2.255806	0.182573	99
Es	2.618826	2.594402	0.178535	99
Es	1.860445	-0.662603	-1.344086	99
Es	2.408329	-0.861579	-0.969406	99
Es	-1.026996	-0.189937	0.182562	99
Es	1.917090	-1.174281	-0.933007	99
Es	0.163749	-0.189923	0.182579	99
Es	2.005785	1.864850	0.283533	99
37
Properties=species:S:1:pos:R:3:Z:I:1 energy=-321.59454315408226 field_type=dipole dipole="0.000000 0.000000 0.000000" charge=0
C	-2.470727	-0.189929	0.182574	6
C	-1.026727	-0.189929	0.182574	6
C	0.163433	-0.189929	0.182574	6
C	1.607433	-0.189929	0.182574	6
O	2.075533	-0.910409	-0.963046	8
C	2.089453	1.171241	0.182574	6
N	2.473663	2.256231	0.182574	7
H	-2.864707	0.830961	0.194224	1
H	-2.864797	-0.710449	1.060824	1
H	-2.864747	-0.690229	-0.707376	1
H	1.984743	-0.720559	1.062664	1
H	1.697453	-0.467069	-1.742736	1
Es	1.607443	-0.189855	0.182358	99
Es	-0.403147	0.052108	0.435723	99
Es	-1.026997	-0.189937	0.182561	99
Es	2.473512	2.255804	0.182573	99
Es	2.075357	-0.910166	-0.963041	99
Es	1.851846	0.534123	0.185113	99
Es	-1.716962	-0.193486	0.181568	99
Es	2.620071	2.593732	0.185396	99
Es	2.579074	1.648430	0.099526	99
Es	0.867401	-0.168468	0.190563	99
Es	1.877243	-0.602832	-0.548355	99
Es	1.862119	-0.663531	-1.342212	99
Es	2.408951	-0.862060	-0.970419	99
Es	-2.715448	-0.535097	0.763480	99
Es	-2.714502	-0.521148	-0.406229	99
Es	2.278799	1.755744	0.386422	99
Es	1.851406	-0.514687	0.755797	99
Es	1.916406	-1.173591	-0.935140	99
Es	2.089305	1.170904	0.182629	99
Es	-0.413609	-0.552693	0.240741	99
Es	-0.402166	-0.067854	-0.137129	99
Es	-2.470600	-0.189932	0.182574	99
Es	-2.716667	0.485035	0.190099	99
Es	0.163750	-0.189916	0.182575	99
Es	2.016037	1.865944	0.053378	99
37
Properties=species:S:1:pos:R:3:Z:I:1 energy=-321.59454315408226 field_type=dipole dipole="0.000000 0.000000 0.000000" charge=0
C	-2.470727	-0.189929	0.182574	6
C	-1.026727	-0.189929	0.182574	6
C	0.163433	-0.189929	0.182574	6
C	1.607433	-0.189929	0.182574	6
O	2.075533	-0.910409	-0.963046	8
C	2.089453	1.171241	0.182574	6
N	2.473663	2.256231	0.182574	7
H	-2.864707	0.830961	0.194224	1
H	-2.864797	-0.710449	1.060824	1
H	-2.864747	-0.690229	-0.707376	1
H	1.984743	-0.720559	1.062664	1
H	1.697453	-0.467069	-1.742736	1
Es	-2.716543	0.484778	0.190150	99
Es	0.867362	-0.168272	0.190898	99
Es	2.576911	1.648741	0.094023	99
Es	-1.716951	-0.193258	0.181683	99
Es	1.607444	-0.189856	0.182358	99
Es	0.163749	-0.189914	0.182575	99
Es	2.621105	2.593265	0.185686	99
Es	1.877739	-0.602352	-0.549302	99
Es	-1.026996	-0.189947	0.182568	99
Es	-2.714799	-0.521396	-0.406430	99
Es	-2.715288	-0.534792	0.763565	99
Es	1.862346	-0.664175	-1.341351	99
Es	-2.470600	-0.189931	0.182572	99
Es	-0.405608	-0.026098	-0.125337	99
Es	1.851467	-0.514610	0.755851	99
Es	1.915889	-1.175013	-0.934400	99
Es	2.075355	-0.910137	-0.963084	99
Es	2.010526	1.868121	0.066723	99
Es	2.089302	1.170900	0.182585	99
Es	2.473511	2.255803	0.182573	99
Es	2.285379	1.753779	0.378612	99
Es	2.408777	-0.860523	-0.970981	99
Es	-0.401056	0.014184	0.460420	99
Es	1.851838	0.534067	0.184728	99
Es	-0.412233	-0.556792	0.203866	99
37
Properties=species:S:1:pos:R:3:Z:I:1 energy=-321.59454315408226 field_type=dipole dipole="0.000000 0.000000 0.000000" charge=0
C	-2.470727	-0.189929	0.182574	6
C	-1.026727	-0.189929	0.182574	6
C	0.163433	-0.189929	0.182574	6
C	1.607433	-0.189929	0.182574	6
O	2.075533	-0.910409	-0.963046	8
C	2.089453	1.171241	0.182574	6
N	2.473663	2.256231	0.182574	7
H	-2.864707	0.830961	0.194224	1
H	-2.864797	-0.710449	1.060824	1
H	-2.864747	-0.690229	-0.707376	1
H	1.984743	-0.720559	1.062664	1
H	1.697453	-0.467069	-1.742736	1
Es	2.075355	-0.910151	-0.963044	99
Es	-0.405168	-0.030075	-0.126321	99
Es	-2.716891	0.485049	0.190219	99
Es	2.573281	1.656128	0.289526	99
Es	-1.026997	-0.189934	0.182560	99
Es	2.003825	1.865979	0.278562	99
Es	1.915817	-1.174052	-0.932713	99
Es	1.851536	-0.514809	0.755891	99
Es	-0.412627	-0.557327	0.209508	99
Es	-1.716868	-0.193384	0.181489	99
Es	1.852123	0.533952	0.182649	99
Es	2.409308	-0.860914	-0.969785	99
Es	2.473511	2.255804	0.182573	99
Es	1.607443	-0.189853	0.182362	99
Es	1.878848	-0.603444	-0.550603	99
Es	-2.470598	-0.189933	0.182573	99
Es	-2.714867	-0.521837	-0.406320	99
Es	-2.714975	-0.534389	0.762955	99
Es	0.867326	-0.168359	0.191332	99
Es	1.860680	-0.663428	-1.342681	99
Es	0.163750	-0.189912	0.182577	99
Es	2.620502	2.593517	0.179418	99
Es	2.089302	1.170897	0.182569	99
Es	-0.401102	0.018631	0.455704	99
Es	2.296107	1.748419	-0.020447	99
37
Properties=species:S:1:pos:R:3:Z:I:1 energy=-321.59454315408226 field_type=dipole dipole="0.000000 0.000000 0.000000" charge=0
C	-2.470727	-0.189929	0.182574	6
C	-1.026727	-0.189929	0.182574	6
C	0.163433	-0.189929	0.182574	6
C	1.607433	-0.189929	0.182574	6
O	2.075533	-0.910409	-0.963046	8
C	2.089453	1.171241	0.182574	6
N	2.473663	2.256231	0.182574	7
H	-2.864707	0.830961	0.194224	1
H	-2.864797	-0.710449	1.060824	1
H	-2.864747	-0.690229	-0.707376	1
H	1.984743	-0.720559	1.062664	1
H	1.697453	-0.467069	-1.742736	1
Es	0.867329	-0.168206	0.191177	99
Es	1.851808	0.534062	0.182853	99
Es	0.163750	-0.189922	0.182582	99
Es	1.916884	-1.173775	-0.932183	99
Es	2.621006	2.593244	0.179036	99
Es	-1.716833	-0.193422	0.181210	99
Es	-2.714902	-0.521572	-0.406374	99
Es	1.859969	-0.663922	-1.343434	99
Es	-2.470599	-0.189932	0.182574	99
Es	-0.402516	-0.062243	-0.135617	99
Es	2.572409	1.656387	0.291185	99
Es	1.851713	-0.514949	0.756092	99
Es	2.089305	1.170893	0.182570	99
Es	2.002220	1.866823	0.273378	99
Es	-1.026994	-0.189931	0.182561	99
Es	-2.715101	-0.534552	0.763063	99
Es	2.473512	2.255807	0.182573	99
Es	2.298344	1.747416	-0.016921	99
Es	2.075369	-0.910171	-0.963019	99
Es	-2.716763	0.484854	0.190307	99
Es	-0.402828	0.047241	0.437757	99
Es	-0.413579	-0.553701	0.236904	99
Es	2.409285	-0.860580	-0.969516	99
Es	1.878392	-0.603421	-0.550561	99
Es	1.607445	-0.189855	0.182358	99
37
Properties=species:S:1:pos:R:3:Z:I:1 energy=-321.59454315408226 field_type=dipole dipole="0.000000 0.000000 0.000000" charge=0
C	-2.470727	-0.189929	0.182574	6
C	-1.026727	-0.189929	0.182574	6
C	0.163433	-0.189929	0.182574	6
C	1.607433	-0.189929	0.182574	6
O	2.075533	-0.910409	-0.963046	8
C	2.089453	1.171241	0.182574	6
N	2.473663	2.256231	0.182574	7
H	-2.864707	0.830961	0.194224	1
H	-2.864797	-0.710449	1.060824	1
H	-2.864747	-0.690229	-0.707376	1
H	1.984743	-0.720559	1.062664	1
H	1.697453	-0.467069	-1.742736	1
Es	-2.715261	-0.521651	-0.406549	99
Es	2.089307	1.170896	0.182580	99
Es	-1.716736	-0.193413	0.181235	99
Es	2.002392	1.866966	0.273753	99
Es	2.409656	-0.861566	-0.968001	99
Es	0.867260	-0.168227	0.191270	99
Es	2.075353	-0.910150	-0.963036	99
Es	-1.026997	-0.189936	0.182561	99
Es	-0.401356	-0.076301	-0.138743	99
Es	1.607443	-0.189854	0.182360	99
Es	2.572647	1.656153	0.291549	99
Es	2.298079	1.747499	-0.017236	99
Es	-2.716642	0.484598	0.190533	99
Es	-2.470600	-0.189931	0.182573	99
Es	2.473513	2.255808	0.182573	99
Es	0.163750	-0.189914	0.182576	99
Es	-2.714977	-0.534249	0.762853	99
Es	1.851833	-0.515020	0.756071	99
Es	-0.403544	0.058997	0.427945	99
Es	1.862063	-0.662200	-1.342587	99
Es	-0.414025	-0.551321	0.249843	99
Es	1.877701	-0.604186	-0.550509	99
Es	1.915012	-1.173630	-0.934442	99
Es	2.621046	2.593083	0.178698	99
Es	1.851707	0.534121	0.182683	99
37
Properties=species:S:1:pos:R:3:Z:I:1 energy=-321.59454315408226 field_type=dipole dipole="0.000000 0.000000 0.000000" charge=0
C	-2.470727	-0.189929	0.182574	6
C	-1.026727	-0.189929	0.182574	6
C	0.163433	-0.189929	0.182574	6
C	1.607433	-0.189929	0.182574	6
O	2.075533	-0.910409	-0.963046	8
C	2.089453	1.171241	0.182574	6
N	2.473663	2.256231	0.182574	7
H	-2.864707	0.830961	0.194224	1
H	-2.864797	-0.710449	1.060824	1
H	-2.864747	-0.690229	-0.707376	1
H	1.984743	-0.720559	1.062664	1
H	1.697453	-0.467069	-1.742736	1
Es	2.621348	2.593091	0.178794	99
Es	-1.716743	-0.193272	0.181247	99
Es	2.001966	1.866982	0.272243	99
Es	1.851593	0.534253	0.182813	99
Es	1.859525	-0.664753	-1.343057	99
Es	1.878249	-0.603404	-0.551239	99
Es	2.075315	-0.910126	-0.963061	99
Es	1.607443	-0.189854	0.182357	99
Es	-0.402712	0.046398	0.437671	99
Es	1.917044	-1.173647	-0.931573	99
Es	-0.413617	-0.554026	0.236286	99
Es	1.851693	-0.514866	0.755828	99
Es	0.163750	-0.189916	0.182582	99
Es	-2.470600	-0.189931	0.182573	99
Es	2.409754	-0.859854	-0.969671	99
Es	-0.402597	-0.061049	-0.134846	99
Es	-1.026996	-0.189935	0.182567	99
Es	2.089292	1.170900	0.182565	99
Es	-2.715006	-0.521786	-0.406321	99
Es	2.573004	1.655948	0.289423	99
Es	-2.716853	0.484608	0.190225	99
Es	0.867242	-0.168309	0.191236	99
Es	2.298034	1.747605	-0.013652	99
Es	2.473511	2.255804	0.182573	99
Es	-2.715016	-0.534289	0.762990	99
37
Properties=species:S:1:pos:R:3:Z:I:1 energy=-321.59454315408226 field_type=dipole dipole="0.000000 0.000000 0.000000" charge=0
C	-2.470727	-0.189929	0.182574	6
C	-1.026727	-0.189929	0.182574	6
C	0.163433	-0.189929	0.182574	6
C	1.607433	-0.189929	0.182574	6
O	2.075533	-0.910409	-0.963046	8
C	2.089453	1.171241	0.182574	6
N	2.473663	2.256231	0.182574	7
H	-2.864707	0.830961	0.194224	1
H	-2.864797	-0.710449	1.060824	1
H	-2.864747	-0.690229	-0.707376	1
H	1.984743	-0.720559	1.062664	1
H	1.697453	-0.467069	-1.742736	1
Es	2.473511	2.255803	0.182573	99
Es	2.089300	1.170901	0.182585	99
Es	1.851436	-0.514412	0.755343	99
Es	2.410142	-0.862575	-0.971072	99
Es	-1.716681	-0.193279	0.181638	99
Es	-2.470604	-0.189932	0.182574	99
Es	-2.716548	0.484202	0.190239	99
Es	2.010464	1.868432	0.065875	99
Es	-2.714781	-0.520910	-0.406304	99
Es	0.163752	-0.189914	0.182572	99
Es	1.607449	-0.189861	0.182357	99
Es	2.579042	1.647899	0.103763	99
Es	-0.402404	0.040474	0.443166	99
Es	1.912651	-1.173354	-0.934567	99
Es	0.867205	-0.168482	0.190918	99
Es	1.863179	-0.663644	-1.339873	99
Es	-0.403244	-0.054724	-0.133590	99
Es	1.878805	-0.602395	-0.550313	99
Es	2.075323	-0.910073	-0.963067	99
Es	-2.715612	-0.534926	0.763355	99
Es	1.851293	0.534479	0.185057	99
Es	-0.413299	-0.554213	0.229520	99
Es	-1.026997	-0.189936	0.182563	99
Es	2.282613	1.754781	0.369989	99
Es	2.622631	2.592229	0.185250	99
37
Properties=species:S:1:pos:R:3:Z:I:1 energy=-321.59454315408226 field_type=dipole dipole="0.000000 0.000000 0.000000" charge=0
C	-2.470727	-0.189929	0.182574	6
C	-1.026727	-0.189929	0.182574	6
C	0.163433	-0.189929	0.182574	6
C	1.607433	-0.189929	0.182574	6
O	2.075533	-0.910409	-0.963046	8
C	2.089453	1.171241	0.182574	6
N	2.473663	2.256231	0.182574	7
H	-2.864707	0.830961	0.194224	1
H	-2.864797	-0.710449	1.060824	1
H	-2.864747	-0.690229	-0.707376	1
H	1.984743	-0.720559	1.062664	1
H	1.697453	-0.467069	-1.742736	1
Es	1.607444	-0.189855	0.182358	99
Es	2.010170	1.868516	0.066427	99
Es	2.473505	2.255797	0.182578	99
Es	1.862484	-0.663446	-1.340003	99
Es	-0.401861	-0.071744	-0.138095	99
Es	2.089299	1.170900	0.182586	99
Es	0.163751	-0.189914	0.182573	99
Es	1.851451	-0.514515	0.755220	99
Es	-2.714812	-0.521105	-0.406267	99
Es	1.877059	-0.604053	-0.549593	99
Es	-2.715622	-0.534691	0.763382	99
Es	-0.403272	0.054923	0.431983	99
Es	-2.716520	0.484207	0.190071	99
Es	-0.413806	-0.551590	0.245353	99
Es	2.075351	-0.910119	-0.963062	99
Es	2.578920	1.647912	0.104778	99
Es	-1.716673	-0.193379	0.181539	99
Es	1.914877	-1.173566	-0.935928	99
Es	0.867170	-0.168473	0.191009	99
Es	2.410218	-0.860748	-0.970271	99
Es	2.623083	2.592034	0.185125	99
Es	1.851291	0.534572	0.185071	99
Es	2.282716	1.754779	0.368582	99
Es	-1.026997	-0.189937	0.182562	99
Es	-2.470600	-0.189931	0.182573	99
37
Properties=species:S:1:pos:R:3:Z:I:1 energy=-321.59454315408226 field_type=dipole dipole="0.000000 0.000000 0.000000" charge=0
C	-2.470727	-0.189929	0.182574	6
C	-1.026727	-0.189929	0.182574	6
C	0.163433	-0.189929	0.182574	6
C	1.607433	-0.189929	0.182574	6
O	2.075533	-0.910409	-0.963046	8
C	2.089453	1.171241	0.182574	6
N	2.473663	2.256231	0.182574	7
H	-2.864707	0.830961	0.194224	1
H	-2.864797	-0.710449	1.060824	1
H	-2.864747	-0.690229	-0.707376	1
H	1.984743	-0.720559	1.062664	1
H	1.697453	-0.467069	-1.742736	1
Es	1.863076	-0.663941	-1.339968	99
Es	2.075363	-0.910143	-0.963033	99
Es	-2.716639	0.484247	0.190359	99
Es	1.914066	-1.173226	-0.935556	99
Es	-2.470600	-0.189931	0.182573	99
Es	-0.412750	-0.556097	0.214514	99
Es	0.867173	-0.168288	0.191147	99
Es	1.851312	-0.514308	0.755212	99
Es	2.285724	1.753877	0.364605	99
Es	2.577653	1.648190	0.101721	99
Es	1.877277	-0.603265	-0.549647	99
Es	2.089303	1.170898	0.182582	99
Es	2.410301	-0.861562	-0.970493	99
Es	-0.401392	0.023815	0.452816	99
Es	-2.715375	-0.534709	0.763163	99
Es	1.851376	0.534573	0.184856	99
Es	-1.026999	-0.189941	0.182560	99
Es	-1.716671	-0.193464	0.181683	99
Es	1.607444	-0.189855	0.182358	99
Es	-0.404768	-0.036316	-0.128366	99
Es	0.163750	-0.189912	0.182573	99
Es	2.473511	2.255800	0.182572	99
Es	2.623700	2.591738	0.185429	99
Es	2.007735	1.869550	0.073263	99
Es	-2.714947	-0.521158	-0.406370	99
