45
Properties=species:S:1:pos:R:3:Z:I:1 energy=-341.11783655970896 field_type=dipole dipole="0.000000 0.000000 0.000000" charge=0
C	-1.244502	-1.595176	1.047403	6
C	-0.710472	-1.263976	-0.333707	6
C	0.173428	-0.031746	-0.300637	6
C	-0.500011	1.314664	-0.047667	6
O	-0.225232	2.216884	-1.105997	8
N	1.455058	-0.192896	-0.491697	7
N	2.216578	0.924544	-0.449917	7
H	-1.829712	-2.518936	1.017003	1
H	-1.891662	-0.797686	1.425153	1
H	-0.427242	-1.727186	1.764183	1
H	-1.536242	-1.082576	-1.030427	1
H	-0.132122	-2.112166	-0.717837	1
H	-0.130932	1.735734	0.892633	1
H	-1.583242	1.193824	0.026363	1
H	0.739478	2.109214	-1.258677	1
H	3.094188	0.737014	-0.948067	1
H	2.532638	1.090464	0.511893	1
Es	-0.499915	1.314722	-0.047839	99
Es	-1.244492	-1.595156	1.047365	99
Es	1.621054	-0.525761	-0.576881	99
Es	2.033824	1.222987	-0.592736	99
Es	1.836494	0.379229	-0.454632	99
Es	-0.321567	-1.837020	-0.590129	99
Es	-0.972182	-1.411676	0.355963	99
Es	-0.375913	2.103000	-1.349679	99
Es	-0.225015	2.216692	-1.105823	99
Es	-1.684286	-1.045538	1.300935	99
Es	0.866000	-0.062014	-0.684389	99
Es	2.743180	0.798115	-0.740444	99
Es	-0.266012	-0.639170	-0.313178	99
Es	-0.686022	-1.683173	1.530993	99
Es	0.967775	-0.150291	-0.116882	99
Es	-0.157957	0.628413	-0.167336	99
Es	0.270843	2.155057	-1.179629	99
Es	1.454828	-0.192340	-0.491568	99
Es	2.216808	0.924053	-0.449709	99
Es	-1.270538	-1.128364	-0.801574	99
Es	-0.242101	1.585419	0.602905	99
Es	-1.641569	-2.221335	1.022248	99
Es	-0.275603	2.495290	-0.990889	99
Es	2.390603	1.006209	0.129744	99
Es	0.173402	-0.031752	-0.300599	99
Es	-0.309955	1.855815	-0.692909	99
Es	-0.710469	-1.263914	-0.333655	99
Es	-1.237640	1.220638	0.005724	99
45
Properties=species:S:1:pos:R:3:Z:I:1 energy=-341.11783655970896 field_type=dipole dipole="0.000000 0.000000 0.000000" charge=0
C	-1.244502	-1.595176	1.047403	6
C	-0.710472	-1.263976	-0.333707	6
C	0.173428	-0.031746	-0.300637	6
C	-0.500011	1.314664	-0.047667	6
O	-0.225232	2.216884	-1.105997	8
N	1.455058	-0.192896	-0.491697	7
N	2.216578	0.924544	-0.449917	7
H	-1.829712	-2.518936	1.017003	1
H	-1.891662	-0.797686	1.425153	1
H	-0.427242	-1.727186	1.764183	1
H	-1.536242	-1.082576	-1.030427	1
H	-0.132122	-2.112166	-0.717837	1
H	-0.130932	1.735734	0.892633	1
H	-1.583242	1.193824	0.026363	1
H	0.739478	2.109214	-1.258677	1
H	3.094188	0.737014	-0.948067	1
H	2.532638	1.090464	0.511893	1
Es	1.835633	0.379407	-0.456423	99
Es	-1.684590	-1.045701	1.300243	99
Es	1.454823	-0.192316	-0.491565	99
Es	-0.266008	-0.639045	-0.312599	99
Es	2.036795	1.221752	-0.587650	99
Es	-1.271802	-1.128564	-0.802128	99
Es	-0.274150	2.481148	-0.989378	99
Es	0.968453	-0.150489	-0.115025	99
Es	-1.244492	-1.595157	1.047364	99
Es	0.865444	-0.061084	-0.685230	99
Es	-0.684987	-1.683448	1.531784	99
Es	-0.972065	-1.412006	0.355492	99
Es	-0.499916	1.314720	-0.047836	99
Es	1.618240	-0.524165	-0.576495	99
Es	-0.225014	2.216690	-1.105835	99
Es	-1.240599	1.220142	0.006685	99
Es	-0.241062	1.584239	0.600713	99
Es	2.746973	0.798889	-0.741925	99
Es	-0.313144	1.857368	-0.693698	99
Es	-0.381774	2.110556	-1.349675	99
Es	-0.710467	-1.263912	-0.333658	99
Es	2.216817	0.924050	-0.449708	99
Es	-0.321800	-1.836543	-0.589309	99
Es	-1.641657	-2.220644	1.021674	99
Es	2.388153	1.004814	0.126967	99
Es	0.173399	-0.031752	-0.300595	99
Es	-0.156502	0.629556	-0.167327	99
Es	0.278878	2.159628	-1.179466	99
45
Properties=species:S:1:pos:R:3:Z:I:1 energy=-341.11783655970896 field_type=dipole dipole="0.000000 0.000000 0.000000" charge=0
C	-1.244502	-1.595176	1.047403	6
C	-0.710472	-1.263976	-0.333707	6
C	0.173428	-0.031746	-0.300637	6
C	-0.500011	1.314664	-0.047667	6
O	-0.225232	2.216884	-1.105997	8
N	1.455058	-0.192896	-0.491697	7
N	2.216578	0.924544	-0.449917	7
H	-1.829712	-2.518936	1.017003	1
H	-1.891662	-0.797686	1.425153	1
H	-0.427242	-1.727186	1.764183	1
H	-1.536242	-1.082576	-1.030427	1
H	-0.132122	-2.112166	-0.717837	1
H	-0.130932	1.735734	0.892633	1
H	-1.583242	1.193824	0.026363	1
H	0.739478	2.109214	-1.258677	1
H	3.094188	0.737014	-0.948067	1
H	2.532638	1.090464	0.511893	1
Es	-0.971745	-1.411982	0.355309	99
Es	-1.641512	-2.220258	1.021169	99
Es	-0.225031	2.216686	-1.105860	99
Es	-0.322056	-1.836461	-0.588710	99
Es	2.039543	1.220881	-0.583700	99
Es	-0.265943	-0.638859	-0.312488	99
Es	1.834488	0.379932	-0.458008	99
Es	-0.314997	1.859615	-0.693756	99
Es	1.616024	-0.523340	-0.575629	99
Es	-0.684114	-1.683632	1.532083	99
Es	-1.244493	-1.595156	1.047365	99
Es	-0.386416	2.115414	-1.349509	99
Es	-0.155414	0.630077	-0.166802	99
Es	-1.242229	1.220256	0.007651	99
Es	0.173401	-0.031753	-0.300594	99
Es	1.454858	-0.192334	-0.491573	99
Es	-0.271155	2.472073	-0.989218	99
Es	2.216823	0.924046	-0.449705	99
Es	0.282612	2.160994	-1.179138	99
Es	2.386237	1.003475	0.123887	99
Es	-0.499917	1.314721	-0.047839	99
Es	-0.710467	-1.263912	-0.333660	99
Es	-1.273011	-1.128786	-0.802156	99
Es	2.749858	0.799169	-0.742164	99
Es	-0.240721	1.583582	0.598672	99
Es	0.968811	-0.150164	-0.114494	99
Es	-1.684996	-1.045636	1.299838	99
Es	0.865137	-0.060514	-0.685573	99
45
Properties=species:S:1:pos:R:3:Z:I:1 energy=-341.11783655970896 field_type=dipole dipole="0.000000 0.000000 0.000000" charge=0
C	-1.244502	-1.595176	1.047403	6
C	-0.710472	-1.263976	-0.333707	6
C	0.173428	-0.031746	-0.300637	6
C	-0.500011	1.314664	-0.047667	6
O	-0.225232	2.216884	-1.105997	8
N	1.455058	-0.192896	-0.491697	7
N	2.216578	0.924544	-0.449917	7
H	-1.829712	-2.518936	1.017003	1
H	-1.891662	-0.797686	1.425153	1
H	-0.427242	-1.727186	1.764183	1
H	-1.536242	-1.082576	-1.030427	1
H	-0.132122	-2.112166	-0.717837	1
H	-0.130932	1.735734	0.892633	1
H	-1.583242	1.193824	0.026363	1
H	0.739478	2.109214	-1.258677	1
H	3.094188	0.737014	-0.948067	1
H	2.532638	1.090464	0.511893	1
Es	2.384223	1.002653	0.120631	99
Es	-0.154587	0.630323	-0.166382	99
Es	1.454807	-0.192311	-0.491559	99
Es	-1.685757	-1.045398	1.299766	99
Es	-1.640909	-2.220104	1.020764	99
Es	-0.971659	-1.411936	0.355012	99
Es	-0.265986	-0.638818	-0.312114	99
Es	0.865240	-0.059906	-0.685417	99
Es	2.216827	0.924043	-0.449703	99
Es	-0.316550	1.859819	-0.694177	99
Es	-1.244490	-1.595152	1.047361	99
Es	1.614463	-0.523185	-0.575094	99
Es	1.833600	0.380096	-0.459202	99
Es	-0.322069	-1.836752	-0.588421	99
Es	2.041685	1.219941	-0.580911	99
Es	-0.397569	2.130336	-1.350432	99
Es	0.284191	2.160066	-1.181913	99
Es	-1.273882	-1.128740	-0.801929	99
Es	-0.260035	2.457535	-0.984606	99
Es	0.968756	-0.149396	-0.114575	99
Es	-1.243142	1.220451	0.008414	99
Es	-0.710466	-1.263912	-0.333658	99
Es	-0.224972	2.216662	-1.105800	99
Es	-0.240681	1.583026	0.597112	99
Es	-0.683410	-1.683714	1.531925	99
Es	-0.499917	1.314721	-0.047840	99
Es	0.173396	-0.031751	-0.300597	99
Es	2.752468	0.799537	-0.741257	99
45
Properties=species:S:1:pos:R:3:Z:I:1 energy=-341.11783655970896 field_type=dipole dipole="0.000000 0.000000 0.000000" charge=0
C	-1.244502	-1.595176	1.047403	6
C	-0.710472	-1.263976	-0.333707	6
C	0.173428	-0.031746	-0.300637	6
C	-0.500011	1.314664	-0.047667	6
O	-0.225232	2.216884	-1.105997	8
N	1.455058	-0.192896	-0.491697	7
N	2.216578	0.924544	-0.449917	7
H	-1.829712	-2.518936	1.017003	1
H	-1.891662	-0.797686	1.425153	1
H	-0.427242	-1.727186	1.764183	1
H	-1.536242	-1.082576	-1.030427	1
H	-0.132122	-2.112166	-0.717837	1
H	-0.130932	1.735734	0.892633	1
H	-1.583242	1.193824	0.026363	1
H	0.739478	2.109214	-1.258677	1
H	3.094188	0.737014	-0.948067	1
H	2.532638	1.090464	0.511893	1
Es	-1.274585	-1.128795	-0.801580	99
Es	0.285432	2.160988	-1.181505	99
Es	-1.640558	-2.219892	1.020365	99
Es	-0.322038	-1.836888	-0.588348	99
Es	-0.499917	1.314720	-0.047838	99
Es	0.865102	-0.059088	-0.684618	99
Es	-0.224970	2.216716	-1.105729	99
Es	0.173396	-0.031750	-0.300604	99
Es	1.832718	0.380482	-0.460595	99
Es	2.754726	0.800021	-0.739976	99
Es	-1.243726	1.220719	0.008869	99
Es	-0.710466	-1.263913	-0.333660	99
Es	-1.244493	-1.595156	1.047366	99
Es	1.612941	-0.522771	-0.575586	99
Es	-0.153796	0.630391	-0.165982	99
Es	-0.266157	-0.638688	-0.311730	99
Es	2.216834	0.924036	-0.449698	99
Es	-0.240824	1.582715	0.595914	99
Es	-0.254600	2.447477	-0.983030	99
Es	-0.403440	2.138871	-1.351353	99
Es	2.043675	1.218970	-0.578295	99
Es	1.454804	-0.192335	-0.491562	99
Es	-1.686239	-1.045165	1.299750	99
Es	2.382419	1.001666	0.117454	99
Es	-0.971426	-1.411968	0.354841	99
Es	-0.682935	-1.683950	1.531804	99
Es	0.969034	-0.149238	-0.114485	99
Es	-0.317335	1.859959	-0.694793	99
45
Properties=species:S:1:pos:R:3:Z:I:1 energy=-341.11783655970896 field_type=dipole dipole="0.000000 0.000000 0.000000" charge=0
C	-1.244502	-1.595176	1.047403	6
C	-0.710472	-1.263976	-0.333707	6
C	0.173428	-0.031746	-0.300637	6
C	-0.500011	1.314664	-0.047667	6
O	-0.225232	2.216884	-1.105997	8
N	1.455058	-0.192896	-0.491697	7
N	2.216578	0.924544	-0.449917	7
H	-1.829712	-2.518936	1.017003	1
H	-1.891662	-0.797686	1.425153	1
H	-0.427242	-1.727186	1.764183	1
H	-1.536242	-1.082576	-1.030427	1
H	-0.132122	-2.112166	-0.717837	1
H	-0.130932	1.735734	0.892633	1
H	-1.583242	1.193824	0.026363	1
H	0.739478	2.109214	-1.258677	1
H	3.094188	0.737014	-0.948067	1
H	2.532638	1.090464	0.511893	1
Es	1.831666	0.381150	-0.461949	99
Es	-0.321975	-1.837079	-0.588380	99
Es	2.216827	0.924050	-0.449704	99
Es	-1.275448	-1.128922	-0.800970	99
Es	0.173396	-0.031752	-0.300593	99
Es	-0.971121	-1.412128	0.354580	99
Es	2.045875	1.217422	-0.576320	99
Es	-1.686665	-1.044832	1.299758	99
Es	-0.152881	0.630475	-0.165590	99
Es	-0.241143	1.582330	0.594778	99
Es	-0.266408	-0.638370	-0.311451	99
Es	1.611645	-0.522404	-0.575371	99
Es	-0.318161	1.861433	-0.694365	99
Es	-0.710466	-1.263912	-0.333659	99
Es	-0.409954	2.148277	-1.350680	99
Es	-0.224891	2.216831	-1.105592	99
Es	-1.244493	-1.595155	1.047364	99
Es	-0.682390	-1.683975	1.531416	99
Es	0.865605	-0.058874	-0.684531	99
Es	0.286132	2.159932	-1.182690	99
Es	-1.640199	-2.219870	1.020202	99
Es	-1.244136	1.220968	0.009311	99
Es	2.756304	0.800223	-0.738786	99
Es	1.454808	-0.192302	-0.491558	99
Es	-0.499917	1.314718	-0.047836	99
Es	2.381064	1.001325	0.115088	99
Es	0.968567	-0.148786	-0.114556	99
Es	-0.248065	2.437360	-0.982522	99
45
Properties=species:S:1:pos:R:3:Z:I:1 energy=-341.11783655970896 field_type=dipole dipole="0.000000 0.000000 0.000000" charge=0
C	-1.244502	-1.595176	1.047403	6
C	-0.710472	-1.263976	-0.333707	6
C	0.173428	-0.031746	-0.300637	6
C	-0.500011	1.314664	-0.047667	6
O	-0.225232	2.216884	-1.105997	8
N	1.455058	-0.192896	-0.491697	7
N	2.216578	0.924544	-0.449917	7
H	-1.829712	-2.518936	1.017003	1
H	-1.891662	-0.797686	1.425153	1
H	-0.427242	-1.727186	1.764183	1
H	-1.536242	-1.082576	-1.030427	1
H	-0.132122	-2.112166	-0.717837	1
H	-0.130932	1.735734	0.892633	1
H	-1.583242	1.193824	0.026363	1
H	0.739478	2.109214	-1.258677	1
H	3.094188	0.737014	-0.948067	1
H	2.532638	1.090464	0.511893	1
Es	-0.241397	1.582098	0.593863	99
Es	-0.410301	2.150139	-1.350225	99
Es	0.173395	-0.031751	-0.300598	99
Es	-0.681932	-1.683920	1.531217	99
Es	-0.319185	1.861856	-0.694113	99
Es	-0.266594	-0.638241	-0.311394	99
Es	-1.244494	-1.595155	1.047364	99
Es	2.757409	0.800559	-0.738053	99
Es	2.380400	0.999891	0.112628	99
Es	0.969502	-0.149212	-0.114507	99
Es	-1.639554	-2.219744	1.020014	99
Es	-1.276125	-1.128989	-0.800576	99
Es	-0.710467	-1.263912	-0.333657	99
Es	-0.225025	2.216545	-1.105873	99
Es	-1.687345	-1.044923	1.299843	99
Es	-0.152191	0.630471	-0.165215	99
Es	2.216818	0.924066	-0.449698	99
Es	-0.321949	-1.837252	-0.588280	99
Es	0.286802	2.160621	-1.182076	99
Es	0.864802	-0.058038	-0.683796	99
Es	1.830486	0.382090	-0.463506	99
Es	-1.244428	1.221192	0.009647	99
Es	-0.499917	1.314722	-0.047840	99
Es	1.454831	-0.192305	-0.491563	99
Es	1.610359	-0.521655	-0.575726	99
Es	-0.247259	2.434379	-0.983167	99
Es	-0.970943	-1.411936	0.354284	99
Es	2.047877	1.216540	-0.573599	99
45
Properties=species:S:1:pos:R:3:Z:I:1 energy=-341.11783655970896 field_type=dipole dipole="0.000000 0.000000 0.000000" charge=0
C	-1.244502	-1.595176	1.047403	6
C	-0.710472	-1.263976	-0.333707	6
C	0.173428	-0.031746	-0.300637	6
C	-0.500011	1.314664	-0.047667	6
O	-0.225232	2.216884	-1.105997	8
N	1.455058	-0.192896	-0.491697	7
N	2.216578	0.924544	-0.449917	7
H	-1.829712	-2.518936	1.017003	1
H	-1.891662	-0.797686	1.425153	1
H	-0.427242	-1.727186	1.764183	1
H	-1.536242	-1.082576	-1.030427	1
H	-0.132122	-2.112166	-0.717837	1
H	-0.130932	1.735734	0.892633	1
H	-1.583242	1.193824	0.026363	1
H	0.739478	2.109214	-1.258677	1
H	3.094188	0.737014	-0.948067	1
H	2.532638	1.090464	0.511893	1
Es	-0.241721	1.581802	0.592852	99
Es	-1.244493	-1.595155	1.047364	99
Es	-1.687869	-1.044847	1.299912	99
Es	-0.318716	1.864673	-0.692315	99
Es	-0.321977	-1.837349	-0.588124	99
Es	2.049062	1.215412	-0.572022	99
Es	2.216810	0.924044	-0.449711	99
Es	-0.970696	-1.411802	0.354180	99
Es	-0.151584	0.630478	-0.164870	99
Es	2.379470	0.999482	0.110272	99
Es	1.609454	-0.521032	-0.575422	99
Es	-0.681433	-1.683994	1.530933	99
Es	0.968827	-0.148660	-0.114363	99
Es	0.287218	2.160858	-1.182041	99
Es	-0.224985	2.216666	-1.105823	99
Es	-1.276875	-1.129138	-0.800164	99
Es	0.865499	-0.058106	-0.684034	99
Es	-1.639097	-2.219628	1.019706	99
Es	1.454795	-0.192349	-0.491561	99
Es	-0.499918	1.314719	-0.047836	99
Es	-1.244663	1.221389	0.010090	99
Es	2.758557	0.801002	-0.737031	99
Es	-0.710467	-1.263912	-0.333659	99
Es	-0.266595	-0.638220	-0.311173	99
Es	-0.412101	2.149567	-1.349762	99
Es	1.830083	0.382376	-0.464220	99
Es	-0.246404	2.431610	-0.985189	99
Es	0.173396	-0.031752	-0.300592	99
45
Properties=species:S:1:pos:R:3:Z:I:1 energy=-341.11783655970896 field_type=dipole dipole="0.000000 0.000000 0.000000" charge=0
C	-1.244502	-1.595176	1.047403	6
C	-0.710472	-1.263976	-0.333707	6
C	0.173428	-0.031746	-0.300637	6
C	-0.500011	1.314664	-0.047667	6
O	-0.225232	2.216884	-1.105997	8
N	1.455058	-0.192896	-0.491697	7
N	2.216578	0.924544	-0.449917	7
H	-1.829712	-2.518936	1.017003	1
H	-1.891662	-0.797686	1.425153	1
H	-0.427242	-1.727186	1.764183	1
H	-1.536242	-1.082576	-1.030427	1
H	-0.132122	-2.112166	-0.717837	1
H	-0.130932	1.735734	0.892633	1
H	-1.583242	1.193824	0.026363	1
H	0.739478	2.109214	-1.258677	1
H	3.094188	0.737014	-0.948067	1
H	2.532638	1.090464	0.511893	1
Es	1.454800	-0.192363	-0.491565	99
Es	-0.241972	1.581590	0.592201	99
Es	-0.681138	-1.683989	1.530656	99
Es	-0.970493	-1.411888	0.353904	99
Es	-0.320222	1.865115	-0.691621	99
Es	-0.710467	-1.263912	-0.333659	99
Es	2.759472	0.801211	-0.735919	99
Es	-0.150886	0.630390	-0.164798	99
Es	-1.277405	-1.129195	-0.799772	99
Es	0.968908	-0.148503	-0.114411	99
Es	1.828557	0.383700	-0.465606	99
Es	-1.688390	-1.044748	1.299983	99
Es	-0.244184	2.427202	-0.985914	99
Es	1.608755	-0.520830	-0.575494	99
Es	-0.225028	2.216701	-1.105860	99
Es	0.865490	-0.057800	-0.683678	99
Es	-1.244797	1.221615	0.010343	99
Es	-0.321922	-1.837457	-0.588126	99
Es	-0.266869	-0.638024	-0.310975	99
Es	-0.413185	2.153360	-1.349401	99
Es	2.378727	0.998933	0.108317	99
Es	-0.499919	1.314718	-0.047834	99
Es	2.051197	1.213654	-0.570074	99
Es	2.216706	0.924187	-0.449778	99
Es	-1.244494	-1.595156	1.047364	99
Es	0.287530	2.160885	-1.181923	99
Es	0.173395	-0.031751	-0.300596	99
Es	-1.638592	-2.219514	1.019636	99
45
Properties=species:S:1:pos:R:3:Z:I:1 energy=-341.11783655970896 field_type=dipole dipole="0.000000 0.000000 0.000000" charge=0
C	-1.244502	-1.595176	1.047403	6
C	-0.710472	-1.263976	-0.333707	6
C	0.173428	-0.031746	-0.300637	6
C	-0.500011	1.314664	-0.047667	6
O	-0.225232	2.216884	-1.105997	8
N	1.455058	-0.192896	-0.491697	7
N	2.216578	0.924544	-0.449917	7
H	-1.829712	-2.518936	1.017003	1
H	-1.891662	-0.797686	1.425153	1
H	-0.427242	-1.727186	1.764183	1
H	-1.536242	-1.082576	-1.030427	1
H	-0.132122	-2.112166	-0.717837	1
H	-0.130932	1.735734	0.892633	1
H	-1.583242	1.193824	0.026363	1
H	0.739478	2.109214	-1.258677	1
H	3.094188	0.737014	-0.948067	1
H	2.532638	1.090464	0.511893	1
Es	-1.688570	-1.044558	1.300113	99
Es	1.827054	0.385256	-0.466326	99
Es	-0.680852	-1.683828	1.530158	99
Es	-0.225066	2.216775	-1.105891	99
Es	-1.244494	-1.595156	1.047366	99
Es	-0.970434	-1.411933	0.353873	99
Es	-1.244898	1.221699	0.010464	99
Es	1.454795	-0.192307	-0.491556	99
Es	-0.710466	-1.263912	-0.333656	99
Es	-0.150424	0.630396	-0.164334	99
Es	-1.277749	-1.129221	-0.799160	99
Es	0.865518	-0.057190	-0.682743	99
Es	-0.267031	-0.637859	-0.310876	99
Es	2.216844	0.924021	-0.449705	99
Es	-0.237516	2.417355	-0.983366	99
Es	1.608383	-0.520817	-0.576745	99
Es	0.969032	-0.148942	-0.114512	99
Es	-0.499919	1.314718	-0.047835	99
Es	-0.320235	1.863999	-0.693318	99
Es	2.759948	0.801627	-0.735649	99
Es	-0.242153	1.581515	0.591746	99
Es	0.173396	-0.031752	-0.300592	99
Es	2.052636	1.212024	-0.568387	99
Es	-0.419788	2.165451	-1.348550	99
Es	0.287455	2.159507	-1.183292	99
Es	-0.321887	-1.837663	-0.588388	99
Es	-1.638388	-2.219747	1.019609	99
Es	2.378383	0.998676	0.106950	99
45
Properties=species:S:1:pos:R:3:Z:I:1 energy=-341.11783655970896 field_type=dipole dipole="0.000000 0.000000 0.000000" charge=0
C	-1.244502	-1.595176	1.047403	6
C	-0.710472	-1.263976	-0.333707	6
C	0.173428	-0.031746	-0.300637	6
C	-0.500011	1.314664	-0.047667	6
O	-0.225232	2.216884	-1.105997	8
N	1.455058	-0.192896	-0.491697	7
N	2.216578	0.924544	-0.449917	7
H	-1.829712	-2.518936	1.017003	1
H	-1.891662	-0.797686	1.425153	1
H	-0.427242	-1.727186	1.764183	1
H	-1.536242	-1.082576	-1.030427	1
H	-0.132122	-2.112166	-0.717837	1
H	-0.130932	1.735734	0.892633	1
H	-1.583242	1.193824	0.026363	1
H	0.739478	2.109214	-1.258677	1
H	3.094188	0.737014	-0.948067	1
H	2.532638	1.090464	0.511893	1
Es	-0.150038	0.630404	-0.164424	99
Es	-0.225032	2.216549	-1.105896	99
Es	1.826803	0.385755	-0.467729	99
Es	0.969226	-0.148678	-0.114453	99
Es	2.054025	1.210739	-0.566902	99
Es	2.216784	0.924077	-0.449725	99
Es	-1.244494	-1.595155	1.047364	99
Es	0.173396	-0.031752	-0.300591	99
Es	-0.680609	-1.683883	1.530094	99
Es	0.865374	-0.056967	-0.682644	99
Es	-0.322018	1.862941	-0.693507	99
Es	2.760510	0.801758	-0.734972	99
Es	-0.321893	-1.837720	-0.588263	99
Es	-0.710466	-1.263913	-0.333658	99
Es	2.377968	0.998075	0.105563	99
Es	-0.499916	1.314726	-0.047842	99
Es	-0.242228	1.581405	0.591309	99
Es	-1.278421	-1.129327	-0.798772	99
Es	-0.417563	2.165577	-1.348102	99
Es	-0.970018	-1.411748	0.353497	99
Es	-1.689157	-1.044704	1.300177	99
Es	-0.238336	2.418245	-0.983625	99
Es	1.454822	-0.192294	-0.491557	99
Es	1.607149	-0.520050	-0.576268	99
Es	-0.267122	-0.637819	-0.310771	99
Es	-1.244999	1.221848	0.010664	99
Es	-1.637840	-2.219506	1.019410	99
Es	0.287667	2.159551	-1.182979	99
45
Properties=species:S:1:pos:R:3:Z:I:1 energy=-341.11783655970896 field_type=dipole dipole="0.000000 0.000000 0.000000" charge=0
C	-1.244502	-1.595176	1.047403	6
C	-0.710472	-1.263976	-0.333707	6
C	0.173428	-0.031746	-0.300637	6
C	-0.500011	1.314664	-0.047667	6
O	-0.225232	2.216884	-1.105997	8
N	1.455058	-0.192896	-0.491697	7
N	2.216578	0.924544	-0.449917	7
H	-1.829712	-2.518936	1.017003	1
H	-1.891662	-0.797686	1.425153	1
H	-0.427242	-1.727186	1.764183	1
H	-1.536242	-1.082576	-1.030427	1
H	-0.132122	-2.112166	-0.717837	1
H	-0.130932	1.735734	0.892633	1
H	-1.583242	1.193824	0.026363	1
H	0.739478	2.109214	-1.258677	1
H	3.094188	0.737014	-0.948067	1
H	2.532638	1.090464	0.511893	1
Es	-0.234962	2.412531	-0.983749	99
Es	-0.710464	-1.263912	-0.333658	99
Es	-0.267035	-0.637656	-0.310765	99
Es	1.454793	-0.192328	-0.491557	99
Es	-1.278619	-1.129482	-0.798354	99
Es	-0.680451	-1.683802	1.529793	99
Es	1.825667	0.386992	-0.468141	99
Es	-1.689164	-1.044500	1.300197	99
Es	-0.499918	1.314723	-0.047840	99
Es	2.377494	0.997943	0.104220	99
Es	0.865438	-0.056659	-0.682235	99
Es	-0.969966	-1.411773	0.353440	99
Es	-1.637828	-2.219651	1.019424	99
Es	-0.422001	2.170576	-1.347323	99
Es	1.607136	-0.520040	-0.576949	99
Es	-0.320932	1.864070	-0.692785	99
Es	2.216838	0.924021	-0.449701	99
Es	-1.245069	1.222027	0.010820	99
Es	0.969220	-0.148859	-0.114582	99
Es	0.173396	-0.031752	-0.300590	99
Es	-0.149652	0.630371	-0.164131	99
Es	2.761046	0.802155	-0.734364	99
Es	-1.244494	-1.595156	1.047365	99
Es	-0.224989	2.216536	-1.105895	99
Es	2.055009	1.209341	-0.565778	99
Es	-0.242459	1.581225	0.590835	99
Es	-0.322020	-1.837877	-0.588285	99
Es	0.287562	2.159069	-1.184014	99
45
Properties=species:S:1:pos:R:3:Z:I:1 energy=-341.11783655970896 field_type=dipole dipole="0.000000 0.000000 0.000000" charge=0
C	-1.244502	-1.595176	1.047403	6
C	-0.710472	-1.263976	-0.333707	6
C	0.173428	-0.031746	-0.300637	6
C	-0.500011	1.314664	-0.047667	6
O	-0.225232	2.216884	-1.105997	8
N	1.455058	-0.192896	-0.491697	7
N	2.216578	0.924544	-0.449917	7
H	-1.829712	-2.518936	1.017003	1
H	-1.891662	-0.797686	1.425153	1
H	-0.427242	-1.727186	1.764183	1
H	-1.536242	-1.082576	-1.030427	1
H	-0.132122	-2.112166	-0.717837	1
H	-0.130932	1.735734	0.892633	1
H	-1.583242	1.193824	0.026363	1
H	0.739478	2.109214	-1.258677	1
H	3.094188	0.737014	-0.948067	1
H	2.532638	1.090464	0.511893	1
Es	-0.710466	-1.263913	-0.333660	99
Es	2.055873	1.208209	-0.564790	99
Es	-0.242566	1.581179	0.590405	99
Es	-0.499917	1.314718	-0.047836	99
Es	-0.149113	0.630320	-0.164066	99
Es	0.866226	-0.056883	-0.682441	99
Es	1.825426	0.387434	-0.468783	99
Es	0.287749	2.159693	-1.184040	99
Es	0.968450	-0.148504	-0.114343	99
Es	-0.320883	1.863489	-0.693439	99
Es	2.216847	0.924020	-0.449709	99
Es	-1.279054	-1.129495	-0.797986	99
Es	2.761470	0.802359	-0.733801	99
Es	-0.680170	-1.683810	1.529554	99
Es	-0.321869	-1.837969	-0.588348	99
Es	1.606419	-0.519393	-0.576745	99
Es	-0.225022	2.216655	-1.105835	99
Es	-1.637314	-2.219498	1.019292	99
Es	1.454798	-0.192392	-0.491567	99
Es	-0.267452	-0.637509	-0.310523	99
Es	2.377151	0.997732	0.102958	99
Es	-1.244494	-1.595155	1.047363	99
Es	-0.969836	-1.411642	0.353205	99
Es	-1.689674	-1.044644	1.300382	99
Es	0.173396	-0.031752	-0.300591	99
Es	-1.245126	1.222111	0.011037	99
Es	-0.235034	2.411620	-0.983458	99
Es	-0.422237	2.171153	-1.346836	99
45
Properties=species:S:1:pos:R:3:Z:I:1 energy=-341.11783655970896 field_type=dipole dipole="0.000000 0.000000 0.000000" charge=0
C	-1.244502	-1.595176	1.047403	6
C	-0.710472	-1.263976	-0.333707	6
C	0.173428	-0.031746	-0.300637	6
C	-0.500011	1.314664	-0.047667	6
O	-0.225232	2.216884	-1.105997	8
N	1.455058	-0.192896	-0.491697	7
N	2.216578	0.924544	-0.449917	7
H	-1.829712	-2.518936	1.017003	1
H	-1.891662	-0.797686	1.425153	1
H	-0.427242	-1.727186	1.764183	1
H	-1.536242	-1.082576	-1.030427	1
H	-0.132122	-2.112166	-0.717837	1
H	-0.130932	1.735734	0.892633	1
H	-1.583242	1.193824	0.026363	1
H	0.739478	2.109214	-1.258677	1
H	3.094188	0.737014	-0.948067	1
H	2.532638	1.090464	0.511893	1
Es	-0.321853	1.864716	-0.691940	99
Es	0.287670	2.158722	-1.184510	99
Es	0.866081	-0.056455	-0.681731	99
Es	1.824858	0.388231	-0.469265	99
Es	2.376767	0.997757	0.102089	99
Es	-0.225025	2.216606	-1.105906	99
Es	-0.242804	1.581064	0.590031	99
Es	-1.279670	-1.129576	-0.797397	99
Es	0.968698	-0.148640	-0.114564	99
Es	-0.232652	2.407808	-0.984666	99
Es	1.454793	-0.192322	-0.491557	99
Es	-0.680123	-1.683723	1.529359	99
Es	-1.637344	-2.219680	1.019262	99
Es	-0.710466	-1.263914	-0.333659	99
Es	-0.423629	2.174690	-1.346236	99
Es	-0.321888	-1.838011	-0.588450	99
Es	-1.245172	1.222245	0.011105	99
Es	0.173395	-0.031751	-0.300596	99
Es	-1.689636	-1.044503	1.300380	99
Es	-0.499918	1.314716	-0.047833	99
Es	-1.244495	-1.595156	1.047364	99
Es	1.605982	-0.519404	-0.577280	99
Es	-0.969286	-1.411629	0.352819	99
Es	2.761859	0.802652	-0.733275	99
Es	-0.148745	0.630326	-0.163959	99
Es	2.056801	1.206812	-0.564066	99
Es	-0.267443	-0.637499	-0.310418	99
Es	2.216822	0.924052	-0.449701	99
45
Properties=species:S:1:pos:R:3:Z:I:1 energy=-341.11783655970896 field_type=dipole dipole="0.000000 0.000000 0.000000" charge=0
C	-1.244502	-1.595176	1.047403	6
C	-0.710472	-1.263976	-0.333707	6
C	0.173428	-0.031746	-0.300637	6
C	-0.500011	1.314664	-0.047667	6
O	-0.225232	2.216884	-1.105997	8
N	1.455058	-0.192896	-0.491697	7
N	2.216578	0.924544	-0.449917	7
H	-1.829712	-2.518936	1.017003	1
H	-1.891662	-0.797686	1.425153	1
H	-0.427242	-1.727186	1.764183	1
H	-1.536242	-1.082576	-1.030427	1
H	-0.132122	-2.112166	-0.717837	1
H	-0.130932	1.735734	0.892633	1
H	-1.583242	1.193824	0.026363	1
H	0.739478	2.109214	-1.258677	1
H	3.094188	0.737014	-0.948067	1
H	2.532638	1.090464	0.511893	1
Es	-0.420186	2.169520	-1.346661	99
Es	-0.679794	-1.683759	1.529262	99
Es	0.865327	-0.056185	-0.681699	99
Es	-0.710467	-1.263913	-0.333661	99
Es	-0.267705	-0.637450	-0.310369	99
Es	1.454798	-0.192297	-0.491556	99
Es	-0.321808	-1.837926	-0.588484	99
Es	-1.244495	-1.595156	1.047363	99
Es	0.288009	2.160173	-1.183480	99
Es	0.969476	-0.148807	-0.114447	99
Es	-0.969356	-1.411684	0.352910	99
Es	2.216849	0.923999	-0.449698	99
Es	1.824142	0.389263	-0.470378	99
Es	-0.224972	2.216574	-1.105773	99
Es	-0.499918	1.314717	-0.047835	99
Es	2.057629	1.206586	-0.562422	99
Es	-0.148392	0.630288	-0.163862	99
Es	-0.242981	1.580845	0.589616	99
Es	0.173396	-0.031752	-0.300592	99
Es	-0.235887	2.411517	-0.985181	99
Es	-1.279897	-1.129607	-0.797270	99
Es	-1.690290	-1.044725	1.300438	99
Es	1.605555	-0.518889	-0.577016	99
Es	-1.636724	-2.219326	1.019138	99
Es	-1.245222	1.222297	0.011310	99
Es	-0.322435	1.864745	-0.692078	99
Es	2.376761	0.996484	0.100542	99
Es	2.762162	0.802601	-0.732722	99
45
Properties=species:S:1:pos:R:3:Z:I:1 energy=-341.11783655970896 field_type=dipole dipole="0.000000 0.000000 0.000000" charge=0
C	-1.244502	-1.595176	1.047403	6
C	-0.710472	-1.263976	-0.333707	6
C	0.173428	-0.031746	-0.300637	6
C	-0.500011	1.314664	-0.047667	6
O	-0.225232	2.216884	-1.105997	8
N	1.455058	-0.192896	-0.491697	7
N	2.216578	0.924544	-0.449917	7
H	-1.829712	-2.518936	1.017003	1
H	-1.891662	-0.797686	1.425153	1
H	-0.427242	-1.727186	1.764183	1
H	-1.536242	-1.082576	-1.030427	1
H	-0.132122	-2.112166	-0.717837	1
H	-0.130932	1.735734	0.892633	1
H	-1.583242	1.193824	0.026363	1
H	0.739478	2.109214	-1.258677	1
H	3.094188	0.737014	-0.948067	1
H	2.532638	1.090464	0.511893	1
Es	-0.679941	-1.683663	1.529004	99
Es	1.823226	0.390415	-0.470371	99
Es	-0.224980	2.216509	-1.105893	99
Es	-0.710466	-1.263914	-0.333660	99
Es	-0.148137	0.630359	-0.163898	99
Es	0.968921	-0.148794	-0.114599	99
Es	1.605735	-0.519336	-0.577935	99
Es	-1.244495	-1.595156	1.047365	99
Es	2.058415	1.204509	-0.562135	99
Es	1.454808	-0.192290	-0.491557	99
Es	-0.229993	2.402041	-0.984275	99
Es	-0.242946	1.580889	0.589505	99
Es	-1.637154	-2.219773	1.019205	99
Es	-0.267710	-0.637254	-0.310186	99
Es	0.173397	-0.031752	-0.300590	99
Es	-0.321845	-1.838143	-0.588622	99
Es	2.762209	0.803080	-0.732995	99
Es	0.287730	2.158819	-1.185082	99
Es	-0.968835	-1.411611	0.352449	99
Es	2.216839	0.924053	-0.449694	99
Es	-0.322274	1.863797	-0.692571	99
Es	0.865958	-0.056075	-0.681293	99
Es	-1.280285	-1.129756	-0.796583	99
Es	-1.689819	-1.044341	1.300463	99
Es	-1.245258	1.222403	0.011324	99
Es	2.376535	0.997283	0.100775	99
Es	-0.499919	1.314717	-0.047835	99
Es	-0.426142	2.181117	-1.344919	99
45
Properties=species:S:1:pos:R:3:Z:I:1 energy=-341.11783655970896 field_type=dipole dipole="0.000000 0.000000 0.000000" charge=0
C	-1.244502	-1.595176	1.047403	6
C	-0.710472	-1.263976	-0.333707	6
C	0.173428	-0.031746	-0.300637	6
C	-0.500011	1.314664	-0.047667	6
O	-0.225232	2.216884	-1.105997	8
N	1.455058	-0.192896	-0.491697	7
N	2.216578	0.924544	-0.449917	7
H	-1.829712	-2.518936	1.017003	1
H	-1.891662	-0.797686	1.425153	1
H	-0.427242	-1.727186	1.764183	1
H	-1.536242	-1.082576	-1.030427	1
H	-0.132122	-2.112166	-0.717837	1
H	-0.130932	1.735734	0.892633	1
H	-1.583242	1.193824	0.026363	1
H	0.739478	2.109214	-1.258677	1
H	3.094188	0.737014	-0.948067	1
H	2.532638	1.090464	0.511893	1
Es	-0.267677	-0.637292	-0.310345	99
Es	0.287903	2.159036	-1.184518	99
Es	-1.280707	-1.129846	-0.796298	99
Es	1.454802	-0.192294	-0.491555	99
Es	-0.147948	0.630388	-0.163774	99
Es	-0.968921	-1.411513	0.352359	99
Es	0.173396	-0.031752	-0.300590	99
Es	1.822915	0.390906	-0.471022	99
Es	-0.499919	1.314718	-0.047835	99
Es	1.605441	-0.519064	-0.577360	99
Es	2.762528	0.803251	-0.732422	99
Es	-0.423644	2.177935	-1.345258	99
Es	2.058965	1.204174	-0.561077	99
Es	2.216795	0.924071	-0.449719	99
Es	-1.245286	1.222398	0.011360	99
Es	-1.690238	-1.044464	1.300535	99
Es	-0.224972	2.216571	-1.105861	99
Es	-0.679454	-1.683622	1.528692	99
Es	-0.321858	-1.838204	-0.588491	99
Es	0.866283	-0.056302	-0.681575	99
Es	2.376386	0.996544	0.099507	99
Es	-0.710465	-1.263913	-0.333658	99
Es	-1.636740	-2.219552	1.019178	99
Es	-0.231235	2.403744	-0.985981	99
Es	-0.243198	1.580679	0.589221	99
Es	-1.244496	-1.595156	1.047363	99
Es	-0.323647	1.865084	-0.690950	99
Es	0.968568	-0.148392	-0.114528	99
45
Properties=species:S:1:pos:R:3:Z:I:1 energy=-341.11783655970896 field_type=dipole dipole="0.000000 0.000000 0.000000" charge=0
C	-1.244502	-1.595176	1.047403	6
C	-0.710472	-1.263976	-0.333707	6
C	0.173428	-0.031746	-0.300637	6
C	-0.500011	1.314664	-0.047667	6
O	-0.225232	2.216884	-1.105997	8
N	1.455058	-0.192896	-0.491697	7
N	2.216578	0.924544	-0.449917	7
H	-1.829712	-2.518936	1.017003	1
H	-1.891662	-0.797686	1.425153	1
H	-0.427242	-1.727186	1.764183	1
H	-1.536242	-1.082576	-1.030427	1
H	-0.132122	-2.112166	-0.717837	1
H	-0.130932	1.735734	0.892633	1
H	-1.583242	1.193824	0.026363	1
H	0.739478	2.109214	-1.258677	1
H	3.094188	0.737014	-0.948067	1
H	2.532638	1.090464	0.511893	1
Es	2.216848	0.924005	-0.449700	99
Es	0.173396	-0.031753	-0.300591	99
Es	-0.225016	2.216441	-1.105949	99
Es	-1.244496	-1.595155	1.047363	99
Es	-0.421499	2.177085	-1.345094	99
Es	0.288019	2.159204	-1.184206	99
Es	1.454815	-0.192300	-0.491555	99
Es	2.059496	1.203656	-0.560223	99
Es	-0.232268	2.405297	-0.985959	99
Es	0.968699	-0.148491	-0.114452	99
Es	1.604632	-0.518373	-0.577307	99
Es	-1.245302	1.222432	0.011543	99
Es	2.762783	0.803269	-0.731955	99
Es	1.823008	0.391169	-0.471808	99
Es	-0.968741	-1.411460	0.352018	99
Es	-0.325000	1.864144	-0.691331	99
Es	-0.499919	1.314718	-0.047835	99
Es	-1.281082	-1.129951	-0.796039	99
Es	-0.243176	1.580760	0.588994	99
Es	-0.147717	0.630382	-0.163779	99
Es	-0.710464	-1.263914	-0.333655	99
Es	-1.690612	-1.044641	1.300575	99
Es	0.866189	-0.056066	-0.681475	99
Es	-0.679269	-1.683657	1.528663	99
Es	2.376223	0.996041	0.098686	99
Es	-1.636386	-2.219318	1.019107	99
Es	-0.321737	-1.838186	-0.588453	99
Es	-0.267847	-0.637205	-0.310182	99
45