41
Properties=species:S:1:pos:R:3:Z:I:1 energy=-359.7728702587189 field_type=dipole dipole="0.000000 0.000000 0.000000" charge=0
C	-0.691023	-1.747881	0.052340	6
C	0.579917	-0.961581	-0.211240	6
C	0.310877	0.523509	-0.136110	6
C	0.384367	1.165669	1.233940	6
O	0.583067	0.492029	2.233840	8
N	0.003247	1.170609	-1.222720	7
O	-0.237373	2.526559	-0.985770	8
H	-0.494983	-2.822241	-0.013310	1
H	-1.466123	-1.495891	-0.678790	1
H	-1.092013	-1.532951	1.047840	1
H	0.961287	-1.200631	-1.210670	1
H	1.359627	-1.235051	0.507090	1
H	0.257177	2.257489	1.261300	1
H	-0.458053	2.860359	-1.877740	1
Es	0.343327	0.853230	0.532357	99
Es	0.833227	-1.116746	-0.888832	99
Es	-0.237314	2.526363	-0.986143	99
Es	-0.029644	1.050789	-1.585353	99
Es	0.758094	0.771467	1.829112	99
Es	0.579862	-0.961490	-0.211231	99
Es	-0.052216	-1.333202	-0.077430	99
Es	-1.213248	-1.573252	-0.448275	99
Es	0.614052	0.189091	2.166848	99
Es	-0.960016	-1.598165	0.725404	99
Es	-0.132993	1.933176	-1.084607	99
Es	-0.690975	-1.747853	0.052327	99
Es	0.423346	0.954098	-0.756006	99
Es	0.260437	0.708738	1.881665	99
Es	0.384363	1.165599	1.233874	99
Es	-0.551578	-2.476214	0.005953	99
Es	0.589850	0.659337	2.496163	99
Es	0.310866	0.523548	-0.136081	99
Es	0.035134	2.633126	-0.897259	99
Es	0.298928	1.897622	1.248106	99
Es	0.583018	0.492187	2.233586	99
Es	-0.136118	0.835634	-0.665527	99
Es	-0.354398	2.697260	-1.462093	99
Es	0.003281	1.170886	-1.222115	99
Es	1.102052	-1.134818	0.271525	99
Es	0.445517	-0.193671	-0.172507	99
Es	-0.485869	2.528857	-0.805703	99
41
Properties=species:S:1:pos:R:3:Z:I:1 energy=-359.7728702587189 field_type=dipole dipole="0.000000 0.000000 0.000000" charge=0
C	-0.691023	-1.747881	0.052340	6
C	0.579917	-0.961581	-0.211240	6
C	0.310877	0.523509	-0.136110	6
C	0.384367	1.165669	1.233940	6
O	0.583067	0.492029	2.233840	8
N	0.003247	1.170609	-1.222720	7
O	-0.237373	2.526559	-0.985770	8
H	-0.494983	-2.822241	-0.013310	1
H	-1.466123	-1.495891	-0.678790	1
H	-1.092013	-1.532951	1.047840	1
H	0.961287	-1.200631	-1.210670	1
H	1.359627	-1.235051	0.507090	1
H	0.257177	2.257489	1.261300	1
H	-0.458053	2.860359	-1.877740	1
Es	-0.027565	1.048934	-1.585350	99
Es	-0.135758	0.836625	-0.664135	99
Es	0.616807	0.179765	2.183107	99
Es	0.020335	2.625937	-0.894677	99
Es	-0.237321	2.526394	-0.986119	99
Es	0.443349	-0.193788	-0.172910	99
Es	-0.957575	-1.597748	0.725279	99
Es	-0.132205	1.930513	-1.080291	99
Es	1.103187	-1.137856	0.275216	99
Es	0.003286	1.170854	-1.222119	99
Es	-0.353152	2.707185	-1.468057	99
Es	-0.473541	2.528603	-0.810631	99
Es	-1.214890	-1.571187	-0.451472	99
Es	0.421724	0.955406	-0.753969	99
Es	-0.690974	-1.747855	0.052329	99
Es	0.342548	0.853264	0.532156	99
Es	0.384376	1.165601	1.233870	99
Es	0.579862	-0.961490	-0.211231	99
Es	-0.549176	-2.476111	0.007238	99
Es	0.589681	0.670942	2.480969	99
Es	0.756235	0.769102	1.827343	99
Es	0.310865	0.523550	-0.136083	99
Es	0.830810	-1.117354	-0.888790	99
Es	0.260173	0.708492	1.882207	99
Es	-0.051760	-1.332067	-0.077718	99
Es	0.298642	1.897704	1.248004	99
Es	0.583019	0.492182	2.233591	99
41
Properties=species:S:1:pos:R:3:Z:I:1 energy=-359.7728702587189 field_type=dipole dipole="0.000000 0.000000 0.000000" charge=0
C	-0.691023	-1.747881	0.052340	6
C	0.579917	-0.961581	-0.211240	6
C	0.310877	0.523509	-0.136110	6
C	0.384367	1.165669	1.233940	6
O	0.583067	0.492029	2.233840	8
N	0.003247	1.170609	-1.222720	7
O	-0.237373	2.526559	-0.985770	8
H	-0.494983	-2.822241	-0.013310	1
H	-1.466123	-1.495891	-0.678790	1
H	-1.092013	-1.532951	1.047840	1
H	0.961287	-1.200631	-1.210670	1
H	1.359627	-1.235051	0.507090	1
H	0.257177	2.257489	1.261300	1
H	-0.458053	2.860359	-1.877740	1
Es	0.298833	1.897554	1.248077	99
Es	0.310875	0.523548	-0.136075	99
Es	0.829256	-1.118244	-0.889672	99
Es	0.579862	-0.961489	-0.211230	99
Es	-0.133779	1.928504	-1.075142	99
Es	0.757151	0.762117	1.823859	99
Es	1.101736	-1.141180	0.278857	99
Es	0.419455	0.956284	-0.752561	99
Es	-0.463344	2.533680	-0.808884	99
Es	-0.690975	-1.747853	0.052329	99
Es	0.441464	-0.193958	-0.173061	99
Es	0.578474	0.692867	2.411881	99
Es	-0.134495	0.837747	-0.663204	99
Es	-0.026069	1.047223	-1.586436	99
Es	-1.214223	-1.569110	-0.454402	99
Es	-0.956206	-1.597255	0.726440	99
Es	-0.547633	-2.475225	0.007384	99
Es	-0.237606	2.526284	-0.986109	99
Es	0.384364	1.165602	1.233868	99
Es	0.260532	0.701785	1.877279	99
Es	0.626758	0.171536	2.260805	99
Es	0.003282	1.170871	-1.222115	99
Es	0.583008	0.492189	2.233502	99
Es	-0.353208	2.711125	-1.469280	99
Es	0.012139	2.618414	-0.902285	99
Es	0.342143	0.853321	0.532278	99
Es	-0.050810	-1.330739	-0.078346	99
41
Properties=species:S:1:pos:R:3:Z:I:1 energy=-359.7728702587189 field_type=dipole dipole="0.000000 0.000000 0.000000" charge=0
C	-0.691023	-1.747881	0.052340	6
C	0.579917	-0.961581	-0.211240	6
C	0.310877	0.523509	-0.136110	6
C	0.384367	1.165669	1.233940	6
O	0.583067	0.492029	2.233840	8
N	0.003247	1.170609	-1.222720	7
O	-0.237373	2.526559	-0.985770	8
H	-0.494983	-2.822241	-0.013310	1
H	-1.466123	-1.495891	-0.678790	1
H	-1.092013	-1.532951	1.047840	1
H	0.961287	-1.200631	-1.210670	1
H	1.359627	-1.235051	0.507090	1
H	0.257177	2.257489	1.261300	1
H	-0.458053	2.860359	-1.877740	1
Es	-0.023585	1.048075	-1.585311	99
Es	-0.235940	2.524282	-0.987927	99
Es	0.310867	0.523544	-0.136077	99
Es	0.764970	0.770296	1.826161	99
Es	-0.127946	1.928286	-1.073119	99
Es	0.298866	1.897924	1.247820	99
Es	0.577254	0.535098	2.227698	99
Es	0.577224	0.543344	2.236890	99
Es	-0.956338	-1.596540	0.725766	99
Es	0.003280	1.170890	-1.222119	99
Es	-1.213783	-1.568638	-0.453669	99
Es	-0.341514	2.719049	-1.468359	99
Es	0.384366	1.165601	1.233869	99
Es	-0.050632	-1.330564	-0.078658	99
Es	0.252245	0.709977	1.885860	99
Es	0.341322	0.853198	0.531971	99
Es	0.633410	0.261468	2.430615	99
Es	0.829599	-1.118835	-0.889104	99
Es	0.419462	0.956794	-0.752201	99
Es	0.579864	-0.961492	-0.211231	99
Es	1.101006	-1.141716	0.278582	99
Es	-0.330187	2.475695	-0.985391	99
Es	-0.140552	2.671164	-0.727648	99
Es	-0.135168	0.836691	-0.663698	99
Es	-0.547604	-2.476706	0.007386	99
Es	0.441476	-0.193432	-0.172672	99
Es	-0.690976	-1.747857	0.052327	99
41
Properties=species:S:1:pos:R:3:Z:I:1 energy=-359.7728702587189 field_type=dipole dipole="0.000000 0.000000 0.000000" charge=0
C	-0.691023	-1.747881	0.052340	6
C	0.579917	-0.961581	-0.211240	6
C	0.310877	0.523509	-0.136110	6
C	0.384367	1.165669	1.233940	6
O	0.583067	0.492029	2.233840	8
N	0.003247	1.170609	-1.222720	7
O	-0.237373	2.526559	-0.985770	8
H	-0.494983	-2.822241	-0.013310	1
H	-1.466123	-1.495891	-0.678790	1
H	-1.092013	-1.532951	1.047840	1
H	0.961287	-1.200631	-1.210670	1
H	1.359627	-1.235051	0.507090	1
H	0.257177	2.257489	1.261300	1
H	-0.458053	2.860359	-1.877740	1
Es	-0.349705	2.718939	-1.467497	99
Es	0.828624	-1.118650	-0.887699	99
Es	-0.233903	2.657642	-0.705516	99
Es	-0.139616	1.926506	-1.069663	99
Es	0.763592	0.769637	1.826250	99
Es	0.570199	0.597730	2.241066	99
Es	-0.216041	2.507494	-1.004059	99
Es	0.341725	0.853197	0.531732	99
Es	1.101228	-1.142957	0.279674	99
Es	0.253745	0.704612	1.881425	99
Es	0.310868	0.523546	-0.136078	99
Es	0.384370	1.165602	1.233868	99
Es	-0.955495	-1.596714	0.724466	99
Es	0.420379	0.956783	-0.752314	99
Es	-0.024795	1.047434	-1.583775	99
Es	0.635064	0.256329	2.425305	99
Es	-0.135713	0.837483	-0.662851	99
Es	0.583010	0.491864	2.233134	99
Es	0.003287	1.170875	-1.222096	99
Es	-0.690978	-1.747856	0.052328	99
Es	-0.236843	2.507638	-0.998058	99
Es	0.441259	-0.193435	-0.173482	99
Es	-0.547653	-2.476519	0.008755	99
Es	0.299004	1.897934	1.247534	99
Es	-0.050243	-1.330248	-0.078740	99
Es	-1.214242	-1.567781	-0.454719	99
Es	0.579859	-0.961491	-0.211230	99
41
Properties=species:S:1:pos:R:3:Z:I:1 energy=-359.7728702587189 field_type=dipole dipole="0.000000 0.000000 0.000000" charge=0
C	-0.691023	-1.747881	0.052340	6
C	0.579917	-0.961581	-0.211240	6
C	0.310877	0.523509	-0.136110	6
C	0.384367	1.165669	1.233940	6
O	0.583067	0.492029	2.233840	8
N	0.003247	1.170609	-1.222720	7
O	-0.237373	2.526559	-0.985770	8
H	-0.494983	-2.822241	-0.013310	1
H	-1.466123	-1.495891	-0.678790	1
H	-1.092013	-1.532951	1.047840	1
H	0.961287	-1.200631	-1.210670	1
H	1.359627	-1.235051	0.507090	1
H	0.257177	2.257489	1.261300	1
H	-0.458053	2.860359	-1.877740	1
Es	0.310868	0.523546	-0.136076	99
Es	0.440892	-0.193347	-0.173379	99
Es	1.099176	-1.145384	0.281370	99
Es	0.763137	0.772250	1.827911	99
Es	-1.212984	-1.566157	-0.455858	99
Es	-0.023550	1.047237	-1.582989	99
Es	-0.215455	2.660635	-0.711381	99
Es	0.384365	1.165602	1.233868	99
Es	-0.955036	-1.596081	0.724216	99
Es	-0.135783	0.837382	-0.662754	99
Es	0.419896	0.957333	-0.751863	99
Es	-0.547233	-2.476952	0.009173	99
Es	-0.690977	-1.747856	0.052329	99
Es	0.579844	-0.961495	-0.211224	99
Es	0.582996	0.491865	2.233053	99
Es	-0.245987	2.498300	-1.001570	99
Es	0.633882	0.271829	2.441248	99
Es	-0.049447	-1.329438	-0.079292	99
Es	0.003283	1.170874	-1.222099	99
Es	-0.347241	2.719969	-1.467656	99
Es	0.254457	0.707584	1.883264	99
Es	-0.141057	1.926665	-1.067409	99
Es	0.299085	1.898078	1.247369	99
Es	-0.226377	2.512656	-0.998165	99
Es	0.341244	0.853164	0.531419	99
Es	0.828152	-1.119117	-0.887413	99
Es	0.570833	0.576456	2.221670	99
41
Properties=species:S:1:pos:R:3:Z:I:1 energy=-359.7728702587189 field_type=dipole dipole="0.000000 0.000000 0.000000" charge=0
C	-0.691023	-1.747881	0.052340	6
C	0.579917	-0.961581	-0.211240	6
C	0.310877	0.523509	-0.136110	6
C	0.384367	1.165669	1.233940	6
O	0.583067	0.492029	2.233840	8
N	0.003247	1.170609	-1.222720	7
O	-0.237373	2.526559	-0.985770	8
H	-0.494983	-2.822241	-0.013310	1
H	-1.466123	-1.495891	-0.678790	1
H	-1.092013	-1.532951	1.047840	1
H	0.961287	-1.200631	-1.210670	1
H	1.359627	-1.235051	0.507090	1
H	0.257177	2.257489	1.261300	1
H	-0.458053	2.860359	-1.877740	1
Es	0.419660	0.957459	-0.751720	99
Es	-0.547006	-2.477403	0.010191	99
Es	0.440578	-0.193046	-0.174084	99
Es	0.255033	0.709479	1.882157	99
Es	0.299230	1.898163	1.247112	99
Es	0.003286	1.170866	-1.222102	99
Es	-0.023230	1.046972	-1.582235	99
Es	-0.135816	0.837691	-0.662430	99
Es	0.384362	1.165601	1.233868	99
Es	0.633206	0.280716	2.449612	99
Es	1.097213	-1.147446	0.282790	99
Es	0.310865	0.523545	-0.136076	99
Es	-0.690975	-1.747855	0.052327	99
Es	0.571092	0.564184	2.210990	99
Es	-0.346886	2.720465	-1.467579	99
Es	-0.236934	2.522273	-0.988688	99
Es	0.579859	-0.961488	-0.211229	99
Es	-0.048696	-1.328661	-0.079649	99
Es	-0.220158	2.491028	-1.013656	99
Es	0.341257	0.853117	0.531359	99
Es	-0.954507	-1.595497	0.723294	99
Es	0.827629	-1.119657	-0.886515	99
Es	-0.145153	1.926678	-1.065068	99
Es	0.762909	0.773011	1.830715	99
Es	-1.211985	-1.564805	-0.456835	99
Es	0.582983	0.492546	2.233686	99
Es	-0.226831	2.657662	-0.712475	99
41
Properties=species:S:1:pos:R:3:Z:I:1 energy=-359.7728702587189 field_type=dipole dipole="0.000000 0.000000 0.000000" charge=0
C	-0.691023	-1.747881	0.052340	6
C	0.579917	-0.961581	-0.211240	6
C	0.310877	0.523509	-0.136110	6
C	0.384367	1.165669	1.233940	6
O	0.583067	0.492029	2.233840	8
N	0.003247	1.170609	-1.222720	7
O	-0.237373	2.526559	-0.985770	8
H	-0.494983	-2.822241	-0.013310	1
H	-1.466123	-1.495891	-0.678790	1
H	-1.092013	-1.532951	1.047840	1
H	0.961287	-1.200631	-1.210670	1
H	1.359627	-1.235051	0.507090	1
H	0.257177	2.257489	1.261300	1
H	-0.458053	2.860359	-1.877740	1
Es	-0.346025	2.720881	-1.467587	99
Es	0.384363	1.165601	1.233868	99
Es	-0.954167	-1.595033	0.722832	99
Es	-0.547076	-2.477598	0.010872	99
Es	0.341007	0.853196	0.531188	99
Es	0.827040	-1.120164	-0.885974	99
Es	-1.210529	-1.563379	-0.457847	99
Es	-0.147459	1.927052	-1.062532	99
Es	0.583007	0.492077	2.233376	99
Es	0.632206	0.287155	2.455463	99
Es	-0.135818	0.837844	-0.662433	99
Es	0.310863	0.523545	-0.136077	99
Es	-0.221897	2.486082	-1.016257	99
Es	0.255861	0.710488	1.882774	99
Es	-0.237845	2.526115	-0.986141	99
Es	0.419648	0.957492	-0.751520	99
Es	0.299313	1.898211	1.246938	99
Es	-0.222694	2.657855	-0.716283	99
Es	0.571413	0.555962	2.204076	99
Es	1.095329	-1.149184	0.283959	99
Es	-0.047854	-1.328219	-0.079723	99
Es	0.440367	-0.192937	-0.174415	99
Es	-0.022881	1.046840	-1.581276	99
Es	0.579862	-0.961491	-0.211230	99
Es	-0.690975	-1.747854	0.052329	99
Es	0.003286	1.170865	-1.222103	99
Es	0.762638	0.774195	1.831484	99
41
Properties=species:S:1:pos:R:3:Z:I:1 energy=-359.7728702587189 field_type=dipole dipole="0.000000 0.000000 0.000000" charge=0
C	-0.691023	-1.747881	0.052340	6
C	0.579917	-0.961581	-0.211240	6
C	0.310877	0.523509	-0.136110	6
C	0.384367	1.165669	1.233940	6
O	0.583067	0.492029	2.233840	8
N	0.003247	1.170609	-1.222720	7
O	-0.237373	2.526559	-0.985770	8
H	-0.494983	-2.822241	-0.013310	1
H	-1.466123	-1.495891	-0.678790	1
H	-1.092013	-1.532951	1.047840	1
H	0.961287	-1.200631	-1.210670	1
H	1.359627	-1.235051	0.507090	1
H	0.257177	2.257489	1.261300	1
H	-0.458053	2.860359	-1.877740	1
Es	1.092827	-1.151144	0.285129	99
Es	0.299421	1.898237	1.246786	99
Es	-0.240120	2.499057	-1.002670	99
Es	-0.546730	-2.477518	0.011090	99
Es	-0.953906	-1.594864	0.722794	99
Es	-0.135961	0.837743	-0.662219	99
Es	-0.228810	2.511039	-0.998586	99
Es	0.582954	0.492733	2.233620	99
Es	0.440272	-0.192872	-0.174361	99
Es	0.310862	0.523545	-0.136077	99
Es	0.341001	0.853213	0.530891	99
Es	-0.345033	2.721353	-1.467580	99
Es	0.632223	0.290874	2.458579	99
Es	0.419274	0.957865	-0.751380	99
Es	-1.209159	-1.562186	-0.458709	99
Es	-0.212936	2.658850	-0.720515	99
Es	0.571768	0.550393	2.199875	99
Es	0.826858	-1.120361	-0.885661	99
Es	-0.149060	1.927514	-1.060580	99
Es	-0.690977	-1.747855	0.052328	99
Es	-0.022199	1.046739	-1.580569	99
Es	0.761795	0.775689	1.829723	99
Es	-0.047042	-1.327546	-0.080097	99
Es	0.579856	-0.961491	-0.211229	99
Es	0.384366	1.165601	1.233867	99
Es	0.003285	1.170868	-1.222100	99
Es	0.256152	0.710121	1.885411	99
41
Properties=species:S:1:pos:R:3:Z:I:1 energy=-359.7728702587189 field_type=dipole dipole="0.000000 0.000000 0.000000" charge=0
C	-0.691023	-1.747881	0.052340	6
C	0.579917	-0.961581	-0.211240	6
C	0.310877	0.523509	-0.136110	6
C	0.384367	1.165669	1.233940	6
O	0.583067	0.492029	2.233840	8
N	0.003247	1.170609	-1.222720	7
O	-0.237373	2.526559	-0.985770	8
H	-0.494983	-2.822241	-0.013310	1
H	-1.466123	-1.495891	-0.678790	1
H	-1.092013	-1.532951	1.047840	1
H	0.961287	-1.200631	-1.210670	1
H	1.359627	-1.235051	0.507090	1
H	0.257177	2.257489	1.261300	1
H	-0.458053	2.860359	-1.877740	1
Es	0.384365	1.165601	1.233867	99
Es	-0.150968	1.928061	-1.059070	99
Es	0.582995	0.491855	2.233011	99
Es	-1.207826	-1.561037	-0.459369	99
Es	-0.135794	0.837585	-0.661997	99
Es	0.761212	0.777573	1.829592	99
Es	-0.953667	-1.594500	0.722106	99
Es	-0.690973	-1.747853	0.052327	99
Es	0.310866	0.523545	-0.136077	99
Es	0.826373	-1.120821	-0.885037	99
Es	-0.241721	2.511955	-0.993915	99
Es	0.440237	-0.192672	-0.175028	99
Es	0.256887	0.708384	1.885644	99
Es	-0.228263	2.497506	-1.007357	99
Es	-0.345111	2.721549	-1.467493	99
Es	-0.046292	-1.327108	-0.080041	99
Es	0.631875	0.295597	2.462532	99
Es	0.571841	0.546327	2.196424	99
Es	0.418624	0.958256	-0.751300	99
Es	0.299486	1.898242	1.246698	99
Es	0.340931	0.853187	0.530835	99
Es	0.579860	-0.961493	-0.211229	99
Es	-0.021536	1.046681	-1.579535	99
Es	0.003287	1.170859	-1.222103	99
Es	-0.209984	2.658579	-0.723483	99
Es	1.091069	-1.152458	0.285924	99
Es	-0.546787	-2.477803	0.011835	99
41
Properties=species:S:1:pos:R:3:Z:I:1 energy=-359.7728702587189 field_type=dipole dipole="0.000000 0.000000 0.000000" charge=0
C	-0.691023	-1.747881	0.052340	6
C	0.579917	-0.961581	-0.211240	6
C	0.310877	0.523509	-0.136110	6
C	0.384367	1.165669	1.233940	6
O	0.583067	0.492029	2.233840	8
N	0.003247	1.170609	-1.222720	7
O	-0.237373	2.526559	-0.985770	8
H	-0.494983	-2.822241	-0.013310	1
H	-1.466123	-1.495891	-0.678790	1
H	-1.092013	-1.532951	1.047840	1
H	0.961287	-1.200631	-1.210670	1
H	1.359627	-1.235051	0.507090	1
H	0.257177	2.257489	1.261300	1
H	-0.458053	2.860359	-1.877740	1
Es	0.631455	0.297070	2.463793	99
Es	-0.953712	-1.594717	0.722579	99
Es	0.299521	1.898288	1.246474	99
Es	-0.152729	1.929030	-1.056295	99
Es	0.310864	0.523545	-0.136076	99
Es	0.761666	0.776378	1.830534	99
Es	-0.244994	2.482865	-1.011632	99
Es	0.340621	0.853197	0.530563	99
Es	-0.235020	2.524536	-0.988056	99
Es	-0.021080	1.046761	-1.578521	99
Es	0.440141	-0.192864	-0.174378	99
Es	-0.045854	-1.326737	-0.080011	99
Es	-0.136030	0.837618	-0.662029	99
Es	0.582940	0.492923	2.233724	99
Es	0.003285	1.170887	-1.222093	99
Es	-0.690977	-1.747855	0.052328	99
Es	-0.199706	2.659389	-0.728798	99
Es	-0.546486	-2.477405	0.011501	99
Es	0.418863	0.958372	-0.751125	99
Es	0.826216	-1.120853	-0.885246	99
Es	-0.343620	2.721599	-1.467801	99
Es	0.571996	0.543688	2.194480	99
Es	0.256624	0.709643	1.884696	99
Es	0.579860	-0.961490	-0.211229	99
Es	0.384369	1.165602	1.233867	99
Es	1.088969	-1.153939	0.286657	99
Es	-1.206199	-1.559934	-0.460144	99
41
Properties=species:S:1:pos:R:3:Z:I:1 energy=-359.7728702587189 field_type=dipole dipole="0.000000 0.000000 0.000000" charge=0
C	-0.691023	-1.747881	0.052340	6
C	0.579917	-0.961581	-0.211240	6
C	0.310877	0.523509	-0.136110	6
C	0.384367	1.165669	1.233940	6
O	0.583067	0.492029	2.233840	8
N	0.003247	1.170609	-1.222720	7
O	-0.237373	2.526559	-0.985770	8
H	-0.494983	-2.822241	-0.013310	1
H	-1.466123	-1.495891	-0.678790	1
H	-1.092013	-1.532951	1.047840	1
H	0.961287	-1.200631	-1.210670	1
H	1.359627	-1.235051	0.507090	1
H	0.257177	2.257489	1.261300	1
H	-0.458053	2.860359	-1.877740	1
Es	0.579852	-0.961492	-0.211227	99
Es	0.825888	-1.121143	-0.884354	99
Es	-0.241072	2.498555	-1.002546	99
Es	0.258777	0.705768	1.888540	99
Es	-0.045221	-1.326423	-0.080304	99
Es	-0.344502	2.721426	-1.467786	99
Es	0.582955	0.491846	2.232669	99
Es	-0.154655	1.929814	-1.054063	99
Es	0.572021	0.543526	2.194560	99
Es	-0.953303	-1.594408	0.722227	99
Es	-0.690979	-1.747855	0.052330	99
Es	0.418977	0.958289	-0.751133	99
Es	0.003283	1.170884	-1.222094	99
Es	-0.203700	2.657946	-0.730298	99
Es	-0.546490	-2.477509	0.011988	99
Es	0.340778	0.853248	0.530529	99
Es	0.632337	0.298210	2.464551	99
Es	0.758646	0.780346	1.826922	99
Es	-1.205546	-1.559322	-0.460434	99
Es	0.299565	1.898255	1.246467	99
Es	0.440240	-0.192583	-0.175266	99
Es	0.310861	0.523544	-0.136077	99
Es	-0.135896	0.837968	-0.661858	99
Es	-0.021615	1.046531	-1.578124	99
Es	0.384366	1.165602	1.233866	99
Es	-0.232119	2.509481	-0.998527	99
Es	1.087535	-1.154906	0.287203	99
41
Properties=species:S:1:pos:R:3:Z:I:1 energy=-359.7728702587189 field_type=dipole dipole="0.000000 0.000000 0.000000" charge=0
C	-0.691023	-1.747881	0.052340	6
C	0.579917	-0.961581	-0.211240	6
C	0.310877	0.523509	-0.136110	6
C	0.384367	1.165669	1.233940	6
O	0.583067	0.492029	2.233840	8
N	0.003247	1.170609	-1.222720	7
O	-0.237373	2.526559	-0.985770	8
H	-0.494983	-2.822241	-0.013310	1
H	-1.466123	-1.495891	-0.678790	1
H	-1.092013	-1.532951	1.047840	1
H	0.961287	-1.200631	-1.210670	1
H	1.359627	-1.235051	0.507090	1
H	0.257177	2.257489	1.261300	1
H	-0.458053	2.860359	-1.877740	1
Es	0.572102	0.540695	2.191930	99
Es	0.631019	0.300304	2.466455	99
Es	-0.235596	2.492633	-1.008073	99
Es	0.825671	-1.121356	-0.884269	99
Es	-0.343697	2.721632	-1.467827	99
Es	0.440138	-0.192624	-0.175305	99
Es	-0.198161	2.657639	-0.734459	99
Es	-0.157001	1.930967	-1.051077	99
Es	1.085505	-1.156212	0.287818	99
Es	0.579860	-0.961491	-0.211230	99
Es	0.340634	0.853225	0.530454	99
Es	-1.204167	-1.558501	-0.460966	99
Es	0.384367	1.165601	1.233867	99
Es	0.418713	0.958412	-0.751036	99
Es	0.257538	0.708571	1.884931	99
Es	-0.135940	0.837886	-0.661848	99
Es	-0.021117	1.046712	-1.577587	99
Es	-0.953390	-1.594299	0.722125	99
Es	-0.044304	-1.325843	-0.080326	99
Es	0.310863	0.523545	-0.136077	99
Es	0.582967	0.492709	2.233733	99
Es	0.761014	0.777382	1.830189	99
Es	-0.690976	-1.747855	0.052328	99
Es	-0.241480	2.514233	-0.992436	99
Es	0.003289	1.170845	-1.222107	99
Es	-0.546491	-2.477508	0.012190	99
Es	0.299623	1.898293	1.246366	99
41
Properties=species:S:1:pos:R:3:Z:I:1 energy=-359.7728702587189 field_type=dipole dipole="0.000000 0.000000 0.000000" charge=0
C	-0.691023	-1.747881	0.052340	6
C	0.579917	-0.961581	-0.211240	6
C	0.310877	0.523509	-0.136110	6
C	0.384367	1.165669	1.233940	6
O	0.583067	0.492029	2.233840	8
N	0.003247	1.170609	-1.222720	7
O	-0.237373	2.526559	-0.985770	8
H	-0.494983	-2.822241	-0.013310	1
H	-1.466123	-1.495891	-0.678790	1
H	-1.092013	-1.532951	1.047840	1
H	0.961287	-1.200631	-1.210670	1
H	1.359627	-1.235051	0.507090	1
H	0.257177	2.257489	1.261300	1
H	-0.458053	2.860359	-1.877740	1
Es	1.084273	-1.156933	0.288222	99
Es	0.631949	0.300910	2.466752	99
Es	-0.546467	-2.477627	0.012829	99
Es	0.825364	-1.121632	-0.883756	99
Es	0.003287	1.170870	-1.222091	99
Es	0.579860	-0.961491	-0.211229	99
Es	-0.136075	0.837901	-0.661819	99
Es	-0.953099	-1.593868	0.721703	99
Es	0.299566	1.898263	1.246346	99
Es	0.310870	0.523546	-0.136078	99
Es	-1.203415	-1.558058	-0.461317	99
Es	-0.235688	2.486911	-1.011384	99
Es	-0.240525	2.519558	-0.989357	99
Es	-0.196347	2.657128	-0.736973	99
Es	0.418748	0.958514	-0.750942	99
Es	0.340700	0.853140	0.530725	99
Es	-0.344532	2.721399	-1.467833	99
Es	0.259283	0.705281	1.888273	99
Es	-0.690976	-1.747854	0.052328	99
Es	-0.043867	-1.325615	-0.080432	99
Es	0.758383	0.780201	1.826672	99
Es	-0.020940	1.046739	-1.576863	99
Es	-0.159008	1.931868	-1.049244	99
Es	0.440192	-0.192412	-0.176189	99
Es	0.384367	1.165601	1.233867	99
Es	0.572074	0.541022	2.192028	99
Es	0.583009	0.492237	2.233524	99
41
Properties=species:S:1:pos:R:3:Z:I:1 energy=-359.7728702587189 field_type=dipole dipole="0.000000 0.000000 0.000000" charge=0
C	-0.691023	-1.747881	0.052340	6
C	0.579917	-0.961581	-0.211240	6
C	0.310877	0.523509	-0.136110	6
C	0.384367	1.165669	1.233940	6
O	0.583067	0.492029	2.233840	8
N	0.003247	1.170609	-1.222720	7
O	-0.237373	2.526559	-0.985770	8
H	-0.494983	-2.822241	-0.013310	1
H	-1.466123	-1.495891	-0.678790	1
H	-1.092013	-1.532951	1.047840	1
H	0.961287	-1.200631	-1.210670	1
H	1.359627	-1.235051	0.507090	1
H	0.257177	2.257489	1.261300	1
H	-0.458053	2.860359	-1.877740	1
Es	0.418873	0.958362	-0.750810	99
Es	0.258775	0.706038	1.886605	99
Es	0.825321	-1.121676	-0.883299	99
Es	1.082878	-1.157677	0.288634	99
Es	0.440147	-0.192403	-0.176468	99
Es	-0.690975	-1.747854	0.052328	99
Es	0.631229	0.303041	2.468531	99
Es	-0.043480	-1.325549	-0.080607	99
Es	0.340722	0.853131	0.530704	99
Es	-1.202522	-1.557433	-0.461600	99
Es	-0.343634	2.721411	-1.468019	99
Es	0.582992	0.492447	2.233643	99
Es	0.299643	1.898307	1.246180	99
Es	-0.021216	1.046640	-1.576802	99
Es	0.579865	-0.961492	-0.211234	99
Es	-0.230355	2.497502	-1.006409	99
Es	-0.159863	1.932497	-1.047764	99
Es	0.310863	0.523545	-0.136077	99
Es	-0.952781	-1.593333	0.720714	99
Es	0.003285	1.170871	-1.222092	99
Es	0.572190	0.538605	2.190186	99
Es	-0.546712	-2.478053	0.013905	99
Es	0.384367	1.165601	1.233867	99
Es	-0.199810	2.656032	-0.737595	99
Es	0.759538	0.779510	1.828290	99
Es	-0.242218	2.509256	-0.995266	99
Es	-0.136137	0.838275	-0.661785	99
41
Properties=species:S:1:pos:R:3:Z:I:1 energy=-359.7728702587189 field_type=dipole dipole="0.000000 0.000000 0.000000" charge=0
C	-0.691023	-1.747881	0.052340	6
C	0.579917	-0.961581	-0.211240	6
C	0.310877	0.523509	-0.136110	6
C	0.384367	1.165669	1.233940	6
O	0.583067	0.492029	2.233840	8
N	0.003247	1.170609	-1.222720	7
O	-0.237373	2.526559	-0.985770	8
H	-0.494983	-2.822241	-0.013310	1
H	-1.466123	-1.495891	-0.678790	1
H	-1.092013	-1.532951	1.047840	1
H	0.961287	-1.200631	-1.210670	1
H	1.359627	-1.235051	0.507090	1
H	0.257177	2.257489	1.261300	1
H	-0.458053	2.860359	-1.877740	1
Es	-0.344646	2.721280	-1.467925	99
Es	-0.195384	2.655471	-0.741050	99
Es	0.753973	0.783023	1.823126	99
Es	-0.546427	-2.477547	0.013097	99
Es	0.579861	-0.961491	-0.211229	99
Es	-0.690973	-1.747853	0.052328	99
Es	0.310868	0.523545	-0.136077	99
Es	0.418765	0.958491	-0.751021	99
Es	0.340788	0.853230	0.530233	99
Es	-0.021637	1.046702	-1.576006	99
Es	0.384365	1.165600	1.233867	99
Es	-0.159765	1.933456	-1.046205	99
Es	0.003291	1.170826	-1.222124	99
Es	0.299619	1.898261	1.246198	99
Es	0.263152	0.702485	1.891922	99
Es	0.825197	-1.121644	-0.883292	99
Es	0.440346	-0.192500	-0.176076	99
Es	0.583005	0.492208	2.233503	99
Es	0.572233	0.538370	2.190005	99
Es	-0.135912	0.838272	-0.661502	99
Es	1.082405	-1.158037	0.288755	99
Es	0.632448	0.303570	2.468705	99
Es	-0.236776	2.520832	-0.989601	99
Es	-1.202054	-1.557107	-0.461779	99
Es	-0.239368	2.485450	-1.011091	99
Es	-0.952895	-1.593817	0.721521	99
Es	-0.043494	-1.325477	-0.080518	99
41
Properties=species:S:1:pos:R:3:Z:I:1 energy=-359.7728702587189 field_type=dipole dipole="0.000000 0.000000 0.000000" charge=0
C	-0.691023	-1.747881	0.052340	6
C	0.579917	-0.961581	-0.211240	6
C	0.310877	0.523509	-0.136110	6
C	0.384367	1.165669	1.233940	6
O	0.583067	0.492029	2.233840	8
N	0.003247	1.170609	-1.222720	7
O	-0.237373	2.526559	-0.985770	8
H	-0.494983	-2.822241	-0.013310	1
H	-1.466123	-1.495891	-0.678790	1
H	-1.092013	-1.532951	1.047840	1
H	0.961287	-1.200631	-1.210670	1
H	1.359627	-1.235051	0.507090	1
H	0.257177	2.257489	1.261300	1
H	-0.458053	2.860359	-1.877740	1
Es	0.755399	0.782271	1.824238	99
Es	-0.021468	1.046560	-1.575631	99
Es	0.310865	0.523544	-0.136078	99
Es	-0.546535	-2.477885	0.013871	99
Es	0.825002	-1.121918	-0.882955	99
Es	-0.236975	2.479646	-1.015247	99
Es	-0.194915	2.654742	-0.742971	99
Es	-0.238002	2.526090	-0.986101	99
Es	0.632243	0.303870	2.468975	99
Es	0.384368	1.165601	1.233867	99
Es	0.579861	-0.961491	-0.211229	99
Es	0.003286	1.170869	-1.222093	99
Es	-0.135886	0.838491	-0.661442	99
Es	0.299676	1.898243	1.246221	99
Es	-0.952786	-1.593394	0.720817	99
Es	0.340829	0.853163	0.530618	99
Es	1.081477	-1.158443	0.289048	99
Es	0.418692	0.958516	-0.750879	99
Es	-1.200749	-1.556343	-0.462148	99
Es	0.440270	-0.192323	-0.176942	99
Es	0.572228	0.538377	2.190008	99
Es	-0.161652	1.934536	-1.044234	99
Es	-0.043780	-1.325662	-0.080329	99
Es	0.583009	0.492095	2.233408	99
Es	-0.690975	-1.747854	0.052328	99
Es	-0.344368	2.721283	-1.467995	99
Es	0.261866	0.703014	1.890640	99
41
Properties=species:S:1:pos:R:3:Z:I:1 energy=-359.7728702587189 field_type=dipole dipole="0.000000 0.000000 0.000000" charge=0
C	-0.691023	-1.747881	0.052340	6
C	0.579917	-0.961581	-0.211240	6
C	0.310877	0.523509	-0.136110	6
C	0.384367	1.165669	1.233940	6
O	0.583067	0.492029	2.233840	8
N	0.003247	1.170609	-1.222720	7
O	-0.237373	2.526559	-0.985770	8
H	-0.494983	-2.822241	-0.013310	1
H	-1.466123	-1.495891	-0.678790	1
H	-1.092013	-1.532951	1.047840	1
H	0.961287	-1.200631	-1.210670	1
H	1.359627	-1.235051	0.507090	1
H	0.257177	2.257489	1.261300	1
H	-0.458053	2.860359	-1.877740	1
Es	-0.043072	-1.325399	-0.080517	99
Es	-0.546378	-2.477619	0.013288	99
Es	-0.952734	-1.593583	0.721442	99
Es	0.440321	-0.192227	-0.177020	99
Es	0.572327	0.536524	2.188630	99
Es	0.631998	0.306179	2.470772	99
Es	-0.188506	2.654867	-0.746089	99
Es	-0.248554	2.481495	-1.010373	99
Es	0.417990	0.958730	-0.750978	99
Es	-1.200182	-1.555911	-0.462263	99
Es	0.261856	0.702911	1.890173	99
Es	-0.232759	2.523162	-0.989561	99
Es	-0.690976	-1.747855	0.052328	99
Es	0.299688	1.898196	1.246404	99
Es	0.310863	0.523545	-0.136077	99
Es	-0.021041	1.046784	-1.575123	99
Es	0.824854	-1.122086	-0.882464	99
Es	0.340635	0.853316	0.530081	99
Es	0.583009	0.491968	2.233258	99
Es	-0.162169	1.935357	-1.042959	99
Es	0.003286	1.170863	-1.222095	99
Es	-0.343980	2.721399	-1.468000	99
Es	0.579859	-0.961491	-0.211229	99
Es	-0.135475	0.838075	-0.661444	99
Es	0.384370	1.165601	1.233866	99
Es	0.755512	0.782004	1.824417	99
Es	1.080241	-1.159208	0.289293	99
41
Properties=species:S:1:pos:R:3:Z:I:1 energy=-359.7728702587189 field_type=dipole dipole="0.000000 0.000000 0.000000" charge=0
C	-0.691023	-1.747881	0.052340	6
C	0.579917	-0.961581	-0.211240	6
C	0.310877	0.523509	-0.136110	6
C	0.384367	1.165669	1.233940	6
O	0.583067	0.492029	2.233840	8
N	0.003247	1.170609	-1.222720	7
O	-0.237373	2.526559	-0.985770	8
H	-0.494983	-2.822241	-0.013310	1
H	-1.466123	-1.495891	-0.678790	1
H	-1.092013	-1.532951	1.047840	1
H	0.961287	-1.200631	-1.210670	1
H	1.359627	-1.235051	0.507090	1
H	0.257177	2.257489	1.261300	1
H	-0.458053	2.860359	-1.877740	1
Es	-0.163617	1.936131	-1.041126	99
Es	0.631080	0.305955	2.470780	99
Es	0.583005	0.491979	2.233256	99
Es	0.418752	0.958631	-0.750704	99
Es	-0.253341	2.478158	-1.010788	99
Es	-1.199044	-1.555251	-0.462541	99
Es	-0.546522	-2.477808	0.013751	99
Es	0.340475	0.853143	0.530380	99
Es	0.440161	-0.192424	-0.176344	99
Es	-0.020913	1.046848	-1.575314	99
Es	-0.952652	-1.593334	0.721034	99
Es	0.384367	1.165600	1.233866	99
Es	-0.235037	2.525043	-0.987719	99
Es	0.259517	0.705220	1.887253	99
Es	-0.042023	-1.324769	-0.080638	99
Es	-0.136097	0.838302	-0.661639	99
Es	0.310869	0.523545	-0.136079	99
Es	0.572314	0.536823	2.188872	99
Es	0.758689	0.779612	1.827120	99
Es	-0.343154	2.721635	-1.468013	99
Es	0.824955	-1.122014	-0.883158	99
Es	-0.690973	-1.747854	0.052327	99
Es	0.003288	1.170861	-1.222094	99
Es	0.299717	1.898284	1.246013	99
Es	-0.180686	2.655170	-0.749282	99
Es	0.579861	-0.961491	-0.211230	99
Es	1.077994	-1.160396	0.289776	99
41
Properties=species:S:1:pos:R:3:Z:I:1 energy=-359.7728702587189 field_type=dipole dipole="0.000000 0.000000 0.000000" charge=0
C	-0.691023	-1.747881	0.052340	6
C	0.579917	-0.961581	-0.211240	6
C	0.310877	0.523509	-0.136110	6
C	0.384367	1.165669	1.233940	6
O	0.583067	0.492029	2.233840	8
N	0.003247	1.170609	-1.222720	7
O	-0.237373	2.526559	-0.985770	8
H	-0.494983	-2.822241	-0.013310	1
H	-1.466123	-1.495891	-0.678790	1
H	-1.092013	-1.532951	1.047840	1
H	0.961287	-1.200631	-1.210670	1
H	1.359627	-1.235051	0.507090	1
H	0.257177	2.257489	1.261300	1
H	-0.458053	2.860359	-1.877740	1
Es	0.632489	0.307532	2.471680	99
Es	-0.021311	1.046805	-1.575051	99
Es	0.824551	-1.122224	-0.881953	99
Es	0.579858	-0.961490	-0.211229	99
Es	-0.952508	-1.593519	0.721345	99
Es	0.583007	0.491914	2.233183	99
Es	-0.136017	0.838278	-0.661474	99
Es	-0.690976	-1.747854	0.052328	99
Es	0.750632	0.784782	1.821438	99
Es	-0.546201	-2.477561	0.013440	99
Es	0.003288	1.170863	-1.222093	99
Es	0.418639	0.958650	-0.750871	99
Es	1.078574	-1.160139	0.289688	99
Es	0.440453	-0.192099	-0.177727	99
Es	-0.251418	2.484787	-1.007320	99
Es	-0.344041	2.721409	-1.467998	99
Es	0.310863	0.523544	-0.136077	99
Es	-0.183968	2.653986	-0.749953	99
Es	0.384365	1.165600	1.233867	99
Es	0.266216	0.700781	1.893717	99