39
Properties=species:S:1:pos:R:3:Z:I:1 energy=-338.7874779868439 field_type=dipole dipole="0.000000 0.000000 0.000000" charge=0
C	-1.988205	0.782565	1.688877	6
C	-1.150215	0.201675	0.820277	6
C	0.173455	0.808605	0.517957	6
O	0.564355	1.840255	1.059577	8
N	0.956125	0.160335	-0.407893	7
N	0.584355	-0.981535	-1.053763	7
C	1.452145	-1.432445	-1.895673	6
H	-2.952925	0.339475	1.908807	1
H	-1.729535	1.708505	2.195007	1
H	-1.418025	-0.720725	0.321177	1
H	1.852564	0.593385	-0.599193	1
H	1.232415	-2.351156	-2.461603	1
H	2.423495	-0.948935	-2.093553	1
Es	0.850807	1.923568	0.955334	99
Es	-1.988271	0.782585	1.688928	99
Es	0.784375	-0.386171	-0.747362	99
Es	0.354261	1.949509	1.259147	99
Es	1.480959	0.418479	-0.550236	99
Es	-0.482639	0.488341	0.653268	99
Es	0.564303	1.839954	1.059378	99
Es	0.937672	0.095216	-0.197915	99
Es	0.584937	-0.981223	-1.053864	99
Es	-1.394367	0.318178	1.463058	99
Es	0.570179	0.473148	-0.140588	99
Es	2.110283	-1.097698	-2.024404	99
Es	-1.829140	1.395708	2.030477	99
Es	0.257069	-1.115593	-0.966126	99
Es	1.452142	-1.432437	-1.895662	99
Es	-1.324712	-0.413404	0.485544	99
Es	1.107294	-1.333755	-1.221852	99
Es	0.329675	1.625263	0.696568	99
Es	-1.150088	0.201680	0.820214	99
Es	0.864129	-1.017403	-1.641803	99
Es	1.310184	-2.045918	-2.276261	99
Es	-1.654898	0.651645	0.986140	99
Es	0.173529	0.808482	0.517827	99
Es	0.955883	0.160459	-0.408191	99
Es	-2.640056	0.486033	1.839450	99
Es	0.538941	1.361093	1.060757	99
39
Properties=species:S:1:pos:R:3:Z:I:1 energy=-338.7874779868439 field_type=dipole dipole="0.000000 0.000000 0.000000" charge=0
C	-1.988205	0.782565	1.688877	6
C	-1.150215	0.201675	0.820277	6
C	0.173455	0.808605	0.517957	6
O	0.564355	1.840255	1.059577	8
N	0.956125	0.160335	-0.407893	7
N	0.584355	-0.981535	-1.053763	7
C	1.452145	-1.432445	-1.895673	6
H	-2.952925	0.339475	1.908807	1
H	-1.729535	1.708505	2.195007	1
H	-1.418025	-0.720725	0.321177	1
H	1.852564	0.593385	-0.599193	1
H	1.232415	-2.351156	-2.461603	1
H	2.423495	-0.948935	-2.093553	1
Es	1.107777	-1.334129	-1.221472	99
Es	0.340673	1.623863	0.698510	99
Es	0.888827	0.166803	-0.349553	99
Es	-1.829687	1.397162	2.032198	99
Es	0.564254	1.839992	1.059440	99
Es	1.452147	-1.432441	-1.895663	99
Es	0.538907	1.364402	1.048610	99
Es	0.837330	1.896676	0.946974	99
Es	0.584930	-0.981212	-1.053852	99
Es	1.310885	-2.047267	-2.277464	99
Es	-1.655075	0.651596	0.985941	99
Es	0.263081	-1.116025	-0.970026	99
Es	-1.324525	-0.414551	0.484205	99
Es	0.600985	0.424955	-0.017756	99
Es	0.955080	0.161132	-0.408831	99
Es	-0.483588	0.488647	0.654258	99
Es	-1.394796	0.318029	1.463588	99
Es	-1.150093	0.201687	0.820202	99
Es	-2.637418	0.486476	1.838672	99
Es	-1.988274	0.782587	1.688929	99
Es	0.355176	1.973587	1.277374	99
Es	0.864533	-1.016400	-1.642469	99
Es	0.173527	0.808486	0.517825	99
Es	1.492188	0.407091	-0.532885	99
Es	0.786998	-0.397558	-0.731667	99
Es	2.108610	-1.097851	-2.023262	99
39
Properties=species:S:1:pos:R:3:Z:I:1 energy=-338.7874779868439 field_type=dipole dipole="0.000000 0.000000 0.000000" charge=0
C	-1.988205	0.782565	1.688877	6
C	-1.150215	0.201675	0.820277	6
C	0.173455	0.808605	0.517957	6
O	0.564355	1.840255	1.059577	8
N	0.956125	0.160335	-0.407893	7
N	0.584355	-0.981535	-1.053763	7
C	1.452145	-1.432445	-1.895673	6
H	-2.952925	0.339475	1.908807	1
H	-1.729535	1.708505	2.195007	1
H	-1.418025	-0.720725	0.321177	1
H	1.852564	0.593385	-0.599193	1
H	1.232415	-2.351156	-2.461603	1
H	2.423495	-0.948935	-2.093553	1
Es	0.173529	0.808477	0.517821	99
Es	0.564238	1.839974	1.059434	99
Es	-1.988275	0.782587	1.688929	99
Es	-1.395195	0.318457	1.463323	99
Es	0.829136	1.887659	0.942952	99
Es	0.602620	0.424043	-0.015263	99
Es	-1.324154	-0.415241	0.483154	99
Es	-1.150089	0.201685	0.820203	99
Es	1.452146	-1.432438	-1.895670	99
Es	0.541212	1.371721	1.045885	99
Es	0.345574	1.616025	0.700457	99
Es	-0.484228	0.489680	0.654966	99
Es	0.954159	0.161724	-0.409113	99
Es	0.268110	-1.116773	-0.973475	99
Es	-1.654888	0.651345	0.986881	99
Es	0.355455	1.982026	1.281843	99
Es	0.584956	-0.981210	-1.053864	99
Es	0.865229	-1.016391	-1.642175	99
Es	-1.830561	1.398013	2.033456	99
Es	0.783230	-0.397405	-0.728245	99
Es	1.491239	0.405377	-0.531818	99
Es	-2.635711	0.486369	1.837683	99
Es	0.887397	0.168958	-0.353092	99
Es	1.108052	-1.333159	-1.221976	99
Es	2.107578	-1.097809	-2.022199	99
Es	1.311696	-2.047957	-2.278272	99
39
Properties=species:S:1:pos:R:3:Z:I:1 energy=-338.7874779868439 field_type=dipole dipole="0.000000 0.000000 0.000000" charge=0
C	-1.988205	0.782565	1.688877	6
C	-1.150215	0.201675	0.820277	6
C	0.173455	0.808605	0.517957	6
O	0.564355	1.840255	1.059577	8
N	0.956125	0.160335	-0.407893	7
N	0.584355	-0.981535	-1.053763	7
C	1.452145	-1.432445	-1.895673	6
H	-2.952925	0.339475	1.908807	1
H	-1.729535	1.708505	2.195007	1
H	-1.418025	-0.720725	0.321177	1
H	1.852564	0.593385	-0.599193	1
H	1.232415	-2.351156	-2.461603	1
H	2.423495	-0.948935	-2.093553	1
Es	0.885159	0.170925	-0.355209	99
Es	1.490225	0.404540	-0.531102	99
Es	0.539947	1.374682	1.040626	99
Es	0.173531	0.808476	0.517822	99
Es	0.353337	1.982734	1.283995	99
Es	-0.484824	0.490436	0.655731	99
Es	-1.988275	0.782588	1.688930	99
Es	-1.395776	0.319254	1.463176	99
Es	-1.654429	0.651064	0.987477	99
Es	-1.150086	0.201682	0.820207	99
Es	0.779564	-0.398048	-0.725451	99
Es	0.564296	1.839934	1.059367	99
Es	-1.831721	1.398618	2.034569	99
Es	-2.634039	0.486057	1.836803	99
Es	0.349988	1.615126	0.703672	99
Es	1.108184	-1.332227	-1.222719	99
Es	0.603328	0.423828	-0.014361	99
Es	-1.323571	-0.415756	0.482307	99
Es	0.866671	-1.016210	-1.641064	99
Es	1.452149	-1.432441	-1.895667	99
Es	0.827468	1.883921	0.942457	99
Es	0.584975	-0.981200	-1.053868	99
Es	0.955271	0.160994	-0.408740	99
Es	1.312606	-2.048425	-2.278890	99
Es	0.271957	-1.117210	-0.976761	99
Es	2.106518	-1.097605	-2.021481	99
39
Properties=species:S:1:pos:R:3:Z:I:1 energy=-338.7874779868439 field_type=dipole dipole="0.000000 0.000000 0.000000" charge=0
C	-1.988205	0.782565	1.688877	6
C	-1.150215	0.201675	0.820277	6
C	0.173455	0.808605	0.517957	6
O	0.564355	1.840255	1.059577	8
N	0.956125	0.160335	-0.407893	7
N	0.584355	-0.981535	-1.053763	7
C	1.452145	-1.432445	-1.895673	6
H	-2.952925	0.339475	1.908807	1
H	-1.729535	1.708505	2.195007	1
H	-1.418025	-0.720725	0.321177	1
H	1.852564	0.593385	-0.599193	1
H	1.232415	-2.351156	-2.461603	1
H	2.423495	-0.948935	-2.093553	1
Es	0.776787	-0.398564	-0.724330	99
Es	0.173527	0.808481	0.517816	99
Es	1.452148	-1.432440	-1.895667	99
Es	0.467749	1.405617	0.786555	99
Es	-1.655575	0.652586	0.985412	99
Es	0.276000	-1.115925	-0.977291	99
Es	-1.988275	0.782587	1.688930	99
Es	0.884289	0.171593	-0.355933	99
Es	-1.150087	0.201678	0.820210	99
Es	1.313442	-2.048109	-2.279086	99
Es	0.584963	-0.981224	-1.053880	99
Es	0.797384	1.889770	0.964233	99
Es	-1.322580	-0.415173	0.482398	99
Es	0.603236	0.423896	-0.014437	99
Es	0.564251	1.840008	1.059455	99
Es	1.490063	0.404281	-0.531013	99
Es	0.468639	1.589713	0.935633	99
Es	2.105850	-1.097997	-2.021258	99
Es	-1.394768	0.317921	1.465182	99
Es	0.956043	0.160261	-0.407993	99
Es	-0.486622	0.490369	0.656869	99
Es	-1.832641	1.398051	2.034652	99
Es	1.109112	-1.333399	-1.221037	99
Es	-2.633460	0.486599	1.836762	99
Es	0.864999	-1.015261	-1.643470	99
Es	0.337978	1.970419	1.283115	99
39
Properties=species:S:1:pos:R:3:Z:I:1 energy=-338.7874779868439 field_type=dipole dipole="0.000000 0.000000 0.000000" charge=0
C	-1.988205	0.782565	1.688877	6
C	-1.150215	0.201675	0.820277	6
C	0.173455	0.808605	0.517957	6
O	0.564355	1.840255	1.059577	8
N	0.956125	0.160335	-0.407893	7
N	0.584355	-0.981535	-1.053763	7
C	1.452145	-1.432445	-1.895673	6
H	-2.952925	0.339475	1.908807	1
H	-1.729535	1.708505	2.195007	1
H	-1.418025	-0.720725	0.321177	1
H	1.852564	0.593385	-0.599193	1
H	1.232415	-2.351156	-2.461603	1
H	2.423495	-0.948935	-2.093553	1
Es	0.584978	-0.981213	-1.053882	99
Es	-1.654297	0.651887	0.985937	99
Es	-1.396087	0.318990	1.464885	99
Es	0.884576	0.171297	-0.355680	99
Es	1.109081	-1.332117	-1.222076	99
Es	1.452149	-1.432438	-1.895669	99
Es	0.564244	1.839992	1.059450	99
Es	2.105694	-1.097826	-2.020900	99
Es	0.783477	1.886865	0.969449	99
Es	-1.150086	0.201681	0.820208	99
Es	-1.988274	0.782585	1.688933	99
Es	0.277367	-1.116561	-0.979197	99
Es	0.337206	1.969302	1.283706	99
Es	-2.633073	0.486245	1.836361	99
Es	0.484787	1.406358	0.784939	99
Es	1.489881	0.403748	-0.530416	99
Es	-1.322615	-0.415410	0.482125	99
Es	0.955534	0.160778	-0.408561	99
Es	0.466062	1.592411	0.931088	99
Es	0.173534	0.808475	0.517824	99
Es	1.313603	-2.048287	-2.279374	99
Es	-0.486553	0.490955	0.657160	99
Es	0.866685	-1.015321	-1.641926	99
Es	-1.832901	1.398292	2.035166	99
Es	0.603339	0.423923	-0.014320	99
Es	0.774140	-0.398871	-0.723404	99
39
Properties=species:S:1:pos:R:3:Z:I:1 energy=-338.7874779868439 field_type=dipole dipole="0.000000 0.000000 0.000000" charge=0
C	-1.988205	0.782565	1.688877	6
C	-1.150215	0.201675	0.820277	6
C	0.173455	0.808605	0.517957	6
O	0.564355	1.840255	1.059577	8
N	0.956125	0.160335	-0.407893	7
N	0.584355	-0.981535	-1.053763	7
C	1.452145	-1.432445	-1.895673	6
H	-2.952925	0.339475	1.908807	1
H	-1.729535	1.708505	2.195007	1
H	-1.418025	-0.720725	0.321177	1
H	1.852564	0.593385	-0.599193	1
H	1.232415	-2.351156	-2.461603	1
H	2.423495	-0.948935	-2.093553	1
Es	0.464238	1.594364	0.927854	99
Es	0.337232	1.969691	1.283882	99
Es	1.313839	-2.048443	-2.279590	99
Es	0.884107	0.171695	-0.356124	99
Es	-1.396860	0.319922	1.464231	99
Es	-2.633087	0.485827	1.836069	99
Es	0.956115	0.160169	-0.407855	99
Es	0.772890	-0.398684	-0.723341	99
Es	-1.322884	-0.415592	0.481867	99
Es	2.105529	-1.097516	-2.020641	99
Es	1.489549	0.403739	-0.530496	99
Es	0.603535	0.423806	-0.014034	99
Es	-1.988275	0.782587	1.688931	99
Es	0.584977	-0.981215	-1.053881	99
Es	0.767778	1.880861	0.974980	99
Es	0.173532	0.808475	0.517822	99
Es	-0.486389	0.491417	0.657285	99
Es	-1.150085	0.201680	0.820209	99
Es	0.277538	-1.117475	-0.980096	99
Es	-1.832993	1.398507	2.035387	99
Es	0.502115	1.409602	0.782334	99
Es	0.564273	1.840025	1.059458	99
Es	1.108898	-1.330790	-1.223230	99
Es	-1.653241	0.651203	0.986942	99
Es	1.452148	-1.432440	-1.895669	99
Es	0.867973	-1.015678	-1.640468	99
39
Properties=species:S:1:pos:R:3:Z:I:1 energy=-338.7874779868439 field_type=dipole dipole="0.000000 0.000000 0.000000" charge=0
C	-1.988205	0.782565	1.688877	6
C	-1.150215	0.201675	0.820277	6
C	0.173455	0.808605	0.517957	6
O	0.564355	1.840255	1.059577	8
N	0.956125	0.160335	-0.407893	7
N	0.584355	-0.981535	-1.053763	7
C	1.452145	-1.432445	-1.895673	6
H	-2.952925	0.339475	1.908807	1
H	-1.729535	1.708505	2.195007	1
H	-1.418025	-0.720725	0.321177	1
H	1.852564	0.593385	-0.599193	1
H	1.232415	-2.351156	-2.461603	1
H	2.423495	-0.948935	-2.093553	1
Es	-1.988275	0.782587	1.688931	99
Es	0.602832	0.424654	-0.015202	99
Es	-1.150082	0.201676	0.820215	99
Es	-2.632855	0.485843	1.835643	99
Es	-0.486304	0.491547	0.657740	99
Es	1.314297	-2.048622	-2.279620	99
Es	-1.833366	1.398675	2.035543	99
Es	0.883625	0.172350	-0.356985	99
Es	-1.412290	0.329832	1.461851	99
Es	2.105357	-1.097714	-2.020074	99
Es	0.173531	0.808476	0.517821	99
Es	0.279100	-1.117010	-0.981503	99
Es	-1.637966	0.641805	0.989140	99
Es	0.584981	-0.981203	-1.053877	99
Es	1.108880	-1.330456	-1.223463	99
Es	-1.322616	-0.415882	0.481962	99
Es	0.759952	1.877381	0.977507	99
Es	0.564266	1.839991	1.059445	99
Es	0.771320	-0.399426	-0.722264	99
Es	0.509507	1.413241	0.779105	99
Es	1.452149	-1.432441	-1.895668	99
Es	1.490115	0.402383	-0.528658	99
Es	0.868499	-1.015654	-1.640066	99
Es	0.336816	1.970488	1.283150	99
Es	0.956041	0.160275	-0.407992	99
Es	0.464941	1.592941	0.929145	99
39
Properties=species:S:1:pos:R:3:Z:I:1 energy=-338.7874779868439 field_type=dipole dipole="0.000000 0.000000 0.000000" charge=0
C	-1.988205	0.782565	1.688877	6
C	-1.150215	0.201675	0.820277	6
C	0.173455	0.808605	0.517957	6
O	0.564355	1.840255	1.059577	8
N	0.956125	0.160335	-0.407893	7
N	0.584355	-0.981535	-1.053763	7
C	1.452145	-1.432445	-1.895673	6
H	-2.952925	0.339475	1.908807	1
H	-1.729535	1.708505	2.195007	1
H	-1.418025	-0.720725	0.321177	1
H	1.852564	0.593385	-0.599193	1
H	1.232415	-2.351156	-2.461603	1
H	2.423495	-0.948935	-2.093553	1
Es	-1.322377	-0.415861	0.481890	99
Es	0.956012	0.160302	-0.408033	99
Es	0.564245	1.840004	1.059452	99
Es	-1.427870	0.342786	1.451278	99
Es	0.868688	-1.015443	-1.640096	99
Es	1.452151	-1.432443	-1.895664	99
Es	0.748765	1.873359	0.979503	99
Es	-1.622526	0.629116	0.999584	99
Es	0.522552	1.414578	0.780570	99
Es	-1.150085	0.201678	0.820211	99
Es	0.280648	-1.116293	-0.982508	99
Es	0.602431	0.425273	-0.015986	99
Es	0.769294	-0.399583	-0.722048	99
Es	0.463152	1.594934	0.925990	99
Es	0.584983	-0.981203	-1.053876	99
Es	1.314658	-2.048622	-2.279745	99
Es	1.490597	0.401533	-0.527629	99
Es	-1.988275	0.782586	1.688932	99
Es	-1.833631	1.398665	2.035741	99
Es	1.108845	-1.330636	-1.223355	99
Es	-0.486368	0.491499	0.657877	99
Es	0.336683	1.970831	1.282937	99
Es	0.173530	0.808476	0.517823	99
Es	0.883837	0.172130	-0.356661	99
Es	2.105115	-1.097863	-2.019754	99
Es	-2.632603	0.485935	1.835395	99
39
Properties=species:S:1:pos:R:3:Z:I:1 energy=-338.7874779868439 field_type=dipole dipole="0.000000 0.000000 0.000000" charge=0
C	-1.988205	0.782565	1.688877	6
C	-1.150215	0.201675	0.820277	6
C	0.173455	0.808605	0.517957	6
O	0.564355	1.840255	1.059577	8
N	0.956125	0.160335	-0.407893	7
N	0.584355	-0.981535	-1.053763	7
C	1.452145	-1.432445	-1.895673	6
H	-2.952925	0.339475	1.908807	1
H	-1.729535	1.708505	2.195007	1
H	-1.418025	-0.720725	0.321177	1
H	1.852564	0.593385	-0.599193	1
H	1.232415	-2.351156	-2.461603	1
H	2.423495	-0.948935	-2.093553	1
Es	1.490882	0.401033	-0.526929	99
Es	0.465250	1.592115	0.929760	99
Es	-1.833842	1.398680	2.035836	99
Es	-1.150084	0.201680	0.820210	99
Es	-1.322242	-0.415934	0.481855	99
Es	0.584983	-0.981205	-1.053877	99
Es	-0.486545	0.491591	0.657941	99
Es	-2.632446	0.485932	1.835251	99
Es	0.768739	-0.400011	-0.721522	99
Es	0.564230	1.839985	1.059448	99
Es	0.602033	0.425752	-0.016680	99
Es	1.314826	-2.048669	-2.279711	99
Es	0.173535	0.808473	0.517825	99
Es	1.108280	-1.331446	-1.224013	99
Es	0.883755	0.172258	-0.356841	99
Es	-1.988276	0.782587	1.688931	99
Es	-1.439020	0.353265	1.440971	99
Es	0.955918	0.160405	-0.408166	99
Es	0.336918	1.971578	1.282756	99
Es	0.737359	1.867049	0.982822	99
Es	1.452148	-1.432441	-1.895669	99
Es	-1.611331	0.618848	1.009854	99
Es	0.281422	-1.115747	-0.982986	99
Es	0.869240	-1.014914	-1.639287	99
Es	2.105037	-1.097899	-2.019652	99
Es	0.531683	1.422771	0.773698	99
39
Properties=species:S:1:pos:R:3:Z:I:1 energy=-338.7874779868439 field_type=dipole dipole="0.000000 0.000000 0.000000" charge=0
C	-1.988205	0.782565	1.688877	6
C	-1.150215	0.201675	0.820277	6
C	0.173455	0.808605	0.517957	6
O	0.564355	1.840255	1.059577	8
N	0.956125	0.160335	-0.407893	7
N	0.584355	-0.981535	-1.053763	7
C	1.452145	-1.432445	-1.895673	6
H	-2.952925	0.339475	1.908807	1
H	-1.729535	1.708505	2.195007	1
H	-1.418025	-0.720725	0.321177	1
H	1.852564	0.593385	-0.599193	1
H	1.232415	-2.351156	-2.461603	1
H	2.423495	-0.948935	-2.093553	1
Es	0.584977	-0.981194	-1.053866	99
Es	-2.632136	0.485985	1.835159	99
Es	-1.834124	1.398721	2.035921	99
Es	0.282352	-1.115597	-0.983081	99
Es	0.539617	1.425550	0.773276	99
Es	1.452147	-1.432435	-1.895673	99
Es	1.315138	-2.048648	-2.279863	99
Es	0.601977	0.425881	-0.016810	99
Es	0.464203	1.593500	0.927738	99
Es	0.337049	1.972634	1.282207	99
Es	-1.449552	0.363554	1.429983	99
Es	0.564246	1.840003	1.059455	99
Es	-1.600827	0.608716	1.020851	99
Es	-1.150086	0.201680	0.820209	99
Es	0.768148	-0.400455	-0.721002	99
Es	1.490805	0.400967	-0.526891	99
Es	2.104713	-1.098001	-2.019469	99
Es	-1.322098	-0.415898	0.481797	99
Es	1.108951	-1.330599	-1.223173	99
Es	0.868523	-1.015547	-1.640350	99
Es	0.955969	0.160349	-0.408098	99
Es	0.883598	0.172432	-0.357075	99
Es	0.730179	1.861650	0.985705	99
Es	-0.486575	0.491430	0.658120	99
Es	-1.988276	0.782587	1.688930	99
Es	0.173535	0.808473	0.517825	99
39
Properties=species:S:1:pos:R:3:Z:I:1 energy=-338.7874779868439 field_type=dipole dipole="0.000000 0.000000 0.000000" charge=0
C	-1.988205	0.782565	1.688877	6
C	-1.150215	0.201675	0.820277	6
C	0.173455	0.808605	0.517957	6
O	0.564355	1.840255	1.059577	8
N	0.956125	0.160335	-0.407893	7
N	0.584355	-0.981535	-1.053763	7
C	1.452145	-1.432445	-1.895673	6
H	-2.952925	0.339475	1.908807	1
H	-1.729535	1.708505	2.195007	1
H	-1.418025	-0.720725	0.321177	1
H	1.852564	0.593385	-0.599193	1
H	1.232415	-2.351156	-2.461603	1
H	2.423495	-0.948935	-2.093553	1
Es	0.602002	0.425953	-0.016844	99
Es	1.108876	-1.330318	-1.223281	99
Es	-1.150083	0.201677	0.820214	99
Es	-1.988275	0.782587	1.688931	99
Es	2.104615	-1.098084	-2.019313	99
Es	0.767097	-0.400602	-0.720983	99
Es	0.724146	1.859424	0.985702	99
Es	0.564241	1.840004	1.059454	99
Es	-1.455836	0.369957	1.422867	99
Es	-1.834340	1.398730	2.036080	99
Es	1.490680	0.400785	-0.526607	99
Es	-1.321992	-0.415882	0.481673	99
Es	0.955925	0.160400	-0.408159	99
Es	-2.631986	0.485962	1.834941	99
Es	-0.486652	0.491515	0.658121	99
Es	0.883720	0.172306	-0.356901	99
Es	0.584986	-0.981204	-1.053878	99
Es	-1.594421	0.602388	1.028156	99
Es	0.546263	1.426579	0.774707	99
Es	0.173533	0.808477	0.517818	99
Es	1.452149	-1.432441	-1.895669	99
Es	0.868638	-1.015804	-1.640228	99
Es	0.462776	1.595064	0.925230	99
Es	0.337748	1.972100	1.283273	99
Es	0.283346	-1.115200	-0.983560	99
Es	1.315298	-2.048634	-2.279919	99
39
Properties=species:S:1:pos:R:3:Z:I:1 energy=-338.7874779868439 field_type=dipole dipole="0.000000 0.000000 0.000000" charge=0
C	-1.988205	0.782565	1.688877	6
C	-1.150215	0.201675	0.820277	6
C	0.173455	0.808605	0.517957	6
O	0.564355	1.840255	1.059577	8
N	0.956125	0.160335	-0.407893	7
N	0.584355	-0.981535	-1.053763	7
C	1.452145	-1.432445	-1.895673	6
H	-2.952925	0.339475	1.908807	1
H	-1.729535	1.708505	2.195007	1
H	-1.418025	-0.720725	0.321177	1
H	1.852564	0.593385	-0.599193	1
H	1.232415	-2.351156	-2.461603	1
H	2.423495	-0.948935	-2.093553	1
Es	1.315517	-2.048556	-2.280054	99
Es	-1.464830	0.379130	1.412218	99
Es	0.956102	0.160186	-0.407881	99
Es	0.718030	1.856017	0.986090	99
Es	0.284482	-1.114708	-0.983845	99
Es	0.868586	-1.014685	-1.640406	99
Es	0.883481	0.172599	-0.357293	99
Es	-0.486973	0.491693	0.658104	99
Es	-1.321737	-0.415872	0.481627	99
Es	1.108838	-1.331610	-1.223085	99
Es	1.452147	-1.432439	-1.895671	99
Es	0.173530	0.808477	0.517821	99
Es	0.584995	-0.981196	-1.053878	99
Es	2.104379	-1.098114	-2.019250	99
Es	0.550369	1.430225	0.772167	99
Es	-1.988274	0.782587	1.688933	99
Es	0.564263	1.840019	1.059447	99
Es	0.766190	-0.400782	-0.720933	99
Es	0.602011	0.425826	-0.016725	99
Es	-2.631882	0.486056	1.834918	99
Es	0.464211	1.592917	0.927937	99
Es	-1.150085	0.201684	0.820206	99
Es	-1.585531	0.593287	1.038775	99
Es	-1.834385	1.398686	2.036144	99
Es	1.490612	0.400656	-0.526335	99
Es	0.338404	1.973657	1.282795	99
39
Properties=species:S:1:pos:R:3:Z:I:1 energy=-338.7874779868439 field_type=dipole dipole="0.000000 0.000000 0.000000" charge=0
C	-1.988205	0.782565	1.688877	6
C	-1.150215	0.201675	0.820277	6
C	0.173455	0.808605	0.517957	6
O	0.564355	1.840255	1.059577	8
N	0.956125	0.160335	-0.407893	7
N	0.584355	-0.981535	-1.053763	7
C	1.452145	-1.432445	-1.895673	6
H	-2.952925	0.339475	1.908807	1
H	-1.729535	1.708505	2.195007	1
H	-1.418025	-0.720725	0.321177	1
H	1.852564	0.593385	-0.599193	1
H	1.232415	-2.351156	-2.461603	1
H	2.423495	-0.948935	-2.093553	1
Es	0.766278	-0.400879	-0.720828	99
Es	0.285860	-1.116252	-0.981637	99
Es	1.109745	-1.329674	-1.222847	99
Es	-1.322000	-0.415254	0.480522	99
Es	0.552756	1.441893	0.761195	99
Es	1.452150	-1.432439	-1.895668	99
Es	0.884450	0.171284	-0.355712	99
Es	0.709743	1.852312	0.986617	99
Es	-1.640282	0.602135	1.095230	99
Es	-1.409084	0.369080	1.357522	99
Es	1.486368	0.406234	-0.533774	99
Es	0.605659	0.421024	-0.010246	99
Es	0.867340	-1.016279	-1.641176	99
Es	0.955646	0.160678	-0.408447	99
Es	-1.150087	0.201683	0.820205	99
Es	0.564274	1.840011	1.059462	99
Es	1.315061	-2.048031	-2.280773	99
Es	2.103616	-1.097125	-2.020632	99
Es	0.467391	1.588542	0.933635	99
Es	-2.631037	0.485467	1.835493	99
Es	0.340602	1.970613	1.286820	99
Es	-1.988275	0.782587	1.688931	99
Es	-1.834549	1.398467	2.036718	99
Es	0.173530	0.808477	0.517820	99
Es	-0.487690	0.492389	0.657273	99
Es	0.584986	-0.981206	-1.053880	99
39
Properties=species:S:1:pos:R:3:Z:I:1 energy=-338.7874779868439 field_type=dipole dipole="0.000000 0.000000 0.000000" charge=0
C	-1.988205	0.782565	1.688877	6
C	-1.150215	0.201675	0.820277	6
C	0.173455	0.808605	0.517957	6
O	0.564355	1.840255	1.059577	8
N	0.956125	0.160335	-0.407893	7
N	0.584355	-0.981535	-1.053763	7
C	1.452145	-1.432445	-1.895673	6
H	-2.952925	0.339475	1.908807	1
H	-1.729535	1.708505	2.195007	1
H	-1.418025	-0.720725	0.321177	1
H	1.852564	0.593385	-0.599193	1
H	1.232415	-2.351156	-2.461603	1
H	2.423495	-0.948935	-2.093553	1
Es	2.104285	-1.098179	-2.019183	99
Es	0.340064	1.974689	1.283583	99
Es	0.562310	1.437851	0.769400	99
Es	0.883458	0.172649	-0.357365	99
Es	0.765797	-0.401025	-0.720614	99
Es	0.703504	1.848607	0.986563	99
Es	-1.834634	1.398722	2.036317	99
Es	0.284718	-1.114614	-0.984112	99
Es	1.108871	-1.330113	-1.223278	99
Es	-1.475064	0.390012	1.399212	99
Es	-1.575211	0.582440	1.051843	99
Es	0.584991	-0.981198	-1.053876	99
Es	0.955979	0.160339	-0.408083	99
Es	0.602077	0.425896	-0.016706	99
Es	0.564258	1.840019	1.059456	99
Es	0.868750	-1.016022	-1.640148	99
Es	0.464971	1.591770	0.929401	99
Es	-2.631602	0.486119	1.834703	99
Es	-1.150086	0.201679	0.820210	99
Es	0.173529	0.808477	0.517818	99
Es	-1.988275	0.782587	1.688930	99
Es	1.490661	0.400462	-0.526263	99
Es	-1.321698	-0.415864	0.481420	99
Es	1.315592	-2.048602	-2.280058	99
Es	1.452149	-1.432442	-1.895667	99
Es	-0.486943	0.491479	0.658322	99
39
Properties=species:S:1:pos:R:3:Z:I:1 energy=-338.7874779868439 field_type=dipole dipole="0.000000 0.000000 0.000000" charge=0
C	-1.988205	0.782565	1.688877	6
C	-1.150215	0.201675	0.820277	6
C	0.173455	0.808605	0.517957	6
O	0.564355	1.840255	1.059577	8
N	0.956125	0.160335	-0.407893	7
N	0.584355	-0.981535	-1.053763	7
C	1.452145	-1.432445	-1.895673	6
H	-2.952925	0.339475	1.908807	1
H	-1.729535	1.708505	2.195007	1
H	-1.418025	-0.720725	0.321177	1
H	1.852564	0.593385	-0.599193	1
H	1.232415	-2.351156	-2.461603	1
H	2.423495	-0.948935	-2.093553	1
Es	1.452147	-1.432433	-1.895675	99
Es	2.103337	-1.097209	-2.020478	99
Es	-1.988275	0.782587	1.688931	99
Es	0.173535	0.808480	0.517819	99
Es	0.584970	-0.981227	-1.053886	99
Es	-1.150087	0.201682	0.820207	99
Es	-1.322046	-0.415183	0.480461	99
Es	0.765576	-0.401221	-0.720545	99
Es	0.699102	1.846595	0.986499	99
Es	1.486492	0.405874	-0.533285	99
Es	-1.415068	0.378795	1.341471	99
Es	0.286678	-1.115867	-0.981976	99
Es	-0.487766	0.492483	0.657036	99
Es	0.956285	0.159880	-0.407433	99
Es	-2.630756	0.485572	1.835439	99
Es	0.564256	1.839999	1.059441	99
Es	0.468222	1.587366	0.935026	99
Es	0.867809	-1.015362	-1.640671	99
Es	0.342357	1.972101	1.287359	99
Es	0.883431	0.172530	-0.357345	99
Es	1.109435	-1.330613	-1.223227	99
Es	1.315267	-2.047956	-2.280988	99
Es	0.605767	0.420972	-0.010115	99
Es	0.560816	1.447064	0.759570	99
Es	-1.634310	0.592391	1.111351	99
Es	-1.834720	1.398439	2.036842	99
39
Properties=species:S:1:pos:R:3:Z:I:1 energy=-338.7874779868439 field_type=dipole dipole="0.000000 0.000000 0.000000" charge=0
C	-1.988205	0.782565	1.688877	6
C	-1.150215	0.201675	0.820277	6
C	0.173455	0.808605	0.517957	6
O	0.564355	1.840255	1.059577	8
N	0.956125	0.160335	-0.407893	7
N	0.584355	-0.981535	-1.053763	7
C	1.452145	-1.432445	-1.895673	6
H	-2.952925	0.339475	1.908807	1
H	-1.729535	1.708505	2.195007	1
H	-1.418025	-0.720725	0.321177	1
H	1.852564	0.593385	-0.599193	1
H	1.232415	-2.351156	-2.461603	1
H	2.423495	-0.948935	-2.093553	1
Es	0.883179	0.173036	-0.357967	99
Es	1.490211	0.400742	-0.526565	99
Es	-1.565405	0.571828	1.065088	99
Es	0.286597	-1.113918	-0.984479	99
Es	1.109010	-1.330576	-1.222926	99
Es	0.564320	1.840058	1.059473	99
Es	0.602303	0.425636	-0.016318	99
Es	2.103962	-1.098208	-2.019127	99
Es	0.868476	-1.015692	-1.640561	99
Es	0.566971	1.439639	0.769741	99
Es	0.956284	0.159864	-0.407383	99
Es	0.339338	1.975050	1.282704	99
Es	0.584990	-0.981202	-1.053880	99
Es	0.764363	-0.401546	-0.720253	99
Es	1.452151	-1.432444	-1.895664	99
Es	-1.321501	-0.415812	0.481230	99
Es	-1.835067	1.398719	2.036531	99
Es	-0.487213	0.491690	0.658179	99
Es	-2.631116	0.486134	1.834560	99
Es	-1.988276	0.782587	1.688930	99
Es	-1.150086	0.201682	0.820207	99
Es	0.463748	1.593496	0.926956	99
Es	0.173531	0.808476	0.517820	99
Es	1.315836	-2.048506	-2.280250	99
Es	-1.484723	0.400558	1.386303	99
Es	0.700571	1.844448	0.989475	99
39
Properties=species:S:1:pos:R:3:Z:I:1 energy=-338.7874779868439 field_type=dipole dipole="0.000000 0.000000 0.000000" charge=0
C	-1.988205	0.782565	1.688877	6
C	-1.150215	0.201675	0.820277	6
C	0.173455	0.808605	0.517957	6
O	0.564355	1.840255	1.059577	8
N	0.956125	0.160335	-0.407893	7
N	0.584355	-0.981535	-1.053763	7
C	1.452145	-1.432445	-1.895673	6
H	-2.952925	0.339475	1.908807	1
H	-1.729535	1.708505	2.195007	1
H	-1.418025	-0.720725	0.321177	1
H	1.852564	0.593385	-0.599193	1
H	1.232415	-2.351156	-2.461603	1
H	2.423495	-0.948935	-2.093553	1
Es	-1.628046	0.582712	1.127163	99
Es	0.696071	1.842653	0.988584	99
Es	1.452147	-1.432438	-1.895672	99
Es	2.103076	-1.097268	-2.020399	99
Es	-0.487792	0.492348	0.657360	99
Es	0.884311	0.171413	-0.355848	99
Es	1.486121	0.406024	-0.533562	99
Es	0.342508	1.973107	1.286813	99
Es	0.173529	0.808479	0.517818	99
Es	0.564245	1.840005	1.059428	99
Es	0.955754	0.160579	-0.408349	99
Es	-1.834845	1.398434	2.036896	99
Es	-2.630631	0.485605	1.835385	99
Es	-1.421306	0.388677	1.325719	99
Es	0.763860	-0.401654	-0.720283	99
Es	1.315573	-2.047931	-2.281032	99
Es	0.867127	-1.016111	-1.641524	99
Es	0.564974	1.448270	0.760203	99
Es	0.288601	-1.115088	-0.982422	99
Es	-1.150084	0.201685	0.820205	99
Es	0.605767	0.421066	-0.010171	99
Es	0.584990	-0.981202	-1.053879	99
Es	0.466719	1.588959	0.932585	99
Es	1.109891	-1.330004	-1.222501	99
Es	-1.321835	-0.415167	0.480377	99
Es	-1.988274	0.782586	1.688932	99
39
Properties=species:S:1:pos:R:3:Z:I:1 energy=-338.7874779868439 field_type=dipole dipole="0.000000 0.000000 0.000000" charge=0
C	-1.988205	0.782565	1.688877	6
C	-1.150215	0.201675	0.820277	6
C	0.173455	0.808605	0.517957	6
O	0.564355	1.840255	1.059577	8
N	0.956125	0.160335	-0.407893	7
N	0.584355	-0.981535	-1.053763	7
C	1.452145	-1.432445	-1.895673	6
H	-2.952925	0.339475	1.908807	1
H	-1.729535	1.708505	2.195007	1
H	-1.418025	-0.720725	0.321177	1
H	1.852564	0.593385	-0.599193	1
H	1.232415	-2.351156	-2.461603	1
H	2.423495	-0.948935	-2.093553	1
Es	0.602422	0.425523	-0.016128	99
Es	0.956099	0.160189	-0.407886	99
Es	-1.150085	0.201681	0.820209	99
Es	1.109109	-1.331691	-1.222669	99
Es	0.883380	0.172690	-0.357458	99
Es	2.103646	-1.098257	-2.019014	99
Es	0.584999	-0.981200	-1.053874	99
Es	-2.630784	0.486187	1.834378	99
Es	0.868161	-1.014614	-1.641007	99
Es	0.340610	1.975022	1.283866	99
Es	-1.494189	0.411030	1.373119	99
Es	0.693440	1.842433	0.987812	99
Es	0.463905	1.592683	0.927561	99
Es	0.763330	-0.401277	-0.720732	99
Es	-1.321371	-0.415805	0.481190	99
Es	1.490386	0.400368	-0.526119	99
Es	-1.835335	1.398650	2.036793	99
Es	1.452150	-1.432441	-1.895667	99
Es	0.287591	-1.113701	-0.984361	99
Es	-1.988275	0.782587	1.688931	99
Es	-1.556028	0.561616	1.078115	99
Es	1.316091	-2.048393	-2.280475	99
Es	0.564253	1.839980	1.059426	99
Es	0.173531	0.808477	0.517818	99
Es	0.572659	1.442410	0.769667	99
Es	-0.487240	0.491590	0.658331	99
39
Properties=species:S:1:pos:R:3:Z:I:1 energy=-338.7874779868439 field_type=dipole dipole="0.000000 0.000000 0.000000" charge=0
C	-1.988205	0.782565	1.688877	6
C	-1.150215	0.201675	0.820277	6
C	0.173455	0.808605	0.517957	6
O	0.564355	1.840255	1.059577	8
N	0.956125	0.160335	-0.407893	7
N	0.584355	-0.981535	-1.053763	7
C	1.452145	-1.432445	-1.895673	6
H	-2.952925	0.339475	1.908807	1
H	-1.729535	1.708505	2.195007	1
H	-1.418025	-0.720725	0.321177	1
H	1.852564	0.593385	-0.599193	1
H	1.232415	-2.351156	-2.461603	1
H	2.423495	-0.948935	-2.093553	1
Es	0.287831	-1.113508	-0.984698	99
Es	0.584973	-0.981216	-1.053878	99
Es	0.340851	1.975239	1.283938	99
Es	0.690820	1.840467	0.988237	99
Es	-1.321375	-0.415705	0.481038	99
Es	1.452151	-1.432444	-1.895663	99
Es	0.564294	1.840050	1.059457	99
Es	0.173531	0.808477	0.517819	99
Es	1.489955	0.400642	-0.526396	99
Es	0.575570	1.443275	0.770224	99
Es	0.602616	0.425310	-0.015802	99
Es	1.109094	-1.331768	-1.222624	99
Es	0.956340	0.159659	-0.406999	99
Es	-0.487395	0.491764	0.658150	99
Es	-1.988277	0.782586	1.688931	99
Es	2.103595	-1.098257	-2.019085	99
Es	0.868364	-1.014546	-1.640851	99
Es	0.883045	0.173334	-0.358497	99
Es	-1.497556	0.414761	1.368329	99
Es	-2.630742	0.486217	1.834401	99
Es	-1.835343	1.398629	2.036803	99
Es	-1.552583	0.557759	1.083084	99
Es	0.463391	1.593340	0.926606	99
Es	1.316070	-2.048380	-2.280486	99
Es	-1.150085	0.201680	0.820210	99
Es	0.763317	-0.401629	-0.720423	99
39
Properties=species:S:1:pos:R:3:Z:I:1 energy=-338.7874779868439 field_type=dipole dipole="0.000000 0.000000 0.000000" charge=0
C	-1.988205	0.782565	1.688877	6
C	-1.150215	0.201675	0.820277	6
C	0.173455	0.808605	0.517957	6
O	0.564355	1.840255	1.059577	8
N	0.956125	0.160335	-0.407893	7
N	0.584355	-0.981535	-1.053763	7
C	1.452145	-1.432445	-1.895673	6
H	-2.952925	0.339475	1.908807	1
H	-1.729535	1.708505	2.195007	1
H	-1.418025	-0.720725	0.321177	1
H	1.852564	0.593385	-0.599193	1
H	1.232415	-2.351156	-2.461603	1
H	2.423495	-0.948935	-2.093553	1
Es	0.584989	-0.981203	-1.053879	99
Es	1.316050	-2.048410	-2.280443	99
Es	-1.150085	0.201680	0.820209	99
Es	-2.630609	0.486165	1.834359	99
Es	0.883528	0.172478	-0.357170	99
Es	-1.321152	-0.415808	0.481097	99
Es	-1.835482	1.398654	2.036858	99
Es	0.340612	1.975818	1.283297	99
Es	0.574709	1.446745	0.766400	99
Es	1.452153	-1.432438	-1.895667	99
Es	1.489742	0.400956	-0.526797	99
Es	-1.988276	0.782586	1.688930	99
Es	-1.549471	0.554204	1.087633	99
Es	-0.487424	0.491664	0.658298	99
Es	2.103633	-1.098194	-2.019127	99
Es	0.762587	-0.402011	-0.720093	99
Es	0.956185	0.160060	-0.407716	99
Es	0.173532	0.808478	0.517818	99
Es	0.564235	1.839999	1.059455	99
Es	0.602434	0.425574	-0.016155	99
Es	-1.500750	0.418462	1.363641	99
Es	0.690634	1.837751	0.990657	99