44
Properties=species:S:1:pos:R:3:Z:I:1 energy=-304.062548621726 field_type=dipole dipole="0.000000 0.000000 0.000000" charge=0
C	-0.177872	-0.464752	-0.344247	6
C	-0.605632	-0.403262	1.094623	6
C	-1.937842	0.192518	1.468853	6
N	-1.711352	-1.248082	1.558843	7
N	0.613118	0.739778	-0.630237	7
C	2.042048	0.483128	-0.800277	6
C	1.156728	0.748798	-1.987047	6
H	0.374898	-1.398012	-0.511857	1
H	-1.054572	-0.486682	-1.003777	1
H	0.227708	-0.295262	1.778783	1
H	-2.601613	0.521338	0.678513	1
H	-2.016442	0.736748	2.401343	1
H	-1.564542	-1.528742	2.530313	1
H	2.420778	-0.520752	-0.651027	1
H	2.705117	1.275628	-0.474067	1
H	1.217588	1.721097	-2.460607	1
H	0.911888	-0.073482	-2.648127	1
Es	0.214665	-1.102059	-0.463574	99
Es	1.195502	1.407603	-2.312938	99
Es	0.298073	0.196876	-0.524101	99
Es	-0.605850	-0.403371	1.094688	99
Es	-0.776419	-0.475865	-0.792464	99
Es	-2.389663	0.415443	0.932181	99
Es	-1.936520	-0.637768	1.583390	99
Es	0.984692	0.185334	-2.432012	99
Es	-1.937755	0.192268	1.468863	99
Es	-1.993446	0.561641	2.107187	99
Es	-1.711066	-1.247651	1.559150	99
Es	-1.144080	-0.999938	1.357200	99
Es	-1.197796	0.103936	1.232653	99
Es	0.510817	1.046739	-0.486174	99
Es	-0.037970	-0.329073	1.565792	99
Es	1.776342	0.597961	-1.530814	99
Es	2.495135	1.019053	-0.575000	99
Es	-1.612311	-1.397881	2.147726	99
Es	-0.177792	-0.464631	-0.344239	99
Es	-1.874545	-1.469377	1.328042	99
Es	2.291593	-0.203620	-0.693528	99
Es	2.041801	0.483162	-0.800323	99
Es	1.156701	0.748770	-1.986801	99
Es	0.720006	0.751178	-1.280445	99
Es	0.613370	0.739245	-0.630545	99
Es	1.250116	0.586989	-0.557648	99
Es	-0.402426	-0.446875	0.376321	99
44
Properties=species:S:1:pos:R:3:Z:I:1 energy=-304.062548621726 field_type=dipole dipole="0.000000 0.000000 0.000000" charge=0
C	-0.177872	-0.464752	-0.344247	6
C	-0.605632	-0.403262	1.094623	6
C	-1.937842	0.192518	1.468853	6
N	-1.711352	-1.248082	1.558843	7
N	0.613118	0.739778	-0.630237	7
C	2.042048	0.483128	-0.800277	6
C	1.156728	0.748798	-1.987047	6
H	0.374898	-1.398012	-0.511857	1
H	-1.054572	-0.486682	-1.003777	1
H	0.227708	-0.295262	1.778783	1
H	-2.601613	0.521338	0.678513	1
H	-2.016442	0.736748	2.401343	1
H	-1.564542	-1.528742	2.530313	1
H	2.420778	-0.520752	-0.651027	1
H	2.705117	1.275628	-0.474067	1
H	1.217588	1.721097	-2.460607	1
H	0.911888	-0.073482	-2.648127	1
Es	-0.037617	-0.329774	1.566006	99
Es	-1.140532	-1.000433	1.352985	99
Es	-2.390822	0.415312	0.932423	99
Es	0.511667	1.044934	-0.487660	99
Es	-1.994270	0.560074	2.106741	99
Es	-1.937755	0.192277	1.468872	99
Es	1.195028	1.406930	-2.313443	99
Es	-0.776772	-0.475645	-0.792574	99
Es	2.494659	1.018641	-0.575979	99
Es	0.613363	0.739288	-0.630530	99
Es	-1.196522	0.103927	1.232784	99
Es	-0.402276	-0.446965	0.376260	99
Es	-0.605852	-0.403377	1.094689	99
Es	0.214849	-1.102121	-0.463357	99
Es	-1.711052	-1.247635	1.559168	99
Es	-1.941181	-0.637014	1.582384	99
Es	2.292294	-0.203636	-0.693494	99
Es	-1.871565	-1.464867	1.332962	99
Es	1.779209	0.596894	-1.530240	99
Es	1.251769	0.587211	-0.557350	99
Es	0.716065	0.751880	-1.280169	99
Es	-0.177792	-0.464631	-0.344238	99
Es	2.041826	0.483167	-0.800319	99
Es	1.156701	0.748771	-1.986796	99
Es	0.296747	0.197782	-0.523377	99
Es	-1.613769	-1.399895	2.147721	99
Es	0.984778	0.186995	-2.430882	99
44
Properties=species:S:1:pos:R:3:Z:I:1 energy=-304.062548621726 field_type=dipole dipole="0.000000 0.000000 0.000000" charge=0
C	-0.177872	-0.464752	-0.344247	6
C	-0.605632	-0.403262	1.094623	6
C	-1.937842	0.192518	1.468853	6
N	-1.711352	-1.248082	1.558843	7
N	0.613118	0.739778	-0.630237	7
C	2.042048	0.483128	-0.800277	6
C	1.156728	0.748798	-1.987047	6
H	0.374898	-1.398012	-0.511857	1
H	-1.054572	-0.486682	-1.003777	1
H	0.227708	-0.295262	1.778783	1
H	-2.601613	0.521338	0.678513	1
H	-2.016442	0.736748	2.401343	1
H	-1.564542	-1.528742	2.530313	1
H	2.420778	-0.520752	-0.651027	1
H	2.705117	1.275628	-0.474067	1
H	1.217588	1.721097	-2.460607	1
H	0.911888	-0.073482	-2.648127	1
Es	2.494451	1.018228	-0.576321	99
Es	0.984583	0.188296	-2.430002	99
Es	-0.177790	-0.464630	-0.344237	99
Es	1.252563	0.587520	-0.557302	99
Es	1.781260	0.596149	-1.530541	99
Es	2.292548	-0.203667	-0.693652	99
Es	-2.391525	0.415173	0.932695	99
Es	-1.868685	-1.461394	1.336559	99
Es	-1.937755	0.192282	1.468867	99
Es	-0.402189	-0.446984	0.376150	99
Es	-0.037429	-0.330309	1.566171	99
Es	0.613372	0.739235	-0.630550	99
Es	-1.994766	0.559082	2.106477	99
Es	-1.614843	-1.401324	2.147836	99
Es	0.512191	1.044246	-0.489113	99
Es	0.295727	0.198468	-0.522585	99
Es	2.041814	0.483168	-0.800319	99
Es	1.156708	0.748769	-1.986792	99
Es	-0.605859	-0.403375	1.094691	99
Es	-1.138942	-1.001246	1.350431	99
Es	-0.776993	-0.475583	-0.792740	99
Es	0.214972	-1.102015	-0.463208	99
Es	0.714144	0.751647	-1.279283	99
Es	-1.195536	0.103861	1.232887	99
Es	1.194701	1.406514	-2.313705	99
Es	-1.711067	-1.247646	1.559150	99
Es	-1.944476	-0.636374	1.581026	99
44
Properties=species:S:1:pos:R:3:Z:I:1 energy=-304.062548621726 field_type=dipole dipole="0.000000 0.000000 0.000000" charge=0
C	-0.177872	-0.464752	-0.344247	6
C	-0.605632	-0.403262	1.094623	6
C	-1.937842	0.192518	1.468853	6
N	-1.711352	-1.248082	1.558843	7
N	0.613118	0.739778	-0.630237	7
C	2.042048	0.483128	-0.800277	6
C	1.156728	0.748798	-1.987047	6
H	0.374898	-1.398012	-0.511857	1
H	-1.054572	-0.486682	-1.003777	1
H	0.227708	-0.295262	1.778783	1
H	-2.601613	0.521338	0.678513	1
H	-2.016442	0.736748	2.401343	1
H	-1.564542	-1.528742	2.530313	1
H	2.420778	-0.520752	-0.651027	1
H	2.705117	1.275628	-0.474067	1
H	1.217588	1.721097	-2.460607	1
H	0.911888	-0.073482	-2.648127	1
Es	1.252859	0.587523	-0.557228	99
Es	0.712923	0.751974	-1.278951	99
Es	1.782615	0.595794	-1.530615	99
Es	-0.402165	-0.447007	0.376181	99
Es	2.494153	1.017984	-0.576553	99
Es	-1.994948	0.558408	2.106210	99
Es	-1.137750	-1.001526	1.348440	99
Es	-1.711051	-1.247636	1.559172	99
Es	0.512836	1.043399	-0.489861	99
Es	-0.605848	-0.403373	1.094686	99
Es	1.156706	0.748769	-1.986798	99
Es	0.984661	0.189105	-2.429262	99
Es	-1.615207	-1.401923	2.147722	99
Es	-0.777072	-0.475511	-0.792823	99
Es	-0.177794	-0.464631	-0.344239	99
Es	2.041814	0.483166	-0.800316	99
Es	0.294768	0.198895	-0.522352	99
Es	-2.391985	0.415233	0.932776	99
Es	-0.037301	-0.330639	1.566263	99
Es	1.194426	1.406168	-2.314002	99
Es	-1.937749	0.192277	1.468867	99
Es	2.292848	-0.203724	-0.693698	99
Es	0.613369	0.739269	-0.630538	99
Es	-1.195026	0.103491	1.233044	99
Es	-1.946907	-0.636092	1.580501	99
Es	0.215083	-1.102003	-0.463121	99
Es	-1.867080	-1.459300	1.339084	99
44
Properties=species:S:1:pos:R:3:Z:I:1 energy=-304.062548621726 field_type=dipole dipole="0.000000 0.000000 0.000000" charge=0
C	-0.177872	-0.464752	-0.344247	6
C	-0.605632	-0.403262	1.094623	6
C	-1.937842	0.192518	1.468853	6
N	-1.711352	-1.248082	1.558843	7
N	0.613118	0.739778	-0.630237	7
C	2.042048	0.483128	-0.800277	6
C	1.156728	0.748798	-1.987047	6
H	0.374898	-1.398012	-0.511857	1
H	-1.054572	-0.486682	-1.003777	1
H	0.227708	-0.295262	1.778783	1
H	-2.601613	0.521338	0.678513	1
H	-2.016442	0.736748	2.401343	1
H	-1.564542	-1.528742	2.530313	1
H	2.420778	-0.520752	-0.651027	1
H	2.705117	1.275628	-0.474067	1
H	1.217588	1.721097	-2.460607	1
H	0.911888	-0.073482	-2.648127	1
Es	1.156704	0.748771	-1.986797	99
Es	2.041813	0.483168	-0.800318	99
Es	-1.948726	-0.635820	1.579804	99
Es	-1.865647	-1.457792	1.341116	99
Es	-1.937753	0.192284	1.468866	99
Es	-0.402072	-0.447082	0.376106	99
Es	-0.777237	-0.475376	-0.792828	99
Es	-2.392308	0.415216	0.932858	99
Es	2.493942	1.017785	-0.576754	99
Es	-0.037219	-0.330837	1.566312	99
Es	-1.711054	-1.247640	1.559171	99
Es	-0.177796	-0.464630	-0.344240	99
Es	-1.194705	0.103294	1.233212	99
Es	1.783646	0.595355	-1.530826	99
Es	0.984566	0.189905	-2.428826	99
Es	1.253306	0.587575	-0.557194	99
Es	-1.995205	0.557856	2.106064	99
Es	-0.605847	-0.403371	1.094687	99
Es	0.513536	1.042563	-0.490579	99
Es	0.215154	-1.102002	-0.463135	99
Es	1.194301	1.405896	-2.313994	99
Es	-1.136842	-1.002033	1.347063	99
Es	0.293988	0.199352	-0.521769	99
Es	0.613368	0.739252	-0.630544	99
Es	0.711718	0.752269	-1.278743	99
Es	-1.615510	-1.402164	2.147600	99
Es	2.293056	-0.203703	-0.693722	99
44
Properties=species:S:1:pos:R:3:Z:I:1 energy=-304.062548621726 field_type=dipole dipole="0.000000 0.000000 0.000000" charge=0
C	-0.177872	-0.464752	-0.344247	6
C	-0.605632	-0.403262	1.094623	6
C	-1.937842	0.192518	1.468853	6
N	-1.711352	-1.248082	1.558843	7
N	0.613118	0.739778	-0.630237	7
C	2.042048	0.483128	-0.800277	6
C	1.156728	0.748798	-1.987047	6
H	0.374898	-1.398012	-0.511857	1
H	-1.054572	-0.486682	-1.003777	1
H	0.227708	-0.295262	1.778783	1
H	-2.601613	0.521338	0.678513	1
H	-2.016442	0.736748	2.401343	1
H	-1.564542	-1.528742	2.530313	1
H	2.420778	-0.520752	-0.651027	1
H	2.705117	1.275628	-0.474067	1
H	1.217588	1.721097	-2.460607	1
H	0.911888	-0.073482	-2.648127	1
Es	2.293165	-0.203628	-0.693664	99
Es	-0.177793	-0.464632	-0.344238	99
Es	0.984652	0.190419	-2.428318	99
Es	-1.995343	0.557489	2.105979	99
Es	-1.937756	0.192280	1.468867	99
Es	-1.136112	-1.002196	1.346269	99
Es	-0.605848	-0.403373	1.094686	99
Es	-0.402017	-0.447100	0.376110	99
Es	2.493820	1.017675	-0.576895	99
Es	0.215246	-1.101929	-0.463080	99
Es	2.041811	0.483169	-0.800314	99
Es	-0.037211	-0.330989	1.566409	99
Es	0.513864	1.042422	-0.491269	99
Es	-1.864130	-1.456207	1.342430	99
Es	0.710871	0.752046	-1.278439	99
Es	-1.711062	-1.247644	1.559156	99
Es	-0.777268	-0.475407	-0.792903	99
Es	-1.616096	-1.402847	2.147561	99
Es	-2.392556	0.415195	0.932959	99
Es	-1.194559	0.103106	1.233267	99
Es	1.194201	1.405693	-2.314206	99
Es	1.253700	0.587630	-0.557401	99
Es	1.784317	0.594983	-1.530869	99
Es	1.156703	0.748766	-1.986792	99
Es	0.613377	0.739251	-0.630550	99
Es	0.293396	0.199698	-0.521323	99
Es	-1.950194	-0.635778	1.579155	99
44
Properties=species:S:1:pos:R:3:Z:I:1 energy=-304.062548621726 field_type=dipole dipole="0.000000 0.000000 0.000000" charge=0
C	-0.177872	-0.464752	-0.344247	6
C	-0.605632	-0.403262	1.094623	6
C	-1.937842	0.192518	1.468853	6
N	-1.711352	-1.248082	1.558843	7
N	0.613118	0.739778	-0.630237	7
C	2.042048	0.483128	-0.800277	6
C	1.156728	0.748798	-1.987047	6
H	0.374898	-1.398012	-0.511857	1
H	-1.054572	-0.486682	-1.003777	1
H	0.227708	-0.295262	1.778783	1
H	-2.601613	0.521338	0.678513	1
H	-2.016442	0.736748	2.401343	1
H	-1.564542	-1.528742	2.530313	1
H	2.420778	-0.520752	-0.651027	1
H	2.705117	1.275628	-0.474067	1
H	1.217588	1.721097	-2.460607	1
H	0.911888	-0.073482	-2.648127	1
Es	-0.777327	-0.475346	-0.792991	99
Es	-1.863028	-1.455116	1.343418	99
Es	-0.605850	-0.403371	1.094687	99
Es	2.293266	-0.203690	-0.693767	99
Es	0.710017	0.752530	-1.278393	99
Es	-2.392696	0.415080	0.932991	99
Es	-1.194297	0.102996	1.233383	99
Es	0.613364	0.739272	-0.630533	99
Es	-0.402028	-0.447048	0.376020	99
Es	-1.937755	0.192281	1.468866	99
Es	-1.616349	-1.403347	2.147290	99
Es	0.215263	-1.101924	-0.462979	99
Es	0.984747	0.190662	-2.427973	99
Es	-0.177793	-0.464632	-0.344238	99
Es	2.493721	1.017528	-0.576981	99
Es	1.156708	0.748769	-1.986792	99
Es	-1.951372	-0.635804	1.578881	99
Es	0.293169	0.199696	-0.521113	99
Es	-0.037135	-0.331052	1.566503	99
Es	-1.135648	-1.002059	1.345709	99
Es	1.253936	0.587878	-0.557520	99
Es	2.041808	0.483167	-0.800314	99
Es	1.784897	0.595014	-1.530751	99
Es	0.514207	1.041676	-0.491527	99
Es	1.194051	1.405447	-2.314369	99
Es	-1.711063	-1.247670	1.559165	99
Es	-1.995635	0.557157	2.105915	99
44
Properties=species:S:1:pos:R:3:Z:I:1 energy=-304.062548621726 field_type=dipole dipole="0.000000 0.000000 0.000000" charge=0
C	-0.177872	-0.464752	-0.344247	6
C	-0.605632	-0.403262	1.094623	6
C	-1.937842	0.192518	1.468853	6
N	-1.711352	-1.248082	1.558843	7
N	0.613118	0.739778	-0.630237	7
C	2.042048	0.483128	-0.800277	6
C	1.156728	0.748798	-1.987047	6
H	0.374898	-1.398012	-0.511857	1
H	-1.054572	-0.486682	-1.003777	1
H	0.227708	-0.295262	1.778783	1
H	-2.601613	0.521338	0.678513	1
H	-2.016442	0.736748	2.401343	1
H	-1.564542	-1.528742	2.530313	1
H	2.420778	-0.520752	-0.651027	1
H	2.705117	1.275628	-0.474067	1
H	1.217588	1.721097	-2.460607	1
H	0.911888	-0.073482	-2.648127	1
Es	0.613378	0.739295	-0.630538	99
Es	-0.177792	-0.464631	-0.344238	99
Es	2.493641	1.017474	-0.577176	99
Es	-1.616809	-1.403723	2.147235	99
Es	-0.777424	-0.475267	-0.793013	99
Es	0.709979	0.752256	-1.278334	99
Es	-0.401980	-0.447058	0.376061	99
Es	0.215276	-1.101920	-0.463001	99
Es	-1.995636	0.556916	2.105843	99
Es	0.984725	0.191113	-2.427706	99
Es	2.293367	-0.203667	-0.693720	99
Es	-1.135228	-1.002428	1.345096	99
Es	-1.862236	-1.453970	1.344362	99
Es	-0.037044	-0.331144	1.566577	99
Es	1.194008	1.405353	-2.314366	99
Es	0.514519	1.041645	-0.492063	99
Es	0.292607	0.200054	-0.520884	99
Es	1.253904	0.587744	-0.557120	99
Es	-1.711058	-1.247663	1.559176	99
Es	1.785226	0.594665	-1.530946	99
Es	-0.605850	-0.403374	1.094687	99
Es	-1.937750	0.192285	1.468865	99
Es	2.041825	0.483170	-0.800325	99
Es	-2.392881	0.415119	0.933075	99
Es	-1.952203	-0.635634	1.578505	99
Es	1.156708	0.748770	-1.986794	99
Es	-1.194093	0.102714	1.233332	99
44
Properties=species:S:1:pos:R:3:Z:I:1 energy=-304.062548621726 field_type=dipole dipole="0.000000 0.000000 0.000000" charge=0
C	-0.177872	-0.464752	-0.344247	6
C	-0.605632	-0.403262	1.094623	6
C	-1.937842	0.192518	1.468853	6
N	-1.711352	-1.248082	1.558843	7
N	0.613118	0.739778	-0.630237	7
C	2.042048	0.483128	-0.800277	6
C	1.156728	0.748798	-1.987047	6
H	0.374898	-1.398012	-0.511857	1
H	-1.054572	-0.486682	-1.003777	1
H	0.227708	-0.295262	1.778783	1
H	-2.601613	0.521338	0.678513	1
H	-2.016442	0.736748	2.401343	1
H	-1.564542	-1.528742	2.530313	1
H	2.420778	-0.520752	-0.651027	1
H	2.705117	1.275628	-0.474067	1
H	1.217588	1.721097	-2.460607	1
H	0.911888	-0.073482	-2.648127	1
Es	0.709316	0.752423	-1.278242	99
Es	-0.605848	-0.403367	1.094686	99
Es	2.041801	0.483167	-0.800311	99
Es	-0.777456	-0.475305	-0.793020	99
Es	-0.037001	-0.331209	1.566623	99
Es	-1.194087	0.102541	1.233303	99
Es	0.215308	-1.101853	-0.462983	99
Es	2.493595	1.017432	-0.577224	99
Es	0.613387	0.739226	-0.630561	99
Es	-1.937756	0.192280	1.468868	99
Es	-1.995600	0.556801	2.105777	99
Es	-0.177793	-0.464632	-0.344238	99
Es	0.984731	0.191433	-2.427483	99
Es	2.293443	-0.203626	-0.693792	99
Es	1.785681	0.594513	-1.530967	99
Es	-0.401968	-0.447092	0.376026	99
Es	-1.711050	-1.247633	1.559169	99
Es	1.193893	1.405233	-2.314370	99
Es	-1.616887	-1.403613	2.147294	99
Es	1.254043	0.587573	-0.557546	99
Es	0.514822	1.041484	-0.491968	99
Es	1.156707	0.748771	-1.986797	99
Es	-1.953188	-0.635845	1.578026	99
Es	-1.861375	-1.453587	1.345167	99
Es	-2.393034	0.415101	0.933175	99
Es	0.292429	0.200196	-0.520744	99
Es	-1.134935	-1.002320	1.344721	99
44
Properties=species:S:1:pos:R:3:Z:I:1 energy=-304.062548621726 field_type=dipole dipole="0.000000 0.000000 0.000000" charge=0
C	-0.177872	-0.464752	-0.344247	6
C	-0.605632	-0.403262	1.094623	6
C	-1.937842	0.192518	1.468853	6
N	-1.711352	-1.248082	1.558843	7
N	0.613118	0.739778	-0.630237	7
C	2.042048	0.483128	-0.800277	6
C	1.156728	0.748798	-1.987047	6
H	0.374898	-1.398012	-0.511857	1
H	-1.054572	-0.486682	-1.003777	1
H	0.227708	-0.295262	1.778783	1
H	-2.601613	0.521338	0.678513	1
H	-2.016442	0.736748	2.401343	1
H	-1.564542	-1.528742	2.530313	1
H	2.420778	-0.520752	-0.651027	1
H	2.705117	1.275628	-0.474067	1
H	1.217588	1.721097	-2.460607	1
H	0.911888	-0.073482	-2.648127	1
Es	-0.777487	-0.475241	-0.793011	99
Es	1.254082	0.587654	-0.557542	99
Es	2.493464	1.017408	-0.577214	99
Es	-0.401969	-0.447157	0.375996	99
Es	-1.995729	0.556551	2.105697	99
Es	-1.193865	0.102541	1.233357	99
Es	0.613366	0.739228	-0.630547	99
Es	0.292060	0.200383	-0.520473	99
Es	2.041813	0.483165	-0.800316	99
Es	1.156704	0.748767	-1.986793	99
Es	-1.860797	-1.452992	1.345871	99
Es	0.984736	0.191602	-2.427301	99
Es	1.193867	1.405130	-2.314444	99
Es	0.515078	1.041210	-0.492448	99
Es	-1.134808	-1.002548	1.344292	99
Es	0.215333	-1.101893	-0.462994	99
Es	1.786020	0.594392	-1.531063	99
Es	-1.953837	-0.635732	1.577660	99
Es	-0.605845	-0.403374	1.094683	99
Es	-0.177793	-0.464633	-0.344238	99
Es	-2.393140	0.415084	0.933255	99
Es	-1.937754	0.192279	1.468867	99
Es	-1.616916	-1.403687	2.147357	99
Es	0.709107	0.752447	-1.278053	99
Es	-0.036991	-0.331257	1.566584	99
Es	2.293544	-0.203583	-0.693756	99
Es	-1.711065	-1.247654	1.559160	99
44
Properties=species:S:1:pos:R:3:Z:I:1 energy=-304.062548621726 field_type=dipole dipole="0.000000 0.000000 0.000000" charge=0
C	-0.177872	-0.464752	-0.344247	6
C	-0.605632	-0.403262	1.094623	6
C	-1.937842	0.192518	1.468853	6
N	-1.711352	-1.248082	1.558843	7
N	0.613118	0.739778	-0.630237	7
C	2.042048	0.483128	-0.800277	6
C	1.156728	0.748798	-1.987047	6
H	0.374898	-1.398012	-0.511857	1
H	-1.054572	-0.486682	-1.003777	1
H	0.227708	-0.295262	1.778783	1
H	-2.601613	0.521338	0.678513	1
H	-2.016442	0.736748	2.401343	1
H	-1.564542	-1.528742	2.530313	1
H	2.420778	-0.520752	-0.651027	1
H	2.705117	1.275628	-0.474067	1
H	1.217588	1.721097	-2.460607	1
H	0.911888	-0.073482	-2.648127	1
Es	0.984826	0.191807	-2.427146	99
Es	1.193872	1.405037	-2.314466	99
Es	0.613385	0.739231	-0.630559	99
Es	-1.711060	-1.247644	1.559153	99
Es	-0.177793	-0.464633	-0.344236	99
Es	-1.954666	-0.635871	1.577368	99
Es	-0.777618	-0.475157	-0.792946	99
Es	1.786142	0.594324	-1.531105	99
Es	-2.393244	0.415017	0.933266	99
Es	-1.937754	0.192282	1.468867	99
Es	-0.401790	-0.447210	0.375950	99
Es	0.708900	0.752365	-1.277961	99
Es	2.493478	1.017331	-0.577263	99
Es	-0.605845	-0.403375	1.094685	99
Es	1.254234	0.587696	-0.557471	99
Es	-1.859987	-1.452436	1.346467	99
Es	-1.617121	-1.403858	2.147230	99
Es	2.293511	-0.203629	-0.693748	99
Es	0.515113	1.041186	-0.492673	99
Es	1.156705	0.748771	-1.986794	99
Es	0.291912	0.200489	-0.520430	99
Es	-1.134577	-1.002395	1.344033	99
Es	-1.193740	0.102369	1.233345	99
Es	2.041818	0.483167	-0.800318	99
Es	0.215270	-1.101890	-0.463049	99
Es	-0.036978	-0.331313	1.566719	99
Es	-1.995810	0.556429	2.105669	99
44
Properties=species:S:1:pos:R:3:Z:I:1 energy=-304.062548621726 field_type=dipole dipole="0.000000 0.000000 0.000000" charge=0
C	-0.177872	-0.464752	-0.344247	6
C	-0.605632	-0.403262	1.094623	6
C	-1.937842	0.192518	1.468853	6
N	-1.711352	-1.248082	1.558843	7
N	0.613118	0.739778	-0.630237	7
C	2.042048	0.483128	-0.800277	6
C	1.156728	0.748798	-1.987047	6
H	0.374898	-1.398012	-0.511857	1
H	-1.054572	-0.486682	-1.003777	1
H	0.227708	-0.295262	1.778783	1
H	-2.601613	0.521338	0.678513	1
H	-2.016442	0.736748	2.401343	1
H	-1.564542	-1.528742	2.530313	1
H	2.420778	-0.520752	-0.651027	1
H	2.705117	1.275628	-0.474067	1
H	1.217588	1.721097	-2.460607	1
H	0.911888	-0.073482	-2.648127	1
Es	0.215390	-1.101878	-0.462994	99
Es	0.708651	0.752491	-1.278057	99
Es	-1.134115	-1.002323	1.343918	99
Es	1.254155	0.587409	-0.557731	99
Es	-1.711070	-1.247685	1.559164	99
Es	0.984746	0.191918	-2.427012	99
Es	-0.036939	-0.331310	1.566686	99
Es	0.613372	0.739266	-0.630543	99
Es	-1.954928	-0.635994	1.577384	99
Es	2.041811	0.483168	-0.800321	99
Es	1.193809	1.404973	-2.314517	99
Es	-2.393373	0.415038	0.933334	99
Es	-0.605846	-0.403376	1.094685	99
Es	1.786439	0.594249	-1.531050	99
Es	2.493332	1.017317	-0.577266	99
Es	1.156707	0.748770	-1.986790	99
Es	-0.777581	-0.475188	-0.793009	99
Es	-1.937754	0.192281	1.468867	99
Es	-0.177793	-0.464632	-0.344238	99
Es	-1.617302	-1.404018	2.146982	99
Es	-1.859710	-1.452054	1.346705	99
Es	-0.401884	-0.447092	0.375972	99
Es	-1.193829	0.102428	1.233440	99
Es	0.291408	0.200683	-0.520069	99
Es	0.515689	1.041010	-0.492812	99
Es	2.293664	-0.203562	-0.693781	99
Es	-1.995870	0.556204	2.105641	99
44
Properties=species:S:1:pos:R:3:Z:I:1 energy=-304.062548621726 field_type=dipole dipole="0.000000 0.000000 0.000000" charge=0
C	-0.177872	-0.464752	-0.344247	6
C	-0.605632	-0.403262	1.094623	6
C	-1.937842	0.192518	1.468853	6
N	-1.711352	-1.248082	1.558843	7
N	0.613118	0.739778	-0.630237	7
C	2.042048	0.483128	-0.800277	6
C	1.156728	0.748798	-1.987047	6
H	0.374898	-1.398012	-0.511857	1
H	-1.054572	-0.486682	-1.003777	1
H	0.227708	-0.295262	1.778783	1
H	-2.601613	0.521338	0.678513	1
H	-2.016442	0.736748	2.401343	1
H	-1.564542	-1.528742	2.530313	1
H	2.420778	-0.520752	-0.651027	1
H	2.705117	1.275628	-0.474067	1
H	1.217588	1.721097	-2.460607	1
H	0.911888	-0.073482	-2.648127	1
Es	-2.393388	0.414994	0.933305	99
Es	-1.859224	-1.451382	1.347320	99
Es	1.193810	1.404853	-2.314444	99
Es	-0.605849	-0.403376	1.094686	99
Es	-1.617394	-1.404252	2.147108	99
Es	-1.955402	-0.635864	1.577102	99
Es	1.254219	0.587805	-0.557530	99
Es	0.984772	0.192108	-2.426945	99
Es	0.708407	0.752663	-1.277888	99
Es	-1.711050	-1.247635	1.559173	99
Es	1.786694	0.594059	-1.531139	99
Es	2.293580	-0.203517	-0.693815	99
Es	-0.177793	-0.464633	-0.344238	99
Es	-1.134076	-1.002667	1.343443	99
Es	0.613379	0.739220	-0.630557	99
Es	-1.995902	0.556207	2.105618	99
Es	0.215352	-1.101793	-0.462877	99
Es	-0.401910	-0.447085	0.375948	99
Es	-0.036934	-0.331385	1.566687	99
Es	-1.193762	0.102232	1.233481	99
Es	0.291792	0.200537	-0.520380	99
Es	1.156707	0.748769	-1.986792	99
Es	-1.937759	0.192283	1.468868	99
Es	-0.777592	-0.475284	-0.793094	99
Es	2.041802	0.483167	-0.800317	99
Es	0.515239	1.040741	-0.492796	99
Es	2.493458	1.017325	-0.577340	99
44
Properties=species:S:1:pos:R:3:Z:I:1 energy=-304.062548621726 field_type=dipole dipole="0.000000 0.000000 0.000000" charge=0
C	-0.177872	-0.464752	-0.344247	6
C	-0.605632	-0.403262	1.094623	6
C	-1.937842	0.192518	1.468853	6
N	-1.711352	-1.248082	1.558843	7
N	0.613118	0.739778	-0.630237	7
C	2.042048	0.483128	-0.800277	6
C	1.156728	0.748798	-1.987047	6
H	0.374898	-1.398012	-0.511857	1
H	-1.054572	-0.486682	-1.003777	1
H	0.227708	-0.295262	1.778783	1
H	-2.601613	0.521338	0.678513	1
H	-2.016442	0.736748	2.401343	1
H	-1.564542	-1.528742	2.530313	1
H	2.420778	-0.520752	-0.651027	1
H	2.705117	1.275628	-0.474067	1
H	1.217588	1.721097	-2.460607	1
H	0.911888	-0.073482	-2.648127	1
Es	1.786768	0.593995	-1.531221	99
Es	2.293630	-0.203542	-0.693718	99
Es	-0.177793	-0.464633	-0.344238	99
Es	-1.995882	0.556172	2.105637	99
Es	0.291192	0.200795	-0.519812	99
Es	0.984858	0.192268	-2.426717	99
Es	-0.401925	-0.447158	0.375924	99
Es	-1.617176	-1.403796	2.147131	99
Es	-0.036899	-0.331502	1.566719	99
Es	2.493379	1.017288	-0.577410	99
Es	-1.937755	0.192281	1.468867	99
Es	-1.134130	-1.002658	1.343242	99
Es	0.613383	0.739226	-0.630559	99
Es	1.156706	0.748770	-1.986792	99
Es	1.193700	1.404842	-2.314569	99
Es	0.708156	0.752547	-1.277826	99
Es	-1.859061	-1.451557	1.347727	99
Es	0.515877	1.040611	-0.493202	99
Es	-2.393434	0.414986	0.933386	99
Es	-0.605847	-0.403374	1.094686	99
Es	2.041813	0.483168	-0.800318	99
Es	-1.711064	-1.247672	1.559159	99
Es	-1.955859	-0.635746	1.576864	99
Es	-1.193616	0.102077	1.233376	99
Es	1.254394	0.587722	-0.557748	99
Es	-0.777592	-0.475193	-0.793071	99
Es	0.215358	-1.101824	-0.462929	99
44
Properties=species:S:1:pos:R:3:Z:I:1 energy=-304.062548621726 field_type=dipole dipole="0.000000 0.000000 0.000000" charge=0
C	-0.177872	-0.464752	-0.344247	6
C	-0.605632	-0.403262	1.094623	6
C	-1.937842	0.192518	1.468853	6
N	-1.711352	-1.248082	1.558843	7
N	0.613118	0.739778	-0.630237	7
C	2.042048	0.483128	-0.800277	6
C	1.156728	0.748798	-1.987047	6
H	0.374898	-1.398012	-0.511857	1
H	-1.054572	-0.486682	-1.003777	1
H	0.227708	-0.295262	1.778783	1
H	-2.601613	0.521338	0.678513	1
H	-2.016442	0.736748	2.401343	1
H	-1.564542	-1.528742	2.530313	1
H	2.420778	-0.520752	-0.651027	1
H	2.705117	1.275628	-0.474067	1
H	1.217588	1.721097	-2.460607	1
H	0.911888	-0.073482	-2.648127	1
Es	2.493441	1.017285	-0.577442	99
Es	-0.177793	-0.464632	-0.344237	99
Es	-1.937755	0.192281	1.468866	99
Es	-1.995945	0.556049	2.105642	99
Es	-1.193624	0.102202	1.233409	99
Es	0.984835	0.192342	-2.426689	99
Es	0.291376	0.200696	-0.519779	99
Es	-0.036874	-0.331484	1.566732	99
Es	0.215344	-1.101833	-0.462876	99
Es	-1.858309	-1.451389	1.348409	99
Es	-0.605846	-0.403375	1.094685	99
Es	2.293618	-0.203528	-0.693836	99
Es	-1.134050	-1.002616	1.342985	99
Es	0.707919	0.752486	-1.277690	99
Es	-0.401906	-0.447065	0.375927	99
Es	2.041813	0.483170	-0.800320	99
Es	1.193749	1.404792	-2.314552	99
Es	-1.711057	-1.247638	1.559165	99
Es	1.156710	0.748769	-1.986791	99
Es	-1.617080	-1.403538	2.147165	99
Es	0.613381	0.739231	-0.630554	99
Es	-2.393422	0.415038	0.933419	99
Es	0.515697	1.040501	-0.493354	99
Es	1.786833	0.593934	-1.531211	99
Es	-1.956739	-0.636335	1.576323	99
Es	-0.777637	-0.475175	-0.793100	99
Es	1.254497	0.587925	-0.557707	99
44
Properties=species:S:1:pos:R:3:Z:I:1 energy=-304.062548621726 field_type=dipole dipole="0.000000 0.000000 0.000000" charge=0
C	-0.177872	-0.464752	-0.344247	6
C	-0.605632	-0.403262	1.094623	6
C	-1.937842	0.192518	1.468853	6
N	-1.711352	-1.248082	1.558843	7
N	0.613118	0.739778	-0.630237	7
C	2.042048	0.483128	-0.800277	6
C	1.156728	0.748798	-1.987047	6
H	0.374898	-1.398012	-0.511857	1
H	-1.054572	-0.486682	-1.003777	1
H	0.227708	-0.295262	1.778783	1
H	-2.601613	0.521338	0.678513	1
H	-2.016442	0.736748	2.401343	1
H	-1.564542	-1.528742	2.530313	1
H	2.420778	-0.520752	-0.651027	1
H	2.705117	1.275628	-0.474067	1
H	1.217588	1.721097	-2.460607	1
H	0.911888	-0.073482	-2.648127	1
Es	1.193698	1.404709	-2.314532	99
Es	0.707882	0.752555	-1.277711	99
Es	-0.777639	-0.475156	-0.793060	99
Es	0.516136	1.040504	-0.493448	99
Es	-1.858345	-1.450767	1.348411	99
Es	-1.995953	0.555986	2.105529	99
Es	-1.617467	-1.404049	2.147037	99
Es	-1.193580	0.102076	1.233455	99
Es	-0.401882	-0.447135	0.375943	99
Es	2.493406	1.017267	-0.577477	99
Es	0.215369	-1.101836	-0.462942	99
Es	1.254454	0.587586	-0.557784	99
Es	-1.711069	-1.247647	1.559138	99
Es	-1.133806	-1.002793	1.342909	99
Es	2.293650	-0.203505	-0.693801	99
Es	-0.605847	-0.403375	1.094686	99
Es	-2.393534	0.414986	0.933389	99
Es	1.786986	0.593918	-1.531185	99
Es	-1.937756	0.192279	1.468866	99
Es	0.290900	0.201013	-0.519671	99
Es	-0.177795	-0.464635	-0.344238	99
Es	0.984834	0.192397	-2.426649	99
Es	0.613369	0.739238	-0.630543	99
Es	-1.956490	-0.635950	1.576601	99
Es	-0.036863	-0.331509	1.566773	99
Es	2.041814	0.483167	-0.800317	99
Es	1.156706	0.748769	-1.986790	99
44
Properties=species:S:1:pos:R:3:Z:I:1 energy=-304.062548621726 field_type=dipole dipole="0.000000 0.000000 0.000000" charge=0
C	-0.177872	-0.464752	-0.344247	6
C	-0.605632	-0.403262	1.094623	6
C	-1.937842	0.192518	1.468853	6
N	-1.711352	-1.248082	1.558843	7
N	0.613118	0.739778	-0.630237	7
C	2.042048	0.483128	-0.800277	6
C	1.156728	0.748798	-1.987047	6
H	0.374898	-1.398012	-0.511857	1
H	-1.054572	-0.486682	-1.003777	1
H	0.227708	-0.295262	1.778783	1
H	-2.601613	0.521338	0.678513	1
H	-2.016442	0.736748	2.401343	1
H	-1.564542	-1.528742	2.530313	1
H	2.420778	-0.520752	-0.651027	1
H	2.705117	1.275628	-0.474067	1
H	1.217588	1.721097	-2.460607	1
H	0.911888	-0.073482	-2.648127	1
Es	-1.956733	-0.635806	1.576499	99
Es	-1.858194	-1.450936	1.348361	99
Es	-1.617329	-1.403984	2.147044	99
Es	2.293714	-0.203499	-0.693783	99
Es	2.493327	1.017259	-0.577474	99
Es	0.984930	0.192510	-2.426533	99
Es	2.041813	0.483167	-0.800317	99
Es	1.193794	1.404639	-2.314584	99
Es	-2.393566	0.414940	0.933371	99
Es	-1.193646	0.101869	1.233526	99
Es	-1.937757	0.192282	1.468867	99
Es	1.156704	0.748770	-1.986791	99
Es	-0.177794	-0.464634	-0.344238	99
Es	-0.036910	-0.331487	1.566813	99
Es	-0.777580	-0.475231	-0.793139	99
Es	-1.996019	0.555932	2.105554	99
Es	-0.605847	-0.403374	1.094685	99
Es	1.787162	0.593805	-1.530975	99
Es	0.706858	0.753300	-1.277771	99
Es	-1.133702	-1.002548	1.342927	99
Es	-0.401913	-0.447093	0.375912	99
Es	-1.711058	-1.247653	1.559175	99
Es	0.290769	0.200982	-0.519460	99
Es	0.215445	-1.101805	-0.462860	99
Es	0.516757	1.040100	-0.492874	99
Es	0.613385	0.739234	-0.630558	99
Es	1.254566	0.587352	-0.558791	99
44
Properties=species:S:1:pos:R:3:Z:I:1 energy=-304.062548621726 field_type=dipole dipole="0.000000 0.000000 0.000000" charge=0
C	-0.177872	-0.464752	-0.344247	6
C	-0.605632	-0.403262	1.094623	6
C	-1.937842	0.192518	1.468853	6
N	-1.711352	-1.248082	1.558843	7
N	0.613118	0.739778	-0.630237	7
C	2.042048	0.483128	-0.800277	6
C	1.156728	0.748798	-1.987047	6
H	0.374898	-1.398012	-0.511857	1
H	-1.054572	-0.486682	-1.003777	1
H	0.227708	-0.295262	1.778783	1
H	-2.601613	0.521338	0.678513	1
H	-2.016442	0.736748	2.401343	1
H	-1.564542	-1.528742	2.530313	1
H	2.420778	-0.520752	-0.651027	1
H	2.705117	1.275628	-0.474067	1
H	1.217588	1.721097	-2.460607	1
H	0.911888	-0.073482	-2.648127	1
Es	1.787079	0.593779	-1.531101	99
Es	-1.617463	-1.403962	2.147124	99
Es	-0.036924	-0.331517	1.566811	99
Es	-1.711060	-1.247668	1.559191	99
Es	2.493430	1.017319	-0.577583	99
Es	0.290423	0.201246	-0.519410	99
Es	-0.605845	-0.403376	1.094684	99
Es	-1.133599	-1.002712	1.342620	99
Es	0.613387	0.739228	-0.630560	99
Es	0.516600	1.040335	-0.493548	99
Es	-1.956909	-0.636030	1.576254	99
Es	-1.857963	-1.450517	1.348786	99
Es	-0.777669	-0.475166	-0.793082	99
Es	1.193711	1.404632	-2.314542	99
Es	-1.996001	0.555776	2.105520	99
Es	-0.177793	-0.464632	-0.344238	99
Es	-1.937752	0.192281	1.468866	99
Es	2.293676	-0.203523	-0.693782	99
Es	1.156706	0.748771	-1.986795	99
Es	2.041812	0.483168	-0.800319	99
Es	-2.393663	0.415002	0.933468	99
Es	-1.193595	0.101964	1.233509	99
Es	-0.401805	-0.447121	0.375873	99
Es	0.215469	-1.101823	-0.462916	99
Es	0.984954	0.192566	-2.426519	99
Es	1.254563	0.587400	-0.558107	99
Es	0.707408	0.752669	-1.277614	99
44
Properties=species:S:1:pos:R:3:Z:I:1 energy=-304.062548621726 field_type=dipole dipole="0.000000 0.000000 0.000000" charge=0
C	-0.177872	-0.464752	-0.344247	6
C	-0.605632	-0.403262	1.094623	6
C	-1.937842	0.192518	1.468853	6
N	-1.711352	-1.248082	1.558843	7
N	0.613118	0.739778	-0.630237	7
C	2.042048	0.483128	-0.800277	6
C	1.156728	0.748798	-1.987047	6
H	0.374898	-1.398012	-0.511857	1
H	-1.054572	-0.486682	-1.003777	1
H	0.227708	-0.295262	1.778783	1
H	-2.601613	0.521338	0.678513	1
H	-2.016442	0.736748	2.401343	1
H	-1.564542	-1.528742	2.530313	1
H	2.420778	-0.520752	-0.651027	1
H	2.705117	1.275628	-0.474067	1
H	1.217588	1.721097	-2.460607	1
H	0.911888	-0.073482	-2.648127	1
Es	-0.177793	-0.464633	-0.344238	99
Es	1.254527	0.587707	-0.557808	99
Es	0.516390	1.040153	-0.493822	99
Es	0.215405	-1.101778	-0.462888	99
Es	0.984952	0.192653	-2.426373	99
Es	1.156704	0.748770	-1.986795	99
Es	2.493292	1.017228	-0.577604	99