43
Properties=species:S:1:pos:R:3:Z:I:1 energy=-323.9937041547738 field_type=dipole dipole="0.000000 0.000000 0.000000" charge=0
C	-0.163743	-1.575234	0.988882	6
C	-0.428313	-0.927864	-0.362657	6
N	0.385037	0.271246	-0.568507	7
C	-0.014293	1.526646	-0.136277	6
C	-1.149673	1.820846	0.505723	6
C	1.629007	0.099906	-1.174808	6
O	2.110057	-0.959774	-1.560777	8
H	-0.771473	-2.478264	1.102342	1
H	-0.407083	-0.895034	1.811132	1
H	0.889467	-1.857184	1.090253	1
H	-1.490123	-0.687214	-0.480907	1
H	-0.197673	-1.655454	-1.150247	1
H	0.679047	2.340506	-0.345577	1
H	-1.899113	1.084635	0.768832	1
H	-1.356533	2.846216	0.798523	1
H	2.185407	1.046026	-1.285928	1
Es	-0.428191	-0.927676	-0.362637	99
Es	0.547648	-1.762436	1.052377	99
Es	-1.288278	2.511720	0.701873	99
Es	1.923071	-1.200991	-1.509253	99
Es	-1.147289	-0.749670	-0.433726	99
Es	1.628839	0.099933	-1.174726	99
Es	0.047345	-0.222718	-0.460273	99
Es	-0.294351	-1.238347	0.316433	99
Es	0.424585	0.350017	-0.790149	99
Es	0.468013	2.060164	-0.286889	99
Es	-0.014125	1.526460	-0.136397	99
Es	-1.149716	1.820850	0.505746	99
Es	-0.581693	-2.186664	1.058485	99
Es	0.940953	0.189425	-0.705032	99
Es	0.385309	0.271215	-0.568123	99
Es	-1.654478	1.319853	0.681929	99
Es	-0.163763	-1.575216	0.988846	99
Es	1.994410	0.757391	-1.241528	99
Es	-0.464023	1.626224	0.487657	99
Es	2.110004	-0.959611	-1.560738	99
Es	0.229795	0.799566	-0.342363	99
Es	-0.762441	1.728692	-0.088133	99
Es	-0.332802	-1.109098	1.543519	99
Es	2.046255	-0.634905	-1.201838	99
Es	-0.271039	-1.406391	-0.890936	99
Es	2.385141	-0.908340	-1.684041	99
Es	1.832417	-0.564403	-1.649749	99
43
Properties=species:S:1:pos:R:3:Z:I:1 energy=-323.9937041547738 field_type=dipole dipole="0.000000 0.000000 0.000000" charge=0
C	-0.163743	-1.575234	0.988882	6
C	-0.428313	-0.927864	-0.362657	6
N	0.385037	0.271246	-0.568507	7
C	-0.014293	1.526646	-0.136277	6
C	-1.149673	1.820846	0.505723	6
C	1.629007	0.099906	-1.174808	6
O	2.110057	-0.959774	-1.560777	8
H	-0.771473	-2.478264	1.102342	1
H	-0.407083	-0.895034	1.811132	1
H	0.889467	-1.857184	1.090253	1
H	-1.490123	-0.687214	-0.480907	1
H	-0.197673	-1.655454	-1.150247	1
H	0.679047	2.340506	-0.345577	1
H	-1.899113	1.084635	0.768832	1
H	-1.356533	2.846216	0.798523	1
H	2.185407	1.046026	-1.285928	1
Es	-1.149724	1.820853	0.505748	99
Es	0.207474	0.814960	-0.379018	99
Es	0.923131	0.197568	-0.829411	99
Es	-0.579995	-2.182938	1.055770	99
Es	-0.428194	-0.927680	-0.362639	99
Es	-0.268719	-1.408776	-0.891608	99
Es	-0.763134	1.728758	-0.088913	99
Es	-1.290100	2.513466	0.702679	99
Es	0.419479	0.298016	-0.601943	99
Es	1.993764	0.756997	-1.241813	99
Es	0.438622	0.297369	-0.579121	99
Es	0.039680	-0.222403	-0.475578	99
Es	-0.163764	-1.575216	0.988846	99
Es	-0.014121	1.526456	-0.136401	99
Es	1.628833	0.099936	-1.174732	99
Es	-1.652118	1.321339	0.680389	99
Es	2.398439	-0.945069	-1.695637	99
Es	2.043644	-0.634745	-1.200156	99
Es	-0.463562	1.625173	0.489364	99
Es	2.109932	-0.959541	-1.560678	99
Es	0.549813	-1.765066	1.050884	99
Es	1.831461	-0.566861	-1.650610	99
Es	-0.294634	-1.238384	0.316235	99
Es	1.914132	-1.161910	-1.498733	99
Es	0.466223	2.058350	-0.286343	99
Es	-1.148781	-0.748317	-0.431751	99
Es	-0.336186	-1.107288	1.545504	99
43
Properties=species:S:1:pos:R:3:Z:I:1 energy=-323.9937041547738 field_type=dipole dipole="0.000000 0.000000 0.000000" charge=0
C	-0.163743	-1.575234	0.988882	6
C	-0.428313	-0.927864	-0.362657	6
N	0.385037	0.271246	-0.568507	7
C	-0.014293	1.526646	-0.136277	6
C	-1.149673	1.820846	0.505723	6
C	1.629007	0.099906	-1.174808	6
O	2.110057	-0.959774	-1.560777	8
H	-0.771473	-2.478264	1.102342	1
H	-0.407083	-0.895034	1.811132	1
H	0.889467	-1.857184	1.090253	1
H	-1.490123	-0.687214	-0.480907	1
H	-0.197673	-1.655454	-1.150247	1
H	0.679047	2.340506	-0.345577	1
H	-1.899113	1.084635	0.768832	1
H	-1.356533	2.846216	0.798523	1
H	2.185407	1.046026	-1.285928	1
Es	-1.290480	2.514401	0.702667	99
Es	2.397848	-0.995436	-1.704306	99
Es	-0.428195	-0.927681	-0.362638	99
Es	2.018317	-1.028527	-1.527798	99
Es	0.439486	0.298615	-0.581370	99
Es	0.550936	-1.765269	1.049327	99
Es	0.419392	0.296626	-0.598223	99
Es	0.040938	-0.221788	-0.474303	99
Es	1.821128	-0.571865	-1.651452	99
Es	2.021844	-1.030159	-1.529961	99
Es	1.628835	0.099936	-1.174725	99
Es	0.206411	0.814792	-0.379905	99
Es	0.922611	0.197012	-0.830796	99
Es	-0.163764	-1.575215	0.988846	99
Es	-0.267693	-1.410617	-0.891104	99
Es	-1.149730	1.820856	0.505733	99
Es	0.465886	2.058701	-0.286136	99
Es	-0.014121	1.526456	-0.136397	99
Es	-0.294342	-1.238030	0.316185	99
Es	-1.651730	1.320720	0.679924	99
Es	-0.337225	-1.105844	1.545286	99
Es	-0.762381	1.728239	-0.087054	99
Es	-0.580512	-2.182618	1.054447	99
Es	2.038577	-0.642175	-1.192221	99
Es	1.993737	0.756870	-1.242022	99
Es	-0.464350	1.625241	0.488007	99
Es	-1.149831	-0.748194	-0.429678	99
43
Properties=species:S:1:pos:R:3:Z:I:1 energy=-323.9937041547738 field_type=dipole dipole="0.000000 0.000000 0.000000" charge=0
C	-0.163743	-1.575234	0.988882	6
C	-0.428313	-0.927864	-0.362657	6
N	0.385037	0.271246	-0.568507	7
C	-0.014293	1.526646	-0.136277	6
C	-1.149673	1.820846	0.505723	6
C	1.629007	0.099906	-1.174808	6
O	2.110057	-0.959774	-1.560777	8
H	-0.771473	-2.478264	1.102342	1
H	-0.407083	-0.895034	1.811132	1
H	0.889467	-1.857184	1.090253	1
H	-1.490123	-0.687214	-0.480907	1
H	-0.197673	-1.655454	-1.150247	1
H	0.679047	2.340506	-0.345577	1
H	-1.899113	1.084635	0.768832	1
H	-1.356533	2.846216	0.798523	1
H	2.185407	1.046026	-1.285928	1
Es	-0.163762	-1.575216	0.988848	99
Es	1.829516	-0.567621	-1.648465	99
Es	-0.294551	-1.238204	0.315756	99
Es	0.464527	2.057312	-0.285741	99
Es	-0.763523	1.728219	-0.087976	99
Es	-1.292237	2.514941	0.703419	99
Es	2.397081	-0.997806	-1.705481	99
Es	1.916788	-1.108016	-1.490390	99
Es	-0.428194	-0.927680	-0.362637	99
Es	0.922320	0.195565	-0.831773	99
Es	-1.649280	1.322002	0.679254	99
Es	0.473743	0.324266	-0.611537	99
Es	2.044591	-0.635370	-1.200823	99
Es	1.993436	0.756331	-1.242084	99
Es	2.109973	-0.959409	-1.560679	99
Es	1.628835	0.099936	-1.174723	99
Es	0.042162	-0.221075	-0.473102	99
Es	-0.014123	1.526455	-0.136401	99
Es	-0.265993	-1.411703	-0.891079	99
Es	0.205685	0.814452	-0.379491	99
Es	-0.578792	-2.179377	1.053033	99
Es	-0.339522	-1.105135	1.546140	99
Es	0.385155	0.271229	-0.568302	99
Es	0.551753	-1.767293	1.048086	99
Es	-0.463703	1.624747	0.488908	99
Es	-1.150564	-0.747358	-0.428164	99
Es	-1.149729	1.820855	0.505740	99
43
Properties=species:S:1:pos:R:3:Z:I:1 energy=-323.9937041547738 field_type=dipole dipole="0.000000 0.000000 0.000000" charge=0
C	-0.163743	-1.575234	0.988882	6
C	-0.428313	-0.927864	-0.362657	6
N	0.385037	0.271246	-0.568507	7
C	-0.014293	1.526646	-0.136277	6
C	-1.149673	1.820846	0.505723	6
C	1.629007	0.099906	-1.174808	6
O	2.110057	-0.959774	-1.560777	8
H	-0.771473	-2.478264	1.102342	1
H	-0.407083	-0.895034	1.811132	1
H	0.889467	-1.857184	1.090253	1
H	-1.490123	-0.687214	-0.480907	1
H	-0.197673	-1.655454	-1.150247	1
H	0.679047	2.340506	-0.345577	1
H	-1.899113	1.084635	0.768832	1
H	-1.356533	2.846216	0.798523	1
H	2.185407	1.046026	-1.285928	1
Es	0.552356	-1.767835	1.046920	99
Es	0.463962	2.057079	-0.285776	99
Es	-0.264931	-1.412892	-0.890461	99
Es	-0.014124	1.526456	-0.136402	99
Es	-0.340681	-1.104325	1.545899	99
Es	1.918910	-1.097885	-1.491396	99
Es	-1.292903	2.515143	0.703726	99
Es	0.473679	0.324110	-0.611240	99
Es	-1.151190	-0.747137	-0.426334	99
Es	1.832769	-0.571404	-1.650606	99
Es	1.628834	0.099936	-1.174727	99
Es	-1.648487	1.322030	0.678920	99
Es	-1.149728	1.820855	0.505743	99
Es	-0.163763	-1.575215	0.988845	99
Es	-0.578468	-2.178263	1.052181	99
Es	0.044340	-0.220995	-0.470212	99
Es	0.922118	0.195108	-0.832338	99
Es	0.204302	0.814330	-0.380729	99
Es	-0.463825	1.624953	0.488790	99
Es	-0.428194	-0.927680	-0.362638	99
Es	2.039077	-0.632366	-1.199855	99
Es	2.109911	-0.959468	-1.560663	99
Es	2.397334	-1.007087	-1.703377	99
Es	-0.294539	-1.238005	0.315106	99
Es	0.384845	0.271466	-0.569268	99
Es	-0.763403	1.728005	-0.087655	99
Es	1.993392	0.756136	-1.242118	99
43
Properties=species:S:1:pos:R:3:Z:I:1 energy=-323.9937041547738 field_type=dipole dipole="0.000000 0.000000 0.000000" charge=0
C	-0.163743	-1.575234	0.988882	6
C	-0.428313	-0.927864	-0.362657	6
N	0.385037	0.271246	-0.568507	7
C	-0.014293	1.526646	-0.136277	6
C	-1.149673	1.820846	0.505723	6
C	1.629007	0.099906	-1.174808	6
O	2.110057	-0.959774	-1.560777	8
H	-0.771473	-2.478264	1.102342	1
H	-0.407083	-0.895034	1.811132	1
H	0.889467	-1.857184	1.090253	1
H	-1.490123	-0.687214	-0.480907	1
H	-0.197673	-1.655454	-1.150247	1
H	0.679047	2.340506	-0.345577	1
H	-1.899113	1.084635	0.768832	1
H	-1.356533	2.846216	0.798523	1
H	2.185407	1.046026	-1.285928	1
Es	-0.264056	-1.413829	-0.889793	99
Es	0.204394	0.814152	-0.380030	99
Es	-1.293451	2.515338	0.703728	99
Es	-0.163765	-1.575217	0.988845	99
Es	1.830682	-0.566542	-1.645682	99
Es	-0.464225	1.625303	0.488997	99
Es	-1.149731	1.820855	0.505738	99
Es	2.395386	-1.013190	-1.706020	99
Es	1.920419	-1.090291	-1.492664	99
Es	-1.647935	1.322076	0.678669	99
Es	1.993233	0.756005	-1.242373	99
Es	-0.341653	-1.103503	1.545414	99
Es	2.041728	-0.638759	-1.200661	99
Es	0.045216	-0.220661	-0.469133	99
Es	-0.294534	-1.238039	0.315048	99
Es	-0.762983	1.727435	-0.087491	99
Es	0.385192	0.271219	-0.568233	99
Es	-0.428194	-0.927682	-0.362637	99
Es	0.921066	0.194788	-0.834441	99
Es	0.473584	0.324252	-0.611687	99
Es	-1.151566	-0.746992	-0.424991	99
Es	-0.578309	-2.177293	1.051474	99
Es	0.463580	2.056965	-0.285765	99
Es	0.552844	-1.768306	1.045824	99
Es	-0.014121	1.526454	-0.136397	99
Es	1.628833	0.099936	-1.174724	99
Es	2.109963	-0.959428	-1.560681	99
43
Properties=species:S:1:pos:R:3:Z:I:1 energy=-323.9937041547738 field_type=dipole dipole="0.000000 0.000000 0.000000" charge=0
C	-0.163743	-1.575234	0.988882	6
C	-0.428313	-0.927864	-0.362657	6
N	0.385037	0.271246	-0.568507	7
C	-0.014293	1.526646	-0.136277	6
C	-1.149673	1.820846	0.505723	6
C	1.629007	0.099906	-1.174808	6
O	2.110057	-0.959774	-1.560777	8
H	-0.771473	-2.478264	1.102342	1
H	-0.407083	-0.895034	1.811132	1
H	0.889467	-1.857184	1.090253	1
H	-1.490123	-0.687214	-0.480907	1
H	-0.197673	-1.655454	-1.150247	1
H	0.679047	2.340506	-0.345577	1
H	-1.899113	1.084635	0.768832	1
H	-1.356533	2.846216	0.798523	1
H	2.185407	1.046026	-1.285928	1
Es	1.993176	0.755954	-1.242493	99
Es	-1.149722	1.820852	0.505755	99
Es	0.920281	0.194693	-0.836117	99
Es	-0.428195	-0.927680	-0.362635	99
Es	1.924718	-1.083616	-1.493008	99
Es	-1.293700	2.515495	0.703888	99
Es	-0.463923	1.624955	0.487941	99
Es	1.628833	0.099936	-1.174723	99
Es	-0.578129	-2.176708	1.050882	99
Es	-1.151877	-0.747133	-0.423413	99
Es	-0.763565	1.727633	-0.086673	99
Es	0.553215	-1.768371	1.044567	99
Es	1.829918	-0.569937	-1.646968	99
Es	-1.647429	1.321911	0.678831	99
Es	2.038914	-0.637326	-1.199411	99
Es	0.474907	0.323318	-0.607765	99
Es	2.394710	-1.017886	-1.705594	99
Es	-0.263341	-1.414685	-0.889089	99
Es	0.046315	-0.220402	-0.467544	99
Es	2.109948	-0.959470	-1.560681	99
Es	-0.014123	1.526456	-0.136398	99
Es	0.384882	0.271748	-0.569972	99
Es	-0.294656	-1.237816	0.314621	99
Es	-0.163763	-1.575215	0.988844	99
Es	0.463290	2.057069	-0.285770	99
Es	-0.342371	-1.103028	1.545149	99
Es	0.203282	0.814299	-0.381888	99
43
Properties=species:S:1:pos:R:3:Z:I:1 energy=-323.9937041547738 field_type=dipole dipole="0.000000 0.000000 0.000000" charge=0
C	-0.163743	-1.575234	0.988882	6
C	-0.428313	-0.927864	-0.362657	6
N	0.385037	0.271246	-0.568507	7
C	-0.014293	1.526646	-0.136277	6
C	-1.149673	1.820846	0.505723	6
C	1.629007	0.099906	-1.174808	6
O	2.110057	-0.959774	-1.560777	8
H	-0.771473	-2.478264	1.102342	1
H	-0.407083	-0.895034	1.811132	1
H	0.889467	-1.857184	1.090253	1
H	-1.490123	-0.687214	-0.480907	1
H	-0.197673	-1.655454	-1.150247	1
H	0.679047	2.340506	-0.345577	1
H	-1.899113	1.084635	0.768832	1
H	-1.356533	2.846216	0.798523	1
H	2.185407	1.046026	-1.285928	1
Es	1.828415	-0.563933	-1.642737	99
Es	-0.014123	1.526452	-0.136402	99
Es	2.109989	-0.959376	-1.560686	99
Es	-1.293906	2.515505	0.704134	99
Es	0.047197	-0.220348	-0.466296	99
Es	-0.428197	-0.927684	-0.362637	99
Es	-1.152084	-0.747088	-0.421914	99
Es	-1.149726	1.820854	0.505748	99
Es	0.462996	2.056906	-0.285787	99
Es	-0.763349	1.727371	-0.086880	99
Es	-0.262810	-1.415174	-0.888698	99
Es	1.924559	-1.080011	-1.493986	99
Es	-0.464212	1.625234	0.488111	99
Es	-0.163764	-1.575214	0.988844	99
Es	2.041884	-0.643497	-1.201613	99
Es	-0.294547	-1.237953	0.314377	99
Es	0.920006	0.194492	-0.836769	99
Es	-0.577819	-2.176060	1.050428	99
Es	0.553486	-1.768468	1.043591	99
Es	2.393405	-1.021408	-1.706610	99
Es	0.385218	0.271218	-0.568202	99
Es	1.628833	0.099936	-1.174724	99
Es	0.473796	0.324006	-0.610971	99
Es	1.993129	0.755897	-1.242596	99
Es	-0.343165	-1.102539	1.544755	99
Es	0.203425	0.813960	-0.380964	99
Es	-1.647042	1.321970	0.678821	99
43
Properties=species:S:1:pos:R:3:Z:I:1 energy=-323.9937041547738 field_type=dipole dipole="0.000000 0.000000 0.000000" charge=0
C	-0.163743	-1.575234	0.988882	6
C	-0.428313	-0.927864	-0.362657	6
N	0.385037	0.271246	-0.568507	7
C	-0.014293	1.526646	-0.136277	6
C	-1.149673	1.820846	0.505723	6
C	1.629007	0.099906	-1.174808	6
O	2.110057	-0.959774	-1.560777	8
H	-0.771473	-2.478264	1.102342	1
H	-0.407083	-0.895034	1.811132	1
H	0.889467	-1.857184	1.090253	1
H	-1.490123	-0.687214	-0.480907	1
H	-0.197673	-1.655454	-1.150247	1
H	0.679047	2.340506	-0.345577	1
H	-1.899113	1.084635	0.768832	1
H	-1.356533	2.846216	0.798523	1
H	2.185407	1.046026	-1.285928	1
Es	0.462758	2.056926	-0.285909	99
Es	2.109986	-0.959391	-1.560685	99
Es	2.393178	-1.024813	-1.705531	99
Es	0.474875	0.323607	-0.608697	99
Es	-0.343800	-1.102187	1.544450	99
Es	-1.149726	1.820854	0.505747	99
Es	-1.646615	1.321818	0.679134	99
Es	-0.294623	-1.237806	0.314025	99
Es	-0.764200	1.727801	-0.086049	99
Es	-1.294147	2.515545	0.704148	99
Es	0.047722	-0.220228	-0.465757	99
Es	2.038508	-0.638763	-1.200660	99
Es	-0.428195	-0.927681	-0.362636	99
Es	0.202624	0.814063	-0.382113	99
Es	-0.163764	-1.575215	0.988845	99
Es	0.919535	0.194347	-0.837601	99
Es	1.926616	-1.076271	-1.493349	99
Es	0.384920	0.271327	-0.568840	99
Es	1.993053	0.755815	-1.242745	99
Es	0.553646	-1.768543	1.042800	99
Es	-1.152249	-0.747138	-0.420866	99
Es	1.628833	0.099936	-1.174726	99
Es	-0.262179	-1.415761	-0.888013	99
Es	-0.577547	-2.175539	1.050053	99
Es	1.830030	-0.568970	-1.645343	99
Es	-0.463523	1.624859	0.487052	99
Es	-0.014122	1.526452	-0.136399	99
43
Properties=species:S:1:pos:R:3:Z:I:1 energy=-323.9937041547738 field_type=dipole dipole="0.000000 0.000000 0.000000" charge=0
C	-0.163743	-1.575234	0.988882	6
C	-0.428313	-0.927864	-0.362657	6
N	0.385037	0.271246	-0.568507	7
C	-0.014293	1.526646	-0.136277	6
C	-1.149673	1.820846	0.505723	6
C	1.629007	0.099906	-1.174808	6
O	2.110057	-0.959774	-1.560777	8
H	-0.771473	-2.478264	1.102342	1
H	-0.407083	-0.895034	1.811132	1
H	0.889467	-1.857184	1.090253	1
H	-1.490123	-0.687214	-0.480907	1
H	-0.197673	-1.655454	-1.150247	1
H	0.679047	2.340506	-0.345577	1
H	-1.899113	1.084635	0.768832	1
H	-1.356533	2.846216	0.798523	1
H	2.185407	1.046026	-1.285928	1
Es	-1.149726	1.820854	0.505749	99
Es	0.462756	2.057099	-0.285884	99
Es	-0.294767	-1.237646	0.313591	99
Es	-1.152410	-0.747239	-0.419863	99
Es	0.201168	0.814382	-0.384878	99
Es	-0.163764	-1.575214	0.988844	99
Es	0.049227	-0.220456	-0.463367	99
Es	1.834941	-0.577901	-1.648256	99
Es	-0.344206	-1.101808	1.543960	99
Es	0.440437	0.298912	-0.581153	99
Es	-0.577548	-2.175069	1.049825	99
Es	0.919089	0.194514	-0.838567	99
Es	1.993005	0.755796	-1.242871	99
Es	-0.261667	-1.416336	-0.887232	99
Es	1.628833	0.099936	-1.174723	99
Es	0.419839	0.295592	-0.594879	99
Es	-0.463442	1.624659	0.486792	99
Es	2.030281	-0.631705	-1.197999	99
Es	-0.014121	1.526451	-0.136397	99
Es	1.928357	-1.075515	-1.494545	99
Es	2.394879	-1.023582	-1.703972	99
Es	-1.294378	2.515650	0.703889	99
Es	2.109951	-0.959469	-1.560683	99
Es	-1.646591	1.321767	0.678942	99
Es	0.553864	-1.768678	1.042088	99
Es	-0.428196	-0.927682	-0.362636	99
Es	-0.764216	1.727735	-0.085441	99
43
Properties=species:S:1:pos:R:3:Z:I:1 energy=-323.9937041547738 field_type=dipole dipole="0.000000 0.000000 0.000000" charge=0
C	-0.163743	-1.575234	0.988882	6
C	-0.428313	-0.927864	-0.362657	6
N	0.385037	0.271246	-0.568507	7
C	-0.014293	1.526646	-0.136277	6
C	-1.149673	1.820846	0.505723	6
C	1.629007	0.099906	-1.174808	6
O	2.110057	-0.959774	-1.560777	8
H	-0.771473	-2.478264	1.102342	1
H	-0.407083	-0.895034	1.811132	1
H	0.889467	-1.857184	1.090253	1
H	-1.490123	-0.687214	-0.480907	1
H	-0.197673	-1.655454	-1.150247	1
H	0.679047	2.340506	-0.345577	1
H	-1.899113	1.084635	0.768832	1
H	-1.356533	2.846216	0.798523	1
H	2.185407	1.046026	-1.285928	1
Es	1.929606	-1.071462	-1.494927	99
Es	1.628832	0.099936	-1.174725	99
Es	2.109845	-0.959481	-1.560634	99
Es	2.393291	-1.027663	-1.704199	99
Es	-0.014120	1.526454	-0.136395	99
Es	-1.294728	2.515626	0.704119	99
Es	-0.294938	-1.237755	0.313300	99
Es	0.473918	0.323618	-0.610103	99
Es	-1.646125	1.321871	0.678824	99
Es	-0.577297	-2.174524	1.049633	99
Es	0.201530	0.814137	-0.383866	99
Es	1.992906	0.755706	-1.242978	99
Es	0.462417	2.056978	-0.286006	99
Es	0.049875	-0.220368	-0.462402	99
Es	-0.763791	1.727215	-0.085814	99
Es	-1.152415	-0.747251	-0.418829	99
Es	0.553902	-1.768821	1.041196	99
Es	-0.344581	-1.101505	1.543748	99
Es	-0.428197	-0.927683	-0.362636	99
Es	-0.163763	-1.575215	0.988846	99
Es	0.385209	0.271221	-0.568221	99
Es	-0.463833	1.625162	0.487298	99
Es	1.832474	-0.573792	-1.647115	99
Es	0.919371	0.194255	-0.838055	99
Es	-1.149727	1.820854	0.505747	99
Es	-0.261272	-1.416630	-0.886942	99
Es	2.033206	-0.635839	-1.198528	99
43
Properties=species:S:1:pos:R:3:Z:I:1 energy=-323.9937041547738 field_type=dipole dipole="0.000000 0.000000 0.000000" charge=0
C	-0.163743	-1.575234	0.988882	6
C	-0.428313	-0.927864	-0.362657	6
N	0.385037	0.271246	-0.568507	7
C	-0.014293	1.526646	-0.136277	6
C	-1.149673	1.820846	0.505723	6
C	1.629007	0.099906	-1.174808	6
O	2.110057	-0.959774	-1.560777	8
H	-0.771473	-2.478264	1.102342	1
H	-0.407083	-0.895034	1.811132	1
H	0.889467	-1.857184	1.090253	1
H	-1.490123	-0.687214	-0.480907	1
H	-0.197673	-1.655454	-1.150247	1
H	0.679047	2.340506	-0.345577	1
H	-1.899113	1.084635	0.768832	1
H	-1.356533	2.846216	0.798523	1
H	2.185407	1.046026	-1.285928	1
Es	-0.260828	-1.417112	-0.886288	99
Es	-1.149728	1.820855	0.505746	99
Es	1.992837	0.755695	-1.243105	99
Es	-1.152448	-0.747318	-0.418161	99
Es	-0.294988	-1.237564	0.313045	99
Es	-1.645909	1.321804	0.678960	99
Es	0.919104	0.194157	-0.838545	99
Es	1.628835	0.099936	-1.174723	99
Es	2.031325	-0.634548	-1.198102	99
Es	0.385696	0.271230	-0.567716	99
Es	1.930869	-1.069385	-1.495134	99
Es	-0.014120	1.526451	-0.136396	99
Es	0.553990	-1.768914	1.040748	99
Es	0.201234	0.814150	-0.384326	99
Es	1.833244	-0.575910	-1.647276	99
Es	0.473355	0.323501	-0.610528	99
Es	-0.428200	-0.927685	-0.362638	99
Es	2.109976	-0.959406	-1.560684	99
Es	-0.345107	-1.101323	1.543459	99
Es	-0.577048	-2.174066	1.049369	99
Es	0.050383	-0.220362	-0.461609	99
Es	-1.294950	2.515695	0.703909	99
Es	0.462335	2.056990	-0.286045	99
Es	2.393094	-1.028991	-1.704061	99
Es	-0.163767	-1.575217	0.988844	99
Es	-0.763658	1.726938	-0.085692	99
Es	-0.463933	1.625446	0.487284	99
43
Properties=species:S:1:pos:R:3:Z:I:1 energy=-323.9937041547738 field_type=dipole dipole="0.000000 0.000000 0.000000" charge=0
C	-0.163743	-1.575234	0.988882	6
C	-0.428313	-0.927864	-0.362657	6
N	0.385037	0.271246	-0.568507	7
C	-0.014293	1.526646	-0.136277	6
C	-1.149673	1.820846	0.505723	6
C	1.629007	0.099906	-1.174808	6
O	2.110057	-0.959774	-1.560777	8
H	-0.771473	-2.478264	1.102342	1
H	-0.407083	-0.895034	1.811132	1
H	0.889467	-1.857184	1.090253	1
H	-1.490123	-0.687214	-0.480907	1
H	-0.197673	-1.655454	-1.150247	1
H	0.679047	2.340506	-0.345577	1
H	-1.899113	1.084635	0.768832	1
H	-1.356533	2.846216	0.798523	1
H	2.185407	1.046026	-1.285928	1
Es	-0.163764	-1.575215	0.988846	99
Es	0.920299	0.193794	-0.836146	99
Es	-1.645923	1.321872	0.678900	99
Es	-0.463132	1.624780	0.486672	99
Es	-0.764424	1.727490	-0.084875	99
Es	0.199906	0.814561	-0.387242	99
Es	-1.152542	-0.747137	-0.418302	99
Es	-1.295184	2.515776	0.703426	99
Es	1.628831	0.099936	-1.174727	99
Es	0.385178	0.271226	-0.568267	99
Es	1.992847	0.755710	-1.243238	99
Es	1.847431	-0.594638	-1.649882	99
Es	-0.014122	1.526453	-0.136399	99
Es	1.933188	-1.066799	-1.495706	99
Es	-1.149727	1.820854	0.505746	99
Es	-0.428194	-0.927680	-0.362634	99
Es	0.554000	-1.769364	1.041239	99
Es	-0.345233	-1.101496	1.543484	99
Es	-0.576784	-2.173609	1.049542	99
Es	2.394520	-1.030773	-1.700070	99
Es	2.013414	-0.616669	-1.198761	99
Es	-0.260740	-1.416997	-0.886219	99
Es	0.473403	0.323541	-0.610506	99
Es	0.462336	2.056893	-0.285863	99
Es	0.051117	-0.220608	-0.460484	99
Es	-0.295085	-1.237459	0.312484	99
Es	2.109978	-0.959395	-1.560683	99
43
Properties=species:S:1:pos:R:3:Z:I:1 energy=-323.9937041547738 field_type=dipole dipole="0.000000 0.000000 0.000000" charge=0
C	-0.163743	-1.575234	0.988882	6
C	-0.428313	-0.927864	-0.362657	6
N	0.385037	0.271246	-0.568507	7
C	-0.014293	1.526646	-0.136277	6
C	-1.149673	1.820846	0.505723	6
C	1.629007	0.099906	-1.174808	6
O	2.110057	-0.959774	-1.560777	8
H	-0.771473	-2.478264	1.102342	1
H	-0.407083	-0.895034	1.811132	1
H	0.889467	-1.857184	1.090253	1
H	-1.490123	-0.687214	-0.480907	1
H	-0.197673	-1.655454	-1.150247	1
H	0.679047	2.340506	-0.345577	1
H	-1.899113	1.084635	0.768832	1
H	-1.356533	2.846216	0.798523	1
H	2.185407	1.046026	-1.285928	1
Es	0.472381	0.323701	-0.612263	99
Es	-0.294966	-1.237493	0.312832	99
Es	1.992909	0.755754	-1.243217	99
Es	1.999034	-0.605767	-1.203842	99
Es	0.462306	2.056715	-0.285726	99
Es	2.109706	-0.959507	-1.560579	99
Es	0.199586	0.814643	-0.388018	99
Es	-0.462571	1.624434	0.486480	99
Es	-0.764861	1.727829	-0.084473	99
Es	-1.645787	1.322071	0.678756	99
Es	1.934949	-1.065304	-1.496794	99
Es	0.921102	0.193468	-0.834547	99
Es	-0.014122	1.526453	-0.136399	99
Es	-0.163764	-1.575215	0.988843	99
Es	1.628833	0.099936	-1.174722	99
Es	-1.149729	1.820855	0.505743	99
Es	-1.152586	-0.746930	-0.419035	99
Es	2.395768	-1.030854	-1.697821	99
Es	-1.295526	2.515764	0.703112	99
Es	-0.345410	-1.101763	1.543609	99
Es	-0.576595	-2.173212	1.049459	99
Es	-0.260694	-1.416761	-0.886368	99
Es	0.385144	0.271232	-0.568318	99
Es	0.553993	-1.769761	1.041781	99
Es	0.051644	-0.220666	-0.459522	99
Es	1.859045	-0.606894	-1.646001	99
Es	-0.428195	-0.927681	-0.362635	99
43
Properties=species:S:1:pos:R:3:Z:I:1 energy=-323.9937041547738 field_type=dipole dipole="0.000000 0.000000 0.000000" charge=0
C	-0.163743	-1.575234	0.988882	6
C	-0.428313	-0.927864	-0.362657	6
N	0.385037	0.271246	-0.568507	7
C	-0.014293	1.526646	-0.136277	6
C	-1.149673	1.820846	0.505723	6
C	1.629007	0.099906	-1.174808	6
O	2.110057	-0.959774	-1.560777	8
H	-0.771473	-2.478264	1.102342	1
H	-0.407083	-0.895034	1.811132	1
H	0.889467	-1.857184	1.090253	1
H	-1.490123	-0.687214	-0.480907	1
H	-0.197673	-1.655454	-1.150247	1
H	0.679047	2.340506	-0.345577	1
H	-1.899113	1.084635	0.768832	1
H	-1.356533	2.846216	0.798523	1
H	2.185407	1.046026	-1.285928	1
Es	1.628832	0.099935	-1.174724	99
Es	0.462265	2.056380	-0.285521	99
Es	1.937061	-1.064995	-1.496045	99
Es	2.397433	-1.029928	-1.695298	99
Es	1.873991	-0.623301	-1.636351	99
Es	0.553895	-1.770217	1.042709	99
Es	2.109951	-0.959430	-1.560677	99
Es	-0.163766	-1.575207	0.988831	99
Es	-1.152587	-0.746597	-0.420413	99
Es	-1.645778	1.322460	0.678397	99
Es	0.921616	0.193177	-0.833445	99
Es	-0.294993	-1.237671	0.313205	99
Es	1.980006	-0.590704	-1.216670	99
Es	1.992989	0.755754	-1.243175	99
Es	-0.345091	-1.102224	1.543995	99
Es	0.472135	0.323775	-0.612726	99
Es	-0.428192	-0.927677	-0.362636	99
Es	-1.149726	1.820854	0.505750	99
Es	-0.462392	1.624329	0.487193	99
Es	0.385084	0.271247	-0.568426	99
Es	-1.295744	2.515683	0.702994	99
Es	-0.576402	-2.172977	1.049919	99
Es	0.051705	-0.220599	-0.459609	99
Es	-0.014121	1.526451	-0.136396	99
Es	0.199259	0.814684	-0.388566	99
Es	-0.764889	1.727948	-0.084978	99
Es	-0.260946	-1.416103	-0.887002	99
43
Properties=species:S:1:pos:R:3:Z:I:1 energy=-323.9937041547738 field_type=dipole dipole="0.000000 0.000000 0.000000" charge=0
C	-0.163743	-1.575234	0.988882	6
C	-0.428313	-0.927864	-0.362657	6
N	0.385037	0.271246	-0.568507	7
C	-0.014293	1.526646	-0.136277	6
C	-1.149673	1.820846	0.505723	6
C	1.629007	0.099906	-1.174808	6
O	2.110057	-0.959774	-1.560777	8
H	-0.771473	-2.478264	1.102342	1
H	-0.407083	-0.895034	1.811132	1
H	0.889467	-1.857184	1.090253	1
H	-1.490123	-0.687214	-0.480907	1
H	-0.197673	-1.655454	-1.150247	1
H	0.679047	2.340506	-0.345577	1
H	-1.899113	1.084635	0.768832	1
H	-1.356533	2.846216	0.798523	1
H	2.185407	1.046026	-1.285928	1
Es	1.977937	-0.592733	-1.215192	99
Es	-0.428196	-0.927683	-0.362638	99
Es	1.937827	-1.060420	-1.498901	99
Es	0.471832	0.323710	-0.612976	99
Es	-0.163763	-1.575215	0.988845	99
Es	0.052512	-0.220515	-0.458433	99
Es	1.628833	0.099936	-1.174726	99
Es	-0.345278	-1.102181	1.543903	99
Es	0.462300	2.056481	-0.285577	99
Es	-1.295768	2.515662	0.702978	99
Es	2.396131	-1.033728	-1.694889	99
Es	-0.260855	-1.416261	-0.886816	99
Es	-1.149730	1.820854	0.505746	99
Es	0.554013	-1.769930	1.042280	99
Es	0.198594	0.814790	-0.389825	99
Es	-0.462393	1.624343	0.487129	99
Es	-0.764870	1.727930	-0.084840	99
Es	-1.645820	1.322330	0.678393	99
Es	2.110013	-0.959351	-1.560686	99
Es	1.876518	-0.622127	-1.635402	99
Es	-1.152611	-0.746730	-0.419992	99
Es	-0.576456	-2.173087	1.049690	99
Es	0.921942	0.193158	-0.832839	99
Es	0.385000	0.271281	-0.568607	99
Es	-0.014122	1.526454	-0.136398	99
Es	-0.294994	-1.237645	0.313260	99
Es	1.993000	0.755724	-1.243153	99
43
Properties=species:S:1:pos:R:3:Z:I:1 energy=-323.9937041547738 field_type=dipole dipole="0.000000 0.000000 0.000000" charge=0
C	-0.163743	-1.575234	0.988882	6
C	-0.428313	-0.927864	-0.362657	6
N	0.385037	0.271246	-0.568507	7
C	-0.014293	1.526646	-0.136277	6
C	-1.149673	1.820846	0.505723	6
C	1.629007	0.099906	-1.174808	6
O	2.110057	-0.959774	-1.560777	8
H	-0.771473	-2.478264	1.102342	1
H	-0.407083	-0.895034	1.811132	1
H	0.889467	-1.857184	1.090253	1
H	-1.490123	-0.687214	-0.480907	1
H	-0.197673	-1.655454	-1.150247	1
H	0.679047	2.340506	-0.345577	1
H	-1.899113	1.084635	0.768832	1
H	-1.356533	2.846216	0.798523	1
H	2.185407	1.046026	-1.285928	1
Es	-0.294733	-1.238006	0.313773	99
Es	1.993033	0.755607	-1.242880	99
Es	1.809305	-0.531687	-1.568167	99
Es	-0.464897	1.626184	0.488832	99
Es	-0.014120	1.526450	-0.136406	99
Es	-1.149729	1.820852	0.505751	99
Es	-0.763315	1.726606	-0.088601	99
Es	0.553736	-1.769050	1.040472	99
Es	2.055445	-0.685241	-1.264187	99
Es	-1.294601	2.514844	0.706132	99
Es	-0.261492	-1.415796	-0.888327	99
Es	-0.575990	-2.173362	1.049069	99
Es	0.422974	0.297399	-0.596304	99
Es	2.109857	-0.959407	-1.560636	99
Es	0.438408	0.297011	-0.578464	99
Es	0.204436	0.812753	-0.376840	99
Es	-0.428196	-0.927685	-0.362637	99
Es	-0.345339	-1.102663	1.545071	99
Es	1.628833	0.099935	-1.174722	99
Es	1.937288	-1.066020	-1.494135	99
Es	-0.163763	-1.575215	0.988847	99
Es	0.915374	0.195034	-0.845744	99
Es	0.461562	2.056325	-0.286313	99
Es	-1.152153	-0.746869	-0.418124	99
Es	-1.645073	1.322382	0.679245	99
Es	2.386397	-1.025743	-1.718629	99
Es	0.048348	-0.219593	-0.465741	99
43
Properties=species:S:1:pos:R:3:Z:I:1 energy=-323.9937041547738 field_type=dipole dipole="0.000000 0.000000 0.000000" charge=0
C	-0.163743	-1.575234	0.988882	6
C	-0.428313	-0.927864	-0.362657	6
N	0.385037	0.271246	-0.568507	7
C	-0.014293	1.526646	-0.136277	6
C	-1.149673	1.820846	0.505723	6
C	1.629007	0.099906	-1.174808	6
O	2.110057	-0.959774	-1.560777	8
H	-0.771473	-2.478264	1.102342	1
H	-0.407083	-0.895034	1.811132	1
H	0.889467	-1.857184	1.090253	1
H	-1.490123	-0.687214	-0.480907	1
H	-0.197673	-1.655454	-1.150247	1
H	0.679047	2.340506	-0.345577	1
H	-1.899113	1.084635	0.768832	1
H	-1.356533	2.846216	0.798523	1
H	2.185407	1.046026	-1.285928	1
Es	0.386244	0.271324	-0.567374	99
Es	0.922086	0.192938	-0.832380	99
Es	-0.260948	-1.415791	-0.887230	99
Es	0.553859	-1.770554	1.043176	99
Es	0.471002	0.323734	-0.613670	99
Es	-1.295999	2.515613	0.702855	99
Es	-1.645728	1.322612	0.678167	99
Es	-1.149728	1.820855	0.505746	99
Es	-0.764458	1.727526	-0.085684	99
Es	-0.576253	-2.172649	1.049851	99
Es	1.960455	-0.581488	-1.229955	99
Es	2.397057	-1.032910	-1.694078	99
Es	2.109894	-0.959456	-1.560650	99
Es	0.462121	2.056180	-0.285545	99
Es	1.628833	0.099936	-1.174727	99
Es	-1.152600	-0.746496	-0.420882	99
Es	1.993067	0.755732	-1.243098	99
Es	-0.163766	-1.575215	0.988843	99
Es	1.942220	-1.058460	-1.497782	99
Es	-0.295002	-1.237492	0.313102	99
Es	-0.345098	-1.102709	1.544353	99
Es	0.198638	0.814858	-0.389865	99
Es	1.888763	-0.636059	-1.622615	99
Es	-0.428196	-0.927682	-0.362636	99
Es	-0.462599	1.624784	0.488295	99
Es	0.051854	-0.220540	-0.459482	99
Es	-0.014123	1.526456	-0.136398	99
43
Properties=species:S:1:pos:R:3:Z:I:1 energy=-323.9937041547738 field_type=dipole dipole="0.000000 0.000000 0.000000" charge=0
C	-0.163743	-1.575234	0.988882	6
C	-0.428313	-0.927864	-0.362657	6
N	0.385037	0.271246	-0.568507	7
C	-0.014293	1.526646	-0.136277	6
C	-1.149673	1.820846	0.505723	6
C	1.629007	0.099906	-1.174808	6
O	2.110057	-0.959774	-1.560777	8
H	-0.771473	-2.478264	1.102342	1
H	-0.407083	-0.895034	1.811132	1
H	0.889467	-1.857184	1.090253	1
H	-1.490123	-0.687214	-0.480907	1
H	-0.197673	-1.655454	-1.150247	1
H	0.679047	2.340506	-0.345577	1
H	-1.899113	1.084635	0.768832	1
H	-1.356533	2.846216	0.798523	1
H	2.185407	1.046026	-1.285928	1
Es	1.938845	-1.062769	-1.494834	99
Es	-0.575664	-2.172825	1.049009	99
Es	2.054449	-0.687649	-1.270624	99
Es	1.628834	0.099935	-1.174722	99
Es	2.109968	-0.959427	-1.560681	99
Es	-0.763263	1.726421	-0.088860	99
Es	-0.163766	-1.575220	0.988848	99
Es	0.204628	0.812605	-0.376184	99
Es	2.385458	-1.028082	-1.718769	99
Es	-1.644533	1.322725	0.679070	99
Es	1.809537	-0.530241	-1.560868	99
Es	-0.428196	-0.927685	-0.362635	99
Es	-1.295003	2.514816	0.706317	99
Es	0.915320	0.194833	-0.845709	99
Es	1.993000	0.755528	-1.242867	99
Es	-0.345499	-1.102811	1.545273	99
Es	0.476101	0.323347	-0.606842	99
Es	-1.152093	-0.746745	-0.418156	99
Es	-0.014124	1.526454	-0.136402	99
Es	-0.464997	1.626336	0.489078	99
Es	0.461398	2.056051	-0.286302	99
Es	-1.149721	1.820852	0.505757	99