39
Properties=species:S:1:pos:R:3:Z:I:1 energy=-338.84075322489457 field_type=dipole dipole="0.000000 0.000000 0.000000" charge=0
C	-0.884553	-1.426163	-0.652364	6
C	0.511167	-0.942223	-0.302884	6
N	0.562867	0.498867	-0.180894	7
C	0.222957	1.148367	0.990716	6
O	-0.106883	0.570457	2.020566	8
C	0.269277	2.607017	0.950366	6
N	0.322417	3.765477	0.858876	7
H	-0.894723	-2.515013	-0.760864	1
H	-1.227043	-0.983613	-1.593724	1
H	-1.604903	-1.152623	0.125546	1
H	1.217667	-1.227783	-1.088484	1
H	0.840937	-1.395713	0.637836	1
H	0.770817	1.052947	-1.004694	1
Es	0.511142	-0.941998	-0.302892	99
Es	0.673392	0.824808	-0.669332	99
Es	-0.103061	0.266686	1.968042	99
Es	0.562660	0.498924	-0.180851	99
Es	0.529232	-0.094752	-0.227154	99
Es	0.734772	-1.241177	0.326764	99
Es	-0.882434	-2.165170	-0.725821	99
Es	0.588165	3.190076	0.988971	99
Es	-1.365148	-1.238249	-0.126955	99
Es	-0.106792	0.570631	2.020288	99
Es	0.246048	0.772675	1.734889	99
Es	0.322396	3.765007	0.858911	99
Es	-0.230379	0.790406	1.594214	99
Es	0.223394	0.735401	0.143766	99
Es	-0.884512	-1.426155	-0.652369	99
Es	0.339591	4.128555	0.832410	99
Es	0.989665	-1.126438	-0.842478	99
Es	0.252011	1.926056	0.955007	99
Es	0.759790	0.653102	0.144883	99
Es	0.073745	3.249423	1.110411	99
Es	0.230479	3.209490	0.599922	99
Es	0.223006	1.148507	0.990548	99
Es	-1.108866	-1.120776	-1.296480	99
Es	-0.187608	-1.175280	-0.476167	99
Es	0.269270	2.606654	0.950405	99
Es	-0.167109	0.763414	2.249092	99
39
Properties=species:S:1:pos:R:3:Z:I:1 energy=-338.84075322489457 field_type=dipole dipole="0.000000 0.000000 0.000000" charge=0
C	-0.884553	-1.426163	-0.652364	6
C	0.511167	-0.942223	-0.302884	6
N	0.562867	0.498867	-0.180894	7
C	0.222957	1.148367	0.990716	6
O	-0.106883	0.570457	2.020566	8
C	0.269277	2.607017	0.950366	6
N	0.322417	3.765477	0.858876	7
H	-0.894723	-2.515013	-0.760864	1
H	-1.227043	-0.983613	-1.593724	1
H	-1.604903	-1.152623	0.125546	1
H	1.217667	-1.227783	-1.088484	1
H	0.840937	-1.395713	0.637836	1
H	0.770817	1.052947	-1.004694	1
Es	0.562486	0.498932	-0.180893	99
Es	-0.104039	0.256654	1.973325	99
Es	-0.164101	0.771248	2.242428	99
Es	-0.881619	-2.167443	-0.725179	99
Es	0.007588	3.219772	0.953572	99
Es	0.269269	2.606653	0.950421	99
Es	0.483624	3.216796	1.139398	99
Es	0.239171	0.773268	1.734504	99
Es	-0.188395	-1.174527	-0.476381	99
Es	-1.363380	-1.237257	-0.126693	99
Es	0.523827	-0.096898	-0.225593	99
Es	0.402364	3.210593	0.606863	99
Es	0.223012	1.148511	0.990548	99
Es	0.669305	0.830267	-0.671749	99
Es	0.251721	1.926305	0.956002	99
Es	0.322396	3.765007	0.858911	99
Es	0.338615	4.130997	0.830476	99
Es	-0.106792	0.570679	2.020293	99
Es	0.988426	-1.127008	-0.843303	99
Es	-1.108467	-1.119100	-1.296908	99
Es	-0.225048	0.791457	1.595739	99
Es	0.734101	-1.242633	0.327849	99
Es	-0.884514	-1.426156	-0.652366	99
Es	0.720664	0.613368	0.050641	99
Es	0.271490	0.772332	0.239010	99
Es	0.511143	-0.942000	-0.302893	99
39
Properties=species:S:1:pos:R:3:Z:I:1 energy=-338.84075322489457 field_type=dipole dipole="0.000000 0.000000 0.000000" charge=0
C	-0.884553	-1.426163	-0.652364	6
C	0.511167	-0.942223	-0.302884	6
N	0.562867	0.498867	-0.180894	7
C	0.222957	1.148367	0.990716	6
O	-0.106883	0.570457	2.020566	8
C	0.269277	2.607017	0.950366	6
N	0.322417	3.765477	0.858876	7
H	-0.894723	-2.515013	-0.760864	1
H	-1.227043	-0.983613	-1.593724	1
H	-1.604903	-1.152623	0.125546	1
H	1.217667	-1.227783	-1.088484	1
H	0.840937	-1.395713	0.637836	1
H	0.770817	1.052947	-1.004694	1
Es	-0.159112	0.777652	2.232480	99
Es	0.308624	0.783877	0.276220	99
Es	0.562223	0.499004	-0.180863	99
Es	0.440050	3.227980	1.172207	99
Es	0.511143	-0.942003	-0.302893	99
Es	-0.188756	-1.174453	-0.476417	99
Es	0.322396	3.765007	0.858911	99
Es	0.987729	-1.127173	-0.843502	99
Es	-0.881354	-2.168303	-0.724902	99
Es	-0.106796	0.570592	2.020283	99
Es	0.013199	3.210642	0.903668	99
Es	0.525010	-0.097914	-0.223937	99
Es	-0.224865	0.790956	1.596556	99
Es	0.237371	0.772172	1.732645	99
Es	-1.108157	-1.118113	-1.297153	99
Es	0.440376	3.208095	0.625818	99
Es	0.269270	2.606648	0.950411	99
Es	0.223006	1.148512	0.990544	99
Es	0.338964	4.131606	0.827092	99
Es	-0.107452	0.251484	1.984175	99
Es	0.251476	1.926471	0.957268	99
Es	-0.884513	-1.426157	-0.652367	99
Es	0.679694	0.601077	0.011818	99
Es	0.672023	0.832505	-0.671709	99
Es	-1.362497	-1.236939	-0.126649	99
Es	0.733799	-1.243406	0.328317	99
39
Properties=species:S:1:pos:R:3:Z:I:1 energy=-338.84075322489457 field_type=dipole dipole="0.000000 0.000000 0.000000" charge=0
C	-0.884553	-1.426163	-0.652364	6
C	0.511167	-0.942223	-0.302884	6
N	0.562867	0.498867	-0.180894	7
C	0.222957	1.148367	0.990716	6
O	-0.106883	0.570457	2.020566	8
C	0.269277	2.607017	0.950366	6
N	0.322417	3.765477	0.858876	7
H	-0.894723	-2.515013	-0.760864	1
H	-1.227043	-0.983613	-1.593724	1
H	-1.604903	-1.152623	0.125546	1
H	1.217667	-1.227783	-1.088484	1
H	0.840937	-1.395713	0.637836	1
H	0.770817	1.052947	-1.004694	1
Es	0.733492	-1.243864	0.328628	99
Es	0.339459	4.131951	0.825104	99
Es	-0.884513	-1.426156	-0.652367	99
Es	0.236810	0.773359	1.734286	99
Es	-0.188966	-1.174290	-0.476387	99
Es	0.440160	3.207242	0.625901	99
Es	0.677226	0.833909	-0.670814	99
Es	0.649855	0.596553	-0.006725	99
Es	0.251329	1.926616	0.958122	99
Es	0.331425	0.788120	0.292873	99
Es	0.987281	-1.127399	-0.843645	99
Es	-0.106788	0.570569	2.020262	99
Es	-0.159061	0.777267	2.229058	99
Es	0.322396	3.765007	0.858910	99
Es	0.526814	-0.098552	-0.222885	99
Es	-1.361696	-1.236550	-0.126903	99
Es	-0.108208	0.249048	1.985493	99
Es	0.269252	2.606641	0.950423	99
Es	0.562214	0.499002	-0.180868	99
Es	-0.223751	0.792234	1.596905	99
Es	0.434930	3.229159	1.174281	99
Es	-0.881362	-2.169089	-0.724495	99
Es	-1.107960	-1.117473	-1.297232	99
Es	0.223021	1.148512	0.990550	99
Es	0.511142	-0.941997	-0.302892	99
Es	0.018347	3.209999	0.902441	99
39
Properties=species:S:1:pos:R:3:Z:I:1 energy=-338.84075322489457 field_type=dipole dipole="0.000000 0.000000 0.000000" charge=0
C	-0.884553	-1.426163	-0.652364	6
C	0.511167	-0.942223	-0.302884	6
N	0.562867	0.498867	-0.180894	7
C	0.222957	1.148367	0.990716	6
O	-0.106883	0.570457	2.020566	8
C	0.269277	2.607017	0.950366	6
N	0.322417	3.765477	0.858876	7
H	-0.894723	-2.515013	-0.760864	1
H	-1.227043	-0.983613	-1.593724	1
H	-1.604903	-1.152623	0.125546	1
H	1.217667	-1.227783	-1.088484	1
H	0.840937	-1.395713	0.637836	1
H	0.770817	1.052947	-1.004694	1
Es	-0.881312	-2.169454	-0.724161	99
Es	0.236286	0.773456	1.733533	99
Es	0.250940	1.926793	0.958862	99
Es	0.733285	-1.244360	0.328904	99
Es	-1.107755	-1.117107	-1.297424	99
Es	-0.188982	-1.173977	-0.476188	99
Es	0.528920	-0.098924	-0.221952	99
Es	0.343079	4.132196	0.825225	99
Es	0.024533	3.232794	1.018941	99
Es	-0.158018	0.779003	2.225585	99
Es	-1.361315	-1.236415	-0.127164	99
Es	0.223016	1.148512	0.990548	99
Es	0.563175	0.498903	-0.180727	99
Es	-0.884513	-1.426157	-0.652366	99
Es	0.322394	3.765007	0.858908	99
Es	0.680217	0.834803	-0.670202	99
Es	0.361146	0.791358	0.310173	99
Es	0.515604	3.204385	1.087270	99
Es	0.350466	3.208915	0.595563	99
Es	-0.106789	0.570588	2.020272	99
Es	-0.109511	0.247438	1.988765	99
Es	0.986737	-1.127538	-0.843779	99
Es	-0.223144	0.791739	1.597703	99
Es	0.511140	-0.941995	-0.302894	99
Es	0.269255	2.606642	0.950417	99
Es	0.613994	0.593216	-0.025787	99
39
Properties=species:S:1:pos:R:3:Z:I:1 energy=-338.84075322489457 field_type=dipole dipole="0.000000 0.000000 0.000000" charge=0
C	-0.884553	-1.426163	-0.652364	6
C	0.511167	-0.942223	-0.302884	6
N	0.562867	0.498867	-0.180894	7
C	0.222957	1.148367	0.990716	6
O	-0.106883	0.570457	2.020566	8
C	0.269277	2.607017	0.950366	6
N	0.322417	3.765477	0.858876	7
H	-0.894723	-2.515013	-0.760864	1
H	-1.227043	-0.983613	-1.593724	1
H	-1.604903	-1.152623	0.125546	1
H	1.217667	-1.227783	-1.088484	1
H	0.840937	-1.395713	0.637836	1
H	0.770817	1.052947	-1.004694	1
Es	0.223015	1.148514	0.990547	99
Es	0.681900	0.834862	-0.669890	99
Es	0.339890	4.132223	0.821060	99
Es	-1.107491	-1.116726	-1.297429	99
Es	0.031548	3.203596	0.866936	99
Es	0.466625	3.204875	0.644745	99
Es	0.530634	-0.099103	-0.221203	99
Es	0.322397	3.765006	0.858910	99
Es	0.562330	0.498960	-0.180897	99
Es	-0.111711	0.246119	1.994299	99
Es	-0.106818	0.570536	2.020378	99
Es	0.395103	3.237682	1.193857	99
Es	0.986646	-1.127667	-0.843850	99
Es	-0.222122	0.791735	1.596659	99
Es	0.622191	0.594623	-0.020586	99
Es	-0.881248	-2.169891	-0.723990	99
Es	0.251206	1.926766	0.959078	99
Es	0.236623	0.772835	1.734717	99
Es	-1.360887	-1.236089	-0.127146	99
Es	0.350552	0.790402	0.304253	99
Es	0.511142	-0.941996	-0.302893	99
Es	-0.157156	0.780712	2.219734	99
Es	0.733077	-1.244510	0.328963	99
Es	0.269248	2.606645	0.950418	99
Es	-0.189331	-1.174134	-0.476283	99
Es	-0.884514	-1.426157	-0.652367	99
39
Properties=species:S:1:pos:R:3:Z:I:1 energy=-338.84075322489457 field_type=dipole dipole="0.000000 0.000000 0.000000" charge=0
C	-0.884553	-1.426163	-0.652364	6
C	0.511167	-0.942223	-0.302884	6
N	0.562867	0.498867	-0.180894	7
C	0.222957	1.148367	0.990716	6
O	-0.106883	0.570457	2.020566	8
C	0.269277	2.607017	0.950366	6
N	0.322417	3.765477	0.858876	7
H	-0.894723	-2.515013	-0.760864	1
H	-1.227043	-0.983613	-1.593724	1
H	-1.604903	-1.152623	0.125546	1
H	1.217667	-1.227783	-1.088484	1
H	0.840937	-1.395713	0.637836	1
H	0.770817	1.052947	-1.004694	1
Es	-0.884514	-1.426157	-0.652367	99
Es	-0.111450	0.244828	1.996683	99
Es	0.269251	2.606642	0.950420	99
Es	0.530557	-0.099045	-0.220899	99
Es	0.350918	0.790382	0.304159	99
Es	0.236556	0.774970	1.733442	99
Es	-0.106791	0.570586	2.020282	99
Es	0.037245	3.202702	0.863840	99
Es	-1.360677	-1.236086	-0.127261	99
Es	0.223022	1.148512	0.990550	99
Es	0.467245	3.204586	0.645238	99
Es	0.322396	3.765007	0.858910	99
Es	0.340281	4.132275	0.820483	99
Es	-0.881104	-2.170133	-0.723905	99
Es	0.511140	-0.941995	-0.302893	99
Es	-1.107268	-1.116355	-1.297498	99
Es	0.561839	0.499163	-0.180749	99
Es	0.986331	-1.127675	-0.843978	99
Es	0.621547	0.594493	-0.021044	99
Es	0.732845	-1.244948	0.329125	99
Es	0.682535	0.835022	-0.669788	99
Es	-0.157150	0.780922	2.216765	99
Es	0.251131	1.926784	0.959419	99
Es	0.388576	3.238842	1.196719	99
Es	-0.222383	0.790472	1.598547	99
Es	-0.189231	-1.173975	-0.476176	99
39
Properties=species:S:1:pos:R:3:Z:I:1 energy=-338.84075322489457 field_type=dipole dipole="0.000000 0.000000 0.000000" charge=0
C	-0.884553	-1.426163	-0.652364	6
C	0.511167	-0.942223	-0.302884	6
N	0.562867	0.498867	-0.180894	7
C	0.222957	1.148367	0.990716	6
O	-0.106883	0.570457	2.020566	8
C	0.269277	2.607017	0.950366	6
N	0.322417	3.765477	0.858876	7
H	-0.894723	-2.515013	-0.760864	1
H	-1.227043	-0.983613	-1.593724	1
H	-1.604903	-1.152623	0.125546	1
H	1.217667	-1.227783	-1.088484	1
H	0.840937	-1.395713	0.637836	1
H	0.770817	1.052947	-1.004694	1
Es	-1.360331	-1.235875	-0.127257	99
Es	0.531559	-0.099182	-0.220784	99
Es	0.986211	-1.127830	-0.843936	99
Es	-0.189333	-1.174004	-0.476337	99
Es	0.223017	1.148512	0.990547	99
Es	-0.106782	0.570585	2.020243	99
Es	-0.156779	0.780647	2.214716	99
Es	0.684107	0.835366	-0.669256	99
Es	0.383859	3.239732	1.198330	99
Es	0.613158	0.594388	-0.024343	99
Es	-0.881165	-2.170367	-0.723746	99
Es	-1.107051	-1.116036	-1.297569	99
Es	0.511140	-0.941997	-0.302894	99
Es	0.322396	3.765011	0.858911	99
Es	-0.222413	0.790473	1.599392	99
Es	-0.884513	-1.426156	-0.652366	99
Es	0.469326	3.204247	0.646952	99
Es	0.039855	3.202123	0.861033	99
Es	0.236476	0.775885	1.733241	99
Es	0.356062	0.790752	0.306935	99
Es	0.340478	4.132275	0.819734	99
Es	0.269247	2.606640	0.950420	99
Es	0.562694	0.498894	-0.180885	99
Es	0.250937	1.926867	0.959569	99
Es	-0.111781	0.244025	1.998052	99
Es	0.732476	-1.245155	0.329324	99
39
Properties=species:S:1:pos:R:3:Z:I:1 energy=-338.84075322489457 field_type=dipole dipole="0.000000 0.000000 0.000000" charge=0
C	-0.884553	-1.426163	-0.652364	6
C	0.511167	-0.942223	-0.302884	6
N	0.562867	0.498867	-0.180894	7
C	0.222957	1.148367	0.990716	6
O	-0.106883	0.570457	2.020566	8
C	0.269277	2.607017	0.950366	6
N	0.322417	3.765477	0.858876	7
H	-0.894723	-2.515013	-0.760864	1
H	-1.227043	-0.983613	-1.593724	1
H	-1.604903	-1.152623	0.125546	1
H	1.217667	-1.227783	-1.088484	1
H	0.840937	-1.395713	0.637836	1
H	0.770817	1.052947	-1.004694	1
Es	0.986042	-1.127926	-0.843862	99
Es	-0.881124	-2.170562	-0.723564	99
Es	0.732445	-1.245224	0.329350	99
Es	0.322396	3.765007	0.858911	99
Es	0.359953	0.791010	0.308900	99
Es	0.608873	0.593952	-0.026636	99
Es	0.531884	-0.099150	-0.220653	99
Es	0.368088	3.242341	1.203237	99
Es	0.236579	0.774254	1.734680	99
Es	-0.884512	-1.426157	-0.652366	99
Es	-0.106785	0.570580	2.020272	99
Es	-0.113902	0.243644	2.002927	99
Es	-1.106906	-1.116006	-1.297589	99
Es	0.251013	1.926896	0.959724	99
Es	-0.221592	0.790899	1.597461	99
Es	0.684822	0.835529	-0.669091	99
Es	-0.155597	0.782174	2.210277	99
Es	0.340522	4.132378	0.819111	99
Es	-0.189485	-1.173970	-0.476320	99
Es	0.223009	1.148513	0.990544	99
Es	0.562131	0.499027	-0.180860	99
Es	0.046283	3.200204	0.849139	99
Es	0.511142	-0.941996	-0.302892	99
Es	-1.360223	-1.235696	-0.127383	99
Es	0.269241	2.606640	0.950426	99
Es	0.478550	3.203459	0.654282	99
39
Properties=species:S:1:pos:R:3:Z:I:1 energy=-338.84075322489457 field_type=dipole dipole="0.000000 0.000000 0.000000" charge=0
C	-0.884553	-1.426163	-0.652364	6
C	0.511167	-0.942223	-0.302884	6
N	0.562867	0.498867	-0.180894	7
C	0.222957	1.148367	0.990716	6
O	-0.106883	0.570457	2.020566	8
C	0.269277	2.607017	0.950366	6
N	0.322417	3.765477	0.858876	7
H	-0.894723	-2.515013	-0.760864	1
H	-1.227043	-0.983613	-1.593724	1
H	-1.604903	-1.152623	0.125546	1
H	1.217667	-1.227783	-1.088484	1
H	0.840937	-1.395713	0.637836	1
H	0.770817	1.052947	-1.004694	1
Es	-0.155953	0.783014	2.210164	99
Es	0.322396	3.765007	0.858910	99
Es	-0.880767	-2.170730	-0.723739	99
Es	0.598963	0.592694	-0.032098	99
Es	0.532731	-0.099269	-0.220151	99
Es	-0.884513	-1.426156	-0.652366	99
Es	0.986072	-1.128187	-0.844341	99
Es	0.269247	2.606640	0.950426	99
Es	-0.221318	0.788880	1.600644	99
Es	0.340569	4.132654	0.819933	99
Es	0.236782	0.775789	1.731624	99
Es	0.036266	3.205425	0.883550	99
Es	0.561109	0.499786	-0.180057	99
Es	0.367254	0.791524	0.312447	99
Es	-1.106293	-1.115598	-1.297617	99
Es	0.687466	0.835692	-0.668372	99
Es	-0.189666	-1.174044	-0.476309	99
Es	-0.106776	0.570584	2.020192	99
Es	0.731840	-1.245415	0.329492	99
Es	-0.114273	0.243245	2.002881	99
Es	0.511141	-0.941996	-0.302893	99
Es	0.250899	1.926936	0.960193	99
Es	-1.360186	-1.235452	-0.126957	99
Es	0.223021	1.148512	0.990549	99
Es	0.451445	3.204953	0.634576	99
Es	0.405394	3.235331	1.187339	99
39
Properties=species:S:1:pos:R:3:Z:I:1 energy=-338.84075322489457 field_type=dipole dipole="0.000000 0.000000 0.000000" charge=0
C	-0.884553	-1.426163	-0.652364	6
C	0.511167	-0.942223	-0.302884	6
N	0.562867	0.498867	-0.180894	7
C	0.222957	1.148367	0.990716	6
O	-0.106883	0.570457	2.020566	8
C	0.269277	2.607017	0.950366	6
N	0.322417	3.765477	0.858876	7
H	-0.894723	-2.515013	-0.760864	1
H	-1.227043	-0.983613	-1.593724	1
H	-1.604903	-1.152623	0.125546	1
H	1.217667	-1.227783	-1.088484	1
H	0.840937	-1.395713	0.637836	1
H	0.770817	1.052947	-1.004694	1
Es	0.388703	0.792340	0.321697	99
Es	-1.105643	-1.114976	-1.297935	99
Es	-0.155530	0.783628	2.213409	99
Es	0.575969	0.592535	-0.040578	99
Es	0.492522	3.209501	1.102762	99
Es	-0.880679	-2.170902	-0.723504	99
Es	0.531238	-0.099061	-0.220515	99
Es	0.375796	3.207241	0.602158	99
Es	0.322396	3.765007	0.858911	99
Es	0.731116	-1.246100	0.329902	99
Es	0.688279	0.835792	-0.668234	99
Es	0.022178	3.228658	0.998392	99
Es	0.269242	2.606639	0.950427	99
Es	0.223024	1.148512	0.990550	99
Es	-0.114139	0.242914	1.999482	99
Es	-0.106778	0.570600	2.020230	99
Es	0.511141	-0.941993	-0.302895	99
Es	0.250575	1.927054	0.960736	99
Es	0.234737	0.773886	1.732573	99
Es	0.343924	4.132869	0.821732	99
Es	-0.189387	-1.173874	-0.476107	99
Es	0.562781	0.498885	-0.180871	99
Es	0.985446	-1.128429	-0.844996	99
Es	-0.884516	-1.426156	-0.652368	99
Es	-0.219791	0.790432	1.599818	99
Es	-1.359755	-1.235182	-0.126752	99
39
Properties=species:S:1:pos:R:3:Z:I:1 energy=-338.84075322489457 field_type=dipole dipole="0.000000 0.000000 0.000000" charge=0
C	-0.884553	-1.426163	-0.652364	6
C	0.511167	-0.942223	-0.302884	6
N	0.562867	0.498867	-0.180894	7
C	0.222957	1.148367	0.990716	6
O	-0.106883	0.570457	2.020566	8
C	0.269277	2.607017	0.950366	6
N	0.322417	3.765477	0.858876	7
H	-0.894723	-2.515013	-0.760864	1
H	-1.227043	-0.983613	-1.593724	1
H	-1.604903	-1.152623	0.125546	1
H	1.217667	-1.227783	-1.088484	1
H	0.840937	-1.395713	0.637836	1
H	0.770817	1.052947	-1.004694	1
Es	-0.884511	-1.426155	-0.652365	99
Es	0.603369	0.594086	-0.028461	99
Es	0.985709	-1.128070	-0.844150	99
Es	0.375252	3.241021	1.200632	99
Es	0.466691	3.203786	0.645516	99
Es	0.562570	0.498909	-0.180901	99
Es	0.050739	3.201096	0.861073	99
Es	0.362266	0.791031	0.309721	99
Es	0.511141	-0.941996	-0.302892	99
Es	-0.189525	-1.173970	-0.476195	99
Es	-0.220334	0.789591	1.599544	99
Es	0.532566	-0.099246	-0.220148	99
Es	0.732010	-1.245681	0.329532	99
Es	0.250829	1.926930	0.960118	99
Es	0.322396	3.765014	0.858912	99
Es	-1.359714	-1.235486	-0.127461	99
Es	0.686728	0.835937	-0.668479	99
Es	-0.106798	0.570576	2.020333	99
Es	-0.881151	-2.170997	-0.723460	99
Es	0.341069	4.132513	0.818178	99
Es	-1.106453	-1.115348	-1.297568	99
Es	-0.156049	0.782809	2.207245	99
Es	0.236736	0.775829	1.733593	99
Es	0.223018	1.148512	0.990548	99
Es	0.269247	2.606639	0.950423	99
Es	-0.114952	0.242491	2.004737	99
39
Properties=species:S:1:pos:R:3:Z:I:1 energy=-338.84075322489457 field_type=dipole dipole="0.000000 0.000000 0.000000" charge=0
C	-0.884553	-1.426163	-0.652364	6
C	0.511167	-0.942223	-0.302884	6
N	0.562867	0.498867	-0.180894	7
C	0.222957	1.148367	0.990716	6
O	-0.106883	0.570457	2.020566	8
C	0.269277	2.607017	0.950366	6
N	0.322417	3.765477	0.858876	7
H	-0.894723	-2.515013	-0.760864	1
H	-1.227043	-0.983613	-1.593724	1
H	-1.604903	-1.152623	0.125546	1
H	1.217667	-1.227783	-1.088484	1
H	0.840937	-1.395713	0.637836	1
H	0.770817	1.052947	-1.004694	1
Es	0.366153	0.791330	0.311679	99
Es	-0.881149	-2.171134	-0.723325	99
Es	-0.189689	-1.174109	-0.476342	99
Es	-0.884513	-1.426156	-0.652367	99
Es	0.269245	2.606640	0.950427	99
Es	0.250880	1.926983	0.960376	99
Es	-1.106279	-1.115177	-1.297630	99
Es	0.322396	3.765007	0.858911	99
Es	-1.359501	-1.235311	-0.127431	99
Es	0.985714	-1.128184	-0.844054	99
Es	0.511138	-0.941994	-0.302891	99
Es	0.598301	0.593803	-0.030721	99
Es	0.474398	3.203396	0.651748	99
Es	0.340816	4.132537	0.817881	99
Es	-0.222973	0.791294	1.601737	99
Es	0.532819	-0.099213	-0.220141	99
Es	0.687628	0.835991	-0.668226	99
Es	0.731786	-1.245720	0.329592	99
Es	0.365262	3.242644	1.203734	99
Es	-0.106771	0.570575	2.020213	99
Es	-0.153779	0.780112	2.207235	99
Es	-0.114741	0.242198	2.004034	99
Es	0.223017	1.148512	0.990549	99
Es	0.236807	0.777082	1.732200	99
Es	0.053304	3.199812	0.851739	99
Es	0.562579	0.498905	-0.180903	99
39
Properties=species:S:1:pos:R:3:Z:I:1 energy=-338.84075322489457 field_type=dipole dipole="0.000000 0.000000 0.000000" charge=0
C	-0.884553	-1.426163	-0.652364	6
C	0.511167	-0.942223	-0.302884	6
N	0.562867	0.498867	-0.180894	7
C	0.222957	1.148367	0.990716	6
O	-0.106883	0.570457	2.020566	8
C	0.269277	2.607017	0.950366	6
N	0.322417	3.765477	0.858876	7
H	-0.894723	-2.515013	-0.760864	1
H	-1.227043	-0.983613	-1.593724	1
H	-1.604903	-1.152623	0.125546	1
H	1.217667	-1.227783	-1.088484	1
H	0.840937	-1.395713	0.637836	1
H	0.770817	1.052947	-1.004694	1
Es	0.366312	0.791110	0.311467	99
Es	0.479853	3.202892	0.656296	99
Es	-0.153563	0.782008	2.205270	99
Es	-0.114561	0.242051	2.007080	99
Es	-1.106558	-1.115051	-1.297563	99
Es	-0.106785	0.570607	2.020258	99
Es	0.059018	3.198606	0.844494	99
Es	0.732038	-1.245905	0.329567	99
Es	-0.881224	-2.171256	-0.723215	99
Es	0.599200	0.593834	-0.030484	99
Es	0.250831	1.927002	0.960373	99
Es	0.562493	0.498916	-0.180910	99
Es	0.322396	3.765006	0.858910	99
Es	0.511142	-0.941999	-0.302892	99
Es	-0.884513	-1.426156	-0.652366	99
Es	-1.359239	-1.235488	-0.127709	99
Es	0.236358	0.777417	1.730408	99
Es	0.353725	3.244456	1.207105	99
Es	-0.189676	-1.174013	-0.476351	99
Es	0.532760	-0.099242	-0.220054	99
Es	-0.222857	0.789153	1.602385	99
Es	0.341156	4.132444	0.817208	99
Es	0.223019	1.148512	0.990549	99
Es	0.269244	2.606639	0.950425	99
Es	0.686784	0.836243	-0.668339	99
Es	0.985498	-1.127968	-0.843888	99
