41
Properties=species:S:1:pos:R:3:Z:I:1 energy=-359.7993028903527 field_type=dipole dipole="0.000000 0.000000 0.000000" charge=0
C	-0.846187	2.331046	1.690656	6
C	-0.743497	0.966436	1.086306	6
N	0.122113	0.718126	0.162306	7
O	0.004033	-0.629434	-0.227064	8
C	0.902353	-0.916214	-1.227464	6
C	0.755083	-2.359684	-1.609964	6
O	1.717503	-0.158984	-1.739364	8
H	-0.684347	2.253606	2.769116	1
H	-1.852657	2.720296	1.515406	1
H	-0.108627	3.010256	1.255996	1
H	-1.438567	0.197626	1.465176	1
H	1.103143	-2.994654	-0.792504	1
H	1.358343	-2.561234	-2.499163	1
H	-0.288687	-2.577184	-1.849444	1
Es	-0.445196	0.892204	0.353698	99
Es	0.098057	-0.806249	-0.011451	99
Es	1.603219	-0.483618	-1.382471	99
Es	-0.743499	0.966465	1.086335	99
Es	-0.055277	0.740618	0.759813	99
Es	-1.211366	0.451084	1.342355	99
Es	0.057385	-0.058389	-0.063874	99
Es	1.869375	-0.319355	-1.950628	99
Es	-0.246082	-0.665236	-0.371280	99
Es	0.375279	0.920491	-0.005149	99
Es	0.004251	-0.629181	-0.227303	99
Es	-0.738717	2.265055	2.410370	99
Es	-1.522731	2.577872	1.569144	99
Es	1.715541	0.124410	-1.628922	99
Es	0.817433	-1.637989	-1.412571	99
Es	-0.787642	1.640682	1.379160	99
Es	0.055787	-2.495611	-1.760559	99
Es	0.357339	-0.698021	-0.602789	99
Es	0.984232	-2.767886	-1.057201	99
Es	1.717303	-0.159180	-1.739235	99
Es	-0.846199	2.330961	1.690637	99
Es	1.159194	-2.492780	-2.201982	99
Es	0.121658	0.717721	0.162592	99
Es	-0.354956	2.782589	1.400718	99
Es	1.258887	-0.350023	-1.731859	99
Es	0.902168	-0.916160	-1.227262	99
Es	0.755076	-2.359624	-1.609927	99
41
Properties=species:S:1:pos:R:3:Z:I:1 energy=-359.7993028903527 field_type=dipole dipole="0.000000 0.000000 0.000000" charge=0
C	-0.846187	2.331046	1.690656	6
C	-0.743497	0.966436	1.086306	6
N	0.122113	0.718126	0.162306	7
O	0.004033	-0.629434	-0.227064	8
C	0.902353	-0.916214	-1.227464	6
C	0.755083	-2.359684	-1.609964	6
O	1.717503	-0.158984	-1.739364	8
H	-0.684347	2.253606	2.769116	1
H	-1.852657	2.720296	1.515406	1
H	-0.108627	3.010256	1.255996	1
H	-1.438567	0.197626	1.465176	1
H	1.103143	-2.994654	-0.792504	1
H	1.358343	-2.561234	-2.499163	1
H	-0.288687	-2.577184	-1.849444	1
Es	-0.788494	1.639955	1.379410	99
Es	-0.059781	0.740098	0.756262	99
Es	0.755078	-2.359620	-1.609930	99
Es	-0.269462	-0.698398	-0.323544	99
Es	-0.846200	2.330962	1.690639	99
Es	1.263544	-0.348190	-1.724975	99
Es	0.004240	-0.629267	-0.227219	99
Es	-0.740474	2.264916	2.409358	99
Es	0.902164	-0.916160	-1.227257	99
Es	0.817041	-1.638454	-1.410579	99
Es	1.161779	-2.494861	-2.204840	99
Es	1.884213	-0.313669	-1.964833	99
Es	-1.521396	2.576467	1.570298	99
Es	0.377418	0.925799	-0.007014	99
Es	0.052217	-0.057241	-0.064601	99
Es	0.121659	0.717705	0.162589	99
Es	-0.743511	0.966468	1.086333	99
Es	1.717276	-0.159166	-1.739207	99
Es	1.597976	-0.478846	-1.383506	99
Es	0.348427	-0.698240	-0.619385	99
Es	-1.211700	0.450300	1.342898	99
Es	0.135560	-0.773322	-0.041434	99
Es	-0.353570	2.784615	1.400000	99
Es	0.981385	-2.765192	-1.058906	99
Es	1.701188	0.112073	-1.620996	99
Es	0.056768	-2.495694	-1.757918	99
Es	-0.442824	0.887810	0.358717	99
41
Properties=species:S:1:pos:R:3:Z:I:1 energy=-359.7993028903527 field_type=dipole dipole="0.000000 0.000000 0.000000" charge=0
C	-0.846187	2.331046	1.690656	6
C	-0.743497	0.966436	1.086306	6
N	0.122113	0.718126	0.162306	7
O	0.004033	-0.629434	-0.227064	8
C	0.902353	-0.916214	-1.227464	6
C	0.755083	-2.359684	-1.609964	6
O	1.717503	-0.158984	-1.739364	8
H	-0.684347	2.253606	2.769116	1
H	-1.852657	2.720296	1.515406	1
H	-0.108627	3.010256	1.255996	1
H	-1.438567	0.197626	1.465176	1
H	1.103143	-2.994654	-0.792504	1
H	1.358343	-2.561234	-2.499163	1
H	-0.288687	-2.577184	-1.849444	1
Es	1.692710	0.103260	-1.618385	99
Es	-0.271734	-0.789698	-0.185908	99
Es	0.046328	-0.055547	-0.067272	99
Es	0.980399	-2.765036	-1.058336	99
Es	-0.058977	0.739956	0.757309	99
Es	-0.740345	2.264995	2.409889	99
Es	0.121653	0.717720	0.162595	99
Es	0.057863	-2.494793	-1.757391	99
Es	-0.788638	1.640117	1.379349	99
Es	1.596746	-0.478259	-1.382104	99
Es	-0.743511	0.966470	1.086334	99
Es	0.004241	-0.629140	-0.227368	99
Es	0.816664	-1.639285	-1.410028	99
Es	-1.211457	0.450499	1.343103	99
Es	-0.846200	2.330962	1.690637	99
Es	0.755077	-2.359620	-1.609929	99
Es	-0.353785	2.784150	1.399857	99
Es	-1.521463	2.576513	1.569893	99
Es	0.902161	-0.916160	-1.227258	99
Es	0.159949	-0.682704	-0.160483	99
Es	1.162478	-2.495043	-2.206069	99
Es	0.333002	-0.698824	-0.635270	99
Es	1.717297	-0.159206	-1.739241	99
Es	-0.443272	0.887318	0.358497	99
Es	1.891151	-0.305763	-1.970184	99
Es	0.376321	0.925975	-0.007651	99
Es	1.265864	-0.348006	-1.724227	99
41
Properties=species:S:1:pos:R:3:Z:I:1 energy=-359.7993028903527 field_type=dipole dipole="0.000000 0.000000 0.000000" charge=0
C	-0.846187	2.331046	1.690656	6
C	-0.743497	0.966436	1.086306	6
N	0.122113	0.718126	0.162306	7
O	0.004033	-0.629434	-0.227064	8
C	0.902353	-0.916214	-1.227464	6
C	0.755083	-2.359684	-1.609964	6
O	1.717503	-0.158984	-1.739364	8
H	-0.684347	2.253606	2.769116	1
H	-1.852657	2.720296	1.515406	1
H	-0.108627	3.010256	1.255996	1
H	-1.438567	0.197626	1.465176	1
H	1.103143	-2.994654	-0.792504	1
H	1.358343	-2.561234	-2.499163	1
H	-0.288687	-2.577184	-1.849444	1
Es	-0.353743	2.783542	1.400076	99
Es	0.902164	-0.916160	-1.227260	99
Es	-0.743505	0.966468	1.086336	99
Es	-0.788425	1.640111	1.379676	99
Es	0.055737	-2.495601	-1.756512	99
Es	0.816766	-1.640073	-1.410207	99
Es	1.260434	-0.345340	-1.722414	99
Es	1.596805	-0.474592	-1.384522	99
Es	-0.059204	0.738941	0.757308	99
Es	-1.522255	2.576944	1.569725	99
Es	0.014533	-0.605667	-0.331848	99
Es	-0.739905	2.264863	2.409703	99
Es	-0.444402	0.888645	0.357268	99
Es	-0.846200	2.330962	1.690637	99
Es	0.755078	-2.359621	-1.609927	99
Es	1.693909	0.095813	-1.616905	99
Es	0.054549	-0.057992	-0.057154	99
Es	1.896242	-0.305176	-1.970314	99
Es	0.980465	-2.762545	-1.059845	99
Es	0.375751	-0.717816	-0.597136	99
Es	1.717283	-0.159239	-1.739244	99
Es	0.121669	0.717696	0.162575	99
Es	-0.177622	-0.844575	-0.063597	99
Es	0.004480	-0.629215	-0.227135	99
Es	0.378118	0.924970	-0.005497	99
Es	-1.212000	0.451063	1.342415	99
Es	1.163799	-2.495555	-2.205844	99
41
Properties=species:S:1:pos:R:3:Z:I:1 energy=-359.7993028903527 field_type=dipole dipole="0.000000 0.000000 0.000000" charge=0
C	-0.846187	2.331046	1.690656	6
C	-0.743497	0.966436	1.086306	6
N	0.122113	0.718126	0.162306	7
O	0.004033	-0.629434	-0.227064	8
C	0.902353	-0.916214	-1.227464	6
C	0.755083	-2.359684	-1.609964	6
O	1.717503	-0.158984	-1.739364	8
H	-0.684347	2.253606	2.769116	1
H	-1.852657	2.720296	1.515406	1
H	-0.108627	3.010256	1.255996	1
H	-1.438567	0.197626	1.465176	1
H	1.103143	-2.994654	-0.792504	1
H	1.358343	-2.561234	-2.499163	1
H	-0.288687	-2.577184	-1.849444	1
Es	0.816480	-1.640282	-1.409760	99
Es	-0.444180	0.888071	0.357230	99
Es	-1.211797	0.451060	1.342637	99
Es	0.056387	-2.495577	-1.755796	99
Es	1.717283	-0.159203	-1.739237	99
Es	0.980003	-2.762032	-1.060086	99
Es	0.367503	-0.715914	-0.607034	99
Es	-1.522055	2.576872	1.569901	99
Es	-0.059988	0.738710	0.757274	99
Es	-0.200047	-0.838145	-0.081666	99
Es	1.691899	0.090403	-1.617719	99
Es	0.378068	0.925584	-0.005403	99
Es	0.121654	0.717717	0.162599	99
Es	1.164125	-2.495826	-2.206564	99
Es	0.004568	-0.629224	-0.227097	99
Es	1.595509	-0.473246	-1.382594	99
Es	-0.739889	2.264882	2.409778	99
Es	0.047989	-0.615070	-0.300676	99
Es	0.755077	-2.359621	-1.609930	99
Es	0.052141	-0.056695	-0.060567	99
Es	-0.353853	2.783607	1.399946	99
Es	0.902159	-0.916159	-1.227257	99
Es	1.261161	-0.343398	-1.721794	99
Es	-0.788591	1.640068	1.379555	99
Es	-0.743512	0.966471	1.086334	99
Es	1.898624	-0.303163	-1.972349	99
Es	-0.846200	2.330962	1.690637	99
41
Properties=species:S:1:pos:R:3:Z:I:1 energy=-359.7993028903527 field_type=dipole dipole="0.000000 0.000000 0.000000" charge=0
C	-0.846187	2.331046	1.690656	6
C	-0.743497	0.966436	1.086306	6
N	0.122113	0.718126	0.162306	7
O	0.004033	-0.629434	-0.227064	8
C	0.902353	-0.916214	-1.227464	6
C	0.755083	-2.359684	-1.609964	6
O	1.717503	-0.158984	-1.739364	8
H	-0.684347	2.253606	2.769116	1
H	-1.852657	2.720296	1.515406	1
H	-0.108627	3.010256	1.255996	1
H	-1.438567	0.197626	1.465176	1
H	1.103143	-2.994654	-0.792504	1
H	1.358343	-2.561234	-2.499163	1
H	-0.288687	-2.577184	-1.849444	1
Es	1.593858	-0.473314	-1.383298	99
Es	-0.353748	2.783685	1.399917	99
Es	-0.743512	0.966471	1.086334	99
Es	1.684812	0.086979	-1.615339	99
Es	1.264435	-0.346333	-1.722754	99
Es	0.051238	-0.056874	-0.060624	99
Es	-0.444164	0.887610	0.357661	99
Es	0.755077	-2.359623	-1.609930	99
Es	1.717283	-0.159226	-1.739239	99
Es	0.056680	-2.495538	-1.755246	99
Es	0.367033	-0.715229	-0.608088	99
Es	1.164587	-2.496245	-2.206945	99
Es	0.121669	0.717771	0.162602	99
Es	0.004380	-0.629169	-0.227191	99
Es	-0.788792	1.639959	1.379671	99
Es	-0.060317	0.738595	0.756901	99
Es	0.902160	-0.916160	-1.227254	99
Es	-1.521969	2.576864	1.570072	99
Es	-0.846200	2.330964	1.690637	99
Es	-1.211675	0.450990	1.342645	99
Es	-0.739989	2.264891	2.409604	99
Es	0.378221	0.925978	-0.005546	99
Es	0.816526	-1.640530	-1.409212	99
Es	0.979387	-2.761398	-1.060668	99
Es	1.903915	-0.296788	-1.973279	99
Es	-0.203834	-0.836714	-0.085551	99
Es	0.053462	-0.616766	-0.295521	99
41
Properties=species:S:1:pos:R:3:Z:I:1 energy=-359.7993028903527 field_type=dipole dipole="0.000000 0.000000 0.000000" charge=0
C	-0.846187	2.331046	1.690656	6
C	-0.743497	0.966436	1.086306	6
N	0.122113	0.718126	0.162306	7
O	0.004033	-0.629434	-0.227064	8
C	0.902353	-0.916214	-1.227464	6
C	0.755083	-2.359684	-1.609964	6
O	1.717503	-0.158984	-1.739364	8
H	-0.684347	2.253606	2.769116	1
H	-1.852657	2.720296	1.515406	1
H	-0.108627	3.010256	1.255996	1
H	-1.438567	0.197626	1.465176	1
H	1.103143	-2.994654	-0.792504	1
H	1.358343	-2.561234	-2.499163	1
H	-0.288687	-2.577184	-1.849444	1
Es	1.686451	0.083071	-1.617773	99
Es	0.378118	0.926758	-0.005761	99
Es	0.363300	-0.713574	-0.612313	99
Es	-0.443751	0.886961	0.358063	99
Es	1.593570	-0.470984	-1.381516	99
Es	-0.210530	-0.834188	-0.092623	99
Es	0.978854	-2.760694	-1.061313	99
Es	0.057174	-2.495821	-1.754668	99
Es	-0.743512	0.966472	1.086335	99
Es	0.816319	-1.640454	-1.408765	99
Es	-0.846200	2.330961	1.690636	99
Es	0.004254	-0.629113	-0.227346	99
Es	0.049758	-0.056607	-0.061605	99
Es	0.755076	-2.359620	-1.609928	99
Es	0.121656	0.717717	0.162591	99
Es	-0.740108	2.265016	2.409164	99
Es	1.164982	-2.496736	-2.207223	99
Es	1.717295	-0.159220	-1.739251	99
Es	0.065761	-0.621123	-0.283100	99
Es	-0.353638	2.783898	1.399919	99
Es	1.902940	-0.298546	-1.975511	99
Es	1.263916	-0.343032	-1.720009	99
Es	0.902156	-0.916159	-1.227253	99
Es	-1.521991	2.576798	1.570354	99
Es	-1.211659	0.450940	1.342699	99
Es	-0.060820	0.738487	0.756786	99
Es	-0.788850	1.639646	1.379773	99
41
Properties=species:S:1:pos:R:3:Z:I:1 energy=-359.7993028903527 field_type=dipole dipole="0.000000 0.000000 0.000000" charge=0
C	-0.846187	2.331046	1.690656	6
C	-0.743497	0.966436	1.086306	6
N	0.122113	0.718126	0.162306	7
O	0.004033	-0.629434	-0.227064	8
C	0.902353	-0.916214	-1.227464	6
C	0.755083	-2.359684	-1.609964	6
O	1.717503	-0.158984	-1.739364	8
H	-0.684347	2.253606	2.769116	1
H	-1.852657	2.720296	1.515406	1
H	-0.108627	3.010256	1.255996	1
H	-1.438567	0.197626	1.465176	1
H	1.103143	-2.994654	-0.792504	1
H	1.358343	-2.561234	-2.499163	1
H	-0.288687	-2.577184	-1.849444	1
Es	1.262724	-0.341702	-1.718227	99
Es	1.165426	-2.497191	-2.207347	99
Es	1.593759	-0.470833	-1.383686	99
Es	0.816189	-1.640496	-1.408393	99
Es	1.717298	-0.159195	-1.739252	99
Es	1.903678	-0.297023	-1.976971	99
Es	-0.060640	0.738577	0.756194	99
Es	-0.353568	2.783984	1.399938	99
Es	0.902160	-0.916160	-1.227252	99
Es	0.004355	-0.629157	-0.227219	99
Es	1.686685	0.079930	-1.616029	99
Es	0.049705	-0.056887	-0.061526	99
Es	-0.788950	1.639639	1.379688	99
Es	-0.740547	2.265124	2.409419	99
Es	0.121660	0.717704	0.162583	99
Es	-1.521527	2.576652	1.570140	99
Es	-1.211631	0.450896	1.342771	99
Es	-0.207151	-0.835137	-0.089151	99
Es	-0.444015	0.886464	0.358770	99
Es	-0.846200	2.330961	1.690637	99
Es	0.978372	-2.759938	-1.061946	99
Es	0.057392	-2.496025	-1.754202	99
Es	0.365172	-0.714134	-0.610614	99
Es	0.378049	0.927089	-0.005944	99
Es	0.755076	-2.359621	-1.609929	99
Es	-0.743512	0.966471	1.086334	99
Es	0.060561	-0.619144	-0.288425	99
41
Properties=species:S:1:pos:R:3:Z:I:1 energy=-359.7993028903527 field_type=dipole dipole="0.000000 0.000000 0.000000" charge=0
C	-0.846187	2.331046	1.690656	6
C	-0.743497	0.966436	1.086306	6
N	0.122113	0.718126	0.162306	7
O	0.004033	-0.629434	-0.227064	8
C	0.902353	-0.916214	-1.227464	6
C	0.755083	-2.359684	-1.609964	6
O	1.717503	-0.158984	-1.739364	8
H	-0.684347	2.253606	2.769116	1
H	-1.852657	2.720296	1.515406	1
H	-0.108627	3.010256	1.255996	1
H	-1.438567	0.197626	1.465176	1
H	1.103143	-2.994654	-0.792504	1
H	1.358343	-2.561234	-2.499163	1
H	-0.288687	-2.577184	-1.849444	1
Es	-1.211625	0.450866	1.342851	99
Es	0.057357	-2.496426	-1.753557	99
Es	0.048993	-0.056860	-0.062103	99
Es	1.904748	-0.298303	-1.976460	99
Es	0.004075	-0.628937	-0.227924	99
Es	-1.521368	2.576426	1.570312	99
Es	0.816247	-1.640678	-1.408064	99
Es	1.593130	-0.467641	-1.380857	99
Es	-0.061822	0.738276	0.756293	99
Es	-0.443300	0.886331	0.358461	99
Es	-0.207494	-0.834768	-0.089661	99
Es	-0.353527	2.784258	1.399854	99
Es	0.061843	-0.619653	-0.286729	99
Es	-0.743513	0.966471	1.086334	99
Es	0.365294	-0.714114	-0.610668	99
Es	-0.788993	1.639497	1.379704	99
Es	1.165837	-2.497611	-2.207433	99
Es	1.263677	-0.342157	-1.718063	99
Es	-0.740714	2.265186	2.409269	99
Es	0.755077	-2.359619	-1.609929	99
Es	-0.846200	2.330962	1.690638	99
Es	1.717310	-0.159190	-1.739254	99
Es	0.378423	0.927477	-0.005591	99
Es	1.685160	0.078484	-1.619600	99
Es	0.978086	-2.758960	-1.062792	99
Es	0.121660	0.717692	0.162578	99
Es	0.902160	-0.916160	-1.227252	99
41
Properties=species:S:1:pos:R:3:Z:I:1 energy=-359.7993028903527 field_type=dipole dipole="0.000000 0.000000 0.000000" charge=0
C	-0.846187	2.331046	1.690656	6
C	-0.743497	0.966436	1.086306	6
N	0.122113	0.718126	0.162306	7
O	0.004033	-0.629434	-0.227064	8
C	0.902353	-0.916214	-1.227464	6
C	0.755083	-2.359684	-1.609964	6
O	1.717503	-0.158984	-1.739364	8
H	-0.684347	2.253606	2.769116	1
H	-1.852657	2.720296	1.515406	1
H	-0.108627	3.010256	1.255996	1
H	-1.438567	0.197626	1.465176	1
H	1.103143	-2.994654	-0.792504	1
H	1.358343	-2.561234	-2.499163	1
H	-0.288687	-2.577184	-1.849444	1
Es	-0.743512	0.966471	1.086333	99
Es	1.717278	-0.159234	-1.739239	99
Es	0.060558	-0.619158	-0.287917	99
Es	-0.789058	1.639424	1.379582	99
Es	1.905589	-0.297127	-1.977429	99
Es	-1.211663	0.450888	1.342871	99
Es	0.048942	-0.056967	-0.062552	99
Es	0.057651	-2.496842	-1.753144	99
Es	-0.353495	2.784386	1.399902	99
Es	-1.521241	2.576419	1.570470	99
Es	1.685237	0.075460	-1.618800	99
Es	-0.740801	2.265126	2.409160	99
Es	1.592421	-0.467354	-1.381706	99
Es	-0.443327	0.886100	0.358607	99
Es	0.121669	0.717694	0.162569	99
Es	0.902159	-0.916159	-1.227254	99
Es	0.977690	-2.758423	-1.063702	99
Es	1.166123	-2.497879	-2.207499	99
Es	-0.205841	-0.835233	-0.087890	99
Es	0.004080	-0.628916	-0.228010	99
Es	1.263405	-0.340596	-1.717187	99
Es	-0.062041	0.738108	0.756123	99
Es	0.755077	-2.359620	-1.609929	99
Es	0.378403	0.927727	-0.005348	99
Es	0.816166	-1.640515	-1.407392	99
Es	-0.846200	2.330961	1.690637	99
Es	0.365250	-0.713890	-0.610898	99
41
Properties=species:S:1:pos:R:3:Z:I:1 energy=-359.7993028903527 field_type=dipole dipole="0.000000 0.000000 0.000000" charge=0
C	-0.846187	2.331046	1.690656	6
C	-0.743497	0.966436	1.086306	6
N	0.122113	0.718126	0.162306	7
O	0.004033	-0.629434	-0.227064	8
C	0.902353	-0.916214	-1.227464	6
C	0.755083	-2.359684	-1.609964	6
O	1.717503	-0.158984	-1.739364	8
H	-0.684347	2.253606	2.769116	1
H	-1.852657	2.720296	1.515406	1
H	-0.108627	3.010256	1.255996	1
H	-1.438567	0.197626	1.465176	1
H	1.103143	-2.994654	-0.792504	1
H	1.358343	-2.561234	-2.499163	1
H	-0.288687	-2.577184	-1.849444	1
Es	1.590618	-0.467474	-1.381276	99
Es	-1.521282	2.576474	1.570563	99
Es	1.906357	-0.296766	-1.977684	99
Es	0.902157	-0.916160	-1.227255	99
Es	-0.443038	0.885952	0.358573	99
Es	1.265270	-0.339999	-1.717602	99
Es	0.977501	-2.757357	-1.064583	99
Es	0.816196	-1.640655	-1.407283	99
Es	0.057346	-2.497274	-1.752546	99
Es	1.166530	-2.498318	-2.207398	99
Es	1.717325	-0.159157	-1.739252	99
Es	0.366759	-0.714669	-0.609331	99
Es	-0.202239	-0.836045	-0.084270	99
Es	0.755077	-2.359621	-1.609930	99
Es	-0.846200	2.330962	1.690638	99
Es	-0.062525	0.737953	0.756111	99
Es	0.378569	0.927901	-0.005308	99
Es	-0.789207	1.639370	1.379846	99
Es	0.004365	-0.629205	-0.227214	99
Es	0.055008	-0.617066	-0.293960	99
Es	0.121646	0.717708	0.162597	99
Es	-1.211707	0.450929	1.342833	99
Es	-0.353316	2.784271	1.399723	99
Es	-0.743512	0.966471	1.086335	99
Es	1.684432	0.074472	-1.618488	99
Es	-0.740793	2.265225	2.408991	99
Es	0.049179	-0.057071	-0.062471	99
