49
Properties=species:S:1:pos:R:3:Z:I:1 energy=-326.33320840088385 field_type=dipole dipole="0.000000 0.000000 0.000000" charge=0
C	-0.389454	-2.001484	-0.905580	6
C	-0.905854	-0.878064	-0.014691	6
O	-0.556824	-1.179104	1.334700	8
C	-0.389934	0.521066	-0.427220	6
C	-1.057014	1.608326	0.426849	6
C	1.147235	0.659576	-0.392420	6
N	1.728106	0.380396	0.922369	7
H	-0.609104	-1.807714	-1.959930	1
H	-0.860054	-2.950264	-0.623330	1
H	0.688776	-2.150534	-0.786560	1
H	-2.000794	-0.881324	-0.066481	1
H	0.384356	-0.912284	1.433900	1
H	-0.701904	0.695596	-1.466120	1
H	-0.833904	1.493396	1.492319	1
H	-2.145644	1.573406	0.309229	1
H	-0.723284	2.604326	0.116159	1
H	1.434096	1.672746	-0.698510	1
H	1.595086	-0.022434	-1.122940	1
H	1.450976	1.118766	1.573680	1
H	2.745145	0.455606	0.854580	1
Es	-0.540169	-1.862187	-1.629528	99
Es	-1.056997	1.608316	0.426829	99
Es	1.147270	0.659540	-0.392268	99
Es	-0.895860	1.532186	1.147878	99
Es	-0.599067	0.638803	-1.142037	99
Es	-0.822461	2.289371	0.210556	99
Es	-0.389451	-2.001476	-0.905600	99
Es	2.338370	0.438401	0.871134	99
Es	1.483213	0.518867	0.361682	99
Es	-1.797329	1.581373	0.344243	99
Es	-0.905746	-0.878093	-0.014521	99
Es	0.385777	0.581029	-0.391003	99
Es	-0.718331	1.066827	0.012439	99
Es	-1.660890	-0.872887	-0.058487	99
Es	1.564675	0.837696	1.300034	99
Es	-0.714371	-2.641973	-0.716798	99
Es	-0.073456	-1.046846	1.366649	99
Es	1.618330	0.048465	1.052115	99
Es	0.348341	-2.091270	-0.826547	99
Es	-0.626615	-0.171604	-0.223061	99
Es	-0.556641	-1.178855	1.334494	99
Es	-0.668824	-1.053924	0.816203	99
Es	-0.718923	-0.982514	1.510226	99
Es	1.455611	0.189463	-0.888736	99
Es	-0.582518	-1.486329	1.362501	99
Es	1.728236	0.380879	0.922185	99
Es	1.337408	1.363614	-0.607337	99
Es	-0.389901	0.521089	-0.427189	99
Es	-0.633147	-1.439396	-0.482348	99
49
Properties=species:S:1:pos:R:3:Z:I:1 energy=-326.33320840088385 field_type=dipole dipole="0.000000 0.000000 0.000000" charge=0
C	-0.389454	-2.001484	-0.905580	6
C	-0.905854	-0.878064	-0.014691	6
O	-0.556824	-1.179104	1.334700	8
C	-0.389934	0.521066	-0.427220	6
C	-1.057014	1.608326	0.426849	6
C	1.147235	0.659576	-0.392420	6
N	1.728106	0.380396	0.922369	7
H	-0.609104	-1.807714	-1.959930	1
H	-0.860054	-2.950264	-0.623330	1
H	0.688776	-2.150534	-0.786560	1
H	-2.000794	-0.881324	-0.066481	1
H	0.384356	-0.912284	1.433900	1
H	-0.701904	0.695596	-1.466120	1
H	-0.833904	1.493396	1.492319	1
H	-2.145644	1.573406	0.309229	1
H	-0.723284	2.604326	0.116159	1
H	1.434096	1.672746	-0.698510	1
H	1.595086	-0.022434	-1.122940	1
H	1.450976	1.118766	1.573680	1
H	2.745145	0.455606	0.854580	1
Es	-0.905748	-0.878093	-0.014521	99
Es	1.618365	0.049205	1.052577	99
Es	-0.714781	-2.641664	-0.716649	99
Es	1.455603	0.190043	-0.888199	99
Es	-1.798331	1.581375	0.343906	99
Es	-1.661490	-0.873045	-0.058733	99
Es	-0.670377	-1.053743	0.815937	99
Es	-0.556623	-1.178923	1.334476	99
Es	-1.056997	1.608314	0.426829	99
Es	0.349157	-2.091181	-0.826415	99
Es	-0.071619	-1.043998	1.369485	99
Es	1.147268	0.659540	-0.392266	99
Es	-0.632917	-1.439580	-0.482451	99
Es	-0.718358	1.066893	0.012585	99
Es	-0.821997	2.288775	0.210583	99
Es	-0.895275	1.532091	1.147771	99
Es	1.728233	0.380847	0.922194	99
Es	-0.389901	0.521088	-0.427188	99
Es	1.482587	0.518617	0.361513	99
Es	1.337945	1.363216	-0.607501	99
Es	0.385646	0.581090	-0.391097	99
Es	2.339533	0.439105	0.871562	99
Es	-0.540658	-1.861980	-1.629314	99
Es	-0.720043	-0.987379	1.508732	99
Es	-0.581568	-1.484411	1.361366	99
Es	-0.626571	-0.171578	-0.223167	99
Es	-0.389451	-2.001477	-0.905600	99
Es	-0.599487	0.638990	-1.141947	99
Es	1.564389	0.836428	1.299243	99
49
Properties=species:S:1:pos:R:3:Z:I:1 energy=-326.33320840088385 field_type=dipole dipole="0.000000 0.000000 0.000000" charge=0
C	-0.389454	-2.001484	-0.905580	6
C	-0.905854	-0.878064	-0.014691	6
O	-0.556824	-1.179104	1.334700	8
C	-0.389934	0.521066	-0.427220	6
C	-1.057014	1.608326	0.426849	6
C	1.147235	0.659576	-0.392420	6
N	1.728106	0.380396	0.922369	7
H	-0.609104	-1.807714	-1.959930	1
H	-0.860054	-2.950264	-0.623330	1
H	0.688776	-2.150534	-0.786560	1
H	-2.000794	-0.881324	-0.066481	1
H	0.384356	-0.912284	1.433900	1
H	-0.701904	0.695596	-1.466120	1
H	-0.833904	1.493396	1.492319	1
H	-2.145644	1.573406	0.309229	1
H	-0.723284	2.604326	0.116159	1
H	1.434096	1.672746	-0.698510	1
H	1.595086	-0.022434	-1.122940	1
H	1.450976	1.118766	1.573680	1
H	2.745145	0.455606	0.854580	1
Es	-0.717406	-0.986352	1.505115	99
Es	-0.626490	-0.171521	-0.223170	99
Es	-1.661836	-0.873124	-0.058845	99
Es	-0.070314	-1.044694	1.370366	99
Es	1.728234	0.380869	0.922184	99
Es	0.385719	0.580965	-0.391153	99
Es	2.340182	0.439326	0.871687	99
Es	1.619105	0.050469	1.052646	99
Es	-1.056995	1.608313	0.426827	99
Es	-0.599816	0.639021	-1.141855	99
Es	-0.895027	1.532004	1.147563	99
Es	1.455741	0.190416	-0.887866	99
Es	-0.556616	-1.178925	1.334399	99
Es	-0.389900	0.521090	-0.427189	99
Es	-0.540826	-1.861771	-1.629105	99
Es	-0.718287	1.066842	0.012516	99
Es	-0.905744	-0.878094	-0.014518	99
Es	-1.798854	1.581287	0.343789	99
Es	1.481859	0.517840	0.361284	99
Es	-0.389451	-2.001481	-0.905600	99
Es	1.338007	1.363011	-0.607640	99
Es	-0.585096	-1.483826	1.364586	99
Es	0.349580	-2.091045	-0.826332	99
Es	-0.670695	-1.054669	0.815463	99
Es	-0.632919	-1.439705	-0.482474	99
Es	1.563932	0.835816	1.299270	99
Es	1.147271	0.659539	-0.392264	99
Es	-0.821745	2.288598	0.210657	99
Es	-0.715077	-2.641633	-0.716630	99
49
Properties=species:S:1:pos:R:3:Z:I:1 energy=-326.33320840088385 field_type=dipole dipole="0.000000 0.000000 0.000000" charge=0
C	-0.389454	-2.001484	-0.905580	6
C	-0.905854	-0.878064	-0.014691	6
O	-0.556824	-1.179104	1.334700	8
C	-0.389934	0.521066	-0.427220	6
C	-1.057014	1.608326	0.426849	6
C	1.147235	0.659576	-0.392420	6
N	1.728106	0.380396	0.922369	7
H	-0.609104	-1.807714	-1.959930	1
H	-0.860054	-2.950264	-0.623330	1
H	0.688776	-2.150534	-0.786560	1
H	-2.000794	-0.881324	-0.066481	1
H	0.384356	-0.912284	1.433900	1
H	-0.701904	0.695596	-1.466120	1
H	-0.833904	1.493396	1.492319	1
H	-2.145644	1.573406	0.309229	1
H	-0.723284	2.604326	0.116159	1
H	1.434096	1.672746	-0.698510	1
H	1.595086	-0.022434	-1.122940	1
H	1.450976	1.118766	1.573680	1
H	2.745145	0.455606	0.854580	1
Es	-0.894650	1.531958	1.147558	99
Es	-1.799230	1.581057	0.343683	99
Es	-0.632968	-1.439752	-0.482563	99
Es	-0.389901	0.521089	-0.427189	99
Es	1.481561	0.517802	0.361426	99
Es	-0.718313	1.067083	0.012621	99
Es	1.619027	0.050583	1.052909	99
Es	0.349873	-2.090904	-0.826273	99
Es	-0.669598	-1.056495	0.815003	99
Es	0.385798	0.580854	-0.391283	99
Es	-1.662017	-0.873183	-0.058950	99
Es	-0.715274	-2.641612	-0.716538	99
Es	-0.905746	-0.878094	-0.014522	99
Es	-0.540957	-1.861694	-1.628972	99
Es	-1.056997	1.608316	0.426829	99
Es	-0.584931	-1.481971	1.364168	99
Es	1.563949	0.835387	1.298851	99
Es	-0.719298	-0.986181	1.504816	99
Es	-0.821640	2.288435	0.210483	99
Es	-0.626419	-0.171422	-0.223151	99
Es	-0.069652	-1.044903	1.371438	99
Es	1.455767	0.190642	-0.887635	99
Es	-0.389451	-2.001476	-0.905600	99
Es	-0.600054	0.639004	-1.141779	99
Es	2.340623	0.439674	0.871678	99
Es	-0.556593	-1.178983	1.334499	99
Es	1.338122	1.362943	-0.607719	99
Es	1.728233	0.380868	0.922190	99
Es	1.147270	0.659539	-0.392266	99
49
Properties=species:S:1:pos:R:3:Z:I:1 energy=-326.33320840088385 field_type=dipole dipole="0.000000 0.000000 0.000000" charge=0
C	-0.389454	-2.001484	-0.905580	6
C	-0.905854	-0.878064	-0.014691	6
O	-0.556824	-1.179104	1.334700	8
C	-0.389934	0.521066	-0.427220	6
C	-1.057014	1.608326	0.426849	6
C	1.147235	0.659576	-0.392420	6
N	1.728106	0.380396	0.922369	7
H	-0.609104	-1.807714	-1.959930	1
H	-0.860054	-2.950264	-0.623330	1
H	0.688776	-2.150534	-0.786560	1
H	-2.000794	-0.881324	-0.066481	1
H	0.384356	-0.912284	1.433900	1
H	-0.701904	0.695596	-1.466120	1
H	-0.833904	1.493396	1.492319	1
H	-2.145644	1.573406	0.309229	1
H	-0.723284	2.604326	0.116159	1
H	1.434096	1.672746	-0.698510	1
H	1.595086	-0.022434	-1.122940	1
H	1.450976	1.118766	1.573680	1
H	2.745145	0.455606	0.854580	1
Es	-0.671367	-1.055852	0.815483	99
Es	1.455920	0.190874	-0.887561	99
Es	-0.389899	0.521087	-0.427186	99
Es	-0.626465	-0.171410	-0.223213	99
Es	-0.715349	-2.641711	-0.716406	99
Es	-1.799432	1.580954	0.343620	99
Es	-0.556672	-1.179007	1.334536	99
Es	-0.894571	1.531943	1.147457	99
Es	-0.069519	-1.042531	1.371581	99
Es	1.728231	0.380849	0.922209	99
Es	1.563708	0.835132	1.298949	99
Es	-0.821509	2.288401	0.210442	99
Es	-1.662177	-0.873344	-0.059045	99
Es	-0.541028	-1.861629	-1.628929	99
Es	-0.600161	0.639059	-1.141663	99
Es	-1.056997	1.608317	0.426831	99
Es	0.349923	-2.090752	-0.826303	99
Es	2.340838	0.439977	0.871541	99
Es	1.147270	0.659538	-0.392266	99
Es	1.480922	0.517066	0.361342	99
Es	1.338090	1.362833	-0.607657	99
Es	0.385831	0.580801	-0.391408	99
Es	-0.718314	1.067057	0.012700	99
Es	-0.582485	-1.481781	1.362558	99
Es	-0.632815	-1.439693	-0.482544	99
Es	-0.905747	-0.878093	-0.014521	99
Es	-0.389452	-2.001476	-0.905599	99
Es	1.619748	0.051313	1.053021	99
Es	-0.719989	-0.989356	1.505741	99
49
Properties=species:S:1:pos:R:3:Z:I:1 energy=-326.33320840088385 field_type=dipole dipole="0.000000 0.000000 0.000000" charge=0
C	-0.389454	-2.001484	-0.905580	6
C	-0.905854	-0.878064	-0.014691	6
O	-0.556824	-1.179104	1.334700	8
C	-0.389934	0.521066	-0.427220	6
C	-1.057014	1.608326	0.426849	6
C	1.147235	0.659576	-0.392420	6
N	1.728106	0.380396	0.922369	7
H	-0.609104	-1.807714	-1.959930	1
H	-0.860054	-2.950264	-0.623330	1
H	0.688776	-2.150534	-0.786560	1
H	-2.000794	-0.881324	-0.066481	1
H	0.384356	-0.912284	1.433900	1
H	-0.701904	0.695596	-1.466120	1
H	-0.833904	1.493396	1.492319	1
H	-2.145644	1.573406	0.309229	1
H	-0.723284	2.604326	0.116159	1
H	1.434096	1.672746	-0.698510	1
H	1.595086	-0.022434	-1.122940	1
H	1.450976	1.118766	1.573680	1
H	2.745145	0.455606	0.854580	1
Es	-0.556602	-1.178961	1.334443	99
Es	-0.069099	-1.042348	1.372201	99
Es	-0.671312	-1.056226	0.815331	99
Es	1.455795	0.190825	-0.887382	99
Es	-0.905743	-0.878096	-0.014518	99
Es	2.341033	0.440217	0.871644	99
Es	-0.389901	0.521089	-0.427189	99
Es	1.338277	1.362742	-0.607834	99
Es	-0.894330	1.531846	1.147376	99
Es	1.619623	0.051223	1.053209	99
Es	-0.718320	1.067245	0.012490	99
Es	-1.662329	-0.873383	-0.059084	99
Es	-0.541045	-1.861594	-1.628866	99
Es	-0.720150	-0.989792	1.505125	99
Es	-0.389454	-2.001475	-0.905597	99
Es	-0.582847	-1.481190	1.362742	99
Es	-1.056998	1.608319	0.426832	99
Es	-0.715438	-2.641658	-0.716450	99
Es	-0.600120	0.639055	-1.141686	99
Es	0.350098	-2.090701	-0.826197	99
Es	1.480927	0.517121	0.361405	99
Es	1.728243	0.380880	0.922183	99
Es	-0.632880	-1.439742	-0.482557	99
Es	-0.626493	-0.171409	-0.223179	99
Es	1.147270	0.659541	-0.392266	99
Es	-0.821462	2.288256	0.210543	99
Es	1.563657	0.834950	1.298633	99
Es	-1.799696	1.580941	0.343615	99
Es	0.385830	0.580891	-0.391257	99
49
Properties=species:S:1:pos:R:3:Z:I:1 energy=-326.33320840088385 field_type=dipole dipole="0.000000 0.000000 0.000000" charge=0
C	-0.389454	-2.001484	-0.905580	6
C	-0.905854	-0.878064	-0.014691	6
O	-0.556824	-1.179104	1.334700	8
C	-0.389934	0.521066	-0.427220	6
C	-1.057014	1.608326	0.426849	6
C	1.147235	0.659576	-0.392420	6
N	1.728106	0.380396	0.922369	7
H	-0.609104	-1.807714	-1.959930	1
H	-0.860054	-2.950264	-0.623330	1
H	0.688776	-2.150534	-0.786560	1
H	-2.000794	-0.881324	-0.066481	1
H	0.384356	-0.912284	1.433900	1
H	-0.701904	0.695596	-1.466120	1
H	-0.833904	1.493396	1.492319	1
H	-2.145644	1.573406	0.309229	1
H	-0.723284	2.604326	0.116159	1
H	1.434096	1.672746	-0.698510	1
H	1.595086	-0.022434	-1.122940	1
H	1.450976	1.118766	1.573680	1
H	2.745145	0.455606	0.854580	1
Es	1.480648	0.516853	0.361378	99
Es	-0.632898	-1.439720	-0.482555	99
Es	-0.069362	-1.040203	1.373270	99
Es	-0.540981	-1.861541	-1.628723	99
Es	-0.389451	-2.001476	-0.905599	99
Es	-0.722363	-0.993483	1.506809	99
Es	-0.905748	-0.878093	-0.014523	99
Es	0.350189	-2.090644	-0.826171	99
Es	-0.821325	2.288285	0.210552	99
Es	-0.626300	-0.171463	-0.223439	99
Es	-1.662410	-0.873454	-0.059134	99
Es	-0.715633	-2.641727	-0.716447	99
Es	-0.556662	-1.178942	1.334490	99
Es	-0.894414	1.531783	1.147358	99
Es	1.338295	1.362735	-0.607839	99
Es	-1.799756	1.580881	0.343456	99
Es	-0.600210	0.639149	-1.141560	99
Es	-0.672084	-1.055623	0.815365	99
Es	-0.389901	0.521089	-0.427189	99
Es	1.455880	0.190955	-0.887265	99
Es	2.341022	0.441009	0.871539	99
Es	-0.718421	1.067115	0.012691	99
Es	1.147270	0.659539	-0.392267	99
Es	1.563108	0.834470	1.299037	99
Es	-0.579532	-1.480257	1.359896	99
Es	1.620477	0.051237	1.052888	99
Es	-1.056997	1.608317	0.426830	99
Es	0.385854	0.580921	-0.391328	99
Es	1.728236	0.380852	0.922190	99
49
Properties=species:S:1:pos:R:3:Z:I:1 energy=-326.33320840088385 field_type=dipole dipole="0.000000 0.000000 0.000000" charge=0
C	-0.389454	-2.001484	-0.905580	6
C	-0.905854	-0.878064	-0.014691	6
O	-0.556824	-1.179104	1.334700	8
C	-0.389934	0.521066	-0.427220	6
C	-1.057014	1.608326	0.426849	6
C	1.147235	0.659576	-0.392420	6
N	1.728106	0.380396	0.922369	7
H	-0.609104	-1.807714	-1.959930	1
H	-0.860054	-2.950264	-0.623330	1
H	0.688776	-2.150534	-0.786560	1
H	-2.000794	-0.881324	-0.066481	1
H	0.384356	-0.912284	1.433900	1
H	-0.701904	0.695596	-1.466120	1
H	-0.833904	1.493396	1.492319	1
H	-2.145644	1.573406	0.309229	1
H	-0.723284	2.604326	0.116159	1
H	1.434096	1.672746	-0.698510	1
H	1.595086	-0.022434	-1.122940	1
H	1.450976	1.118766	1.573680	1
H	2.745145	0.455606	0.854580	1
Es	-0.583100	-1.480904	1.364252	99
Es	-0.600272	0.639177	-1.141564	99
Es	1.620644	0.052075	1.053061	99
Es	-1.799844	1.580866	0.343465	99
Es	-0.715728	-2.641683	-0.716438	99
Es	-0.540984	-1.861477	-1.628733	99
Es	-0.556669	-1.178967	1.334498	99
Es	-1.056996	1.608315	0.426832	99
Es	1.480240	0.516315	0.361253	99
Es	-0.626423	-0.171401	-0.223350	99
Es	-0.671523	-1.057806	0.815139	99
Es	-0.632733	-1.439693	-0.482571	99
Es	0.385809	0.580785	-0.391396	99
Es	-0.389900	0.521088	-0.427188	99
Es	-1.662476	-0.873497	-0.059244	99
Es	1.455919	0.191076	-0.887187	99
Es	-0.718339	1.067136	0.012709	99
Es	-0.389450	-2.001478	-0.905602	99
Es	2.341265	0.440657	0.871552	99
Es	1.338339	1.362628	-0.607848	99
Es	1.147270	0.659538	-0.392266	99
Es	-0.068871	-1.041023	1.372725	99
Es	1.563154	0.834501	1.298996	99
Es	-0.905748	-0.878093	-0.014517	99
Es	0.350221	-2.090680	-0.826122	99
Es	-0.821314	2.288196	0.210487	99
Es	-0.894311	1.531840	1.147354	99
Es	-0.719887	-0.989812	1.503234	99
Es	1.728240	0.380887	0.922178	99
49
Properties=species:S:1:pos:R:3:Z:I:1 energy=-326.33320840088385 field_type=dipole dipole="0.000000 0.000000 0.000000" charge=0
C	-0.389454	-2.001484	-0.905580	6
C	-0.905854	-0.878064	-0.014691	6
O	-0.556824	-1.179104	1.334700	8
C	-0.389934	0.521066	-0.427220	6
C	-1.057014	1.608326	0.426849	6
C	1.147235	0.659576	-0.392420	6
N	1.728106	0.380396	0.922369	7
H	-0.609104	-1.807714	-1.959930	1
H	-0.860054	-2.950264	-0.623330	1
H	0.688776	-2.150534	-0.786560	1
H	-2.000794	-0.881324	-0.066481	1
H	0.384356	-0.912284	1.433900	1
H	-0.701904	0.695596	-1.466120	1
H	-0.833904	1.493396	1.492319	1
H	-2.145644	1.573406	0.309229	1
H	-0.723284	2.604326	0.116159	1
H	1.434096	1.672746	-0.698510	1
H	1.595086	-0.022434	-1.122940	1
H	1.450976	1.118766	1.573680	1
H	2.745145	0.455606	0.854580	1
Es	-0.626313	-0.171385	-0.223313	99
Es	0.350236	-2.090511	-0.826117	99
Es	-0.721721	-0.990814	1.503610	99
Es	1.563307	0.834686	1.298544	99
Es	2.341438	0.440477	0.871656	99
Es	-0.389901	0.521088	-0.427186	99
Es	1.338420	1.362574	-0.607926	99
Es	-0.600423	0.639136	-1.141542	99
Es	-1.799955	1.580803	0.343446	99
Es	1.455932	0.191158	-0.887021	99
Es	-0.632762	-1.439694	-0.482611	99
Es	-0.581708	-1.480274	1.363266	99
Es	-1.662548	-0.873576	-0.059233	99
Es	-0.715739	-2.641805	-0.716386	99
Es	1.147270	0.659540	-0.392267	99
Es	1.480367	0.516314	0.361247	99
Es	-0.905745	-0.878094	-0.014521	99
Es	-0.718382	1.067110	0.012735	99
Es	-0.821300	2.288119	0.210425	99
Es	-0.540987	-1.861435	-1.628699	99
Es	-1.056998	1.608319	0.426830	99
Es	-0.389451	-2.001477	-0.905600	99
Es	-0.069182	-1.040055	1.373702	99
Es	1.620246	0.052174	1.053350	99
Es	-0.556621	-1.178966	1.334486	99
Es	0.385759	0.580863	-0.391468	99
Es	-0.894184	1.531862	1.147352	99
Es	-0.670748	-1.058410	0.814751	99
Es	1.728227	0.380838	0.922202	99
49
Properties=species:S:1:pos:R:3:Z:I:1 energy=-326.33320840088385 field_type=dipole dipole="0.000000 0.000000 0.000000" charge=0
C	-0.389454	-2.001484	-0.905580	6
C	-0.905854	-0.878064	-0.014691	6
O	-0.556824	-1.179104	1.334700	8
C	-0.389934	0.521066	-0.427220	6
C	-1.057014	1.608326	0.426849	6
C	1.147235	0.659576	-0.392420	6
N	1.728106	0.380396	0.922369	7
H	-0.609104	-1.807714	-1.959930	1
H	-0.860054	-2.950264	-0.623330	1
H	0.688776	-2.150534	-0.786560	1
H	-2.000794	-0.881324	-0.066481	1
H	0.384356	-0.912284	1.433900	1
H	-0.701904	0.695596	-1.466120	1
H	-0.833904	1.493396	1.492319	1
H	-2.145644	1.573406	0.309229	1
H	-0.723284	2.604326	0.116159	1
H	1.434096	1.672746	-0.698510	1
H	1.595086	-0.022434	-1.122940	1
H	1.450976	1.118766	1.573680	1
H	2.745145	0.455606	0.854580	1
Es	-1.056997	1.608317	0.426830	99
Es	1.620522	0.051742	1.053224	99
Es	-0.069146	-1.038694	1.374172	99
Es	-1.662545	-0.873606	-0.059247	99
Es	-0.718442	1.067269	0.012796	99
Es	-0.894123	1.531714	1.147392	99
Es	-0.671098	-1.059528	0.814575	99
Es	-1.800017	1.580737	0.343333	99
Es	-0.389450	-2.001478	-0.905600	99
Es	2.341273	0.440919	0.871534	99
Es	-0.626276	-0.171292	-0.223323	99
Es	0.385769	0.580828	-0.391485	99
Es	1.480385	0.516373	0.361268	99
Es	1.728242	0.380890	0.922177	99
Es	-0.821200	2.288130	0.210398	99
Es	-0.905746	-0.878093	-0.014522	99
Es	-0.715824	-2.641854	-0.716398	99
Es	-0.600450	0.639178	-1.141505	99
Es	-0.556575	-1.179040	1.334428	99
Es	1.563194	0.834464	1.298761	99
Es	-0.632812	-1.439711	-0.482616	99
Es	1.147270	0.659541	-0.392267	99
Es	-0.389901	0.521089	-0.427190	99
Es	-0.579765	-1.478939	1.362303	99
Es	-0.723450	-0.992386	1.504289	99
Es	0.350337	-2.090461	-0.826167	99
Es	1.338466	1.362597	-0.607879	99
Es	-0.541012	-1.861400	-1.628562	99
Es	1.455905	0.191262	-0.887010	99
49
Properties=species:S:1:pos:R:3:Z:I:1 energy=-326.33320840088385 field_type=dipole dipole="0.000000 0.000000 0.000000" charge=0
C	-0.389454	-2.001484	-0.905580	6
C	-0.905854	-0.878064	-0.014691	6
O	-0.556824	-1.179104	1.334700	8
C	-0.389934	0.521066	-0.427220	6
C	-1.057014	1.608326	0.426849	6
C	1.147235	0.659576	-0.392420	6
N	1.728106	0.380396	0.922369	7
H	-0.609104	-1.807714	-1.959930	1
H	-0.860054	-2.950264	-0.623330	1
H	0.688776	-2.150534	-0.786560	1
H	-2.000794	-0.881324	-0.066481	1
H	0.384356	-0.912284	1.433900	1
H	-0.701904	0.695596	-1.466120	1
H	-0.833904	1.493396	1.492319	1
H	-2.145644	1.573406	0.309229	1
H	-0.723284	2.604326	0.116159	1
H	1.434096	1.672746	-0.698510	1
H	1.595086	-0.022434	-1.122940	1
H	1.450976	1.118766	1.573680	1
H	2.745145	0.455606	0.854580	1
Es	-0.905747	-0.878093	-0.014521	99
Es	2.341469	0.441086	0.871543	99
Es	-0.671744	-1.059490	0.814621	99
Es	-0.069008	-1.038961	1.373604	99
Es	1.479903	0.515728	0.361200	99
Es	-1.800046	1.580806	0.343282	99
Es	1.621041	0.052444	1.053352	99
Es	-0.389451	-2.001476	-0.905599	99
Es	-0.541052	-1.861424	-1.628572	99
Es	-0.581204	-1.479685	1.364102	99
Es	-0.894227	1.531759	1.147349	99
Es	-0.632779	-1.439747	-0.482609	99
Es	-0.626259	-0.171374	-0.223449	99
Es	1.456002	0.191167	-0.886985	99
Es	1.728240	0.380872	0.922185	99
Es	1.147270	0.659540	-0.392266	99
Es	-0.721450	-0.991499	1.503026	99
Es	-0.718442	1.067157	0.012883	99
Es	-0.600472	0.639179	-1.141420	99
Es	-0.556627	-1.178866	1.334448	99
Es	-0.821105	2.288098	0.210430	99
Es	0.385803	0.580901	-0.391557	99
Es	-0.715818	-2.641856	-0.716331	99
Es	-1.662604	-0.873629	-0.059303	99
Es	-0.389900	0.521089	-0.427187	99
Es	1.338464	1.362493	-0.607913	99
Es	0.350376	-2.090381	-0.826153	99
Es	1.562900	0.834415	1.298722	99
Es	-1.056997	1.608316	0.426829	99
49
Properties=species:S:1:pos:R:3:Z:I:1 energy=-326.33320840088385 field_type=dipole dipole="0.000000 0.000000 0.000000" charge=0
C	-0.389454	-2.001484	-0.905580	6
C	-0.905854	-0.878064	-0.014691	6
O	-0.556824	-1.179104	1.334700	8
C	-0.389934	0.521066	-0.427220	6
C	-1.057014	1.608326	0.426849	6
C	1.147235	0.659576	-0.392420	6
N	1.728106	0.380396	0.922369	7
H	-0.609104	-1.807714	-1.959930	1
H	-0.860054	-2.950264	-0.623330	1
H	0.688776	-2.150534	-0.786560	1
H	-2.000794	-0.881324	-0.066481	1
H	0.384356	-0.912284	1.433900	1
H	-0.701904	0.695596	-1.466120	1
H	-0.833904	1.493396	1.492319	1
H	-2.145644	1.573406	0.309229	1
H	-0.723284	2.604326	0.116159	1
H	1.434096	1.672746	-0.698510	1
H	1.595086	-0.022434	-1.122940	1
H	1.450976	1.118766	1.573680	1
H	2.745145	0.455606	0.854580	1
Es	-0.672493	-1.058957	0.814782	99
Es	-0.600526	0.639150	-1.141421	99
Es	-0.578594	-1.478231	1.361231	99
Es	1.338437	1.362491	-0.607957	99
Es	-1.056996	1.608316	0.426829	99
Es	1.480106	0.515695	0.361308	99
Es	1.455962	0.191264	-0.886940	99
Es	-1.662587	-0.873764	-0.059252	99
Es	-0.068818	-1.037948	1.374185	99
Es	-0.905746	-0.878093	-0.014520	99
Es	-0.389902	0.521089	-0.427189	99
Es	-0.632732	-1.439659	-0.482607	99
Es	-0.821112	2.288256	0.210503	99
Es	-0.715860	-2.641923	-0.716303	99
Es	1.728238	0.380833	0.922193	99
Es	-0.389451	-2.001477	-0.905600	99
Es	-0.540978	-1.861431	-1.628566	99
Es	0.350300	-2.090374	-0.826170	99
Es	-0.718447	1.067183	0.012757	99
Es	0.385851	0.580949	-0.391569	99
Es	-1.800065	1.580672	0.343341	99
Es	-0.556610	-1.178936	1.334440	99
Es	1.147270	0.659540	-0.392265	99
Es	-0.626296	-0.171272	-0.223399	99
Es	1.563159	0.834705	1.298224	99
Es	2.341407	0.441141	0.871484	99
Es	1.620708	0.052149	1.053839	99
Es	-0.894201	1.531621	1.147235	99
Es	-0.723490	-0.994423	1.505117	99
49
Properties=species:S:1:pos:R:3:Z:I:1 energy=-326.33320840088385 field_type=dipole dipole="0.000000 0.000000 0.000000" charge=0
C	-0.389454	-2.001484	-0.905580	6
C	-0.905854	-0.878064	-0.014691	6
O	-0.556824	-1.179104	1.334700	8
C	-0.389934	0.521066	-0.427220	6
C	-1.057014	1.608326	0.426849	6
C	1.147235	0.659576	-0.392420	6
N	1.728106	0.380396	0.922369	7
H	-0.609104	-1.807714	-1.959930	1
H	-0.860054	-2.950264	-0.623330	1
H	0.688776	-2.150534	-0.786560	1
H	-2.000794	-0.881324	-0.066481	1
H	0.384356	-0.912284	1.433900	1
H	-0.701904	0.695596	-1.466120	1
H	-0.833904	1.493396	1.492319	1
H	-2.145644	1.573406	0.309229	1
H	-0.723284	2.604326	0.116159	1
H	1.434096	1.672746	-0.698510	1
H	1.595086	-0.022434	-1.122940	1
H	1.450976	1.118766	1.573680	1
H	2.745145	0.455606	0.854580	1
Es	1.621554	0.052314	1.053807	99
Es	1.728203	0.380756	0.922220	99
Es	-1.662645	-0.873730	-0.059276	99
Es	1.338537	1.362586	-0.607995	99
Es	1.455893	0.191320	-0.886829	99
Es	-0.389451	-2.001475	-0.905600	99
Es	-0.894022	1.531703	1.147201	99
Es	-1.056997	1.608316	0.426829	99
Es	2.341263	0.441728	0.871324	99
Es	1.479773	0.515085	0.361155	99
Es	-0.726086	-0.996670	1.505901	99
Es	-1.800193	1.580589	0.343400	99
Es	-0.905747	-0.878093	-0.014521	99
Es	-0.626316	-0.171372	-0.223406	99
Es	-0.716080	-2.641988	-0.716276	99
Es	0.350360	-2.090309	-0.826069	99
Es	-0.821102	2.288178	0.210359	99
Es	1.562835	0.834559	1.298469	99
Es	-0.389901	0.521090	-0.427188	99
Es	-0.069469	-1.036063	1.375492	99
Es	-0.576180	-1.477835	1.359204	99
Es	-0.600443	0.639222	-1.141397	99
Es	-0.556623	-1.178834	1.334486	99
Es	-0.718501	1.067243	0.012825	99
Es	-0.632645	-1.439757	-0.482783	99
Es	1.147270	0.659539	-0.392267	99
Es	-0.540910	-1.861292	-1.628503	99
Es	0.385805	0.580888	-0.391505	99
Es	-0.671646	-1.059132	0.814650	99
49
Properties=species:S:1:pos:R:3:Z:I:1 energy=-326.33320840088385 field_type=dipole dipole="0.000000 0.000000 0.000000" charge=0
C	-0.389454	-2.001484	-0.905580	6
C	-0.905854	-0.878064	-0.014691	6
O	-0.556824	-1.179104	1.334700	8
C	-0.389934	0.521066	-0.427220	6
C	-1.057014	1.608326	0.426849	6
C	1.147235	0.659576	-0.392420	6
N	1.728106	0.380396	0.922369	7
H	-0.609104	-1.807714	-1.959930	1
H	-0.860054	-2.950264	-0.623330	1
H	0.688776	-2.150534	-0.786560	1
H	-2.000794	-0.881324	-0.066481	1
H	0.384356	-0.912284	1.433900	1
H	-0.701904	0.695596	-1.466120	1
H	-0.833904	1.493396	1.492319	1
H	-2.145644	1.573406	0.309229	1
H	-0.723284	2.604326	0.116159	1
H	1.434096	1.672746	-0.698510	1
H	1.595086	-0.022434	-1.122940	1
H	1.450976	1.118766	1.573680	1
H	2.745145	0.455606	0.854580	1
Es	-1.800227	1.580675	0.343303	99
Es	1.456098	0.191322	-0.886934	99
Es	-0.671683	-1.060536	0.814069	99
Es	-0.556669	-1.179003	1.334538	99
Es	-0.821193	2.288033	0.210525	99
Es	1.562630	0.834222	1.298452	99
Es	-0.632687	-1.439612	-0.482537	99
Es	-0.894013	1.531699	1.147276	99
Es	1.147269	0.659541	-0.392264	99
Es	2.341427	0.442100	0.871327	99
Es	1.728232	0.380875	0.922195	99
Es	-0.600466	0.639153	-1.141358	99
Es	1.338373	1.362472	-0.607902	99
Es	-0.716006	-2.642058	-0.716379	99
Es	-1.662726	-0.873724	-0.059349	99
Es	-0.580381	-1.478164	1.363668	99
Es	-1.056997	1.608317	0.426829	99
Es	0.350333	-2.090331	-0.826218	99
Es	-0.389451	-2.001476	-0.905600	99
Es	-0.718431	1.067335	0.012717	99
Es	-0.389901	0.521089	-0.427189	99
Es	1.479703	0.515271	0.361256	99
Es	-0.068801	-1.038142	1.374909	99
Es	-0.722480	-0.992665	1.502571	99
Es	-0.905745	-0.878094	-0.014520	99
Es	-0.626214	-0.171375	-0.223481	99
Es	-0.540920	-1.861291	-1.628402	99
Es	0.385804	0.580796	-0.391504	99
Es	1.621655	0.052135	1.053709	99
49
Properties=species:S:1:pos:R:3:Z:I:1 energy=-326.33320840088385 field_type=dipole dipole="0.000000 0.000000 0.000000" charge=0
C	-0.389454	-2.001484	-0.905580	6
C	-0.905854	-0.878064	-0.014691	6
O	-0.556824	-1.179104	1.334700	8
C	-0.389934	0.521066	-0.427220	6
C	-1.057014	1.608326	0.426849	6
C	1.147235	0.659576	-0.392420	6
N	1.728106	0.380396	0.922369	7
H	-0.609104	-1.807714	-1.959930	1
H	-0.860054	-2.950264	-0.623330	1
H	0.688776	-2.150534	-0.786560	1
H	-2.000794	-0.881324	-0.066481	1
H	0.384356	-0.912284	1.433900	1
H	-0.701904	0.695596	-1.466120	1
H	-0.833904	1.493396	1.492319	1
H	-2.145644	1.573406	0.309229	1
H	-0.723284	2.604326	0.116159	1
H	1.434096	1.672746	-0.698510	1
H	1.595086	-0.022434	-1.122940	1
H	1.450976	1.118766	1.573680	1
H	2.745145	0.455606	0.854580	1
Es	1.456074	0.191312	-0.886858	99
Es	-0.540941	-1.861370	-1.628410	99
Es	-0.821224	2.288106	0.210383	99
Es	-0.626216	-0.171337	-0.223425	99
Es	-0.580534	-1.477537	1.363747	99
Es	-0.556619	-1.178933	1.334429	99
Es	1.621345	0.052539	1.054182	99
Es	-0.671621	-1.060937	0.813977	99
Es	-0.600533	0.639160	-1.141388	99
Es	1.728237	0.380862	0.922188	99
Es	-1.800206	1.580558	0.343396	99
Es	-0.632725	-1.439664	-0.482667	99
Es	0.350358	-2.090253	-0.826204	99
Es	1.562876	0.834728	1.298045	99
Es	-0.716013	-2.642057	-0.716271	99
Es	0.385850	0.580822	-0.391545	99
Es	1.479588	0.514811	0.361311	99
Es	-0.893946	1.531742	1.147253	99
Es	-1.056996	1.608316	0.426830	99
Es	-0.389451	-2.001476	-0.905600	99
Es	-0.068517	-1.038246	1.375114	99
Es	-0.722731	-0.992850	1.502484	99
Es	1.147270	0.659540	-0.392268	99
Es	-0.718434	1.067269	0.012734	99
Es	2.341551	0.441662	0.871246	99
Es	1.338432	1.362499	-0.607943	99
Es	-0.905749	-0.878092	-0.014521	99
Es	-0.389901	0.521088	-0.427188	99
Es	-1.662690	-0.873695	-0.059320	99
49
Properties=species:S:1:pos:R:3:Z:I:1 energy=-326.33320840088385 field_type=dipole dipole="0.000000 0.000000 0.000000" charge=0
C	-0.389454	-2.001484	-0.905580	6
C	-0.905854	-0.878064	-0.014691	6
O	-0.556824	-1.179104	1.334700	8
C	-0.389934	0.521066	-0.427220	6
C	-1.057014	1.608326	0.426849	6
C	1.147235	0.659576	-0.392420	6
N	1.728106	0.380396	0.922369	7
H	-0.609104	-1.807714	-1.959930	1
H	-0.860054	-2.950264	-0.623330	1
H	0.688776	-2.150534	-0.786560	1
H	-2.000794	-0.881324	-0.066481	1
H	0.384356	-0.912284	1.433900	1
H	-0.701904	0.695596	-1.466120	1
H	-0.833904	1.493396	1.492319	1
H	-2.145644	1.573406	0.309229	1
H	-0.723284	2.604326	0.116159	1
H	1.434096	1.672746	-0.698510	1
H	1.595086	-0.022434	-1.122940	1
H	1.450976	1.118766	1.573680	1
H	2.745145	0.455606	0.854580	1
Es	0.350327	-2.090313	-0.826139	99
Es	-0.724331	-0.993042	1.502646	99
Es	1.455995	0.191387	-0.886775	99
Es	-1.662709	-0.873762	-0.059317	99
Es	-1.056997	1.608316	0.426830	99
Es	-0.821122	2.288127	0.210440	99
Es	1.479577	0.515382	0.361193	99
Es	-0.389451	-2.001476	-0.905599	99
Es	-0.905748	-0.878091	-0.014524	99
Es	-0.671062	-1.062257	0.813844	99
Es	-0.716129	-2.642103	-0.716398	99
Es	-0.389901	0.521088	-0.427189	99
Es	-0.626227	-0.171322	-0.223462	99
Es	-0.068850	-1.037089	1.375344	99
Es	-0.632694	-1.439714	-0.482560	99
Es	1.621697	0.052419	1.053492	99
Es	-1.800261	1.580565	0.343347	99
Es	1.147270	0.659539	-0.392264	99
Es	2.341557	0.441992	0.871434	99
Es	-0.540845	-1.861189	-1.628392	99
Es	1.562609	0.833912	1.298646	99
Es	1.728240	0.380868	0.922187	99
Es	-0.600486	0.639226	-1.141374	99
Es	-0.718447	1.067297	0.012712	99
Es	-0.579222	-1.477079	1.363474	99
Es	1.338469	1.362510	-0.608018	99
Es	0.385819	0.580783	-0.391469	99
Es	-0.556581	-1.179054	1.334393	99
Es	-0.893962	1.531645	1.147206	99
49
Properties=species:S:1:pos:R:3:Z:I:1 energy=-326.33320840088385 field_type=dipole dipole="0.000000 0.000000 0.000000" charge=0
C	-0.389454	-2.001484	-0.905580	6
C	-0.905854	-0.878064	-0.014691	6
O	-0.556824	-1.179104	1.334700	8
C	-0.389934	0.521066	-0.427220	6
C	-1.057014	1.608326	0.426849	6
C	1.147235	0.659576	-0.392420	6
N	1.728106	0.380396	0.922369	7
H	-0.609104	-1.807714	-1.959930	1
H	-0.860054	-2.950264	-0.623330	1
H	0.688776	-2.150534	-0.786560	1
H	-2.000794	-0.881324	-0.066481	1
H	0.384356	-0.912284	1.433900	1
H	-0.701904	0.695596	-1.466120	1
H	-0.833904	1.493396	1.492319	1
H	-2.145644	1.573406	0.309229	1
H	-0.723284	2.604326	0.116159	1
H	1.434096	1.672746	-0.698510	1
H	1.595086	-0.022434	-1.122940	1
H	1.450976	1.118766	1.573680	1
H	2.745145	0.455606	0.854580	1
Es	-0.718457	1.067248	0.012900	99
Es	-0.716098	-2.642132	-0.716309	99
Es	-0.724049	-0.993098	1.503216	99
Es	-0.626157	-0.171250	-0.223508	99
Es	1.456090	0.191410	-0.886757	99
Es	-1.662746	-0.873839	-0.059368	99
Es	-0.632685	-1.439679	-0.482536	99
Es	-0.068977	-1.036944	1.374529	99
Es	1.562553	0.834021	1.298544	99
Es	-0.540941	-1.861236	-1.628340	99
Es	0.385818	0.580759	-0.391521	99
Es	-0.556575	-1.178948	1.334514	99
Es	-0.389901	0.521088	-0.427188	99
Es	1.728251	0.380886	0.922182	99
Es	-1.056997	1.608316	0.426829	99
Es	-0.821029	2.288088	0.210365	99
Es	1.479179	0.514742	0.361101	99
Es	1.338459	1.362488	-0.607975	99
Es	1.622255	0.052542	1.053887	99