46
Properties=species:S:1:pos:R:3:Z:I:1 energy=-325.14184857289615 field_type=dipole dipole="0.000000 0.000000 0.000000" charge=0
C	-0.369050	-1.682993	-1.245743	6
C	-0.934490	-0.711633	-0.216953	6
O	-0.802180	-1.286973	1.091326	8
C	-0.296600	0.712547	-0.258033	6
N	-0.950500	1.561757	0.751277	7
C	1.208301	0.701397	-0.072943	6
C	1.917730	1.283287	0.905817	6
H	-0.446610	-1.276413	-2.258133	1
H	-0.921610	-2.628373	-1.209443	1
H	0.675120	-1.933293	-1.038153	1
H	-2.011400	-0.615153	-0.401833	1
H	0.142300	-1.238573	1.327827	1
H	-0.493300	1.153467	-1.242823	1
H	-1.003550	1.012237	1.613147	1
H	-1.925200	1.692587	0.481747	1
H	1.768470	0.180197	-0.847453	1
H	1.441570	1.852357	1.699047	1
H	3.000990	1.223567	0.921327	1
Es	-0.291535	-1.255012	1.197217	99
Es	-0.677915	1.175639	0.314871	99
Es	-0.982681	1.225595	1.258933	99
Es	1.578222	1.254390	0.248541	99
Es	1.539524	0.704205	0.606020	99
Es	-0.369048	-1.682973	-1.245747	99
Es	1.917780	1.283310	0.905879	99
Es	-0.421634	-1.397380	-1.934435	99
Es	-0.950771	1.561247	0.751192	99
Es	-0.425889	1.004919	-0.930802	99
Es	0.344750	-1.841719	-1.100409	99
Es	-1.541370	1.619100	0.579067	99
Es	0.462943	0.696921	-0.145891	99
Es	1.578087	0.339666	-0.604324	99
Es	-0.785663	1.876248	0.794236	99
Es	1.208218	0.701335	-0.073023	99
Es	-0.584929	-0.006016	-0.242411	99
Es	-0.634031	-1.194808	-0.744664	99
Es	-1.672564	-0.636167	-0.345329	99
Es	-0.945867	-1.094980	1.286450	99
Es	1.607524	1.661418	1.445002	99
Es	-0.748666	-2.318468	-1.222500	99
Es	-0.934407	-0.711724	-0.216758	99
Es	2.651921	1.242691	0.918941	99
Es	-0.825446	-1.062688	0.599822	99
Es	-0.296609	0.712591	-0.257916	99
Es	-0.801916	-1.286868	1.091127	99
Es	-0.876033	-1.581652	1.063040	99
46
Properties=species:S:1:pos:R:3:Z:I:1 energy=-325.14184857289615 field_type=dipole dipole="0.000000 0.000000 0.000000" charge=0
C	-0.369050	-1.682993	-1.245743	6
C	-0.934490	-0.711633	-0.216953	6
O	-0.802180	-1.286973	1.091326	8
C	-0.296600	0.712547	-0.258033	6
N	-0.950500	1.561757	0.751277	7
C	1.208301	0.701397	-0.072943	6
C	1.917730	1.283287	0.905817	6
H	-0.446610	-1.276413	-2.258133	1
H	-0.921610	-2.628373	-1.209443	1
H	0.675120	-1.933293	-1.038153	1
H	-2.011400	-0.615153	-0.401833	1
H	0.142300	-1.238573	1.327827	1
H	-0.493300	1.153467	-1.242823	1
H	-1.003550	1.012237	1.613147	1
H	-1.925200	1.692587	0.481747	1
H	1.768470	0.180197	-0.847453	1
H	1.441570	1.852357	1.699047	1
H	3.000990	1.223567	0.921327	1
Es	1.578347	1.255627	0.247722	99
Es	-0.749178	-2.318100	-1.222151	99
Es	-0.422217	-1.396952	-1.934466	99
Es	1.539793	0.703342	0.606536	99
Es	-0.801917	-1.286867	1.091134	99
Es	-0.369049	-1.682973	-1.245747	99
Es	1.208219	0.701324	-0.073016	99
Es	-0.633933	-1.195090	-0.744678	99
Es	-0.949088	-1.102950	1.279028	99
Es	-0.296609	0.712588	-0.257918	99
Es	-0.827725	-1.064896	0.597452	99
Es	-0.679935	1.174603	0.317220	99
Es	1.577529	0.341020	-0.603584	99
Es	-0.934405	-0.711726	-0.216756	99
Es	-0.426686	1.005071	-0.930943	99
Es	-0.871815	-1.579863	1.064678	99
Es	1.607833	1.660039	1.444623	99
Es	0.463243	0.696701	-0.146377	99
Es	-0.584708	-0.005494	-0.242741	99
Es	-1.543191	1.617223	0.578677	99
Es	-0.289924	-1.246653	1.205369	99
Es	1.917782	1.283303	0.905884	99
Es	-1.673259	-0.636409	-0.345851	99
Es	-0.784325	1.877007	0.790603	99
Es	2.652357	1.242334	0.919973	99
Es	-0.950739	1.561281	0.751191	99
Es	0.345548	-1.841679	-1.099922	99
Es	-0.979956	1.227005	1.260189	99
46
Properties=species:S:1:pos:R:3:Z:I:1 energy=-325.14184857289615 field_type=dipole dipole="0.000000 0.000000 0.000000" charge=0
C	-0.369050	-1.682993	-1.245743	6
C	-0.934490	-0.711633	-0.216953	6
O	-0.802180	-1.286973	1.091326	8
C	-0.296600	0.712547	-0.258033	6
N	-0.950500	1.561757	0.751277	7
C	1.208301	0.701397	-0.072943	6
C	1.917730	1.283287	0.905817	6
H	-0.446610	-1.276413	-2.258133	1
H	-0.921610	-2.628373	-1.209443	1
H	0.675120	-1.933293	-1.038153	1
H	-2.011400	-0.615153	-0.401833	1
H	0.142300	-1.238573	1.327827	1
H	-0.493300	1.153467	-1.242823	1
H	-1.003550	1.012237	1.613147	1
H	-1.925200	1.692587	0.481747	1
H	1.768470	0.180197	-0.847453	1
H	1.441570	1.852357	1.699047	1
H	3.000990	1.223567	0.921327	1
Es	1.539995	0.703125	0.606594	99
Es	-0.978899	1.227931	1.260097	99
Es	2.652488	1.242140	0.920493	99
Es	-0.801900	-1.286716	1.091156	99
Es	-0.950783	1.561241	0.751182	99
Es	1.208213	0.701324	-0.073021	99
Es	-0.876033	-1.577702	1.073425	99
Es	-0.681864	1.173262	0.318809	99
Es	-1.673624	-0.636531	-0.346180	99
Es	0.463468	0.696425	-0.146607	99
Es	-0.782414	1.877973	0.788791	99
Es	-1.544113	1.616258	0.578793	99
Es	-0.829624	-1.070836	0.593885	99
Es	1.917783	1.283311	0.905883	99
Es	-0.584433	-0.005067	-0.242888	99
Es	-0.427265	1.005011	-0.931111	99
Es	-0.749308	-2.317823	-1.222025	99
Es	-0.369049	-1.682973	-1.245747	99
Es	1.578430	1.256165	0.247413	99
Es	1.577375	0.341758	-0.603175	99
Es	-0.634040	-1.195099	-0.744658	99
Es	0.345997	-1.841646	-1.099634	99
Es	-0.934411	-0.711722	-0.216757	99
Es	-0.288838	-1.243157	1.209864	99
Es	1.607868	1.659290	1.444591	99
Es	-0.422508	-1.396929	-1.934465	99
Es	-0.943907	-1.102783	1.269338	99
Es	-0.296609	0.712589	-0.257918	99
46
Properties=species:S:1:pos:R:3:Z:I:1 energy=-325.14184857289615 field_type=dipole dipole="0.000000 0.000000 0.000000" charge=0
C	-0.369050	-1.682993	-1.245743	6
C	-0.934490	-0.711633	-0.216953	6
O	-0.802180	-1.286973	1.091326	8
C	-0.296600	0.712547	-0.258033	6
N	-0.950500	1.561757	0.751277	7
C	1.208301	0.701397	-0.072943	6
C	1.917730	1.283287	0.905817	6
H	-0.446610	-1.276413	-2.258133	1
H	-0.921610	-2.628373	-1.209443	1
H	0.675120	-1.933293	-1.038153	1
H	-2.011400	-0.615153	-0.401833	1
H	0.142300	-1.238573	1.327827	1
H	-0.493300	1.153467	-1.242823	1
H	-1.003550	1.012237	1.613147	1
H	-1.925200	1.692587	0.481747	1
H	1.768470	0.180197	-0.847453	1
H	1.441570	1.852357	1.699047	1
H	3.000990	1.223567	0.921327	1
Es	-0.977419	1.229311	1.260479	99
Es	-0.943933	-1.107030	1.263295	99
Es	-0.584353	-0.004774	-0.242971	99
Es	0.463640	0.696059	-0.146884	99
Es	-0.422761	-1.397064	-1.934494	99
Es	0.346177	-1.841658	-1.099692	99
Es	-0.830813	-1.074210	0.591989	99
Es	-0.682242	1.173088	0.320681	99
Es	-0.369049	-1.682974	-1.245747	99
Es	1.208211	0.701329	-0.073025	99
Es	-0.874031	-1.575944	1.075703	99
Es	-0.634002	-1.194901	-0.744444	99
Es	1.577367	0.342128	-0.602744	99
Es	-0.801926	-1.286850	1.091125	99
Es	-0.950710	1.561353	0.751195	99
Es	-0.289442	-1.237060	1.215507	99
Es	1.540056	0.703212	0.606565	99
Es	-1.673904	-0.636642	-0.346388	99
Es	2.652623	1.241997	0.920916	99
Es	-0.782581	1.879261	0.786832	99
Es	-0.934409	-0.711722	-0.216757	99
Es	1.578495	1.256554	0.247206	99
Es	1.607770	1.658782	1.444538	99
Es	-1.545038	1.613410	0.578347	99
Es	-0.427629	1.004923	-0.931202	99
Es	-0.296610	0.712589	-0.257917	99
Es	-0.749274	-2.317655	-1.221869	99
Es	1.917782	1.283308	0.905882	99
46
Properties=species:S:1:pos:R:3:Z:I:1 energy=-325.14184857289615 field_type=dipole dipole="0.000000 0.000000 0.000000" charge=0
C	-0.369050	-1.682993	-1.245743	6
C	-0.934490	-0.711633	-0.216953	6
O	-0.802180	-1.286973	1.091326	8
C	-0.296600	0.712547	-0.258033	6
N	-0.950500	1.561757	0.751277	7
C	1.208301	0.701397	-0.072943	6
C	1.917730	1.283287	0.905817	6
H	-0.446610	-1.276413	-2.258133	1
H	-0.921610	-2.628373	-1.209443	1
H	0.675120	-1.933293	-1.038153	1
H	-2.011400	-0.615153	-0.401833	1
H	0.142300	-1.238573	1.327827	1
H	-0.493300	1.153467	-1.242823	1
H	-1.003550	1.012237	1.613147	1
H	-1.925200	1.692587	0.481747	1
H	1.768470	0.180197	-0.847453	1
H	1.441570	1.852357	1.699047	1
H	3.000990	1.223567	0.921327	1
Es	-0.976638	1.230543	1.260795	99
Es	-0.934410	-0.711721	-0.216757	99
Es	0.346338	-1.841511	-1.099459	99
Es	-0.290157	-1.232874	1.220120	99
Es	-0.749434	-2.317723	-1.221992	99
Es	-0.682929	1.172218	0.321537	99
Es	0.463783	0.695837	-0.147062	99
Es	1.540072	0.703175	0.606635	99
Es	1.577487	0.342343	-0.602328	99
Es	-0.942613	-1.108889	1.257189	99
Es	-0.422673	-1.397021	-1.934321	99
Es	-0.873420	-1.571880	1.080145	99
Es	1.578514	1.256812	0.247070	99
Es	1.917782	1.283309	0.905880	99
Es	-0.634125	-1.194876	-0.744510	99
Es	1.607728	1.658588	1.444516	99
Es	-0.296609	0.712588	-0.257918	99
Es	-0.950764	1.561269	0.751187	99
Es	-0.782217	1.879769	0.785411	99
Es	-1.545471	1.612333	0.578400	99
Es	-0.369050	-1.682974	-1.245747	99
Es	-0.584235	-0.004525	-0.243085	99
Es	-0.801884	-1.286864	1.091075	99
Es	1.208212	0.701335	-0.073028	99
Es	-0.832009	-1.080524	0.589017	99
Es	-1.674035	-0.636788	-0.346543	99
Es	-0.427828	1.004906	-0.931268	99
Es	2.652579	1.241962	0.921169	99
46
Properties=species:S:1:pos:R:3:Z:I:1 energy=-325.14184857289615 field_type=dipole dipole="0.000000 0.000000 0.000000" charge=0
C	-0.369050	-1.682993	-1.245743	6
C	-0.934490	-0.711633	-0.216953	6
O	-0.802180	-1.286973	1.091326	8
C	-0.296600	0.712547	-0.258033	6
N	-0.950500	1.561757	0.751277	7
C	1.208301	0.701397	-0.072943	6
C	1.917730	1.283287	0.905817	6
H	-0.446610	-1.276413	-2.258133	1
H	-0.921610	-2.628373	-1.209443	1
H	0.675120	-1.933293	-1.038153	1
H	-2.011400	-0.615153	-0.401833	1
H	0.142300	-1.238573	1.327827	1
H	-0.493300	1.153467	-1.242823	1
H	-1.003550	1.012237	1.613147	1
H	-1.925200	1.692587	0.481747	1
H	1.768470	0.180197	-0.847453	1
H	1.441570	1.852357	1.699047	1
H	3.000990	1.223567	0.921327	1
Es	-0.801937	-1.286845	1.091213	99
Es	-0.584181	-0.004244	-0.243146	99
Es	-0.749336	-2.317600	-1.222073	99
Es	1.208213	0.701335	-0.073027	99
Es	-0.976607	1.230670	1.259915	99
Es	1.607714	1.658426	1.444537	99
Es	-0.871770	-1.567515	1.083438	99
Es	-0.941023	-1.111936	1.251629	99
Es	-0.934408	-0.711723	-0.216755	99
Es	-0.683330	1.172124	0.322488	99
Es	-0.634282	-1.194560	-0.744325	99
Es	2.652570	1.242031	0.921237	99
Es	-1.545841	1.611148	0.578297	99
Es	-0.428033	1.004723	-0.931263	99
Es	-0.781501	1.880880	0.785486	99
Es	1.577556	0.342682	-0.601993	99
Es	1.917784	1.283312	0.905881	99
Es	1.578476	1.256927	0.247073	99
Es	-0.833547	-1.086336	0.586290	99
Es	-0.950757	1.561258	0.751180	99
Es	-1.674235	-0.636990	-0.346704	99
Es	-0.296609	0.712589	-0.257921	99
Es	-0.369051	-1.682974	-1.245746	99
Es	-0.422675	-1.397246	-1.934264	99
Es	1.540134	0.703029	0.606694	99
Es	-0.291695	-1.228316	1.224876	99
Es	0.346463	-1.841522	-1.099403	99
Es	0.463901	0.695490	-0.147488	99
46
Properties=species:S:1:pos:R:3:Z:I:1 energy=-325.14184857289615 field_type=dipole dipole="0.000000 0.000000 0.000000" charge=0
C	-0.369050	-1.682993	-1.245743	6
C	-0.934490	-0.711633	-0.216953	6
O	-0.802180	-1.286973	1.091326	8
C	-0.296600	0.712547	-0.258033	6
N	-0.950500	1.561757	0.751277	7
C	1.208301	0.701397	-0.072943	6
C	1.917730	1.283287	0.905817	6
H	-0.446610	-1.276413	-2.258133	1
H	-0.921610	-2.628373	-1.209443	1
H	0.675120	-1.933293	-1.038153	1
H	-2.011400	-0.615153	-0.401833	1
H	0.142300	-1.238573	1.327827	1
H	-0.493300	1.153467	-1.242823	1
H	-1.003550	1.012237	1.613147	1
H	-1.925200	1.692587	0.481747	1
H	1.768470	0.180197	-0.847453	1
H	1.441570	1.852357	1.699047	1
H	3.000990	1.223567	0.921327	1
Es	1.578589	1.256858	0.247049	99
Es	-0.634154	-1.194447	-0.744126	99
Es	-0.422664	-1.397261	-1.934186	99
Es	-0.369050	-1.682973	-1.245747	99
Es	-0.873241	-1.563633	1.088585	99
Es	-0.950790	1.561247	0.751169	99
Es	-0.937081	-1.112618	1.245379	99
Es	-0.934408	-0.711722	-0.216756	99
Es	-0.683767	1.171640	0.323356	99
Es	-0.583971	-0.004106	-0.243064	99
Es	1.607648	1.658598	1.444496	99
Es	-0.835059	-1.092770	0.584249	99
Es	-0.749480	-2.317501	-1.222104	99
Es	-1.674325	-0.636956	-0.346812	99
Es	-0.292715	-1.225059	1.228029	99
Es	-0.296608	0.712588	-0.257918	99
Es	0.464000	0.695288	-0.147631	99
Es	-0.801899	-1.286749	1.091148	99
Es	1.917785	1.283313	0.905881	99
Es	-0.428287	1.004558	-0.931363	99
Es	1.577626	0.342721	-0.601786	99
Es	1.208211	0.701335	-0.073028	99
Es	2.652513	1.241991	0.921316	99
Es	-0.975733	1.231929	1.260304	99
Es	1.540101	0.703078	0.606720	99
Es	-0.781395	1.880946	0.784119	99
Es	-1.546305	1.610238	0.578363	99
Es	0.346452	-1.841715	-1.099515	99
46
Properties=species:S:1:pos:R:3:Z:I:1 energy=-325.14184857289615 field_type=dipole dipole="0.000000 0.000000 0.000000" charge=0
C	-0.369050	-1.682993	-1.245743	6
C	-0.934490	-0.711633	-0.216953	6
O	-0.802180	-1.286973	1.091326	8
C	-0.296600	0.712547	-0.258033	6
N	-0.950500	1.561757	0.751277	7
C	1.208301	0.701397	-0.072943	6
C	1.917730	1.283287	0.905817	6
H	-0.446610	-1.276413	-2.258133	1
H	-0.921610	-2.628373	-1.209443	1
H	0.675120	-1.933293	-1.038153	1
H	-2.011400	-0.615153	-0.401833	1
H	0.142300	-1.238573	1.327827	1
H	-0.493300	1.153467	-1.242823	1
H	-1.003550	1.012237	1.613147	1
H	-1.925200	1.692587	0.481747	1
H	1.768470	0.180197	-0.847453	1
H	1.441570	1.852357	1.699047	1
H	3.000990	1.223567	0.921327	1
Es	-0.428508	1.004400	-0.931429	99
Es	-0.780694	1.881808	0.784726	99
Es	-0.369050	-1.682973	-1.245747	99
Es	-0.976234	1.231772	1.259334	99
Es	-0.583896	-0.003897	-0.243004	99
Es	1.607601	1.658506	1.444533	99
Es	0.346561	-1.841596	-1.099577	99
Es	-0.836648	-1.099291	0.582216	99
Es	-0.749436	-2.317586	-1.222253	99
Es	2.652493	1.242003	0.921383	99
Es	-0.634320	-1.194347	-0.744094	99
Es	-0.296609	0.712587	-0.257916	99
Es	-0.801979	-1.286882	1.091179	99
Es	1.577674	0.342770	-0.601548	99
Es	-1.546464	1.609512	0.577951	99
Es	-0.683848	1.171530	0.324005	99
Es	0.464128	0.695281	-0.147783	99
Es	-0.422671	-1.397346	-1.933978	99
Es	1.917785	1.283307	0.905885	99
Es	-0.294458	-1.221740	1.231746	99
Es	-0.934184	-1.114440	1.240259	99
Es	-0.950780	1.561249	0.751174	99
Es	1.540069	0.703113	0.606732	99
Es	1.208215	0.701331	-0.073025	99
Es	-1.674351	-0.637059	-0.346810	99
Es	1.578653	1.256934	0.246996	99
Es	-0.872646	-1.558405	1.091925	99
Es	-0.934409	-0.711724	-0.216753	99
46
Properties=species:S:1:pos:R:3:Z:I:1 energy=-325.14184857289615 field_type=dipole dipole="0.000000 0.000000 0.000000" charge=0
C	-0.369050	-1.682993	-1.245743	6
C	-0.934490	-0.711633	-0.216953	6
O	-0.802180	-1.286973	1.091326	8
C	-0.296600	0.712547	-0.258033	6
N	-0.950500	1.561757	0.751277	7
C	1.208301	0.701397	-0.072943	6
C	1.917730	1.283287	0.905817	6
H	-0.446610	-1.276413	-2.258133	1
H	-0.921610	-2.628373	-1.209443	1
H	0.675120	-1.933293	-1.038153	1
H	-2.011400	-0.615153	-0.401833	1
H	0.142300	-1.238573	1.327827	1
H	-0.493300	1.153467	-1.242823	1
H	-1.003550	1.012237	1.613147	1
H	-1.925200	1.692587	0.481747	1
H	1.768470	0.180197	-0.847453	1
H	1.441570	1.852357	1.699047	1
H	3.000990	1.223567	0.921327	1
Es	1.917784	1.283308	0.905883	99
Es	-1.546793	1.608595	0.577954	99
Es	1.578651	1.257018	0.246938	99
Es	-0.684144	1.171644	0.324598	99
Es	-0.838904	-1.102648	0.581231	99
Es	-0.934409	-0.711722	-0.216757	99
Es	-0.780667	1.882132	0.784076	99
Es	1.208214	0.701334	-0.073028	99
Es	-0.950790	1.561215	0.751175	99
Es	-0.428501	1.004407	-0.931281	99
Es	-1.674459	-0.637172	-0.346910	99
Es	-0.297253	-1.215966	1.235596	99
Es	1.540176	0.703132	0.606699	99
Es	-0.935938	-1.120838	1.239365	99
Es	-0.749468	-2.317608	-1.222191	99
Es	-0.634303	-1.194200	-0.744072	99
Es	-0.422703	-1.397437	-1.933940	99
Es	0.464183	0.695034	-0.147894	99
Es	-0.296608	0.712588	-0.257919	99
Es	-0.802148	-1.286890	1.091347	99
Es	-0.975624	1.232236	1.259352	99
Es	-0.369049	-1.682973	-1.245747	99
Es	1.577649	0.342823	-0.601283	99
Es	2.652493	1.241982	0.921463	99
Es	-0.583881	-0.003801	-0.243053	99
Es	-0.865710	-1.554429	1.089614	99
Es	0.346626	-1.841515	-1.099553	99
Es	1.607572	1.658569	1.444464	99
46
Properties=species:S:1:pos:R:3:Z:I:1 energy=-325.14184857289615 field_type=dipole dipole="0.000000 0.000000 0.000000" charge=0
C	-0.369050	-1.682993	-1.245743	6
C	-0.934490	-0.711633	-0.216953	6
O	-0.802180	-1.286973	1.091326	8
C	-0.296600	0.712547	-0.258033	6
N	-0.950500	1.561757	0.751277	7
C	1.208301	0.701397	-0.072943	6
C	1.917730	1.283287	0.905817	6
H	-0.446610	-1.276413	-2.258133	1
H	-0.921610	-2.628373	-1.209443	1
H	0.675120	-1.933293	-1.038153	1
H	-2.011400	-0.615153	-0.401833	1
H	0.142300	-1.238573	1.327827	1
H	-0.493300	1.153467	-1.242823	1
H	-1.003550	1.012237	1.613147	1
H	-1.925200	1.692587	0.481747	1
H	1.768470	0.180197	-0.847453	1
H	1.441570	1.852357	1.699047	1
H	3.000990	1.223567	0.921327	1
Es	-0.428586	1.004330	-0.931383	99
Es	-0.749635	-2.317662	-1.222321	99
Es	-0.684373	1.171573	0.325020	99
Es	-0.780608	1.882734	0.783521	99
Es	1.577730	0.342987	-0.600881	99
Es	-0.975452	1.232551	1.259437	99
Es	2.652438	1.241949	0.921431	99
Es	1.578707	1.257127	0.246882	99
Es	0.346587	-1.841560	-1.099538	99
Es	1.208214	0.701334	-0.073027	99
Es	-0.422540	-1.397421	-1.933789	99
Es	0.464166	0.694832	-0.148183	99
Es	-0.801919	-1.286855	1.091132	99
Es	-0.866727	-1.549218	1.093344	99
Es	-0.934410	-0.711721	-0.216757	99
Es	-0.950798	1.561250	0.751168	99
Es	1.607625	1.658586	1.444517	99
Es	1.540065	0.703120	0.606784	99
Es	1.917782	1.283307	0.905886	99
Es	-0.840795	-1.109450	0.580239	99
Es	-0.296609	0.712587	-0.257915	99
Es	-0.297489	-1.215120	1.236286	99
Es	-1.674405	-0.637248	-0.346913	99
Es	-0.932950	-1.120054	1.236203	99
Es	-0.583970	-0.003726	-0.243008	99
Es	-0.369045	-1.682978	-1.245748	99
Es	-0.634294	-1.194110	-0.744100	99
Es	-1.546715	1.607672	0.577843	99
46
Properties=species:S:1:pos:R:3:Z:I:1 energy=-325.14184857289615 field_type=dipole dipole="0.000000 0.000000 0.000000" charge=0
C	-0.369050	-1.682993	-1.245743	6
C	-0.934490	-0.711633	-0.216953	6
O	-0.802180	-1.286973	1.091326	8
C	-0.296600	0.712547	-0.258033	6
N	-0.950500	1.561757	0.751277	7
C	1.208301	0.701397	-0.072943	6
C	1.917730	1.283287	0.905817	6
H	-0.446610	-1.276413	-2.258133	1
H	-0.921610	-2.628373	-1.209443	1
H	0.675120	-1.933293	-1.038153	1
H	-2.011400	-0.615153	-0.401833	1
H	0.142300	-1.238573	1.327827	1
H	-0.493300	1.153467	-1.242823	1
H	-1.003550	1.012237	1.613147	1
H	-1.925200	1.692587	0.481747	1
H	1.768470	0.180197	-0.847453	1
H	1.441570	1.852357	1.699047	1
H	3.000990	1.223567	0.921327	1
Es	-0.369049	-1.682973	-1.245746	99
Es	-0.428696	1.004373	-0.931292	99
Es	-0.934409	-0.711722	-0.216757	99
Es	1.578885	1.257228	0.246727	99
Es	-0.862362	-1.545735	1.091145	99
Es	-0.684727	1.171174	0.325785	99
Es	-0.934047	-1.124548	1.235672	99
Es	1.540056	0.703006	0.606847	99
Es	-0.975580	1.232818	1.258982	99
Es	-0.779889	1.883077	0.783403	99
Es	-0.842019	-1.111651	0.579801	99
Es	-0.749554	-2.317706	-1.222285	99
Es	-0.950796	1.561233	0.751180	99
Es	1.607574	1.658579	1.444428	99
Es	-0.299572	-1.211918	1.239258	99
Es	0.464267	0.694739	-0.148313	99
Es	-1.546927	1.607342	0.577683	99
Es	-0.801913	-1.286793	1.091209	99
Es	-1.674476	-0.637343	-0.346998	99
Es	-0.422651	-1.397421	-1.933785	99
Es	1.917784	1.283306	0.905885	99
Es	1.577650	0.342995	-0.600688	99
Es	-0.583892	-0.003616	-0.243087	99
Es	-0.634300	-1.194103	-0.743956	99
Es	2.652400	1.242019	0.921567	99
Es	0.346632	-1.841463	-1.099592	99
Es	1.208212	0.701335	-0.073028	99
Es	-0.296609	0.712588	-0.257919	99
46
Properties=species:S:1:pos:R:3:Z:I:1 energy=-325.14184857289615 field_type=dipole dipole="0.000000 0.000000 0.000000" charge=0
C	-0.369050	-1.682993	-1.245743	6
C	-0.934490	-0.711633	-0.216953	6
O	-0.802180	-1.286973	1.091326	8
C	-0.296600	0.712547	-0.258033	6
N	-0.950500	1.561757	0.751277	7
C	1.208301	0.701397	-0.072943	6
C	1.917730	1.283287	0.905817	6
H	-0.446610	-1.276413	-2.258133	1
H	-0.921610	-2.628373	-1.209443	1
H	0.675120	-1.933293	-1.038153	1
H	-2.011400	-0.615153	-0.401833	1
H	0.142300	-1.238573	1.327827	1
H	-0.493300	1.153467	-1.242823	1
H	-1.003550	1.012237	1.613147	1
H	-1.925200	1.692587	0.481747	1
H	1.768470	0.180197	-0.847453	1
H	1.441570	1.852357	1.699047	1
H	3.000990	1.223567	0.921327	1
Es	-0.296610	0.712588	-0.257917	99
Es	-0.428713	1.004278	-0.931347	99
Es	-0.974967	1.233413	1.259445	99
Es	-0.634415	-1.194024	-0.743921	99
Es	-1.547089	1.606739	0.577701	99
Es	-0.865099	-1.543210	1.094272	99
Es	-0.950774	1.561251	0.751165	99
Es	-1.674499	-0.637251	-0.346972	99
Es	-0.583876	-0.003615	-0.243103	99
Es	0.464274	0.694598	-0.148322	99
Es	1.208211	0.701331	-0.073025	99
Es	2.652363	1.241985	0.921465	99
Es	-0.780453	1.882972	0.782721	99
Es	1.577748	0.342987	-0.600545	99
Es	-0.801933	-1.286862	1.091163	99
Es	1.607604	1.658609	1.444537	99
Es	-0.300907	-1.210406	1.241586	99
Es	1.578853	1.257200	0.246776	99
Es	0.346724	-1.841535	-1.099683	99
Es	-0.934408	-0.711717	-0.216761	99
Es	-0.842581	-1.115660	0.579456	99
Es	-0.684697	1.171242	0.325947	99
Es	1.540027	0.703147	0.606799	99
Es	-0.749632	-2.317708	-1.222570	99
Es	1.917785	1.283309	0.905884	99
Es	-0.422563	-1.397450	-1.933485	99
Es	-0.369050	-1.682974	-1.245748	99
Es	-0.929328	-1.124420	1.230608	99
46
Properties=species:S:1:pos:R:3:Z:I:1 energy=-325.14184857289615 field_type=dipole dipole="0.000000 0.000000 0.000000" charge=0
C	-0.369050	-1.682993	-1.245743	6
C	-0.934490	-0.711633	-0.216953	6
O	-0.802180	-1.286973	1.091326	8
C	-0.296600	0.712547	-0.258033	6
N	-0.950500	1.561757	0.751277	7
C	1.208301	0.701397	-0.072943	6
C	1.917730	1.283287	0.905817	6
H	-0.446610	-1.276413	-2.258133	1
H	-0.921610	-2.628373	-1.209443	1
H	0.675120	-1.933293	-1.038153	1
H	-2.011400	-0.615153	-0.401833	1
H	0.142300	-1.238573	1.327827	1
H	-0.493300	1.153467	-1.242823	1
H	-1.003550	1.012237	1.613147	1
H	-1.925200	1.692587	0.481747	1
H	1.768470	0.180197	-0.847453	1
H	1.441570	1.852357	1.699047	1
H	3.000990	1.223567	0.921327	1
Es	-0.583621	-0.003436	-0.242832	99
Es	-0.422447	-1.397385	-1.933505	99
Es	-0.302412	-1.207565	1.242661	99
Es	1.607511	1.658555	1.444345	99
Es	1.578905	1.257279	0.246689	99
Es	-0.975258	1.233531	1.258805	99
Es	-0.369049	-1.682975	-1.245748	99
Es	-0.950781	1.561263	0.751159	99
Es	-1.674497	-0.637343	-0.347050	99
Es	-0.428870	1.004227	-0.931555	99
Es	1.577680	0.343092	-0.600399	99
Es	-0.749646	-2.317824	-1.222604	99
Es	-0.634428	-1.194006	-0.743864	99
Es	-0.779596	1.883555	0.782749	99
Es	0.464269	0.694633	-0.148388	99
Es	1.917784	1.283309	0.905884	99
Es	-0.934409	-0.711722	-0.216758	99
Es	-0.296609	0.712588	-0.257919	99
Es	-0.844823	-1.120198	0.578957	99
Es	-0.801930	-1.286897	1.091107	99
Es	-1.547212	1.606104	0.577293	99
Es	0.346628	-1.841446	-1.099595	99
Es	1.208211	0.701335	-0.073028	99
Es	-0.930495	-1.127456	1.231183	99
Es	-0.860292	-1.538516	1.093082	99
Es	2.652400	1.242093	0.921683	99
Es	1.540063	0.702945	0.606908	99
Es	-0.685082	1.171074	0.326866	99
46
Properties=species:S:1:pos:R:3:Z:I:1 energy=-325.14184857289615 field_type=dipole dipole="0.000000 0.000000 0.000000" charge=0
C	-0.369050	-1.682993	-1.245743	6
C	-0.934490	-0.711633	-0.216953	6
O	-0.802180	-1.286973	1.091326	8
C	-0.296600	0.712547	-0.258033	6
N	-0.950500	1.561757	0.751277	7
C	1.208301	0.701397	-0.072943	6
C	1.917730	1.283287	0.905817	6
H	-0.446610	-1.276413	-2.258133	1
H	-0.921610	-2.628373	-1.209443	1
H	0.675120	-1.933293	-1.038153	1
H	-2.011400	-0.615153	-0.401833	1
H	0.142300	-1.238573	1.327827	1
H	-0.493300	1.153467	-1.242823	1
H	-1.003550	1.012237	1.613147	1
H	-1.925200	1.692587	0.481747	1
H	1.768470	0.180197	-0.847453	1
H	1.441570	1.852357	1.699047	1
H	3.000990	1.223567	0.921327	1
Es	1.578980	1.257453	0.246581	99
Es	-0.685285	1.171048	0.326904	99
Es	-0.976634	1.232375	1.257306	99
Es	-0.634422	-1.193982	-0.743782	99
Es	1.917784	1.283308	0.905883	99
Es	-0.864524	-1.534286	1.096961	99
Es	-0.749415	-2.317645	-1.222327	99
Es	1.577715	0.343162	-0.600395	99
Es	-0.369050	-1.682974	-1.245747	99
Es	-0.422664	-1.397503	-1.933825	99
Es	-0.845106	-1.126148	0.578670	99
Es	-0.302710	-1.208230	1.244024	99
Es	-0.296609	0.712589	-0.257920	99
Es	1.539990	0.703042	0.606875	99
Es	-0.802243	-1.286979	1.091417	99
Es	1.208213	0.701333	-0.073026	99
Es	-0.950799	1.561219	0.751168	99
Es	-1.674539	-0.637379	-0.347125	99
Es	-0.778211	1.884172	0.784520	99
Es	2.652271	1.241914	0.921680	99
Es	-0.583578	-0.003361	-0.242818	99
Es	0.464319	0.694509	-0.148372	99
Es	0.346622	-1.841455	-1.099567	99
Es	-0.925337	-1.124966	1.225926	99
Es	1.607547	1.658460	1.444574	99
Es	-0.428882	1.004151	-0.931642	99
Es	-1.547031	1.606716	0.576939	99
Es	-0.934407	-0.711724	-0.216755	99
46
Properties=species:S:1:pos:R:3:Z:I:1 energy=-325.14184857289615 field_type=dipole dipole="0.000000 0.000000 0.000000" charge=0
C	-0.369050	-1.682993	-1.245743	6
C	-0.934490	-0.711633	-0.216953	6
O	-0.802180	-1.286973	1.091326	8
C	-0.296600	0.712547	-0.258033	6
N	-0.950500	1.561757	0.751277	7
C	1.208301	0.701397	-0.072943	6
C	1.917730	1.283287	0.905817	6
H	-0.446610	-1.276413	-2.258133	1
H	-0.921610	-2.628373	-1.209443	1
H	0.675120	-1.933293	-1.038153	1
H	-2.011400	-0.615153	-0.401833	1
H	0.142300	-1.238573	1.327827	1
H	-0.493300	1.153467	-1.242823	1
H	-1.003550	1.012237	1.613147	1
H	-1.925200	1.692587	0.481747	1
H	1.768470	0.180197	-0.847453	1
H	1.441570	1.852357	1.699047	1
H	3.000990	1.223567	0.921327	1
Es	1.578998	1.257459	0.246549	99
Es	-0.749749	-2.317812	-1.222681	99
Es	-0.861974	-1.531537	1.095850	99
Es	-0.303811	-1.206362	1.245130	99
Es	-0.778913	1.884026	0.783362	99
Es	-0.950798	1.561229	0.751165	99
Es	-0.634364	-1.194003	-0.743741	99
Es	-0.846854	-1.128093	0.578735	99
Es	1.577745	0.343180	-0.600168	99
Es	1.607630	1.658623	1.444511	99
Es	-0.801899	-1.286787	1.091208	99
Es	0.346615	-1.841536	-1.099692	99
Es	-1.547198	1.605896	0.576915	99
Es	-0.685298	1.171318	0.327282	99
Es	-0.925431	-1.127834	1.225994	99
Es	-0.583598	-0.003231	-0.242904	99
Es	1.539935	0.702933	0.607001	99
Es	1.917787	1.283308	0.905882	99
Es	-1.674476	-0.637400	-0.347066	99
Es	0.464335	0.694363	-0.148573	99
Es	2.652201	1.241921	0.921650	99
Es	-0.428865	1.004216	-0.931563	99
Es	-0.975715	1.232997	1.258143	99
Es	-0.296609	0.712588	-0.257919	99
Es	-0.422452	-1.397282	-1.933413	99
Es	-0.934410	-0.711721	-0.216758	99
Es	1.208213	0.701332	-0.073026	99
Es	-0.369050	-1.682974	-1.245747	99
46
Properties=species:S:1:pos:R:3:Z:I:1 energy=-325.14184857289615 field_type=dipole dipole="0.000000 0.000000 0.000000" charge=0
C	-0.369050	-1.682993	-1.245743	6
C	-0.934490	-0.711633	-0.216953	6
O	-0.802180	-1.286973	1.091326	8
C	-0.296600	0.712547	-0.258033	6
N	-0.950500	1.561757	0.751277	7
C	1.208301	0.701397	-0.072943	6
C	1.917730	1.283287	0.905817	6
H	-0.446610	-1.276413	-2.258133	1
H	-0.921610	-2.628373	-1.209443	1
H	0.675120	-1.933293	-1.038153	1
H	-2.011400	-0.615153	-0.401833	1
H	0.142300	-1.238573	1.327827	1
H	-0.493300	1.153467	-1.242823	1
H	-1.003550	1.012237	1.613147	1
H	-1.925200	1.692587	0.481747	1
H	1.768470	0.180197	-0.847453	1
H	1.441570	1.852357	1.699047	1
H	3.000990	1.223567	0.921327	1
Es	-0.934409	-0.711721	-0.216758	99
Es	-0.950761	1.561254	0.751158	99
Es	-0.749607	-2.317836	-1.222533	99
Es	-0.305048	-1.204873	1.246505	99
Es	-0.975842	1.233253	1.257897	99
Es	-0.924970	-1.128650	1.224815	99
Es	-0.296609	0.712588	-0.257918	99
Es	1.607624	1.658510	1.444419	99
Es	-0.847213	-1.131611	0.578744	99
Es	-0.801854	-1.286899	1.091058	99
Es	-0.422533	-1.397319	-1.933575	99
Es	0.464314	0.694375	-0.148761	99
Es	-0.860790	-1.528549	1.095846	99
Es	2.652237	1.241945	0.921778	99
Es	-0.634370	-1.193982	-0.743719	99
Es	1.577705	0.343268	-0.600038	99
Es	1.208212	0.701334	-0.073027	99
Es	1.539969	0.702871	0.607026	99
Es	-1.674511	-0.637389	-0.347084	99
Es	1.917785	1.283309	0.905883	99
Es	1.578993	1.257569	0.246485	99
Es	-1.547306	1.605555	0.576612	99
Es	-0.583689	-0.003422	-0.242947	99
Es	-0.778417	1.884252	0.783166	99
Es	0.346554	-1.841449	-1.099689	99
Es	-0.369050	-1.682974	-1.245747	99
Es	-0.685530	1.171163	0.328028	99
Es	-0.428889	1.004243	-0.931495	99
46
Properties=species:S:1:pos:R:3:Z:I:1 energy=-325.14184857289615 field_type=dipole dipole="0.000000 0.000000 0.000000" charge=0
C	-0.369050	-1.682993	-1.245743	6
C	-0.934490	-0.711633	-0.216953	6
O	-0.802180	-1.286973	1.091326	8
C	-0.296600	0.712547	-0.258033	6
N	-0.950500	1.561757	0.751277	7
C	1.208301	0.701397	-0.072943	6
C	1.917730	1.283287	0.905817	6
H	-0.446610	-1.276413	-2.258133	1
H	-0.921610	-2.628373	-1.209443	1
H	0.675120	-1.933293	-1.038153	1
H	-2.011400	-0.615153	-0.401833	1
H	0.142300	-1.238573	1.327827	1
H	-0.493300	1.153467	-1.242823	1
H	-1.003550	1.012237	1.613147	1
H	-1.925200	1.692587	0.481747	1
H	1.768470	0.180197	-0.847453	1
H	1.441570	1.852357	1.699047	1
H	3.000990	1.223567	0.921327	1
Es	-0.976622	1.232438	1.256812	99
Es	-0.777330	1.884933	0.784147	99
Es	-0.296609	0.712588	-0.257918	99
Es	-0.369050	-1.682973	-1.245747	99
Es	-0.950770	1.561239	0.751179	99
Es	-0.860441	-1.524812	1.096197	99
Es	-0.749574	-2.317747	-1.222410	99
Es	1.917784	1.283314	0.905880	99
Es	1.579030	1.257708	0.246409	99
Es	-0.801963	-1.286882	1.091139	99
Es	1.539949	0.702697	0.607121	99
Es	-0.634248	-1.193941	-0.743654	99
Es	2.652096	1.241927	0.921663	99
Es	-0.848739	-1.135093	0.578975	99
Es	-0.934409	-0.711722	-0.216757	99
Es	-1.547175	1.605710	0.576603	99
Es	1.208212	0.701335	-0.073027	99
Es	-0.428928	1.004229	-0.931723	99
Es	-0.923656	-1.128703	1.223990	99
Es	0.464298	0.694223	-0.148722	99
Es	1.577701	0.343450	-0.599835	99
Es	-0.422503	-1.397308	-1.933802	99
Es	1.607716	1.658560	1.444563	99
Es	-0.305050	-1.205064	1.246697	99
Es	-1.674492	-0.637471	-0.347114	99
Es	0.346399	-1.841553	-1.099637	99
Es	-0.583646	-0.003282	-0.242859	99
Es	-0.685987	1.171020	0.327957	99
46
Properties=species:S:1:pos:R:3:Z:I:1 energy=-325.14184857289615 field_type=dipole dipole="0.000000 0.000000 0.000000" charge=0
C	-0.369050	-1.682993	-1.245743	6
C	-0.934490	-0.711633	-0.216953	6
O	-0.802180	-1.286973	1.091326	8
C	-0.296600	0.712547	-0.258033	6
N	-0.950500	1.561757	0.751277	7
C	1.208301	0.701397	-0.072943	6
C	1.917730	1.283287	0.905817	6
H	-0.446610	-1.276413	-2.258133	1
H	-0.921610	-2.628373	-1.209443	1
H	0.675120	-1.933293	-1.038153	1
H	-2.011400	-0.615153	-0.401833	1
H	0.142300	-1.238573	1.327827	1
H	-0.493300	1.153467	-1.242823	1
H	-1.003550	1.012237	1.613147	1
H	-1.925200	1.692587	0.481747	1
H	1.768470	0.180197	-0.847453	1
H	1.441570	1.852357	1.699047	1
H	3.000990	1.223567	0.921327	1
Es	-0.306738	-1.202860	1.248378	99
Es	-0.422511	-1.397327	-1.933549	99
Es	-0.778056	1.884793	0.783631	99
Es	-0.428938	1.004195	-0.931676	99
Es	1.579152	1.257654	0.246377	99
Es	-0.923418	-1.131564	1.223524	99
Es	-1.547290	1.605007	0.576384	99
Es	0.346529	-1.841413	-1.099705	99
Es	-0.634287	-1.193886	-0.743642	99
Es	-0.934408	-0.711722	-0.216758	99
Es	1.539891	0.702849	0.607064	99
Es	-0.749654	-2.317890	-1.222515	99
Es	-0.802006	-1.286877	1.091198	99
Es	-0.685733	1.171675	0.328257	99
Es	1.607695	1.658628	1.444514	99
Es	1.577649	0.343317	-0.599805	99
Es	-0.583600	-0.003208	-0.242836	99