44
Properties=species:S:1:pos:R:3:Z:I:1 energy=-304.1265011758483 field_type=dipole dipole="0.000000 0.000000 0.000000" charge=0
C	-1.205649	-0.707359	-0.687381	6
N	-1.260969	0.779531	-0.583931	7
C	-0.021209	1.092091	0.182579	6
C	1.216861	0.711121	-0.662461	6
N	1.270361	-0.777149	-0.565641	7
C	0.019131	-1.093169	0.176579	6
C	-0.010469	-0.002819	1.232549	6
H	-1.104999	-1.028029	-1.729031	1
H	-2.124709	-1.135990	-0.272901	1
H	-2.069349	1.033141	-0.016461	1
H	-0.004979	2.115471	0.562779	1
H	2.129101	1.137380	-0.230381	1
H	1.134561	1.037060	-1.704731	1
H	2.069231	-1.033019	0.013649	1
H	-0.004599	-2.118519	0.551819	1
H	-0.909809	-0.023629	1.858829	1
H	0.877491	0.013891	1.874129	1
Es	-0.730114	0.921027	-0.240455	99
Es	-1.276109	0.945042	-0.904828	99
Es	0.004881	-1.798789	0.430548	99
Es	1.842646	1.005076	-0.359804	99
Es	-0.004935	-0.578319	0.757564	99
Es	1.744695	-0.918894	-0.191553	99
Es	-0.010471	-0.002817	1.232550	99
Es	0.604744	0.004567	1.670167	99
Es	-0.011898	1.796363	0.439873	99
Es	1.158178	0.938249	-1.369731	99
Es	-1.244747	0.130765	-0.618995	99
Es	-1.134553	-0.930851	-1.394375	99
Es	-0.592602	-0.926752	-0.266218	99
Es	1.254635	-0.127964	-0.596819	99
Es	-0.633382	-0.012772	1.659622	99
Es	-1.836313	-1.003116	-0.396882	99
Es	-1.205641	-0.707219	-0.687325	99
Es	1.291119	-0.939881	-0.887285	99
Es	1.216853	0.710981	-0.662406	99
Es	0.597358	0.928135	-0.250647	99
Es	-0.007540	0.574868	0.760828	99
Es	-1.260956	0.779235	-0.583338	99
Es	1.270332	-0.776868	-0.565078	99
Es	-0.021298	1.092035	0.182498	99
Es	0.019221	-1.093112	0.176499	99
Es	-1.741325	0.919264	-0.216630	99
Es	0.733964	-0.920886	-0.232838	99
44
Properties=species:S:1:pos:R:3:Z:I:1 energy=-304.1265011758483 field_type=dipole dipole="0.000000 0.000000 0.000000" charge=0
C	-1.205649	-0.707359	-0.687381	6
N	-1.260969	0.779531	-0.583931	7
C	-0.021209	1.092091	0.182579	6
C	1.216861	0.711121	-0.662461	6
N	1.270361	-0.777149	-0.565641	7
C	0.019131	-1.093169	0.176579	6
C	-0.010469	-0.002819	1.232549	6
H	-1.104999	-1.028029	-1.729031	1
H	-2.124709	-1.135990	-0.272901	1
H	-2.069349	1.033141	-0.016461	1
H	-0.004979	2.115471	0.562779	1
H	2.129101	1.137380	-0.230381	1
H	1.134561	1.037060	-1.704731	1
H	2.069231	-1.033019	0.013649	1
H	-0.004599	-2.118519	0.551819	1
H	-0.909809	-0.023629	1.858829	1
H	0.877491	0.013891	1.874129	1
Es	0.019224	-1.093112	0.176497	99
Es	-1.244748	0.130591	-0.618603	99
Es	0.597219	0.927999	-0.250912	99
Es	-0.010469	-0.002819	1.232549	99
Es	-0.004755	-0.578173	0.757658	99
Es	1.291514	-0.938235	-0.885291	99
Es	-0.021300	1.092035	0.182495	99
Es	1.158013	0.937877	-1.369130	99
Es	1.216854	0.710983	-0.662406	99
Es	0.004854	-1.798639	0.430637	99
Es	1.254545	-0.127798	-0.597620	99
Es	-1.742072	0.920180	-0.217746	99
Es	-1.276475	0.942662	-0.903516	99
Es	-0.592605	-0.926724	-0.266479	99
Es	-1.260952	0.779244	-0.583365	99
Es	1.843269	1.005433	-0.359858	99
Es	-1.205640	-0.707218	-0.687325	99
Es	-1.836844	-1.003455	-0.396944	99
Es	1.745395	-0.919468	-0.192184	99
Es	-0.011808	1.796398	0.440073	99
Es	1.270322	-0.776857	-0.565080	99
Es	-1.134336	-0.930536	-1.393917	99
Es	-0.729000	0.922564	-0.241119	99
Es	0.604948	0.004772	1.670228	99
Es	0.732964	-0.922097	-0.233588	99
Es	-0.633644	-0.013046	1.659565	99
Es	-0.007731	0.574806	0.760323	99
44
Properties=species:S:1:pos:R:3:Z:I:1 energy=-304.1265011758483 field_type=dipole dipole="0.000000 0.000000 0.000000" charge=0
C	-1.205649	-0.707359	-0.687381	6
N	-1.260969	0.779531	-0.583931	7
C	-0.021209	1.092091	0.182579	6
C	1.216861	0.711121	-0.662461	6
N	1.270361	-0.777149	-0.565641	7
C	0.019131	-1.093169	0.176579	6
C	-0.010469	-0.002819	1.232549	6
H	-1.104999	-1.028029	-1.729031	1
H	-2.124709	-1.135990	-0.272901	1
H	-2.069349	1.033141	-0.016461	1
H	-0.004979	2.115471	0.562779	1
H	2.129101	1.137380	-0.230381	1
H	1.134561	1.037060	-1.704731	1
H	2.069231	-1.033019	0.013649	1
H	-0.004599	-2.118519	0.551819	1
H	-0.909809	-0.023629	1.858829	1
H	0.877491	0.013891	1.874129	1
Es	-0.021300	1.092034	0.182496	99
Es	-0.007599	0.574704	0.760499	99
Es	-1.837122	-1.003628	-0.396787	99
Es	-1.260984	0.779265	-0.583376	99
Es	-1.276913	0.941310	-0.901843	99
Es	1.157863	0.937674	-1.368859	99
Es	-0.011768	1.796248	0.440115	99
Es	1.291885	-0.937091	-0.884221	99
Es	-0.592342	-0.926540	-0.266747	99
Es	0.732289	-0.922829	-0.234151	99
Es	-1.134463	-0.930379	-1.393561	99
Es	-0.633772	-0.012962	1.659613	99
Es	1.216853	0.710980	-0.662406	99
Es	1.254484	-0.127811	-0.597816	99
Es	0.004775	-1.798704	0.430753	99
Es	-1.244623	0.130628	-0.619447	99
Es	1.843587	1.005711	-0.359821	99
Es	-1.742683	0.920454	-0.217964	99
Es	-1.205641	-0.707216	-0.687325	99
Es	-0.004835	-0.578178	0.757238	99
Es	1.745797	-0.919753	-0.192443	99
Es	-0.728090	0.923546	-0.241978	99
Es	1.270313	-0.776874	-0.565147	99
Es	-0.010468	-0.002820	1.232548	99
Es	0.019222	-1.093112	0.176499	99
Es	0.597208	0.927992	-0.251112	99
Es	0.605069	0.004718	1.670186	99
44
Properties=species:S:1:pos:R:3:Z:I:1 energy=-304.1265011758483 field_type=dipole dipole="0.000000 0.000000 0.000000" charge=0
C	-1.205649	-0.707359	-0.687381	6
N	-1.260969	0.779531	-0.583931	7
C	-0.021209	1.092091	0.182579	6
C	1.216861	0.711121	-0.662461	6
N	1.270361	-0.777149	-0.565641	7
C	0.019131	-1.093169	0.176579	6
C	-0.010469	-0.002819	1.232549	6
H	-1.104999	-1.028029	-1.729031	1
H	-2.124709	-1.135990	-0.272901	1
H	-2.069349	1.033141	-0.016461	1
H	-0.004979	2.115471	0.562779	1
H	2.129101	1.137380	-0.230381	1
H	1.134561	1.037060	-1.704731	1
H	2.069231	-1.033019	0.013649	1
H	-0.004599	-2.118519	0.551819	1
H	-0.909809	-0.023629	1.858829	1
H	0.877491	0.013891	1.874129	1
Es	0.019222	-1.093112	0.176499	99
Es	0.004798	-1.798640	0.430774	99
Es	-0.727407	0.924392	-0.242740	99
Es	-1.205643	-0.707218	-0.687321	99
Es	-1.277286	0.939985	-0.901030	99
Es	-0.011748	1.796218	0.440184	99
Es	-0.592460	-0.926560	-0.266816	99
Es	0.597187	0.927960	-0.251211	99
Es	-0.010469	-0.002819	1.232550	99
Es	-1.244528	0.130569	-0.619256	99
Es	-0.007620	0.574718	0.760375	99
Es	1.843845	1.005860	-0.359825	99
Es	0.731804	-0.923423	-0.234601	99
Es	1.157777	0.937529	-1.368625	99
Es	1.270320	-0.776852	-0.565062	99
Es	-1.260944	0.779232	-0.583357	99
Es	-1.134218	-0.930191	-1.393257	99
Es	-1.743038	0.920981	-0.218332	99
Es	0.605164	0.004698	1.670231	99
Es	-0.021300	1.092034	0.182496	99
Es	1.292204	-0.936475	-0.883272	99
Es	1.216852	0.710980	-0.662405	99
Es	-0.633804	-0.012993	1.659569	99
Es	1.254489	-0.127602	-0.598260	99
Es	-1.837511	-1.003802	-0.396927	99
Es	1.745911	-0.919932	-0.192671	99
Es	-0.004856	-0.578170	0.757232	99
44
Properties=species:S:1:pos:R:3:Z:I:1 energy=-304.1265011758483 field_type=dipole dipole="0.000000 0.000000 0.000000" charge=0
C	-1.205649	-0.707359	-0.687381	6
N	-1.260969	0.779531	-0.583931	7
C	-0.021209	1.092091	0.182579	6
C	1.216861	0.711121	-0.662461	6
N	1.270361	-0.777149	-0.565641	7
C	0.019131	-1.093169	0.176579	6
C	-0.010469	-0.002819	1.232549	6
H	-1.104999	-1.028029	-1.729031	1
H	-2.124709	-1.135990	-0.272901	1
H	-2.069349	1.033141	-0.016461	1
H	-0.004979	2.115471	0.562779	1
H	2.129101	1.137380	-0.230381	1
H	1.134561	1.037060	-1.704731	1
H	2.069231	-1.033019	0.013649	1
H	-0.004599	-2.118519	0.551819	1
H	-0.909809	-0.023629	1.858829	1
H	0.877491	0.013891	1.874129	1
Es	0.019221	-1.093113	0.176500	99
Es	-1.134229	-0.930034	-1.393010	99
Es	0.004730	-1.798674	0.430872	99
Es	-1.742926	0.920900	-0.218388	99
Es	-0.592288	-0.926543	-0.266967	99
Es	-1.260943	0.779235	-0.583362	99
Es	1.292144	-0.935740	-0.882713	99
Es	-0.011704	1.796226	0.440247	99
Es	-0.021300	1.092033	0.182499	99
Es	-0.007660	0.574751	0.760323	99
Es	1.746131	-0.920404	-0.193049	99
Es	-1.277420	0.940134	-0.900469	99
Es	-0.633889	-0.013111	1.659566	99
Es	-0.010469	-0.002819	1.232551	99
Es	-1.837669	-1.004008	-0.396906	99
Es	-1.244574	0.130406	-0.619814	99
Es	-1.205642	-0.707219	-0.687324	99
Es	1.216854	0.710981	-0.662405	99
Es	1.157752	0.937364	-1.368329	99
Es	-0.727398	0.924466	-0.242686	99
Es	1.844065	1.006055	-0.359825	99
Es	0.731477	-0.923671	-0.234879	99
Es	0.597065	0.927868	-0.251395	99
Es	1.270330	-0.776863	-0.565085	99
Es	0.605271	0.004733	1.670231	99
Es	1.254691	-0.127555	-0.598266	99
Es	-0.004876	-0.578030	0.757024	99
44
Properties=species:S:1:pos:R:3:Z:I:1 energy=-304.1265011758483 field_type=dipole dipole="0.000000 0.000000 0.000000" charge=0
C	-1.205649	-0.707359	-0.687381	6
N	-1.260969	0.779531	-0.583931	7
C	-0.021209	1.092091	0.182579	6
C	1.216861	0.711121	-0.662461	6
N	1.270361	-0.777149	-0.565641	7
C	0.019131	-1.093169	0.176579	6
C	-0.010469	-0.002819	1.232549	6
H	-1.104999	-1.028029	-1.729031	1
H	-2.124709	-1.135990	-0.272901	1
H	-2.069349	1.033141	-0.016461	1
H	-0.004979	2.115471	0.562779	1
H	2.129101	1.137380	-0.230381	1
H	1.134561	1.037060	-1.704731	1
H	2.069231	-1.033019	0.013649	1
H	-0.004599	-2.118519	0.551819	1
H	-0.909809	-0.023629	1.858829	1
H	0.877491	0.013891	1.874129	1
Es	1.270326	-0.776853	-0.565064	99
Es	-0.592318	-0.926486	-0.267106	99
Es	-0.011665	1.796293	0.440287	99
Es	-0.633903	-0.012937	1.659562	99
Es	0.597020	0.927782	-0.251420	99
Es	-1.260939	0.779245	-0.583387	99
Es	-1.277750	0.939672	-0.900081	99
Es	-1.134242	-0.930003	-1.392850	99
Es	1.157623	0.937229	-1.368168	99
Es	1.746161	-0.919986	-0.192872	99
Es	-0.021300	1.092033	0.182499	99
Es	0.605252	0.004893	1.670229	99
Es	1.254468	-0.127492	-0.599070	99
Es	-0.727038	0.924879	-0.242974	99
Es	-0.004833	-0.578295	0.757167	99
Es	-1.742964	0.920887	-0.218480	99
Es	-0.007631	0.574602	0.760195	99
Es	-0.010469	-0.002820	1.232550	99
Es	1.292580	-0.935782	-0.881914	99
Es	0.731265	-0.924133	-0.235075	99
Es	0.019222	-1.093111	0.176498	99
Es	-1.837801	-1.004059	-0.396849	99
Es	0.004674	-1.798575	0.430788	99
Es	-1.244480	0.130441	-0.619890	99
Es	1.216853	0.710980	-0.662406	99
Es	-1.205640	-0.707219	-0.687325	99
Es	1.844269	1.006182	-0.359901	99
44
Properties=species:S:1:pos:R:3:Z:I:1 energy=-304.1265011758483 field_type=dipole dipole="0.000000 0.000000 0.000000" charge=0
C	-1.205649	-0.707359	-0.687381	6
N	-1.260969	0.779531	-0.583931	7
C	-0.021209	1.092091	0.182579	6
C	1.216861	0.711121	-0.662461	6
N	1.270361	-0.777149	-0.565641	7
C	0.019131	-1.093169	0.176579	6
C	-0.010469	-0.002819	1.232549	6
H	-1.104999	-1.028029	-1.729031	1
H	-2.124709	-1.135990	-0.272901	1
H	-2.069349	1.033141	-0.016461	1
H	-0.004979	2.115471	0.562779	1
H	2.129101	1.137380	-0.230381	1
H	1.134561	1.037060	-1.704731	1
H	2.069231	-1.033019	0.013649	1
H	-0.004599	-2.118519	0.551819	1
H	-0.909809	-0.023629	1.858829	1
H	0.877491	0.013891	1.874129	1
Es	-1.278028	0.939222	-0.899070	99
Es	-0.726659	0.925369	-0.243300	99
Es	-0.633969	-0.013168	1.659563	99
Es	0.019221	-1.093112	0.176500	99
Es	1.216853	0.710981	-0.662406	99
Es	0.597059	0.927868	-0.251464	99
Es	-0.004794	-0.578085	0.756994	99
Es	-1.837966	-1.004184	-0.396962	99
Es	1.844361	1.006202	-0.359923	99
Es	-1.260929	0.779258	-0.583407	99
Es	0.605347	0.004856	1.670229	99
Es	0.004704	-1.798645	0.430826	99
Es	1.270335	-0.776864	-0.565070	99
Es	-1.205641	-0.707220	-0.687326	99
Es	-1.244522	0.130269	-0.620416	99
Es	1.254498	-0.127452	-0.599320	99
Es	0.731051	-0.924195	-0.235263	99
Es	1.292743	-0.935677	-0.881568	99
Es	1.746092	-0.919989	-0.192865	99
Es	-0.592295	-0.926437	-0.267046	99
Es	1.157543	0.937245	-1.368085	99
Es	-1.134078	-0.929872	-1.392745	99
Es	-1.743104	0.920949	-0.218584	99
Es	-0.007642	0.574609	0.760280	99
Es	-0.011670	1.796221	0.440323	99
Es	-0.010470	-0.002817	1.232548	99
Es	-0.021298	1.092033	0.182498	99
44
Properties=species:S:1:pos:R:3:Z:I:1 energy=-304.1265011758483 field_type=dipole dipole="0.000000 0.000000 0.000000" charge=0
C	-1.205649	-0.707359	-0.687381	6
N	-1.260969	0.779531	-0.583931	7
C	-0.021209	1.092091	0.182579	6
C	1.216861	0.711121	-0.662461	6
N	1.270361	-0.777149	-0.565641	7
C	0.019131	-1.093169	0.176579	6
C	-0.010469	-0.002819	1.232549	6
H	-1.104999	-1.028029	-1.729031	1
H	-2.124709	-1.135990	-0.272901	1
H	-2.069349	1.033141	-0.016461	1
H	-0.004979	2.115471	0.562779	1
H	2.129101	1.137380	-0.230381	1
H	1.134561	1.037060	-1.704731	1
H	2.069231	-1.033019	0.013649	1
H	-0.004599	-2.118519	0.551819	1
H	-0.909809	-0.023629	1.858829	1
H	0.877491	0.013891	1.874129	1
Es	1.270322	-0.776870	-0.565103	99
Es	-1.133922	-0.929860	-1.392643	99
Es	0.605370	0.004967	1.670262	99
Es	1.292769	-0.934867	-0.881304	99
Es	0.019224	-1.093111	0.176499	99
Es	-0.007714	0.574552	0.759977	99
Es	-1.277999	0.939054	-0.899202	99
Es	1.844494	1.006305	-0.359864	99
Es	1.254461	-0.127476	-0.598952	99
Es	1.746353	-0.920317	-0.193252	99
Es	-0.004822	-0.578161	0.757148	99
Es	-0.011709	1.796271	0.440368	99
Es	-0.592342	-0.926339	-0.267032	99
Es	-1.205641	-0.707217	-0.687324	99
Es	-1.244451	0.130184	-0.620147	99
Es	-0.010469	-0.002819	1.232550	99
Es	0.597097	0.927789	-0.251560	99
Es	-0.021303	1.092032	0.182497	99
Es	-1.838126	-1.004262	-0.396977	99
Es	0.730809	-0.924648	-0.235527	99
Es	0.004623	-1.798646	0.430900	99
Es	-1.743080	0.921003	-0.218846	99
Es	1.216853	0.710981	-0.662406	99
Es	-1.260937	0.779258	-0.583443	99
Es	-0.726666	0.925497	-0.243238	99
Es	1.157518	0.937161	-1.367968	99
Es	-0.633969	-0.013094	1.659531	99
44
Properties=species:S:1:pos:R:3:Z:I:1 energy=-304.1265011758483 field_type=dipole dipole="0.000000 0.000000 0.000000" charge=0
C	-1.205649	-0.707359	-0.687381	6
N	-1.260969	0.779531	-0.583931	7
C	-0.021209	1.092091	0.182579	6
C	1.216861	0.711121	-0.662461	6
N	1.270361	-0.777149	-0.565641	7
C	0.019131	-1.093169	0.176579	6
C	-0.010469	-0.002819	1.232549	6
H	-1.104999	-1.028029	-1.729031	1
H	-2.124709	-1.135990	-0.272901	1
H	-2.069349	1.033141	-0.016461	1
H	-0.004979	2.115471	0.562779	1
H	2.129101	1.137380	-0.230381	1
H	1.134561	1.037060	-1.704731	1
H	2.069231	-1.033019	0.013649	1
H	-0.004599	-2.118519	0.551819	1
H	-0.909809	-0.023629	1.858829	1
H	0.877491	0.013891	1.874129	1
Es	1.293097	-0.934632	-0.880832	99
Es	-0.004788	-0.578080	0.756976	99
Es	1.254532	-0.127410	-0.599154	99
Es	0.004615	-1.798628	0.430922	99
Es	-1.244648	0.130251	-0.620683	99
Es	0.019224	-1.093112	0.176498	99
Es	0.730498	-0.924958	-0.235850	99
Es	1.746257	-0.920306	-0.193195	99
Es	0.605351	0.004931	1.670257	99
Es	-0.021300	1.092035	0.182495	99
Es	-1.205642	-0.707219	-0.687324	99
Es	-1.743161	0.920994	-0.218776	99
Es	-1.133978	-0.929808	-1.392607	99
Es	-0.726399	0.925478	-0.243354	99
Es	1.216853	0.710980	-0.662406	99
Es	1.270316	-0.776883	-0.565136	99
Es	-1.278100	0.938925	-0.898506	99
Es	-0.010469	-0.002820	1.232550	99
Es	-0.592238	-0.926360	-0.267091	99
Es	1.844520	1.006330	-0.359855	99
Es	-1.838111	-1.004314	-0.396965	99
Es	0.597049	0.927801	-0.251566	99
Es	-0.011655	1.796237	0.440286	99
Es	-0.634007	-0.013156	1.659534	99
Es	-0.007649	0.574601	0.760209	99
Es	1.157504	0.937166	-1.367925	99
Es	-1.260930	0.779322	-0.583558	99
44
Properties=species:S:1:pos:R:3:Z:I:1 energy=-304.1265011758483 field_type=dipole dipole="0.000000 0.000000 0.000000" charge=0
C	-1.205649	-0.707359	-0.687381	6
N	-1.260969	0.779531	-0.583931	7
C	-0.021209	1.092091	0.182579	6
C	1.216861	0.711121	-0.662461	6
N	1.270361	-0.777149	-0.565641	7
C	0.019131	-1.093169	0.176579	6
C	-0.010469	-0.002819	1.232549	6
H	-1.104999	-1.028029	-1.729031	1
H	-2.124709	-1.135990	-0.272901	1
H	-2.069349	1.033141	-0.016461	1
H	-0.004979	2.115471	0.562779	1
H	2.129101	1.137380	-0.230381	1
H	1.134561	1.037060	-1.704731	1
H	2.069231	-1.033019	0.013649	1
H	-0.004599	-2.118519	0.551819	1
H	-0.909809	-0.023629	1.858829	1
H	0.877491	0.013891	1.874129	1
Es	-0.004786	-0.578055	0.756953	99
Es	-1.244636	0.130177	-0.620515	99
Es	1.254530	-0.127415	-0.598997	99
Es	1.270328	-0.776856	-0.565068	99
Es	1.157434	0.937120	-1.367868	99
Es	-1.260943	0.779226	-0.583342	99
Es	-0.021299	1.092034	0.182496	99
Es	-1.205643	-0.707222	-0.687324	99
Es	-0.726338	0.925591	-0.243536	99
Es	-1.277894	0.938550	-0.898514	99
Es	1.746193	-0.920292	-0.193251	99
Es	0.597123	0.927737	-0.251619	99
Es	1.216853	0.710980	-0.662406	99
Es	-0.592374	-0.926342	-0.267113	99
Es	-0.634016	-0.013250	1.659613	99
Es	-0.011639	1.796199	0.440280	99
Es	-0.007765	0.574629	0.760215	99
Es	1.293235	-0.934492	-0.880892	99
Es	0.004697	-1.798659	0.430908	99
Es	-1.743336	0.921426	-0.219056	99
Es	-1.133852	-0.929795	-1.392511	99
Es	-1.838272	-1.004349	-0.396970	99
Es	0.019222	-1.093112	0.176498	99
Es	0.605445	0.004974	1.670180	99
Es	0.730350	-0.925048	-0.235929	99
Es	-0.010469	-0.002821	1.232549	99
Es	1.844591	1.006428	-0.359838	99
44
Properties=species:S:1:pos:R:3:Z:I:1 energy=-304.1265011758483 field_type=dipole dipole="0.000000 0.000000 0.000000" charge=0
C	-1.205649	-0.707359	-0.687381	6
N	-1.260969	0.779531	-0.583931	7
C	-0.021209	1.092091	0.182579	6
C	1.216861	0.711121	-0.662461	6
N	1.270361	-0.777149	-0.565641	7
C	0.019131	-1.093169	0.176579	6
C	-0.010469	-0.002819	1.232549	6
H	-1.104999	-1.028029	-1.729031	1
H	-2.124709	-1.135990	-0.272901	1
H	-2.069349	1.033141	-0.016461	1
H	-0.004979	2.115471	0.562779	1
H	2.129101	1.137380	-0.230381	1
H	1.134561	1.037060	-1.704731	1
H	2.069231	-1.033019	0.013649	1
H	-0.004599	-2.118519	0.551819	1
H	-0.909809	-0.023629	1.858829	1
H	0.877491	0.013891	1.874129	1
Es	1.746223	-0.920254	-0.193179	99
Es	-1.133944	-0.929699	-1.392482	99
Es	1.270319	-0.776918	-0.565204	99
Es	-1.743104	0.921111	-0.218822	99
Es	-0.010469	-0.002819	1.232550	99
Es	-1.838255	-1.004422	-0.396946	99
Es	-0.633982	-0.013175	1.659605	99
Es	-1.244552	0.130230	-0.620311	99
Es	-0.007774	0.574633	0.760191	99
Es	0.019220	-1.093112	0.176501	99
Es	-0.011568	1.796152	0.440319	99
Es	0.730379	-0.925069	-0.236016	99
Es	-0.004880	-0.578129	0.756890	99
Es	1.293296	-0.934413	-0.880693	99
Es	0.605443	0.005009	1.670185	99
Es	-0.726285	0.925903	-0.243716	99
Es	-1.260962	0.779260	-0.583393	99
Es	1.216853	0.710979	-0.662406	99
Es	-1.205644	-0.707218	-0.687322	99
Es	1.157423	0.937039	-1.367716	99
Es	1.844692	1.006517	-0.359859	99
Es	-1.278326	0.938528	-0.898615	99
Es	-0.021299	1.092034	0.182497	99
Es	0.597097	0.927693	-0.251726	99
Es	0.004585	-1.798718	0.430903	99
Es	1.254456	-0.127454	-0.599093	99
Es	-0.592200	-0.926322	-0.267202	99
44
Properties=species:S:1:pos:R:3:Z:I:1 energy=-304.1265011758483 field_type=dipole dipole="0.000000 0.000000 0.000000" charge=0
C	-1.205649	-0.707359	-0.687381	6
N	-1.260969	0.779531	-0.583931	7
C	-0.021209	1.092091	0.182579	6
C	1.216861	0.711121	-0.662461	6
N	1.270361	-0.777149	-0.565641	7
C	0.019131	-1.093169	0.176579	6
C	-0.010469	-0.002819	1.232549	6
H	-1.104999	-1.028029	-1.729031	1
H	-2.124709	-1.135990	-0.272901	1
H	-2.069349	1.033141	-0.016461	1
H	-0.004979	2.115471	0.562779	1
H	2.129101	1.137380	-0.230381	1
H	1.134561	1.037060	-1.704731	1
H	2.069231	-1.033019	0.013649	1
H	-0.004599	-2.118519	0.551819	1
H	-0.909809	-0.023629	1.858829	1
H	0.877491	0.013891	1.874129	1
Es	1.157241	0.936993	-1.367624	99
Es	0.730205	-0.925368	-0.236128	99
Es	-1.260938	0.779230	-0.583364	99
Es	-0.007763	0.574696	0.760217	99
Es	-0.010469	-0.002820	1.232549	99
Es	0.004617	-1.798665	0.430914	99
Es	-1.743215	0.921099	-0.218901	99
Es	-1.278412	0.938403	-0.898295	99
Es	1.254482	-0.127368	-0.599194	99
Es	-1.244585	0.130328	-0.620640	99
Es	1.216853	0.710980	-0.662406	99
Es	1.293974	-0.934742	-0.880844	99
Es	-0.004752	-0.578102	0.756928	99
Es	-1.133945	-0.929673	-1.392309	99
Es	-0.021296	1.092034	0.182499	99
Es	-1.205643	-0.707220	-0.687324	99
Es	0.605403	0.004923	1.670255	99
Es	-0.634056	-0.013263	1.659531	99
Es	-0.011657	1.796208	0.440247	99
Es	0.597177	0.927626	-0.251690	99
Es	-0.725970	0.925949	-0.243784	99
Es	1.270329	-0.776844	-0.565067	99
Es	-0.592243	-0.926287	-0.267282	99
Es	1.844828	1.006623	-0.359918	99
Es	0.019222	-1.093112	0.176499	99
Es	1.745683	-0.919779	-0.192950	99
Es	-1.838327	-1.004483	-0.396976	99
44
Properties=species:S:1:pos:R:3:Z:I:1 energy=-304.1265011758483 field_type=dipole dipole="0.000000 0.000000 0.000000" charge=0
C	-1.205649	-0.707359	-0.687381	6
N	-1.260969	0.779531	-0.583931	7
C	-0.021209	1.092091	0.182579	6
C	1.216861	0.711121	-0.662461	6
N	1.270361	-0.777149	-0.565641	7
C	0.019131	-1.093169	0.176579	6
C	-0.010469	-0.002819	1.232549	6
H	-1.104999	-1.028029	-1.729031	1
H	-2.124709	-1.135990	-0.272901	1
H	-2.069349	1.033141	-0.016461	1
H	-0.004979	2.115471	0.562779	1
H	2.129101	1.137380	-0.230381	1
H	1.134561	1.037060	-1.704731	1
H	2.069231	-1.033019	0.013649	1
H	-0.004599	-2.118519	0.551819	1
H	-0.909809	-0.023629	1.858829	1
H	0.877491	0.013891	1.874129	1
Es	0.004603	-1.798675	0.430914	99
Es	0.730196	-0.925331	-0.236106	99
Es	-0.004815	-0.578071	0.756953	99
Es	1.270319	-0.776880	-0.565135	99
Es	-0.725904	0.926042	-0.243923	99
Es	-0.007717	0.574624	0.760090	99
Es	-1.260951	0.779298	-0.583453	99
Es	0.605449	0.004966	1.670227	99
Es	1.746174	-0.920353	-0.193403	99
Es	-1.133877	-0.929692	-1.392314	99
Es	-0.010469	-0.002820	1.232552	99
Es	1.216853	0.710980	-0.662406	99
Es	-0.011627	1.796229	0.440337	99
Es	1.293413	-0.934157	-0.880580	99
Es	-0.021299	1.092034	0.182496	99
Es	0.019222	-1.093112	0.176499	99
Es	-0.634037	-0.013238	1.659561	99
Es	-1.838403	-1.004501	-0.396904	99
Es	-1.205642	-0.707218	-0.687324	99
Es	-1.278531	0.938186	-0.898200	99
Es	0.597064	0.927715	-0.251724	99
Es	-1.244597	0.130258	-0.620506	99
Es	1.254513	-0.127334	-0.598978	99
Es	1.157377	0.936970	-1.367664	99
Es	-1.743115	0.921150	-0.218949	99
Es	1.844810	1.006567	-0.359835	99
Es	-0.592267	-0.926274	-0.267283	99
44
Properties=species:S:1:pos:R:3:Z:I:1 energy=-304.1265011758483 field_type=dipole dipole="0.000000 0.000000 0.000000" charge=0
C	-1.205649	-0.707359	-0.687381	6
N	-1.260969	0.779531	-0.583931	7
C	-0.021209	1.092091	0.182579	6
C	1.216861	0.711121	-0.662461	6
N	1.270361	-0.777149	-0.565641	7
C	0.019131	-1.093169	0.176579	6
C	-0.010469	-0.002819	1.232549	6
H	-1.104999	-1.028029	-1.729031	1
H	-2.124709	-1.135990	-0.272901	1
H	-2.069349	1.033141	-0.016461	1
H	-0.004979	2.115471	0.562779	1
H	2.129101	1.137380	-0.230381	1
H	1.134561	1.037060	-1.704731	1
H	2.069231	-1.033019	0.013649	1
H	-0.004599	-2.118519	0.551819	1
H	-0.909809	-0.023629	1.858829	1
H	0.877491	0.013891	1.874129	1
Es	0.597033	0.927645	-0.251707	99
Es	-1.742993	0.921044	-0.219067	99
Es	1.157432	0.936984	-1.367637	99
Es	1.216853	0.710981	-0.662406	99
Es	0.605428	0.005003	1.670222	99
Es	-0.021299	1.092035	0.182497	99
Es	-0.010469	-0.002819	1.232549	99
Es	-0.725803	0.926406	-0.244030	99
Es	1.293492	-0.934000	-0.880378	99
Es	-1.260952	0.779248	-0.583388	99
Es	-1.133811	-0.929659	-1.392324	99
Es	-0.007714	0.574642	0.760097	99
Es	-0.634106	-0.013240	1.659563	99
Es	-0.004776	-0.578065	0.756942	99
Es	1.270312	-0.776848	-0.565071	99
Es	-0.592278	-0.926257	-0.267265	99
Es	-1.205641	-0.707217	-0.687325	99
Es	1.844768	1.006567	-0.359826	99
Es	1.746210	-0.920399	-0.193518	99
Es	0.729989	-0.925410	-0.236162	99
Es	-0.011538	1.796248	0.440303	99
Es	-1.244634	0.130205	-0.620321	99
Es	0.004609	-1.798672	0.430914	99
Es	-1.838407	-1.004556	-0.396949	99
Es	-1.278811	0.938024	-0.898193	99
Es	0.019222	-1.093111	0.176499	99
Es	1.254627	-0.127413	-0.599078	99
44
Properties=species:S:1:pos:R:3:Z:I:1 energy=-304.1265011758483 field_type=dipole dipole="0.000000 0.000000 0.000000" charge=0
C	-1.205649	-0.707359	-0.687381	6
N	-1.260969	0.779531	-0.583931	7
C	-0.021209	1.092091	0.182579	6
C	1.216861	0.711121	-0.662461	6
N	1.270361	-0.777149	-0.565641	7
C	0.019131	-1.093169	0.176579	6
C	-0.010469	-0.002819	1.232549	6
H	-1.104999	-1.028029	-1.729031	1
H	-2.124709	-1.135990	-0.272901	1
H	-2.069349	1.033141	-0.016461	1
H	-0.004979	2.115471	0.562779	1
H	2.129101	1.137380	-0.230381	1
H	1.134561	1.037060	-1.704731	1
H	2.069231	-1.033019	0.013649	1
H	-0.004599	-2.118519	0.551819	1
H	-0.909809	-0.023629	1.858829	1
H	0.877491	0.013891	1.874129	1
Es	-1.205642	-0.707219	-0.687325	99
Es	1.746149	-0.920110	-0.193280	99
Es	1.157325	0.936994	-1.367586	99
Es	-0.010468	-0.002821	1.232550	99
Es	-0.011499	1.796281	0.440251	99
Es	0.004599	-1.798595	0.430993	99
Es	0.019222	-1.093112	0.176499	99
Es	0.729954	-0.925573	-0.236337	99
Es	-1.742934	0.921024	-0.218937	99
Es	-1.838492	-1.004519	-0.396995	99
Es	-0.021299	1.092034	0.182497	99
Es	-0.592423	-0.926368	-0.267285	99
Es	-0.004825	-0.578061	0.756758	99
Es	1.270324	-0.776831	-0.565045	99
Es	1.844861	1.006606	-0.359819	99
Es	1.216853	0.710979	-0.662406	99
Es	-0.634132	-0.013152	1.659622	99
Es	-1.260955	0.779242	-0.583364	99
Es	-1.133772	-0.929639	-1.392295	99
Es	1.293737	-0.934195	-0.879964	99
Es	0.597011	0.927525	-0.251695	99
Es	0.605487	0.005011	1.670168	99
Es	1.254515	-0.127370	-0.599670	99
Es	-0.725785	0.926448	-0.244131	99
Es	-1.278872	0.938114	-0.898078	99
Es	-1.244491	0.130147	-0.620449	99
Es	-0.007709	0.574525	0.760265	99
44
Properties=species:S:1:pos:R:3:Z:I:1 energy=-304.1265011758483 field_type=dipole dipole="0.000000 0.000000 0.000000" charge=0
C	-1.205649	-0.707359	-0.687381	6
N	-1.260969	0.779531	-0.583931	7
C	-0.021209	1.092091	0.182579	6
C	1.216861	0.711121	-0.662461	6
N	1.270361	-0.777149	-0.565641	7
C	0.019131	-1.093169	0.176579	6
C	-0.010469	-0.002819	1.232549	6
H	-1.104999	-1.028029	-1.729031	1
H	-2.124709	-1.135990	-0.272901	1
H	-2.069349	1.033141	-0.016461	1
H	-0.004979	2.115471	0.562779	1
H	2.129101	1.137380	-0.230381	1
H	1.134561	1.037060	-1.704731	1
H	2.069231	-1.033019	0.013649	1
H	-0.004599	-2.118519	0.551819	1
H	-0.909809	-0.023629	1.858829	1
H	0.877491	0.013891	1.874129	1
Es	0.004627	-1.798633	0.430993	99
Es	-1.205642	-0.707219	-0.687324	99
Es	0.729939	-0.925743	-0.236379	99
Es	-0.004773	-0.578052	0.756838	99
Es	-1.279115	0.937776	-0.897568	99
Es	-1.260948	0.779239	-0.583373	99
Es	1.216854	0.710981	-0.662406	99
Es	0.019221	-1.093111	0.176501	99
Es	-0.011593	1.796226	0.440381	99
Es	1.157341	0.937000	-1.367734	99
Es	-0.021299	1.092034	0.182496	99
Es	-1.838440	-1.004619	-0.396880	99
Es	-1.133850	-0.929641	-1.392240	99
Es	1.746036	-0.920108	-0.193288	99
Es	1.254461	-0.127285	-0.599134	99
Es	-0.010469	-0.002819	1.232550	99
Es	-0.007702	0.574629	0.760052	99
Es	-0.592349	-0.926225	-0.267424	99
Es	1.270320	-0.776861	-0.565091	99
Es	0.605473	0.004951	1.670242	99
Es	-0.725493	0.926700	-0.244498	99
Es	-1.244582	0.130162	-0.620669	99
Es	-0.634120	-0.013276	1.659545	99
Es	-1.742989	0.921072	-0.218913	99
Es	0.597148	0.927635	-0.251701	99
Es	1.293891	-0.934009	-0.880226	99
Es	1.844797	1.006563	-0.359806	99
44
Properties=species:S:1:pos:R:3:Z:I:1 energy=-304.1265011758483 field_type=dipole dipole="0.000000 0.000000 0.000000" charge=0
C	-1.205649	-0.707359	-0.687381	6
N	-1.260969	0.779531	-0.583931	7
C	-0.021209	1.092091	0.182579	6
C	1.216861	0.711121	-0.662461	6
N	1.270361	-0.777149	-0.565641	7
C	0.019131	-1.093169	0.176579	6
C	-0.010469	-0.002819	1.232549	6
H	-1.104999	-1.028029	-1.729031	1
H	-2.124709	-1.135990	-0.272901	1
H	-2.069349	1.033141	-0.016461	1
H	-0.004979	2.115471	0.562779	1
H	2.129101	1.137380	-0.230381	1
H	1.134561	1.037060	-1.704731	1
H	2.069231	-1.033019	0.013649	1
H	-0.004599	-2.118519	0.551819	1
H	-0.909809	-0.023629	1.858829	1
H	0.877491	0.013891	1.874129	1
Es	-0.004833	-0.578343	0.757026	99
Es	-1.133742	-0.929532	-1.392204	99
Es	-0.634020	-0.013083	1.659532	99
Es	-1.838565	-1.004654	-0.396979	99
Es	1.844897	1.006611	-0.359799	99
Es	0.729749	-0.925824	-0.236566	99
Es	-0.021300	1.092035	0.182496	99
Es	-0.592357	-0.926266	-0.267336	99
Es	-1.244553	0.130095	-0.620534	99
Es	-1.260943	0.779230	-0.583376	99
Es	1.254484	-0.127287	-0.599450	99
Es	-0.011681	1.796185	0.440365	99
Es	1.293923	-0.933815	-0.879793	99
Es	-1.279057	0.938009	-0.897878	99
Es	0.004640	-1.798626	0.430895	99
Es	1.157310	0.936985	-1.367585	99
Es	-0.725619	0.926494	-0.244325	99
Es	-0.010467	-0.002821	1.232552	99
Es	0.605511	0.005227	1.670256	99
Es	-1.205643	-0.707221	-0.687324	99
Es	-0.007783	0.574440	0.759982	99
Es	0.019223	-1.093112	0.176498	99
Es	-1.742907	0.921016	-0.218838	99
Es	1.746132	-0.920210	-0.193401	99
Es	0.597172	0.927690	-0.251796	99
Es	1.270318	-0.776835	-0.565070	99
Es	1.216853	0.710980	-0.662407	99
44
Properties=species:S:1:pos:R:3:Z:I:1 energy=-304.1265011758483 field_type=dipole dipole="0.000000 0.000000 0.000000" charge=0
C	-1.205649	-0.707359	-0.687381	6
N	-1.260969	0.779531	-0.583931	7
C	-0.021209	1.092091	0.182579	6
C	1.216861	0.711121	-0.662461	6
N	1.270361	-0.777149	-0.565641	7
C	0.019131	-1.093169	0.176579	6
C	-0.010469	-0.002819	1.232549	6
H	-1.104999	-1.028029	-1.729031	1
H	-2.124709	-1.135990	-0.272901	1
H	-2.069349	1.033141	-0.016461	1
H	-0.004979	2.115471	0.562779	1
H	2.129101	1.137380	-0.230381	1
H	1.134561	1.037060	-1.704731	1
H	2.069231	-1.033019	0.013649	1
H	-0.004599	-2.118519	0.551819	1
H	-0.909809	-0.023629	1.858829	1
H	0.877491	0.013891	1.874129	1
Es	-1.133753	-0.929560	-1.392166	99
Es	1.293892	-0.933837	-0.879835	99
Es	-1.742949	0.920917	-0.218716	99
Es	1.270336	-0.776884	-0.565114	99
Es	1.216853	0.710981	-0.662405	99
Es	-0.021301	1.092034	0.182496	99
Es	-0.007720	0.574551	0.760204	99
Es	-0.010469	-0.002819	1.232550	99
Es	1.157248	0.936905	-1.367518	99
Es	-1.838625	-1.004620	-0.396939	99
Es	-0.011617	1.796211	0.440312	99
Es	-1.205642	-0.707219	-0.687325	99
Es	-1.260936	0.779282	-0.583466	99
Es	0.019222	-1.093112	0.176499	99
Es	0.729777	-0.925878	-0.236551	99
Es	1.746076	-0.920223	-0.193357	99
Es	1.254475	-0.127186	-0.599422	99
Es	0.004591	-1.798650	0.430870	99
Es	-0.592320	-0.926213	-0.267386	99
Es	-0.725374	0.926750	-0.244604	99
Es	-1.244435	0.130140	-0.620828	99
Es	-0.004679	-0.577996	0.756919	99
Es	1.844998	1.006691	-0.359810	99
Es	0.597029	0.927649	-0.251825	99
Es	-0.634131	-0.013372	1.659574	99
Es	0.605497	0.005034	1.670208	99
Es	-1.279302	0.937790	-0.897422	99
44
Properties=species:S:1:pos:R:3:Z:I:1 energy=-304.1265011758483 field_type=dipole dipole="0.000000 0.000000 0.000000" charge=0
C	-1.205649	-0.707359	-0.687381	6
N	-1.260969	0.779531	-0.583931	7
C	-0.021209	1.092091	0.182579	6
C	1.216861	0.711121	-0.662461	6
N	1.270361	-0.777149	-0.565641	7
C	0.019131	-1.093169	0.176579	6
C	-0.010469	-0.002819	1.232549	6
H	-1.104999	-1.028029	-1.729031	1
H	-2.124709	-1.135990	-0.272901	1
H	-2.069349	1.033141	-0.016461	1
H	-0.004979	2.115471	0.562779	1
H	2.129101	1.137380	-0.230381	1
H	1.134561	1.037060	-1.704731	1
H	2.069231	-1.033019	0.013649	1
H	-0.004599	-2.118519	0.551819	1
H	-0.909809	-0.023629	1.858829	1
H	0.877491	0.013891	1.874129	1
Es	1.254476	-0.127263	-0.599321	99
Es	-1.260940	0.779215	-0.583350	99
Es	1.746112	-0.920216	-0.193445	99