46
Properties=species:S:1:pos:R:3:Z:I:1 energy=-325.1033028381376 field_type=dipole dipole="0.000000 0.000000 0.000000" charge=0
C	-2.749790	-0.412808	0.999054	6
O	-1.334070	-0.542468	1.000554	8
C	-0.772130	-0.198549	-0.265726	6
C	0.731360	-0.351358	-0.171756	6
C	1.543911	0.154412	-1.380186	6
N	2.549790	0.689492	-0.433886	7
C	1.496000	0.735042	0.609984	6
H	-3.124310	-0.713118	1.981424	1
H	-3.194810	-1.064828	0.240994	1
H	-3.037490	0.627261	0.818004	1
H	-1.052000	0.829272	-0.525036	1
H	-1.169420	-0.874228	-1.031836	1
H	1.023650	-1.369598	0.124514	1
H	1.057020	0.934312	-1.977826	1
H	1.917390	-0.620668	-2.055736	1
H	3.288950	0.019762	-0.216026	1
H	1.831481	0.449892	1.611414	1
H	0.994461	1.708182	0.672074	1
Es	2.705476	1.006277	-0.523792	99
Es	1.146574	1.398260	0.639067	99
Es	-3.007231	-0.616650	1.667147	99
Es	-0.772222	-0.198607	-0.265528	99
Es	2.549525	0.688957	-0.433735	99
Es	1.730904	0.542016	1.297791	99
Es	-1.227611	-0.334002	1.199517	99
Es	0.731351	-0.351321	-0.171779	99
Es	-1.334287	-0.542169	1.000273	99
Es	-1.050164	-0.663221	-0.801476	99
Es	-0.031725	-0.279054	-0.218196	99
Es	-2.950694	0.303268	0.866415	99
Es	-2.749578	-0.412826	0.999048	99
Es	1.202988	0.691750	-1.778942	99
Es	-1.278403	-0.842388	1.032927	99
Es	2.964152	0.255016	-0.295953	99
Es	0.934493	-1.042371	0.027731	99
Es	1.068589	-0.146635	-0.838832	99
Es	-0.963102	0.514220	-0.448419	99
Es	1.043370	0.181888	0.292396	99
Es	2.133012	0.722688	0.060048	99
Es	1.543989	0.154447	-1.380080	99
Es	1.802262	-0.378206	-1.848233	99
Es	1.496096	0.735015	0.609869	99
Es	2.153240	0.444724	-0.888170	99
Es	-1.874923	-0.481024	0.968699	99
Es	-1.156521	-0.402296	0.508852	99
Es	-3.057910	-0.856905	0.471196	99
46
Properties=species:S:1:pos:R:3:Z:I:1 energy=-325.1033028381376 field_type=dipole dipole="0.000000 0.000000 0.000000" charge=0
C	-2.749790	-0.412808	0.999054	6
O	-1.334070	-0.542468	1.000554	8
C	-0.772130	-0.198549	-0.265726	6
C	0.731360	-0.351358	-0.171756	6
C	1.543911	0.154412	-1.380186	6
N	2.549790	0.689492	-0.433886	7
C	1.496000	0.735042	0.609984	6
H	-3.124310	-0.713118	1.981424	1
H	-3.194810	-1.064828	0.240994	1
H	-3.037490	0.627261	0.818004	1
H	-1.052000	0.829272	-0.525036	1
H	-1.169420	-0.874228	-1.031836	1
H	1.023650	-1.369598	0.124514	1
H	1.057020	0.934312	-1.977826	1
H	1.917390	-0.620668	-2.055736	1
H	3.288950	0.019762	-0.216026	1
H	1.831481	0.449892	1.611414	1
H	0.994461	1.708182	0.672074	1
Es	1.202656	0.692100	-1.779029	99
Es	-1.050118	-0.663144	-0.801233	99
Es	-1.278784	-0.840858	1.035738	99
Es	0.731351	-0.351319	-0.171780	99
Es	-1.156790	-0.406238	0.507331	99
Es	-2.950570	0.303177	0.866248	99
Es	1.069217	-0.146155	-0.838994	99
Es	1.043855	0.182207	0.292376	99
Es	2.132492	0.725242	0.060628	99
Es	1.802252	-0.378594	-1.848096	99
Es	-0.963173	0.514374	-0.448595	99
Es	-3.007427	-0.616675	1.667351	99
Es	1.730890	0.541543	1.298375	99
Es	2.549525	0.688977	-0.433744	99
Es	-3.057808	-0.856694	0.471182	99
Es	0.934485	-1.042393	0.027743	99
Es	2.966542	0.255311	-0.296074	99
Es	-1.334270	-0.542385	1.000255	99
Es	-2.749574	-0.412825	0.999047	99
Es	-0.772220	-0.198608	-0.265534	99
Es	1.146162	1.398233	0.638668	99
Es	-0.031718	-0.279220	-0.218266	99
Es	-1.227004	-0.331629	1.197929	99
Es	1.543990	0.154451	-1.380078	99
Es	-1.874925	-0.480843	0.969028	99
Es	1.496095	0.735018	0.609868	99
Es	2.703425	1.001685	-0.522942	99
Es	2.153093	0.446114	-0.889559	99
46
Properties=species:S:1:pos:R:3:Z:I:1 energy=-325.1033028381376 field_type=dipole dipole="0.000000 0.000000 0.000000" charge=0
C	-2.749790	-0.412808	0.999054	6
O	-1.334070	-0.542468	1.000554	8
C	-0.772130	-0.198549	-0.265726	6
C	0.731360	-0.351358	-0.171756	6
C	1.543911	0.154412	-1.380186	6
N	2.549790	0.689492	-0.433886	7
C	1.496000	0.735042	0.609984	6
H	-3.124310	-0.713118	1.981424	1
H	-3.194810	-1.064828	0.240994	1
H	-3.037490	0.627261	0.818004	1
H	-1.052000	0.829272	-0.525036	1
H	-1.169420	-0.874228	-1.031836	1
H	1.023650	-1.369598	0.124514	1
H	1.057020	0.934312	-1.977826	1
H	1.917390	-0.620668	-2.055736	1
H	3.288950	0.019762	-0.216026	1
H	1.831481	0.449892	1.611414	1
H	0.994461	1.708182	0.672074	1
Es	1.044178	0.182617	0.292254	99
Es	-1.874749	-0.478829	0.969441	99
Es	1.730941	0.541292	1.298706	99
Es	1.802535	-0.378782	-1.848072	99
Es	1.496093	0.735016	0.609870	99
Es	-0.031573	-0.279171	-0.218216	99
Es	-3.057734	-0.856521	0.471141	99
Es	-1.050082	-0.663144	-0.801115	99
Es	-3.007547	-0.616720	1.667548	99
Es	-1.278497	-0.842204	1.038301	99
Es	1.069391	-0.146244	-0.839326	99
Es	-2.749575	-0.412825	0.999043	99
Es	-1.227694	-0.331430	1.195141	99
Es	0.731351	-0.351320	-0.171780	99
Es	2.968010	0.255623	-0.296215	99
Es	2.152696	0.447416	-0.890783	99
Es	-1.156580	-0.407183	0.507130	99
Es	-2.950465	0.303083	0.866161	99
Es	2.549531	0.688949	-0.433733	99
Es	-1.334262	-0.542305	1.000291	99
Es	2.702063	0.998847	-0.521779	99
Es	2.132290	0.726387	0.060799	99
Es	-0.772224	-0.198608	-0.265520	99
Es	1.202497	0.692265	-1.779055	99
Es	1.145952	1.398193	0.638453	99
Es	-0.963301	0.514334	-0.448720	99
Es	0.934412	-1.042331	0.027960	99
Es	1.543991	0.154449	-1.380080	99
46
Properties=species:S:1:pos:R:3:Z:I:1 energy=-325.1033028381376 field_type=dipole dipole="0.000000 0.000000 0.000000" charge=0
C	-2.749790	-0.412808	0.999054	6
O	-1.334070	-0.542468	1.000554	8
C	-0.772130	-0.198549	-0.265726	6
C	0.731360	-0.351358	-0.171756	6
C	1.543911	0.154412	-1.380186	6
N	2.549790	0.689492	-0.433886	7
C	1.496000	0.735042	0.609984	6
H	-3.124310	-0.713118	1.981424	1
H	-3.194810	-1.064828	0.240994	1
H	-3.037490	0.627261	0.818004	1
H	-1.052000	0.829272	-0.525036	1
H	-1.169420	-0.874228	-1.031836	1
H	1.023650	-1.369598	0.124514	1
H	1.057020	0.934312	-1.977826	1
H	1.917390	-0.620668	-2.055736	1
H	3.288950	0.019762	-0.216026	1
H	1.831481	0.449892	1.611414	1
H	0.994461	1.708182	0.672074	1
Es	2.152785	0.448521	-0.892047	99
Es	1.069737	-0.146089	-0.839537	99
Es	2.969023	0.255862	-0.296249	99
Es	1.044468	0.182869	0.292108	99
Es	0.731351	-0.351320	-0.171780	99
Es	0.934368	-1.042374	0.028121	99
Es	-1.334280	-0.542307	1.000260	99
Es	-0.963365	0.514370	-0.448812	99
Es	-1.279250	-0.842935	1.038095	99
Es	2.131884	0.727314	0.060929	99
Es	-0.031516	-0.279137	-0.218218	99
Es	-0.772219	-0.198608	-0.265535	99
Es	1.543989	0.154446	-1.380083	99
Es	1.145762	1.398196	0.638190	99
Es	-3.057654	-0.856431	0.471105	99
Es	1.730980	0.541013	1.299050	99
Es	2.701113	0.996323	-0.520681	99
Es	-1.050084	-0.663104	-0.800973	99
Es	-1.874448	-0.477424	0.969869	99
Es	2.549517	0.688945	-0.433726	99
Es	1.202288	0.692499	-1.779018	99
Es	-3.007635	-0.616783	1.667592	99
Es	1.802516	-0.378967	-1.848054	99
Es	-1.226924	-0.331898	1.194999	99
Es	-1.156840	-0.407398	0.507191	99
Es	1.496096	0.735017	0.609870	99
Es	-2.749575	-0.412825	0.999047	99
Es	-2.950435	0.303076	0.866127	99
46
Properties=species:S:1:pos:R:3:Z:I:1 energy=-325.1033028381376 field_type=dipole dipole="0.000000 0.000000 0.000000" charge=0
C	-2.749790	-0.412808	0.999054	6
O	-1.334070	-0.542468	1.000554	8
C	-0.772130	-0.198549	-0.265726	6
C	0.731360	-0.351358	-0.171756	6
C	1.543911	0.154412	-1.380186	6
N	2.549790	0.689492	-0.433886	7
C	1.496000	0.735042	0.609984	6
H	-3.124310	-0.713118	1.981424	1
H	-3.194810	-1.064828	0.240994	1
H	-3.037490	0.627261	0.818004	1
H	-1.052000	0.829272	-0.525036	1
H	-1.169420	-0.874228	-1.031836	1
H	1.023650	-1.369598	0.124514	1
H	1.057020	0.934312	-1.977826	1
H	1.917390	-0.620668	-2.055736	1
H	3.288950	0.019762	-0.216026	1
H	1.831481	0.449892	1.611414	1
H	0.994461	1.708182	0.672074	1
Es	-1.156921	-0.409426	0.506243	99
Es	-1.050063	-0.663134	-0.801034	99
Es	1.202213	0.692561	-1.778984	99
Es	-1.277652	-0.842775	1.042218	99
Es	-1.874255	-0.477847	0.969818	99
Es	1.802495	-0.379170	-1.848070	99
Es	2.131918	0.728468	0.061022	99
Es	-3.057677	-0.856434	0.471005	99
Es	1.543991	0.154448	-1.380080	99
Es	2.152691	0.449353	-0.892816	99
Es	-1.228700	-0.329489	1.191917	99
Es	-3.007616	-0.616733	1.667703	99
Es	-2.749573	-0.412825	0.999047	99
Es	1.496100	0.735015	0.609870	99
Es	1.069898	-0.145849	-0.839646	99
Es	0.731352	-0.351319	-0.171780	99
Es	1.044605	0.183012	0.292137	99
Es	2.700165	0.994118	-0.520026	99
Es	2.969994	0.256037	-0.296215	99
Es	-0.772221	-0.198608	-0.265530	99
Es	-0.031472	-0.279065	-0.218222	99
Es	1.145625	1.398155	0.638094	99
Es	-2.950345	0.303016	0.866141	99
Es	2.549518	0.688937	-0.433732	99
Es	1.730903	0.540866	1.299184	99
Es	0.934335	-1.042392	0.028144	99
Es	-0.963374	0.514350	-0.448793	99
Es	-1.334285	-0.542419	1.000226	99
46
Properties=species:S:1:pos:R:3:Z:I:1 energy=-325.1033028381376 field_type=dipole dipole="0.000000 0.000000 0.000000" charge=0
C	-2.749790	-0.412808	0.999054	6
O	-1.334070	-0.542468	1.000554	8
C	-0.772130	-0.198549	-0.265726	6
C	0.731360	-0.351358	-0.171756	6
C	1.543911	0.154412	-1.380186	6
N	2.549790	0.689492	-0.433886	7
C	1.496000	0.735042	0.609984	6
H	-3.124310	-0.713118	1.981424	1
H	-3.194810	-1.064828	0.240994	1
H	-3.037490	0.627261	0.818004	1
H	-1.052000	0.829272	-0.525036	1
H	-1.169420	-0.874228	-1.031836	1
H	1.023650	-1.369598	0.124514	1
H	1.057020	0.934312	-1.977826	1
H	1.917390	-0.620668	-2.055736	1
H	3.288950	0.019762	-0.216026	1
H	1.831481	0.449892	1.611414	1
H	0.994461	1.708182	0.672074	1
Es	-3.057610	-0.856296	0.471021	99
Es	1.202072	0.692729	-1.778971	99
Es	-0.772223	-0.198611	-0.265528	99
Es	-1.156698	-0.408843	0.506350	99
Es	2.152567	0.449885	-0.893404	99
Es	-3.007746	-0.616752	1.667825	99
Es	1.145557	1.398181	0.637982	99
Es	1.496094	0.735016	0.609872	99
Es	1.730952	0.540606	1.299387	99
Es	2.549523	0.688945	-0.433752	99
Es	-0.963446	0.514387	-0.448890	99
Es	0.731351	-0.351320	-0.171781	99
Es	2.131752	0.729251	0.061064	99
Es	1.070131	-0.145863	-0.839825	99
Es	1.044721	0.183326	0.292091	99
Es	1.802608	-0.379239	-1.848055	99
Es	-2.950263	0.302969	0.866021	99
Es	1.543991	0.154448	-1.380080	99
Es	-1.873874	-0.476684	0.969929	99
Es	-1.279496	-0.843138	1.040264	99
Es	2.970307	0.256108	-0.296189	99
Es	0.934300	-1.042391	0.028280	99
Es	-0.031377	-0.279109	-0.218226	99
Es	2.699827	0.992513	-0.519547	99
Es	-1.334275	-0.542361	1.000255	99
Es	-2.749577	-0.412825	0.999047	99
Es	-1.227476	-0.330967	1.193600	99
Es	-1.050042	-0.663114	-0.800899	99
46
Properties=species:S:1:pos:R:3:Z:I:1 energy=-325.1033028381376 field_type=dipole dipole="0.000000 0.000000 0.000000" charge=0
C	-2.749790	-0.412808	0.999054	6
O	-1.334070	-0.542468	1.000554	8
C	-0.772130	-0.198549	-0.265726	6
C	0.731360	-0.351358	-0.171756	6
C	1.543911	0.154412	-1.380186	6
N	2.549790	0.689492	-0.433886	7
C	1.496000	0.735042	0.609984	6
H	-3.124310	-0.713118	1.981424	1
H	-3.194810	-1.064828	0.240994	1
H	-3.037490	0.627261	0.818004	1
H	-1.052000	0.829272	-0.525036	1
H	-1.169420	-0.874228	-1.031836	1
H	1.023650	-1.369598	0.124514	1
H	1.057020	0.934312	-1.977826	1
H	1.917390	-0.620668	-2.055736	1
H	3.288950	0.019762	-0.216026	1
H	1.831481	0.449892	1.611414	1
H	0.994461	1.708182	0.672074	1
Es	-3.057594	-0.856291	0.470924	99
Es	-1.276439	-0.842493	1.044980	99
Es	-1.334254	-0.542451	1.000245	99
Es	2.131575	0.729053	0.061263	99
Es	1.201970	0.692760	-1.779118	99
Es	2.152685	0.450845	-0.894245	99
Es	-0.963420	0.514423	-0.448900	99
Es	1.543991	0.154448	-1.380079	99
Es	0.731352	-0.351320	-0.171782	99
Es	-0.772221	-0.198608	-0.265529	99
Es	1.070185	-0.145794	-0.839947	99
Es	2.549490	0.688893	-0.433717	99
Es	-2.950233	0.302960	0.866076	99
Es	1.496094	0.735017	0.609871	99
Es	-3.007741	-0.616778	1.667844	99
Es	-1.050007	-0.663177	-0.800935	99
Es	2.698853	0.991327	-0.518571	99
Es	-1.874199	-0.478215	0.970083	99
Es	-0.031380	-0.279120	-0.218151	99
Es	1.145470	1.398116	0.637743	99
Es	-2.749574	-0.412823	0.999047	99
Es	-1.157280	-0.411018	0.505568	99
Es	-1.229659	-0.327790	1.189598	99
Es	2.971250	0.256558	-0.296545	99
Es	1.044875	0.183411	0.292137	99
Es	0.934269	-1.042391	0.028241	99
Es	1.731016	0.540594	1.299631	99
Es	1.802576	-0.379284	-1.847889	99
46
Properties=species:S:1:pos:R:3:Z:I:1 energy=-325.1033028381376 field_type=dipole dipole="0.000000 0.000000 0.000000" charge=0
C	-2.749790	-0.412808	0.999054	6
O	-1.334070	-0.542468	1.000554	8
C	-0.772130	-0.198549	-0.265726	6
C	0.731360	-0.351358	-0.171756	6
C	1.543911	0.154412	-1.380186	6
N	2.549790	0.689492	-0.433886	7
C	1.496000	0.735042	0.609984	6
H	-3.124310	-0.713118	1.981424	1
H	-3.194810	-1.064828	0.240994	1
H	-3.037490	0.627261	0.818004	1
H	-1.052000	0.829272	-0.525036	1
H	-1.169420	-0.874228	-1.031836	1
H	1.023650	-1.369598	0.124514	1
H	1.057020	0.934312	-1.977826	1
H	1.917390	-0.620668	-2.055736	1
H	3.288950	0.019762	-0.216026	1
H	1.831481	0.449892	1.611414	1
H	0.994461	1.708182	0.672074	1
Es	-1.873658	-0.476897	0.970194	99
Es	-1.049960	-0.663178	-0.800904	99
Es	1.045015	0.183556	0.292028	99
Es	-1.228979	-0.328279	1.189830	99
Es	2.698594	0.989822	-0.518124	99
Es	0.934259	-1.042360	0.028347	99
Es	-0.772223	-0.198610	-0.265525	99
Es	2.971469	0.256379	-0.296407	99
Es	1.145372	1.398104	0.637687	99
Es	0.731352	-0.351318	-0.171780	99
Es	-3.007744	-0.616693	1.667920	99
Es	2.131469	0.730005	0.061237	99
Es	-2.950194	0.302880	0.866041	99
Es	-2.749572	-0.412825	0.999047	99
Es	-0.963418	0.514486	-0.448936	99
Es	-0.031445	-0.279140	-0.218167	99
Es	2.549513	0.688926	-0.433729	99
Es	-1.277839	-0.842746	1.044917	99
Es	1.543991	0.154448	-1.380081	99
Es	1.802639	-0.379341	-1.847909	99
Es	1.731046	0.540437	1.299736	99
Es	1.070313	-0.145833	-0.840007	99
Es	-1.334258	-0.542335	1.000332	99
Es	1.496095	0.735017	0.609869	99
Es	-1.157115	-0.411710	0.505144	99
Es	2.152632	0.451536	-0.894748	99
Es	1.201928	0.692820	-1.779090	99
Es	-3.057634	-0.856299	0.470921	99
46
Properties=species:S:1:pos:R:3:Z:I:1 energy=-325.1033028381376 field_type=dipole dipole="0.000000 0.000000 0.000000" charge=0
C	-2.749790	-0.412808	0.999054	6
O	-1.334070	-0.542468	1.000554	8
C	-0.772130	-0.198549	-0.265726	6
C	0.731360	-0.351358	-0.171756	6
C	1.543911	0.154412	-1.380186	6
N	2.549790	0.689492	-0.433886	7
C	1.496000	0.735042	0.609984	6
H	-3.124310	-0.713118	1.981424	1
H	-3.194810	-1.064828	0.240994	1
H	-3.037490	0.627261	0.818004	1
H	-1.052000	0.829272	-0.525036	1
H	-1.169420	-0.874228	-1.031836	1
H	1.023650	-1.369598	0.124514	1
H	1.057020	0.934312	-1.977826	1
H	1.917390	-0.620668	-2.055736	1
H	3.288950	0.019762	-0.216026	1
H	1.831481	0.449892	1.611414	1
H	0.994461	1.708182	0.672074	1
Es	1.496094	0.735016	0.609870	99
Es	2.698443	0.988745	-0.518074	99
Es	-1.334305	-0.542236	1.000264	99
Es	-2.749575	-0.412825	0.999047	99
Es	-1.873519	-0.477909	0.970033	99
Es	2.971592	0.256371	-0.296400	99
Es	-1.229423	-0.327972	1.190277	99
Es	2.131521	0.730731	0.061275	99
Es	-3.057572	-0.856211	0.470889	99
Es	1.201852	0.692907	-1.779084	99
Es	-3.007811	-0.616776	1.667924	99
Es	-0.772222	-0.198609	-0.265529	99
Es	1.731014	0.540324	1.299871	99
Es	1.802663	-0.379506	-1.847883	99
Es	-1.157324	-0.410889	0.505283	99
Es	0.934209	-1.042390	0.028353	99
Es	-1.050069	-0.663155	-0.800866	99
Es	-2.950150	0.302916	0.866034	99
Es	1.145265	1.398053	0.637583	99
Es	1.045169	0.183750	0.292133	99
Es	2.549516	0.688936	-0.433731	99
Es	1.070449	-0.145672	-0.840091	99
Es	0.731351	-0.351319	-0.171778	99
Es	-0.031299	-0.279097	-0.218206	99
Es	1.543991	0.154450	-1.380080	99
Es	-0.963472	0.514423	-0.448930	99
Es	2.152496	0.451755	-0.894977	99
Es	-1.277236	-0.842961	1.044634	99
46
Properties=species:S:1:pos:R:3:Z:I:1 energy=-325.1033028381376 field_type=dipole dipole="0.000000 0.000000 0.000000" charge=0
C	-2.749790	-0.412808	0.999054	6
O	-1.334070	-0.542468	1.000554	8
C	-0.772130	-0.198549	-0.265726	6
C	0.731360	-0.351358	-0.171756	6
C	1.543911	0.154412	-1.380186	6
N	2.549790	0.689492	-0.433886	7
C	1.496000	0.735042	0.609984	6
H	-3.124310	-0.713118	1.981424	1
H	-3.194810	-1.064828	0.240994	1
H	-3.037490	0.627261	0.818004	1
H	-1.052000	0.829272	-0.525036	1
H	-1.169420	-0.874228	-1.031836	1
H	1.023650	-1.369598	0.124514	1
H	1.057020	0.934312	-1.977826	1
H	1.917390	-0.620668	-2.055736	1
H	3.288950	0.019762	-0.216026	1
H	1.831481	0.449892	1.611414	1
H	0.994461	1.708182	0.672074	1
Es	-1.049918	-0.663206	-0.800798	99
Es	-0.031249	-0.279104	-0.218248	99
Es	0.934185	-1.042456	0.028331	99
Es	-1.873535	-0.476031	0.970906	99
Es	-0.963517	0.514440	-0.449064	99
Es	1.496094	0.735016	0.609871	99
Es	2.131438	0.730588	0.061155	99
Es	-1.334279	-0.542385	1.000263	99
Es	-3.057610	-0.856260	0.470903	99
Es	-1.228198	-0.329344	1.190287	99
Es	2.152522	0.452301	-0.895395	99
Es	2.698214	0.988179	-0.517422	99
Es	-1.278470	-0.843308	1.043808	99
Es	-1.157363	-0.410923	0.505280	99
Es	1.045081	0.183879	0.292232	99
Es	1.543990	0.154448	-1.380081	99
Es	-2.950047	0.302778	0.865890	99
Es	1.070422	-0.145576	-0.840336	99
Es	-0.772223	-0.198609	-0.265528	99
Es	1.145304	1.398109	0.637571	99
Es	1.201860	0.692950	-1.779032	99
Es	2.549509	0.688886	-0.433716	99
Es	-3.007862	-0.616566	1.668069	99
Es	2.971760	0.256453	-0.296330	99
Es	-2.749575	-0.412824	0.999047	99
Es	1.802718	-0.379499	-1.847940	99
Es	0.731352	-0.351318	-0.171781	99
Es	1.731042	0.540235	1.299899	99
46
Properties=species:S:1:pos:R:3:Z:I:1 energy=-325.1033028381376 field_type=dipole dipole="0.000000 0.000000 0.000000" charge=0
C	-2.749790	-0.412808	0.999054	6
O	-1.334070	-0.542468	1.000554	8
C	-0.772130	-0.198549	-0.265726	6
C	0.731360	-0.351358	-0.171756	6
C	1.543911	0.154412	-1.380186	6
N	2.549790	0.689492	-0.433886	7
C	1.496000	0.735042	0.609984	6
H	-3.124310	-0.713118	1.981424	1
H	-3.194810	-1.064828	0.240994	1
H	-3.037490	0.627261	0.818004	1
H	-1.052000	0.829272	-0.525036	1
H	-1.169420	-0.874228	-1.031836	1
H	1.023650	-1.369598	0.124514	1
H	1.057020	0.934312	-1.977826	1
H	1.917390	-0.620668	-2.055736	1
H	3.288950	0.019762	-0.216026	1
H	1.831481	0.449892	1.611414	1
H	0.994461	1.708182	0.672074	1
Es	1.070575	-0.145571	-0.840224	99
Es	2.152565	0.452666	-0.895996	99
Es	0.934238	-1.042436	0.028438	99
Es	-3.007810	-0.616854	1.668124	99
Es	1.802574	-0.379556	-1.847873	99
Es	-3.057431	-0.856195	0.470808	99
Es	-1.228443	-0.329138	1.190135	99
Es	1.496094	0.735017	0.609871	99
Es	-0.031307	-0.279210	-0.218148	99
Es	-1.334294	-0.542437	1.000247	99
Es	-0.963451	0.514546	-0.449037	99
Es	1.731000	0.540234	1.299968	99
Es	2.697667	0.986728	-0.517137	99
Es	0.731352	-0.351319	-0.171781	99
Es	-1.278372	-0.843230	1.044243	99
Es	-2.749575	-0.412825	0.999047	99
Es	1.145179	1.398042	0.637490	99
Es	1.543990	0.154447	-1.380080	99
Es	1.201758	0.693017	-1.779057	99
Es	-2.950144	0.302846	0.865967	99
Es	-1.157295	-0.411171	0.505311	99
Es	2.549521	0.688917	-0.433725	99
Es	2.131588	0.731460	0.061527	99
Es	-1.049887	-0.663181	-0.800828	99
Es	-1.873635	-0.475892	0.970504	99
Es	-0.772222	-0.198609	-0.265529	99
Es	2.972221	0.256715	-0.296472	99
Es	1.045191	0.183841	0.292047	99
46
Properties=species:S:1:pos:R:3:Z:I:1 energy=-325.1033028381376 field_type=dipole dipole="0.000000 0.000000 0.000000" charge=0
C	-2.749790	-0.412808	0.999054	6
O	-1.334070	-0.542468	1.000554	8
C	-0.772130	-0.198549	-0.265726	6
C	0.731360	-0.351358	-0.171756	6
C	1.543911	0.154412	-1.380186	6
N	2.549790	0.689492	-0.433886	7
C	1.496000	0.735042	0.609984	6
H	-3.124310	-0.713118	1.981424	1
H	-3.194810	-1.064828	0.240994	1
H	-3.037490	0.627261	0.818004	1
H	-1.052000	0.829272	-0.525036	1
H	-1.169420	-0.874228	-1.031836	1
H	1.023650	-1.369598	0.124514	1
H	1.057020	0.934312	-1.977826	1
H	1.917390	-0.620668	-2.055736	1
H	3.288950	0.019762	-0.216026	1
H	1.831481	0.449892	1.611414	1
H	0.994461	1.708182	0.672074	1
Es	-2.749575	-0.412826	0.999047	99
Es	1.070536	-0.145601	-0.840337	99
Es	1.201734	0.692997	-1.779152	99
Es	1.496095	0.735016	0.609870	99
Es	-1.280008	-0.843863	1.044297	99
Es	2.972113	0.256683	-0.296430	99
Es	2.549517	0.688908	-0.433722	99
Es	-1.157410	-0.412052	0.504829	99
Es	-2.950012	0.302773	0.865941	99
Es	2.131446	0.731186	0.061419	99
Es	-1.050021	-0.663198	-0.800937	99
Es	2.697768	0.986856	-0.516960	99
Es	1.731101	0.540176	1.300100	99
Es	-3.007870	-0.616613	1.668093	99
Es	-1.226880	-0.330713	1.188985	99
Es	-0.772222	-0.198609	-0.265529	99
Es	0.731352	-0.351318	-0.171781	99
Es	-0.963410	0.514436	-0.448938	99
Es	-3.057557	-0.856245	0.470780	99
Es	1.045269	0.183973	0.292180	99
Es	0.934158	-1.042424	0.028342	99
Es	-1.334305	-0.542436	1.000250	99
Es	-0.031204	-0.279136	-0.218159	99
Es	-1.873322	-0.472878	0.972202	99
Es	1.802636	-0.379543	-1.847786	99
Es	2.152517	0.452812	-0.896072	99
Es	1.145212	1.398042	0.637387	99
Es	1.543990	0.154449	-1.380081	99
46
Properties=species:S:1:pos:R:3:Z:I:1 energy=-325.1033028381376 field_type=dipole dipole="0.000000 0.000000 0.000000" charge=0
C	-2.749790	-0.412808	0.999054	6
O	-1.334070	-0.542468	1.000554	8
C	-0.772130	-0.198549	-0.265726	6
C	0.731360	-0.351358	-0.171756	6
C	1.543911	0.154412	-1.380186	6
N	2.549790	0.689492	-0.433886	7
C	1.496000	0.735042	0.609984	6
H	-3.124310	-0.713118	1.981424	1
H	-3.194810	-1.064828	0.240994	1
H	-3.037490	0.627261	0.818004	1
H	-1.052000	0.829272	-0.525036	1
H	-1.169420	-0.874228	-1.031836	1
H	1.023650	-1.369598	0.124514	1
H	1.057020	0.934312	-1.977826	1
H	1.917390	-0.620668	-2.055736	1
H	3.288950	0.019762	-0.216026	1
H	1.831481	0.449892	1.611414	1
H	0.994461	1.708182	0.672074	1
Es	-1.279048	-0.842535	1.044313	99
Es	1.802719	-0.379530	-1.847666	99
Es	-1.049963	-0.663204	-0.800820	99
Es	-2.950126	0.302905	0.865908	99
Es	2.131257	0.731469	0.061366	99
Es	0.934188	-1.042486	0.028466	99
Es	2.549510	0.688960	-0.433740	99
Es	-3.057399	-0.856095	0.470889	99
Es	-0.031266	-0.279147	-0.218178	99
Es	-1.227463	-0.328511	1.190245	99
Es	1.145052	1.398119	0.637346	99
Es	1.543991	0.154448	-1.380081	99
Es	-2.749576	-0.412825	0.999047	99
Es	-1.157602	-0.412679	0.504724	99
Es	-1.873486	-0.475831	0.970972	99
Es	-3.007882	-0.616905	1.668106	99
Es	-1.334266	-0.542433	1.000240	99
Es	1.201668	0.693130	-1.779255	99
Es	2.152651	0.453229	-0.896491	99
Es	-0.772222	-0.198608	-0.265529	99
Es	1.070652	-0.145586	-0.840366	99
Es	1.496094	0.735017	0.609871	99
Es	-0.963480	0.514579	-0.449003	99
Es	0.731352	-0.351319	-0.171780	99
Es	1.731080	0.540108	1.300065	99
Es	1.045372	0.183982	0.292165	99
Es	2.697406	0.985868	-0.516568	99
Es	2.972437	0.256733	-0.296406	99
46
Properties=species:S:1:pos:R:3:Z:I:1 energy=-325.1033028381376 field_type=dipole dipole="0.000000 0.000000 0.000000" charge=0
C	-2.749790	-0.412808	0.999054	6
O	-1.334070	-0.542468	1.000554	8
C	-0.772130	-0.198549	-0.265726	6
C	0.731360	-0.351358	-0.171756	6
C	1.543911	0.154412	-1.380186	6
N	2.549790	0.689492	-0.433886	7
C	1.496000	0.735042	0.609984	6
H	-3.124310	-0.713118	1.981424	1
H	-3.194810	-1.064828	0.240994	1
H	-3.037490	0.627261	0.818004	1
H	-1.052000	0.829272	-0.525036	1
H	-1.169420	-0.874228	-1.031836	1
H	1.023650	-1.369598	0.124514	1
H	1.057020	0.934312	-1.977826	1
H	1.917390	-0.620668	-2.055736	1
H	3.288950	0.019762	-0.216026	1
H	1.831481	0.449892	1.611414	1
H	0.994461	1.708182	0.672074	1
Es	-1.157641	-0.412856	0.504633	99
Es	-0.031269	-0.279066	-0.218159	99
Es	-1.277043	-0.842898	1.046974	99
Es	-2.749575	-0.412825	0.999047	99
Es	2.152756	0.453668	-0.896728	99
Es	1.145192	1.398045	0.637274	99
Es	1.543991	0.154449	-1.380080	99
Es	1.802656	-0.379594	-1.847750	99
Es	1.045317	0.183980	0.292039	99
Es	1.731061	0.540111	1.300206	99
Es	-1.049925	-0.663247	-0.800807	99
Es	-0.772223	-0.198610	-0.265530	99
Es	0.934125	-1.042444	0.028467	99
Es	-3.007900	-0.616707	1.668153	99
Es	-1.873570	-0.476632	0.970847	99
Es	0.731353	-0.351317	-0.171782	99
Es	-3.057504	-0.856152	0.470790	99
Es	2.697602	0.985082	-0.516465	99
Es	2.549517	0.688937	-0.433731	99
Es	1.070746	-0.145563	-0.840429	99
Es	-1.334268	-0.542278	1.000284	99
Es	-0.963496	0.514511	-0.449066	99
Es	-2.949998	0.302797	0.865912	99
Es	2.972189	0.256475	-0.296367	99
Es	1.496096	0.735017	0.609872	99
Es	-1.229375	-0.327295	1.187843	99
Es	2.131215	0.732171	0.061546	99
Es	1.201617	0.693093	-1.779151	99
