46
Properties=species:S:1:pos:R:3:Z:I:1 energy=-325.1276877210381 field_type=dipole dipole="0.000000 0.000000 0.000000" charge=0
C	0.179260	-2.247800	0.397409	6
O	-0.236089	-0.968890	0.860239	8
C	-0.356209	-0.000570	-0.196241	6
C	-1.196189	1.186520	0.350079	6
N	-0.623249	1.817620	1.550939	7
C	1.014371	0.443440	-0.639391	6
C	1.484820	0.335070	-1.890471	6
H	0.141491	-2.943570	1.240319	1
H	1.208691	-2.215020	0.029059	1
H	-0.491489	-2.616330	-0.384771	1
H	-0.916429	-0.445710	-1.028771	1
H	-2.188509	0.807130	0.621879	1
H	-1.328679	1.948770	-0.425391	1
H	-0.370729	1.062450	2.193539	1
H	-1.342709	2.365670	2.017269	1
H	1.645541	0.883930	0.129659	1
H	0.891661	-0.093790	-2.691191	1
H	2.484451	0.681080	-2.134161	1
Es	-1.882848	0.916753	0.523881	99
Es	-0.280627	-2.497977	-0.147344	99
Es	-0.264942	-0.628336	0.435562	99
Es	-1.283554	1.701318	-0.187427	99
Es	0.152196	-2.721426	0.971257	99
Es	-0.522777	-1.007380	0.963509	99
Es	1.126909	0.679958	-1.347019	99
Es	1.084123	0.043395	-2.438013	99
Es	-0.623694	1.817281	1.551056	99
Es	0.880789	-2.227664	0.138822	99
Es	1.484849	0.335065	-1.890573	99
Es	-0.881538	1.533703	1.036051	99
Es	0.337497	0.222670	-0.427812	99
Es	-0.235970	-0.968943	0.859912	99
Es	1.014308	0.443432	-0.639307	99
Es	-0.753983	0.599034	0.082191	99
Es	-0.492770	1.362242	1.936805	99
Es	0.179181	-2.247593	0.397482	99
Es	-1.074246	2.133067	1.827079	99
Es	-0.074082	-1.439699	0.649319	99
Es	-0.736966	-0.307236	-0.774414	99
Es	1.368054	0.088014	-1.208876	99
Es	-0.356163	-0.000672	-0.196051	99
Es	-0.338742	2.018599	1.475291	99
Es	-0.012351	-0.863865	1.043661	99
Es	1.434247	0.733849	-0.117317	99
Es	2.160709	0.567209	-2.064713	99
Es	-1.196092	1.186540	0.350176	99
46
Properties=species:S:1:pos:R:3:Z:I:1 energy=-325.1276877210381 field_type=dipole dipole="0.000000 0.000000 0.000000" charge=0
C	0.179260	-2.247800	0.397409	6
O	-0.236089	-0.968890	0.860239	8
C	-0.356209	-0.000570	-0.196241	6
C	-1.196189	1.186520	0.350079	6
N	-0.623249	1.817620	1.550939	7
C	1.014371	0.443440	-0.639391	6
C	1.484820	0.335070	-1.890471	6
H	0.141491	-2.943570	1.240319	1
H	1.208691	-2.215020	0.029059	1
H	-0.491489	-2.616330	-0.384771	1
H	-0.916429	-0.445710	-1.028771	1
H	-2.188509	0.807130	0.621879	1
H	-1.328679	1.948770	-0.425391	1
H	-0.370729	1.062450	2.193539	1
H	-1.342709	2.365670	2.017269	1
H	1.645541	0.883930	0.129659	1
H	0.891661	-0.093790	-2.691191	1
H	2.484451	0.681080	-2.134161	1
Es	-0.492079	1.362026	1.936358	99
Es	-1.284066	1.701645	-0.187583	99
Es	1.368830	0.086070	-1.208461	99
Es	1.484851	0.335061	-1.890570	99
Es	1.126275	0.682060	-1.347521	99
Es	-0.264346	-0.627214	0.435129	99
Es	-0.279728	-2.496949	-0.147229	99
Es	0.151739	-2.722636	0.971800	99
Es	0.880383	-2.227339	0.138345	99
Es	-0.356163	-0.000674	-0.196051	99
Es	-0.236061	-0.968985	0.859857	99
Es	-1.196087	1.186543	0.350178	99
Es	0.179187	-2.247596	0.397478	99
Es	-1.074304	2.134945	1.827775	99
Es	-0.073229	-1.439162	0.649821	99
Es	-0.011791	-0.867333	1.032238	99
Es	-0.754140	0.599145	0.081969	99
Es	-1.881987	0.916861	0.523632	99
Es	1.433792	0.733181	-0.117365	99
Es	1.014309	0.443426	-0.639305	99
Es	1.084564	0.043947	-2.438145	99
Es	0.337959	0.222411	-0.427514	99
Es	2.159818	0.567064	-2.064930	99
Es	-0.524737	-1.005553	0.974989	99
Es	-0.342485	2.015181	1.479497	99
Es	-0.736633	-0.307357	-0.774359	99
Es	-0.623717	1.817274	1.551062	99
Es	-0.878635	1.535300	1.032093	99
46
Properties=species:S:1:pos:R:3:Z:I:1 energy=-325.1276877210381 field_type=dipole dipole="0.000000 0.000000 0.000000" charge=0
C	0.179260	-2.247800	0.397409	6
O	-0.236089	-0.968890	0.860239	8
C	-0.356209	-0.000570	-0.196241	6
C	-1.196189	1.186520	0.350079	6
N	-0.623249	1.817620	1.550939	7
C	1.014371	0.443440	-0.639391	6
C	1.484820	0.335070	-1.890471	6
H	0.141491	-2.943570	1.240319	1
H	1.208691	-2.215020	0.029059	1
H	-0.491489	-2.616330	-0.384771	1
H	-0.916429	-0.445710	-1.028771	1
H	-2.188509	0.807130	0.621879	1
H	-1.328679	1.948770	-0.425391	1
H	-0.370729	1.062450	2.193539	1
H	-1.342709	2.365670	2.017269	1
H	1.645541	0.883930	0.129659	1
H	0.891661	-0.093790	-2.691191	1
H	2.484451	0.681080	-2.134161	1
Es	-0.279574	-2.496456	-0.147037	99
Es	1.014305	0.443434	-0.639304	99
Es	-0.346657	2.011949	1.484073	99
Es	-0.623708	1.817285	1.551054	99
Es	-0.356162	-0.000673	-0.196051	99
Es	0.338183	0.222036	-0.427255	99
Es	-1.284179	1.701714	-0.187766	99
Es	-0.235900	-0.968929	0.859911	99
Es	-0.874860	1.537126	1.027724	99
Es	0.879797	-2.226921	0.137697	99
Es	0.179187	-2.247591	0.397479	99
Es	-0.073965	-1.439017	0.650313	99
Es	-1.074577	2.136108	1.828400	99
Es	-0.010064	-0.871145	1.016755	99
Es	-0.491542	1.362215	1.935847	99
Es	2.159320	0.567011	-2.064927	99
Es	1.484849	0.335067	-1.890574	99
Es	0.152053	-2.723297	0.972308	99
Es	-0.524923	-1.001746	0.990880	99
Es	-0.754119	0.599366	0.081924	99
Es	1.126165	0.683077	-1.347733	99
Es	1.433590	0.732685	-0.117435	99
Es	-1.196087	1.186540	0.350178	99
Es	-0.736488	-0.307441	-0.774391	99
Es	1.369190	0.085321	-1.208280	99
Es	-0.265259	-0.627520	0.434343	99
Es	-1.881623	0.916856	0.523447	99
Es	1.084568	0.044287	-2.438394	99
46
Properties=species:S:1:pos:R:3:Z:I:1 energy=-325.1276877210381 field_type=dipole dipole="0.000000 0.000000 0.000000" charge=0
C	0.179260	-2.247800	0.397409	6
O	-0.236089	-0.968890	0.860239	8
C	-0.356209	-0.000570	-0.196241	6
C	-1.196189	1.186520	0.350079	6
N	-0.623249	1.817620	1.550939	7
C	1.014371	0.443440	-0.639391	6
C	1.484820	0.335070	-1.890471	6
H	0.141491	-2.943570	1.240319	1
H	1.208691	-2.215020	0.029059	1
H	-0.491489	-2.616330	-0.384771	1
H	-0.916429	-0.445710	-1.028771	1
H	-2.188509	0.807130	0.621879	1
H	-1.328679	1.948770	-0.425391	1
H	-0.370729	1.062450	2.193539	1
H	-1.342709	2.365670	2.017269	1
H	1.645541	0.883930	0.129659	1
H	0.891661	-0.093790	-2.691191	1
H	2.484451	0.681080	-2.134161	1
Es	-0.076315	-1.439171	0.650430	99
Es	1.126059	0.683207	-1.347787	99
Es	-0.491408	1.362355	1.935285	99
Es	1.433612	0.732645	-0.117294	99
Es	-0.356162	-0.000675	-0.196051	99
Es	-1.196087	1.186540	0.350179	99
Es	-0.236071	-0.968982	0.859872	99
Es	-0.350042	2.009499	1.487737	99
Es	1.014302	0.443431	-0.639303	99
Es	-1.881306	0.916730	0.523241	99
Es	2.158790	0.567188	-2.064705	99
Es	-0.623589	1.817378	1.551006	99
Es	-0.279453	-2.496200	-0.147155	99
Es	-1.074571	2.136431	1.829048	99
Es	-0.736393	-0.307581	-0.774743	99
Es	1.084648	0.044250	-2.438804	99
Es	0.879664	-2.226617	0.137629	99
Es	-0.520705	-0.995243	1.014254	99
Es	0.179185	-2.247597	0.397479	99
Es	0.338302	0.222131	-0.426970	99
Es	-0.008911	-0.876878	0.994432	99
Es	1.484850	0.335065	-1.890574	99
Es	-1.284270	1.701690	-0.188001	99
Es	-0.754205	0.599471	0.081938	99
Es	-0.268174	-0.628221	0.433306	99
Es	1.369450	0.085035	-1.208208	99
Es	0.152045	-2.723541	0.972545	99
Es	-0.871725	1.539001	1.024402	99
46
Properties=species:S:1:pos:R:3:Z:I:1 energy=-325.1276877210381 field_type=dipole dipole="0.000000 0.000000 0.000000" charge=0
C	0.179260	-2.247800	0.397409	6
O	-0.236089	-0.968890	0.860239	8
C	-0.356209	-0.000570	-0.196241	6
C	-1.196189	1.186520	0.350079	6
N	-0.623249	1.817620	1.550939	7
C	1.014371	0.443440	-0.639391	6
C	1.484820	0.335070	-1.890471	6
H	0.141491	-2.943570	1.240319	1
H	1.208691	-2.215020	0.029059	1
H	-0.491489	-2.616330	-0.384771	1
H	-0.916429	-0.445710	-1.028771	1
H	-2.188509	0.807130	0.621879	1
H	-1.328679	1.948770	-0.425391	1
H	-0.370729	1.062450	2.193539	1
H	-1.342709	2.365670	2.017269	1
H	1.645541	0.883930	0.129659	1
H	0.891661	-0.093790	-2.691191	1
H	2.484451	0.681080	-2.134161	1
Es	0.879570	-2.226490	0.137772	99
Es	0.179181	-2.247586	0.397481	99
Es	1.433852	0.732469	-0.116989	99
Es	-0.490648	1.362977	1.935197	99
Es	-0.623667	1.817321	1.551081	99
Es	-0.870495	1.539432	1.023081	99
Es	1.014307	0.443427	-0.639303	99
Es	-1.284176	1.701518	-0.188125	99
Es	0.338339	0.222231	-0.426851	99
Es	-0.754213	0.599585	0.081920	99
Es	-0.279442	-2.496161	-0.147367	99
Es	0.152067	-2.723548	0.972694	99
Es	1.084547	0.044325	-2.439319	99
Es	-1.196086	1.186541	0.350179	99
Es	-0.736413	-0.307683	-0.775094	99
Es	-1.881273	0.916587	0.523037	99
Es	1.126277	0.682981	-1.347748	99
Es	-0.510394	-0.984976	1.042317	99
Es	-1.074510	2.135979	1.829451	99
Es	-0.236223	-0.969017	0.859819	99
Es	1.369135	0.085288	-1.208310	99
Es	-0.356162	-0.000672	-0.196053	99
Es	-0.011698	-0.885308	0.967518	99
Es	-0.271204	-0.629421	0.432525	99
Es	1.484849	0.335067	-1.890574	99
Es	-0.080676	-1.439774	0.650174	99
Es	2.158603	0.567253	-2.064295	99
Es	-0.351926	2.008994	1.488971	99
46
Properties=species:S:1:pos:R:3:Z:I:1 energy=-325.1276877210381 field_type=dipole dipole="0.000000 0.000000 0.000000" charge=0
C	0.179260	-2.247800	0.397409	6
O	-0.236089	-0.968890	0.860239	8
C	-0.356209	-0.000570	-0.196241	6
C	-1.196189	1.186520	0.350079	6
N	-0.623249	1.817620	1.550939	7
C	1.014371	0.443440	-0.639391	6
C	1.484820	0.335070	-1.890471	6
H	0.141491	-2.943570	1.240319	1
H	1.208691	-2.215020	0.029059	1
H	-0.491489	-2.616330	-0.384771	1
H	-0.916429	-0.445710	-1.028771	1
H	-2.188509	0.807130	0.621879	1
H	-1.328679	1.948770	-0.425391	1
H	-0.370729	1.062450	2.193539	1
H	-1.342709	2.365670	2.017269	1
H	1.645541	0.883930	0.129659	1
H	0.891661	-0.093790	-2.691191	1
H	2.484451	0.681080	-2.134161	1
Es	-1.284062	1.701373	-0.188160	99
Es	1.484850	0.335065	-1.890575	99
Es	-0.867977	1.540889	1.021053	99
Es	1.014307	0.443428	-0.639303	99
Es	2.158478	0.567296	-2.064272	99
Es	1.126396	0.682767	-1.347662	99
Es	-0.015523	-0.888920	0.956940	99
Es	0.179184	-2.247598	0.397480	99
Es	-0.352819	2.007930	1.491724	99
Es	-0.356161	-0.000675	-0.196050	99
Es	-0.491924	1.363123	1.934532	99
Es	-0.272102	-0.629685	0.432157	99
Es	-0.505557	-0.981581	1.053165	99
Es	0.879570	-2.226384	0.137909	99
Es	0.338467	0.222061	-0.427019	99
Es	-0.279499	-2.496013	-0.147593	99
Es	-0.080889	-1.439381	0.650355	99
Es	-1.074861	2.135495	1.829686	99
Es	1.369179	0.085340	-1.208350	99
Es	-1.881230	0.916667	0.522805	99
Es	-0.236081	-0.968989	0.859852	99
Es	1.433890	0.732529	-0.116826	99
Es	-0.623694	1.817303	1.551043	99
Es	0.151970	-2.723531	0.972865	99
Es	1.084366	0.044465	-2.439461	99
Es	-0.736630	-0.307713	-0.775124	99
Es	-0.754044	0.599535	0.081841	99
Es	-1.196086	1.186542	0.350178	99
46
Properties=species:S:1:pos:R:3:Z:I:1 energy=-325.1276877210381 field_type=dipole dipole="0.000000 0.000000 0.000000" charge=0
C	0.179260	-2.247800	0.397409	6
O	-0.236089	-0.968890	0.860239	8
C	-0.356209	-0.000570	-0.196241	6
C	-1.196189	1.186520	0.350079	6
N	-0.623249	1.817620	1.550939	7
C	1.014371	0.443440	-0.639391	6
C	1.484820	0.335070	-1.890471	6
H	0.141491	-2.943570	1.240319	1
H	1.208691	-2.215020	0.029059	1
H	-0.491489	-2.616330	-0.384771	1
H	-0.916429	-0.445710	-1.028771	1
H	-2.188509	0.807130	0.621879	1
H	-1.328679	1.948770	-0.425391	1
H	-0.370729	1.062450	2.193539	1
H	-1.342709	2.365670	2.017269	1
H	1.645541	0.883930	0.129659	1
H	0.891661	-0.093790	-2.691191	1
H	2.484451	0.681080	-2.134161	1
Es	-0.279611	-2.496011	-0.147502	99
Es	-1.283981	1.701265	-0.188187	99
Es	-0.272155	-0.630205	0.431411	99
Es	-0.082074	-1.439224	0.650894	99
Es	-1.074760	2.135217	1.830131	99
Es	-0.499061	-0.976573	1.065136	99
Es	1.484851	0.335065	-1.890574	99
Es	1.126639	0.682535	-1.347587	99
Es	-0.491707	1.363462	1.934214	99
Es	-0.754026	0.599640	0.081868	99
Es	1.369050	0.085643	-1.208410	99
Es	-0.623780	1.817244	1.551078	99
Es	-0.020814	-0.893612	0.945172	99
Es	0.152049	-2.723477	0.972937	99
Es	-0.353429	2.007675	1.492250	99
Es	2.158389	0.567331	-2.064072	99
Es	-0.867580	1.541134	1.020606	99
Es	0.879581	-2.226268	0.137762	99
Es	1.014302	0.443435	-0.639302	99
Es	-0.236054	-0.968948	0.859862	99
Es	1.084249	0.044449	-2.439722	99
Es	-1.881221	0.916542	0.522616	99
Es	-1.196085	1.186540	0.350181	99
Es	-0.356162	-0.000673	-0.196052	99
Es	0.179185	-2.247598	0.397478	99
Es	1.434006	0.732447	-0.116653	99
Es	-0.736783	-0.307777	-0.775221	99
Es	0.338501	0.222083	-0.427125	99
46
Properties=species:S:1:pos:R:3:Z:I:1 energy=-325.1276877210381 field_type=dipole dipole="0.000000 0.000000 0.000000" charge=0
C	0.179260	-2.247800	0.397409	6
O	-0.236089	-0.968890	0.860239	8
C	-0.356209	-0.000570	-0.196241	6
C	-1.196189	1.186520	0.350079	6
N	-0.623249	1.817620	1.550939	7
C	1.014371	0.443440	-0.639391	6
C	1.484820	0.335070	-1.890471	6
H	0.141491	-2.943570	1.240319	1
H	1.208691	-2.215020	0.029059	1
H	-0.491489	-2.616330	-0.384771	1
H	-0.916429	-0.445710	-1.028771	1
H	-2.188509	0.807130	0.621879	1
H	-1.328679	1.948770	-0.425391	1
H	-0.370729	1.062450	2.193539	1
H	-1.342709	2.365670	2.017269	1
H	1.645541	0.883930	0.129659	1
H	0.891661	-0.093790	-2.691191	1
H	2.484451	0.681080	-2.134161	1
Es	-0.026803	-0.898534	0.932418	99
Es	-0.492156	1.363647	1.933515	99
Es	-0.489553	-0.970915	1.078259	99
Es	-0.273993	-0.630728	0.431283	99
Es	-0.235964	-0.968921	0.859897	99
Es	1.434306	0.732315	-0.116665	99
Es	-0.866297	1.541802	1.019636	99
Es	2.158623	0.567251	-2.064028	99
Es	0.338446	0.222274	-0.426863	99
Es	-0.623729	1.817277	1.551067	99
Es	-1.881415	0.916376	0.522607	99
Es	0.879723	-2.226160	0.137814	99
Es	-1.075278	2.134091	1.830556	99
Es	1.368612	0.086055	-1.208573	99
Es	0.179185	-2.247601	0.397479	99
Es	1.126872	0.682256	-1.347511	99
Es	1.084051	0.044554	-2.439736	99
Es	-1.196087	1.186541	0.350177	99
Es	-0.736828	-0.307815	-0.775429	99
Es	1.484851	0.335068	-1.890575	99
Es	0.152049	-2.723340	0.972916	99
Es	-1.283858	1.701177	-0.188180	99
Es	-0.083968	-1.439546	0.650772	99
Es	-0.279754	-2.496033	-0.147563	99
Es	-0.753989	0.599594	0.081744	99
Es	1.014308	0.443426	-0.639303	99
Es	-0.356162	-0.000673	-0.196053	99
Es	-0.353676	2.007902	1.493526	99
46
Properties=species:S:1:pos:R:3:Z:I:1 energy=-325.1276877210381 field_type=dipole dipole="0.000000 0.000000 0.000000" charge=0
C	0.179260	-2.247800	0.397409	6
O	-0.236089	-0.968890	0.860239	8
C	-0.356209	-0.000570	-0.196241	6
C	-1.196189	1.186520	0.350079	6
N	-0.623249	1.817620	1.550939	7
C	1.014371	0.443440	-0.639391	6
C	1.484820	0.335070	-1.890471	6
H	0.141491	-2.943570	1.240319	1
H	1.208691	-2.215020	0.029059	1
H	-0.491489	-2.616330	-0.384771	1
H	-0.916429	-0.445710	-1.028771	1
H	-2.188509	0.807130	0.621879	1
H	-1.328679	1.948770	-0.425391	1
H	-0.370729	1.062450	2.193539	1
H	-1.342709	2.365670	2.017269	1
H	1.645541	0.883930	0.129659	1
H	0.891661	-0.093790	-2.691191	1
H	2.484451	0.681080	-2.134161	1
Es	1.368634	0.086207	-1.208624	99
Es	0.338466	0.222238	-0.426868	99
Es	1.484849	0.335067	-1.890577	99
Es	-0.354817	2.007762	1.493881	99
Es	-0.491287	1.364155	1.932946	99
Es	-0.623620	1.817351	1.551008	99
Es	-0.754051	0.599737	0.081846	99
Es	1.014305	0.443428	-0.639302	99
Es	1.083963	0.044511	-2.439756	99
Es	1.434307	0.732373	-0.116662	99
Es	-0.865808	1.541863	1.019316	99
Es	-0.736879	-0.307851	-0.775454	99
Es	-1.075599	2.133577	1.831296	99
Es	0.879764	-2.226108	0.137842	99
Es	2.158660	0.567306	-2.064017	99
Es	1.126945	0.682037	-1.347439	99
Es	-0.279807	-2.495992	-0.147615	99
Es	-0.084428	-1.438528	0.650866	99
Es	-1.881455	0.916276	0.522476	99
Es	-0.356164	-0.000666	-0.196060	99
Es	-0.274174	-0.630932	0.430649	99
Es	0.179186	-2.247597	0.397479	99
Es	-0.236163	-0.968996	0.859848	99
Es	-0.485285	-0.969103	1.084406	99
Es	-1.196086	1.186541	0.350179	99
Es	-1.283731	1.701101	-0.188246	99
Es	0.151966	-2.723261	0.973063	99
Es	-0.030174	-0.901155	0.926707	99
46
Properties=species:S:1:pos:R:3:Z:I:1 energy=-325.1276877210381 field_type=dipole dipole="0.000000 0.000000 0.000000" charge=0
C	0.179260	-2.247800	0.397409	6
O	-0.236089	-0.968890	0.860239	8
C	-0.356209	-0.000570	-0.196241	6
C	-1.196189	1.186520	0.350079	6
N	-0.623249	1.817620	1.550939	7
C	1.014371	0.443440	-0.639391	6
C	1.484820	0.335070	-1.890471	6
H	0.141491	-2.943570	1.240319	1
H	1.208691	-2.215020	0.029059	1
H	-0.491489	-2.616330	-0.384771	1
H	-0.916429	-0.445710	-1.028771	1
H	-2.188509	0.807130	0.621879	1
H	-1.328679	1.948770	-0.425391	1
H	-0.370729	1.062450	2.193539	1
H	-1.342709	2.365670	2.017269	1
H	1.645541	0.883930	0.129659	1
H	0.891661	-0.093790	-2.691191	1
H	2.484451	0.681080	-2.134161	1
Es	-0.274452	-0.631338	0.430421	99
Es	2.158674	0.567353	-2.063843	99
Es	1.127057	0.681827	-1.347476	99
Es	-1.075552	2.133791	1.831279	99
Es	-1.881564	0.916218	0.522380	99
Es	-0.235988	-0.969008	0.859891	99
Es	-0.864272	1.542812	1.018182	99
Es	0.879780	-2.226000	0.137810	99
Es	-0.354837	2.006649	1.495424	99
Es	-0.083510	-1.438274	0.651194	99
Es	-0.279857	-2.495918	-0.147627	99
Es	-0.492758	1.364206	1.932574	99
Es	1.083939	0.044483	-2.439922	99
Es	1.368409	0.086504	-1.208644	99
Es	1.484850	0.335066	-1.890575	99
Es	-1.196087	1.186541	0.350179	99
Es	-0.623725	1.817284	1.551056	99
Es	-0.356162	-0.000673	-0.196053	99
Es	-0.482822	-0.967928	1.087769	99
Es	0.151948	-2.723243	0.973169	99
Es	-0.737026	-0.307831	-0.775438	99
Es	1.434445	0.732319	-0.116584	99
Es	1.014303	0.443430	-0.639303	99
Es	0.179185	-2.247597	0.397479	99
Es	-0.753851	0.599739	0.081700	99
Es	-1.283656	1.701000	-0.188140	99
Es	-0.033465	-0.902270	0.923261	99
Es	0.338513	0.222198	-0.426975	99
46
Properties=species:S:1:pos:R:3:Z:I:1 energy=-325.1276877210381 field_type=dipole dipole="0.000000 0.000000 0.000000" charge=0
C	0.179260	-2.247800	0.397409	6
O	-0.236089	-0.968890	0.860239	8
C	-0.356209	-0.000570	-0.196241	6
C	-1.196189	1.186520	0.350079	6
N	-0.623249	1.817620	1.550939	7
C	1.014371	0.443440	-0.639391	6
C	1.484820	0.335070	-1.890471	6
H	0.141491	-2.943570	1.240319	1
H	1.208691	-2.215020	0.029059	1
H	-0.491489	-2.616330	-0.384771	1
H	-0.916429	-0.445710	-1.028771	1
H	-2.188509	0.807130	0.621879	1
H	-1.328679	1.948770	-0.425391	1
H	-0.370729	1.062450	2.193539	1
H	-1.342709	2.365670	2.017269	1
H	1.645541	0.883930	0.129659	1
H	0.891661	-0.093790	-2.691191	1
H	2.484451	0.681080	-2.134161	1
Es	1.434777	0.731253	-0.118902	99
Es	0.337752	0.222978	-0.427836	99
Es	-0.356163	-0.000672	-0.196054	99
Es	-0.623763	1.817265	1.551080	99
Es	-0.235523	-0.968885	0.859912	99
Es	1.366504	0.088201	-1.209604	99
Es	-1.079288	2.127293	1.832197	99
Es	-0.871522	1.537217	1.025696	99
Es	-0.031102	-1.420102	0.666033	99
Es	1.128797	0.680100	-1.346616	99
Es	0.150360	-2.722125	0.972337	99
Es	-0.338704	2.017723	1.489015	99
Es	0.179185	-2.247600	0.397479	99
Es	1.484850	0.335067	-1.890575	99
Es	-0.244912	-0.617233	0.438149	99
Es	-1.282082	1.700490	-0.186526	99
Es	-0.497186	1.365133	1.928561	99
Es	-0.251631	-0.885245	1.178430	99
Es	-1.196086	1.186540	0.350179	99
Es	0.882252	-2.226678	0.136085	99
Es	-0.737665	-0.307274	-0.772837	99
Es	-0.347526	-1.017888	0.809635	99
Es	1.014303	0.443434	-0.639302	99
Es	-1.884857	0.915929	0.523357	99
Es	-0.754080	0.599433	0.080868	99
Es	2.162219	0.567030	-2.065721	99
Es	-0.280605	-2.495622	-0.145045	99
Es	1.083214	0.045578	-2.436808	99
46
Properties=species:S:1:pos:R:3:Z:I:1 energy=-325.1276877210381 field_type=dipole dipole="0.000000 0.000000 0.000000" charge=0
C	0.179260	-2.247800	0.397409	6
O	-0.236089	-0.968890	0.860239	8
C	-0.356209	-0.000570	-0.196241	6
C	-1.196189	1.186520	0.350079	6
N	-0.623249	1.817620	1.550939	7
C	1.014371	0.443440	-0.639391	6
C	1.484820	0.335070	-1.890471	6
H	0.141491	-2.943570	1.240319	1
H	1.208691	-2.215020	0.029059	1
H	-0.491489	-2.616330	-0.384771	1
H	-0.916429	-0.445710	-1.028771	1
H	-2.188509	0.807130	0.621879	1
H	-1.328679	1.948770	-0.425391	1
H	-0.370729	1.062450	2.193539	1
H	-1.342709	2.365670	2.017269	1
H	1.645541	0.883930	0.129659	1
H	0.891661	-0.093790	-2.691191	1
H	2.484451	0.681080	-2.134161	1
Es	1.127368	0.681535	-1.347366	99
Es	-0.041943	-0.906352	0.913235	99
Es	1.368153	0.086749	-1.208754	99
Es	-0.354992	2.007132	1.495960	99
Es	1.014306	0.443432	-0.639302	99
Es	-0.083070	-1.437903	0.651823	99
Es	-0.623718	1.817261	1.551082	99
Es	0.338518	0.222332	-0.426954	99
Es	-0.275401	-0.632138	0.429762	99
Es	-0.863664	1.542956	1.017713	99
Es	-1.881853	0.916191	0.522359	99
Es	2.158803	0.567387	-2.063852	99
Es	-1.075989	2.132535	1.832364	99
Es	1.083705	0.044592	-2.439936	99
Es	-0.492555	1.364822	1.931424	99
Es	0.879959	-2.225921	0.137772	99
Es	-0.235905	-0.968936	0.859885	99
Es	-1.283467	1.700858	-0.188011	99
Es	-0.356162	-0.000674	-0.196053	99
Es	0.151832	-2.723076	0.973268	99
Es	-0.280011	-2.495861	-0.147588	99
Es	0.179183	-2.247593	0.397478	99
Es	-0.737262	-0.307844	-0.775493	99
Es	-0.473964	-0.963567	1.097859	99
Es	-0.753767	0.599670	0.081494	99
Es	-1.196084	1.186537	0.350182	99
Es	1.434646	0.732149	-0.116587	99
Es	1.484850	0.335067	-1.890575	99
46
Properties=species:S:1:pos:R:3:Z:I:1 energy=-325.1276877210381 field_type=dipole dipole="0.000000 0.000000 0.000000" charge=0
C	0.179260	-2.247800	0.397409	6
O	-0.236089	-0.968890	0.860239	8
C	-0.356209	-0.000570	-0.196241	6
C	-1.196189	1.186520	0.350079	6
N	-0.623249	1.817620	1.550939	7
C	1.014371	0.443440	-0.639391	6
C	1.484820	0.335070	-1.890471	6
H	0.141491	-2.943570	1.240319	1
H	1.208691	-2.215020	0.029059	1
H	-0.491489	-2.616330	-0.384771	1
H	-0.916429	-0.445710	-1.028771	1
H	-2.188509	0.807130	0.621879	1
H	-1.328679	1.948770	-0.425391	1
H	-0.370729	1.062450	2.193539	1
H	-1.342709	2.365670	2.017269	1
H	1.645541	0.883930	0.129659	1
H	0.891661	-0.093790	-2.691191	1
H	2.484451	0.681080	-2.134161	1
Es	-1.881961	0.916155	0.522231	99
Es	1.434632	0.732198	-0.116584	99
Es	1.127410	0.681373	-1.347342	99
Es	0.151771	-2.723041	0.973333	99
Es	0.880033	-2.225910	0.137617	99
Es	-0.044196	-0.908209	0.910186	99
Es	-1.076427	2.131803	1.832630	99
Es	-0.275279	-0.632210	0.429459	99
Es	0.179182	-2.247589	0.397480	99
Es	-0.356163	-0.000671	-0.196054	99
Es	-0.753835	0.599669	0.081548	99
Es	2.158880	0.567405	-2.063746	99
Es	-1.283284	1.700754	-0.188042	99
Es	-0.084190	-1.437615	0.651846	99
Es	-0.470795	-0.961943	1.101126	99
Es	-0.491622	1.365317	1.931296	99
Es	-0.355978	2.007478	1.496100	99
Es	0.338520	0.222365	-0.426994	99
Es	-0.280052	-2.495822	-0.147431	99
Es	-0.737259	-0.307885	-0.775471	99
Es	1.368083	0.086823	-1.208787	99
Es	-0.235815	-0.968928	0.859889	99
Es	-1.196085	1.186542	0.350178	99
Es	-0.623736	1.817287	1.551072	99
Es	-0.863218	1.542848	1.017526	99
Es	1.484848	0.335071	-1.890577	99
Es	1.083747	0.044644	-2.439998	99
Es	1.014305	0.443431	-0.639302	99
46
Properties=species:S:1:pos:R:3:Z:I:1 energy=-325.1276877210381 field_type=dipole dipole="0.000000 0.000000 0.000000" charge=0
C	0.179260	-2.247800	0.397409	6
O	-0.236089	-0.968890	0.860239	8
C	-0.356209	-0.000570	-0.196241	6
C	-1.196189	1.186520	0.350079	6
N	-0.623249	1.817620	1.550939	7
C	1.014371	0.443440	-0.639391	6
C	1.484820	0.335070	-1.890471	6
H	0.141491	-2.943570	1.240319	1
H	1.208691	-2.215020	0.029059	1
H	-0.491489	-2.616330	-0.384771	1
H	-0.916429	-0.445710	-1.028771	1
H	-2.188509	0.807130	0.621879	1
H	-1.328679	1.948770	-0.425391	1
H	-0.370729	1.062450	2.193539	1
H	-1.342709	2.365670	2.017269	1
H	1.645541	0.883930	0.129659	1
H	0.891661	-0.093790	-2.691191	1
H	2.484451	0.681080	-2.134161	1
Es	1.434690	0.732191	-0.116564	99
Es	-0.236122	-0.969078	0.859551	99
Es	-0.623726	1.817274	1.551069	99
Es	-0.280100	-2.495805	-0.147545	99
Es	-0.274594	-0.631941	0.429320	99
Es	1.014303	0.443431	-0.639302	99
Es	0.151726	-2.722952	0.973387	99
Es	-0.083669	-1.437254	0.652096	99
Es	-0.737338	-0.307892	-0.775505	99
Es	-0.046232	-0.908954	0.909433	99
Es	-1.881918	0.916108	0.522204	99
Es	-0.469695	-0.961739	1.102127	99
Es	0.880080	-2.225842	0.137738	99
Es	1.367983	0.086918	-1.208838	99
Es	-0.862303	1.543603	1.016904	99
Es	-0.753738	0.599685	0.081496	99
Es	1.484850	0.335066	-1.890576	99
Es	0.338519	0.222383	-0.427015	99
Es	-0.356163	-0.000673	-0.196054	99
Es	1.127503	0.681297	-1.347304	99
Es	-1.196084	1.186542	0.350179	99
Es	-1.076512	2.131805	1.833162	99
Es	-1.283310	1.700742	-0.188063	99
Es	0.179184	-2.247598	0.397479	99
Es	-0.492325	1.365353	1.930543	99
Es	2.158921	0.567347	-2.063713	99
Es	1.083691	0.044636	-2.440025	99
Es	-0.356104	2.006685	1.497000	99
46
Properties=species:S:1:pos:R:3:Z:I:1 energy=-325.1276877210381 field_type=dipole dipole="0.000000 0.000000 0.000000" charge=0
C	0.179260	-2.247800	0.397409	6
O	-0.236089	-0.968890	0.860239	8
C	-0.356209	-0.000570	-0.196241	6
C	-1.196189	1.186520	0.350079	6
N	-0.623249	1.817620	1.550939	7
C	1.014371	0.443440	-0.639391	6
C	1.484820	0.335070	-1.890471	6
H	0.141491	-2.943570	1.240319	1
H	1.208691	-2.215020	0.029059	1
H	-0.491489	-2.616330	-0.384771	1
H	-0.916429	-0.445710	-1.028771	1
H	-2.188509	0.807130	0.621879	1
H	-1.328679	1.948770	-0.425391	1
H	-0.370729	1.062450	2.193539	1
H	-1.342709	2.365670	2.017269	1
H	1.645541	0.883930	0.129659	1
H	0.891661	-0.093790	-2.691191	1
H	2.484451	0.681080	-2.134161	1
Es	-0.280111	-2.495763	-0.147481	99
Es	-0.275712	-0.632510	0.428682	99
Es	-0.356162	-0.000673	-0.196053	99
Es	-1.882051	0.915995	0.522185	99
Es	-1.076744	2.131257	1.833455	99
Es	-1.283312	1.700677	-0.187876	99
Es	0.880198	-2.225837	0.137698	99
Es	0.338470	0.222479	-0.426989	99
Es	1.484849	0.335066	-1.890576	99
Es	0.151617	-2.722939	0.973329	99
Es	-0.464308	-0.959623	1.107529	99
Es	1.083637	0.044660	-2.439968	99
Es	1.367875	0.087066	-1.208887	99
Es	-0.356144	2.007410	1.496442	99
Es	-1.196085	1.186539	0.350180	99
Es	-0.084740	-1.436665	0.652309	99
Es	-0.236172	-0.969009	0.859852	99
Es	0.179184	-2.247597	0.397479	99
Es	-0.049371	-0.911177	0.904127	99
Es	-0.491556	1.365672	1.930392	99
Es	-0.753766	0.599734	0.081365	99
Es	-0.623704	1.817301	1.551091	99
Es	1.014305	0.443432	-0.639303	99
Es	1.127627	0.681184	-1.347262	99
Es	2.159076	0.567345	-2.063724	99
Es	-0.862786	1.543109	1.017294	99
Es	-0.737312	-0.307925	-0.775478	99
Es	1.434714	0.732132	-0.116623	99
46
Properties=species:S:1:pos:R:3:Z:I:1 energy=-325.1276877210381 field_type=dipole dipole="0.000000 0.000000 0.000000" charge=0
C	0.179260	-2.247800	0.397409	6
O	-0.236089	-0.968890	0.860239	8
C	-0.356209	-0.000570	-0.196241	6
C	-1.196189	1.186520	0.350079	6
N	-0.623249	1.817620	1.550939	7
C	1.014371	0.443440	-0.639391	6
C	1.484820	0.335070	-1.890471	6
H	0.141491	-2.943570	1.240319	1
H	1.208691	-2.215020	0.029059	1
H	-0.491489	-2.616330	-0.384771	1
H	-0.916429	-0.445710	-1.028771	1
H	-2.188509	0.807130	0.621879	1
H	-1.328679	1.948770	-0.425391	1
H	-0.370729	1.062450	2.193539	1
H	-1.342709	2.365670	2.017269	1
H	1.645541	0.883930	0.129659	1
H	0.891661	-0.093790	-2.691191	1
H	2.484451	0.681080	-2.134161	1
Es	0.179184	-2.247599	0.397479	99
Es	-0.861937	1.543724	1.016643	99
Es	1.014305	0.443430	-0.639302	99
Es	-1.283120	1.700645	-0.187987	99
Es	1.367808	0.087181	-1.208897	99
Es	-0.356165	-0.000671	-0.196057	99
Es	0.338510	0.222436	-0.427007	99
Es	-0.051046	-0.911561	0.903601	99
Es	-0.280146	-2.495689	-0.147522	99
Es	1.434769	0.732078	-0.116536	99
Es	-1.882113	0.916061	0.522100	99
Es	-0.737354	-0.307919	-0.775540	99
Es	-1.076955	2.130653	1.834114	99
Es	-0.464211	-0.959020	1.107782	99
Es	-0.623769	1.817257	1.551070	99
Es	-0.236115	-0.968973	0.859890	99
Es	0.151641	-2.722951	0.973391	99
Es	1.083606	0.044659	-2.440020	99
Es	-0.275018	-0.632516	0.428699	99
Es	-0.753746	0.599659	0.081415	99
Es	1.484846	0.335076	-1.890578	99
Es	-0.356659	2.007133	1.497266	99
Es	2.159054	0.567383	-2.063686	99
Es	-1.196086	1.186541	0.350179	99
Es	0.880170	-2.225753	0.137697	99
Es	-0.083973	-1.436982	0.652619	99
Es	-0.491634	1.365939	1.929641	99
Es	1.127670	0.681116	-1.347266	99
46
Properties=species:S:1:pos:R:3:Z:I:1 energy=-325.1276877210381 field_type=dipole dipole="0.000000 0.000000 0.000000" charge=0
C	0.179260	-2.247800	0.397409	6
O	-0.236089	-0.968890	0.860239	8
C	-0.356209	-0.000570	-0.196241	6
C	-1.196189	1.186520	0.350079	6
N	-0.623249	1.817620	1.550939	7
C	1.014371	0.443440	-0.639391	6
C	1.484820	0.335070	-1.890471	6
H	0.141491	-2.943570	1.240319	1
H	1.208691	-2.215020	0.029059	1
H	-0.491489	-2.616330	-0.384771	1
H	-0.916429	-0.445710	-1.028771	1
H	-2.188509	0.807130	0.621879	1
H	-1.328679	1.948770	-0.425391	1
H	-0.370729	1.062450	2.193539	1
H	-1.342709	2.365670	2.017269	1
H	1.645541	0.883930	0.129659	1
H	0.891661	-0.093790	-2.691191	1
H	2.484451	0.681080	-2.134161	1
Es	0.179184	-2.247597	0.397479	99
Es	-0.280290	-2.495784	-0.147377	99
Es	1.083493	0.044670	-2.440009	99
Es	-0.083986	-1.436502	0.652737	99
Es	1.127835	0.680975	-1.347191	99
Es	-0.461593	-0.958128	1.110294	99
Es	-0.753620	0.599773	0.081242	99
Es	-0.492748	1.365739	1.929864	99
Es	-0.236178	-0.968942	0.859823	99
Es	-0.275176	-0.632764	0.428407	99
Es	-0.356086	2.006592	1.497723	99
Es	1.367675	0.087313	-1.208965	99
Es	1.434888	0.732108	-0.116610	99
Es	-1.283220	1.700580	-0.187836	99
Es	-1.076757	2.131199	1.833640	99
Es	-0.356163	-0.000670	-0.196055	99
Es	1.014304	0.443431	-0.639302	99
Es	0.880231	-2.225744	0.137556	99
Es	-1.196086	1.186541	0.350178	99
Es	0.338468	0.222474	-0.427096	99
Es	-0.737466	-0.307908	-0.775410	99
Es	-0.623744	1.817270	1.551065	99
Es	-1.882169	0.915933	0.522140	99
Es	2.159134	0.567262	-2.063691	99
Es	1.484849	0.335068	-1.890576	99
Es	-0.053405	-0.912737	0.901239	99
Es	-0.861544	1.543957	1.016422	99
Es	0.151686	-2.722771	0.973494	99
46
Properties=species:S:1:pos:R:3:Z:I:1 energy=-325.1276877210381 field_type=dipole dipole="0.000000 0.000000 0.000000" charge=0
C	0.179260	-2.247800	0.397409	6
O	-0.236089	-0.968890	0.860239	8
C	-0.356209	-0.000570	-0.196241	6
C	-1.196189	1.186520	0.350079	6
N	-0.623249	1.817620	1.550939	7
C	1.014371	0.443440	-0.639391	6
C	1.484820	0.335070	-1.890471	6
H	0.141491	-2.943570	1.240319	1
H	1.208691	-2.215020	0.029059	1
H	-0.491489	-2.616330	-0.384771	1
H	-0.916429	-0.445710	-1.028771	1
H	-2.188509	0.807130	0.621879	1
H	-1.328679	1.948770	-0.425391	1
H	-0.370729	1.062450	2.193539	1
H	-1.342709	2.365670	2.017269	1
H	1.645541	0.883930	0.129659	1
H	0.891661	-0.093790	-2.691191	1
H	2.484451	0.681080	-2.134161	1
Es	1.014306	0.443429	-0.639302	99
Es	0.880212	-2.225756	0.137541	99
Es	-1.077087	2.130236	1.834508	99
Es	2.159053	0.567319	-2.063463	99
Es	1.434722	0.732181	-0.116514	99
Es	0.179184	-2.247594	0.397479	99
Es	1.367790	0.087177	-1.209001	99
Es	-0.357140	2.006734	1.498093	99
Es	-0.753739	0.599690	0.081290	99
Es	-0.280166	-2.495631	-0.147352	99
Es	-0.491943	1.366092	1.929115	99
Es	-0.053404	-0.912740	0.901818	99
Es	-1.882190	0.916006	0.522131	99
Es	-0.737351	-0.307971	-0.775569	99
Es	-1.283150	1.700557	-0.187896	99
Es	-1.196083	1.186540	0.350181	99
Es	-0.274694	-0.632827	0.428240	99
Es	1.083666	0.044695	-2.440215	99
Es	-0.462396	-0.958649	1.109790	99
Es	-0.623736	1.817270	1.551065	99
Es	-0.084101	-1.435977	0.652734	99
Es	0.151547	-2.722881	0.973551	99