45
Properties=species:S:1:pos:R:3:Z:I:1 energy=-341.15200165479575 field_type=dipole dipole="0.000000 0.000000 0.000000" charge=0
N	-2.062151	0.285377	-0.529387	7
C	-0.602531	0.266637	-0.448447	6
C	-0.001731	1.351276	0.443993	6
N	1.376229	0.884636	0.676513	7
C	1.237930	-0.567423	0.898933	6
C	-0.040061	-1.020913	0.173283	6
O	0.223199	-1.993753	-0.837577	8
H	-2.371631	-0.539043	-1.047507	1
H	-2.369781	1.097066	-1.062897	1
H	-0.213941	0.376927	-1.469867	1
H	-0.530631	1.432956	1.401953	1
H	-0.012321	2.334986	-0.036377	1
H	1.918679	1.037226	-0.173677	1
H	2.132429	-1.098303	0.557703	1
H	1.133579	-0.743963	1.975633	1
H	-0.738821	-1.462394	0.893653	1
H	0.921549	-1.641293	-1.415927	1
Es	1.160098	-0.691398	1.634085	99
Es	1.237929	-0.567287	0.898893	99
Es	1.315152	0.248911	0.755387	99
Es	1.540106	1.049714	0.943928	99
Es	-0.364098	1.395483	1.095506	99
Es	-2.231004	0.773244	-0.869058	99
Es	0.144248	-1.612359	-0.467954	99
Es	-0.340917	-0.380791	-0.144496	99
Es	1.375947	0.884345	0.676026	99
Es	-2.061915	0.285350	-0.529931	99
Es	-0.308278	0.340203	-1.152124	99
Es	-0.518838	-1.320442	0.659317	99
Es	0.345867	-2.239424	-0.697273	99
Es	1.844959	-0.929056	0.654141	99
Es	-0.001601	1.351226	0.443989	99
Es	-0.032991	-2.011583	-1.011053	99
Es	-0.602671	0.266636	-0.448435	99
Es	-2.204754	0.289014	-0.205368	99
Es	-1.429002	0.278341	-0.517048	99
Es	1.683704	0.959445	0.140610	99
Es	-0.335529	0.827142	-0.009070	99
Es	0.609256	-0.809117	0.532284	99
Es	-0.039981	-1.021037	0.173099	99
Es	0.777857	1.087807	0.561447	99
Es	0.601398	-1.780464	-1.137774	99
Es	-0.007703	2.024285	0.110485	99
Es	-2.234485	-0.204186	-0.858303	99
Es	0.223327	-1.993483	-0.837542	99
45
Properties=species:S:1:pos:R:3:Z:I:1 energy=-341.15200165479575 field_type=dipole dipole="0.000000 0.000000 0.000000" charge=0
N	-2.062151	0.285377	-0.529387	7
C	-0.602531	0.266637	-0.448447	6
C	-0.001731	1.351276	0.443993	6
N	1.376229	0.884636	0.676513	7
C	1.237930	-0.567423	0.898933	6
C	-0.040061	-1.020913	0.173283	6
O	0.223199	-1.993753	-0.837577	8
H	-2.371631	-0.539043	-1.047507	1
H	-2.369781	1.097066	-1.062897	1
H	-0.213941	0.376927	-1.469867	1
H	-0.530631	1.432956	1.401953	1
H	-0.012321	2.334986	-0.036377	1
H	1.918679	1.037226	-0.173677	1
H	2.132429	-1.098303	0.557703	1
H	1.133579	-0.743963	1.975633	1
H	-0.738821	-1.462394	0.893653	1
H	0.921549	-1.641293	-1.415927	1
Es	0.602230	-1.780243	-1.140271	99
Es	0.142948	-1.612487	-0.467395	99
Es	-0.340472	-0.380548	-0.144096	99
Es	-0.602677	0.266636	-0.448435	99
Es	-0.364809	1.395270	1.096143	99
Es	0.777689	1.088663	0.563019	99
Es	-2.207163	0.288047	-0.200084	99
Es	-2.061907	0.285372	-0.529919	99
Es	1.845076	-0.929290	0.653660	99
Es	-0.519099	-1.320688	0.660112	99
Es	1.536990	1.046717	0.941388	99
Es	0.609511	-0.808637	0.531730	99
Es	-0.335071	0.826961	-0.008952	99
Es	1.237928	-0.567286	0.898896	99
Es	-2.232410	-0.201398	-0.859362	99
Es	1.686834	0.961315	0.139823	99
Es	0.342931	-2.241447	-0.698246	99
Es	1.375932	0.884337	0.676004	99
Es	0.223355	-1.993465	-0.837553	99
Es	-0.007609	2.024066	0.109831	99
Es	-0.307976	0.340578	-1.152807	99
Es	-0.039979	-1.021039	0.173095	99
Es	-2.229990	0.771831	-0.870438	99
Es	-1.429618	0.278152	-0.519477	99
Es	-0.001603	1.351227	0.443989	99
Es	1.314933	0.248892	0.756671	99
Es	1.159471	-0.691503	1.634623	99
Es	-0.029364	-2.009511	-1.008180	99
45
Properties=species:S:1:pos:R:3:Z:I:1 energy=-341.15200165479575 field_type=dipole dipole="0.000000 0.000000 0.000000" charge=0
N	-2.062151	0.285377	-0.529387	7
C	-0.602531	0.266637	-0.448447	6
C	-0.001731	1.351276	0.443993	6
N	1.376229	0.884636	0.676513	7
C	1.237930	-0.567423	0.898933	6
C	-0.040061	-1.020913	0.173283	6
O	0.223199	-1.993753	-0.837577	8
H	-2.371631	-0.539043	-1.047507	1
H	-2.369781	1.097066	-1.062897	1
H	-0.213941	0.376927	-1.469867	1
H	-0.530631	1.432956	1.401953	1
H	-0.012321	2.334986	-0.036377	1
H	1.918679	1.037226	-0.173677	1
H	2.132429	-1.098303	0.557703	1
H	1.133579	-0.743963	1.975633	1
H	-0.738821	-1.462394	0.893653	1
H	0.921549	-1.641293	-1.415927	1
Es	0.339869	-2.243245	-0.697964	99
Es	0.223373	-1.993460	-0.837550	99
Es	1.375979	0.884362	0.676053	99
Es	1.237929	-0.567288	0.898894	99
Es	-2.229387	0.771108	-0.871527	99
Es	-2.231657	-0.200275	-0.859232	99
Es	1.159349	-0.691538	1.634920	99
Es	-0.365169	1.395263	1.096718	99
Es	1.687927	0.961657	0.139540	99
Es	-0.001601	1.351227	0.443988	99
Es	-0.307608	0.340740	-1.153196	99
Es	1.535792	1.045630	0.939450	99
Es	-2.208192	0.288040	-0.198032	99
Es	-1.429909	0.277777	-0.520447	99
Es	1.845013	-0.929473	0.653227	99
Es	-0.519349	-1.320796	0.660551	99
Es	0.777420	1.089320	0.563487	99
Es	0.603756	-1.780995	-1.141105	99
Es	-0.007553	2.023743	0.109410	99
Es	1.315054	0.248841	0.757843	99
Es	-0.026101	-2.007485	-1.006960	99
Es	-0.340254	-0.380345	-0.143803	99
Es	0.609600	-0.808297	0.531631	99
Es	-0.602675	0.266638	-0.448435	99
Es	-0.039981	-1.021040	0.173095	99
Es	-0.334954	0.826867	-0.008759	99
Es	-2.061902	0.285381	-0.529921	99
Es	0.141313	-1.611835	-0.468106	99
45
Properties=species:S:1:pos:R:3:Z:I:1 energy=-341.15200165479575 field_type=dipole dipole="0.000000 0.000000 0.000000" charge=0
N	-2.062151	0.285377	-0.529387	7
C	-0.602531	0.266637	-0.448447	6
C	-0.001731	1.351276	0.443993	6
N	1.376229	0.884636	0.676513	7
C	1.237930	-0.567423	0.898933	6
C	-0.040061	-1.020913	0.173283	6
O	0.223199	-1.993753	-0.837577	8
H	-2.371631	-0.539043	-1.047507	1
H	-2.369781	1.097066	-1.062897	1
H	-0.213941	0.376927	-1.469867	1
H	-0.530631	1.432956	1.401953	1
H	-0.012321	2.334986	-0.036377	1
H	1.918679	1.037226	-0.173677	1
H	2.132429	-1.098303	0.557703	1
H	1.133579	-0.743963	1.975633	1
H	-0.738821	-1.462394	0.893653	1
H	0.921549	-1.641293	-1.415927	1
Es	1.159015	-0.691649	1.635170	99
Es	-1.430122	0.277904	-0.521175	99
Es	-2.061916	0.285382	-0.529875	99
Es	-2.230640	-0.199094	-0.859769	99
Es	-0.334760	0.826693	-0.008598	99
Es	0.609742	-0.808133	0.531387	99
Es	-0.519533	-1.320790	0.660862	99
Es	0.140088	-1.611671	-0.468728	99
Es	-2.209153	0.287302	-0.196378	99
Es	0.223361	-1.993496	-0.837528	99
Es	1.315085	0.248697	0.758452	99
Es	1.534778	1.044797	0.938329	99
Es	-0.001601	1.351227	0.443988	99
Es	-0.602673	0.266637	-0.448434	99
Es	-0.007531	2.023702	0.109145	99
Es	0.343440	-2.239552	-0.696845	99
Es	-0.026703	-2.012599	-1.005336	99
Es	0.602133	-1.779692	-1.143259	99
Es	-0.039980	-1.021042	0.173094	99
Es	-2.229223	0.770612	-0.871805	99
Es	-0.307516	0.340892	-1.153392	99
Es	0.777357	1.089645	0.563975	99
Es	1.237928	-0.567288	0.898896	99
Es	1.845029	-0.929533	0.653027	99
Es	1.688833	0.962260	0.139468	99
Es	-0.365347	1.395208	1.096872	99
Es	-0.339943	-0.380234	-0.143793	99
Es	1.375938	0.884340	0.676019	99
45
Properties=species:S:1:pos:R:3:Z:I:1 energy=-341.15200165479575 field_type=dipole dipole="0.000000 0.000000 0.000000" charge=0
N	-2.062151	0.285377	-0.529387	7
C	-0.602531	0.266637	-0.448447	6
C	-0.001731	1.351276	0.443993	6
N	1.376229	0.884636	0.676513	7
C	1.237930	-0.567423	0.898933	6
C	-0.040061	-1.020913	0.173283	6
O	0.223199	-1.993753	-0.837577	8
H	-2.371631	-0.539043	-1.047507	1
H	-2.369781	1.097066	-1.062897	1
H	-0.213941	0.376927	-1.469867	1
H	-0.530631	1.432956	1.401953	1
H	-0.012321	2.334986	-0.036377	1
H	1.918679	1.037226	-0.173677	1
H	2.132429	-1.098303	0.557703	1
H	1.133579	-0.743963	1.975633	1
H	-0.738821	-1.462394	0.893653	1
H	0.921549	-1.641293	-1.415927	1
Es	-0.307341	0.341006	-1.153576	99
Es	1.315277	0.248823	0.759046	99
Es	-0.519627	-1.320892	0.661109	99
Es	-0.039981	-1.021042	0.173092	99
Es	-2.230599	-0.198853	-0.859637	99
Es	-0.365621	1.395124	1.097002	99
Es	-2.229089	0.770087	-0.872032	99
Es	0.604164	-1.780788	-1.142227	99
Es	1.533966	1.044100	0.937462	99
Es	-1.430266	0.277951	-0.521858	99
Es	-0.602673	0.266636	-0.448434	99
Es	-0.339801	-0.380159	-0.143599	99
Es	1.375946	0.884341	0.676010	99
Es	-2.209247	0.287564	-0.195462	99
Es	0.777235	1.089611	0.564541	99
Es	0.609789	-0.807912	0.531181	99
Es	1.158888	-0.691602	1.635271	99
Es	-0.001599	1.351227	0.443987	99
Es	1.689518	0.962656	0.139150	99
Es	0.337707	-2.245048	-0.699061	99
Es	-0.334648	0.826633	-0.008623	99
Es	-2.061917	0.285382	-0.529899	99
Es	1.845114	-0.929595	0.652881	99
Es	-0.007499	2.023612	0.108978	99
Es	0.223334	-1.993431	-0.837576	99
Es	-0.024151	-2.005242	-1.005363	99
Es	0.141276	-1.612383	-0.467487	99
Es	1.237928	-0.567286	0.898894	99
45
Properties=species:S:1:pos:R:3:Z:I:1 energy=-341.15200165479575 field_type=dipole dipole="0.000000 0.000000 0.000000" charge=0
N	-2.062151	0.285377	-0.529387	7
C	-0.602531	0.266637	-0.448447	6
C	-0.001731	1.351276	0.443993	6
N	1.376229	0.884636	0.676513	7
C	1.237930	-0.567423	0.898933	6
C	-0.040061	-1.020913	0.173283	6
O	0.223199	-1.993753	-0.837577	8
H	-2.371631	-0.539043	-1.047507	1
H	-2.369781	1.097066	-1.062897	1
H	-0.213941	0.376927	-1.469867	1
H	-0.530631	1.432956	1.401953	1
H	-0.012321	2.334986	-0.036377	1
H	1.918679	1.037226	-0.173677	1
H	2.132429	-1.098303	0.557703	1
H	1.133579	-0.743963	1.975633	1
H	-0.738821	-1.462394	0.893653	1
H	0.921549	-1.641293	-1.415927	1
Es	-1.430289	0.277781	-0.521959	99
Es	1.845059	-0.929564	0.652807	99
Es	-0.519645	-1.320918	0.661250	99
Es	-0.334559	0.826566	-0.008573	99
Es	-0.602674	0.266635	-0.448434	99
Es	0.603472	-1.780392	-1.143854	99
Es	-2.209666	0.287225	-0.195002	99
Es	-2.230249	-0.198259	-0.859703	99
Es	0.609914	-0.807831	0.531052	99
Es	-0.007548	2.023544	0.108839	99
Es	-2.228965	0.770087	-0.872265	99
Es	-0.365670	1.395109	1.097116	99
Es	0.777119	1.090222	0.564972	99
Es	1.689787	0.962822	0.139195	99
Es	1.158791	-0.691697	1.635405	99
Es	0.339028	-2.242757	-0.699200	99
Es	-0.024073	-2.007906	-1.004052	99
Es	1.237929	-0.567284	0.898889	99
Es	1.315259	0.248747	0.759236	99
Es	0.140602	-1.612389	-0.467019	99
Es	-2.061916	0.285371	-0.529895	99
Es	1.533767	1.043474	0.936649	99
Es	-0.001601	1.351226	0.443989	99
Es	-0.039981	-1.021039	0.173096	99
Es	-0.307284	0.340992	-1.153677	99
Es	0.223346	-1.993434	-0.837580	99
Es	1.375946	0.884333	0.676009	99
Es	-0.339816	-0.380140	-0.143524	99
45
Properties=species:S:1:pos:R:3:Z:I:1 energy=-341.15200165479575 field_type=dipole dipole="0.000000 0.000000 0.000000" charge=0
N	-2.062151	0.285377	-0.529387	7
C	-0.602531	0.266637	-0.448447	6
C	-0.001731	1.351276	0.443993	6
N	1.376229	0.884636	0.676513	7
C	1.237930	-0.567423	0.898933	6
C	-0.040061	-1.020913	0.173283	6
O	0.223199	-1.993753	-0.837577	8
H	-2.371631	-0.539043	-1.047507	1
H	-2.369781	1.097066	-1.062897	1
H	-0.213941	0.376927	-1.469867	1
H	-0.530631	1.432956	1.401953	1
H	-0.012321	2.334986	-0.036377	1
H	1.918679	1.037226	-0.173677	1
H	2.132429	-1.098303	0.557703	1
H	1.133579	-0.743963	1.975633	1
H	-0.738821	-1.462394	0.893653	1
H	0.921549	-1.641293	-1.415927	1
Es	1.690388	0.963170	0.139153	99
Es	0.777287	1.089887	0.564743	99
Es	0.223368	-1.993399	-0.837567	99
Es	1.375934	0.884333	0.676000	99
Es	-0.001600	1.351228	0.443987	99
Es	-2.228442	0.769438	-0.872720	99
Es	1.237928	-0.567287	0.898896	99
Es	-0.007563	2.023471	0.108785	99
Es	-2.061924	0.285362	-0.529863	99
Es	-0.021830	-2.005486	-1.004492	99
Es	-0.365820	1.395035	1.097204	99
Es	-0.602673	0.266637	-0.448435	99
Es	0.609793	-0.807767	0.531060	99
Es	0.604988	-1.781093	-1.142895	99
Es	-2.229866	-0.197912	-0.859858	99
Es	0.139485	-1.611980	-0.467672	99
Es	-0.039981	-1.021040	0.173095	99
Es	-1.430182	0.277782	-0.521658	99
Es	-0.519811	-1.320891	0.661252	99
Es	1.315404	0.248708	0.759644	99
Es	-0.339669	-0.380086	-0.143557	99
Es	0.336444	-2.244906	-0.699039	99
Es	-0.307173	0.341065	-1.153730	99
Es	-0.334481	0.826584	-0.008534	99
Es	1.845000	-0.929563	0.652728	99
Es	1.532953	1.043427	0.936477	99
Es	-2.210698	0.287501	-0.194722	99
Es	1.158826	-0.691692	1.635487	99
45
Properties=species:S:1:pos:R:3:Z:I:1 energy=-341.15200165479575 field_type=dipole dipole="0.000000 0.000000 0.000000" charge=0
N	-2.062151	0.285377	-0.529387	7
C	-0.602531	0.266637	-0.448447	6
C	-0.001731	1.351276	0.443993	6
N	1.376229	0.884636	0.676513	7
C	1.237930	-0.567423	0.898933	6
C	-0.040061	-1.020913	0.173283	6
O	0.223199	-1.993753	-0.837577	8
H	-2.371631	-0.539043	-1.047507	1
H	-2.369781	1.097066	-1.062897	1
H	-0.213941	0.376927	-1.469867	1
H	-0.530631	1.432956	1.401953	1
H	-0.012321	2.334986	-0.036377	1
H	1.918679	1.037226	-0.173677	1
H	2.132429	-1.098303	0.557703	1
H	1.133579	-0.743963	1.975633	1
H	-0.738821	-1.462394	0.893653	1
H	0.921549	-1.641293	-1.415927	1
Es	-0.339691	-0.380039	-0.143422	99
Es	-0.334526	0.826526	-0.008567	99
Es	-0.007518	2.023447	0.108711	99
Es	-2.228575	0.769466	-0.872441	99
Es	-0.307165	0.341096	-1.153792	99
Es	0.603979	-1.780766	-1.144450	99
Es	-0.001598	1.351226	0.443988	99
Es	0.337475	-2.243958	-0.698950	99
Es	1.315194	0.248780	0.759378	99
Es	-0.022770	-2.006466	-1.003212	99
Es	0.223362	-1.993440	-0.837557	99
Es	-0.365840	1.395103	1.097211	99
Es	-1.430369	0.277856	-0.522172	99
Es	1.158656	-0.691704	1.635503	99
Es	-2.210810	0.286793	-0.194017	99
Es	-0.519679	-1.320964	0.661401	99
Es	0.777195	1.090181	0.565055	99
Es	0.140385	-1.612213	-0.467535	99
Es	1.845057	-0.929656	0.652677	99
Es	0.609935	-0.807635	0.530963	99
Es	-2.061938	0.285374	-0.529821	99
Es	-2.229445	-0.197330	-0.860291	99
Es	1.237928	-0.567284	0.898895	99
Es	1.375941	0.884338	0.676024	99
Es	1.690887	0.963494	0.139300	99
Es	-0.602675	0.266637	-0.448436	99
Es	1.532672	1.042703	0.936231	99
Es	-0.039981	-1.021041	0.173095	99
45
Properties=species:S:1:pos:R:3:Z:I:1 energy=-341.15200165479575 field_type=dipole dipole="0.000000 0.000000 0.000000" charge=0
N	-2.062151	0.285377	-0.529387	7
C	-0.602531	0.266637	-0.448447	6
C	-0.001731	1.351276	0.443993	6
N	1.376229	0.884636	0.676513	7
C	1.237930	-0.567423	0.898933	6
C	-0.040061	-1.020913	0.173283	6
O	0.223199	-1.993753	-0.837577	8
H	-2.371631	-0.539043	-1.047507	1
H	-2.369781	1.097066	-1.062897	1
H	-0.213941	0.376927	-1.469867	1
H	-0.530631	1.432956	1.401953	1
H	-0.012321	2.334986	-0.036377	1
H	1.918679	1.037226	-0.173677	1
H	2.132429	-1.098303	0.557703	1
H	1.133579	-0.743963	1.975633	1
H	-0.738821	-1.462394	0.893653	1
H	0.921549	-1.641293	-1.415927	1
Es	1.845079	-0.929727	0.652552	99
Es	0.139103	-1.612196	-0.467599	99
Es	-2.228380	0.769248	-0.872898	99
Es	1.158584	-0.691735	1.635515	99
Es	-1.430326	0.277625	-0.522401	99
Es	1.532447	1.042151	0.935602	99
Es	0.341089	-2.240954	-0.698501	99
Es	-2.061922	0.285376	-0.529875	99
Es	1.691151	0.963654	0.139312	99
Es	-0.023468	-2.010960	-1.002660	99
Es	-0.602674	0.266637	-0.448434	99
Es	-0.334462	0.826547	-0.008548	99
Es	-0.001602	1.351227	0.443988	99
Es	-2.229599	-0.197282	-0.859844	99
Es	0.602290	-1.779237	-1.145465	99
Es	-0.007487	2.023452	0.108689	99
Es	-0.039982	-1.021041	0.173094	99
Es	0.223473	-1.993459	-0.837485	99
Es	-2.210874	0.287221	-0.193760	99
Es	0.609928	-0.807542	0.530946	99
Es	1.315081	0.248680	0.759584	99
Es	-0.339668	-0.380025	-0.143410	99
Es	0.777133	1.090658	0.565392	99
Es	-0.307112	0.341104	-1.153808	99
Es	1.375960	0.884364	0.676072	99
Es	-0.519725	-1.321001	0.661507	99
Es	1.237927	-0.567284	0.898897	99
Es	-0.365882	1.395019	1.097305	99
45
Properties=species:S:1:pos:R:3:Z:I:1 energy=-341.15200165479575 field_type=dipole dipole="0.000000 0.000000 0.000000" charge=0
N	-2.062151	0.285377	-0.529387	7
C	-0.602531	0.266637	-0.448447	6
C	-0.001731	1.351276	0.443993	6
N	1.376229	0.884636	0.676513	7
C	1.237930	-0.567423	0.898933	6
C	-0.040061	-1.020913	0.173283	6
O	0.223199	-1.993753	-0.837577	8
H	-2.371631	-0.539043	-1.047507	1
H	-2.369781	1.097066	-1.062897	1
H	-0.213941	0.376927	-1.469867	1
H	-0.530631	1.432956	1.401953	1
H	-0.012321	2.334986	-0.036377	1
H	1.918679	1.037226	-0.173677	1
H	2.132429	-1.098303	0.557703	1
H	1.133579	-0.743963	1.975633	1
H	-0.738821	-1.462394	0.893653	1
H	0.921549	-1.641293	-1.415927	1
Es	1.375948	0.884348	0.676028	99
Es	-0.307091	0.341089	-1.153872	99
Es	-2.229311	-0.196767	-0.860022	99
Es	0.610036	-0.807510	0.530816	99
Es	1.532585	1.042737	0.935712	99
Es	-0.519836	-1.321011	0.661545	99
Es	1.845160	-0.929724	0.652671	99
Es	0.335201	-2.246261	-0.699718	99
Es	1.690749	0.963436	0.138940	99
Es	-0.007522	2.023420	0.108663	99
Es	-1.430384	0.277543	-0.522618	99
Es	0.223362	-1.993438	-0.837572	99
Es	1.315275	0.248757	0.759891	99
Es	-0.334449	0.826563	-0.008573	99
Es	-0.039981	-1.021038	0.173098	99
Es	1.158446	-0.691682	1.635519	99
Es	0.140779	-1.612558	-0.467248	99
Es	-0.001601	1.351227	0.443989	99
Es	1.237928	-0.567286	0.898894	99
Es	0.604965	-1.781052	-1.143516	99
Es	-0.602673	0.266637	-0.448434	99
Es	-0.339534	-0.379994	-0.143361	99
Es	-2.228003	0.768685	-0.873109	99
Es	-0.021829	-2.003443	-1.003650	99
Es	-2.061921	0.285361	-0.529899	99
Es	-2.211558	0.287313	-0.193036	99
Es	0.777259	1.090175	0.565296	99
Es	-0.365918	1.394997	1.097336	99
45
Properties=species:S:1:pos:R:3:Z:I:1 energy=-341.15200165479575 field_type=dipole dipole="0.000000 0.000000 0.000000" charge=0
N	-2.062151	0.285377	-0.529387	7
C	-0.602531	0.266637	-0.448447	6
C	-0.001731	1.351276	0.443993	6
N	1.376229	0.884636	0.676513	7
C	1.237930	-0.567423	0.898933	6
C	-0.040061	-1.020913	0.173283	6
O	0.223199	-1.993753	-0.837577	8
H	-2.371631	-0.539043	-1.047507	1
H	-2.369781	1.097066	-1.062897	1
H	-0.213941	0.376927	-1.469867	1
H	-0.530631	1.432956	1.401953	1
H	-0.012321	2.334986	-0.036377	1
H	1.918679	1.037226	-0.173677	1
H	2.132429	-1.098303	0.557703	1
H	1.133579	-0.743963	1.975633	1
H	-0.738821	-1.462394	0.893653	1
H	0.921549	-1.641293	-1.415927	1
Es	1.691334	0.963857	0.139207	99
Es	-2.229263	-0.196807	-0.860071	99
Es	-0.602674	0.266637	-0.448435	99
Es	0.610085	-0.807530	0.530784	99
Es	0.604870	-1.780688	-1.143773	99
Es	-0.039980	-1.021040	0.173095	99
Es	1.845122	-0.929690	0.652610	99
Es	1.158441	-0.691725	1.635592	99
Es	-0.007505	2.023434	0.108622	99
Es	-0.001601	1.351226	0.443988	99
Es	-0.021682	-2.005137	-1.003538	99
Es	0.336064	-2.244801	-0.699953	99
Es	-0.365951	1.394965	1.097371	99
Es	-0.339436	-0.380002	-0.143330	99
Es	0.223353	-1.993455	-0.837566	99
Es	-1.430490	0.277628	-0.522783	99
Es	-0.307011	0.341179	-1.153908	99
Es	-2.061913	0.285357	-0.529884	99
Es	1.237927	-0.567285	0.898894	99
Es	-0.334473	0.826484	-0.008552	99
Es	1.375944	0.884330	0.676013	99
Es	-0.519922	-1.321015	0.661602	99
Es	1.315212	0.248738	0.759718	99
Es	-2.228260	0.768967	-0.872926	99
Es	1.532125	1.042111	0.935466	99
Es	0.139870	-1.612632	-0.466873	99
Es	-2.211234	0.287015	-0.193038	99
Es	0.777130	1.090401	0.565436	99
45
Properties=species:S:1:pos:R:3:Z:I:1 energy=-341.15200165479575 field_type=dipole dipole="0.000000 0.000000 0.000000" charge=0
N	-2.062151	0.285377	-0.529387	7
C	-0.602531	0.266637	-0.448447	6
C	-0.001731	1.351276	0.443993	6
N	1.376229	0.884636	0.676513	7
C	1.237930	-0.567423	0.898933	6
C	-0.040061	-1.020913	0.173283	6
O	0.223199	-1.993753	-0.837577	8
H	-2.371631	-0.539043	-1.047507	1
H	-2.369781	1.097066	-1.062897	1
H	-0.213941	0.376927	-1.469867	1
H	-0.530631	1.432956	1.401953	1
H	-0.012321	2.334986	-0.036377	1
H	1.918679	1.037226	-0.173677	1
H	2.132429	-1.098303	0.557703	1
H	1.133579	-0.743963	1.975633	1
H	-0.738821	-1.462394	0.893653	1
H	0.921549	-1.641293	-1.415927	1
Es	0.141007	-1.613441	-0.465907	99
Es	-0.602674	0.266635	-0.448435	99
Es	-0.001599	1.351226	0.443988	99
Es	-0.039981	-1.021038	0.173097	99
Es	1.315361	0.248707	0.760038	99
Es	-0.007555	2.023380	0.108567	99
Es	-0.306931	0.341231	-1.153898	99
Es	0.335689	-2.245484	-0.701019	99
Es	1.237928	-0.567286	0.898897	99
Es	-0.366015	1.394932	1.097409	99
Es	-0.021921	-2.004146	-1.002903	99
Es	-2.211194	0.286817	-0.192987	99
Es	-2.061920	0.285370	-0.529857	99
Es	-0.334462	0.826514	-0.008459	99
Es	1.531903	1.041956	0.935000	99
Es	1.691512	0.963878	0.139209	99
Es	-0.519895	-1.320931	0.661711	99
Es	0.604405	-1.780363	-1.144289	99
Es	-2.228318	0.769038	-0.872761	99
Es	0.777110	1.090487	0.565483	99
Es	-0.339377	-0.379940	-0.143358	99
Es	1.845126	-0.929694	0.652606	99
Es	-2.229283	-0.196659	-0.860168	99
Es	1.158520	-0.691655	1.635598	99
Es	0.223330	-1.993381	-0.837572	99
Es	-1.430485	0.277563	-0.522954	99
Es	1.375940	0.884340	0.676028	99
Es	0.609863	-0.807534	0.530704	99
45
Properties=species:S:1:pos:R:3:Z:I:1 energy=-341.15200165479575 field_type=dipole dipole="0.000000 0.000000 0.000000" charge=0
N	-2.062151	0.285377	-0.529387	7
C	-0.602531	0.266637	-0.448447	6
C	-0.001731	1.351276	0.443993	6
N	1.376229	0.884636	0.676513	7
C	1.237930	-0.567423	0.898933	6
C	-0.040061	-1.020913	0.173283	6
O	0.223199	-1.993753	-0.837577	8
H	-2.371631	-0.539043	-1.047507	1
H	-2.369781	1.097066	-1.062897	1
H	-0.213941	0.376927	-1.469867	1
H	-0.530631	1.432956	1.401953	1
H	-0.012321	2.334986	-0.036377	1
H	1.918679	1.037226	-0.173677	1
H	2.132429	-1.098303	0.557703	1
H	1.133579	-0.743963	1.975633	1
H	-0.738821	-1.462394	0.893653	1
H	0.921549	-1.641293	-1.415927	1
Es	-0.519973	-1.321032	0.661679	99
Es	0.338306	-2.243067	-0.698451	99
Es	-2.061925	0.285364	-0.529891	99
Es	0.777135	1.090367	0.565230	99
Es	0.610002	-0.807404	0.530722	99
Es	1.315295	0.248748	0.760147	99
Es	0.603434	-1.780237	-1.145547	99
Es	1.375948	0.884340	0.676027	99
Es	1.237928	-0.567286	0.898895	99
Es	-0.602673	0.266637	-0.448435	99
Es	1.531761	1.042118	0.935111	99
Es	1.158487	-0.691684	1.635671	99
Es	1.845083	-0.929692	0.652553	99
Es	-0.021532	-2.008211	-1.002185	99
Es	-0.007513	2.023379	0.108569	99
Es	-0.366042	1.394929	1.097437	99
Es	-0.334342	0.826470	-0.008458	99
Es	0.138863	-1.611729	-0.468054	99
Es	-0.306974	0.341214	-1.153959	99
Es	-0.339447	-0.380039	-0.143377	99
Es	-2.228223	0.768767	-0.873086	99
Es	0.223455	-1.993448	-0.837469	99
Es	1.691661	0.963767	0.139214	99
Es	-1.430580	0.277614	-0.523120	99
Es	-2.211094	0.287250	-0.192693	99
Es	-0.001601	1.351227	0.443988	99
Es	-2.229375	-0.196801	-0.859844	99
Es	-0.039980	-1.021040	0.173094	99
45
Properties=species:S:1:pos:R:3:Z:I:1 energy=-341.15200165479575 field_type=dipole dipole="0.000000 0.000000 0.000000" charge=0
N	-2.062151	0.285377	-0.529387	7
C	-0.602531	0.266637	-0.448447	6
C	-0.001731	1.351276	0.443993	6
N	1.376229	0.884636	0.676513	7
C	1.237930	-0.567423	0.898933	6
C	-0.040061	-1.020913	0.173283	6
O	0.223199	-1.993753	-0.837577	8
H	-2.371631	-0.539043	-1.047507	1
H	-2.369781	1.097066	-1.062897	1
H	-0.213941	0.376927	-1.469867	1
H	-0.530631	1.432956	1.401953	1
H	-0.012321	2.334986	-0.036377	1
H	1.918679	1.037226	-0.173677	1
H	2.132429	-1.098303	0.557703	1
H	1.133579	-0.743963	1.975633	1
H	-0.738821	-1.462394	0.893653	1
H	0.921549	-1.641293	-1.415927	1
Es	1.315245	0.248749	0.760306	99
Es	0.140497	-1.612952	-0.466563	99
Es	-2.061907	0.285376	-0.529904	99
Es	-1.430480	0.277508	-0.522941	99
Es	1.691706	0.963854	0.139092	99
Es	-0.020548	-2.002278	-1.002967	99
Es	-0.519982	-1.321005	0.661651	99
Es	-0.039981	-1.021038	0.173097	99
Es	1.158469	-0.691692	1.635631	99
Es	-0.001600	1.351228	0.443987	99
Es	1.531594	1.042130	0.935036	99
Es	-2.211788	0.287054	-0.192521	99
Es	-0.334376	0.826494	-0.008515	99
Es	-0.306982	0.341206	-1.153953	99
Es	0.777286	1.090307	0.565273	99
Es	-2.229032	-0.196335	-0.860015	99
Es	-0.366058	1.394987	1.097468	99
Es	0.333774	-2.246870	-0.700708	99
Es	0.223371	-1.993460	-0.837545	99
Es	1.375949	0.884345	0.676022	99
Es	-0.007491	2.023311	0.108562	99
Es	0.605419	-1.781146	-1.143930	99
Es	1.845097	-0.929708	0.652576	99
Es	-0.602675	0.266640	-0.448434	99
Es	-0.339419	-0.380051	-0.143345	99
Es	-2.228005	0.768538	-0.873248	99
Es	1.237929	-0.567288	0.898894	99
Es	0.610071	-0.807382	0.530762	99
45
Properties=species:S:1:pos:R:3:Z:I:1 energy=-341.15200165479575 field_type=dipole dipole="0.000000 0.000000 0.000000" charge=0
N	-2.062151	0.285377	-0.529387	7
C	-0.602531	0.266637	-0.448447	6
C	-0.001731	1.351276	0.443993	6
N	1.376229	0.884636	0.676513	7
C	1.237930	-0.567423	0.898933	6
C	-0.040061	-1.020913	0.173283	6
O	0.223199	-1.993753	-0.837577	8
H	-2.371631	-0.539043	-1.047507	1
H	-2.369781	1.097066	-1.062897	1
H	-0.213941	0.376927	-1.469867	1
H	-0.530631	1.432956	1.401953	1
H	-0.012321	2.334986	-0.036377	1
H	1.918679	1.037226	-0.173677	1
H	2.132429	-1.098303	0.557703	1
H	1.133579	-0.743963	1.975633	1
H	-0.738821	-1.462394	0.893653	1
H	0.921549	-1.641293	-1.415927	1
Es	-0.020995	-2.004364	-1.002985	99
Es	-2.229052	-0.196436	-0.860072	99
Es	-0.519881	-1.321051	0.661721	99
Es	0.223360	-1.993510	-0.837547	99
Es	-2.211473	0.287017	-0.192255	99
Es	-2.061922	0.285377	-0.529874	99
Es	0.777235	1.090453	0.565432	99
Es	-0.602673	0.266639	-0.448435	99
Es	0.605371	-1.781153	-1.144165	99
Es	1.531534	1.041911	0.934748	99
Es	-0.001599	1.351225	0.443987	99
Es	-0.334335	0.826481	-0.008521	99
Es	0.334861	-2.245052	-0.700155	99
Es	-0.306934	0.341217	-1.154013	99
Es	0.139903	-1.612625	-0.466853	99
Es	1.237928	-0.567286	0.898895	99
Es	1.845041	-0.929663	0.652448	99
Es	1.315279	0.248692	0.760281	99
Es	-1.430665	0.277652	-0.523245	99
Es	1.375954	0.884354	0.676058	99
Es	1.691776	0.963970	0.139167	99
Es	1.158580	-0.691711	1.635707	99
Es	-2.228063	0.768618	-0.873160	99
Es	-0.007529	2.023285	0.108536	99
Es	-0.366127	1.394946	1.097472	99
Es	-0.339488	-0.379939	-0.143270	99
Es	-0.039981	-1.021040	0.173096	99
Es	0.609978	-0.807482	0.530771	99
45
Properties=species:S:1:pos:R:3:Z:I:1 energy=-341.15200165479575 field_type=dipole dipole="0.000000 0.000000 0.000000" charge=0
N	-2.062151	0.285377	-0.529387	7
C	-0.602531	0.266637	-0.448447	6
C	-0.001731	1.351276	0.443993	6
N	1.376229	0.884636	0.676513	7
C	1.237930	-0.567423	0.898933	6
C	-0.040061	-1.020913	0.173283	6
O	0.223199	-1.993753	-0.837577	8
H	-2.371631	-0.539043	-1.047507	1
H	-2.369781	1.097066	-1.062897	1
H	-0.213941	0.376927	-1.469867	1
H	-0.530631	1.432956	1.401953	1
H	-0.012321	2.334986	-0.036377	1
H	1.918679	1.037226	-0.173677	1
H	2.132429	-1.098303	0.557703	1
H	1.133579	-0.743963	1.975633	1
H	-0.738821	-1.462394	0.893653	1
H	0.921549	-1.641293	-1.415927	1
Es	1.237928	-0.567286	0.898896	99
Es	-2.061929	0.285365	-0.529875	99
Es	0.602599	-1.779425	-1.146512	99
Es	0.777087	1.091099	0.566168	99
Es	-0.366063	1.394837	1.097463	99
Es	1.315148	0.248643	0.760119	99
Es	0.339418	-2.241798	-0.699450	99
Es	1.531675	1.041124	0.934299	99
Es	-2.211439	0.286507	-0.192335	99
Es	1.375955	0.884336	0.676015	99
Es	-0.001601	1.351227	0.443988	99
Es	-0.334325	0.826534	-0.008414	99
Es	-0.306942	0.341213	-1.153983	99
Es	-0.022466	-2.009207	-1.001367	99
Es	1.158449	-0.691768	1.635623	99
Es	-0.039981	-1.021039	0.173095	99
Es	-1.430421	0.277557	-0.523429	99
Es	0.223316	-1.993533	-0.837560	99
Es	-0.007507	2.023435	0.108542	99
Es	-0.602673	0.266637	-0.448435	99
Es	0.139641	-1.612736	-0.466819	99
Es	-2.228392	0.768811	-0.872908	99
Es	-0.520007	-1.321012	0.661787	99
Es	0.610009	-0.807374	0.530698	99
Es	-0.339377	-0.380031	-0.143348	99
Es	-2.228956	-0.196068	-0.860112	99
Es	1.845123	-0.929731	0.652434	99
Es	1.691819	0.964207	0.139191	99
45
Properties=species:S:1:pos:R:3:Z:I:1 energy=-341.15200165479575 field_type=dipole dipole="0.000000 0.000000 0.000000" charge=0
N	-2.062151	0.285377	-0.529387	7
C	-0.602531	0.266637	-0.448447	6
C	-0.001731	1.351276	0.443993	6
N	1.376229	0.884636	0.676513	7
C	1.237930	-0.567423	0.898933	6
C	-0.040061	-1.020913	0.173283	6
O	0.223199	-1.993753	-0.837577	8
H	-2.371631	-0.539043	-1.047507	1
H	-2.369781	1.097066	-1.062897	1
H	-0.213941	0.376927	-1.469867	1
H	-0.530631	1.432956	1.401953	1
H	-0.012321	2.334986	-0.036377	1
H	1.918679	1.037226	-0.173677	1
H	2.132429	-1.098303	0.557703	1
H	1.133579	-0.743963	1.975633	1
H	-0.738821	-1.462394	0.893653	1
H	0.921549	-1.641293	-1.415927	1
Es	0.777118	1.090483	0.565628	99
Es	-2.229332	-0.196517	-0.859896	99
Es	1.845146	-0.929787	0.652441	99
Es	1.531238	1.041520	0.934501	99
Es	-0.007593	2.023417	0.108391	99
Es	-0.602673	0.266636	-0.448435	99
Es	-0.334288	0.826551	-0.008375	99
Es	-0.001601	1.351227	0.443990	99
Es	1.375952	0.884346	0.676045	99
Es	-0.339201	-0.379927	-0.143255	99
Es	0.610002	-0.807380	0.530691	99
Es	-2.228190	0.768314	-0.873010	99
Es	0.603704	-1.780134	-1.145523	99
Es	-0.306928	0.341252	-1.153987	99
Es	-0.021694	-2.005591	-1.001881	99
Es	-0.520020	-1.321006	0.661829	99
Es	1.692069	0.964276	0.139214	99
Es	1.315352	0.248670	0.760262	99
Es	0.223340	-1.993439	-0.837564	99
Es	-1.430357	0.277660	-0.523474	99
Es	1.237929	-0.567290	0.898897	99
Es	-2.211396	0.287321	-0.192402	99
Es	0.336642	-2.244449	-0.700576	99
Es	0.140548	-1.613086	-0.466187	99
Es	-0.039981	-1.021040	0.173095	99
Es	-0.366122	1.394790	1.097494	99
Es	1.158352	-0.691657	1.635700	99
Es	-2.061933	0.285364	-0.529845	99
45
Properties=species:S:1:pos:R:3:Z:I:1 energy=-341.15200165479575 field_type=dipole dipole="0.000000 0.000000 0.000000" charge=0
N	-2.062151	0.285377	-0.529387	7
C	-0.602531	0.266637	-0.448447	6
C	-0.001731	1.351276	0.443993	6
N	1.376229	0.884636	0.676513	7
C	1.237930	-0.567423	0.898933	6
C	-0.040061	-1.020913	0.173283	6
O	0.223199	-1.993753	-0.837577	8
H	-2.371631	-0.539043	-1.047507	1
H	-2.369781	1.097066	-1.062897	1
H	-0.213941	0.376927	-1.469867	1
H	-0.530631	1.432956	1.401953	1
H	-0.012321	2.334986	-0.036377	1
H	1.918679	1.037226	-0.173677	1
H	2.132429	-1.098303	0.557703	1
H	1.133579	-0.743963	1.975633	1
H	-0.738821	-1.462394	0.893653	1
H	0.921549	-1.641293	-1.415927	1
Es	-2.061927	0.285375	-0.529872	99
Es	0.610031	-0.807380	0.530617	99
Es	1.375951	0.884336	0.676009	99
Es	0.223333	-1.993409	-0.837577	99
Es	-0.602673	0.266637	-0.448435	99
Es	0.336282	-2.244362	-0.699471	99
Es	-0.520023	-1.321006	0.661791	99
Es	1.237928	-0.567286	0.898896	99
Es	-0.334291	0.826322	-0.008357	99
Es	0.777159	1.090376	0.565498	99
Es	-0.339329	-0.379911	-0.143325	99
Es	1.691629	0.963692	0.138889	99
Es	-0.001602	1.351228	0.443988	99
Es	-0.306864	0.341269	-1.154059	99
Es	-0.366111	1.394957	1.097527	99
Es	1.158495	-0.691747	1.635703	99
Es	-2.228976	-0.196264	-0.860170	99
Es	-1.430548	0.277599	-0.523112	99
Es	0.604688	-1.780241	-1.144853	99
Es	-2.227960	0.768360	-0.873149	99
Es	-0.007535	2.023298	0.108373	99
Es	-2.211845	0.287053	-0.192251	99
Es	-0.039982	-1.021044	0.173092	99
Es	1.315569	0.248794	0.761049	99
Es	1.845047	-0.929668	0.652501	99
Es	1.531447	1.042218	0.934263	99
Es	0.138240	-1.612424	-0.467435	99
Es	-0.020048	-2.006248	-1.002362	99
45
Properties=species:S:1:pos:R:3:Z:I:1 energy=-341.15200165479575 field_type=dipole dipole="0.000000 0.000000 0.000000" charge=0
N	-2.062151	0.285377	-0.529387	7
C	-0.602531	0.266637	-0.448447	6
C	-0.001731	1.351276	0.443993	6
N	1.376229	0.884636	0.676513	7
C	1.237930	-0.567423	0.898933	6