43
Properties=species:S:1:pos:R:3:Z:I:1 energy=-323.96276343169217 field_type=dipole dipole="0.000000 0.000000 0.000000" charge=0
N	-1.796681	0.489437	-0.636108	7
C	-0.343261	0.466747	-0.582998	6
C	0.263619	1.545897	0.312733	6
O	1.590179	1.084978	0.609513	8
C	1.492719	-0.341403	0.765752	6
C	0.248079	-0.758103	0.040383	6
C	-0.248241	-2.004703	0.043862	6
H	-2.111061	-0.207622	-1.308228	1
H	-2.107181	1.389167	-0.998028	1
H	0.068379	0.571217	-1.594827	1
H	-0.280691	1.667297	1.257822	1
H	0.317649	2.518988	-0.185618	1
H	2.392169	-0.795642	0.341112	1
H	1.429389	-0.565933	1.835472	1
H	-1.174311	-2.249292	-0.465218	1
H	0.259239	-2.811032	0.564372	1
Es	-1.965400	1.032807	-0.873321	99
Es	-0.248264	-2.004776	0.043851	99
Es	-0.050089	0.531630	-1.269292	99
Es	-0.343385	0.466725	-0.582961	99
Es	1.440162	-0.507469	1.491605	99
Es	-1.796434	0.489561	-0.636623	99
Es	1.589864	1.084776	0.609491	99
Es	-0.179058	-1.333676	0.308876	99
Es	1.076782	1.241530	0.502227	99
Es	-0.120838	1.621163	0.955974	99
Es	2.097664	-0.657689	0.477282	99
Es	1.745269	1.123458	0.347849	99
Es	0.164096	-1.469909	-0.238814	99
Es	1.678780	1.208087	0.877226	99
Es	0.248146	-0.757982	0.040379	99
Es	1.528641	0.544372	0.671069	99
Es	0.298074	2.211706	-0.030661	99
Es	0.094773	-2.552960	0.395548	99
Es	-0.069859	-0.169235	-0.280844	99
Es	-1.971031	0.076346	-1.056294	99
Es	-0.067557	1.017254	-0.142129	99
Es	0.872537	-0.568267	0.398878	99
Es	-1.160771	0.481594	-0.632578	99
Es	1.492692	-0.341187	0.765699	99
Es	0.263822	1.545805	0.312747	99
Es	-1.936417	0.432060	-0.320569	99
Es	-0.874337	-2.174506	-0.303884	99
43
Properties=species:S:1:pos:R:3:Z:I:1 energy=-323.96276343169217 field_type=dipole dipole="0.000000 0.000000 0.000000" charge=0
N	-1.796681	0.489437	-0.636108	7
C	-0.343261	0.466747	-0.582998	6
C	0.263619	1.545897	0.312733	6
O	1.590179	1.084978	0.609513	8
C	1.492719	-0.341403	0.765752	6
C	0.248079	-0.758103	0.040383	6
C	-0.248241	-2.004703	0.043862	6
H	-2.111061	-0.207622	-1.308228	1
H	-2.107181	1.389167	-0.998028	1
H	0.068379	0.571217	-1.594827	1
H	-0.280691	1.667297	1.257822	1
H	0.317649	2.518988	-0.185618	1
H	2.392169	-0.795642	0.341112	1
H	1.429389	-0.565933	1.835472	1
H	-1.174311	-2.249292	-0.465218	1
H	0.259239	-2.811032	0.564372	1
Es	1.440390	-0.507553	1.490904	99
Es	-0.051442	0.531643	-1.267734	99
Es	-1.967152	1.035916	-0.872239	99
Es	1.742329	1.125445	0.351707	99
Es	-1.796423	0.489553	-0.636638	99
Es	1.678446	1.209593	0.874542	99
Es	1.589866	1.084726	0.609262	99
Es	-0.248260	-2.004776	0.043847	99
Es	-1.974761	0.070471	-1.052408	99
Es	1.530123	0.540578	0.670442	99
Es	0.248145	-0.757979	0.040381	99
Es	-0.179204	-1.333915	0.309133	99
Es	-1.161596	0.481177	-0.633270	99
Es	1.492692	-0.341186	0.765700	99
Es	-1.929217	0.435411	-0.325418	99
Es	0.871812	-0.569163	0.398263	99
Es	0.164272	-1.470144	-0.238986	99
Es	-0.343383	0.466725	-0.582959	99
Es	-0.067865	1.017901	-0.141399	99
Es	0.297778	2.213888	-0.030527	99
Es	1.078270	1.242672	0.502066	99
Es	-0.873857	-2.174068	-0.303622	99
Es	2.096963	-0.657567	0.478110	99
Es	0.263824	1.545805	0.312747	99
Es	-0.119254	1.620166	0.954589	99
Es	-0.069403	-0.170483	-0.281543	99
Es	0.094771	-2.553616	0.395784	99
43
Properties=species:S:1:pos:R:3:Z:I:1 energy=-323.96276343169217 field_type=dipole dipole="0.000000 0.000000 0.000000" charge=0
N	-1.796681	0.489437	-0.636108	7
C	-0.343261	0.466747	-0.582998	6
C	0.263619	1.545897	0.312733	6
O	1.590179	1.084978	0.609513	8
C	1.492719	-0.341403	0.765752	6
C	0.248079	-0.758103	0.040383	6
C	-0.248241	-2.004703	0.043862	6
H	-2.111061	-0.207622	-1.308228	1
H	-2.107181	1.389167	-0.998028	1
H	0.068379	0.571217	-1.594827	1
H	-0.280691	1.667297	1.257822	1
H	0.317649	2.518988	-0.185618	1
H	2.392169	-0.795642	0.341112	1
H	1.429389	-0.565933	1.835472	1
H	-1.174311	-2.249292	-0.465218	1
H	0.259239	-2.811032	0.564372	1
Es	1.492692	-0.341186	0.765698	99
Es	0.164515	-1.470302	-0.239536	99
Es	-1.967443	1.037495	-0.872169	99
Es	0.297599	2.215308	-0.030163	99
Es	1.739422	1.124209	0.352366	99
Es	-0.248264	-2.004782	0.043846	99
Es	0.263819	1.545810	0.312748	99
Es	-1.925029	0.438437	-0.329203	99
Es	-0.343382	0.466725	-0.582960	99
Es	1.679852	1.212056	0.872420	99
Es	-0.873533	-2.173708	-0.302979	99
Es	1.440529	-0.507564	1.490415	99
Es	1.079572	1.243291	0.501911	99
Es	0.094484	-2.554033	0.395959	99
Es	-0.118061	1.619497	0.953475	99
Es	-1.796435	0.489546	-0.636632	99
Es	1.589933	1.084800	0.609476	99
Es	-1.977517	0.066515	-1.049088	99
Es	-1.162074	0.480648	-0.633192	99
Es	0.871399	-0.569828	0.397602	99
Es	1.530031	0.539187	0.671884	99
Es	-0.068095	1.018343	-0.141223	99
Es	-0.068734	-0.171348	-0.282135	99
Es	0.248149	-0.757979	0.040377	99
Es	-0.052440	0.531556	-1.266522	99
Es	-0.179509	-1.334024	0.309652	99
Es	2.096386	-0.657450	0.478704	99
43
Properties=species:S:1:pos:R:3:Z:I:1 energy=-323.96276343169217 field_type=dipole dipole="0.000000 0.000000 0.000000" charge=0
N	-1.796681	0.489437	-0.636108	7
C	-0.343261	0.466747	-0.582998	6
C	0.263619	1.545897	0.312733	6
O	1.590179	1.084978	0.609513	8
C	1.492719	-0.341403	0.765752	6
C	0.248079	-0.758103	0.040383	6
C	-0.248241	-2.004703	0.043862	6
H	-2.111061	-0.207622	-1.308228	1
H	-2.107181	1.389167	-0.998028	1
H	0.068379	0.571217	-1.594827	1
H	-0.280691	1.667297	1.257822	1
H	0.317649	2.518988	-0.185618	1
H	2.392169	-0.795642	0.341112	1
H	1.429389	-0.565933	1.835472	1
H	-1.174311	-2.249292	-0.465218	1
H	0.259239	-2.811032	0.564372	1
Es	1.492693	-0.341185	0.765699	99
Es	-0.068250	1.018766	-0.141037	99
Es	-0.248266	-2.004784	0.043852	99
Es	0.094316	-2.554332	0.396075	99
Es	1.440835	-0.507571	1.490033	99
Es	-0.873395	-2.173408	-0.302617	99
Es	1.736807	1.123388	0.351291	99
Es	0.164603	-1.470237	-0.239793	99
Es	0.263823	1.545805	0.312748	99
Es	-1.162876	0.480234	-0.633696	99
Es	0.248147	-0.757980	0.040378	99
Es	-1.796436	0.489562	-0.636645	99
Es	-1.979650	0.063563	-1.046192	99
Es	-0.068269	-0.171774	-0.282406	99
Es	1.080465	1.243320	0.503582	99
Es	1.681881	1.213786	0.870812	99
Es	-1.967269	1.038610	-0.872368	99
Es	1.529556	0.538594	0.672965	99
Es	-0.343382	0.466723	-0.582959	99
Es	1.589848	1.084751	0.609492	99
Es	0.871006	-0.570394	0.397151	99
Es	2.095910	-0.657296	0.478966	99
Es	-1.921748	0.440723	-0.331581	99
Es	-0.117089	1.619125	0.952471	99
Es	-0.179718	-1.334281	0.310034	99
Es	0.297483	2.216311	-0.029918	99
Es	-0.053160	0.531199	-1.265603	99
43
Properties=species:S:1:pos:R:3:Z:I:1 energy=-323.96276343169217 field_type=dipole dipole="0.000000 0.000000 0.000000" charge=0
N	-1.796681	0.489437	-0.636108	7
C	-0.343261	0.466747	-0.582998	6
C	0.263619	1.545897	0.312733	6
O	1.590179	1.084978	0.609513	8
C	1.492719	-0.341403	0.765752	6
C	0.248079	-0.758103	0.040383	6
C	-0.248241	-2.004703	0.043862	6
H	-2.111061	-0.207622	-1.308228	1
H	-2.107181	1.389167	-0.998028	1
H	0.068379	0.571217	-1.594827	1
H	-0.280691	1.667297	1.257822	1
H	0.317649	2.518988	-0.185618	1
H	2.392169	-0.795642	0.341112	1
H	1.429389	-0.565933	1.835472	1
H	-1.174311	-2.249292	-0.465218	1
H	0.259239	-2.811032	0.564372	1
Es	-1.918450	0.443268	-0.335024	99
Es	1.492691	-0.341183	0.765701	99
Es	1.740035	1.126273	0.352142	99
Es	-1.163220	0.479929	-0.633696	99
Es	2.095546	-0.657093	0.479270	99
Es	1.529974	0.537820	0.673594	99
Es	0.093937	-2.554453	0.396343	99
Es	-1.982046	0.060464	-1.042922	99
Es	-0.873173	-2.173248	-0.302352	99
Es	-0.068502	1.019072	-0.141024	99
Es	0.297518	2.217001	-0.029514	99
Es	-0.067958	-0.172251	-0.282754	99
Es	1.080956	1.243256	0.503087	99
Es	-1.967212	1.039473	-0.872299	99
Es	-0.248264	-2.004782	0.043850	99
Es	0.164923	-1.470444	-0.240165	99
Es	0.248146	-0.757981	0.040379	99
Es	1.441098	-0.507549	1.489739	99
Es	0.263820	1.545807	0.312745	99
Es	-0.179929	-1.334272	0.310330	99
Es	0.870646	-0.570834	0.396746	99
Es	-0.116330	1.618858	0.951743	99
Es	-0.053808	0.531065	-1.264930	99
Es	1.677405	1.211996	0.869851	99
Es	-1.796430	0.489545	-0.636627	99
Es	-0.343385	0.466724	-0.582959	99
Es	1.589875	1.084758	0.609477	99
43
Properties=species:S:1:pos:R:3:Z:I:1 energy=-323.96276343169217 field_type=dipole dipole="0.000000 0.000000 0.000000" charge=0
N	-1.796681	0.489437	-0.636108	7
C	-0.343261	0.466747	-0.582998	6
C	0.263619	1.545897	0.312733	6
O	1.590179	1.084978	0.609513	8
C	1.492719	-0.341403	0.765752	6
C	0.248079	-0.758103	0.040383	6
C	-0.248241	-2.004703	0.043862	6
H	-2.111061	-0.207622	-1.308228	1
H	-2.107181	1.389167	-0.998028	1
H	0.068379	0.571217	-1.594827	1
H	-0.280691	1.667297	1.257822	1
H	0.317649	2.518988	-0.185618	1
H	2.392169	-0.795642	0.341112	1
H	1.429389	-0.565933	1.835472	1
H	-1.174311	-2.249292	-0.465218	1
H	0.259239	-2.811032	0.564372	1
Es	-0.180045	-1.334468	0.310364	99
Es	1.082496	1.242510	0.501971	99
Es	-0.115705	1.618672	0.951009	99
Es	0.248144	-0.757977	0.040384	99
Es	0.870352	-0.571241	0.396479	99
Es	-1.796424	0.489555	-0.636653	99
Es	0.165028	-1.470405	-0.240297	99
Es	1.671939	1.209958	0.870864	99
Es	1.441197	-0.507487	1.489503	99
Es	2.095208	-0.656969	0.479602	99
Es	-1.916367	0.444691	-0.337577	99
Es	1.492691	-0.341185	0.765699	99
Es	-1.966908	1.040291	-0.872094	99
Es	-0.343383	0.466724	-0.582959	99
Es	-1.983509	0.058573	-1.040859	99
Es	-0.067660	-0.172447	-0.282958	99
Es	0.297439	2.217538	-0.029275	99
Es	1.529447	0.537310	0.672821	99
Es	0.093823	-2.554656	0.396494	99
Es	-0.873119	-2.173007	-0.302121	99
Es	1.589901	1.084653	0.608959	99
Es	-0.248267	-2.004782	0.043854	99
Es	-0.054233	0.530710	-1.264187	99
Es	1.744390	1.129868	0.353529	99
Es	-0.068487	1.019325	-0.141011	99
Es	-1.163909	0.479658	-0.633555	99
Es	0.263821	1.545806	0.312746	99
43
Properties=species:S:1:pos:R:3:Z:I:1 energy=-323.96276343169217 field_type=dipole dipole="0.000000 0.000000 0.000000" charge=0
N	-1.796681	0.489437	-0.636108	7
C	-0.343261	0.466747	-0.582998	6
C	0.263619	1.545897	0.312733	6
O	1.590179	1.084978	0.609513	8
C	1.492719	-0.341403	0.765752	6
C	0.248079	-0.758103	0.040383	6
C	-0.248241	-2.004703	0.043862	6
H	-2.111061	-0.207622	-1.308228	1
H	-2.107181	1.389167	-0.998028	1
H	0.068379	0.571217	-1.594827	1
H	-0.280691	1.667297	1.257822	1
H	0.317649	2.518988	-0.185618	1
H	2.392169	-0.795642	0.341112	1
H	1.429389	-0.565933	1.835472	1
H	-1.174311	-2.249292	-0.465218	1
H	0.259239	-2.811032	0.564372	1
Es	1.492690	-0.341188	0.765703	99
Es	-1.985657	0.056241	-1.037515	99
Es	1.082840	1.242181	0.504316	99
Es	-1.164236	0.479551	-0.633846	99
Es	1.441256	-0.507545	1.489425	99
Es	-1.796414	0.489568	-0.636705	99
Es	-1.966807	1.040772	-0.872189	99
Es	-0.343381	0.466724	-0.582959	99
Es	0.870209	-0.571462	0.396073	99
Es	-0.054552	0.530577	-1.263793	99
Es	2.094909	-0.656811	0.479768	99
Es	0.263819	1.545809	0.312746	99
Es	-0.873032	-2.172814	-0.301722	99
Es	0.165196	-1.470572	-0.240631	99
Es	1.529176	0.537185	0.673479	99
Es	-0.248265	-2.004782	0.043850	99
Es	0.248148	-0.757978	0.040377	99
Es	0.297499	2.217917	-0.029169	99
Es	-0.067523	-0.172694	-0.283134	99
Es	-0.068566	1.019404	-0.140934	99
Es	0.093578	-2.554789	0.396634	99
Es	1.741422	1.128846	0.350972	99
Es	1.589879	1.084786	0.609532	99
Es	1.674642	1.211438	0.869813	99
Es	-0.180072	-1.334456	0.310598	99
Es	-1.913657	0.446748	-0.340520	99
Es	-0.115239	1.618562	0.950562	99
43
Properties=species:S:1:pos:R:3:Z:I:1 energy=-323.96276343169217 field_type=dipole dipole="0.000000 0.000000 0.000000" charge=0
N	-1.796681	0.489437	-0.636108	7
C	-0.343261	0.466747	-0.582998	6
C	0.263619	1.545897	0.312733	6
O	1.590179	1.084978	0.609513	8
C	1.492719	-0.341403	0.765752	6
C	0.248079	-0.758103	0.040383	6
C	-0.248241	-2.004703	0.043862	6
H	-2.111061	-0.207622	-1.308228	1
H	-2.107181	1.389167	-0.998028	1
H	0.068379	0.571217	-1.594827	1
H	-0.280691	1.667297	1.257822	1
H	0.317649	2.518988	-0.185618	1
H	2.392169	-0.795642	0.341112	1
H	1.429389	-0.565933	1.835472	1
H	-1.174311	-2.249292	-0.465218	1
H	0.259239	-2.811032	0.564372	1
Es	0.869941	-0.571911	0.395873	99
Es	0.297410	2.218268	-0.028906	99
Es	1.441444	-0.507414	1.489155	99
Es	-1.796431	0.489575	-0.636650	99
Es	-0.873027	-2.172557	-0.301485	99
Es	-0.248268	-2.004781	0.043855	99
Es	-1.164758	0.479299	-0.634192	99
Es	-1.966364	1.041267	-0.872228	99
Es	1.589871	1.084750	0.609352	99
Es	-0.067392	-0.172777	-0.283264	99
Es	2.094727	-0.656754	0.479992	99
Es	0.248148	-0.757979	0.040377	99
Es	-1.986502	0.055308	-1.036164	99
Es	-1.912401	0.447461	-0.341603	99
Es	0.165193	-1.470595	-0.240759	99
Es	-0.054957	0.530253	-1.263246	99
Es	-0.114724	1.618470	0.949938	99
Es	1.528646	0.536806	0.672701	99
Es	-0.179984	-1.334546	0.310616	99
Es	0.093367	-2.554949	0.396819	99
Es	1.492691	-0.341179	0.765700	99
Es	1.673560	1.210581	0.869950	99
Es	-0.068619	1.019689	-0.140989	99
Es	1.742053	1.130370	0.350770	99
Es	-0.343380	0.466724	-0.582958	99
Es	1.083799	1.242033	0.505332	99
Es	0.263823	1.545806	0.312745	99
43
Properties=species:S:1:pos:R:3:Z:I:1 energy=-323.96276343169217 field_type=dipole dipole="0.000000 0.000000 0.000000" charge=0
N	-1.796681	0.489437	-0.636108	7
C	-0.343261	0.466747	-0.582998	6
C	0.263619	1.545897	0.312733	6
O	1.590179	1.084978	0.609513	8
C	1.492719	-0.341403	0.765752	6
C	0.248079	-0.758103	0.040383	6
C	-0.248241	-2.004703	0.043862	6
H	-2.111061	-0.207622	-1.308228	1
H	-2.107181	1.389167	-0.998028	1
H	0.068379	0.571217	-1.594827	1
H	-0.280691	1.667297	1.257822	1
H	0.317649	2.518988	-0.185618	1
H	2.392169	-0.795642	0.341112	1
H	1.429389	-0.565933	1.835472	1
H	-1.174311	-2.249292	-0.465218	1
H	0.259239	-2.811032	0.564372	1
Es	-1.165321	0.479101	-0.634364	99
Es	-0.248265	-2.004783	0.043850	99
Es	-0.343382	0.466724	-0.582959	99
Es	0.297439	2.218512	-0.028705	99
Es	-1.910366	0.448969	-0.344135	99
Es	0.248150	-0.757979	0.040375	99
Es	0.093307	-2.554958	0.396771	99
Es	1.084361	1.241933	0.502537	99
Es	1.589856	1.084736	0.609330	99
Es	-1.966035	1.041697	-0.872165	99
Es	1.492692	-0.341190	0.765700	99
Es	-1.988091	0.053509	-1.033558	99
Es	-0.068766	1.019761	-0.140889	99
Es	1.747836	1.133260	0.352885	99
Es	1.441643	-0.507536	1.489199	99
Es	-0.872888	-2.172599	-0.301494	99
Es	0.165404	-1.470685	-0.240923	99
Es	0.869834	-0.572030	0.395657	99
Es	-0.114404	1.618376	0.949574	99
Es	1.667283	1.208052	0.870050	99
Es	-0.180212	-1.334519	0.310798	99
Es	-0.055118	0.530186	-1.262958	99
Es	2.094350	-0.656431	0.480157	99
Es	0.263821	1.545805	0.312746	99
Es	1.528433	0.536712	0.673313	99
Es	-1.796395	0.489563	-0.636711	99
Es	-0.067303	-0.172968	-0.283352	99
43
Properties=species:S:1:pos:R:3:Z:I:1 energy=-323.96276343169217 field_type=dipole dipole="0.000000 0.000000 0.000000" charge=0
N	-1.796681	0.489437	-0.636108	7
C	-0.343261	0.466747	-0.582998	6
C	0.263619	1.545897	0.312733	6
O	1.590179	1.084978	0.609513	8
C	1.492719	-0.341403	0.765752	6
C	0.248079	-0.758103	0.040383	6
C	-0.248241	-2.004703	0.043862	6
H	-2.111061	-0.207622	-1.308228	1
H	-2.107181	1.389167	-0.998028	1
H	0.068379	0.571217	-1.594827	1
H	-0.280691	1.667297	1.257822	1
H	0.317649	2.518988	-0.185618	1
H	2.392169	-0.795642	0.341112	1
H	1.429389	-0.565933	1.835472	1
H	-1.174311	-2.249292	-0.465218	1
H	0.259239	-2.811032	0.564372	1
Es	-1.909079	0.449904	-0.345272	99
Es	1.527822	0.536661	0.673094	99
Es	-1.989072	0.052474	-1.031747	99
Es	-0.067078	-0.173095	-0.283622	99
Es	0.248152	-0.757978	0.040372	99
Es	-1.965923	1.041741	-0.872386	99
Es	1.669503	1.208909	0.869828	99
Es	1.492691	-0.341184	0.765701	99
Es	-1.796397	0.489565	-0.636677	99
Es	1.084814	1.241999	0.504131	99
Es	0.297410	2.218725	-0.028579	99
Es	1.589848	1.084768	0.609555	99
Es	-0.180281	-1.334655	0.310866	99
Es	-1.165522	0.479226	-0.634821	99
Es	-0.248269	-2.004782	0.043857	99
Es	0.869638	-0.572292	0.395504	99
Es	1.441719	-0.507480	1.489042	99
Es	1.745718	1.132455	0.351428	99
Es	-0.068739	1.019838	-0.140895	99
Es	-0.055437	0.530114	-1.262585	99
Es	2.094206	-0.656428	0.480241	99
Es	-0.872788	-2.172364	-0.301280	99
Es	-0.343380	0.466725	-0.582959	99
Es	0.093137	-2.555152	0.396905	99
Es	-0.114080	1.618305	0.949267	99
Es	0.165430	-1.470590	-0.240978	99
Es	0.263821	1.545808	0.312744	99
43
Properties=species:S:1:pos:R:3:Z:I:1 energy=-323.96276343169217 field_type=dipole dipole="0.000000 0.000000 0.000000" charge=0
N	-1.796681	0.489437	-0.636108	7
C	-0.343261	0.466747	-0.582998	6
C	0.263619	1.545897	0.312733	6
O	1.590179	1.084978	0.609513	8
C	1.492719	-0.341403	0.765752	6
C	0.248079	-0.758103	0.040383	6
C	-0.248241	-2.004703	0.043862	6
H	-2.111061	-0.207622	-1.308228	1
H	-2.107181	1.389167	-0.998028	1
H	0.068379	0.571217	-1.594827	1
H	-0.280691	1.667297	1.257822	1
H	0.317649	2.518988	-0.185618	1
H	2.392169	-0.795642	0.341112	1
H	1.429389	-0.565933	1.835472	1
H	-1.174311	-2.249292	-0.465218	1
H	0.259239	-2.811032	0.564372	1
Es	-0.067015	-0.173184	-0.283571	99
Es	1.589863	1.084698	0.609227	99
Es	-0.055581	0.529897	-1.262345	99
Es	2.093911	-0.656229	0.480423	99
Es	-1.796413	0.489549	-0.636638	99
Es	0.263822	1.545807	0.312745	99
Es	-0.343381	0.466724	-0.582959	99
Es	0.248149	-0.757978	0.040376	99
Es	-0.180279	-1.334595	0.310909	99
Es	1.673210	1.209071	0.868061	99
Es	1.527263	0.536643	0.673456	99
Es	-1.165716	0.479013	-0.634555	99
Es	-0.068779	1.019955	-0.140992	99
Es	0.165607	-1.470777	-0.241160	99
Es	-0.248268	-2.004782	0.043855	99
Es	-0.113810	1.618260	0.948967	99
Es	1.084546	1.243007	0.507671	99
Es	-0.872788	-2.172236	-0.301145	99
Es	-1.965674	1.042095	-0.872472	99
Es	1.742701	1.131439	0.349565	99
Es	0.297498	2.218921	-0.028444	99
Es	0.869645	-0.572470	0.395160	99
Es	1.441766	-0.507554	1.489102	99
Es	-1.908279	0.450565	-0.346859	99
Es	1.492692	-0.341185	0.765698	99
Es	-1.989695	0.051730	-1.030430	99
Es	0.092870	-2.555166	0.397085	99
43
Properties=species:S:1:pos:R:3:Z:I:1 energy=-323.96276343169217 field_type=dipole dipole="0.000000 0.000000 0.000000" charge=0
N	-1.796681	0.489437	-0.636108	7
C	-0.343261	0.466747	-0.582998	6
C	0.263619	1.545897	0.312733	6
O	1.590179	1.084978	0.609513	8
C	1.492719	-0.341403	0.765752	6
C	0.248079	-0.758103	0.040383	6
C	-0.248241	-2.004703	0.043862	6
H	-2.111061	-0.207622	-1.308228	1
H	-2.107181	1.389167	-0.998028	1
H	0.068379	0.571217	-1.594827	1
H	-0.280691	1.667297	1.257822	1
H	0.317649	2.518988	-0.185618	1
H	2.392169	-0.795642	0.341112	1
H	1.429389	-0.565933	1.835472	1
H	-1.174311	-2.249292	-0.465218	1
H	0.259239	-2.811032	0.564372	1
Es	0.248150	-0.757978	0.040375	99
Es	1.658119	1.202853	0.870415	99
Es	-0.113467	1.618334	0.948590	99
Es	-1.965316	1.042452	-0.872172	99
Es	1.086078	1.241076	0.501925	99
Es	1.492692	-0.341182	0.765694	99
Es	1.755677	1.139956	0.354360	99
Es	-1.907473	0.451022	-0.348360	99
Es	-1.165972	0.478923	-0.634302	99
Es	-1.990278	0.051035	-1.029574	99
Es	1.527726	0.536240	0.671861	99
Es	-0.067242	-0.173377	-0.283617	99
Es	-0.248270	-2.004781	0.043858	99
Es	0.165521	-1.470785	-0.240810	99
Es	-1.796441	0.489555	-0.636635	99
Es	0.093046	-2.555224	0.396885	99
Es	-0.055825	0.529740	-1.261956	99
Es	-0.180367	-1.334525	0.310846	99
Es	0.297548	2.219020	-0.028240	99
Es	1.589942	1.084790	0.609477	99
Es	2.093723	-0.656021	0.480668	99
Es	1.441903	-0.507559	1.489015	99
Es	-0.343382	0.466724	-0.582959	99
Es	0.869563	-0.572649	0.395221	99
Es	-0.068957	1.020102	-0.140972	99
Es	0.263822	1.545806	0.312746	99
Es	-0.872657	-2.172329	-0.301609	99
43
Properties=species:S:1:pos:R:3:Z:I:1 energy=-323.96276343169217 field_type=dipole dipole="0.000000 0.000000 0.000000" charge=0
N	-1.796681	0.489437	-0.636108	7
C	-0.343261	0.466747	-0.582998	6
C	0.263619	1.545897	0.312733	6
O	1.590179	1.084978	0.609513	8
C	1.492719	-0.341403	0.765752	6
C	0.248079	-0.758103	0.040383	6
C	-0.248241	-2.004703	0.043862	6
H	-2.111061	-0.207622	-1.308228	1
H	-2.107181	1.389167	-0.998028	1
H	0.068379	0.571217	-1.594827	1
H	-0.280691	1.667297	1.257822	1
H	0.317649	2.518988	-0.185618	1
H	2.392169	-0.795642	0.341112	1
H	1.429389	-0.565933	1.835472	1
H	-1.174311	-2.249292	-0.465218	1
H	0.259239	-2.811032	0.564372	1
Es	1.442002	-0.507569	1.488988	99
Es	-0.343377	0.466723	-0.582957	99
Es	0.263822	1.545808	0.312745	99
Es	0.248148	-0.757977	0.040377	99
Es	1.492691	-0.341184	0.765699	99
Es	0.165641	-1.470741	-0.241133	99
Es	1.589877	1.084701	0.609291	99
Es	0.297514	2.219192	-0.028157	99
Es	-1.965039	1.042675	-0.872148	99
Es	-1.796418	0.489559	-0.636665	99
Es	-1.166266	0.478735	-0.634550	99
Es	-0.067079	-0.173368	-0.283680	99
Es	-0.113262	1.618241	0.948352	99
Es	2.093592	-0.656001	0.480620	99
Es	-1.906658	0.451563	-0.349452	99
Es	0.869472	-0.572773	0.395098	99
Es	1.086201	1.241237	0.504286	99
Es	1.663033	1.205488	0.869510	99
Es	-0.248266	-2.004781	0.043857	99
Es	1.527268	0.536292	0.672895	99
Es	-0.068949	1.020097	-0.140956	99
Es	-0.872649	-2.172165	-0.301206	99
Es	1.751050	1.137281	0.351987	99
Es	0.092834	-2.555299	0.396944	99
Es	-0.055875	0.529658	-1.261680	99
Es	-1.991079	0.050483	-1.028338	99
Es	-0.180366	-1.334656	0.311005	99
43
Properties=species:S:1:pos:R:3:Z:I:1 energy=-323.96276343169217 field_type=dipole dipole="0.000000 0.000000 0.000000" charge=0
N	-1.796681	0.489437	-0.636108	7
C	-0.343261	0.466747	-0.582998	6
C	0.263619	1.545897	0.312733	6
O	1.590179	1.084978	0.609513	8
C	1.492719	-0.341403	0.765752	6
C	0.248079	-0.758103	0.040383	6
C	-0.248241	-2.004703	0.043862	6
H	-2.111061	-0.207622	-1.308228	1
H	-2.107181	1.389167	-0.998028	1
H	0.068379	0.571217	-1.594827	1
H	-0.280691	1.667297	1.257822	1
H	0.317649	2.518988	-0.185618	1
H	2.392169	-0.795642	0.341112	1
H	1.429389	-0.565933	1.835472	1
H	-1.174311	-2.249292	-0.465218	1
H	0.259239	-2.811032	0.564372	1
Es	-0.248266	-2.004784	0.043854	99
Es	1.527484	0.536247	0.672766	99
Es	0.092806	-2.555366	0.397052	99
Es	0.165619	-1.470856	-0.241171	99
Es	-1.905685	0.452115	-0.350659	99
Es	-0.067075	-0.173389	-0.283658	99
Es	-0.068846	1.020223	-0.141046	99
Es	1.662964	1.205549	0.869362	99
Es	-0.056091	0.529455	-1.261617	99
Es	-1.796424	0.489541	-0.636613	99
Es	1.589771	1.084757	0.609737	99
Es	0.869358	-0.572811	0.395079	99
Es	1.086232	1.240889	0.504516	99
Es	-1.991748	0.049800	-1.026982	99
Es	-0.343382	0.466724	-0.582959	99
Es	0.297573	2.219291	-0.028124	99
Es	0.263821	1.545808	0.312745	99
Es	-1.965098	1.042776	-0.872104	99
Es	0.248149	-0.757978	0.040376	99
Es	1.750952	1.137602	0.351548	99
Es	1.442056	-0.507609	1.489021	99
Es	1.492691	-0.341182	0.765699	99
Es	-0.180286	-1.334608	0.310904	99
Es	-0.872698	-2.172050	-0.301108	99
Es	-1.166279	0.478829	-0.634668	99
Es	2.093380	-0.655975	0.480593	99
Es	-0.113114	1.618222	0.948190	99
43
Properties=species:S:1:pos:R:3:Z:I:1 energy=-323.96276343169217 field_type=dipole dipole="0.000000 0.000000 0.000000" charge=0
N	-1.796681	0.489437	-0.636108	7
C	-0.343261	0.466747	-0.582998	6
C	0.263619	1.545897	0.312733	6
O	1.590179	1.084978	0.609513	8
C	1.492719	-0.341403	0.765752	6
C	0.248079	-0.758103	0.040383	6
C	-0.248241	-2.004703	0.043862	6
H	-2.111061	-0.207622	-1.308228	1
H	-2.107181	1.389167	-0.998028	1
H	0.068379	0.571217	-1.594827	1
H	-0.280691	1.667297	1.257822	1
H	0.317649	2.518988	-0.185618	1
H	2.392169	-0.795642	0.341112	1
H	1.429389	-0.565933	1.835472	1
H	-1.174311	-2.249292	-0.465218	1
H	0.259239	-2.811032	0.564372	1
Es	-0.056200	0.529336	-1.261305	99
Es	1.087069	1.239942	0.500923	99
Es	-0.112866	1.618261	0.947883	99
Es	-1.964785	1.043168	-0.871883	99
Es	1.589804	1.084760	0.609658	99
Es	0.263822	1.545807	0.312746	99
Es	0.297583	2.219365	-0.027897	99
Es	-0.180521	-1.334454	0.310812	99
Es	-1.905827	0.452120	-0.351882	99
Es	-0.248267	-2.004782	0.043853	99
Es	-1.796422	0.489572	-0.636691	99
Es	1.764185	1.147675	0.357500	99
Es	0.248146	-0.757976	0.040380	99
Es	-0.872469	-2.172269	-0.301746	99
Es	-0.343383	0.466725	-0.582959	99
Es	-1.991360	0.049425	-1.027129	99
Es	-1.166569	0.478751	-0.633611	99
Es	0.869387	-0.573093	0.394940	99
Es	1.492691	-0.341185	0.765699	99
Es	-0.069069	1.020396	-0.140991	99
Es	1.527946	0.535834	0.669568	99
Es	1.442516	-0.507826	1.489226	99
Es	-0.067343	-0.173559	-0.283669	99
Es	0.165652	-1.470917	-0.240824	99
Es	1.648373	1.196845	0.870350	99
Es	2.092834	-0.655373	0.480874	99
Es	0.092935	-2.555328	0.396908	99
43
Properties=species:S:1:pos:R:3:Z:I:1 energy=-323.96276343169217 field_type=dipole dipole="0.000000 0.000000 0.000000" charge=0
N	-1.796681	0.489437	-0.636108	7
C	-0.343261	0.466747	-0.582998	6
C	0.263619	1.545897	0.312733	6
O	1.590179	1.084978	0.609513	8
C	1.492719	-0.341403	0.765752	6
C	0.248079	-0.758103	0.040383	6
C	-0.248241	-2.004703	0.043862	6
H	-2.111061	-0.207622	-1.308228	1
H	-2.107181	1.389167	-0.998028	1
H	0.068379	0.571217	-1.594827	1
H	-0.280691	1.667297	1.257822	1
H	0.317649	2.518988	-0.185618	1
H	2.392169	-0.795642	0.341112	1
H	1.429389	-0.565933	1.835472	1
H	-1.174311	-2.249292	-0.465218	1
H	0.259239	-2.811032	0.564372	1
Es	0.869206	-0.573158	0.394982	99
Es	1.527253	0.536016	0.671480	99
Es	-0.872451	-2.172127	-0.301419	99
Es	2.093049	-0.655693	0.480805	99
Es	-0.343384	0.466725	-0.582961	99
Es	1.589921	1.084798	0.609506	99
Es	-1.796421	0.489574	-0.636668	99
Es	1.087299	1.240244	0.502315	99
Es	-0.180614	-1.334792	0.310926	99
Es	1.654808	1.201301	0.870268	99
Es	0.092766	-2.555397	0.397026	99
Es	1.492692	-0.341181	0.765701	99
Es	0.165726	-1.470618	-0.241035	99
Es	0.248150	-0.757978	0.040374	99
Es	-0.112648	1.618232	0.947659	99
Es	-0.067067	-0.173469	-0.283751	99
Es	-1.964597	1.043132	-0.872172	99
Es	0.263821	1.545807	0.312745	99
Es	-0.056331	0.529305	-1.261128	99
Es	0.297539	2.219477	-0.027864	99
Es	1.758104	1.142759	0.354392	99
Es	-1.166863	0.478690	-0.634508	99
Es	1.442332	-0.507646	1.488926	99
Es	-0.248267	-2.004783	0.043854	99
Es	-0.069074	1.020354	-0.140924	99
Es	-1.904917	0.452632	-0.352007	99
Es	-1.992169	0.049012	-1.025791	99
43
Properties=species:S:1:pos:R:3:Z:I:1 energy=-323.96276343169217 field_type=dipole dipole="0.000000 0.000000 0.000000" charge=0
N	-1.796681	0.489437	-0.636108	7
C	-0.343261	0.466747	-0.582998	6
C	0.263619	1.545897	0.312733	6
O	1.590179	1.084978	0.609513	8
C	1.492719	-0.341403	0.765752	6
C	0.248079	-0.758103	0.040383	6
C	-0.248241	-2.004703	0.043862	6
H	-2.111061	-0.207622	-1.308228	1
H	-2.107181	1.389167	-0.998028	1
H	0.068379	0.571217	-1.594827	1
H	-0.280691	1.667297	1.257822	1
H	0.317649	2.518988	-0.185618	1
H	2.392169	-0.795642	0.341112	1
H	1.429389	-0.565933	1.835472	1
H	-1.174311	-2.249292	-0.465218	1
H	0.259239	-2.811032	0.564372	1
Es	0.869354	-0.573340	0.394627	99
Es	-1.796424	0.489544	-0.636628	99
Es	-0.180534	-1.334815	0.310942	99
Es	1.756503	1.142537	0.354253	99
Es	-0.069044	1.020357	-0.140908	99
Es	0.297648	2.219505	-0.027873	99
Es	-1.964244	1.043209	-0.872332	99
Es	1.589848	1.084668	0.608968	99
Es	-1.992809	0.048535	-1.024707	99
Es	0.263821	1.545808	0.312745	99
Es	-0.067198	-0.173578	-0.283762	99
Es	-0.343382	0.466724	-0.582958	99
Es	1.527003	0.535874	0.671168	99
Es	-1.904361	0.453212	-0.352946	99
Es	2.093025	-0.655507	0.481105	99
Es	-1.166907	0.478632	-0.634500	99
Es	0.248151	-0.757978	0.040372	99
Es	-0.112609	1.618239	0.947641	99
Es	-0.248267	-2.004783	0.043853	99
Es	-0.872555	-2.172072	-0.301202	99
Es	1.087068	1.240733	0.503907	99
Es	0.165768	-1.470670	-0.241183	99
Es	1.492691	-0.341184	0.765699	99
Es	1.442215	-0.507640	1.488979	99
Es	1.656752	1.201335	0.869593	99
Es	-0.056374	0.529258	-1.261174	99
Es	0.092725	-2.555385	0.397052	99
43
Properties=species:S:1:pos:R:3:Z:I:1 energy=-323.96276343169217 field_type=dipole dipole="0.000000 0.000000 0.000000" charge=0
N	-1.796681	0.489437	-0.636108	7
C	-0.343261	0.466747	-0.582998	6
C	0.263619	1.545897	0.312733	6
O	1.590179	1.084978	0.609513	8
C	1.492719	-0.341403	0.765752	6
C	0.248079	-0.758103	0.040383	6
C	-0.248241	-2.004703	0.043862	6
H	-2.111061	-0.207622	-1.308228	1
H	-2.107181	1.389167	-0.998028	1
H	0.068379	0.571217	-1.594827	1
H	-0.280691	1.667297	1.257822	1
H	0.317649	2.518988	-0.185618	1
H	2.392169	-0.795642	0.341112	1
H	1.429389	-0.565933	1.835472	1
H	-1.174311	-2.249292	-0.465218	1
H	0.259239	-2.811032	0.564372	1
Es	1.442516	-0.507691	1.488972	99
Es	-0.343381	0.466724	-0.582959	99
Es	1.087212	1.240741	0.505233	99
Es	0.869143	-0.573347	0.394676	99
Es	0.165820	-1.470880	-0.241097	99
Es	0.297606	2.219633	-0.027742	99
Es	1.755899	1.142463	0.352571	99
Es	-0.067002	-0.173595	-0.283821	99
Es	-0.069083	1.020457	-0.141025	99
Es	-1.167101	0.478486	-0.634468	99
Es	0.263824	1.545806	0.312745	99
Es	2.092744	-0.655449	0.480965	99
Es	0.248149	-0.757978	0.040375	99
Es	1.526827	0.535909	0.671310	99
Es	-1.904020	0.453500	-0.353626	99
Es	1.589883	1.084756	0.609513	99
Es	-1.796433	0.489546	-0.636632	99
Es	-1.993092	0.048222	-1.024021	99
Es	-0.056499	0.529160	-1.260871	99
Es	-0.112445	1.618191	0.947346	99
Es	1.492691	-0.341183	0.765700	99
Es	-0.248267	-2.004782	0.043854	99
Es	-1.964119	1.043297	-0.872423	99
Es	0.092564	-2.555484	0.397149	99
Es	-0.872451	-2.171952	-0.301305	99
Es	-0.180518	-1.334643	0.311010	99
Es	1.657395	1.201311	0.869300	99
43
Properties=species:S:1:pos:R:3:Z:I:1 energy=-323.96276343169217 field_type=dipole dipole="0.000000 0.000000 0.000000" charge=0
N	-1.796681	0.489437	-0.636108	7
C	-0.343261	0.466747	-0.582998	6
C	0.263619	1.545897	0.312733	6
O	1.590179	1.084978	0.609513	8
C	1.492719	-0.341403	0.765752	6
C	0.248079	-0.758103	0.040383	6
C	-0.248241	-2.004703	0.043862	6
H	-2.111061	-0.207622	-1.308228	1
H	-2.107181	1.389167	-0.998028	1
H	0.068379	0.571217	-1.594827	1
H	-0.280691	1.667297	1.257822	1
H	0.317649	2.518988	-0.185618	1
H	2.392169	-0.795642	0.341112	1
H	1.429389	-0.565933	1.835472	1
H	-1.174311	-2.249292	-0.465218	1
H	0.259239	-2.811032	0.564372	1
Es	-0.180592	-1.334594	0.310963	99
Es	-1.993323	0.047979	-1.023634	99
Es	-1.964087	1.043515	-0.872103	99
Es	0.263821	1.545807	0.312745	99
Es	-0.248266	-2.004783	0.043855	99
Es	1.527036	0.535860	0.670878	99
Es	1.442613	-0.507774	1.489030	99
Es	-0.056633	0.529132	-1.260654	99
Es	0.869182	-0.573486	0.394536	99
Es	0.165806	-1.470899	-0.241147	99
Es	-0.112303	1.618147	0.947201	99
Es	-0.343381	0.466725	-0.582960	99
Es	-0.872398	-2.172049	-0.301329	99
Es	1.759086	1.144824	0.353845	99
Es	-1.796421	0.489560	-0.636676	99
Es	2.092568	-0.655250	0.481095	99
Es	1.653590	1.199606	0.869698	99
Es	0.248150	-0.757979	0.040374	99
Es	1.492690	-0.341184	0.765699	99
Es	-0.067117	-0.173716	-0.283938	99
Es	-0.069074	1.020530	-0.141061	99
Es	1.087477	1.240054	0.504018	99
Es	1.589958	1.084799	0.609489	99
Es	-1.903482	0.453507	-0.354115	99
Es	0.092613	-2.555429	0.397150	99
Es	0.297688	2.219725	-0.027567	99
Es	-1.167334	0.478593	-0.634660	99
43