44
Properties=species:S:1:pos:R:3:Z:I:1 energy=-360.9600017721314 field_type=dipole dipole="0.000000 0.000000 0.000000" charge=0
N	-1.509465	-0.114276	0.252417	7
C	-0.045815	-0.045526	-0.009873	6
C	0.291245	-0.015666	-1.483523	6
O	-0.480985	1.001014	-2.122113	8
C	0.581875	1.019404	0.913377	6
O	0.879125	-0.000136	1.914767	8
C	0.694445	-1.036536	0.909507	6
H	-1.732285	-0.009296	1.247307	1
H	-1.930225	-1.005566	-0.015843	1
H	0.049575	-0.970096	-1.963613	1
H	1.350845	0.193084	-1.659513	1
H	-1.351345	0.982394	-1.674163	1
H	-0.082205	1.796444	1.303977	1
H	1.505715	1.483144	0.551407	1
H	1.661655	-1.395336	0.542037	1
H	0.117845	-1.883056	1.293847	1
Es	-1.670853	0.147488	0.061967	99
Es	0.878925	-0.000144	1.914398	99
Es	-1.735260	-0.666965	0.096573	99
Es	-0.934605	0.974090	-1.883421	99
Es	0.291106	-0.015511	-1.483575	99
Es	0.125992	-0.685374	-1.797726	99
Es	0.240747	0.554097	0.385462	99
Es	0.118463	-0.038879	-0.741024	99
Es	1.173992	0.015448	2.015510	99
Es	-0.350232	1.263760	-2.036715	99
Es	0.627581	-0.015411	2.090513	99
Es	0.581916	1.019220	0.913513	99
Es	1.358511	-1.280295	0.646317	99
Es	0.124580	1.548338	1.177101	99
Es	-0.481087	1.000798	-2.121874	99
Es	0.694481	-1.036366	0.909655	99
Es	-0.045952	-0.045538	-0.009812	99
Es	1.016206	0.123632	-1.588749	99
Es	-0.877509	-0.114294	0.152730	99
Es	-1.617993	-0.064140	0.850012	99
Es	-0.515269	0.918540	-2.415782	99
Es	0.319011	-0.615734	0.383156	99
Es	-0.200151	0.604551	-1.866453	99
Es	0.294373	-1.618772	1.165930	99
Es	0.826681	-0.415439	1.550597	99
Es	0.781026	0.407691	1.553984	99
Es	1.212979	1.329884	0.653742	99
Es	-1.509196	-0.114697	0.252684	99
44
Properties=species:S:1:pos:R:3:Z:I:1 energy=-360.9600017721314 field_type=dipole dipole="0.000000 0.000000 0.000000" charge=0
N	-1.509465	-0.114276	0.252417	7
C	-0.045815	-0.045526	-0.009873	6
C	0.291245	-0.015666	-1.483523	6
O	-0.480985	1.001014	-2.122113	8
C	0.581875	1.019404	0.913377	6
O	0.879125	-0.000136	1.914767	8
C	0.694445	-1.036536	0.909507	6
H	-1.732285	-0.009296	1.247307	1
H	-1.930225	-1.005566	-0.015843	1
H	0.049575	-0.970096	-1.963613	1
H	1.350845	0.193084	-1.659513	1
H	-1.351345	0.982394	-1.674163	1
H	-0.082205	1.796444	1.303977	1
H	1.505715	1.483144	0.551407	1
H	1.661655	-1.395336	0.542037	1
H	0.117845	-1.883056	1.293847	1
Es	-1.735217	-0.668073	0.097966	99
Es	0.879034	-0.000153	1.914456	99
Es	0.780873	0.408720	1.553738	99
Es	1.358733	-1.279980	0.645956	99
Es	1.171345	0.015210	2.006939	99
Es	-0.347781	1.266142	-2.037874	99
Es	0.241127	0.554308	0.385806	99
Es	-0.877284	-0.113610	0.152355	99
Es	-1.671119	0.146182	0.061752	99
Es	-1.618133	-0.062470	0.849152	99
Es	-0.935603	0.973738	-1.884163	99
Es	-1.509208	-0.114671	0.252668	99
Es	0.826617	-0.416224	1.550685	99
Es	0.293928	-1.619100	1.165979	99
Es	-0.200958	0.602396	-1.868798	99
Es	0.630124	-0.015384	2.098769	99
Es	0.581916	1.019221	0.913513	99
Es	1.213262	1.329755	0.653379	99
Es	0.124035	1.548448	1.177098	99
Es	0.694481	-1.036368	0.909654	99
Es	-0.045957	-0.045538	-0.009814	99
Es	0.291108	-0.015508	-1.483574	99
Es	0.125817	-0.685528	-1.797660	99
Es	-0.481076	1.000811	-2.121863	99
Es	-0.515905	0.918735	-2.411427	99
Es	0.118269	-0.038758	-0.741025	99
Es	1.016432	0.123683	-1.588534	99
Es	0.319604	-0.616002	0.383583	99
44
Properties=species:S:1:pos:R:3:Z:I:1 energy=-360.9600017721314 field_type=dipole dipole="0.000000 0.000000 0.000000" charge=0
N	-1.509465	-0.114276	0.252417	7
C	-0.045815	-0.045526	-0.009873	6
C	0.291245	-0.015666	-1.483523	6
O	-0.480985	1.001014	-2.122113	8
C	0.581875	1.019404	0.913377	6
O	0.879125	-0.000136	1.914767	8
C	0.694445	-1.036536	0.909507	6
H	-1.732285	-0.009296	1.247307	1
H	-1.930225	-1.005566	-0.015843	1
H	0.049575	-0.970096	-1.963613	1
H	1.350845	0.193084	-1.659513	1
H	-1.351345	0.982394	-1.674163	1
H	-0.082205	1.796444	1.303977	1
H	1.505715	1.483144	0.551407	1
H	1.661655	-1.395336	0.542037	1
H	0.117845	-1.883056	1.293847	1
Es	-0.045958	-0.045535	-0.009812	99
Es	0.123767	1.548613	1.177140	99
Es	0.581918	1.019218	0.913513	99
Es	0.827259	-0.416621	1.550403	99
Es	0.291106	-0.015510	-1.483574	99
Es	-0.877186	-0.112628	0.152304	99
Es	-1.672319	0.146292	0.061769	99
Es	1.016540	0.123725	-1.588437	99
Es	1.358944	-1.279887	0.645775	99
Es	-0.519840	0.913332	-2.403469	99
Es	0.319812	-0.616268	0.383707	99
Es	-0.481081	1.000851	-2.121824	99
Es	-1.734297	-0.668467	0.098356	99
Es	0.781833	0.409146	1.553534	99
Es	0.118088	-0.038579	-0.740985	99
Es	0.630693	-0.015234	2.102534	99
Es	1.168951	0.014998	2.003390	99
Es	0.694481	-1.036370	0.909651	99
Es	-1.509200	-0.114684	0.252672	99
Es	0.241396	0.554384	0.386171	99
Es	-0.935418	0.975288	-1.882882	99
Es	-1.618005	-0.063116	0.848773	99
Es	0.125736	-0.685572	-1.797688	99
Es	-0.200858	0.601548	-1.869538	99
Es	0.879053	-0.000149	1.914459	99
Es	0.293680	-1.619166	1.165957	99
Es	-0.344045	1.270804	-2.046344	99
Es	1.213414	1.329565	0.653159	99
44
Properties=species:S:1:pos:R:3:Z:I:1 energy=-360.9600017721314 field_type=dipole dipole="0.000000 0.000000 0.000000" charge=0
N	-1.509465	-0.114276	0.252417	7
C	-0.045815	-0.045526	-0.009873	6
C	0.291245	-0.015666	-1.483523	6
O	-0.480985	1.001014	-2.122113	8
C	0.581875	1.019404	0.913377	6
O	0.879125	-0.000136	1.914767	8
C	0.694445	-1.036536	0.909507	6
H	-1.732285	-0.009296	1.247307	1
H	-1.930225	-1.005566	-0.015843	1
H	0.049575	-0.970096	-1.963613	1
H	1.350845	0.193084	-1.659513	1
H	-1.351345	0.982394	-1.674163	1
H	-0.082205	1.796444	1.303977	1
H	1.505715	1.483144	0.551407	1
H	1.661655	-1.395336	0.542037	1
H	0.117845	-1.883056	1.293847	1
Es	-0.342458	1.271271	-2.046290	99
Es	1.213487	1.329463	0.653039	99
Es	0.291108	-0.015516	-1.483575	99
Es	0.826466	-0.416988	1.550202	99
Es	1.016652	0.123757	-1.588464	99
Es	0.320065	-0.616398	0.383909	99
Es	-0.877146	-0.112762	0.152182	99
Es	-0.201778	0.600003	-1.871441	99
Es	0.118070	-0.038621	-0.740919	99
Es	0.293548	-1.619352	1.166044	99
Es	1.167234	0.014718	1.996753	99
Es	0.694484	-1.036369	0.909653	99
Es	0.633902	-0.015217	2.108813	99
Es	0.123529	1.548708	1.177147	99
Es	-1.734218	-0.668721	0.099194	99
Es	0.125616	-0.685664	-1.797546	99
Es	0.781196	0.409754	1.553892	99
Es	0.241620	0.554667	0.386158	99
Es	-1.509202	-0.114693	0.252682	99
Es	-1.672713	0.146319	0.061365	99
Es	0.581913	1.019218	0.913513	99
Es	-1.617780	-0.062759	0.848391	99
Es	-0.481106	1.000755	-2.121853	99
Es	-0.519748	0.914544	-2.401232	99
Es	0.878924	-0.000149	1.914422	99
Es	-0.045954	-0.045534	-0.009812	99
Es	-0.936235	0.975250	-1.883160	99
Es	1.358987	-1.279703	0.645647	99
44
Properties=species:S:1:pos:R:3:Z:I:1 energy=-360.9600017721314 field_type=dipole dipole="0.000000 0.000000 0.000000" charge=0
N	-1.509465	-0.114276	0.252417	7
C	-0.045815	-0.045526	-0.009873	6
C	0.291245	-0.015666	-1.483523	6
O	-0.480985	1.001014	-2.122113	8
C	0.581875	1.019404	0.913377	6
O	0.879125	-0.000136	1.914767	8
C	0.694445	-1.036536	0.909507	6
H	-1.732285	-0.009296	1.247307	1
H	-1.930225	-1.005566	-0.015843	1
H	0.049575	-0.970096	-1.963613	1
H	1.350845	0.193084	-1.659513	1
H	-1.351345	0.982394	-1.674163	1
H	-0.082205	1.796444	1.303977	1
H	1.505715	1.483144	0.551407	1
H	1.661655	-1.395336	0.542037	1
H	0.117845	-1.883056	1.293847	1
Es	0.694482	-1.036369	0.909653	99
Es	-1.672662	0.145369	0.061534	99
Es	1.016593	0.123813	-1.588392	99
Es	-0.045959	-0.045539	-0.009814	99
Es	-1.509214	-0.114662	0.252668	99
Es	-0.340588	1.274265	-2.053827	99
Es	0.123314	1.548761	1.177157	99
Es	0.293414	-1.619384	1.166080	99
Es	-1.618004	-0.062155	0.848434	99
Es	0.782668	0.410230	1.553574	99
Es	0.291109	-0.015513	-1.483574	99
Es	-1.734156	-0.668921	0.099406	99
Es	-0.201104	0.600187	-1.871268	99
Es	0.320151	-0.616542	0.384054	99
Es	0.118020	-0.038444	-0.740949	99
Es	1.213546	1.329397	0.652912	99
Es	-0.876979	-0.112237	0.151805	99
Es	-0.481054	1.000843	-2.121754	99
Es	0.241774	0.554681	0.386402	99
Es	1.359087	-1.279642	0.645455	99
Es	0.581915	1.019218	0.913513	99
Es	1.164489	0.015434	2.000534	99
Es	0.125628	-0.685772	-1.797613	99
Es	-0.523091	0.910025	-2.395589	99
Es	-0.935457	0.976515	-1.881503	99
Es	0.879002	-0.000139	1.914443	99
Es	0.631143	-0.016188	2.105759	99
Es	0.830394	-0.417251	1.549613	99
44
Properties=species:S:1:pos:R:3:Z:I:1 energy=-360.9600017721314 field_type=dipole dipole="0.000000 0.000000 0.000000" charge=0
N	-1.509465	-0.114276	0.252417	7
C	-0.045815	-0.045526	-0.009873	6
C	0.291245	-0.015666	-1.483523	6
O	-0.480985	1.001014	-2.122113	8
C	0.581875	1.019404	0.913377	6
O	0.879125	-0.000136	1.914767	8
C	0.694445	-1.036536	0.909507	6
H	-1.732285	-0.009296	1.247307	1
H	-1.930225	-1.005566	-0.015843	1
H	0.049575	-0.970096	-1.963613	1
H	1.350845	0.193084	-1.659513	1
H	-1.351345	0.982394	-1.674163	1
H	-0.082205	1.796444	1.303977	1
H	1.505715	1.483144	0.551407	1
H	1.661655	-1.395336	0.542037	1
H	0.117845	-1.883056	1.293847	1
Es	-0.876936	-0.112002	0.151741	99
Es	0.632540	-0.015543	2.108461	99
Es	-1.617995	-0.061792	0.848154	99
Es	-1.509201	-0.114695	0.252679	99
Es	-0.201406	0.598461	-1.872876	99
Es	0.829584	-0.417690	1.550057	99
Es	0.694482	-1.036375	0.909648	99
Es	0.782926	0.410359	1.553208	99
Es	0.241831	0.554886	0.386479	99
Es	-0.045956	-0.045544	-0.009812	99
Es	0.291107	-0.015514	-1.483575	99
Es	-0.520957	0.913527	-2.395182	99
Es	0.123233	1.548854	1.177178	99
Es	0.117979	-0.038619	-0.740931	99
Es	-1.733868	-0.669291	0.099986	99
Es	1.213580	1.329283	0.652799	99
Es	0.320222	-0.616517	0.384246	99
Es	0.879075	-0.000147	1.914564	99
Es	-1.673001	0.145137	0.061269	99
Es	-0.340993	1.273951	-2.050281	99
Es	-0.936810	0.975129	-1.883818	99
Es	1.359163	-1.279622	0.645392	99
Es	0.581916	1.019218	0.913514	99
Es	0.293291	-1.619394	1.166086	99
Es	1.016597	0.123762	-1.588350	99
Es	1.163511	0.015086	1.997502	99
Es	0.125636	-0.685746	-1.797616	99
Es	-0.481086	1.000818	-2.121809	99
44
Properties=species:S:1:pos:R:3:Z:I:1 energy=-360.9600017721314 field_type=dipole dipole="0.000000 0.000000 0.000000" charge=0
N	-1.509465	-0.114276	0.252417	7
C	-0.045815	-0.045526	-0.009873	6
C	0.291245	-0.015666	-1.483523	6
O	-0.480985	1.001014	-2.122113	8
C	0.581875	1.019404	0.913377	6
O	0.879125	-0.000136	1.914767	8
C	0.694445	-1.036536	0.909507	6
H	-1.732285	-0.009296	1.247307	1
H	-1.930225	-1.005566	-0.015843	1
H	0.049575	-0.970096	-1.963613	1
H	1.350845	0.193084	-1.659513	1
H	-1.351345	0.982394	-1.674163	1
H	-0.082205	1.796444	1.303977	1
H	1.505715	1.483144	0.551407	1
H	1.661655	-1.395336	0.542037	1
H	0.117845	-1.883056	1.293847	1
Es	-1.733770	-0.669541	0.100132	99
Es	0.694480	-1.036368	0.909655	99
Es	0.879035	-0.000139	1.914457	99
Es	-1.673040	0.145201	0.061135	99
Es	1.213631	1.329131	0.652740	99
Es	-0.877046	-0.111866	0.151882	99
Es	-0.045955	-0.045539	-0.009813	99
Es	-1.509202	-0.114690	0.252672	99
Es	-0.201204	0.598701	-1.872555	99
Es	0.125649	-0.685768	-1.797741	99
Es	-0.339024	1.275085	-2.056725	99
Es	0.581917	1.019215	0.913516	99
Es	1.162265	0.015057	1.997683	99
Es	0.241977	0.554971	0.386444	99
Es	-1.617941	-0.061664	0.848021	99
Es	0.320285	-0.616610	0.384445	99
Es	1.016617	0.123861	-1.588275	99
Es	-0.481060	1.000859	-2.121738	99
Es	0.830530	-0.417796	1.549808	99
Es	-0.936319	0.977309	-1.881702	99
Es	0.123151	1.548992	1.177208	99
Es	0.293228	-1.619477	1.166053	99
Es	0.291108	-0.015514	-1.483574	99
Es	0.783564	0.410726	1.553218	99
Es	1.359179	-1.279523	0.645255	99
Es	-0.523636	0.909925	-2.391133	99
Es	0.632185	-0.015749	2.108556	99
Es	0.117858	-0.038811	-0.740911	99
44
Properties=species:S:1:pos:R:3:Z:I:1 energy=-360.9600017721314 field_type=dipole dipole="0.000000 0.000000 0.000000" charge=0
N	-1.509465	-0.114276	0.252417	7
C	-0.045815	-0.045526	-0.009873	6
C	0.291245	-0.015666	-1.483523	6
O	-0.480985	1.001014	-2.122113	8
C	0.581875	1.019404	0.913377	6
O	0.879125	-0.000136	1.914767	8
C	0.694445	-1.036536	0.909507	6
H	-1.732285	-0.009296	1.247307	1
H	-1.930225	-1.005566	-0.015843	1
H	0.049575	-0.970096	-1.963613	1
H	1.350845	0.193084	-1.659513	1
H	-1.351345	0.982394	-1.674163	1
H	-0.082205	1.796444	1.303977	1
H	1.505715	1.483144	0.551407	1
H	1.661655	-1.395336	0.542037	1
H	0.117845	-1.883056	1.293847	1
Es	1.016626	0.123791	-1.588306	99
Es	-0.045951	-0.045537	-0.009811	99
Es	-0.201337	0.598527	-1.873199	99
Es	1.213616	1.329092	0.652677	99
Es	-0.481015	1.000888	-2.121682	99
Es	-0.936554	0.976471	-1.882172	99
Es	-0.338962	1.275702	-2.056375	99
Es	0.633706	-0.015936	2.111161	99
Es	0.291108	-0.015513	-1.483574	99
Es	0.782642	0.410701	1.553442	99
Es	-0.876893	-0.111225	0.151368	99
Es	0.694482	-1.036368	0.909654	99
Es	0.293115	-1.619432	1.166055	99
Es	0.581916	1.019218	0.913514	99
Es	-1.617985	-0.061323	0.847899	99
Es	0.242147	0.555051	0.386574	99
Es	0.125572	-0.685832	-1.797606	99
Es	0.320462	-0.616850	0.384437	99
Es	1.161666	0.015347	1.994964	99
Es	-1.509212	-0.114685	0.252695	99
Es	-1.733503	-0.669779	0.100586	99
Es	0.117891	-0.038556	-0.740826	99
Es	-0.523396	0.910335	-2.390460	99
Es	-1.673406	0.144458	0.061220	99
Es	0.879143	-0.000134	1.914386	99
Es	0.830391	-0.417891	1.549708	99
Es	1.359245	-1.279567	0.645226	99
Es	0.122951	1.549027	1.177159	99
44
Properties=species:S:1:pos:R:3:Z:I:1 energy=-360.9600017721314 field_type=dipole dipole="0.000000 0.000000 0.000000" charge=0
N	-1.509465	-0.114276	0.252417	7
C	-0.045815	-0.045526	-0.009873	6
C	0.291245	-0.015666	-1.483523	6
O	-0.480985	1.001014	-2.122113	8
C	0.581875	1.019404	0.913377	6
O	0.879125	-0.000136	1.914767	8
C	0.694445	-1.036536	0.909507	6
H	-1.732285	-0.009296	1.247307	1
H	-1.930225	-1.005566	-0.015843	1
H	0.049575	-0.970096	-1.963613	1
H	1.350845	0.193084	-1.659513	1
H	-1.351345	0.982394	-1.674163	1
H	-0.082205	1.796444	1.303977	1
H	1.505715	1.483144	0.551407	1
H	1.661655	-1.395336	0.542037	1
H	0.117845	-1.883056	1.293847	1
Es	0.291105	-0.015511	-1.483576	99
Es	0.122859	1.549073	1.177177	99
Es	0.320422	-0.616846	0.384516	99
Es	-0.524988	0.909794	-2.388326	99
Es	1.213668	1.329037	0.652698	99
Es	0.879129	-0.000124	1.914696	99
Es	1.359288	-1.279564	0.645151	99
Es	-0.876865	-0.111801	0.151683	99
Es	0.293101	-1.619415	1.166048	99
Es	0.242273	0.555082	0.386603	99
Es	-1.618037	-0.061339	0.847854	99
Es	-0.481080	1.000819	-2.121848	99
Es	-0.201012	0.597783	-1.874259	99
Es	-0.936052	0.977326	-1.880929	99
Es	-1.733766	-0.669591	0.100502	99
Es	0.117931	-0.038565	-0.740784	99
Es	1.016601	0.123746	-1.588376	99
Es	-0.338081	1.276191	-2.058531	99
Es	0.125519	-0.685838	-1.797586	99
Es	0.830615	-0.418371	1.550209	99
Es	0.784507	0.410760	1.552681	99
Es	-0.045955	-0.045538	-0.009812	99
Es	1.160742	0.014894	1.996463	99
Es	0.581915	1.019222	0.913512	99
Es	-1.673143	0.144864	0.061066	99
Es	-1.509189	-0.114708	0.252687	99
Es	0.632476	-0.015033	2.109540	99
Es	0.694481	-1.036369	0.909653	99
44
Properties=species:S:1:pos:R:3:Z:I:1 energy=-360.9600017721314 field_type=dipole dipole="0.000000 0.000000 0.000000" charge=0
N	-1.509465	-0.114276	0.252417	7
C	-0.045815	-0.045526	-0.009873	6
C	0.291245	-0.015666	-1.483523	6
O	-0.480985	1.001014	-2.122113	8
C	0.581875	1.019404	0.913377	6
O	0.879125	-0.000136	1.914767	8
C	0.694445	-1.036536	0.909507	6
H	-1.732285	-0.009296	1.247307	1
H	-1.930225	-1.005566	-0.015843	1
H	0.049575	-0.970096	-1.963613	1
H	1.350845	0.193084	-1.659513	1
H	-1.351345	0.982394	-1.674163	1
H	-0.082205	1.796444	1.303977	1
H	1.505715	1.483144	0.551407	1
H	1.661655	-1.395336	0.542037	1
H	0.117845	-1.883056	1.293847	1
Es	0.293103	-1.619352	1.166077	99
Es	1.158935	0.014900	1.998804	99
Es	-0.527191	0.907229	-2.384598	99
Es	-0.935420	0.978513	-1.879431	99
Es	1.016585	0.123836	-1.588270	99
Es	-1.672836	0.144494	0.061142	99
Es	-0.876746	-0.111664	0.151709	99
Es	-0.200883	0.597783	-1.874432	99
Es	0.291107	-0.015512	-1.483575	99
Es	0.878979	-0.000145	1.914393	99
Es	0.320420	-0.616895	0.384507	99
Es	0.630732	-0.016049	2.107998	99
Es	-1.509195	-0.114707	0.252688	99
Es	-0.481091	1.000821	-2.121864	99
Es	0.581916	1.019219	0.913513	99
Es	0.242176	0.555131	0.386571	99
Es	-1.618356	-0.061119	0.847963	99
Es	1.359278	-1.279640	0.645174	99
Es	0.125596	-0.685874	-1.797677	99
Es	-0.336649	1.277565	-2.063529	99
Es	0.694482	-1.036369	0.909654	99
Es	-0.045956	-0.045538	-0.009813	99
Es	-1.733815	-0.669544	0.100279	99
Es	0.117850	-0.038597	-0.740844	99
Es	0.833117	-0.417969	1.549427	99
Es	0.785815	0.411333	1.552938	99
Es	0.122914	1.549086	1.177240	99
Es	1.213598	1.329041	0.652670	99
44
Properties=species:S:1:pos:R:3:Z:I:1 energy=-360.9600017721314 field_type=dipole dipole="0.000000 0.000000 0.000000" charge=0
N	-1.509465	-0.114276	0.252417	7
C	-0.045815	-0.045526	-0.009873	6
C	0.291245	-0.015666	-1.483523	6
O	-0.480985	1.001014	-2.122113	8
C	0.581875	1.019404	0.913377	6
O	0.879125	-0.000136	1.914767	8
C	0.694445	-1.036536	0.909507	6
H	-1.732285	-0.009296	1.247307	1
H	-1.930225	-1.005566	-0.015843	1
H	0.049575	-0.970096	-1.963613	1
H	1.350845	0.193084	-1.659513	1
H	-1.351345	0.982394	-1.674163	1
H	-0.082205	1.796444	1.303977	1
H	1.505715	1.483144	0.551407	1
H	1.661655	-1.395336	0.542037	1
H	0.117845	-1.883056	1.293847	1
Es	0.635726	-0.015322	2.114685	99
Es	-0.876894	-0.111313	0.151546	99
Es	0.242360	0.555133	0.386699	99
Es	0.292971	-1.619484	1.166067	99
Es	-1.509208	-0.114686	0.252674	99
Es	1.016645	0.123781	-1.588308	99
Es	0.117815	-0.038560	-0.740768	99
Es	-1.618134	-0.060987	0.847799	99
Es	0.581915	1.019220	0.913511	99
Es	0.122758	1.549195	1.177177	99
Es	0.125512	-0.685860	-1.797596	99
Es	0.829677	-0.418485	1.549850	99
Es	-0.200752	0.596982	-1.874981	99
Es	0.879071	-0.000143	1.914469	99
Es	-0.525379	0.909891	-2.385816	99
Es	-1.673121	0.144357	0.061168	99
Es	0.694481	-1.036369	0.909653	99
Es	-0.936213	0.977224	-1.881210	99
Es	0.291108	-0.015513	-1.483574	99
Es	1.359341	-1.279496	0.645135	99
Es	0.320631	-0.616971	0.384566	99
Es	-0.337826	1.277011	-2.060090	99
Es	1.159954	0.014946	1.991082	99
Es	-0.481063	1.000825	-2.121753	99
Es	1.213707	1.328881	0.652570	99
Es	-1.733649	-0.669900	0.100604	99
Es	0.782983	0.411160	1.553367	99
Es	-0.045953	-0.045538	-0.009812	99
44
Properties=species:S:1:pos:R:3:Z:I:1 energy=-360.9600017721314 field_type=dipole dipole="0.000000 0.000000 0.000000" charge=0
N	-1.509465	-0.114276	0.252417	7
C	-0.045815	-0.045526	-0.009873	6
C	0.291245	-0.015666	-1.483523	6
O	-0.480985	1.001014	-2.122113	8
C	0.581875	1.019404	0.913377	6
O	0.879125	-0.000136	1.914767	8
C	0.694445	-1.036536	0.909507	6
H	-1.732285	-0.009296	1.247307	1
H	-1.930225	-1.005566	-0.015843	1
H	0.049575	-0.970096	-1.963613	1
H	1.350845	0.193084	-1.659513	1
H	-1.351345	0.982394	-1.674163	1
H	-0.082205	1.796444	1.303977	1
H	1.505715	1.483144	0.551407	1
H	1.661655	-1.395336	0.542037	1
H	0.117845	-1.883056	1.293847	1
Es	-1.618185	-0.061146	0.847808	99
Es	0.242209	0.555105	0.386764	99
Es	-0.481083	1.000805	-2.121847	99
Es	1.213660	1.328899	0.652528	99
Es	0.784910	0.411394	1.553258	99
Es	-1.733450	-0.669803	0.100687	99
Es	0.832101	-0.418208	1.549378	99
Es	0.320434	-0.616948	0.384620	99
Es	-1.509201	-0.114697	0.252679	99
Es	0.581917	1.019213	0.913517	99
Es	-0.045957	-0.045539	-0.009813	99
Es	-0.336485	1.277916	-2.062892	99
Es	-0.935181	0.978093	-1.879412	99
Es	1.158780	0.014947	1.995129	99
Es	0.632636	-0.015852	2.111247	99
Es	-0.200873	0.596429	-1.876161	99
Es	0.291107	-0.015512	-1.483575	99
Es	-0.527600	0.908672	-2.383539	99
Es	0.122845	1.549190	1.177233	99
Es	-0.876818	-0.111348	0.151539	99
Es	0.293069	-1.619413	1.166080	99
Es	0.694482	-1.036370	0.909652	99
Es	1.016611	0.123832	-1.588256	99
Es	-1.673329	0.144439	0.061028	99
Es	0.125556	-0.685910	-1.797643	99
Es	0.117872	-0.038514	-0.740819	99
Es	0.879058	-0.000166	1.914471	99
Es	1.359382	-1.279526	0.645055	99
44
Properties=species:S:1:pos:R:3:Z:I:1 energy=-360.9600017721314 field_type=dipole dipole="0.000000 0.000000 0.000000" charge=0
N	-1.509465	-0.114276	0.252417	7
C	-0.045815	-0.045526	-0.009873	6
C	0.291245	-0.015666	-1.483523	6
O	-0.480985	1.001014	-2.122113	8
C	0.581875	1.019404	0.913377	6
O	0.879125	-0.000136	1.914767	8
C	0.694445	-1.036536	0.909507	6
H	-1.732285	-0.009296	1.247307	1
H	-1.930225	-1.005566	-0.015843	1
H	0.049575	-0.970096	-1.963613	1
H	1.350845	0.193084	-1.659513	1
H	-1.351345	0.982394	-1.674163	1
H	-0.082205	1.796444	1.303977	1
H	1.505715	1.483144	0.551407	1
H	1.661655	-1.395336	0.542037	1
H	0.117845	-1.883056	1.293847	1
Es	0.320699	-0.617101	0.384670	99
Es	1.157632	0.014864	1.996420	99
Es	-0.337017	1.277397	-2.060123	99
Es	0.786180	0.411335	1.552743	99
Es	0.117722	-0.038434	-0.740805	99
Es	0.694482	-1.036368	0.909655	99
Es	-1.618376	-0.060710	0.847734	99
Es	-0.876863	-0.111180	0.151705	99
Es	0.291107	-0.015512	-1.483575	99
Es	-0.045956	-0.045538	-0.009813	99
Es	0.631821	-0.015529	2.110266	99
Es	0.832970	-0.418479	1.549484	99
Es	0.292923	-1.619469	1.166096	99
Es	0.125507	-0.685928	-1.797588	99
Es	0.122634	1.549251	1.177219	99
Es	1.359415	-1.279471	0.644983	99
Es	-0.481080	1.000813	-2.121877	99
Es	-1.673173	0.144114	0.060863	99
Es	1.213657	1.328819	0.652449	99
Es	0.581915	1.019219	0.913513	99
Es	-1.509194	-0.114715	0.252698	99
Es	-1.733376	-0.670036	0.100835	99
Es	-0.525704	0.910011	-2.385012	99
Es	-0.936160	0.977190	-1.880978	99
Es	1.016643	0.123789	-1.588232	99
Es	-0.201257	0.596555	-1.875861	99
Es	0.242451	0.555241	0.386823	99
Es	0.878862	-0.000150	1.914427	99
44
Properties=species:S:1:pos:R:3:Z:I:1 energy=-360.9600017721314 field_type=dipole dipole="0.000000 0.000000 0.000000" charge=0
N	-1.509465	-0.114276	0.252417	7
C	-0.045815	-0.045526	-0.009873	6
C	0.291245	-0.015666	-1.483523	6
O	-0.480985	1.001014	-2.122113	8
C	0.581875	1.019404	0.913377	6
O	0.879125	-0.000136	1.914767	8
C	0.694445	-1.036536	0.909507	6
H	-1.732285	-0.009296	1.247307	1
H	-1.930225	-1.005566	-0.015843	1
H	0.049575	-0.970096	-1.963613	1
H	1.350845	0.193084	-1.659513	1
H	-1.351345	0.982394	-1.674163	1
H	-0.082205	1.796444	1.303977	1
H	1.505715	1.483144	0.551407	1
H	1.661655	-1.395336	0.542037	1
H	0.117845	-1.883056	1.293847	1
Es	0.581916	1.019219	0.913514	99
Es	-0.935501	0.978361	-1.879605	99
Es	-0.527430	0.908693	-2.382649	99
Es	0.320649	-0.617045	0.384702	99
Es	0.694482	-1.036370	0.909653	99
Es	-0.481131	1.000745	-2.121876	99
Es	0.785614	0.411594	1.552719	99
Es	-1.509205	-0.114696	0.252671	99
Es	1.359402	-1.279517	0.645009	99
Es	-0.876854	-0.111364	0.151693	99
Es	0.242426	0.555204	0.386704	99
Es	1.213679	1.328842	0.652533	99
Es	-0.201717	0.596036	-1.876528	99
Es	-1.673540	0.144288	0.060504	99
Es	-1.618343	-0.060895	0.847821	99
Es	0.292907	-1.619426	1.166048	99
Es	0.291106	-0.015512	-1.483575	99
Es	-0.045955	-0.045539	-0.009812	99
Es	-1.733051	-0.669871	0.101111	99
Es	0.125567	-0.685937	-1.797622	99
Es	1.016608	0.123858	-1.588266	99
Es	1.157742	0.014841	1.995549	99
Es	0.879076	-0.000139	1.914417	99
Es	-0.335474	1.278067	-2.063171	99
Es	0.632393	-0.015704	2.110995	99
Es	0.832612	-0.418414	1.549642	99
Es	0.122688	1.549248	1.177308	99
Es	0.117797	-0.038586	-0.740776	99
44
Properties=species:S:1:pos:R:3:Z:I:1 energy=-360.9600017721314 field_type=dipole dipole="0.000000 0.000000 0.000000" charge=0
N	-1.509465	-0.114276	0.252417	7
C	-0.045815	-0.045526	-0.009873	6
C	0.291245	-0.015666	-1.483523	6
O	-0.480985	1.001014	-2.122113	8
C	0.581875	1.019404	0.913377	6
O	0.879125	-0.000136	1.914767	8
C	0.694445	-1.036536	0.909507	6
H	-1.732285	-0.009296	1.247307	1
H	-1.930225	-1.005566	-0.015843	1
H	0.049575	-0.970096	-1.963613	1
H	1.350845	0.193084	-1.659513	1
H	-1.351345	0.982394	-1.674163	1
H	-0.082205	1.796444	1.303977	1
H	1.505715	1.483144	0.551407	1
H	1.661655	-1.395336	0.542037	1
H	0.117845	-1.883056	1.293847	1
Es	-1.618040	-0.060717	0.847574	99
Es	0.242407	0.555240	0.386887	99
Es	-0.525242	0.911516	-2.383747	99
Es	0.291108	-0.015507	-1.483575	99
Es	0.292879	-1.619458	1.166083	99
Es	1.157188	0.014939	1.993700	99
Es	-1.673619	0.144048	0.060940	99
Es	0.117794	-0.038530	-0.740759	99
Es	-0.336534	1.277003	-2.059493	99
Es	-0.481070	1.000850	-2.121913	99
Es	-0.876809	-0.111019	0.151277	99
Es	0.122639	1.549219	1.177219	99
Es	0.125518	-0.685872	-1.797586	99
Es	-0.201653	0.595143	-1.877106	99
Es	-0.936733	0.977427	-1.881580	99
Es	0.785266	0.411595	1.553201	99
Es	0.581916	1.019218	0.913514	99
Es	0.879098	-0.000139	1.914471	99
Es	1.359424	-1.279490	0.645001	99
Es	0.320667	-0.617063	0.384711	99
Es	0.832291	-0.418757	1.549364	99
Es	1.213692	1.328846	0.652410	99
Es	-1.509202	-0.114703	0.252686	99
Es	0.633607	-0.015522	2.112605	99
Es	-1.733310	-0.670160	0.101289	99
Es	-0.045955	-0.045540	-0.009812	99
Es	1.016655	0.123781	-1.588297	99
Es	0.694483	-1.036368	0.909653	99
44
Properties=species:S:1:pos:R:3:Z:I:1 energy=-360.9600017721314 field_type=dipole dipole="0.000000 0.000000 0.000000" charge=0
N	-1.509465	-0.114276	0.252417	7
C	-0.045815	-0.045526	-0.009873	6
C	0.291245	-0.015666	-1.483523	6
O	-0.480985	1.001014	-2.122113	8
C	0.581875	1.019404	0.913377	6
O	0.879125	-0.000136	1.914767	8
C	0.694445	-1.036536	0.909507	6
H	-1.732285	-0.009296	1.247307	1
H	-1.930225	-1.005566	-0.015843	1
H	0.049575	-0.970096	-1.963613	1
H	1.350845	0.193084	-1.659513	1
H	-1.351345	0.982394	-1.674163	1
H	-0.082205	1.796444	1.303977	1
H	1.505715	1.483144	0.551407	1
H	1.661655	-1.395336	0.542037	1
H	0.117845	-1.883056	1.293847	1
Es	1.359428	-1.279530	0.644996	99
Es	0.833712	-0.418551	1.549391	99
Es	0.879062	-0.000131	1.914433	99
Es	1.016603	0.123856	-1.588199	99
Es	-0.876629	-0.110678	0.151347	99
Es	0.125557	-0.686002	-1.797589	99
Es	-0.481065	1.000853	-2.121843	99
Es	1.213682	1.328836	0.652502	99
Es	0.581916	1.019219	0.913513	99
Es	1.157278	0.016105	1.992363	99
Es	0.783195	0.411308	1.553304	99
Es	-1.733241	-0.670243	0.101200	99
Es	0.122725	1.549243	1.177205	99
Es	-0.335831	1.278859	-2.064773	99
Es	-0.045955	-0.045538	-0.009812	99
Es	0.694481	-1.036368	0.909654	99
Es	-1.618578	-0.060183	0.847610	99
Es	-1.673252	0.143374	0.060903	99
Es	-1.509201	-0.114695	0.252674	99
Es	0.291106	-0.015512	-1.483575	99
Es	0.242421	0.555293	0.386767	99
Es	-0.527428	0.908035	-2.380896	99
Es	-0.935795	0.978013	-1.880103	99
Es	0.292870	-1.619417	1.166016	99
Es	0.634153	-0.016658	2.113937	99
Es	-0.201137	0.596179	-1.876241	99
Es	0.117760	-0.038475	-0.740808	99
Es	0.320630	-0.617210	0.384740	99
44
Properties=species:S:1:pos:R:3:Z:I:1 energy=-360.9600017721314 field_type=dipole dipole="0.000000 0.000000 0.000000" charge=0
N	-1.509465	-0.114276	0.252417	7
C	-0.045815	-0.045526	-0.009873	6
C	0.291245	-0.015666	-1.483523	6
O	-0.480985	1.001014	-2.122113	8
C	0.581875	1.019404	0.913377	6
O	0.879125	-0.000136	1.914767	8
C	0.694445	-1.036536	0.909507	6
H	-1.732285	-0.009296	1.247307	1
H	-1.930225	-1.005566	-0.015843	1
H	0.049575	-0.970096	-1.963613	1
H	1.350845	0.193084	-1.659513	1
H	-1.351345	0.982394	-1.674163	1
H	-0.082205	1.796444	1.303977	1
H	1.505715	1.483144	0.551407	1
H	1.661655	-1.395336	0.542037	1
H	0.117845	-1.883056	1.293847	1
Es	-0.876741	-0.111459	0.151870	99
Es	0.292871	-1.619475	1.166048	99
Es	-0.481122	1.000730	-2.121875	99
Es	-1.673268	0.144137	0.060402	99
Es	0.581916	1.019217	0.913515	99
Es	-1.509203	-0.114700	0.252682	99
Es	0.320667	-0.617168	0.384719	99
Es	0.784765	0.411407	1.553273	99
Es	0.122551	1.549300	1.177222	99
Es	0.694482	-1.036368	0.909655	99
Es	1.213719	1.328741	0.652361	99
Es	0.832150	-0.419107	1.549376	99
Es	0.879067	-0.000139	1.914475	99
Es	0.242569	0.555418	0.386988	99
Es	0.117682	-0.038477	-0.740616	99
Es	-0.526618	0.909050	-2.381580	99
Es	1.016656	0.123799	-1.588324	99
Es	-1.618438	-0.060315	0.847380	99
Es	-0.936191	0.977802	-1.880658	99
Es	0.125493	-0.685884	-1.797595	99
Es	-0.045954	-0.045538	-0.009812	99
Es	1.156858	0.015203	1.991912	99
Es	0.634531	-0.015322	2.114265	99
Es	-0.336173	1.278341	-2.063476	99
Es	-1.733305	-0.670227	0.101419	99
Es	1.359472	-1.279436	0.644918	99
Es	-0.201077	0.595963	-1.876257	99
Es	0.291107	-0.015512	-1.483575	99
44
Properties=species:S:1:pos:R:3:Z:I:1 energy=-360.9600017721314 field_type=dipole dipole="0.000000 0.000000 0.000000" charge=0
N	-1.509465	-0.114276	0.252417	7
C	-0.045815	-0.045526	-0.009873	6
C	0.291245	-0.015666	-1.483523	6
O	-0.480985	1.001014	-2.122113	8
C	0.581875	1.019404	0.913377	6
O	0.879125	-0.000136	1.914767	8
C	0.694445	-1.036536	0.909507	6
H	-1.732285	-0.009296	1.247307	1
H	-1.930225	-1.005566	-0.015843	1
H	0.049575	-0.970096	-1.963613	1
H	1.350845	0.193084	-1.659513	1
H	-1.351345	0.982394	-1.674163	1
H	-0.082205	1.796444	1.303977	1
H	1.505715	1.483144	0.551407	1
H	1.661655	-1.395336	0.542037	1
H	0.117845	-1.883056	1.293847	1
Es	1.213700	1.328799	0.652425	99
Es	-0.936381	0.977737	-1.881234	99
Es	-0.201617	0.594502	-1.877699	99
Es	0.242503	0.555171	0.386951	99
Es	0.879030	-0.000141	1.914482	99
Es	0.581917	1.019219	0.913513	99
Es	0.694482	-1.036368	0.909655	99
Es	-1.673693	0.144117	0.060988	99
Es	1.359497	-1.279536	0.644989	99
Es	0.291108	-0.015512	-1.483574	99
Es	0.784441	0.411587	1.553456	99
Es	-0.876808	-0.110914	0.151333	99
Es	1.157020	0.014957	1.990125	99
Es	-0.526302	0.910800	-2.381065	99
Es	0.320645	-0.617186	0.384620	99
Es	-1.618109	-0.060915	0.847624	99
Es	0.292879	-1.619391	1.166058	99
Es	0.122581	1.549265	1.177267	99
Es	0.831474	-0.418780	1.549264	99
Es	1.016644	0.123821	-1.588255	99
Es	-0.335811	1.278124	-2.061966	99
Es	0.125505	-0.685930	-1.797620	99
Es	-0.045953	-0.045539	-0.009811	99
Es	0.635434	-0.015478	2.115942	99
Es	0.117776	-0.038405	-0.740745	99
Es	-0.481103	1.000782	-2.121838	99
Es	-1.733196	-0.670098	0.101143	99
Es	-1.509197	-0.114709	0.252686	99
44
Properties=species:S:1:pos:R:3:Z:I:1 energy=-360.9600017721314 field_type=dipole dipole="0.000000 0.000000 0.000000" charge=0
N	-1.509465	-0.114276	0.252417	7
C	-0.045815	-0.045526	-0.009873	6
C	0.291245	-0.015666	-1.483523	6
O	-0.480985	1.001014	-2.122113	8
C	0.581875	1.019404	0.913377	6
O	0.879125	-0.000136	1.914767	8
C	0.694445	-1.036536	0.909507	6
H	-1.732285	-0.009296	1.247307	1
H	-1.930225	-1.005566	-0.015843	1
H	0.049575	-0.970096	-1.963613	1
H	1.350845	0.193084	-1.659513	1
H	-1.351345	0.982394	-1.674163	1
H	-0.082205	1.796444	1.303977	1
H	1.505715	1.483144	0.551407	1
H	1.661655	-1.395336	0.542037	1
H	0.117845	-1.883056	1.293847	1
Es	-0.201792	0.595286	-1.877102	99
Es	0.694481	-1.036368	0.909655	99
Es	0.242580	0.555267	0.386756	99
Es	-0.526141	0.909899	-2.381217	99
Es	0.581917	1.019219	0.913514	99
Es	0.634241	-0.015888	2.114364	99
Es	1.359516	-1.279516	0.644918	99
Es	0.320694	-0.617165	0.384836	99
Es	-1.733047	-0.670212	0.101468	99
Es	-1.509217	-0.114674	0.252650	99
Es	-0.936600	0.977484	-1.881255	99