39
Properties=species:S:1:pos:R:3:Z:I:1 energy=-338.82068942921364 field_type=dipole dipole="0.000000 0.000000 0.000000" charge=0
N	-2.591467	-0.037895	0.015948	7
C	-1.306227	-0.050945	0.008168	6
N	-0.557157	-1.179625	0.020098	7
C	0.799423	-1.220125	0.014868	6
C	1.499963	-0.086775	-0.006142	6
C	0.781183	1.225295	-0.024592	6
O	-0.666937	1.141755	-0.013112	8
H	-2.857937	0.953215	0.003388	1
H	-1.073827	-2.049155	0.036618	1
H	1.252303	-2.205675	0.028698	1
H	2.583753	-0.094165	-0.010612	1
H	1.074473	1.817705	0.847888	1
H	1.062453	1.786395	-0.921222	1
Es	2.227903	-0.077030	-0.009316	99
Es	-1.305862	-0.050872	0.008167	99
Es	-2.813153	-0.327447	0.020259	99
Es	0.799180	-1.220234	0.014871	99
Es	-2.095179	-0.044451	-0.269999	99
Es	-0.765822	1.243356	0.237466	99
Es	-0.849589	0.653946	-0.006999	99
Es	0.030602	-1.188190	-0.005822	99
Es	1.183657	-0.620309	0.333350	99
Es	-0.769006	1.239274	-0.263344	99
Es	-2.742697	0.555679	0.007936	99
Es	-0.539757	-1.107728	0.088326	99
Es	0.780923	1.225196	-0.024588	99
Es	-0.857741	-1.693587	0.018523	99
Es	-2.094599	-0.036628	0.297704	99
Es	-0.864215	-0.675816	-0.019035	99
Es	-0.666727	1.141393	-0.013148	99
Es	-0.129444	1.113658	-0.016158	99
Es	-2.591076	-0.037567	0.015941	99
Es	1.181486	-0.631020	-0.325648	99
Es	1.499967	-0.086668	-0.006136	99
Es	0.982423	1.620588	0.568780	99
Es	0.974247	1.599233	-0.634256	99
Es	-0.556935	-1.178713	0.018231	99
Es	1.090811	-1.888924	0.024320	99
Es	1.129223	0.562584	-0.015111	99
39
Properties=species:S:1:pos:R:3:Z:I:1 energy=-338.82068942921364 field_type=dipole dipole="0.000000 0.000000 0.000000" charge=0
N	-2.591467	-0.037895	0.015948	7
C	-1.306227	-0.050945	0.008168	6
N	-0.557157	-1.179625	0.020098	7
C	0.799423	-1.220125	0.014868	6
C	1.499963	-0.086775	-0.006142	6
C	0.781183	1.225295	-0.024592	6
O	-0.666937	1.141755	-0.013112	8
H	-2.857937	0.953215	0.003388	1
H	-1.073827	-2.049155	0.036618	1
H	1.252303	-2.205675	0.028698	1
H	2.583753	-0.094165	-0.010612	1
H	1.074473	1.817705	0.847888	1
H	1.062453	1.786395	-0.921222	1
Es	-0.859295	-1.693624	0.031969	99
Es	-0.556833	-1.178387	0.022781	99
Es	-2.817617	-0.332946	0.021998	99
Es	0.032378	-1.187045	0.021795	99
Es	-2.739070	0.554581	0.008657	99
Es	-2.096644	-0.041525	-0.267166	99
Es	1.180627	-0.630509	-0.324030	99
Es	2.230081	-0.077086	-0.009279	99
Es	0.780920	1.225196	-0.024587	99
Es	1.499969	-0.086664	-0.006142	99
Es	-0.125930	1.117036	-0.017373	99
Es	1.129232	0.561526	-0.014963	99
Es	0.974350	1.599050	-0.633626	99
Es	-2.591070	-0.037563	0.015941	99
Es	-0.856661	0.652183	-0.008923	99
Es	0.982523	1.620679	0.568081	99
Es	-0.759576	1.232481	0.229148	99
Es	1.183427	-0.619834	0.331348	99
Es	-0.772010	1.248488	-0.251957	99
Es	-0.666731	1.141383	-0.013033	99
Es	-0.865250	-0.673768	0.022222	99
Es	0.799180	-1.220234	0.014874	99
Es	-0.539932	-1.111281	0.001791	99
Es	-1.305856	-0.050869	0.008164	99
Es	1.091005	-1.888130	0.024420	99
Es	-2.092596	-0.033417	0.292203	99
39
Properties=species:S:1:pos:R:3:Z:I:1 energy=-338.82068942921364 field_type=dipole dipole="0.000000 0.000000 0.000000" charge=0
N	-2.591467	-0.037895	0.015948	7
C	-1.306227	-0.050945	0.008168	6
N	-0.557157	-1.179625	0.020098	7
C	0.799423	-1.220125	0.014868	6
C	1.499963	-0.086775	-0.006142	6
C	0.781183	1.225295	-0.024592	6
O	-0.666937	1.141755	-0.013112	8
H	-2.857937	0.953215	0.003388	1
H	-1.073827	-2.049155	0.036618	1
H	1.252303	-2.205675	0.028698	1
H	2.583753	-0.094165	-0.010612	1
H	1.074473	1.817705	0.847888	1
H	1.062453	1.786395	-0.921222	1
Es	2.231415	-0.077245	-0.009374	99
Es	-0.666765	1.141458	-0.013106	99
Es	0.799176	-1.220236	0.014872	99
Es	-2.591084	-0.037553	0.015940	99
Es	-0.124159	1.120338	-0.017288	99
Es	1.182873	-0.619840	0.329886	99
Es	-1.305856	-0.050867	0.008174	99
Es	0.780920	1.225196	-0.024588	99
Es	-2.093311	-0.031771	0.289635	99
Es	1.129389	0.560685	-0.015075	99
Es	-0.760230	1.234988	0.222619	99
Es	-0.860184	-1.693333	0.029763	99
Es	-0.769508	1.243237	-0.246854	99
Es	0.982458	1.620741	0.567519	99
Es	-0.865104	-0.674450	0.016469	99
Es	-2.820257	-0.335701	0.022142	99
Es	-0.557137	-1.179570	0.020342	99
Es	1.091247	-1.887644	0.024253	99
Es	1.499970	-0.086665	-0.006147	99
Es	0.974219	1.599119	-0.632905	99
Es	-0.539472	-1.109998	0.015627	99
Es	-2.095978	-0.040014	-0.264634	99
Es	-2.736531	0.553916	0.008564	99
Es	0.032400	-1.186709	0.018378	99
Es	-0.860381	0.651460	-0.007536	99
Es	1.180511	-0.629818	-0.322362	99
39
Properties=species:S:1:pos:R:3:Z:I:1 energy=-338.82068942921364 field_type=dipole dipole="0.000000 0.000000 0.000000" charge=0
N	-2.591467	-0.037895	0.015948	7
C	-1.306227	-0.050945	0.008168	6
N	-0.557157	-1.179625	0.020098	7
C	0.799423	-1.220125	0.014868	6
C	1.499963	-0.086775	-0.006142	6
C	0.781183	1.225295	-0.024592	6
O	-0.666937	1.141755	-0.013112	8
H	-2.857937	0.953215	0.003388	1
H	-1.073827	-2.049155	0.036618	1
H	1.252303	-2.205675	0.028698	1
H	2.583753	-0.094165	-0.010612	1
H	1.074473	1.817705	0.847888	1
H	1.062453	1.786395	-0.921222	1
Es	-2.591076	-0.037548	0.015954	99
Es	-2.093137	-0.031175	0.287883	99
Es	-2.096420	-0.039262	-0.262683	99
Es	-0.761390	1.241095	0.216145	99
Es	0.780921	1.225197	-0.024587	99
Es	1.499971	-0.086665	-0.006148	99
Es	1.179955	-0.630175	-0.321180	99
Es	1.129595	0.560118	-0.015345	99
Es	-2.821971	-0.337080	0.022044	99
Es	-2.734657	0.553820	0.008447	99
Es	1.091333	-1.887302	0.024168	99
Es	-0.864863	-0.675059	0.012766	99
Es	-1.305850	-0.050869	0.008163	99
Es	-0.864313	0.651566	-0.004365	99
Es	0.982349	1.620545	0.567002	99
Es	-0.860822	-1.693017	0.029482	99
Es	0.799182	-1.220231	0.014878	99
Es	0.974174	1.599354	-0.632279	99
Es	-0.123168	1.121874	-0.017224	99
Es	0.032369	-1.186494	0.016914	99
Es	1.183208	-0.619181	0.329135	99
Es	-0.539443	-1.109969	0.022173	99
Es	-0.666734	1.141418	-0.013105	99
Es	-0.557112	-1.179462	0.019212	99
Es	2.232138	-0.077325	-0.009503	99
Es	-0.765617	1.235552	-0.243634	99
39
Properties=species:S:1:pos:R:3:Z:I:1 energy=-338.82068942921364 field_type=dipole dipole="0.000000 0.000000 0.000000" charge=0
N	-2.591467	-0.037895	0.015948	7
C	-1.306227	-0.050945	0.008168	6
N	-0.557157	-1.179625	0.020098	7
C	0.799423	-1.220125	0.014868	6
C	1.499963	-0.086775	-0.006142	6
C	0.781183	1.225295	-0.024592	6
O	-0.666937	1.141755	-0.013112	8
H	-2.857937	0.953215	0.003388	1
H	-1.073827	-2.049155	0.036618	1
H	1.252303	-2.205675	0.028698	1
H	2.583753	-0.094165	-0.010612	1
H	1.074473	1.817705	0.847888	1
H	1.062453	1.786395	-0.921222	1
Es	0.982132	1.620425	0.566467	99
Es	-0.122275	1.124430	-0.013638	99
Es	-0.864678	-0.675632	0.006806	99
Es	1.499971	-0.086663	-0.006145	99
Es	1.091459	-1.886975	0.024696	99
Es	0.780918	1.225198	-0.024589	99
Es	1.180106	-0.630185	-0.320384	99
Es	-2.090602	-0.030273	0.287210	99
Es	-0.666726	1.141374	-0.013019	99
Es	1.129638	0.559590	-0.015424	99
Es	-0.866505	0.652405	0.009449	99
Es	-0.557134	-1.179548	0.019588	99
Es	0.799176	-1.220236	0.014865	99
Es	0.974250	1.599519	-0.632154	99
Es	-2.591085	-0.037549	0.015953	99
Es	-2.733356	0.553130	0.007362	99
Es	-2.099093	-0.038451	-0.260978	99
Es	-0.539478	-1.109609	0.025362	99
Es	-2.823244	-0.338197	0.021891	99
Es	-0.778597	1.281596	0.197475	99
Es	-0.861223	-1.692788	0.030446	99
Es	-0.747103	1.191562	-0.242417	99
Es	1.182932	-0.618986	0.328424	99
Es	0.032319	-1.186321	0.018525	99
Es	-1.305854	-0.050869	0.008167	99
Es	2.232671	-0.077224	-0.009625	99
39
Properties=species:S:1:pos:R:3:Z:I:1 energy=-338.82068942921364 field_type=dipole dipole="0.000000 0.000000 0.000000" charge=0
N	-2.591467	-0.037895	0.015948	7
C	-1.306227	-0.050945	0.008168	6
N	-0.557157	-1.179625	0.020098	7
C	0.799423	-1.220125	0.014868	6
C	1.499963	-0.086775	-0.006142	6
C	0.781183	1.225295	-0.024592	6
O	-0.666937	1.141755	-0.013112	8
H	-2.857937	0.953215	0.003388	1
H	-1.073827	-2.049155	0.036618	1
H	1.252303	-2.205675	0.028698	1
H	2.583753	-0.094165	-0.010612	1
H	1.074473	1.817705	0.847888	1
H	1.062453	1.786395	-0.921222	1
Es	-0.861608	-1.692630	0.028050	99
Es	-2.095962	-0.030125	0.286599	99
Es	-2.731534	0.551579	0.010027	99
Es	1.179069	-0.629873	-0.320860	99
Es	-2.591091	-0.037544	0.015939	99
Es	0.973827	1.598294	-0.631691	99
Es	-0.723917	1.154603	0.202217	99
Es	-0.868893	0.653135	-0.028447	99
Es	1.129654	0.559191	-0.014771	99
Es	-0.556812	-1.178255	0.022631	99
Es	-2.825281	-0.337742	0.022130	99
Es	0.982923	1.621396	0.567102	99
Es	1.183811	-0.619156	0.328490	99
Es	-0.864195	-0.675988	0.028866	99
Es	-0.799538	1.316509	-0.198581	99
Es	-0.540106	-1.110799	0.006129	99
Es	2.233053	-0.076938	-0.009612	99
Es	-0.666719	1.141336	-0.013305	99
Es	1.091172	-1.886407	0.023307	99
Es	-0.122111	1.125580	-0.024107	99
Es	0.032283	-1.186244	0.014557	99
Es	-2.093624	-0.037630	-0.262663	99
Es	-1.305855	-0.050870	0.008161	99
Es	0.780926	1.225199	-0.024584	99
Es	0.799177	-1.220236	0.014869	99
Es	1.499971	-0.086663	-0.006143	99
39
Properties=species:S:1:pos:R:3:Z:I:1 energy=-338.82068942921364 field_type=dipole dipole="0.000000 0.000000 0.000000" charge=0
N	-2.591467	-0.037895	0.015948	7
C	-1.306227	-0.050945	0.008168	6
N	-0.557157	-1.179625	0.020098	7
C	0.799423	-1.220125	0.014868	6
C	1.499963	-0.086775	-0.006142	6
C	0.781183	1.225295	-0.024592	6
O	-0.666937	1.141755	-0.013112	8
H	-2.857937	0.953215	0.003388	1
H	-1.073827	-2.049155	0.036618	1
H	1.252303	-2.205675	0.028698	1
H	2.583753	-0.094165	-0.010612	1
H	1.074473	1.817705	0.847888	1
H	1.062453	1.786395	-0.921222	1
Es	-2.092896	-0.037707	-0.263446	99
Es	-0.805080	1.329004	-0.185867	99
Es	-1.305855	-0.050870	0.008161	99
Es	-0.716131	1.140493	0.188931	99
Es	1.499972	-0.086663	-0.006141	99
Es	-2.730408	0.550983	0.010511	99
Es	-0.863862	-0.676440	0.030882	99
Es	0.032355	-1.186209	0.014179	99
Es	0.780917	1.225196	-0.024587	99
Es	1.183631	-0.619875	0.328573	99
Es	-0.862089	-1.692319	0.027037	99
Es	-0.557125	-1.179522	0.020658	99
Es	-0.539893	-1.109330	0.007358	99
Es	-0.121795	1.126738	-0.024484	99
Es	-2.591096	-0.037553	0.015940	99
Es	-2.826445	-0.337191	0.022779	99
Es	2.233282	-0.076723	-0.009415	99
Es	-2.096727	-0.030107	0.286286	99
Es	-0.871410	0.653400	-0.027504	99
Es	1.129667	0.558891	-0.014370	99
Es	0.973762	1.597966	-0.631616	99
Es	0.799177	-1.220235	0.014874	99
Es	0.983110	1.621629	0.567120	99
Es	-0.666741	1.141379	-0.013215	99
Es	1.090812	-1.885907	0.022915	99
Es	1.179488	-0.629305	-0.321244	99
39
Properties=species:S:1:pos:R:3:Z:I:1 energy=-338.82068942921364 field_type=dipole dipole="0.000000 0.000000 0.000000" charge=0
N	-2.591467	-0.037895	0.015948	7
C	-1.306227	-0.050945	0.008168	6
N	-0.557157	-1.179625	0.020098	7
C	0.799423	-1.220125	0.014868	6
C	1.499963	-0.086775	-0.006142	6
C	0.781183	1.225295	-0.024592	6
O	-0.666937	1.141755	-0.013112	8
H	-2.857937	0.953215	0.003388	1
H	-1.073827	-2.049155	0.036618	1
H	1.252303	-2.205675	0.028698	1
H	2.583753	-0.094165	-0.010612	1
H	1.074473	1.817705	0.847888	1
H	1.062453	1.786395	-0.921222	1
Es	-0.539773	-1.108981	0.027005	99
Es	-0.121624	1.127070	-0.008110	99
Es	-2.591062	-0.037572	0.015938	99
Es	1.181778	-0.619103	0.328981	99
Es	-2.101562	-0.037804	-0.261163	99
Es	-2.827771	-0.336859	0.021447	99
Es	-2.087951	-0.029149	0.288911	99
Es	0.799176	-1.220234	0.014871	99
Es	-0.666795	1.141507	-0.013005	99
Es	1.499971	-0.086663	-0.006150	99
Es	1.090666	-1.885519	0.025607	99
Es	0.780918	1.225196	-0.024591	99
Es	-0.872803	0.655110	0.022095	99
Es	0.974966	1.600127	-0.632571	99
Es	-1.305855	-0.050870	0.008168	99
Es	0.982022	1.619331	0.566316	99
Es	-0.807653	1.346601	0.139993	99
Es	-0.712245	1.120545	-0.203120	99
Es	-0.557124	-1.179514	0.020702	99
Es	1.181219	-0.630020	-0.321074	99
Es	-0.862619	-1.692018	0.032944	99
Es	2.233486	-0.076621	-0.009351	99
Es	0.032376	-1.185839	0.022409	99
Es	-0.863641	-0.677333	-0.002096	99
Es	-2.729316	0.549718	0.006080	99
Es	1.129833	0.558617	-0.015925	99
39
Properties=species:S:1:pos:R:3:Z:I:1 energy=-338.82068942921364 field_type=dipole dipole="0.000000 0.000000 0.000000" charge=0
N	-2.591467	-0.037895	0.015948	7
C	-1.306227	-0.050945	0.008168	6
N	-0.557157	-1.179625	0.020098	7
C	0.799423	-1.220125	0.014868	6
C	1.499963	-0.086775	-0.006142	6
C	0.781183	1.225295	-0.024592	6
O	-0.666937	1.141755	-0.013112	8
H	-2.857937	0.953215	0.003388	1
H	-1.073827	-2.049155	0.036618	1
H	1.252303	-2.205675	0.028698	1
H	2.583753	-0.094165	-0.010612	1
H	1.074473	1.817705	0.847888	1
H	1.062453	1.786395	-0.921222	1
Es	-2.591091	-0.037553	0.015940	99
Es	-0.557053	-1.179211	0.018617	99
Es	0.799177	-1.220236	0.014872	99
Es	-2.100848	-0.037544	-0.261238	99
Es	0.032343	-1.185902	0.022906	99
Es	-0.810253	1.351101	0.133480	99
Es	0.981963	1.619077	0.566237	99
Es	-1.305854	-0.050869	0.008168	99
Es	1.129914	0.558423	-0.016089	99
Es	-2.088604	-0.029008	0.289360	99
Es	-2.828825	-0.336507	0.020948	99
Es	-2.728327	0.548903	0.006147	99
Es	1.181277	-0.629972	-0.320886	99
Es	0.780916	1.225195	-0.024584	99
Es	1.499972	-0.086663	-0.006145	99
Es	0.975043	1.600352	-0.632507	99
Es	-0.539845	-1.109288	0.027841	99
Es	-0.121394	1.127615	-0.007921	99
Es	-0.708739	1.115621	-0.194914	99
Es	2.233684	-0.076633	-0.009485	99
Es	-0.862784	-1.691832	0.034011	99
Es	-0.874012	0.655236	0.019761	99
Es	-0.863573	-0.677530	-0.002318	99
Es	1.090526	-1.885155	0.025670	99
Es	-0.666718	1.141183	-0.012585	99
Es	1.181724	-0.619082	0.329027	99
39
Properties=species:S:1:pos:R:3:Z:I:1 energy=-338.82068942921364 field_type=dipole dipole="0.000000 0.000000 0.000000" charge=0
N	-2.591467	-0.037895	0.015948	7
C	-1.306227	-0.050945	0.008168	6
N	-0.557157	-1.179625	0.020098	7
C	0.799423	-1.220125	0.014868	6
C	1.499963	-0.086775	-0.006142	6
C	0.781183	1.225295	-0.024592	6
O	-0.666937	1.141755	-0.013112	8
H	-2.857937	0.953215	0.003388	1
H	-1.073827	-2.049155	0.036618	1
H	1.252303	-2.205675	0.028698	1
H	2.583753	-0.094165	-0.010612	1
H	1.074473	1.817705	0.847888	1
H	1.062453	1.786395	-0.921222	1
Es	1.089801	-1.884459	0.025584	99
Es	-0.863283	-0.677914	-0.002883	99
Es	-0.698018	1.094304	-0.169158	99
Es	-2.591097	-0.037553	0.015941	99
Es	1.181397	-0.629984	-0.322612	99
Es	0.975286	1.599614	-0.633189	99
Es	0.799176	-1.220234	0.014872	99
Es	-2.101636	-0.037375	-0.263053	99
Es	-2.830533	-0.334825	0.021095	99
Es	-1.305856	-0.050867	0.008167	99
Es	0.982512	1.619292	0.567046	99
Es	-0.875649	0.656629	0.024666	99
Es	-0.539885	-1.108789	0.031681	99
Es	-2.087557	-0.028986	0.290867	99
Es	-0.557099	-1.179405	0.018982	99
Es	-0.819228	1.370865	0.101622	99
Es	-2.726956	0.546958	0.006350	99
Es	-0.863182	-1.691671	0.032278	99
Es	-0.121290	1.127881	-0.006578	99
Es	-0.666837	1.140807	-0.012696	99
Es	0.780919	1.225196	-0.024587	99
Es	1.129826	0.558319	-0.015801	99
Es	0.032495	-1.185966	0.020911	99
Es	1.499972	-0.086664	-0.006147	99
Es	2.233675	-0.076129	-0.009269	99
Es	1.181664	-0.619321	0.330223	99
39
Properties=species:S:1:pos:R:3:Z:I:1 energy=-338.82068942921364 field_type=dipole dipole="0.000000 0.000000 0.000000" charge=0
N	-2.591467	-0.037895	0.015948	7
C	-1.306227	-0.050945	0.008168	6
N	-0.557157	-1.179625	0.020098	7
C	0.799423	-1.220125	0.014868	6
C	1.499963	-0.086775	-0.006142	6
C	0.781183	1.225295	-0.024592	6
O	-0.666937	1.141755	-0.013112	8
H	-2.857937	0.953215	0.003388	1
H	-1.073827	-2.049155	0.036618	1
H	1.252303	-2.205675	0.028698	1
H	2.583753	-0.094165	-0.010612	1
H	1.074473	1.817705	0.847888	1
H	1.062453	1.786395	-0.921222	1
Es	-0.557030	-1.179151	0.021668	99
Es	-0.863356	-1.691507	0.033530	99
Es	2.233900	-0.076241	-0.009374	99
Es	-0.876188	0.656408	0.022216	99
Es	-0.539896	-1.109177	0.025077	99
Es	-1.305855	-0.050878	0.008162	99
Es	-0.816344	1.365363	0.110752	99
Es	1.499973	-0.086661	-0.006144	99
Es	-0.863162	-0.678075	-0.002826	99
Es	-0.121145	1.128054	-0.008222	99
Es	-0.700567	1.099805	-0.173996	99
Es	1.181733	-0.619077	0.329570	99
Es	-2.725970	0.547017	0.006035	99
Es	-0.666857	1.140910	-0.012896	99
Es	0.799176	-1.220236	0.014873	99
Es	0.982243	1.619061	0.566566	99
Es	-2.087247	-0.028720	0.289970	99
Es	0.032424	-1.185746	0.023511	99
Es	1.129909	0.558002	-0.016289	99
Es	1.090112	-1.884601	0.025497	99
Es	1.181290	-0.630045	-0.321349	99
Es	-2.591104	-0.037556	0.015940	99
Es	0.780915	1.225195	-0.024587	99
Es	-2.102104	-0.037475	-0.262102	99
Es	0.975139	1.600106	-0.632663	99
Es	-2.831372	-0.335052	0.021392	99
39
Properties=species:S:1:pos:R:3:Z:I:1 energy=-338.82068942921364 field_type=dipole dipole="0.000000 0.000000 0.000000" charge=0
N	-2.591467	-0.037895	0.015948	7
C	-1.306227	-0.050945	0.008168	6
N	-0.557157	-1.179625	0.020098	7
C	0.799423	-1.220125	0.014868	6
C	1.499963	-0.086775	-0.006142	6
C	0.781183	1.225295	-0.024592	6
O	-0.666937	1.141755	-0.013112	8
H	-2.857937	0.953215	0.003388	1
H	-1.073827	-2.049155	0.036618	1
H	1.252303	-2.205675	0.028698	1
H	2.583753	-0.094165	-0.010612	1
H	1.074473	1.817705	0.847888	1
H	1.062453	1.786395	-0.921222	1
Es	-0.877553	0.655762	-0.029996	99
Es	-2.831617	-0.334908	0.022508	99
Es	-0.121129	1.128371	-0.024896	99
Es	-0.694584	1.099501	0.136317	99
Es	2.233920	-0.076070	-0.009754	99
Es	-2.725833	0.546414	0.010248	99
Es	-0.863550	-1.691573	0.026730	99
Es	-0.545791	-1.132228	0.000112	99
Es	-2.097182	-0.029057	0.288310	99
Es	-0.551387	-1.156247	0.027360	99
Es	0.799175	-1.220236	0.014871	99
Es	1.178775	-0.629804	-0.322056	99
Es	1.184245	-0.619344	0.329643	99
Es	1.499970	-0.086663	-0.006154	99
Es	-1.305856	-0.050870	0.008159	99
Es	-2.092094	-0.036661	-0.264938	99
Es	1.089867	-1.884395	0.022969	99
Es	-0.820678	1.367546	-0.129697	99
Es	1.129854	0.558047	-0.014138	99
Es	-2.591081	-0.037559	0.015940	99
Es	0.983405	1.621143	0.567448	99
Es	0.032384	-1.185919	0.012339	99
Es	-0.862788	-0.677771	0.033605	99
Es	-0.667069	1.139231	-0.013883	99
Es	0.974300	1.597821	-0.632149	99
Es	0.780919	1.225194	-0.024587	99
39
Properties=species:S:1:pos:R:3:Z:I:1 energy=-338.82068942921364 field_type=dipole dipole="0.000000 0.000000 0.000000" charge=0
N	-2.591467	-0.037895	0.015948	7
C	-1.306227	-0.050945	0.008168	6
N	-0.557157	-1.179625	0.020098	7
C	0.799423	-1.220125	0.014868	6
C	1.499963	-0.086775	-0.006142	6
C	0.781183	1.225295	-0.024592	6
O	-0.666937	1.141755	-0.013112	8
H	-2.857937	0.953215	0.003388	1
H	-1.073827	-2.049155	0.036618	1
H	1.252303	-2.205675	0.028698	1
H	2.583753	-0.094165	-0.010612	1
H	1.074473	1.817705	0.847888	1
H	1.062453	1.786395	-0.921222	1
Es	-2.591082	-0.037554	0.015941	99
Es	0.799180	-1.220236	0.014868	99
Es	-0.666802	1.140701	-0.012457	99
Es	-1.305854	-0.050870	0.008171	99
Es	-0.820436	1.374252	0.091299	99
Es	-2.101864	-0.036860	-0.262913	99
Es	-0.694695	1.089535	-0.155262	99
Es	1.129807	0.557962	-0.015903	99
Es	1.089634	-1.883962	0.025562	99
Es	1.181348	-0.630176	-0.322204	99
Es	2.234023	-0.076033	-0.009210	99
Es	-2.087352	-0.028767	0.290840	99
Es	0.975300	1.599552	-0.633026	99
Es	-0.557141	-1.179582	0.019941	99
Es	0.780919	1.225201	-0.024575	99
Es	-0.120954	1.128613	-0.007800	99
Es	-2.832007	-0.334549	0.020772	99
Es	-0.539774	-1.108700	0.026486	99
Es	-0.863530	-1.691249	0.034103	99
Es	-0.863313	-0.678207	-0.001678	99
Es	0.032497	-1.185813	0.022061	99
Es	-0.878081	0.657187	0.022047	99
Es	0.982578	1.619255	0.566926	99
Es	1.499972	-0.086663	-0.006149	99
Es	1.181803	-0.619162	0.329901	99
Es	-2.725557	0.545849	0.006572	99
39
Properties=species:S:1:pos:R:3:Z:I:1 energy=-338.82068942921364 field_type=dipole dipole="0.000000 0.000000 0.000000" charge=0
N	-2.591467	-0.037895	0.015948	7
C	-1.306227	-0.050945	0.008168	6
N	-0.557157	-1.179625	0.020098	7
C	0.799423	-1.220125	0.014868	6
C	1.499963	-0.086775	-0.006142	6
C	0.781183	1.225295	-0.024592	6
O	-0.666937	1.141755	-0.013112	8
H	-2.857937	0.953215	0.003388	1
H	-1.073827	-2.049155	0.036618	1
H	1.252303	-2.205675	0.028698	1
H	2.583753	-0.094165	-0.010612	1
H	1.074473	1.817705	0.847888	1
H	1.062453	1.786395	-0.921222	1
Es	0.799177	-1.220235	0.014870	99
Es	1.499972	-0.086664	-0.006141	99
Es	-0.539520	-1.109352	0.013164	99
Es	-1.305856	-0.050870	0.008165	99
Es	0.780919	1.225195	-0.024588	99
Es	-0.557124	-1.179512	0.020690	99
Es	-0.863834	-1.691176	0.031063	99
Es	-0.881705	0.655893	-0.003513	99
Es	-0.863397	-0.677390	0.016249	99
Es	1.183359	-0.619522	0.334010	99
Es	-0.674455	1.090418	-0.027751	99
Es	-0.670432	1.116487	-0.001526	99
Es	1.129502	0.558527	-0.015329	99
Es	-0.833833	1.397732	-0.013711	99
Es	0.983981	1.619351	0.569173	99
Es	-2.833327	-0.330470	0.022102	99
Es	0.032731	-1.186090	0.019418	99
Es	1.088075	-1.882725	0.024106	99
Es	-0.120304	1.129300	-0.015638	99
Es	-2.591057	-0.037573	0.015940	99
Es	-2.724700	0.542655	0.008326	99
Es	1.180049	-0.630561	-0.325813	99
Es	-2.092063	-0.029088	0.294727	99
Es	0.975758	1.598004	-0.634559	99
Es	-2.096765	-0.037507	-0.269411	99
Es	2.233470	-0.075102	-0.009711	99
39
Properties=species:S:1:pos:R:3:Z:I:1 energy=-338.82068942921364 field_type=dipole dipole="0.000000 0.000000 0.000000" charge=0
N	-2.591467	-0.037895	0.015948	7
C	-1.306227	-0.050945	0.008168	6
N	-0.557157	-1.179625	0.020098	7
C	0.799423	-1.220125	0.014868	6
C	1.499963	-0.086775	-0.006142	6
C	0.781183	1.225295	-0.024592	6
O	-0.666937	1.141755	-0.013112	8
H	-2.857937	0.953215	0.003388	1
H	-1.073827	-2.049155	0.036618	1
H	1.252303	-2.205675	0.028698	1
H	2.583753	-0.094165	-0.010612	1
H	1.074473	1.817705	0.847888	1
H	1.062453	1.786395	-0.921222	1
Es	1.179717	-0.629288	-0.322982	99
Es	1.089256	-1.883580	0.023316	99
Es	-2.834193	-0.332976	0.023180	99
Es	-1.305855	-0.050870	0.008162	99
Es	-0.120885	1.128839	-0.024692	99
Es	0.974675	1.597957	-0.632592	99
Es	1.183448	-0.620179	0.330332	99
Es	0.780917	1.225197	-0.024595	99
Es	-0.666806	1.140820	-0.013643	99
Es	-0.826233	1.379578	-0.104088	99
Es	-2.591082	-0.037553	0.015941	99
Es	0.032541	-1.186042	0.014733	99
Es	2.234098	-0.075820	-0.009707	99
Es	1.499971	-0.086664	-0.006140	99
Es	-2.095005	-0.036470	-0.266795	99
Es	-0.863993	-1.691140	0.028524	99
Es	-2.094170	-0.029041	0.289409	99
Es	-0.862578	-0.678145	0.034062	99
Es	0.983525	1.620623	0.567752	99
Es	1.129891	0.557757	-0.014247	99
Es	-0.688248	1.084499	0.110675	99
Es	-0.557141	-1.179581	0.020179	99
Es	-2.723470	0.544170	0.010271	99
Es	0.799174	-1.220237	0.014871	99
Es	-0.878743	0.656410	-0.030361	99
Es	-0.540193	-1.108541	0.002749	99
39
Properties=species:S:1:pos:R:3:Z:I:1 energy=-338.82068942921364 field_type=dipole dipole="0.000000 0.000000 0.000000" charge=0
N	-2.591467	-0.037895	0.015948	7
C	-1.306227	-0.050945	0.008168	6
N	-0.557157	-1.179625	0.020098	7
C	0.799423	-1.220125	0.014868	6
C	1.499963	-0.086775	-0.006142	6
C	0.781183	1.225295	-0.024592	6
O	-0.666937	1.141755	-0.013112	8
H	-2.857937	0.953215	0.003388	1
H	-1.073827	-2.049155	0.036618	1
H	1.252303	-2.205675	0.028698	1
H	2.583753	-0.094165	-0.010612	1
H	1.074473	1.817705	0.847888	1
H	1.062453	1.786395	-0.921222	1
Es	-0.556664	-1.177640	0.023160	99
Es	-2.591072	-0.037553	0.015941	99
Es	2.234175	-0.075941	-0.009672	99
Es	-2.096233	-0.028611	0.289987	99
Es	-0.864156	-1.691080	0.028026	99
Es	0.032515	-1.186096	0.015128	99
Es	1.129932	0.557743	-0.014545	99
Es	-0.120790	1.128571	-0.023833	99
Es	-2.723726	0.543996	0.009721	99
Es	0.780919	1.225196	-0.024589	99
Es	1.183680	-0.619778	0.330336	99
Es	1.089267	-1.883478	0.023213	99
Es	-0.880264	0.656611	-0.026394	99
Es	1.179453	-0.629620	-0.322609	99
Es	-0.687254	1.089644	0.105707	99
Es	0.974591	1.597845	-0.632511	99
Es	-2.834008	-0.333177	0.022476	99
Es	-0.825120	1.379102	-0.102438	99
Es	-1.305855	-0.050870	0.008162	99
Es	-0.862374	-0.678246	0.034728	99
Es	1.499972	-0.086663	-0.006144	99
Es	0.799175	-1.220235	0.014870	99
Es	-2.092883	-0.036543	-0.266164	99
Es	-0.540714	-1.110440	-0.000782	99
Es	-0.667507	1.136222	-0.015160	99
Es	0.983558	1.620765	0.567699	99
39
Properties=species:S:1:pos:R:3:Z:I:1 energy=-338.82068942921364 field_type=dipole dipole="0.000000 0.000000 0.000000" charge=0
N	-2.591467	-0.037895	0.015948	7
C	-1.306227	-0.050945	0.008168	6
N	-0.557157	-1.179625	0.020098	7
C	0.799423	-1.220125	0.014868	6
C	1.499963	-0.086775	-0.006142	6
C	0.781183	1.225295	-0.024592	6
O	-0.666937	1.141755	-0.013112	8
H	-2.857937	0.953215	0.003388	1
H	-1.073827	-2.049155	0.036618	1
H	1.252303	-2.205675	0.028698	1
H	2.583753	-0.094165	-0.010612	1
H	1.074473	1.817705	0.847888	1
H	1.062453	1.786395	-0.921222	1
Es	-0.826081	1.380988	-0.098690	99
Es	0.780917	1.225195	-0.024589	99
Es	1.183728	-0.619826	0.330257	99
Es	0.799176	-1.220235	0.014870	99
Es	-0.880499	0.656818	-0.027415	99
Es	2.234223	-0.075812	-0.009699	99
Es	-2.094657	-0.036488	-0.266747	99
Es	-0.862465	-0.678270	0.033226	99
Es	0.983581	1.620661	0.567753	99
Es	-2.723009	0.543503	0.009813	99
Es	-1.305855	-0.050870	0.008163	99
Es	-2.834733	-0.332710	0.023130	99
Es	1.089171	-1.883366	0.023332	99
Es	-0.540213	-1.108976	0.003538	99
Es	-0.120746	1.128613	-0.024244	99
Es	-0.557042	-1.179166	0.021513	99
Es	-2.591073	-0.037564	0.015942	99
Es	0.974629	1.597895	-0.632522	99
Es	-0.864223	-1.690927	0.027809	99
Es	1.129960	0.557604	-0.014349	99
Es	-0.666789	1.141390	-0.013032	99
Es	-2.094478	-0.028605	0.289831	99
Es	0.032554	-1.186114	0.014182	99
Es	1.499972	-0.086664	-0.006157	99
Es	1.179417	-0.629605	-0.322885	99
Es	-0.686845	1.082253	0.101282	99
39
Properties=species:S:1:pos:R:3:Z:I:1 energy=-338.82068942921364 field_type=dipole dipole="0.000000 0.000000 0.000000" charge=0
N	-2.591467	-0.037895	0.015948	7
C	-1.306227	-0.050945	0.008168	6
N	-0.557157	-1.179625	0.020098	7
C	0.799423	-1.220125	0.014868	6
C	1.499963	-0.086775	-0.006142	6
C	0.781183	1.225295	-0.024592	6
O	-0.666937	1.141755	-0.013112	8
H	-2.857937	0.953215	0.003388	1
H	-1.073827	-2.049155	0.036618	1
H	1.252303	-2.205675	0.028698	1
H	2.583753	-0.094165	-0.010612	1
H	1.074473	1.817705	0.847888	1
H	1.062453	1.786395	-0.921222	1
Es	-0.674177	1.097738	-0.042181	99
Es	0.799176	-1.220235	0.014871	99
Es	-2.722971	0.541707	0.008015	99
Es	0.975763	1.598219	-0.634281	99
Es	-0.864229	-1.690955	0.029856	99
Es	-0.832419	1.396767	0.005910	99
Es	-2.095441	-0.036861	-0.267877	99
Es	1.180579	-0.630191	-0.325256	99
Es	-0.556977	-1.178916	0.022133	99
Es	1.182745	-0.619747	0.332955	99
Es	-0.863078	-0.677957	0.007013	99
Es	0.780921	1.225197	-0.024594	99
Es	-2.591114	-0.037546	0.015937	99
Es	-0.882530	0.656649	-0.000899	99
Es	-2.093412	-0.028692	0.294652	99
Es	2.233852	-0.075244	-0.009543	99
Es	-1.305855	-0.050870	0.008161	99
Es	0.983801	1.619260	0.568743	99
Es	-0.120259	1.128845	-0.014753	99
Es	1.088156	-1.882476	0.024492	99
Es	1.499972	-0.086664	-0.006142	99
Es	-2.835027	-0.330563	0.020945	99
Es	-0.539729	-1.109527	0.022903	99
Es	0.032683	-1.186184	0.018644	99
Es	1.129586	0.558150	-0.015207	99
Es	-0.671399	1.109821	-0.010184	99
