45
Properties=species:S:1:pos:R:3:Z:I:1 energy=-341.12057476085266 field_type=dipole dipole="0.000000 0.000000 0.000000" charge=0
N	-0.903154	-1.723887	-1.060408	7
C	-0.616134	-1.134407	0.254472	6
C	0.200546	0.139532	0.119992	6
N	1.424586	-0.007707	-0.710358	7
C	-0.521464	1.449012	-0.265558	6
O	0.191376	2.177123	0.777432	8
C	0.554476	0.913803	1.406582	6
H	-1.450544	-2.574127	-0.925258	1
H	-0.014244	-2.037218	-1.455138	1
H	-0.073764	-1.871167	0.858232	1
H	-1.563314	-0.932717	0.766502	1
H	1.982986	0.849163	-0.735048	1
H	1.192026	-0.194268	-1.686968	1
H	-1.600954	1.473032	-0.081538	1
H	-0.317344	1.856043	-1.260598	1
H	1.601556	0.900393	1.724652	1
H	-0.086634	0.717402	2.273012	1
Es	-0.202903	-0.501501	0.177824	99
Es	0.450369	2.281843	0.645937	99
Es	-1.068002	-1.491453	-1.278241	99
Es	1.270734	0.899452	1.622463	99
Es	1.622987	-0.276741	-0.584543	99
Es	0.108182	0.767778	1.996133	99
Es	0.554399	0.913984	1.406469	99
Es	-0.092863	1.928701	0.375461	99
Es	-0.616150	-1.134434	0.254326	99
Es	1.733336	0.520100	-0.722499	99
Es	-1.261928	-0.987267	0.604576	99
Es	-0.521355	1.449129	-0.265382	99
Es	-0.379613	1.723397	-0.951004	99
Es	-1.222516	-2.242017	-0.963396	99
Es	1.424236	-0.007260	-0.710584	99
Es	-1.265326	1.457298	-0.135557	99
Es	-0.236966	-1.632878	0.678824	99
Es	-0.363725	-1.919786	-1.283889	99
Es	0.885837	0.074224	-0.370331	99
Es	-0.902890	-1.724227	-1.060063	99
Es	0.405102	0.443143	0.804967	99
Es	-0.003274	2.341514	0.954968	99
Es	-0.216805	0.751251	-0.141556	99
Es	0.335269	1.712570	1.045099	99
Es	1.263260	-0.105469	-1.297660	99
Es	-0.770169	-1.483967	-0.484001	99
Es	0.191341	2.176788	0.777409	99
Es	0.200666	0.139534	0.119926	99
45
Properties=species:S:1:pos:R:3:Z:I:1 energy=-341.12057476085266 field_type=dipole dipole="0.000000 0.000000 0.000000" charge=0
N	-0.903154	-1.723887	-1.060408	7
C	-0.616134	-1.134407	0.254472	6
C	0.200546	0.139532	0.119992	6
N	1.424586	-0.007707	-0.710358	7
C	-0.521464	1.449012	-0.265558	6
O	0.191376	2.177123	0.777432	8
C	0.554476	0.913803	1.406582	6
H	-1.450544	-2.574127	-0.925258	1
H	-0.014244	-2.037218	-1.455138	1
H	-0.073764	-1.871167	0.858232	1
H	-1.563314	-0.932717	0.766502	1
H	1.982986	0.849163	-0.735048	1
H	1.192026	-0.194268	-1.686968	1
H	-1.600954	1.473032	-0.081538	1
H	-0.317344	1.856043	-1.260598	1
H	1.601556	0.900393	1.724652	1
H	-0.086634	0.717402	2.273012	1
Es	-1.068444	-1.490510	-1.278918	99
Es	-1.265150	1.456960	-0.135352	99
Es	-0.616148	-1.134431	0.254325	99
Es	-0.379522	1.723446	-0.951554	99
Es	-1.221993	-2.242323	-0.963394	99
Es	-0.093532	1.929338	0.374519	99
Es	-0.203023	-0.501373	0.177702	99
Es	-0.002998	2.336195	0.953502	99
Es	0.334684	1.712247	1.045580	99
Es	0.451367	2.286634	0.647978	99
Es	-0.769723	-1.484578	-0.483784	99
Es	1.623647	-0.276374	-0.585898	99
Es	1.732922	0.519851	-0.722141	99
Es	-0.236902	-1.633112	0.679063	99
Es	1.424237	-0.007268	-0.710573	99
Es	1.262574	-0.104477	-1.298055	99
Es	0.107998	0.767658	1.996289	99
Es	-0.902885	-1.724231	-1.060060	99
Es	-0.364461	-1.919701	-1.283466	99
Es	1.270758	0.899489	1.622347	99
Es	0.405330	0.443355	0.805225	99
Es	-0.521354	1.449130	-0.265381	99
Es	-0.216987	0.751552	-0.141447	99
Es	0.200666	0.139535	0.119926	99
Es	0.886127	0.073116	-0.368972	99
Es	0.554400	0.913984	1.406471	99
Es	-1.261645	-0.987200	0.604376	99
Es	0.191290	2.176797	0.777370	99
45
Properties=species:S:1:pos:R:3:Z:I:1 energy=-341.12057476085266 field_type=dipole dipole="0.000000 0.000000 0.000000" charge=0
N	-0.903154	-1.723887	-1.060408	7
C	-0.616134	-1.134407	0.254472	6
C	0.200546	0.139532	0.119992	6
N	1.424586	-0.007707	-0.710358	7
C	-0.521464	1.449012	-0.265558	6
O	0.191376	2.177123	0.777432	8
C	0.554476	0.913803	1.406582	6
H	-1.450544	-2.574127	-0.925258	1
H	-0.014244	-2.037218	-1.455138	1
H	-0.073764	-1.871167	0.858232	1
H	-1.563314	-0.932717	0.766502	1
H	1.982986	0.849163	-0.735048	1
H	1.192026	-0.194268	-1.686968	1
H	-1.600954	1.473032	-0.081538	1
H	-0.317344	1.856043	-1.260598	1
H	1.601556	0.900393	1.724652	1
H	-0.086634	0.717402	2.273012	1
Es	-1.069068	-1.489612	-1.279017	99
Es	1.424246	-0.007288	-0.710570	99
Es	-0.236949	-1.633128	0.679238	99
Es	0.335792	1.712019	1.045860	99
Es	-0.003873	2.329303	0.951834	99
Es	-0.616147	-1.134432	0.254326	99
Es	1.270818	0.899505	1.622245	99
Es	0.405440	0.443463	0.805432	99
Es	0.554400	0.913984	1.406470	99
Es	1.262327	-0.104153	-1.298525	99
Es	-1.221575	-2.242090	-0.963499	99
Es	0.107862	0.767657	1.996433	99
Es	-1.264977	1.456774	-0.135070	99
Es	0.451011	2.293398	0.650281	99
Es	-1.261555	-0.987109	0.604249	99
Es	-0.364628	-1.919806	-1.283536	99
Es	-0.379521	1.723478	-0.952032	99
Es	0.191351	2.176842	0.777358	99
Es	1.623370	-0.276198	-0.586230	99
Es	-0.769323	-1.485604	-0.483670	99
Es	-0.902884	-1.724229	-1.060053	99
Es	-0.217247	0.751739	-0.141287	99
Es	-0.521357	1.449126	-0.265384	99
Es	-0.202983	-0.501321	0.177770	99
Es	0.886331	0.072838	-0.368786	99
Es	-0.093413	1.929408	0.373538	99
Es	1.733119	0.519611	-0.721620	99
Es	0.200667	0.139534	0.119925	99
45
Properties=species:S:1:pos:R:3:Z:I:1 energy=-341.12057476085266 field_type=dipole dipole="0.000000 0.000000 0.000000" charge=0
N	-0.903154	-1.723887	-1.060408	7
C	-0.616134	-1.134407	0.254472	6
C	0.200546	0.139532	0.119992	6
N	1.424586	-0.007707	-0.710358	7
C	-0.521464	1.449012	-0.265558	6
O	0.191376	2.177123	0.777432	8
C	0.554476	0.913803	1.406582	6
H	-1.450544	-2.574127	-0.925258	1
H	-0.014244	-2.037218	-1.455138	1
H	-0.073764	-1.871167	0.858232	1
H	-1.563314	-0.932717	0.766502	1
H	1.982986	0.849163	-0.735048	1
H	1.192026	-0.194268	-1.686968	1
H	-1.600954	1.473032	-0.081538	1
H	-0.317344	1.856043	-1.260598	1
H	1.601556	0.900393	1.724652	1
H	-0.086634	0.717402	2.273012	1
Es	-0.217440	0.751927	-0.141204	99
Es	1.424214	-0.007247	-0.710580	99
Es	-1.264915	1.456598	-0.134952	99
Es	1.733169	0.519585	-0.721340	99
Es	0.886493	0.072339	-0.368419	99
Es	0.554400	0.913984	1.406471	99
Es	-1.069950	-1.489219	-1.279431	99
Es	0.200666	0.139536	0.119927	99
Es	-0.236848	-1.633240	0.679241	99
Es	-0.094318	1.929570	0.373726	99
Es	0.451566	2.290813	0.649699	99
Es	-0.521359	1.449129	-0.265382	99
Es	-0.364968	-1.919585	-1.283514	99
Es	-0.902867	-1.724264	-1.060042	99
Es	-1.220696	-2.242304	-0.963195	99
Es	-1.261446	-0.987130	0.604257	99
Es	0.405502	0.443618	0.805697	99
Es	0.107738	0.767550	1.996482	99
Es	-0.616146	-1.134433	0.254327	99
Es	0.334063	1.712138	1.047655	99
Es	1.623141	-0.275385	-0.586502	99
Es	-0.769133	-1.485863	-0.483588	99
Es	1.262317	-0.104470	-1.298952	99
Es	-0.202981	-0.501194	0.177661	99
Es	-0.379442	1.723446	-0.952329	99
Es	0.191358	2.176842	0.777353	99
Es	1.270927	0.899487	1.622155	99
Es	-0.001810	2.331480	0.950457	99
45
Properties=species:S:1:pos:R:3:Z:I:1 energy=-341.12057476085266 field_type=dipole dipole="0.000000 0.000000 0.000000" charge=0
N	-0.903154	-1.723887	-1.060408	7
C	-0.616134	-1.134407	0.254472	6
C	0.200546	0.139532	0.119992	6
N	1.424586	-0.007707	-0.710358	7
C	-0.521464	1.449012	-0.265558	6
O	0.191376	2.177123	0.777432	8
C	0.554476	0.913803	1.406582	6
H	-1.450544	-2.574127	-0.925258	1
H	-0.014244	-2.037218	-1.455138	1
H	-0.073764	-1.871167	0.858232	1
H	-1.563314	-0.932717	0.766502	1
H	1.982986	0.849163	-0.735048	1
H	1.192026	-0.194268	-1.686968	1
H	-1.600954	1.473032	-0.081538	1
H	-0.317344	1.856043	-1.260598	1
H	1.601556	0.900393	1.724652	1
H	-0.086634	0.717402	2.273012	1
Es	0.554400	0.913985	1.406470	99
Es	-0.379452	1.723481	-0.952579	99
Es	1.732421	0.519386	-0.721368	99
Es	-1.261406	-0.987069	0.604169	99
Es	-1.264841	1.456415	-0.134789	99
Es	0.333345	1.712265	1.048666	99
Es	-0.365264	-1.919725	-1.283279	99
Es	1.623785	-0.274552	-0.586855	99
Es	-0.094800	1.929467	0.373890	99
Es	-0.616145	-1.134434	0.254328	99
Es	0.200666	0.139536	0.119928	99
Es	-0.236877	-1.633266	0.679350	99
Es	-0.521357	1.449127	-0.265383	99
Es	-1.069722	-1.488175	-1.279388	99
Es	1.262277	-0.104471	-1.299390	99
Es	0.191385	2.176787	0.777299	99
Es	1.271004	0.899455	1.622039	99
Es	0.107655	0.767526	1.996578	99
Es	1.424229	-0.007280	-0.710563	99
Es	-1.221015	-2.242201	-0.963630	99
Es	0.886586	0.071726	-0.367636	99
Es	-0.217472	0.752105	-0.141161	99
Es	-0.000958	2.331244	0.949390	99
Es	-0.902886	-1.724230	-1.060062	99
Es	0.451923	2.290941	0.649649	99
Es	-0.768703	-1.486896	-0.483472	99
Es	0.405464	0.443688	0.805909	99
Es	-0.203006	-0.501129	0.177570	99
45
Properties=species:S:1:pos:R:3:Z:I:1 energy=-341.12057476085266 field_type=dipole dipole="0.000000 0.000000 0.000000" charge=0
N	-0.903154	-1.723887	-1.060408	7
C	-0.616134	-1.134407	0.254472	6
C	0.200546	0.139532	0.119992	6
N	1.424586	-0.007707	-0.710358	7
C	-0.521464	1.449012	-0.265558	6
O	0.191376	2.177123	0.777432	8
C	0.554476	0.913803	1.406582	6
H	-1.450544	-2.574127	-0.925258	1
H	-0.014244	-2.037218	-1.455138	1
H	-0.073764	-1.871167	0.858232	1
H	-1.563314	-0.932717	0.766502	1
H	1.982986	0.849163	-0.735048	1
H	1.192026	-0.194268	-1.686968	1
H	-1.600954	1.473032	-0.081538	1
H	-0.317344	1.856043	-1.260598	1
H	1.601556	0.900393	1.724652	1
H	-0.086634	0.717402	2.273012	1
Es	0.000835	2.330958	0.947841	99
Es	-1.220804	-2.242051	-0.963605	99
Es	0.554399	0.913983	1.406471	99
Es	-0.202982	-0.501122	0.177586	99
Es	1.623140	-0.275199	-0.587906	99
Es	-0.616145	-1.134434	0.254327	99
Es	-1.264782	1.456343	-0.134714	99
Es	0.453228	2.290577	0.649764	99
Es	1.261927	-0.103011	-1.299626	99
Es	-0.365340	-1.919842	-1.283333	99
Es	1.424223	-0.007247	-0.710593	99
Es	0.191308	2.176787	0.777358	99
Es	0.331300	1.712101	1.049970	99
Es	0.200666	0.139538	0.119928	99
Es	-0.379446	1.723535	-0.952712	99
Es	-0.095767	1.930186	0.373932	99
Es	-0.902894	-1.724219	-1.060071	99
Es	-0.521356	1.449128	-0.265383	99
Es	0.107571	0.767481	1.996691	99
Es	-1.070027	-1.487885	-1.279472	99
Es	-0.217526	0.752122	-0.141180	99
Es	1.270960	0.899469	1.621966	99
Es	1.733262	0.518825	-0.720375	99
Es	-0.768589	-1.487196	-0.483455	99
Es	-0.236867	-1.633279	0.679371	99
Es	0.886738	0.071402	-0.367328	99
Es	-1.261324	-0.986996	0.604195	99
Es	0.405527	0.443754	0.806029	99
45
Properties=species:S:1:pos:R:3:Z:I:1 energy=-341.12057476085266 field_type=dipole dipole="0.000000 0.000000 0.000000" charge=0
N	-0.903154	-1.723887	-1.060408	7
C	-0.616134	-1.134407	0.254472	6
C	0.200546	0.139532	0.119992	6
N	1.424586	-0.007707	-0.710358	7
C	-0.521464	1.449012	-0.265558	6
O	0.191376	2.177123	0.777432	8
C	0.554476	0.913803	1.406582	6
H	-1.450544	-2.574127	-0.925258	1
H	-0.014244	-2.037218	-1.455138	1
H	-0.073764	-1.871167	0.858232	1
H	-1.563314	-0.932717	0.766502	1
H	1.982986	0.849163	-0.735048	1
H	1.192026	-0.194268	-1.686968	1
H	-1.600954	1.473032	-0.081538	1
H	-0.317344	1.856043	-1.260598	1
H	1.601556	0.900393	1.724652	1
H	-0.086634	0.717402	2.273012	1
Es	-0.521355	1.449128	-0.265382	99
Es	-0.236832	-1.633269	0.679415	99
Es	0.405614	0.443828	0.806188	99
Es	-0.379385	1.723488	-0.952921	99
Es	0.191342	2.176739	0.777327	99
Es	0.200665	0.139536	0.119926	99
Es	1.623554	-0.274726	-0.588122	99
Es	-1.220756	-2.241814	-0.963632	99
Es	0.886847	0.071181	-0.366787	99
Es	1.261737	-0.103181	-1.299694	99
Es	0.554399	0.913984	1.406471	99
Es	-0.202893	-0.501102	0.177490	99
Es	-0.000836	2.326879	0.947667	99
Es	-0.217753	0.752297	-0.141157	99
Es	-1.069952	-1.487628	-1.279973	99
Es	-1.261387	-0.986951	0.604169	99
Es	1.424219	-0.007250	-0.710575	99
Es	0.333166	1.712145	1.049297	99
Es	-0.902907	-1.724207	-1.060079	99
Es	-0.768397	-1.487314	-0.483264	99
Es	-0.616146	-1.134433	0.254326	99
Es	1.270978	0.899486	1.621900	99
Es	0.452145	2.295070	0.651283	99
Es	1.732901	0.518767	-0.720684	99
Es	0.107477	0.767424	1.996763	99
Es	-0.094863	1.929642	0.373290	99
Es	-0.365592	-1.920237	-1.282957	99
Es	-1.264756	1.456226	-0.134608	99
45
Properties=species:S:1:pos:R:3:Z:I:1 energy=-341.12057476085266 field_type=dipole dipole="0.000000 0.000000 0.000000" charge=0
N	-0.903154	-1.723887	-1.060408	7
C	-0.616134	-1.134407	0.254472	6
C	0.200546	0.139532	0.119992	6
N	1.424586	-0.007707	-0.710358	7
C	-0.521464	1.449012	-0.265558	6
O	0.191376	2.177123	0.777432	8
C	0.554476	0.913803	1.406582	6
H	-1.450544	-2.574127	-0.925258	1
H	-0.014244	-2.037218	-1.455138	1
H	-0.073764	-1.871167	0.858232	1
H	-1.563314	-0.932717	0.766502	1
H	1.982986	0.849163	-0.735048	1
H	1.192026	-0.194268	-1.686968	1
H	-1.600954	1.473032	-0.081538	1
H	-0.317344	1.856043	-1.260598	1
H	1.601556	0.900393	1.724652	1
H	-0.086634	0.717402	2.273012	1
Es	-0.094293	1.929911	0.372485	99
Es	0.200665	0.139537	0.119927	99
Es	1.424237	-0.007292	-0.710561	99
Es	-0.768224	-1.487890	-0.483327	99
Es	1.733113	0.518694	-0.720530	99
Es	-1.220304	-2.241970	-0.963573	99
Es	-1.264764	1.456151	-0.134552	99
Es	-0.000269	2.327162	0.946153	99
Es	-1.261275	-0.986940	0.604123	99
Es	-0.202955	-0.501041	0.177485	99
Es	-1.070744	-1.487391	-1.279321	99
Es	-0.365504	-1.919684	-1.283700	99
Es	1.623311	-0.274632	-0.588260	99
Es	0.405623	0.443892	0.806384	99
Es	0.452861	2.294383	0.652072	99
Es	0.886737	0.071144	-0.366789	99
Es	0.554399	0.913982	1.406472	99
Es	-0.902891	-1.724213	-1.060056	99
Es	-0.379345	1.723432	-0.953036	99
Es	1.261825	-0.103140	-1.299750	99
Es	-0.521355	1.449128	-0.265382	99
Es	0.107438	0.767374	1.996727	99
Es	-0.616146	-1.134434	0.254329	99
Es	-0.236827	-1.633329	0.679473	99
Es	0.191301	2.176759	0.777369	99
Es	0.331274	1.712226	1.050717	99
Es	-0.217746	0.752400	-0.141086	99
Es	1.271092	0.899488	1.621884	99
45
Properties=species:S:1:pos:R:3:Z:I:1 energy=-341.12057476085266 field_type=dipole dipole="0.000000 0.000000 0.000000" charge=0
N	-0.903154	-1.723887	-1.060408	7
C	-0.616134	-1.134407	0.254472	6
C	0.200546	0.139532	0.119992	6
N	1.424586	-0.007707	-0.710358	7
C	-0.521464	1.449012	-0.265558	6
O	0.191376	2.177123	0.777432	8
C	0.554476	0.913803	1.406582	6
H	-1.450544	-2.574127	-0.925258	1
H	-0.014244	-2.037218	-1.455138	1
H	-0.073764	-1.871167	0.858232	1
H	-1.563314	-0.932717	0.766502	1
H	1.982986	0.849163	-0.735048	1
H	1.192026	-0.194268	-1.686968	1
H	-1.600954	1.473032	-0.081538	1
H	-0.317344	1.856043	-1.260598	1
H	1.601556	0.900393	1.724652	1
H	-0.086634	0.717402	2.273012	1
Es	-1.219906	-2.241973	-0.963455	99
Es	-0.365579	-1.919631	-1.283738	99
Es	0.200665	0.139536	0.119928	99
Es	1.424257	-0.007279	-0.710571	99
Es	-0.521354	1.449130	-0.265382	99
Es	0.107365	0.767385	1.996782	99
Es	0.405627	0.443934	0.806362	99
Es	0.886894	0.070713	-0.366640	99
Es	0.331598	1.712177	1.050568	99
Es	0.191302	2.176801	0.777381	99
Es	-0.096391	1.930035	0.373964	99
Es	-0.616146	-1.134433	0.254327	99
Es	-1.261224	-0.986934	0.604019	99
Es	0.001285	2.327538	0.946465	99
Es	-1.071093	-1.487444	-1.279473	99
Es	0.554400	0.913985	1.406471	99
Es	-0.236768	-1.633363	0.679599	99
Es	1.732769	0.518574	-0.720083	99
Es	-0.902905	-1.724205	-1.060076	99
Es	1.623388	-0.274242	-0.588336	99
Es	1.271022	0.899494	1.621889	99
Es	-1.264706	1.456048	-0.134488	99
Es	-0.379310	1.723462	-0.953183	99
Es	-0.203007	-0.500992	0.177470	99
Es	0.453151	2.293794	0.650462	99
Es	-0.768182	-1.487887	-0.483238	99
Es	-0.217860	0.752465	-0.141089	99
Es	1.261944	-0.102981	-1.300255	99
45
Properties=species:S:1:pos:R:3:Z:I:1 energy=-341.12057476085266 field_type=dipole dipole="0.000000 0.000000 0.000000" charge=0
N	-0.903154	-1.723887	-1.060408	7
C	-0.616134	-1.134407	0.254472	6
C	0.200546	0.139532	0.119992	6
N	1.424586	-0.007707	-0.710358	7
C	-0.521464	1.449012	-0.265558	6
O	0.191376	2.177123	0.777432	8
C	0.554476	0.913803	1.406582	6
H	-1.450544	-2.574127	-0.925258	1
H	-0.014244	-2.037218	-1.455138	1
H	-0.073764	-1.871167	0.858232	1
H	-1.563314	-0.932717	0.766502	1
H	1.982986	0.849163	-0.735048	1
H	1.192026	-0.194268	-1.686968	1
H	-1.600954	1.473032	-0.081538	1
H	-0.317344	1.856043	-1.260598	1
H	1.601556	0.900393	1.724652	1
H	-0.086634	0.717402	2.273012	1
Es	0.886905	0.070518	-0.366016	99
Es	-1.070743	-1.486577	-1.280278	99
Es	-1.264651	1.455986	-0.134422	99
Es	-1.261282	-0.986924	0.604124	99
Es	-0.379336	1.723454	-0.953284	99
Es	1.733112	0.518338	-0.720134	99
Es	-0.768167	-1.488346	-0.483248	99
Es	-0.236633	-1.633299	0.679543	99
Es	0.453802	2.294359	0.651543	99
Es	0.554399	0.913985	1.406470	99
Es	-0.095841	1.930081	0.373195	99
Es	-0.616148	-1.134432	0.254328	99
Es	-0.365760	-1.920202	-1.282758	99
Es	0.405657	0.443938	0.806533	99
Es	-0.902872	-1.724237	-1.060059	99
Es	0.001054	2.326789	0.946066	99
Es	-0.203077	-0.501022	0.177375	99
Es	-1.220107	-2.241765	-0.963667	99
Es	1.271081	0.899444	1.621741	99
Es	1.623260	-0.274056	-0.589010	99
Es	-0.217904	0.752590	-0.141049	99
Es	0.107374	0.767351	1.996877	99
Es	1.261657	-0.102751	-1.300187	99
Es	1.424235	-0.007277	-0.710567	99
Es	0.200665	0.139535	0.119926	99
Es	0.191287	2.176753	0.777375	99
Es	-0.521356	1.449129	-0.265383	99
Es	0.330620	1.712345	1.050645	99
45
Properties=species:S:1:pos:R:3:Z:I:1 energy=-341.12057476085266 field_type=dipole dipole="0.000000 0.000000 0.000000" charge=0
N	-0.903154	-1.723887	-1.060408	7
C	-0.616134	-1.134407	0.254472	6
C	0.200546	0.139532	0.119992	6
N	1.424586	-0.007707	-0.710358	7
C	-0.521464	1.449012	-0.265558	6
O	0.191376	2.177123	0.777432	8
C	0.554476	0.913803	1.406582	6
H	-1.450544	-2.574127	-0.925258	1
H	-0.014244	-2.037218	-1.455138	1
H	-0.073764	-1.871167	0.858232	1
H	-1.563314	-0.932717	0.766502	1
H	1.982986	0.849163	-0.735048	1
H	1.192026	-0.194268	-1.686968	1
H	-1.600954	1.473032	-0.081538	1
H	-0.317344	1.856043	-1.260598	1
H	1.601556	0.900393	1.724652	1
H	-0.086634	0.717402	2.273012	1
Es	0.328774	1.712771	1.052840	99
Es	1.733398	0.518117	-0.720163	99
Es	0.191342	2.176893	0.777376	99
Es	-0.521354	1.449130	-0.265382	99
Es	-0.366018	-1.919529	-1.283742	99
Es	-0.236785	-1.633368	0.679627	99
Es	0.003000	2.329908	0.944593	99
Es	1.424250	-0.007296	-0.710573	99
Es	-1.219931	-2.242055	-0.963682	99
Es	-0.616146	-1.134434	0.254327	99
Es	0.405633	0.443926	0.806498	99
Es	1.271099	0.899456	1.621794	99
Es	-0.217956	0.752668	-0.141095	99
Es	-0.379274	1.723469	-0.953301	99
Es	0.886916	0.070876	-0.365987	99
Es	1.261524	-0.102542	-1.300111	99
Es	0.200663	0.139537	0.119927	99
Es	-0.767608	-1.488825	-0.483186	99
Es	0.107296	0.767415	1.996873	99
Es	-0.902874	-1.724232	-1.060061	99
Es	0.554399	0.913985	1.406470	99
Es	-1.071247	-1.486483	-1.279364	99
Es	-0.202949	-0.501050	0.177441	99
Es	-1.261204	-0.986849	0.604024	99
Es	-1.264696	1.455964	-0.134413	99
Es	-0.096440	1.929995	0.373587	99
Es	0.454316	2.290627	0.650391	99
Es	1.623105	-0.274370	-0.589032	99
45
Properties=species:S:1:pos:R:3:Z:I:1 energy=-341.12057476085266 field_type=dipole dipole="0.000000 0.000000 0.000000" charge=0
N	-0.903154	-1.723887	-1.060408	7
C	-0.616134	-1.134407	0.254472	6
C	0.200546	0.139532	0.119992	6
N	1.424586	-0.007707	-0.710358	7
C	-0.521464	1.449012	-0.265558	6
O	0.191376	2.177123	0.777432	8
C	0.554476	0.913803	1.406582	6
H	-1.450544	-2.574127	-0.925258	1
H	-0.014244	-2.037218	-1.455138	1
H	-0.073764	-1.871167	0.858232	1
H	-1.563314	-0.932717	0.766502	1
H	1.982986	0.849163	-0.735048	1
H	1.192026	-0.194268	-1.686968	1
H	-1.600954	1.473032	-0.081538	1
H	-0.317344	1.856043	-1.260598	1
H	1.601556	0.900393	1.724652	1
H	-0.086634	0.717402	2.273012	1
Es	-0.521356	1.449129	-0.265382	99
Es	0.405620	0.443998	0.806616	99
Es	1.424314	-0.007388	-0.710583	99
Es	0.554399	0.913983	1.406472	99
Es	-1.261255	-0.986857	0.604080	99
Es	-1.071216	-1.486806	-1.280300	99
Es	-0.236689	-1.633372	0.679581	99
Es	0.453464	2.295589	0.652039	99
Es	-0.096077	1.930282	0.372999	99
Es	1.623165	-0.273806	-0.589095	99
Es	-0.902878	-1.724230	-1.060045	99
Es	0.001589	2.325228	0.944914	99
Es	0.886880	0.070527	-0.365891	99
Es	0.330635	1.712194	1.051465	99
Es	0.200666	0.139535	0.119926	99
Es	-0.365856	-1.919923	-1.283006	99
Es	-1.264611	1.455900	-0.134346	99
Es	-0.616146	-1.134434	0.254327	99
Es	0.191348	2.176886	0.777372	99
Es	1.271095	0.899461	1.621691	99
Es	-0.218009	0.752689	-0.140965	99
Es	-0.379267	1.723436	-0.953460	99
Es	0.107271	0.767348	1.996953	99
Es	1.733078	0.517949	-0.719950	99
Es	-0.203007	-0.501009	0.177400	99
Es	1.261784	-0.102501	-1.300425	99
Es	-1.219631	-2.241930	-0.963440	99
Es	-0.768077	-1.488170	-0.483268	99
45
Properties=species:S:1:pos:R:3:Z:I:1 energy=-341.12057476085266 field_type=dipole dipole="0.000000 0.000000 0.000000" charge=0
N	-0.903154	-1.723887	-1.060408	7
C	-0.616134	-1.134407	0.254472	6
C	0.200546	0.139532	0.119992	6
N	1.424586	-0.007707	-0.710358	7
C	-0.521464	1.449012	-0.265558	6
O	0.191376	2.177123	0.777432	8
C	0.554476	0.913803	1.406582	6
H	-1.450544	-2.574127	-0.925258	1
H	-0.014244	-2.037218	-1.455138	1
H	-0.073764	-1.871167	0.858232	1
H	-1.563314	-0.932717	0.766502	1
H	1.982986	0.849163	-0.735048	1
H	1.192026	-0.194268	-1.686968	1
H	-1.600954	1.473032	-0.081538	1
H	-0.317344	1.856043	-1.260598	1
H	1.601556	0.900393	1.724652	1
H	-0.086634	0.717402	2.273012	1
Es	-1.261242	-0.986837	0.604091	99
Es	1.271149	0.899470	1.621617	99
Es	0.554398	0.913984	1.406472	99
Es	-1.071465	-1.486533	-1.279852	99
Es	1.424227	-0.007257	-0.710589	99
Es	-0.521356	1.449128	-0.265383	99
Es	-0.236722	-1.633342	0.679582	99
Es	1.261574	-0.102467	-1.300502	99
Es	-0.767825	-1.488711	-0.483132	99
Es	0.887036	0.070127	-0.365494	99
Es	0.452828	2.298019	0.653223	99
Es	0.200665	0.139535	0.119926	99
Es	0.191540	2.176697	0.777189	99
Es	0.405674	0.444041	0.806713	99
Es	-0.218090	0.752761	-0.141046	99
Es	-0.379275	1.723407	-0.953463	99
Es	-0.902885	-1.724234	-1.060049	99
Es	-0.365908	-1.919826	-1.283463	99
Es	0.331016	1.712157	1.051633	99
Es	-1.264677	1.455892	-0.134283	99
Es	0.000790	2.323164	0.944291	99
Es	0.107262	0.767271	1.996981	99
Es	-0.095185	1.930091	0.372458	99
Es	1.732880	0.517948	-0.720021	99
Es	1.623473	-0.273662	-0.589386	99
Es	-0.202912	-0.500884	0.177395	99
Es	-1.219591	-2.241797	-0.963559	99
Es	-0.616145	-1.134434	0.254328	99
45
Properties=species:S:1:pos:R:3:Z:I:1 energy=-341.12057476085266 field_type=dipole dipole="0.000000 0.000000 0.000000" charge=0
N	-0.903154	-1.723887	-1.060408	7
C	-0.616134	-1.134407	0.254472	6
C	0.200546	0.139532	0.119992	6
N	1.424586	-0.007707	-0.710358	7
C	-0.521464	1.449012	-0.265558	6
O	0.191376	2.177123	0.777432	8
C	0.554476	0.913803	1.406582	6
H	-1.450544	-2.574127	-0.925258	1
H	-0.014244	-2.037218	-1.455138	1
H	-0.073764	-1.871167	0.858232	1
H	-1.563314	-0.932717	0.766502	1
H	1.982986	0.849163	-0.735048	1
H	1.192026	-0.194268	-1.686968	1
H	-1.600954	1.473032	-0.081538	1
H	-0.317344	1.856043	-1.260598	1
H	1.601556	0.900393	1.724652	1
H	-0.086634	0.717402	2.273012	1
Es	1.733153	0.517877	-0.719762	99
Es	0.003637	2.326565	0.943988	99
Es	0.200666	0.139535	0.119926	99
Es	-0.521355	1.449127	-0.265383	99
Es	-1.261243	-0.986796	0.604032	99
Es	-1.219479	-2.241794	-0.963495	99
Es	-0.379333	1.723471	-0.953512	99
Es	-0.202883	-0.500876	0.177431	99
Es	-1.071547	-1.486261	-1.280062	99
Es	1.261585	-0.102225	-1.300547	99
Es	-0.218025	0.752706	-0.141039	99
Es	1.424255	-0.007288	-0.710579	99
Es	0.405698	0.444028	0.806688	99
Es	-1.264604	1.455804	-0.134248	99
Es	-0.767643	-1.488921	-0.483145	99
Es	0.191216	2.176759	0.777426	99
Es	0.453811	2.293985	0.650875	99
Es	0.329776	1.712386	1.052668	99
Es	-0.616146	-1.134434	0.254327	99
Es	0.107237	0.767316	1.996973	99
Es	0.887011	0.069846	-0.365308	99
Es	1.271096	0.899503	1.621689	99
Es	-0.366067	-1.919915	-1.283302	99
Es	0.554399	0.913985	1.406471	99
Es	-0.097488	1.930437	0.373806	99
Es	-0.236782	-1.633333	0.679645	99
Es	-0.902901	-1.724245	-1.060063	99
Es	1.623190	-0.273533	-0.589822	99
45
Properties=species:S:1:pos:R:3:Z:I:1 energy=-341.12057476085266 field_type=dipole dipole="0.000000 0.000000 0.000000" charge=0
N	-0.903154	-1.723887	-1.060408	7
C	-0.616134	-1.134407	0.254472	6
C	0.200546	0.139532	0.119992	6
N	1.424586	-0.007707	-0.710358	7
C	-0.521464	1.449012	-0.265558	6
O	0.191376	2.177123	0.777432	8
C	0.554476	0.913803	1.406582	6
H	-1.450544	-2.574127	-0.925258	1
H	-0.014244	-2.037218	-1.455138	1
H	-0.073764	-1.871167	0.858232	1
H	-1.563314	-0.932717	0.766502	1
H	1.982986	0.849163	-0.735048	1
H	1.192026	-0.194268	-1.686968	1
H	-1.600954	1.473032	-0.081538	1
H	-0.317344	1.856043	-1.260598	1
H	1.601556	0.900393	1.724652	1
H	-0.086634	0.717402	2.273012	1
Es	1.261561	-0.102609	-1.300554	99
Es	0.191342	2.176830	0.777362	99
Es	0.554400	0.913984	1.406470	99
Es	1.271121	0.899486	1.621621	99
Es	0.453342	2.298055	0.652955	99
Es	-0.521356	1.449129	-0.265382	99
Es	1.623733	-0.273752	-0.588993	99
Es	0.107168	0.767242	1.997016	99
Es	0.330402	1.712481	1.052581	99
Es	0.001578	2.322746	0.943249	99
Es	-1.261228	-0.986796	0.604086	99
Es	-0.365824	-1.919537	-1.283869	99
Es	-1.264631	1.455777	-0.134271	99
Es	0.405735	0.444062	0.806808	99
Es	-0.218116	0.752844	-0.141003	99
Es	-1.219262	-2.241877	-0.963426	99
Es	1.732575	0.517939	-0.720201	99
Es	0.200665	0.139537	0.119927	99
Es	-0.767807	-1.488704	-0.483209	99
Es	-0.236661	-1.633359	0.679616	99
Es	-0.902897	-1.724255	-1.060053	99
Es	-0.616146	-1.134434	0.254330	99
Es	-0.095694	1.929921	0.372690	99
Es	-1.071878	-1.486674	-1.279568	99
Es	0.887061	0.070488	-0.365664	99
Es	1.424248	-0.007282	-0.710577	99
Es	-0.202977	-0.500976	0.177309	99
Es	-0.379220	1.723440	-0.953571	99
45
Properties=species:S:1:pos:R:3:Z:I:1 energy=-341.12057476085266 field_type=dipole dipole="0.000000 0.000000 0.000000" charge=0
N	-0.903154	-1.723887	-1.060408	7
C	-0.616134	-1.134407	0.254472	6
C	0.200546	0.139532	0.119992	6
N	1.424586	-0.007707	-0.710358	7
C	-0.521464	1.449012	-0.265558	6
O	0.191376	2.177123	0.777432	8
C	0.554476	0.913803	1.406582	6
H	-1.450544	-2.574127	-0.925258	1
H	-0.014244	-2.037218	-1.455138	1
H	-0.073764	-1.871167	0.858232	1
H	-1.563314	-0.932717	0.766502	1
H	1.982986	0.849163	-0.735048	1
H	1.192026	-0.194268	-1.686968	1
H	-1.600954	1.473032	-0.081538	1
H	-0.317344	1.856043	-1.260598	1
H	1.601556	0.900393	1.724652	1
H	-0.086634	0.717402	2.273012	1
Es	-0.095474	1.930129	0.372345	99
Es	0.453605	2.297386	0.653176	99
Es	0.107139	0.767219	1.997033	99
Es	-0.767640	-1.488764	-0.483115	99
Es	-1.219414	-2.241930	-0.963555	99
Es	-0.616145	-1.134434	0.254328	99
Es	0.405702	0.444134	0.806864	99
Es	0.200663	0.139539	0.119929	99
Es	-0.521355	1.449129	-0.265382	99
Es	0.329739	1.712388	1.052831	99
Es	-0.202830	-0.500887	0.177359	99
Es	-0.902886	-1.724224	-1.060049	99
Es	1.261632	-0.102266	-1.300749	99
Es	0.191312	2.176858	0.777401	99
Es	0.554398	0.913987	1.406470	99
Es	-0.236717	-1.633407	0.679649	99
Es	0.886991	0.070200	-0.365238	99
Es	-1.261278	-0.986785	0.604013	99
Es	1.733009	0.517542	-0.719821	99
Es	-0.379213	1.723438	-0.953581	99
Es	0.001798	2.323224	0.943030	99
Es	-0.366138	-1.919751	-1.283253	99
Es	-0.218213	0.752809	-0.141059	99
Es	1.271183	0.899463	1.621567	99
Es	1.623304	-0.273478	-0.589591	99
Es	1.424241	-0.007275	-0.710586	99
Es	-1.071535	-1.486360	-1.280104	99
Es	-1.264645	1.455822	-0.134233	99
45
Properties=species:S:1:pos:R:3:Z:I:1 energy=-341.12057476085266 field_type=dipole dipole="0.000000 0.000000 0.000000" charge=0
N	-0.903154	-1.723887	-1.060408	7
C	-0.616134	-1.134407	0.254472	6
C	0.200546	0.139532	0.119992	6
N	1.424586	-0.007707	-0.710358	7
C	-0.521464	1.449012	-0.265558	6
O	0.191376	2.177123	0.777432	8
C	0.554476	0.913803	1.406582	6
H	-1.450544	-2.574127	-0.925258	1
H	-0.014244	-2.037218	-1.455138	1
H	-0.073764	-1.871167	0.858232	1
H	-1.563314	-0.932717	0.766502	1
H	1.982986	0.849163	-0.735048	1
H	1.192026	-0.194268	-1.686968	1
H	-1.600954	1.473032	-0.081538	1
H	-0.317344	1.856043	-1.260598	1
H	1.601556	0.900393	1.724652	1
H	-0.086634	0.717402	2.273012	1
Es	-1.264619	1.455736	-0.134247	99
Es	-1.071412	-1.486099	-1.280138	99
Es	0.554399	0.913985	1.406471	99
Es	-0.202975	-0.500857	0.177342	99
Es	0.003770	2.324554	0.943192	99
Es	-0.379209	1.723473	-0.953601	99
Es	1.732895	0.517659	-0.719828	99
Es	-0.236634	-1.633389	0.679610	99
Es	0.405739	0.444113	0.806878	99
Es	0.200665	0.139536	0.119927	99
Es	0.329417	1.712297	1.052990	99
Es	0.107144	0.767210	1.997098	99
Es	-1.261197	-0.986861	0.604074	99
Es	1.261309	-0.101922	-1.300636	99
Es	-0.767770	-1.489091	-0.482894	99
Es	0.453965	2.295640	0.651821	99
Es	0.191310	2.176783	0.777360	99
Es	-0.366069	-1.920102	-1.283165	99
Es	-0.616146	-1.134434	0.254327	99
Es	1.623538	-0.273439	-0.590109	99
Es	1.424225	-0.007258	-0.710609	99
Es	1.271084	0.899486	1.621546	99
Es	-0.521357	1.449128	-0.265385	99
Es	-1.219538	-2.241509	-0.963873	99
Es	-0.902895	-1.724206	-1.060060	99
Es	-0.097507	1.930731	0.373444	99
Es	-0.218131	0.752802	-0.140980	99
Es	0.887233	0.069742	-0.364879	99
45
Properties=species:S:1:pos:R:3:Z:I:1 energy=-341.12057476085266 field_type=dipole dipole="0.000000 0.000000 0.000000" charge=0
N	-0.903154	-1.723887	-1.060408	7
C	-0.616134	-1.134407	0.254472	6
C	0.200546	0.139532	0.119992	6
N	1.424586	-0.007707	-0.710358	7
C	-0.521464	1.449012	-0.265558	6
O	0.191376	2.177123	0.777432	8
C	0.554476	0.913803	1.406582	6
H	-1.450544	-2.574127	-0.925258	1
H	-0.014244	-2.037218	-1.455138	1
H	-0.073764	-1.871167	0.858232	1
H	-1.563314	-0.932717	0.766502	1
H	1.982986	0.849163	-0.735048	1
H	1.192026	-0.194268	-1.686968	1
H	-1.600954	1.473032	-0.081538	1
H	-0.317344	1.856043	-1.260598	1
H	1.601556	0.900393	1.724652	1
H	-0.086634	0.717402	2.273012	1
Es	0.405664	0.444217	0.806854	99
Es	1.623708	-0.272921	-0.589530	99
Es	1.424230	-0.007278	-0.710568	99
Es	-0.902884	-1.724230	-1.060047	99
Es	1.732436	0.517616	-0.719897	99
Es	-0.203024	-0.500994	0.177301	99
Es	1.261808	-0.102531	-1.300963	99
Es	-1.071835	-1.485855	-1.280127	99
Es	0.002923	2.324380	0.942889	99
Es	0.886991	0.069883	-0.365032	99
Es	-0.767416	-1.489276	-0.483127	99
Es	-0.521356	1.449129	-0.265383	99
Es	-0.366305	-1.919662	-1.283252	99
Es	-0.616146	-1.134434	0.254327	99
Es	0.554396	0.913988	1.406470	99
Es	0.453631	2.296134	0.651842	99
Es	-0.379210	1.723399	-0.953756	99
Es	1.271244	0.899424	1.621547	99
Es	-0.236627	-1.633377	0.679665	99
Es	-0.096692	1.929892	0.373332	99
Es	0.329801	1.712664	1.053405	99
Es	-1.219206	-2.242002	-0.963567	99
Es	0.107091	0.767216	1.997030	99
Es	-0.218140	0.753042	-0.140950	99
Es	0.200664	0.139538	0.119929	99
Es	0.191346	2.176869	0.777356	99
Es	-1.264609	1.455632	-0.134122	99
Es	-1.261248	-0.986759	0.604051	99
45
Properties=species:S:1:pos:R:3:Z:I:1 energy=-341.12057476085266 field_type=dipole dipole="0.000000 0.000000 0.000000" charge=0
N	-0.903154	-1.723887	-1.060408	7
C	-0.616134	-1.134407	0.254472	6
C	0.200546	0.139532	0.119992	6
N	1.424586	-0.007707	-0.710358	7
C	-0.521464	1.449012	-0.265558	6
O	0.191376	2.177123	0.777432	8