39
Properties=species:S:1:pos:R:3:Z:I:1 energy=-338.6952719651994 field_type=dipole dipole="0.000000 0.000000 0.000000" charge=0
N	-3.124729	-0.503660	-1.051453	7
C	-1.872019	-0.235950	-0.927013	6
N	-1.238389	-0.115091	0.271177	7
O	0.098861	-0.525070	0.215867	8
C	0.890851	0.563869	0.706497	6
C	2.310050	0.195600	0.643357	6
C	3.472921	-0.103940	0.590117	6
H	-3.364499	-0.535331	-2.049233	1
H	-1.219799	-0.069590	-1.802313	1
H	-1.772469	-0.536561	1.029257	1
H	0.606111	0.783979	1.742047	1
H	0.710321	1.453290	0.091497	1
H	4.502791	-0.371540	0.540197	1
Es	4.143024	-0.276656	0.558208	99
Es	2.309776	0.195677	0.643371	99
Es	-1.238412	-0.115764	0.270902	99
Es	0.160869	-0.551871	-0.088311	99
Es	2.844270	-0.220074	0.852218	99
Es	0.387072	-0.097236	0.406845	99
Es	-1.285395	0.221176	0.252018	99
Es	-3.124336	-0.503550	-1.051768	99
Es	0.098764	-0.524749	0.215974	99
Es	3.473142	-0.103986	0.590115	99
Es	-0.503922	-0.329857	0.246415	99
Es	-3.256350	-0.511888	-1.652923	99
Es	-1.499206	-0.243136	-0.240007	99
Es	0.890880	0.563629	0.706405	99
Es	1.625970	0.362491	0.670994	99
Es	2.866938	-0.012555	0.264248	99
Es	-3.361134	-0.566555	-0.779699	99
Es	-1.421676	-0.122009	-1.511161	99
Es	-2.667732	-0.115136	-1.001477	99
Es	-2.564582	-0.672697	-1.031043	99
Es	2.961942	0.380779	0.737402	99
Es	-1.540522	-0.385765	0.712825	99
Es	0.125945	-0.757853	0.419531	99
Es	0.711396	0.709349	1.404435	99
Es	-1.871909	-0.235903	-0.926885	99
Es	0.782994	1.159872	0.291548	99
39
Properties=species:S:1:pos:R:3:Z:I:1 energy=-338.6952719651994 field_type=dipole dipole="0.000000 0.000000 0.000000" charge=0
N	-3.124729	-0.503660	-1.051453	7
C	-1.872019	-0.235950	-0.927013	6
N	-1.238389	-0.115091	0.271177	7
O	0.098861	-0.525070	0.215867	8
C	0.890851	0.563869	0.706497	6
C	2.310050	0.195600	0.643357	6
C	3.472921	-0.103940	0.590117	6
H	-3.364499	-0.535331	-2.049233	1
H	-1.219799	-0.069590	-1.802313	1
H	-1.772469	-0.536561	1.029257	1
H	0.606111	0.783979	1.742047	1
H	0.710321	1.453290	0.091497	1
H	4.502791	-0.371540	0.540197	1
Es	-3.124332	-0.503550	-1.051779	99
Es	-1.284313	0.204045	0.254123	99
Es	-1.540535	-0.382625	0.713570	99
Es	-3.258653	-0.508696	-1.650594	99
Es	-1.238380	-0.115756	0.270928	99
Es	-1.502725	-0.234282	-0.246413	99
Es	0.781172	1.157460	0.294901	99
Es	0.890881	0.563632	0.706407	99
Es	3.473159	-0.103997	0.590110	99
Es	-0.505355	-0.326634	0.246349	99
Es	-2.669364	-0.120684	-1.008016	99
Es	0.123636	-0.748560	0.409834	99
Es	0.709796	0.710206	1.400171	99
Es	-3.362521	-0.554995	-0.777045	99
Es	-2.561036	-0.677637	-1.028413	99
Es	0.392771	-0.098067	0.410152	99
Es	2.832138	-0.240038	0.801437	99
Es	2.957582	0.355441	0.788704	99
Es	1.628184	0.360144	0.669376	99
Es	-1.421454	-0.125568	-1.510536	99
Es	4.145919	-0.274017	0.561056	99
Es	0.098725	-0.524675	0.215953	99
Es	0.161520	-0.558117	-0.079766	99
Es	2.883130	0.032944	0.263181	99
Es	-1.871900	-0.235912	-0.926882	99
Es	2.309763	0.195670	0.643371	99
39
Properties=species:S:1:pos:R:3:Z:I:1 energy=-338.6952719651994 field_type=dipole dipole="0.000000 0.000000 0.000000" charge=0
N	-3.124729	-0.503660	-1.051453	7
C	-1.872019	-0.235950	-0.927013	6
N	-1.238389	-0.115091	0.271177	7
O	0.098861	-0.525070	0.215867	8
C	0.890851	0.563869	0.706497	6
C	2.310050	0.195600	0.643357	6
C	3.472921	-0.103940	0.590117	6
H	-3.364499	-0.535331	-2.049233	1
H	-1.219799	-0.069590	-1.802313	1
H	-1.772469	-0.536561	1.029257	1
H	0.606111	0.783979	1.742047	1
H	0.710321	1.453290	0.091497	1
H	4.502791	-0.371540	0.540197	1
Es	4.146892	-0.272594	0.561488	99
Es	0.890881	0.563629	0.706407	99
Es	-1.540090	-0.379785	0.714410	99
Es	-0.506137	-0.325947	0.246609	99
Es	0.780561	1.155155	0.297436	99
Es	2.905784	-0.018168	0.955635	99
Es	0.098727	-0.524634	0.215872	99
Es	-1.283016	0.193282	0.254390	99
Es	2.309756	0.195668	0.643367	99
Es	-3.257647	-0.506624	-1.648245	99
Es	0.161199	-0.565120	-0.074131	99
Es	-2.670766	-0.125155	-1.012095	99
Es	0.120200	-0.736915	0.402063	99
Es	-1.505255	-0.229059	-0.249525	99
Es	0.397715	-0.100269	0.412956	99
Es	-1.421327	-0.127591	-1.510230	99
Es	3.473162	-0.103992	0.590112	99
Es	-1.871901	-0.235919	-0.926882	99
Es	1.629653	0.360741	0.669607	99
Es	-3.124341	-0.503545	-1.051790	99
Es	2.803473	-0.201477	0.383845	99
Es	0.709250	0.710749	1.397139	99
Es	-3.365152	-0.548315	-0.775220	99
Es	-2.558762	-0.679444	-1.027460	99
Es	2.963357	0.366926	0.513543	99
Es	-1.238408	-0.115867	0.270880	99
39
Properties=species:S:1:pos:R:3:Z:I:1 energy=-338.6952719651994 field_type=dipole dipole="0.000000 0.000000 0.000000" charge=0
N	-3.124729	-0.503660	-1.051453	7
C	-1.872019	-0.235950	-0.927013	6
N	-1.238389	-0.115091	0.271177	7
O	0.098861	-0.525070	0.215867	8
C	0.890851	0.563869	0.706497	6
C	2.310050	0.195600	0.643357	6
C	3.472921	-0.103940	0.590117	6
H	-3.364499	-0.535331	-2.049233	1
H	-1.219799	-0.069590	-1.802313	1
H	-1.772469	-0.536561	1.029257	1
H	0.606111	0.783979	1.742047	1
H	0.710321	1.453290	0.091497	1
H	4.502791	-0.371540	0.540197	1
Es	3.473169	-0.103984	0.590120	99
Es	0.709424	0.710624	1.394219	99
Es	0.403150	-0.103461	0.412994	99
Es	0.098686	-0.524722	0.216204	99
Es	0.157240	-0.564511	-0.064836	99
Es	4.147269	-0.271847	0.562461	99
Es	-1.281773	0.184385	0.254819	99
Es	2.792938	-0.241668	0.442852	99
Es	-3.255728	-0.504905	-1.645955	99
Es	1.630428	0.360917	0.669591	99
Es	-1.238335	-0.115756	0.270960	99
Es	2.959011	0.326638	0.448571	99
Es	2.920612	0.062141	0.961570	99
Es	0.780332	1.153782	0.299464	99
Es	-2.553466	-0.677568	-1.025801	99
Es	-3.367845	-0.544548	-0.774961	99
Es	-0.506486	-0.325502	0.246045	99
Es	-1.871900	-0.235921	-0.926881	99
Es	0.890880	0.563633	0.706403	99
Es	-2.675720	-0.130682	-1.015631	99
Es	0.118726	-0.732482	0.393514	99
Es	2.309754	0.195666	0.643360	99
Es	-1.539448	-0.377514	0.714776	99
Es	-3.124291	-0.503544	-1.051748	99
Es	-1.421335	-0.129095	-1.509922	99
Es	-1.507485	-0.224343	-0.252007	99
39
Properties=species:S:1:pos:R:3:Z:I:1 energy=-338.6952719651994 field_type=dipole dipole="0.000000 0.000000 0.000000" charge=0
N	-3.124729	-0.503660	-1.051453	7
C	-1.872019	-0.235950	-0.927013	6
N	-1.238389	-0.115091	0.271177	7
O	0.098861	-0.525070	0.215867	8
C	0.890851	0.563869	0.706497	6
C	2.310050	0.195600	0.643357	6
C	3.472921	-0.103940	0.590117	6
H	-3.364499	-0.535331	-2.049233	1
H	-1.219799	-0.069590	-1.802313	1
H	-1.772469	-0.536561	1.029257	1
H	0.606111	0.783979	1.742047	1
H	0.710321	1.453290	0.091497	1
H	4.502791	-0.371540	0.540197	1
Es	-3.375024	-0.542661	-0.776256	99
Es	-1.871900	-0.235925	-0.926885	99
Es	0.407719	-0.109502	0.414659	99
Es	-2.548584	-0.673038	-1.024083	99
Es	0.116840	-0.726107	0.385120	99
Es	0.779827	1.153274	0.301138	99
Es	2.791534	-0.248980	0.454139	99
Es	-1.421495	-0.130094	-1.509670	99
Es	-2.680471	-0.137249	-1.018470	99
Es	2.956979	0.312518	0.439614	99
Es	-1.537771	-0.377002	0.712790	99
Es	2.924042	0.083546	0.959045	99
Es	-3.248884	-0.503550	-1.642900	99
Es	0.098669	-0.524713	0.216154	99
Es	-1.280713	0.177698	0.257772	99
Es	-1.510223	-0.219412	-0.254058	99
Es	1.630849	0.360973	0.669998	99
Es	0.890882	0.563634	0.706408	99
Es	-0.506550	-0.324991	0.245481	99
Es	-1.238351	-0.115804	0.270938	99
Es	2.309755	0.195672	0.643363	99
Es	-3.124282	-0.503534	-1.051800	99
Es	3.473169	-0.103984	0.590112	99
Es	4.147449	-0.271281	0.563231	99
Es	0.710285	0.709878	1.391269	99
Es	0.154055	-0.563634	-0.056930	99
