38
Properties=species:S:1:pos:R:3:Z:I:1 energy=-358.65311994794786 field_type=dipole dipole="0.000000 0.000000 0.000000" charge=0
O	-2.219187	-0.433975	0.007783	8
C	-0.899757	-0.312525	0.002903	6
C	-0.083307	0.788645	0.001783	6
O	-0.559127	2.042285	0.005943	8
C	1.257602	0.358285	-0.004217	6
C	1.224522	-1.022025	-0.006627	6
N	-0.092157	-1.417305	-0.002257	7
H	-2.550367	0.485785	0.010743	1
H	0.183153	2.670795	0.004233	1
H	2.151773	0.965925	-0.006557	1
H	2.018703	-1.757105	-0.011037	1
H	-0.431847	-2.368785	-0.002697	1
Es	-0.292283	-1.978571	0.013974	99
Es	-0.410166	0.244885	-0.326507	99
Es	1.755985	-1.522413	-0.009187	99
Es	1.853785	0.784121	-0.005642	99
Es	-0.702074	2.064828	0.266527	99
Es	1.243924	-0.299372	0.305631	99
Es	-2.275392	-0.558407	-0.251404	99
Es	1.235891	-0.293976	-0.321574	99
Es	-0.558793	2.042158	0.005947	99
Es	-2.271437	-0.557270	0.267933	99
Es	-2.379742	0.052313	0.009051	99
Es	-1.704380	-0.370533	0.005274	99
Es	-0.418284	0.244794	0.324678	99
Es	-2.218947	-0.433674	0.007738	99
Es	-0.704130	2.066430	-0.253111	99
Es	-0.083408	0.788903	0.001788	99
Es	1.224352	-1.022166	-0.006623	99
Es	1.257618	0.358325	-0.004212	99
Es	0.005325	-1.281222	-0.190315	99
Es	-0.150940	2.358714	0.005167	99
Es	0.606055	0.640293	0.002721	99
Es	-0.346613	1.571297	0.003722	99
Es	0.449874	-1.288109	0.111479	99
Es	-0.899961	-0.312779	0.002905	99
Es	-0.470998	-0.973948	0.061916	99
Es	-0.092068	-1.417115	-0.001639	99
38
Properties=species:S:1:pos:R:3:Z:I:1 energy=-358.65311994794786 field_type=dipole dipole="0.000000 0.000000 0.000000" charge=0
O	-2.219187	-0.433975	0.007783	8
C	-0.899757	-0.312525	0.002903	6
C	-0.083307	0.788645	0.001783	6
O	-0.559127	2.042285	0.005943	8
C	1.257602	0.358285	-0.004217	6
C	1.224522	-1.022025	-0.006627	6
N	-0.092157	-1.417305	-0.002257	7
H	-2.550367	0.485785	0.010743	1
H	0.183153	2.670795	0.004233	1
H	2.151773	0.965925	-0.006557	1
H	2.018703	-1.757105	-0.011037	1
H	-0.431847	-2.368785	-0.002697	1
Es	0.605972	0.637839	-0.003394	99
Es	-0.083405	0.788917	0.001790	99
Es	1.224351	-1.022171	-0.006619	99
Es	-0.476485	-0.964228	-0.001548	99
Es	-0.899966	-0.312785	0.002906	99
Es	-0.151105	2.368406	0.004091	99
Es	-0.558801	2.042163	0.005980	99
Es	-0.691361	2.060937	-0.240942	99
Es	-0.411173	0.247823	-0.318472	99
Es	-1.699027	-0.380141	-0.017542	99
Es	-2.388621	0.054509	-0.003942	99
Es	-0.351777	1.563390	0.007460	99
Es	-0.292726	-1.982332	0.000132	99
Es	-2.183954	-0.438146	0.192879	99
Es	1.257618	0.358329	-0.004223	99
Es	-0.092166	-1.417285	-0.002222	99
Es	0.479558	-1.283283	-0.007992	99
Es	1.240027	-0.297803	0.303639	99
Es	-0.413268	0.246395	0.323530	99
Es	-0.709901	2.068955	0.251391	99
Es	1.757485	-1.522694	-0.008938	99
Es	1.856058	0.784321	-0.006897	99
Es	-2.218746	-0.433584	0.007599	99
Es	1.238218	-0.296288	-0.313278	99
Es	-2.359772	-0.670064	-0.140362	99
Es	-0.023841	-1.293672	0.001207	99
38
Properties=species:S:1:pos:R:3:Z:I:1 energy=-358.65311994794786 field_type=dipole dipole="0.000000 0.000000 0.000000" charge=0
O	-2.219187	-0.433975	0.007783	8
C	-0.899757	-0.312525	0.002903	6
C	-0.083307	0.788645	0.001783	6
O	-0.559127	2.042285	0.005943	8
C	1.257602	0.358285	-0.004217	6
C	1.224522	-1.022025	-0.006627	6
N	-0.092157	-1.417305	-0.002257	7
H	-2.550367	0.485785	0.010743	1
H	0.183153	2.670795	0.004233	1
H	2.151773	0.965925	-0.006557	1
H	2.018703	-1.757105	-0.011037	1
H	-0.431847	-2.368785	-0.002697	1
Es	-0.083406	0.788910	0.001757	99
Es	1.856298	0.784542	-0.006066	99
Es	0.478996	-1.283307	-0.014691	99
Es	-0.292732	-1.982603	-0.002917	99
Es	-2.218920	-0.433632	0.007882	99
Es	-2.390774	0.056195	0.013744	99
Es	-2.161905	-0.401579	-0.003650	99
Es	-0.355424	1.560406	-0.011111	99
Es	-0.801801	2.097103	-0.178675	99
Es	-0.899964	-0.312783	0.002912	99
Es	-0.413801	0.247082	0.322725	99
Es	0.605933	0.637255	-0.000775	99
Es	-1.695311	-0.383794	0.004024	99
Es	-0.092167	-1.417286	-0.002184	99
Es	1.257616	0.358322	-0.004212	99
Es	-0.475899	-0.964013	0.006213	99
Es	1.757591	-1.522667	-0.010703	99
Es	-2.383160	-0.704606	0.016788	99
Es	-0.558587	2.041983	0.005603	99
Es	1.224351	-1.022171	-0.006629	99
Es	-0.152658	2.372538	-0.005195	99
Es	-0.594354	2.031985	0.217595	99
Es	-0.409786	0.248253	-0.318025	99
Es	-0.023533	-1.295313	0.002531	99
Es	1.237137	-0.296884	-0.313195	99
Es	1.239454	-0.296428	0.302490	99
38
Properties=species:S:1:pos:R:3:Z:I:1 energy=-358.65311994794786 field_type=dipole dipole="0.000000 0.000000 0.000000" charge=0
O	-2.219187	-0.433975	0.007783	8
C	-0.899757	-0.312525	0.002903	6
C	-0.083307	0.788645	0.001783	6
O	-0.559127	2.042285	0.005943	8
C	1.257602	0.358285	-0.004217	6
C	1.224522	-1.022025	-0.006627	6
N	-0.092157	-1.417305	-0.002257	7
H	-2.550367	0.485785	0.010743	1
H	0.183153	2.670795	0.004233	1
H	2.151773	0.965925	-0.006557	1
H	2.018703	-1.757105	-0.011037	1
H	-0.431847	-2.368785	-0.002697	1
Es	-0.083405	0.788910	0.001814	99
Es	0.478541	-1.283030	0.008940	99
Es	1.239011	-0.297420	0.302487	99
Es	1.757449	-1.522594	-0.008765	99
Es	-0.153758	2.375646	0.016520	99
Es	-2.383331	-0.705625	0.018306	99
Es	-0.558574	2.042019	0.006568	99
Es	-0.405800	0.247455	0.321832	99
Es	-0.899972	-0.312787	0.002902	99
Es	-0.547234	2.019034	-0.135905	99
Es	-0.475541	-0.964038	-0.006501	99
Es	0.606082	0.636815	-0.000738	99
Es	-0.416195	0.248608	-0.318633	99
Es	1.236250	-0.294975	-0.313493	99
Es	1.257618	0.358330	-0.004216	99
Es	-2.389835	0.056594	0.008055	99
Es	-0.024021	-1.296883	-0.008356	99
Es	-0.292728	-1.983021	-0.003127	99
Es	1.224349	-1.022174	-0.006619	99
Es	-0.844800	2.109823	0.121432	99
Es	-1.696383	-0.383011	0.014801	99
Es	1.856287	0.784945	-0.005302	99
Es	-0.358263	1.557623	0.019657	99
Es	-2.218892	-0.433630	0.007543	99
Es	-0.092156	-1.417267	-0.002482	99
Es	-2.161503	-0.401839	-0.010486	99
38
Properties=species:S:1:pos:R:3:Z:I:1 energy=-358.65311994794786 field_type=dipole dipole="0.000000 0.000000 0.000000" charge=0
O	-2.219187	-0.433975	0.007783	8
C	-0.899757	-0.312525	0.002903	6
C	-0.083307	0.788645	0.001783	6
O	-0.559127	2.042285	0.005943	8
C	1.257602	0.358285	-0.004217	6
C	1.224522	-1.022025	-0.006627	6
N	-0.092157	-1.417305	-0.002257	7
H	-2.550367	0.485785	0.010743	1
H	0.183153	2.670795	0.004233	1
H	2.151773	0.965925	-0.006557	1
H	2.018703	-1.757105	-0.011037	1
H	-0.431847	-2.368785	-0.002697	1
Es	-0.522457	2.012078	-0.022667	99
Es	-0.412741	0.248813	-0.318820	99
Es	1.757127	-1.522584	-0.009374	99
Es	-2.161660	-0.401636	0.009365	99
Es	-0.154405	2.378287	0.006547	99
Es	0.606276	0.636702	-0.001245	99
Es	1.257618	0.358329	-0.004215	99
Es	-2.218930	-0.433618	0.007896	99
Es	-1.696743	-0.382325	0.008984	99
Es	-0.092166	-1.417285	-0.002249	99
Es	-0.024626	-1.297946	-0.006635	99
Es	-0.558680	2.042084	0.005513	99
Es	-0.083405	0.788919	0.001790	99
Es	-0.359748	1.555512	0.009996	99
Es	1.856098	0.785306	-0.005780	99
Es	1.224353	-1.022172	-0.006631	99
Es	-2.389699	0.056747	0.008424	99
Es	0.478674	-1.282790	-0.001062	99
Es	-0.407955	0.247520	0.322782	99
Es	1.235916	-0.295107	-0.314162	99
Es	1.238348	-0.296618	0.303472	99
Es	-0.867126	2.116281	0.028845	99
Es	-0.292789	-1.983310	-0.002154	99
Es	-0.899970	-0.312785	0.002902	99
Es	-0.475325	-0.964101	0.000911	99
Es	-2.382791	-0.706793	0.003801	99
38
Properties=species:S:1:pos:R:3:Z:I:1 energy=-358.65311994794786 field_type=dipole dipole="0.000000 0.000000 0.000000" charge=0
O	-2.219187	-0.433975	0.007783	8
C	-0.899757	-0.312525	0.002903	6
C	-0.083307	0.788645	0.001783	6
O	-0.559127	2.042285	0.005943	8
C	1.257602	0.358285	-0.004217	6
C	1.224522	-1.022025	-0.006627	6
N	-0.092157	-1.417305	-0.002257	7
H	-2.550367	0.485785	0.010743	1
H	0.183153	2.670795	0.004233	1
H	2.151773	0.965925	-0.006557	1
H	2.018703	-1.757105	-0.011037	1
H	-0.431847	-2.368785	-0.002697	1
Es	1.224351	-1.022173	-0.006626	99
Es	-0.360482	1.555148	0.006212	99
Es	-0.154430	2.378563	0.005794	99
Es	-0.899971	-0.312785	0.002905	99
Es	1.235157	-0.294556	-0.313255	99
Es	-2.388993	0.057005	0.010184	99
Es	-1.697035	-0.382411	0.007216	99
Es	-0.092099	-1.417155	-0.002858	99
Es	1.757329	-1.522518	-0.009369	99
Es	-0.409706	0.248884	-0.318215	99
Es	-0.475029	-0.964082	0.001645	99
Es	-0.410391	0.248107	0.321799	99
Es	-0.522478	2.012753	-0.003527	99
Es	-0.083404	0.788925	0.001790	99
Es	-2.383213	-0.706920	0.007563	99
Es	0.606125	0.636089	-0.000858	99
Es	1.238344	-0.296722	0.302265	99
Es	-2.161688	-0.401665	0.006049	99
Es	-2.218894	-0.433607	0.007506	99
Es	-0.292835	-1.983406	-0.002409	99
Es	1.856456	0.785406	-0.005661	99
Es	1.257619	0.358329	-0.004225	99
Es	-0.557702	2.041313	0.007446	99
Es	0.478448	-1.282774	-0.002321	99
Es	-0.867364	2.116563	0.012292	99
Es	-0.024919	-1.298803	-0.005106	99
38
Properties=species:S:1:pos:R:3:Z:I:1 energy=-358.65311994794786 field_type=dipole dipole="0.000000 0.000000 0.000000" charge=0
O	-2.219187	-0.433975	0.007783	8
C	-0.899757	-0.312525	0.002903	6
C	-0.083307	0.788645	0.001783	6
O	-0.559127	2.042285	0.005943	8
C	1.257602	0.358285	-0.004217	6
C	1.224522	-1.022025	-0.006627	6
N	-0.092157	-1.417305	-0.002257	7
H	-2.550367	0.485785	0.010743	1
H	0.183153	2.670795	0.004233	1
H	2.151773	0.965925	-0.006557	1
H	2.018703	-1.757105	-0.011037	1
H	-0.431847	-2.368785	-0.002697	1
Es	-0.405714	0.247951	0.321195	99
Es	-0.092166	-1.417284	-0.002215	99
Es	-0.414087	0.249553	-0.316813	99
Es	0.606130	0.635449	-0.001521	99
Es	1.257620	0.358331	-0.004204	99
Es	-0.292728	-1.983593	-0.002875	99
Es	-0.474811	-0.964158	-0.001492	99
Es	1.856760	0.785459	-0.005578	99
Es	1.224346	-1.022174	-0.006624	99
Es	-2.161636	-0.401670	0.008463	99
Es	0.478177	-1.282509	-0.004879	99
Es	1.234956	-0.294501	-0.312104	99
Es	-0.899971	-0.312785	0.002904	99
Es	1.237830	-0.296318	0.301430	99
Es	-0.025040	-1.299233	0.000014	99
Es	1.757618	-1.522492	-0.009513	99
Es	-0.083405	0.788921	0.001795	99
Es	-2.388305	0.057486	0.008189	99
Es	-2.218941	-0.433630	0.007840	99
Es	-2.383521	-0.706890	0.007404	99
Es	-0.154398	2.378756	0.005601	99
Es	-0.558736	2.042152	0.006028	99
Es	-0.521760	2.012018	-0.010098	99
Es	-0.361083	1.554960	0.006105	99
Es	-0.866483	2.116551	0.020617	99
Es	-1.697458	-0.382845	0.006567	99
38
Properties=species:S:1:pos:R:3:Z:I:1 energy=-358.65311994794786 field_type=dipole dipole="0.000000 0.000000 0.000000" charge=0
O	-2.219187	-0.433975	0.007783	8
C	-0.899757	-0.312525	0.002903	6
C	-0.083307	0.788645	0.001783	6
O	-0.559127	2.042285	0.005943	8
C	1.257602	0.358285	-0.004217	6
C	1.224522	-1.022025	-0.006627	6
N	-0.092157	-1.417305	-0.002257	7
H	-2.550367	0.485785	0.010743	1
H	0.183153	2.670795	0.004233	1
H	2.151773	0.965925	-0.006557	1
H	2.018703	-1.757105	-0.011037	1
H	-0.431847	-2.368785	-0.002697	1
Es	-2.218276	-0.433289	0.008864	99
Es	1.236711	-0.295411	0.300549	99
Es	-0.292759	-1.983650	-0.002218	99
Es	-0.025153	-1.299654	-0.002452	99
Es	-0.409296	0.249399	-0.316292	99
Es	-2.383156	-0.707604	0.007803	99
Es	-2.162264	-0.402039	0.007037	99
Es	-0.083406	0.788925	0.001786	99
Es	-0.154715	2.379293	0.005106	99
Es	1.235428	-0.295141	-0.311070	99
Es	-0.530311	2.019126	0.017132	99
Es	1.224351	-1.022173	-0.006627	99
Es	1.757897	-1.522413	-0.009617	99
Es	-0.410297	0.248600	0.320277	99
Es	-0.549842	2.034955	0.001396	99
Es	1.857101	0.785375	-0.005702	99
Es	1.257619	0.358331	-0.004219	99
Es	-0.474554	-0.964107	0.000671	99
Es	0.477966	-1.282546	-0.004815	99
Es	-0.361310	1.554862	0.004342	99
Es	-0.866335	2.116253	0.000303	99
Es	-0.899969	-0.312785	0.002905	99
Es	-0.092161	-1.417276	-0.002415	99
Es	-1.697999	-0.382085	0.004770	99
Es	-2.388177	0.057515	0.010016	99
Es	0.606101	0.635046	-0.001297	99
38
Properties=species:S:1:pos:R:3:Z:I:1 energy=-358.65311994794786 field_type=dipole dipole="0.000000 0.000000 0.000000" charge=0
O	-2.219187	-0.433975	0.007783	8
C	-0.899757	-0.312525	0.002903	6
C	-0.083307	0.788645	0.001783	6
O	-0.559127	2.042285	0.005943	8
C	1.257602	0.358285	-0.004217	6
C	1.224522	-1.022025	-0.006627	6
N	-0.092157	-1.417305	-0.002257	7
H	-2.550367	0.485785	0.010743	1
H	0.183153	2.670795	0.004233	1
H	2.151773	0.965925	-0.006557	1
H	2.018703	-1.757105	-0.011037	1
H	-0.431847	-2.368785	-0.002697	1
Es	-2.218875	-0.433613	0.007518	99
Es	-0.899977	-0.312785	0.002903	99
Es	-0.361379	1.554810	0.004344	99
Es	-2.387938	0.057613	0.010159	99
Es	-0.092165	-1.417283	-0.002185	99
Es	-0.474310	-0.964140	-0.000420	99
Es	0.606124	0.634469	-0.000727	99
Es	1.857390	0.785458	-0.005713	99
Es	-0.154970	2.379627	0.004457	99
Es	-1.698251	-0.381962	0.005241	99
Es	1.257620	0.358333	-0.004213	99
Es	-0.025105	-1.300115	-0.002056	99
Es	1.758136	-1.522340	-0.009600	99
Es	-0.083406	0.788925	0.001780	99
Es	1.234327	-0.294404	-0.310335	99
Es	-0.554207	2.038502	0.002686	99
Es	-2.161663	-0.401736	0.007758	99
Es	-0.525879	2.015581	0.013436	99
Es	-0.292753	-1.983770	-0.002454	99
Es	-2.383148	-0.707815	0.007822	99
Es	-0.866122	2.116003	0.003287	99
Es	1.237106	-0.295669	0.299536	99
Es	-0.411177	0.248901	0.319434	99
Es	-0.408316	0.249512	-0.315622	99
Es	1.224350	-1.022174	-0.006621	99
Es	0.477780	-1.282420	-0.004179	99
38
Properties=species:S:1:pos:R:3:Z:I:1 energy=-358.65311994794786 field_type=dipole dipole="0.000000 0.000000 0.000000" charge=0
O	-2.219187	-0.433975	0.007783	8
C	-0.899757	-0.312525	0.002903	6
C	-0.083307	0.788645	0.001783	6
O	-0.559127	2.042285	0.005943	8
C	1.257602	0.358285	-0.004217	6
C	1.224522	-1.022025	-0.006627	6
N	-0.092157	-1.417305	-0.002257	7
H	-2.550367	0.485785	0.010743	1
H	0.183153	2.670795	0.004233	1
H	2.151773	0.965925	-0.006557	1
H	2.018703	-1.757105	-0.011037	1
H	-0.431847	-2.368785	-0.002697	1
Es	-0.025421	-1.300462	-0.002608	99
Es	-2.387813	0.057704	0.009779	99
Es	-0.361921	1.554624	0.004319	99
Es	-2.164056	-0.403078	0.005702	99
Es	1.224351	-1.022173	-0.006626	99
Es	-0.474125	-0.964151	0.000421	99
Es	-2.216472	-0.432278	0.009921	99
Es	-0.083406	0.788925	0.001783	99
Es	-0.092134	-1.417233	-0.001866	99
Es	0.605960	0.633934	-0.001545	99
Es	1.234398	-0.294353	-0.309304	99
Es	-0.406032	0.248526	0.318980	99
Es	1.857586	0.785476	-0.005715	99
Es	-0.155036	2.379909	0.004679	99
Es	1.758334	-1.522281	-0.009785	99
Es	-2.382968	-0.708146	0.008545	99
Es	-0.413143	0.250219	-0.314642	99
Es	-0.292820	-1.983786	-0.002533	99
Es	-0.899973	-0.312785	0.002904	99
Es	-1.698603	-0.381649	0.004601	99
Es	-0.521589	2.012128	0.008226	99
Es	-0.865516	2.115991	0.006062	99
Es	0.477665	-1.282415	-0.004770	99
Es	-0.558482	2.041946	0.004994	99
Es	1.236791	-0.295414	0.298930	99
Es	1.257620	0.358332	-0.004217	99
38
Properties=species:S:1:pos:R:3:Z:I:1 energy=-358.65311994794786 field_type=dipole dipole="0.000000 0.000000 0.000000" charge=0
O	-2.219187	-0.433975	0.007783	8
C	-0.899757	-0.312525	0.002903	6
C	-0.083307	0.788645	0.001783	6
O	-0.559127	2.042285	0.005943	8
C	1.257602	0.358285	-0.004217	6
C	1.224522	-1.022025	-0.006627	6
N	-0.092157	-1.417305	-0.002257	7
H	-2.550367	0.485785	0.010743	1
H	0.183153	2.670795	0.004233	1
H	2.151773	0.965925	-0.006557	1
H	2.018703	-1.757105	-0.011037	1
H	-0.431847	-2.368785	-0.002697	1
Es	-2.383425	-0.707973	0.009411	99
Es	-0.521396	2.011983	0.004378	99
Es	-0.404795	0.248651	0.318312	99
Es	0.477476	-1.282220	-0.005882	99
Es	-2.178956	-0.411380	0.001479	99
Es	-0.092143	-1.417255	-0.001940	99
Es	1.234186	-0.294091	-0.308629	99
Es	-2.201580	-0.423995	0.012455	99
Es	-1.698489	-0.381693	0.004505	99
Es	-0.083408	0.788926	0.001775	99
Es	1.857865	0.785462	-0.005667	99
Es	-0.025614	-1.300707	-0.000264	99
Es	-0.899973	-0.312785	0.002903	99
Es	-0.558673	2.042100	0.006422	99
Es	1.257620	0.358332	-0.004219	99
Es	-0.362232	1.554413	0.004522	99
Es	1.224350	-1.022174	-0.006621	99
Es	-0.155291	2.380266	0.004881	99
Es	-2.387493	0.057606	0.010664	99
Es	0.605899	0.633486	-0.001326	99
Es	1.758508	-1.522229	-0.009645	99
Es	-0.292847	-1.983905	-0.002662	99
Es	-0.414118	0.250429	-0.313920	99
Es	-0.473895	-0.964212	-0.000716	99
Es	1.236594	-0.295387	0.297995	99
Es	-0.864975	2.115860	0.008021	99
38
Properties=species:S:1:pos:R:3:Z:I:1 energy=-358.65311994794786 field_type=dipole dipole="0.000000 0.000000 0.000000" charge=0
O	-2.219187	-0.433975	0.007783	8
C	-0.899757	-0.312525	0.002903	6
C	-0.083307	0.788645	0.001783	6
O	-0.559127	2.042285	0.005943	8
C	1.257602	0.358285	-0.004217	6
C	1.224522	-1.022025	-0.006627	6
N	-0.092157	-1.417305	-0.002257	7
H	-2.550367	0.485785	0.010743	1
H	0.183153	2.670795	0.004233	1
H	2.151773	0.965925	-0.006557	1
H	2.018703	-1.757105	-0.011037	1
H	-0.431847	-2.368785	-0.002697	1
Es	1.857963	0.785453	-0.005619	99
Es	-0.864770	2.115622	0.001905	99
Es	-0.539934	2.026960	0.001161	99
Es	-0.155485	2.380533	0.006362	99
Es	-0.292846	-1.983871	-0.002638	99
Es	-0.092150	-1.417259	-0.001983	99
Es	-2.161929	-0.401961	0.011399	99
Es	1.257620	0.358332	-0.004217	99
Es	-0.025654	-1.300892	-0.002527	99
Es	0.477480	-1.282270	-0.001366	99
Es	-0.426402	0.251134	0.314684	99
Es	1.232343	-0.292708	-0.308331	99
Es	-0.083405	0.788930	0.001786	99
Es	-0.362294	1.554407	0.005197	99
Es	1.224350	-1.022173	-0.006625	99
Es	-0.540153	2.027135	0.013555	99
Es	-2.382991	-0.708330	0.003779	99
Es	0.605889	0.633291	0.000295	99
Es	-2.218595	-0.433437	0.006984	99
Es	-2.387298	0.058090	0.008815	99
Es	-0.473883	-0.964249	-0.002774	99
Es	1.758599	-1.522184	-0.009155	99
Es	-0.899973	-0.312785	0.002904	99
Es	1.238044	-0.296936	0.297292	99
Es	-0.392213	0.248429	-0.312049	99
Es	-1.699118	-0.381754	0.007399	99
38
Properties=species:S:1:pos:R:3:Z:I:1 energy=-358.65311994794786 field_type=dipole dipole="0.000000 0.000000 0.000000" charge=0
O	-2.219187	-0.433975	0.007783	8
C	-0.899757	-0.312525	0.002903	6
C	-0.083307	0.788645	0.001783	6
O	-0.559127	2.042285	0.005943	8
C	1.257602	0.358285	-0.004217	6
C	1.224522	-1.022025	-0.006627	6
N	-0.092157	-1.417305	-0.002257	7
H	-2.550367	0.485785	0.010743	1
H	0.183153	2.670795	0.004233	1
H	2.151773	0.965925	-0.006557	1
H	2.018703	-1.757105	-0.011037	1
H	-0.431847	-2.368785	-0.002697	1
Es	-0.292781	-1.983934	-0.001459	99
Es	1.257621	0.358332	-0.004224	99
Es	-0.155457	2.380619	0.003222	99
Es	-0.083406	0.788926	0.001784	99
Es	-0.899973	-0.312785	0.002907	99
Es	-0.379403	0.246216	0.312332	99
Es	1.236219	-0.296132	-0.307443	99
Es	-2.382847	-0.708611	0.006867	99
Es	1.224350	-1.022173	-0.006622	99
Es	-2.218897	-0.433619	0.007507	99
Es	1.758619	-1.522216	-0.010156	99
Es	-2.387183	0.058136	0.011442	99
Es	-0.864162	2.115745	0.014914	99
Es	-0.025730	-1.301119	0.000929	99
Es	-0.522676	2.012982	-0.001314	99
Es	-2.161538	-0.401781	0.011572	99
Es	0.605912	0.632966	-0.003875	99
Es	1.233995	-0.293275	0.297764	99
Es	-1.699455	-0.381518	0.001352	99
Es	-0.438998	0.253549	-0.305874	99
Es	-0.092166	-1.417284	-0.002259	99
Es	-0.362779	1.554192	0.004194	99
Es	1.857932	0.785563	-0.006178	99
Es	-0.473797	-0.964281	0.003132	99
Es	0.477289	-1.282130	-0.011561	99
Es	-0.557494	2.041140	0.007283	99
38
Properties=species:S:1:pos:R:3:Z:I:1 energy=-358.65311994794786 field_type=dipole dipole="0.000000 0.000000 0.000000" charge=0
O	-2.219187	-0.433975	0.007783	8
C	-0.899757	-0.312525	0.002903	6
C	-0.083307	0.788645	0.001783	6
O	-0.559127	2.042285	0.005943	8
C	1.257602	0.358285	-0.004217	6
C	1.224522	-1.022025	-0.006627	6
N	-0.092157	-1.417305	-0.002257	7
H	-2.550367	0.485785	0.010743	1
H	0.183153	2.670795	0.004233	1
H	2.151773	0.965925	-0.006557	1
H	2.018703	-1.757105	-0.011037	1
H	-0.431847	-2.368785	-0.002697	1
Es	-0.899973	-0.312785	0.002907	99
Es	-0.864232	2.115720	0.015073	99
Es	-0.523845	2.013969	0.005413	99
Es	-0.083408	0.788924	0.001789	99
Es	1.857903	0.785651	-0.006136	99
Es	-0.092166	-1.417284	-0.002226	99
Es	-0.448266	0.254655	-0.300550	99
Es	-2.382945	-0.708594	0.012677	99
Es	-1.699271	-0.381430	0.001568	99
Es	-2.387142	0.057979	0.011356	99
Es	1.257620	0.358332	-0.004218	99
Es	0.477122	-1.282265	-0.012112	99
Es	-0.292728	-1.984031	-0.001706	99
Es	-0.155554	2.380636	0.002641	99
Es	1.224350	-1.022173	-0.006641	99
Es	-0.556273	2.040148	0.002489	99
Es	-2.218644	-0.433477	0.008549	99
Es	1.758521	-1.522179	-0.010343	99
Es	-0.369669	0.245375	0.307776	99
Es	-0.362597	1.554230	0.002724	99
Es	0.605993	0.632938	-0.004754	99
Es	1.238419	-0.298362	-0.306742	99
Es	1.231498	-0.291150	0.297177	99
Es	-2.161871	-0.401909	0.004714	99
Es	-0.025992	-1.301276	0.000343	99
Es	-0.473656	-0.964134	0.004471	99
38
Properties=species:S:1:pos:R:3:Z:I:1 energy=-358.65311994794786 field_type=dipole dipole="0.000000 0.000000 0.000000" charge=0
O	-2.219187	-0.433975	0.007783	8
C	-0.899757	-0.312525	0.002903	6
C	-0.083307	0.788645	0.001783	6
O	-0.559127	2.042285	0.005943	8
C	1.257602	0.358285	-0.004217	6
C	1.224522	-1.022025	-0.006627	6
N	-0.092157	-1.417305	-0.002257	7
H	-2.550367	0.485785	0.010743	1
H	0.183153	2.670795	0.004233	1
H	2.151773	0.965925	-0.006557	1
H	2.018703	-1.757105	-0.011037	1
H	-0.431847	-2.368785	-0.002697	1
Es	1.224350	-1.022174	-0.006628	99
Es	-0.155600	2.380780	0.007595	99
Es	0.477300	-1.282165	0.004648	99
Es	1.758453	-1.522268	-0.008662	99
Es	-0.863860	2.115717	-0.004233	99
Es	-0.026228	-1.301320	-0.004381	99
Es	-0.362888	1.554102	0.006225	99
Es	0.606040	0.632731	0.003021	99
Es	-0.899973	-0.312785	0.002899	99
Es	1.857804	0.785793	-0.005272	99
Es	-2.162213	-0.402107	0.008331	99
Es	-0.453746	0.254545	0.299155	99
Es	-2.218249	-0.433278	0.008882	99
Es	1.257621	0.358332	-0.004216	99
Es	-0.083408	0.788925	0.001810	99
Es	-0.550586	2.035573	0.002334	99
Es	-1.699456	-0.381424	0.011827	99
Es	-2.387001	0.058076	0.006379	99
Es	-0.473516	-0.964263	-0.005614	99
Es	-0.092164	-1.417283	-0.002243	99
Es	-0.363835	0.245981	-0.298891	99
Es	1.230299	-0.291231	-0.308486	99
Es	-0.293016	-1.983944	-0.003744	99
Es	-2.382932	-0.708705	0.002710	99
Es	1.239578	-0.298649	0.296625	99
Es	-0.529577	2.018550	0.016164	99
38
Properties=species:S:1:pos:R:3:Z:I:1 energy=-358.65311994794786 field_type=dipole dipole="0.000000 0.000000 0.000000" charge=0
O	-2.219187	-0.433975	0.007783	8
C	-0.899757	-0.312525	0.002903	6
C	-0.083307	0.788645	0.001783	6
O	-0.559127	2.042285	0.005943	8
C	1.257602	0.358285	-0.004217	6
C	1.224522	-1.022025	-0.006627	6
N	-0.092157	-1.417305	-0.002257	7
H	-2.550367	0.485785	0.010743	1
H	0.183153	2.670795	0.004233	1
H	2.151773	0.965925	-0.006557	1
H	2.018703	-1.757105	-0.011037	1
H	-0.431847	-2.368785	-0.002697	1
Es	-0.083407	0.788926	0.001775	99
Es	-2.386848	0.058097	0.012259	99
Es	-0.354843	0.244065	0.297637	99
Es	-2.188980	-0.417031	0.003138	99
Es	-0.546790	2.032437	-0.002557	99
Es	1.257621	0.358332	-0.004216	99
Es	-2.191464	-0.418353	0.012297	99
Es	-1.699597	-0.381394	-0.000129	99
Es	-0.473463	-0.964226	0.005817	99
Es	1.236869	-0.297312	-0.307431	99
Es	1.224351	-1.022174	-0.006628	99
Es	-0.292842	-1.984053	-0.001464	99
Es	-0.092109	-1.417188	-0.001733	99
Es	-0.155766	2.381052	0.001404	99
Es	-0.863541	2.115303	0.021944	99
Es	1.758479	-1.522162	-0.010598	99
Es	-2.382965	-0.708788	0.011418	99
Es	-0.533538	2.021754	0.005577	99
Es	1.857857	0.785749	-0.006427	99
Es	0.606006	0.632873	-0.005574	99
Es	0.476967	-1.282178	-0.015704	99
Es	-0.899973	-0.312785	0.002915	99
Es	-0.462306	0.256301	-0.289327	99
Es	1.232786	-0.292383	0.297918	99
Es	-0.026475	-1.301526	0.001863	99
Es	-0.362835	1.554170	0.002061	99
38
Properties=species:S:1:pos:R:3:Z:I:1 energy=-358.65311994794786 field_type=dipole dipole="0.000000 0.000000 0.000000" charge=0
O	-2.219187	-0.433975	0.007783	8
C	-0.899757	-0.312525	0.002903	6
C	-0.083307	0.788645	0.001783	6
O	-0.559127	2.042285	0.005943	8
C	1.257602	0.358285	-0.004217	6
C	1.224522	-1.022025	-0.006627	6
N	-0.092157	-1.417305	-0.002257	7
H	-2.550367	0.485785	0.010743	1
H	0.183153	2.670795	0.004233	1
H	2.151773	0.965925	-0.006557	1
H	2.018703	-1.757105	-0.011037	1
H	-0.431847	-2.368785	-0.002697	1
Es	1.236155	-0.296903	-0.307766	99
Es	-0.092076	-1.417125	-0.001575	99
Es	-0.554065	2.038354	0.001119	99
Es	1.224350	-1.022174	-0.006630	99
Es	-0.473417	-0.964311	0.006192	99
Es	-0.026729	-1.301679	-0.000573	99
Es	-1.699708	-0.381280	-0.001039	99
Es	-0.899974	-0.312785	0.002905	99
Es	1.857802	0.785814	-0.006445	99
Es	0.606068	0.632793	-0.005545	99
Es	-2.218580	-0.433451	0.006972	99
Es	-0.863060	2.115278	0.026714	99
Es	1.257621	0.358333	-0.004220	99
Es	-0.155822	2.381115	0.001228	99
Es	-0.526468	2.015907	-0.001622	99
Es	-0.465047	0.256711	-0.286611	99
Es	-2.382887	-0.708889	0.014146	99
Es	-0.363040	1.554070	0.000989	99
Es	-0.351779	0.244229	0.294857	99
Es	0.477090	-1.282044	-0.013570	99
Es	-0.083408	0.788927	0.001795	99
Es	-2.161892	-0.401932	0.006124	99
Es	1.233326	-0.293231	0.298295	99
Es	-0.292882	-1.984071	-0.001561	99
Es	1.758377	-1.522251	-0.010655	99
Es	-2.386761	0.058100	0.012711	99
38
Properties=species:S:1:pos:R:3:Z:I:1 energy=-358.65311994794786 field_type=dipole dipole="0.000000 0.000000 0.000000" charge=0
O	-2.219187	-0.433975	0.007783	8
C	-0.899757	-0.312525	0.002903	6
C	-0.083307	0.788645	0.001783	6
O	-0.559127	2.042285	0.005943	8
C	1.257602	0.358285	-0.004217	6
C	1.224522	-1.022025	-0.006627	6
N	-0.092157	-1.417305	-0.002257	7
H	-2.550367	0.485785	0.010743	1
H	0.183153	2.670795	0.004233	1
H	2.151773	0.965925	-0.006557	1
H	2.018703	-1.757105	-0.011037	1
H	-0.431847	-2.368785	-0.002697	1
Es	1.224350	-1.022174	-0.006627	99
Es	1.857713	0.785961	-0.005028	99
Es	-0.083407	0.788926	0.001795	99
Es	-0.862911	2.115349	-0.009631	99
Es	-0.092160	-1.417276	-0.002091	99
Es	-2.217163	-0.432646	0.006035	99
Es	-0.351651	0.244881	-0.289059	99
Es	-0.026650	-1.301645	-0.005285	99
Es	1.228583	-0.289992	-0.308241	99
Es	-0.899972	-0.312784	0.002891	99
Es	-0.473382	-0.964232	-0.006694	99
Es	-0.292887	-1.984085	-0.003608	99
Es	1.758421	-1.522172	-0.008669	99
Es	1.257621	0.358332	-0.004216	99
Es	-2.382974	-0.708819	0.000390	99
Es	-2.386746	0.058144	0.006641	99
Es	0.606154	0.632613	0.003810	99
Es	-0.363138	1.553863	0.007558	99
Es	-0.522050	2.012395	0.017283	99
Es	-2.163307	-0.402775	0.012983	99
Es	1.240798	-0.299881	0.295998	99
Es	-1.699631	-0.381387	0.012001	99
Es	-0.156056	2.381354	0.008076	99
Es	-0.558270	2.041785	0.004780	99
Es	0.477082	-1.282197	0.006416	99
Es	-0.465175	0.255969	0.288729	99
38
Properties=species:S:1:pos:R:3:Z:I:1 energy=-358.65311994794786 field_type=dipole dipole="0.000000 0.000000 0.000000" charge=0
O	-2.219187	-0.433975	0.007783	8
C	-0.899757	-0.312525	0.002903	6
C	-0.083307	0.788645	0.001783	6
O	-0.559127	2.042285	0.005943	8
C	1.257602	0.358285	-0.004217	6
C	1.224522	-1.022025	-0.006627	6
N	-0.092157	-1.417305	-0.002257	7
H	-2.550367	0.485785	0.010743	1
H	0.183153	2.670795	0.004233	1
H	2.151773	0.965925	-0.006557	1
H	2.018703	-1.757105	-0.011037	1
H	-0.431847	-2.368785	-0.002697	1
Es	1.758354	-1.522148	-0.010740	99
Es	-2.218071	-0.433163	0.006553	99
Es	0.477000	-1.282225	-0.014472	99
Es	-0.862735	2.115248	0.028920	99
Es	-2.383078	-0.708996	0.014182	99
Es	-0.026772	-1.301769	0.000595	99
Es	-1.699985	-0.381441	-0.000878	99
Es	-0.899973	-0.312785	0.002906	99
Es	-0.092135	-1.417233	-0.001879	99
Es	1.224350	-1.022174	-0.006628	99
Es	1.257622	0.358332	-0.004226	99
Es	-0.473413	-0.964218	0.005789	99
Es	-2.162395	-0.402222	0.006681	99
Es	-0.155833	2.381172	0.001319	99
Es	0.606053	0.632746	-0.006082	99
Es	-0.363125	1.554031	0.001378	99
Es	-0.292795	-1.984098	-0.001161	99
Es	-0.523645	2.013521	-0.010780	99
Es	-2.386259	0.058325	0.012475	99
Es	1.857737	0.785903	-0.006551	99
Es	1.237458	-0.298165	-0.307286	99
Es	-0.470751	0.257293	-0.280704	99
Es	1.231778	-0.291878	0.298028	99
Es	-0.557050	2.040794	0.007580	99
Es	-0.345735	0.243733	0.289440	99
Es	-0.083406	0.788924	0.001777	99
38
Properties=species:S:1:pos:R:3:Z:I:1 energy=-358.65311994794786 field_type=dipole dipole="0.000000 0.000000 0.000000" charge=0
O	-2.219187	-0.433975	0.007783	8
C	-0.899757	-0.312525	0.002903	6
C	-0.083307	0.788645	0.001783	6
O	-0.559127	2.042285	0.005943	8
C	1.257602	0.358285	-0.004217	6
C	1.224522	-1.022025	-0.006627	6
N	-0.092157	-1.417305	-0.002257	7
H	-2.550367	0.485785	0.010743	1
H	0.183153	2.670795	0.004233	1
H	2.151773	0.965925	-0.006557	1
H	2.018703	-1.757105	-0.011037	1
H	-0.431847	-2.368785	-0.002697	1
Es	1.238544	-0.298197	0.297128	99
Es	0.606164	0.632554	0.004378	99
Es	-0.155588	2.381160	0.008458	99
Es	-2.386698	0.058161	0.005824	99
Es	-0.345006	0.244589	-0.282993	99
Es	-2.382789	-0.709103	0.001594	99
Es	-0.026946	-1.301895	-0.005729	99
Es	-0.899976	-0.312785	0.002902	99
Es	-0.292828	-1.984125	-0.003899	99
Es	1.857650	0.786033	-0.005059	99
Es	-2.161885	-0.401964	0.008613	99
Es	-0.471243	0.256714	0.281983	99
Es	-1.699870	-0.381177	0.013440	99
Es	1.230569	-0.291938	-0.309406	99
Es	0.476970	-1.282165	0.008774	99
Es	-0.363504	1.554023	0.006766	99
Es	-0.473304	-0.964275	-0.008815	99
Es	-2.218534	-0.433436	0.008550	99
Es	-0.083407	0.788926	0.001787	99
Es	1.224350	-1.022173	-0.006624	99
Es	-0.862975	2.115412	-0.009881	99
Es	1.257621	0.358333	-0.004216	99
Es	1.758318	-1.522187	-0.008314	99
Es	-0.557058	2.040804	0.003898	99
Es	-0.523287	2.013382	0.018762	99
Es	-0.092093	-1.417163	-0.001686	99
38
Properties=species:S:1:pos:R:3:Z:I:1 energy=-358.65311994794786 field_type=dipole dipole="0.000000 0.000000 0.000000" charge=0
O	-2.219187	-0.433975	0.007783	8
C	-0.899757	-0.312525	0.002903	6
C	-0.083307	0.788645	0.001783	6
O	-0.559127	2.042285	0.005943	8
C	1.257602	0.358285	-0.004217	6
C	1.224522	-1.022025	-0.006627	6
N	-0.092157	-1.417305	-0.002257	7
H	-2.550367	0.485785	0.010743	1
H	0.183153	2.670795	0.004233	1
H	2.151773	0.965925	-0.006557	1
H	2.018703	-1.757105	-0.011037	1
H	-0.431847	-2.368785	-0.002697	1
Es	-0.155978	2.381371	0.000395	99
Es	-0.363307	1.553938	0.001524	99
Es	-0.083408	0.788926	0.001777	99
Es	-0.026959	-1.301903	0.002272	99
Es	-1.699955	-0.381204	-0.000873	99
Es	-0.899974	-0.312785	0.002904	99
Es	1.231622	-0.291950	0.298269	99
Es	-2.218611	-0.433486	0.008324	99
Es	1.257621	0.358332	-0.004225	99
Es	-0.340932	0.243414	0.284398	99
Es	1.758273	-1.522135	-0.010807	99
Es	-0.522250	2.012429	-0.006980	99
Es	-0.292867	-1.984128	-0.001360	99
Es	-0.475077	0.257804	-0.275550	99
Es	-0.092145	-1.417243	-0.002595	99
Es	-0.558395	2.041875	0.004715	99
Es	-2.161857	-0.401942	0.003739	99
Es	-2.386654	0.058222	0.012405	99
Es	-0.862457	2.115152	0.028799	99
Es	1.237305	-0.298201	-0.307569	99
Es	0.606207	0.632801	-0.006192	99
Es	1.224351	-1.022174	-0.006630	99
Es	-2.382702	-0.709096	0.015408	99
Es	0.476838	-1.282291	-0.016729	99
Es	-0.473226	-0.964160	0.007202	99
Es	1.857728	0.785940	-0.006385	99
38