41
Properties=species:S:1:pos:R:3:Z:I:1 energy=-359.8448938353388 field_type=dipole dipole="0.000000 0.000000 0.000000" charge=0
O	-2.464789	0.307349	1.378416	8
C	-1.402839	0.255769	0.759026	6
C	-0.653319	-1.062611	0.583866	6
N	0.313771	-1.087091	-0.528884	7
C	1.150331	0.106729	-0.461694	6
C	0.257911	1.326239	-0.636334	6
O	-0.792629	1.394948	0.342976	8
H	-1.392869	-1.849451	0.403746	1
H	-0.138609	-1.276572	1.527296	1
H	0.890871	-1.923461	-0.445614	1
H	1.679981	0.145119	0.498066	1
H	1.900041	0.078089	-1.258894	1
H	0.856841	2.236598	-0.532114	1
H	-0.204699	1.348348	-1.629864	1
Es	-0.054347	1.330675	-1.312069	99
Es	-0.407586	1.317499	-0.015229	99
Es	-1.010564	-0.385977	0.632335	99
Es	0.667967	-1.584144	-0.452818	99
Es	-1.402687	0.255950	0.758905	99
Es	1.150219	0.106647	-0.461707	99
Es	-2.568005	0.593806	1.410771	99
Es	-0.679270	1.377887	0.603723	99
Es	0.698778	0.713878	-0.540336	99
Es	0.691519	-0.576352	-0.472130	99
Es	-2.548811	0.021693	1.461224	99
Es	-0.311007	-1.184247	1.228724	99
Es	-0.653239	-1.062505	0.583758	99
Es	1.656790	0.093686	-1.004342	99
Es	0.314064	-1.087052	-0.528300	99
Es	0.138643	-1.083784	-0.838809	99
Es	0.257733	1.326208	-0.636117	99
Es	1.510057	0.141416	0.204432	99
Es	-0.998387	1.596561	0.265622	99
Es	-2.230284	0.263810	0.944898	99
Es	0.665596	1.942211	-0.560176	99
Es	-1.019012	0.940546	0.419447	99
Es	-2.464562	0.307334	1.378302	99
Es	-0.792518	1.394554	0.342848	99
Es	-1.149612	-1.583990	0.469515	99
Es	-0.090489	-1.062730	-0.022936	99
Es	-1.970489	0.311645	1.375557	99
41
Properties=species:S:1:pos:R:3:Z:I:1 energy=-359.8448938353388 field_type=dipole dipole="0.000000 0.000000 0.000000" charge=0
O	-2.464789	0.307349	1.378416	8
C	-1.402839	0.255769	0.759026	6
C	-0.653319	-1.062611	0.583866	6
N	0.313771	-1.087091	-0.528884	7
C	1.150331	0.106729	-0.461694	6
C	0.257911	1.326239	-0.636334	6
O	-0.792629	1.394948	0.342976	8
H	-1.392869	-1.849451	0.403746	1
H	-0.138609	-1.276572	1.527296	1
H	0.890871	-1.923461	-0.445614	1
H	1.679981	0.145119	0.498066	1
H	1.900041	0.078089	-1.258894	1
H	0.856841	2.236598	-0.532114	1
H	-0.204699	1.348348	-1.629864	1
Es	-0.996693	1.592172	0.266422	99
Es	-1.019723	0.938597	0.426627	99
Es	-0.687630	1.381369	0.594406	99
Es	-0.312058	-1.183096	1.227900	99
Es	1.659154	0.094199	-1.005664	99
Es	-1.402679	0.255951	0.758916	99
Es	0.666236	1.942503	-0.560675	99
Es	-2.464496	0.307329	1.378244	99
Es	-0.400460	1.319919	-0.013688	99
Es	1.150219	0.106647	-0.461707	99
Es	-1.970022	0.313456	1.375756	99
Es	-2.230560	0.265318	0.945424	99
Es	-0.792592	1.394539	0.342824	99
Es	1.507904	0.141665	0.203551	99
Es	0.314077	-1.087052	-0.528306	99
Es	0.144790	-1.086046	-0.832613	99
Es	0.691220	-0.574123	-0.475755	99
Es	-1.150183	-1.584442	0.470232	99
Es	-0.053870	1.330219	-1.311384	99
Es	-1.010226	-0.386666	0.632892	99
Es	0.698617	0.713108	-0.539463	99
Es	-0.653240	-1.062505	0.583759	99
Es	-2.557078	0.591176	1.403830	99
Es	0.667505	-1.583202	-0.454744	99
Es	0.257737	1.326210	-0.636118	99
Es	-2.560206	0.021003	1.467791	99
Es	-0.095247	-1.063024	-0.023367	99
41
Properties=species:S:1:pos:R:3:Z:I:1 energy=-359.8448938353388 field_type=dipole dipole="0.000000 0.000000 0.000000" charge=0
O	-2.464789	0.307349	1.378416	8
C	-1.402839	0.255769	0.759026	6
C	-0.653319	-1.062611	0.583866	6
N	0.313771	-1.087091	-0.528884	7
C	1.150331	0.106729	-0.461694	6
C	0.257911	1.326239	-0.636334	6
O	-0.792629	1.394948	0.342976	8
H	-1.392869	-1.849451	0.403746	1
H	-0.138609	-1.276572	1.527296	1
H	0.890871	-1.923461	-0.445614	1
H	1.679981	0.145119	0.498066	1
H	1.900041	0.078089	-1.258894	1
H	0.856841	2.236598	-0.532114	1
H	-0.204699	1.348348	-1.629864	1
Es	-2.574468	0.025572	1.475552	99
Es	0.691295	-0.573311	-0.476994	99
Es	-2.230663	0.263781	0.945566	99
Es	-1.150515	-1.584286	0.470616	99
Es	-0.691988	1.379697	0.587500	99
Es	0.698737	0.712861	-0.538905	99
Es	0.149041	-1.086705	-0.828904	99
Es	-1.402678	0.255951	0.758916	99
Es	0.314075	-1.087057	-0.528305	99
Es	-1.021986	0.938003	0.429421	99
Es	0.666975	-1.582707	-0.455816	99
Es	-0.653242	-1.062510	0.583762	99
Es	0.257737	1.326211	-0.636116	99
Es	-0.993751	1.592514	0.269277	99
Es	-2.543390	0.589081	1.395187	99
Es	-2.464453	0.307419	1.378211	99
Es	-0.053492	1.330201	-1.311102	99
Es	-0.312593	-1.182845	1.227354	99
Es	-0.792493	1.394557	0.342847	99
Es	0.666338	1.942413	-0.560862	99
Es	1.660550	0.094326	-1.006187	99
Es	-1.009893	-0.386875	0.633524	99
Es	1.150219	0.106649	-0.461707	99
Es	1.506601	0.141732	0.202706	99
Es	-1.969559	0.312473	1.376668	99
Es	-0.098773	-1.063344	-0.024630	99
Es	-0.397138	1.321424	-0.012491	99
41
Properties=species:S:1:pos:R:3:Z:I:1 energy=-359.8448938353388 field_type=dipole dipole="0.000000 0.000000 0.000000" charge=0
O	-2.464789	0.307349	1.378416	8
C	-1.402839	0.255769	0.759026	6
C	-0.653319	-1.062611	0.583866	6
N	0.313771	-1.087091	-0.528884	7
C	1.150331	0.106729	-0.461694	6
C	0.257911	1.326239	-0.636334	6
O	-0.792629	1.394948	0.342976	8
H	-1.392869	-1.849451	0.403746	1
H	-0.138609	-1.276572	1.527296	1
H	0.890871	-1.923461	-0.445614	1
H	1.679981	0.145119	0.498066	1
H	1.900041	0.078089	-1.258894	1
H	0.856841	2.236598	-0.532114	1
H	-0.204699	1.348348	-1.629864	1
Es	-1.009710	-0.387315	0.633745	99
Es	1.150220	0.106648	-0.461708	99
Es	-1.967318	0.312690	1.375090	99
Es	-0.053295	1.330101	-1.310882	99
Es	-2.464552	0.307332	1.378265	99
Es	-1.150656	-1.584177	0.470936	99
Es	0.690936	-0.572644	-0.478397	99
Es	0.257734	1.326210	-0.636115	99
Es	-0.694122	1.378157	0.582214	99
Es	-1.024105	0.938354	0.432130	99
Es	-2.534278	0.585829	1.390557	99
Es	0.666206	1.942395	-0.561130	99
Es	1.661377	0.094395	-1.006583	99
Es	-2.582626	0.029460	1.481530	99
Es	-0.101204	-1.063269	-0.025703	99
Es	-0.792549	1.394536	0.342800	99
Es	-0.395575	1.321485	-0.012113	99
Es	-2.233883	0.263115	0.945831	99
Es	0.698994	0.712527	-0.538434	99
Es	1.505791	0.141774	0.202236	99
Es	-0.653240	-1.062505	0.583757	99
Es	-0.991147	1.593495	0.271561	99
Es	-1.402678	0.255952	0.758917	99
Es	-0.312946	-1.182520	1.227093	99
Es	0.667015	-1.582396	-0.456364	99
Es	0.314086	-1.087048	-0.528286	99
Es	0.152021	-1.087357	-0.825856	99
41
Properties=species:S:1:pos:R:3:Z:I:1 energy=-359.8448938353388 field_type=dipole dipole="0.000000 0.000000 0.000000" charge=0
O	-2.464789	0.307349	1.378416	8
C	-1.402839	0.255769	0.759026	6
C	-0.653319	-1.062611	0.583866	6
N	0.313771	-1.087091	-0.528884	7
C	1.150331	0.106729	-0.461694	6
C	0.257911	1.326239	-0.636334	6
O	-0.792629	1.394948	0.342976	8
H	-1.392869	-1.849451	0.403746	1
H	-0.138609	-1.276572	1.527296	1
H	0.890871	-1.923461	-0.445614	1
H	1.679981	0.145119	0.498066	1
H	1.900041	0.078089	-1.258894	1
H	0.856841	2.236598	-0.532114	1
H	-0.204699	1.348348	-1.629864	1
Es	-1.009742	-0.387443	0.633883	99
Es	-0.653239	-1.062505	0.583759	99
Es	-2.464476	0.307262	1.378242	99
Es	-0.393295	1.322950	-0.010712	99
Es	0.314092	-1.087052	-0.528289	99
Es	0.691180	-0.572527	-0.478578	99
Es	-1.968669	0.310596	1.377970	99
Es	-0.696894	1.378228	0.578553	99
Es	-1.402677	0.255952	0.758917	99
Es	-1.022960	0.937865	0.434001	99
Es	-1.150636	-1.584081	0.471078	99
Es	-0.792661	1.394414	0.342917	99
Es	1.662066	0.094373	-1.006731	99
Es	-2.524102	0.582841	1.384782	99
Es	0.666681	-1.582558	-0.457329	99
Es	-2.594010	0.035261	1.485302	99
Es	-0.313281	-1.182404	1.226861	99
Es	0.257734	1.326208	-0.636117	99
Es	1.150220	0.106649	-0.461707	99
Es	-0.102280	-1.063374	-0.026198	99
Es	1.505130	0.141739	0.201689	99
Es	0.666254	1.942229	-0.561198	99
Es	-0.991800	1.592463	0.271772	99
Es	0.698897	0.712362	-0.538148	99
Es	-2.231438	0.262554	0.945132	99
Es	-0.053140	1.330221	-1.310740	99
Es	0.153540	-1.086996	-0.824021	99
41
Properties=species:S:1:pos:R:3:Z:I:1 energy=-359.8448938353388 field_type=dipole dipole="0.000000 0.000000 0.000000" charge=0
O	-2.464789	0.307349	1.378416	8
C	-1.402839	0.255769	0.759026	6
C	-0.653319	-1.062611	0.583866	6
N	0.313771	-1.087091	-0.528884	7
C	1.150331	0.106729	-0.461694	6
C	0.257911	1.326239	-0.636334	6
O	-0.792629	1.394948	0.342976	8
H	-1.392869	-1.849451	0.403746	1
H	-0.138609	-1.276572	1.527296	1
H	0.890871	-1.923461	-0.445614	1
H	1.679981	0.145119	0.498066	1
H	1.900041	0.078089	-1.258894	1
H	0.856841	2.236598	-0.532114	1
H	-0.204699	1.348348	-1.629864	1
Es	0.691131	-0.572482	-0.478930	99
Es	-2.232606	0.260426	0.946108	99
Es	-0.313514	-1.182368	1.226576	99
Es	-0.053045	1.330224	-1.310665	99
Es	-2.510989	0.578594	1.377726	99
Es	0.666594	-1.583116	-0.458427	99
Es	-0.792605	1.394476	0.343012	99
Es	-1.402677	0.255952	0.758919	99
Es	0.155327	-1.086390	-0.821723	99
Es	-1.150670	-1.583984	0.471243	99
Es	0.699187	0.712329	-0.537736	99
Es	1.504710	0.141624	0.201304	99
Es	-0.698424	1.381034	0.576151	99
Es	1.662500	0.094439	-1.006809	99
Es	-0.993244	1.590070	0.269716	99
Es	-0.392283	1.322863	-0.010004	99
Es	-1.021132	0.937349	0.437641	99
Es	0.257735	1.326209	-0.636117	99
Es	0.314089	-1.087057	-0.528282	99
Es	-1.967600	0.308039	1.377447	99
Es	0.665945	1.942183	-0.561344	99
Es	-2.464458	0.307373	1.378214	99
Es	1.150220	0.106648	-0.461708	99
Es	-1.009667	-0.387470	0.634029	99
Es	-2.607068	0.044175	1.492034	99
Es	-0.103721	-1.063410	-0.027041	99
Es	-0.653239	-1.062504	0.583756	99
41
Properties=species:S:1:pos:R:3:Z:I:1 energy=-359.8448938353388 field_type=dipole dipole="0.000000 0.000000 0.000000" charge=0
O	-2.464789	0.307349	1.378416	8
C	-1.402839	0.255769	0.759026	6
C	-0.653319	-1.062611	0.583866	6
N	0.313771	-1.087091	-0.528884	7
C	1.150331	0.106729	-0.461694	6
C	0.257911	1.326239	-0.636334	6
O	-0.792629	1.394948	0.342976	8
H	-1.392869	-1.849451	0.403746	1
H	-0.138609	-1.276572	1.527296	1
H	0.890871	-1.923461	-0.445614	1
H	1.679981	0.145119	0.498066	1
H	1.900041	0.078089	-1.258894	1
H	0.856841	2.236598	-0.532114	1
H	-0.204699	1.348348	-1.629864	1
Es	-1.150469	-1.583956	0.471339	99
Es	-2.498223	0.572478	1.373092	99
Es	-2.233348	0.260547	0.945712	99
Es	-0.104242	-1.063336	-0.027441	99
Es	0.257737	1.326212	-0.636114	99
Es	0.665936	1.941976	-0.561299	99
Es	0.690995	-0.572241	-0.479219	99
Es	0.699104	0.712358	-0.537670	99
Es	-1.009832	-0.387402	0.634097	99
Es	0.156047	-1.086638	-0.820995	99
Es	-0.052994	1.330460	-1.310642	99
Es	1.662883	0.094239	-1.006757	99
Es	-2.619360	0.053475	1.497004	99
Es	0.314095	-1.087066	-0.528291	99
Es	-2.464450	0.307246	1.378235	99
Es	-0.698296	1.372155	0.572728	99
Es	-0.792524	1.394582	0.342834	99
Es	-1.024215	0.938614	0.435096	99
Es	0.666767	-1.583106	-0.458262	99
Es	-1.402677	0.255952	0.758917	99
Es	-1.967414	0.304909	1.377444	99
Es	-0.313703	-1.182354	1.226442	99
Es	1.150218	0.106646	-0.461699	99
Es	1.504364	0.141547	0.200899	99
Es	-0.392615	1.322856	-0.010725	99
Es	-0.653238	-1.062505	0.583759	99
Es	-0.990050	1.597576	0.276606	99
41
Properties=species:S:1:pos:R:3:Z:I:1 energy=-359.8448938353388 field_type=dipole dipole="0.000000 0.000000 0.000000" charge=0
O	-2.464789	0.307349	1.378416	8
C	-1.402839	0.255769	0.759026	6
C	-0.653319	-1.062611	0.583866	6
N	0.313771	-1.087091	-0.528884	7
C	1.150331	0.106729	-0.461694	6
C	0.257911	1.326239	-0.636334	6
O	-0.792629	1.394948	0.342976	8
H	-1.392869	-1.849451	0.403746	1
H	-0.138609	-1.276572	1.527296	1
H	0.890871	-1.923461	-0.445614	1
H	1.679981	0.145119	0.498066	1
H	1.900041	0.078089	-1.258894	1
H	0.856841	2.236598	-0.532114	1
H	-0.204699	1.348348	-1.629864	1
Es	0.699306	0.712238	-0.537528	99
Es	-2.627198	0.061104	1.500818	99
Es	-2.491104	0.568595	1.367370	99
Es	-0.792604	1.394510	0.342821	99
Es	0.156965	-1.086220	-0.819519	99
Es	-0.653237	-1.062505	0.583759	99
Es	0.666923	-1.583587	-0.459031	99
Es	-0.391791	1.322898	-0.009937	99
Es	-0.104945	-1.063384	-0.027909	99
Es	0.665768	1.942127	-0.561544	99
Es	-1.150491	-1.584035	0.471488	99
Es	-0.313839	-1.182327	1.226095	99
Es	-1.968684	0.304118	1.379365	99
Es	1.504076	0.141495	0.200538	99
Es	-2.464479	0.307269	1.378243	99
Es	-1.402678	0.255953	0.758914	99
Es	0.257737	1.326210	-0.636116	99
Es	1.663184	0.094233	-1.006739	99
Es	-2.231317	0.257631	0.945759	99
Es	1.150220	0.106647	-0.461708	99
Es	-0.991545	1.593744	0.273224	99
Es	0.314088	-1.087048	-0.528299	99
Es	-0.699269	1.376637	0.572565	99
Es	-1.009754	-0.387332	0.634281	99
Es	-0.052925	1.330420	-1.310309	99
Es	-1.022590	0.937984	0.437819	99
Es	0.690678	-0.572151	-0.479332	99
41
Properties=species:S:1:pos:R:3:Z:I:1 energy=-359.8448938353388 field_type=dipole dipole="0.000000 0.000000 0.000000" charge=0
O	-2.464789	0.307349	1.378416	8
C	-1.402839	0.255769	0.759026	6
C	-0.653319	-1.062611	0.583866	6
N	0.313771	-1.087091	-0.528884	7
C	1.150331	0.106729	-0.461694	6
C	0.257911	1.326239	-0.636334	6
O	-0.792629	1.394948	0.342976	8
H	-1.392869	-1.849451	0.403746	1
H	-0.138609	-1.276572	1.527296	1
H	0.890871	-1.923461	-0.445614	1
H	1.679981	0.145119	0.498066	1
H	1.900041	0.078089	-1.258894	1
H	0.856841	2.236598	-0.532114	1
H	-0.204699	1.348348	-1.629864	1
Es	-1.009671	-0.387508	0.634216	99
Es	1.663315	0.094239	-1.006848	99
Es	1.503938	0.141490	0.200422	99
Es	-0.313972	-1.182412	1.226320	99
Es	0.157565	-1.086369	-0.819511	99
Es	-0.988938	1.601105	0.279878	99
Es	0.699341	0.712324	-0.537299	99
Es	0.690407	-0.572247	-0.479272	99
Es	-0.105391	-1.063523	-0.028029	99
Es	-2.232934	0.259043	0.944793	99
Es	0.665776	1.941982	-0.561487	99
Es	-1.150571	-1.583702	0.471316	99
Es	-1.402676	0.255952	0.758918	99
Es	-0.700440	1.368159	0.566974	99
Es	-1.967720	0.304769	1.379051	99
Es	-0.792609	1.394501	0.342765	99
Es	-0.052866	1.330377	-1.310482	99
Es	0.667168	-1.583060	-0.458907	99
Es	-1.024685	0.938658	0.436459	99
Es	0.314072	-1.087051	-0.528308	99
Es	0.257734	1.326213	-0.636112	99
Es	-0.391150	1.323227	-0.009567	99
Es	-2.628230	0.062247	1.501755	99
Es	-2.464541	0.307395	1.378254	99
Es	-0.653239	-1.062505	0.583759	99
Es	-2.489405	0.565276	1.367739	99
Es	1.150220	0.106647	-0.461708	99
41
Properties=species:S:1:pos:R:3:Z:I:1 energy=-359.8448938353388 field_type=dipole dipole="0.000000 0.000000 0.000000" charge=0
O	-2.464789	0.307349	1.378416	8
C	-1.402839	0.255769	0.759026	6
C	-0.653319	-1.062611	0.583866	6
N	0.313771	-1.087091	-0.528884	7
C	1.150331	0.106729	-0.461694	6
C	0.257911	1.326239	-0.636334	6
O	-0.792629	1.394948	0.342976	8
H	-1.392869	-1.849451	0.403746	1
H	-0.138609	-1.276572	1.527296	1
H	0.890871	-1.923461	-0.445614	1
H	1.679981	0.145119	0.498066	1
H	1.900041	0.078089	-1.258894	1
H	0.856841	2.236598	-0.532114	1
H	-0.204699	1.348348	-1.629864	1
Es	-0.052810	1.330427	-1.310182	99
Es	0.257732	1.326211	-0.636109	99
Es	-1.022896	0.938093	0.439197	99
Es	-2.637215	0.071412	1.506178	99
Es	-0.700654	1.373378	0.568077	99
Es	0.157818	-1.086689	-0.817570	99
Es	0.699117	0.712272	-0.537381	99
Es	0.667080	-1.583719	-0.459366	99
Es	0.690443	-0.571656	-0.480645	99
Es	-2.464467	0.307250	1.378238	99
Es	-0.990816	1.597178	0.275527	99
Es	-2.233306	0.257603	0.945566	99
Es	-1.402678	0.255950	0.758918	99
Es	-0.653240	-1.062506	0.583761	99
Es	-0.792558	1.394536	0.342791	99
Es	0.314099	-1.087043	-0.528259	99
Es	-1.150183	-1.583976	0.471641	99
Es	-0.105408	-1.063334	-0.028175	99
Es	1.663521	0.094193	-1.006683	99
Es	-1.010038	-0.387233	0.634325	99
Es	-1.967481	0.303059	1.378580	99
Es	1.150219	0.106646	-0.461707	99
Es	-0.390929	1.322529	-0.009105	99
Es	-2.480356	0.559443	1.363017	99
Es	1.503757	0.141448	0.200182	99
Es	0.665782	1.942095	-0.561611	99
Es	-0.314037	-1.182341	1.225886	99
41
Properties=species:S:1:pos:R:3:Z:I:1 energy=-359.8448938353388 field_type=dipole dipole="0.000000 0.000000 0.000000" charge=0
O	-2.464789	0.307349	1.378416	8
C	-1.402839	0.255769	0.759026	6
C	-0.653319	-1.062611	0.583866	6
N	0.313771	-1.087091	-0.528884	7
C	1.150331	0.106729	-0.461694	6
C	0.257911	1.326239	-0.636334	6
O	-0.792629	1.394948	0.342976	8
H	-1.392869	-1.849451	0.403746	1
H	-0.138609	-1.276572	1.527296	1
H	0.890871	-1.923461	-0.445614	1
H	1.679981	0.145119	0.498066	1
H	1.900041	0.078089	-1.258894	1
H	0.856841	2.236598	-0.532114	1
H	-0.204699	1.348348	-1.629864	1
Es	-0.314037	-1.182285	1.225994	99
Es	-0.052822	1.330406	-1.310199	99
Es	0.314088	-1.087054	-0.528290	99
Es	-2.642921	0.077917	1.507838	99
Es	-1.023218	0.938013	0.438952	99
Es	-2.232181	0.256679	0.945017	99
Es	1.503604	0.141397	0.200057	99
Es	-0.105589	-1.063375	-0.028253	99
Es	0.666906	-1.583793	-0.459628	99
Es	0.665707	1.942107	-0.561628	99
Es	0.257735	1.326209	-0.636117	99
Es	-0.989802	1.602045	0.280600	99
Es	-1.150338	-1.583981	0.471551	99
Es	0.699206	0.712329	-0.537280	99
Es	-1.968223	0.301837	1.380309	99
Es	-1.009932	-0.387357	0.634200	99
Es	1.150217	0.106647	-0.461707	99
Es	0.157989	-1.086275	-0.817632	99
Es	-0.701383	1.367605	0.563635	99
Es	-0.653239	-1.062505	0.583758	99
Es	-2.475064	0.555155	1.360259	99
Es	-0.390914	1.323526	-0.009457	99
Es	1.663679	0.094197	-1.006615	99
Es	-0.792533	1.394504	0.342774	99
Es	0.690649	-0.571865	-0.480179	99
Es	-1.402677	0.255948	0.758919	99
Es	-2.464410	0.307191	1.378212	99
41
Properties=species:S:1:pos:R:3:Z:I:1 energy=-359.8448938353388 field_type=dipole dipole="0.000000 0.000000 0.000000" charge=0
O	-2.464789	0.307349	1.378416	8
C	-1.402839	0.255769	0.759026	6
C	-0.653319	-1.062611	0.583866	6
N	0.313771	-1.087091	-0.528884	7
C	1.150331	0.106729	-0.461694	6
C	0.257911	1.326239	-0.636334	6
O	-0.792629	1.394948	0.342976	8
H	-1.392869	-1.849451	0.403746	1
H	-0.138609	-1.276572	1.527296	1
H	0.890871	-1.923461	-0.445614	1
H	1.679981	0.145119	0.498066	1
H	1.900041	0.078089	-1.258894	1
H	0.856841	2.236598	-0.532114	1
H	-0.204699	1.348348	-1.629864	1
Es	-1.150026	-1.584035	0.471750	99
Es	-0.314167	-1.182148	1.225868	99
Es	-0.390431	1.323234	-0.008864	99
Es	0.158715	-1.086362	-0.816377	99
Es	-0.989419	1.600749	0.279300	99
Es	0.690361	-0.571691	-0.480793	99
Es	1.150221	0.106647	-0.461708	99
Es	-2.232013	0.256160	0.945067	99
Es	-0.106045	-1.063336	-0.028572	99
Es	0.667061	-1.583940	-0.459899	99
Es	-1.010211	-0.387359	0.634219	99
Es	-0.701436	1.368583	0.565331	99
Es	0.665584	1.942126	-0.561780	99
Es	-2.464449	0.307252	1.378230	99
Es	-0.653242	-1.062506	0.583761	99
Es	-0.792531	1.394595	0.342850	99
Es	-1.968331	0.303280	1.380200	99
Es	-2.474471	0.553305	1.359017	99
Es	0.314050	-1.087050	-0.528342	99
Es	-1.402676	0.255952	0.758918	99
Es	-0.052788	1.330471	-1.309978	99
Es	-2.643545	0.078815	1.509156	99
Es	1.663717	0.094217	-1.006656	99
Es	1.503573	0.141333	0.199953	99
Es	0.699330	0.712222	-0.537263	99
Es	-1.024071	0.938501	0.437816	99
Es	0.257735	1.326210	-0.636114	99
41
Properties=species:S:1:pos:R:3:Z:I:1 energy=-359.8448938353388 field_type=dipole dipole="0.000000 0.000000 0.000000" charge=0
O	-2.464789	0.307349	1.378416	8
C	-1.402839	0.255769	0.759026	6
C	-0.653319	-1.062611	0.583866	6
N	0.313771	-1.087091	-0.528884	7
C	1.150331	0.106729	-0.461694	6
C	0.257911	1.326239	-0.636334	6
O	-0.792629	1.394948	0.342976	8
H	-1.392869	-1.849451	0.403746	1
H	-0.138609	-1.276572	1.527296	1
H	0.890871	-1.923461	-0.445614	1
H	1.679981	0.145119	0.498066	1
H	1.900041	0.078089	-1.258894	1
H	0.856841	2.236598	-0.532114	1
H	-0.204699	1.348348	-1.629864	1
Es	-2.646195	0.082603	1.511215	99
Es	-0.653240	-1.062505	0.583757	99
Es	1.150220	0.106646	-0.461710	99
Es	-0.702139	1.369200	0.562619	99
Es	1.503411	0.141388	0.199830	99
Es	-2.232038	0.254557	0.945430	99
Es	-1.967825	0.304891	1.380735	99
Es	0.665424	1.942093	-0.561788	99
Es	-0.105864	-1.063375	-0.028463	99
Es	0.257732	1.326207	-0.636118	99
Es	1.663871	0.094155	-1.006679	99
Es	-0.792666	1.394436	0.342798	99
Es	-1.150225	-1.583942	0.471671	99
Es	-0.390152	1.323009	-0.008532	99
Es	-2.464448	0.307233	1.378229	99
Es	-1.402677	0.255952	0.758917	99
Es	0.666960	-1.584429	-0.460681	99
Es	-0.314209	-1.182292	1.225764	99
Es	-0.052770	1.330456	-1.310047	99
Es	0.699486	0.712214	-0.537133	99
Es	-1.022790	0.937949	0.440517	99
Es	-1.009983	-0.387301	0.634334	99
Es	0.158649	-1.085992	-0.815533	99
Es	-2.472302	0.549486	1.356070	99
Es	-0.990162	1.601081	0.279087	99
Es	0.690335	-0.571444	-0.480927	99
Es	0.314091	-1.087052	-0.528274	99
41
Properties=species:S:1:pos:R:3:Z:I:1 energy=-359.8448938353388 field_type=dipole dipole="0.000000 0.000000 0.000000" charge=0
O	-2.464789	0.307349	1.378416	8
C	-1.402839	0.255769	0.759026	6
C	-0.653319	-1.062611	0.583866	6
N	0.313771	-1.087091	-0.528884	7
C	1.150331	0.106729	-0.461694	6
C	0.257911	1.326239	-0.636334	6
O	-0.792629	1.394948	0.342976	8
H	-1.392869	-1.849451	0.403746	1
H	-0.138609	-1.276572	1.527296	1
H	0.890871	-1.923461	-0.445614	1
H	1.679981	0.145119	0.498066	1
H	1.900041	0.078089	-1.258894	1
H	0.856841	2.236598	-0.532114	1
H	-0.204699	1.348348	-1.629864	1
Es	-2.469699	0.549849	1.357657	99
Es	0.665349	1.942077	-0.561826	99
Es	-2.232277	0.256399	0.945347	99
Es	-0.987786	1.601555	0.280211	99
Es	-0.106537	-1.063413	-0.029072	99
Es	0.159112	-1.086435	-0.817001	99
Es	-1.150147	-1.584009	0.471780	99
Es	0.699513	0.712253	-0.537037	99
Es	-2.648103	0.083690	1.510463	99
Es	0.257736	1.326209	-0.636117	99
Es	-0.702614	1.368507	0.560689	99
Es	1.503287	0.141328	0.199700	99
Es	-1.968240	0.301626	1.380003	99
Es	0.314099	-1.087051	-0.528273	99
Es	-0.792543	1.394558	0.342820	99
Es	-0.052744	1.330462	-1.310014	99
Es	0.690400	-0.571759	-0.480145	99
Es	1.664000	0.094129	-1.006650	99
Es	-1.010048	-0.387280	0.634307	99
Es	-1.402677	0.255952	0.758917	99
Es	-2.464494	0.307280	1.378234	99
Es	-1.024831	0.938314	0.441433	99
Es	0.667209	-1.583668	-0.459352	99
Es	1.150219	0.106647	-0.461708	99
Es	-0.314277	-1.182186	1.225653	99
Es	-0.390173	1.322695	-0.008689	99
Es	-0.653239	-1.062505	0.583759	99
41
Properties=species:S:1:pos:R:3:Z:I:1 energy=-359.8448938353388 field_type=dipole dipole="0.000000 0.000000 0.000000" charge=0
O	-2.464789	0.307349	1.378416	8
C	-1.402839	0.255769	0.759026	6
C	-0.653319	-1.062611	0.583866	6
N	0.313771	-1.087091	-0.528884	7
C	1.150331	0.106729	-0.461694	6
C	0.257911	1.326239	-0.636334	6
O	-0.792629	1.394948	0.342976	8
H	-1.392869	-1.849451	0.403746	1
H	-0.138609	-1.276572	1.527296	1
H	0.890871	-1.923461	-0.445614	1
H	1.679981	0.145119	0.498066	1
H	1.900041	0.078089	-1.258894	1
H	0.856841	2.236598	-0.532114	1
H	-0.204699	1.348348	-1.629864	1
Es	0.159037	-1.086212	-0.816029	99
Es	-0.792567	1.394541	0.342803	99
Es	0.665437	1.942010	-0.561739	99
Es	1.663978	0.094187	-1.006612	99
Es	0.699374	0.712160	-0.537176	99
Es	-0.314223	-1.182185	1.225673	99
Es	1.150219	0.106646	-0.461708	99
Es	0.690551	-0.571687	-0.480615	99
Es	-0.052752	1.330629	-1.309999	99
Es	-1.010105	-0.387296	0.634409	99
Es	-1.402676	0.255952	0.758918	99
Es	-1.150094	-1.584071	0.471783	99
Es	-2.234867	0.256504	0.945303	99
Es	-0.702543	1.363406	0.559267	99
Es	-0.106320	-1.063407	-0.028768	99
Es	-0.390388	1.323147	-0.008975	99
Es	0.666960	-1.583984	-0.460133	99
Es	-1.966648	0.300845	1.378521	99
Es	-0.653240	-1.062505	0.583758	99
Es	0.257734	1.326209	-0.636114	99
Es	-1.025407	0.938640	0.439052	99
Es	0.314058	-1.087050	-0.528329	99
Es	-2.651572	0.089233	1.513169	99
Es	1.503308	0.141359	0.199702	99
Es	-2.464382	0.307157	1.378196	99
Es	-0.987020	1.605923	0.284265	99
Es	-2.465356	0.545075	1.356468	99
41
Properties=species:S:1:pos:R:3:Z:I:1 energy=-359.8448938353388 field_type=dipole dipole="0.000000 0.000000 0.000000" charge=0
O	-2.464789	0.307349	1.378416	8
C	-1.402839	0.255769	0.759026	6
C	-0.653319	-1.062611	0.583866	6
N	0.313771	-1.087091	-0.528884	7
C	1.150331	0.106729	-0.461694	6
C	0.257911	1.326239	-0.636334	6
O	-0.792629	1.394948	0.342976	8
H	-1.392869	-1.849451	0.403746	1
H	-0.138609	-1.276572	1.527296	1
H	0.890871	-1.923461	-0.445614	1
H	1.679981	0.145119	0.498066	1
H	1.900041	0.078089	-1.258894	1
H	0.856841	2.236598	-0.532114	1
H	-0.204699	1.348348	-1.629864	1
Es	0.159443	-1.086276	-0.815057	99
Es	-1.968486	0.301574	1.381306	99
Es	-0.052698	1.330509	-1.309980	99
Es	-0.106640	-1.063309	-0.029073	99
Es	-1.024190	0.938080	0.441039	99
Es	-0.653239	-1.062504	0.583758	99
Es	-0.792578	1.394531	0.342749	99
Es	-2.464445	0.307210	1.378226	99
Es	-1.402677	0.255952	0.758916	99
Es	-2.231455	0.255015	0.945384	99
Es	-0.314257	-1.182240	1.225582	99
Es	1.503168	0.141374	0.199534	99
Es	-0.988251	1.603281	0.281374	99
Es	0.667023	-1.584240	-0.460350	99
Es	0.665479	1.942048	-0.561783	99
Es	-2.653637	0.090879	1.512579	99
Es	-1.150141	-1.583999	0.471828	99
Es	-0.390256	1.322899	-0.008651	99
Es	0.314091	-1.087053	-0.528282	99
Es	-2.464767	0.544158	1.354238	99
Es	0.257731	1.326206	-0.636110	99
Es	-0.702712	1.366873	0.559863	99
Es	0.699479	0.712280	-0.537122	99
Es	1.150219	0.106646	-0.461708	99
Es	0.690230	-0.571404	-0.481048	99
Es	-1.010064	-0.387292	0.634442	99
Es	1.664126	0.094025	-1.006562	99
41
Properties=species:S:1:pos:R:3:Z:I:1 energy=-359.8448938353388 field_type=dipole dipole="0.000000 0.000000 0.000000" charge=0
O	-2.464789	0.307349	1.378416	8
C	-1.402839	0.255769	0.759026	6
C	-0.653319	-1.062611	0.583866	6
N	0.313771	-1.087091	-0.528884	7
C	1.150331	0.106729	-0.461694	6
C	0.257911	1.326239	-0.636334	6
O	-0.792629	1.394948	0.342976	8
H	-1.392869	-1.849451	0.403746	1
H	-0.138609	-1.276572	1.527296	1
H	0.890871	-1.923461	-0.445614	1
H	1.679981	0.145119	0.498066	1
H	1.900041	0.078089	-1.258894	1
H	0.856841	2.236598	-0.532114	1
H	-0.204699	1.348348	-1.629864	1
Es	-1.966993	0.300885	1.379153	99
Es	-2.655446	0.094393	1.514928	99
Es	-0.390271	1.323500	-0.008875	99
Es	0.314017	-1.087048	-0.528392	99
Es	-1.010053	-0.387275	0.634465	99
Es	-2.234285	0.255718	0.945234	99
Es	0.699488	0.712197	-0.537156	99
Es	0.159588	-1.086416	-0.814696	99
Es	-0.702833	1.362608	0.558584	99
Es	-0.314326	-1.182261	1.225616	99
Es	0.690088	-0.571284	-0.481287	99
Es	0.665425	1.942145	-0.561866	99
Es	0.667183	-1.584243	-0.460313	99
Es	-2.461662	0.540628	1.354130	99
Es	-0.792525	1.394543	0.342812	99
Es	-1.024950	0.938446	0.438984	99
Es	-0.987383	1.606586	0.284880	99
Es	1.503214	0.141419	0.199602	99
Es	-0.653239	-1.062504	0.583758	99
Es	1.664067	0.094085	-1.006599	99
Es	-1.150124	-1.583978	0.471767	99
Es	-0.106610	-1.063344	-0.029047	99
Es	-1.402675	0.255952	0.758921	99
Es	-0.052722	1.330447	-1.309909	99
Es	-2.464428	0.307173	1.378219	99
Es	1.150219	0.106646	-0.461709	99
Es	0.257729	1.326207	-0.636114	99
41
Properties=species:S:1:pos:R:3:Z:I:1 energy=-359.8448938353388 field_type=dipole dipole="0.000000 0.000000 0.000000" charge=0
O	-2.464789	0.307349	1.378416	8
C	-1.402839	0.255769	0.759026	6
C	-0.653319	-1.062611	0.583866	6
N	0.313771	-1.087091	-0.528884	7
C	1.150331	0.106729	-0.461694	6
C	0.257911	1.326239	-0.636334	6
O	-0.792629	1.394948	0.342976	8
H	-1.392869	-1.849451	0.403746	1
H	-0.138609	-1.276572	1.527296	1
H	0.890871	-1.923461	-0.445614	1
H	1.679981	0.145119	0.498066	1
H	1.900041	0.078089	-1.258894	1
H	0.856841	2.236598	-0.532114	1
H	-0.204699	1.348348	-1.629864	1
Es	-0.987698	1.605251	0.283784	99
Es	-1.402677	0.255952	0.758917	99
Es	0.159773	-1.086907	-0.814776	99
Es	0.699354	0.712132	-0.537044	99
Es	0.314096	-1.087051	-0.528273	99
Es	0.665466	1.942009	-0.561794	99
Es	1.664108	0.094164	-1.006655	99
Es	-2.462077	0.540267	1.353307	99
Es	0.257736	1.326211	-0.636116	99
Es	-0.106845	-1.063165	-0.029175	99
Es	-2.464452	0.307300	1.378230	99
Es	-1.967684	0.301915	1.379972	99
Es	-1.010150	-0.387245	0.634421	99
Es	-0.653240	-1.062505	0.583760	99
Es	-2.233103	0.255007	0.945198	99
Es	0.690227	-0.571211	-0.481717	99
Es	1.503185	0.141283	0.199478	99
Es	-1.150011	-1.584127	0.471848	99
Es	-0.052671	1.330646	-1.309860	99
Es	-0.792690	1.394495	0.342668	99
Es	0.667133	-1.583955	-0.459798	99
Es	-1.024396	0.938162	0.440551	99
Es	-0.703164	1.364286	0.558082	99
Es	1.150219	0.106646	-0.461709	99
Es	-2.655522	0.094340	1.514956	99
Es	-0.314352	-1.182150	1.225492	99
Es	-0.390070	1.323474	-0.008657	99
41
Properties=species:S:1:pos:R:3:Z:I:1 energy=-359.8448938353388 field_type=dipole dipole="0.000000 0.000000 0.000000" charge=0
O	-2.464789	0.307349	1.378416	8
C	-1.402839	0.255769	0.759026	6
C	-0.653319	-1.062611	0.583866	6
N	0.313771	-1.087091	-0.528884	7
C	1.150331	0.106729	-0.461694	6
C	0.257911	1.326239	-0.636334	6
O	-0.792629	1.394948	0.342976	8
H	-1.392869	-1.849451	0.403746	1
H	-0.138609	-1.276572	1.527296	1
H	0.890871	-1.923461	-0.445614	1
H	1.679981	0.145119	0.498066	1
H	1.900041	0.078089	-1.258894	1
H	0.856841	2.236598	-0.532114	1
H	-0.204699	1.348348	-1.629864	1
Es	0.690173	-0.571163	-0.481411	99
Es	-0.792559	1.394527	0.342779	99
Es	-1.967503	0.300560	1.379819	99
Es	-1.010066	-0.387245	0.634498	99
Es	-0.052668	1.330633	-1.309735	99
Es	-1.025144	0.938511	0.440065	99
Es	-2.233894	0.257042	0.944256	99
Es	-0.314302	-1.182132	1.225537	99
Es	-0.107060	-1.063507	-0.029325	99
Es	0.160050	-1.086173	-0.813797	99
Es	-0.987101	1.605639	0.284096	99
Es	1.503142	0.141361	0.199451	99
Es	-0.703211	1.363659	0.558035	99
Es	0.257736	1.326207	-0.636118	99
Es	0.314092	-1.087045	-0.528286	99
Es	-0.389988	1.323292	-0.008607	99
Es	-1.402678	0.255951	0.758918	99
Es	1.150220	0.106647	-0.461709	99
Es	-0.653239	-1.062504	0.583758	99
Es	0.665370	1.942090	-0.561880	99
Es	0.699445	0.712100	-0.537187	99
Es	0.667073	-1.584436	-0.460909	99
Es	-2.656538	0.095292	1.514632	99
Es	1.664152	0.094041	-1.006608	99
Es	-2.464436	0.307185	1.378226	99
Es	-1.150076	-1.584054	0.471897	99
Es	-2.460494	0.538746	1.354693	99
41
Properties=species:S:1:pos:R:3:Z:I:1 energy=-359.8448938353388 field_type=dipole dipole="0.000000 0.000000 0.000000" charge=0
O	-2.464789	0.307349	1.378416	8
C	-1.402839	0.255769	0.759026	6
C	-0.653319	-1.062611	0.583866	6
N	0.313771	-1.087091	-0.528884	7
C	1.150331	0.106729	-0.461694	6
C	0.257911	1.326239	-0.636334	6
O	-0.792629	1.394948	0.342976	8
H	-1.392869	-1.849451	0.403746	1
H	-0.138609	-1.276572	1.527296	1
H	0.890871	-1.923461	-0.445614	1
H	1.679981	0.145119	0.498066	1
H	1.900041	0.078089	-1.258894	1
H	0.856841	2.236598	-0.532114	1
H	-0.204699	1.348348	-1.629864	1
Es	-0.653239	-1.062505	0.583758	99
Es	-2.460010	0.537695	1.352828	99
Es	0.666842	-1.584547	-0.460834	99
Es	0.314098	-1.087053	-0.528268	99
Es	-0.107172	-1.063351	-0.029483	99
Es	0.665383	1.942161	-0.561939	99
Es	-1.149919	-1.584051	0.471905	99
Es	-0.703101	1.367538	0.559673	99
Es	-0.988694	1.602594	0.280647	99
Es	-1.010139	-0.387048	0.634756	99
Es	1.664440	0.094096	-1.006386	99
Es	-1.968775	0.301708	1.380485	99
Es	0.257735	1.326211	-0.636114	99
Es	-0.792491	1.394540	0.342830	99
Es	0.690399	-0.571250	-0.481641	99
Es	0.699398	0.712244	-0.537073	99
Es	-0.389927	1.322908	-0.008325	99
Es	1.150220	0.106648	-0.461709	99
Es	-0.314437	-1.182334	1.225274	99
Es	0.160265	-1.086260	-0.813464	99