39
Properties=species:S:1:pos:R:3:Z:I:1 energy=-338.7744148172605 field_type=dipole dipole="0.000000 0.000000 0.000000" charge=0
O	-2.240948	0.100865	1.257195	8
C	-1.166878	-0.150585	0.741535	6
N	-0.695758	-1.373085	0.310755	7
N	0.547182	-1.343705	-0.382395	7
C	0.977701	0.069335	-0.228995	6
C	0.277922	1.179215	-0.959345	6
C	-0.125228	0.851805	0.454815	6
H	-1.334788	-2.159025	0.245035	1
H	1.193941	-1.959965	0.119035	1
H	2.003922	0.234585	0.080225	1
H	0.824052	2.099824	-1.126685	1
H	-0.402868	0.919875	-1.762255	1
H	0.141752	1.530865	1.251075	1
Es	-1.166767	-0.150732	0.741468	99
Es	0.977517	0.069288	-0.229048	99
Es	-1.061238	-1.838038	0.250212	99
Es	-0.125121	0.851742	0.454652	99
Es	0.046044	1.309574	0.985412	99
Es	0.277922	1.179119	-0.959151	99
Es	0.510445	-1.442457	-0.725824	99
Es	-1.778057	-0.022760	1.310440	99
Es	1.674739	0.171064	-0.026511	99
Es	0.936177	-1.693160	-0.058670	99
Es	-2.265332	0.399850	1.314993	99
Es	0.647760	1.794777	-1.057210	99
Es	-2.240656	0.100755	1.257050	99
Es	-0.180846	1.000988	-1.492919	99
Es	-1.982957	0.048006	0.860350	99
Es	-0.673658	-1.228322	0.665400	99
Es	0.736713	0.576920	-0.763816	99
Es	-0.091482	-1.363628	-0.019994	99
Es	0.547213	-1.343486	-0.381711	99
Es	0.465601	0.401103	0.266460	99
Es	-0.695820	-1.372933	0.310444	99
Es	-0.650715	0.375797	0.576423	99
Es	-2.415585	-0.157704	1.295376	99
Es	-0.092380	1.126372	-0.234112	99
Es	0.733238	-0.731944	-0.310177	99
Es	-0.943820	-0.901727	0.285103	99
39
Properties=species:S:1:pos:R:3:Z:I:1 energy=-338.7744148172605 field_type=dipole dipole="0.000000 0.000000 0.000000" charge=0
O	-2.240948	0.100865	1.257195	8
C	-1.166878	-0.150585	0.741535	6
N	-0.695758	-1.373085	0.310755	7
N	0.547182	-1.343705	-0.382395	7
C	0.977701	0.069335	-0.228995	6
C	0.277922	1.179215	-0.959345	6
C	-0.125228	0.851805	0.454815	6
H	-1.334788	-2.159025	0.245035	1
H	1.193941	-1.959965	0.119035	1
H	2.003922	0.234585	0.080225	1
H	0.824052	2.099824	-1.126685	1
H	-0.402868	0.919875	-1.762255	1
H	0.141752	1.530865	1.251075	1
Es	0.938851	-1.697810	-0.062871	99
Es	1.674823	0.170841	-0.029553	99
Es	0.468205	0.402209	0.266390	99
Es	-0.671850	-1.253355	0.627824	99
Es	-2.279958	0.405358	1.320807	99
Es	0.645881	1.793371	-1.058751	99
Es	-0.177901	1.002489	-1.490027	99
Es	-1.166766	-0.150732	0.741467	99
Es	-1.779110	-0.020744	1.308047	99
Es	-0.125134	0.851744	0.454659	99
Es	-0.651908	0.376825	0.575063	99
Es	-0.948017	-0.875423	0.320541	99
Es	-2.240647	0.100794	1.257052	99
Es	0.740939	0.571462	-0.764819	99
Es	-0.695881	-1.372868	0.310358	99
Es	-1.985170	0.042172	0.858600	99
Es	0.734188	-0.733192	-0.312328	99
Es	-0.098713	1.128167	-0.228507	99
Es	0.043948	1.309961	0.983440	99
Es	-2.397687	-0.159251	1.294259	99
Es	0.277923	1.179120	-0.959157	99
Es	0.509353	-1.436947	-0.721128	99
Es	0.977520	0.069283	-0.229046	99
Es	0.547196	-1.343474	-0.381693	99
Es	-0.091167	-1.363319	-0.020140	99
Es	-1.059987	-1.838215	0.254152	99
39
Properties=species:S:1:pos:R:3:Z:I:1 energy=-338.7744148172605 field_type=dipole dipole="0.000000 0.000000 0.000000" charge=0
O	-2.240948	0.100865	1.257195	8
C	-1.166878	-0.150585	0.741535	6
N	-0.695758	-1.373085	0.310755	7
N	0.547182	-1.343705	-0.382395	7
C	0.977701	0.069335	-0.228995	6
C	0.277922	1.179215	-0.959345	6
C	-0.125228	0.851805	0.454815	6
H	-1.334788	-2.159025	0.245035	1
H	1.193941	-1.959965	0.119035	1
H	2.003922	0.234585	0.080225	1
H	0.824052	2.099824	-1.126685	1
H	-0.402868	0.919875	-1.762255	1
H	0.141752	1.530865	1.251075	1
Es	-0.673493	-1.257545	0.610319	99
Es	-2.240667	0.100799	1.257063	99
Es	-0.695880	-1.372880	0.310351	99
Es	0.469071	0.403155	0.265961	99
Es	-1.779934	-0.019335	1.308625	99
Es	-0.652783	0.377195	0.574600	99
Es	-0.949533	-0.868371	0.333066	99
Es	0.508612	-1.433764	-0.718549	99
Es	-0.090815	-1.363482	-0.019516	99
Es	1.675021	0.170573	-0.031071	99
Es	-1.984832	0.042340	0.856570	99
Es	-2.296364	0.404086	1.329345	99
Es	0.644744	1.792372	-1.059490	99
Es	0.043153	1.309715	0.982172	99
Es	-0.175609	1.003441	-1.487829	99
Es	-2.380768	-0.159612	1.287560	99
Es	0.977516	0.069286	-0.229038	99
Es	0.547214	-1.343477	-0.381698	99
Es	-1.166762	-0.150734	0.741474	99
Es	0.277923	1.179113	-0.959143	99
Es	-1.057266	-1.839660	0.259699	99
Es	0.940511	-1.700252	-0.065516	99
Es	0.743072	0.568740	-0.766248	99
Es	-0.102252	1.128948	-0.225475	99
Es	-0.125131	0.851744	0.454653	99
Es	0.734184	-0.733930	-0.313244	99
39
Properties=species:S:1:pos:R:3:Z:I:1 energy=-338.7744148172605 field_type=dipole dipole="0.000000 0.000000 0.000000" charge=0
O	-2.240948	0.100865	1.257195	8
C	-1.166878	-0.150585	0.741535	6
N	-0.695758	-1.373085	0.310755	7
N	0.547182	-1.343705	-0.382395	7
C	0.977701	0.069335	-0.228995	6
C	0.277922	1.179215	-0.959345	6
C	-0.125228	0.851805	0.454815	6
H	-1.334788	-2.159025	0.245035	1
H	1.193941	-1.959965	0.119035	1
H	2.003922	0.234585	0.080225	1
H	0.824052	2.099824	-1.126685	1
H	-0.402868	0.919875	-1.762255	1
H	0.141752	1.530865	1.251075	1
Es	0.734200	-0.734229	-0.314155	99
Es	-0.090615	-1.363261	-0.018852	99
Es	-1.783350	-0.018586	1.310329	99
Es	-2.316436	0.397662	1.342394	99
Es	-2.361945	-0.159171	1.275051	99
Es	0.643986	1.791952	-1.060431	99
Es	-0.104319	1.129748	-0.224013	99
Es	0.042834	1.309253	0.981280	99
Es	0.277923	1.179109	-0.959138	99
Es	0.547186	-1.343466	-0.381649	99
Es	0.941509	-1.702010	-0.067740	99
Es	-1.980163	0.047491	0.854675	99
Es	-1.054162	-1.841719	0.265696	99
Es	0.977518	0.069284	-0.229041	99
Es	-0.653625	0.377186	0.574451	99
Es	-0.173908	1.003717	-1.485787	99
Es	1.675352	0.170375	-0.032223	99
Es	0.469613	0.403857	0.265639	99
Es	-2.240605	0.100834	1.257041	99
Es	-0.950977	-0.866390	0.337310	99
Es	0.743983	0.567058	-0.766881	99
Es	-0.695908	-1.372852	0.310356	99
Es	-0.125134	0.851745	0.454658	99
Es	-1.166766	-0.150733	0.741464	99
Es	0.508089	-1.431712	-0.716128	99
Es	-0.675346	-1.256680	0.600332	99
39
Properties=species:S:1:pos:R:3:Z:I:1 energy=-338.7744148172605 field_type=dipole dipole="0.000000 0.000000 0.000000" charge=0
O	-2.240948	0.100865	1.257195	8
C	-1.166878	-0.150585	0.741535	6
N	-0.695758	-1.373085	0.310755	7
N	0.547182	-1.343705	-0.382395	7
C	0.977701	0.069335	-0.228995	6
C	0.277922	1.179215	-0.959345	6
C	-0.125228	0.851805	0.454815	6
H	-1.334788	-2.159025	0.245035	1
H	1.193941	-1.959965	0.119035	1
H	2.003922	0.234585	0.080225	1
H	0.824052	2.099824	-1.126685	1
H	-0.402868	0.919875	-1.762255	1
H	0.141752	1.530865	1.251075	1
Es	-2.331262	0.393146	1.344693	99
Es	-0.676866	-1.259595	0.586953	99
Es	-0.696075	-1.372658	0.310132	99
Es	-1.052411	-1.842862	0.269781	99
Es	-0.172813	1.003909	-1.484737	99
Es	0.277923	1.179110	-0.959141	99
Es	-1.976466	0.045304	0.853679	99
Es	-0.125131	0.851743	0.454656	99
Es	-0.091270	-1.362903	-0.019740	99
Es	0.977519	0.069285	-0.229042	99
Es	1.675483	0.170096	-0.032724	99
Es	0.508205	-1.430482	-0.714860	99
Es	0.469927	0.403965	0.265656	99
Es	0.744470	0.566508	-0.767723	99
Es	-1.785745	-0.014545	1.313274	99
Es	0.042822	1.308714	0.980422	99
Es	-2.240582	0.100868	1.257033	99
Es	-0.950629	-0.862189	0.348055	99
Es	0.547201	-1.343463	-0.381645	99
Es	-0.105680	1.130271	-0.223158	99
Es	-0.654216	0.377291	0.574596	99
Es	-1.166767	-0.150732	0.741465	99
Es	0.734127	-0.734388	-0.314464	99
Es	0.643545	1.791517	-1.060826	99
Es	-2.348433	-0.156658	1.271003	99
Es	0.942055	-1.702786	-0.068701	99
39
Properties=species:S:1:pos:R:3:Z:I:1 energy=-338.7744148172605 field_type=dipole dipole="0.000000 0.000000 0.000000" charge=0
O	-2.240948	0.100865	1.257195	8
C	-1.166878	-0.150585	0.741535	6
N	-0.695758	-1.373085	0.310755	7
N	0.547182	-1.343705	-0.382395	7
C	0.977701	0.069335	-0.228995	6
C	0.277922	1.179215	-0.959345	6
C	-0.125228	0.851805	0.454815	6
H	-1.334788	-2.159025	0.245035	1
H	1.193941	-1.959965	0.119035	1
H	2.003922	0.234585	0.080225	1
H	0.824052	2.099824	-1.126685	1
H	-0.402868	0.919875	-1.762255	1
H	0.141752	1.530865	1.251075	1
Es	-0.106258	1.130413	-0.222692	99
Es	0.042799	1.308563	0.979991	99
Es	-1.788552	-0.013563	1.315312	99
Es	-0.695928	-1.372856	0.310251	99
Es	-0.951536	-0.862156	0.348559	99
Es	-2.240556	0.100869	1.257019	99
Es	-2.346790	0.385550	1.351274	99
Es	-0.678363	-1.257737	0.582252	99
Es	-0.171955	1.003968	-1.483294	99
Es	-2.334501	-0.152680	1.262720	99
Es	0.547185	-1.343471	-0.381666	99
Es	0.942365	-1.703316	-0.069478	99
Es	-0.654607	0.377287	0.574522	99
Es	-0.125137	0.851748	0.454655	99
Es	0.977517	0.069284	-0.229039	99
Es	0.469834	0.404411	0.265519	99
Es	1.675516	0.170022	-0.033066	99
Es	-1.972044	0.047865	0.853527	99
Es	0.277923	1.179111	-0.959141	99
Es	-1.050204	-1.844347	0.274139	99
Es	0.507985	-1.430044	-0.713577	99
Es	-0.091282	-1.362603	-0.019527	99
Es	0.744704	0.565668	-0.768214	99
Es	-1.166768	-0.150732	0.741461	99
Es	0.643359	1.791590	-1.061601	99
Es	0.734228	-0.734378	-0.315270	99
39
Properties=species:S:1:pos:R:3:Z:I:1 energy=-338.7744148172605 field_type=dipole dipole="0.000000 0.000000 0.000000" charge=0
O	-2.240948	0.100865	1.257195	8
C	-1.166878	-0.150585	0.741535	6
N	-0.695758	-1.373085	0.310755	7
N	0.547182	-1.343705	-0.382395	7
C	0.977701	0.069335	-0.228995	6
C	0.277922	1.179215	-0.959345	6
C	-0.125228	0.851805	0.454815	6
H	-1.334788	-2.159025	0.245035	1
H	1.193941	-1.959965	0.119035	1
H	2.003922	0.234585	0.080225	1
H	0.824052	2.099824	-1.126685	1
H	-0.402868	0.919875	-1.762255	1
H	0.141752	1.530865	1.251075	1
Es	0.643265	1.791719	-1.061906	99
Es	0.744507	0.565421	-0.768437	99
Es	0.734286	-0.734057	-0.315543	99
Es	0.277926	1.179113	-0.959147	99
Es	-0.951013	-0.860308	0.353988	99
Es	-0.680151	-1.258309	0.573822	99
Es	-0.655079	0.377392	0.574943	99
Es	-1.787619	-0.014301	1.314373	99
Es	0.942529	-1.703851	-0.070282	99
Es	-0.125138	0.851749	0.454652	99
Es	-2.240635	0.100718	1.257038	99
Es	-1.166768	-0.150732	0.741462	99
Es	-1.973641	0.050793	0.852432	99
Es	1.675648	0.169918	-0.033500	99
Es	0.470069	0.404391	0.265914	99
Es	0.042923	1.308185	0.979226	99
Es	-2.358780	0.377412	1.359080	99
Es	-0.106771	1.130554	-0.222767	99
Es	0.507667	-1.429643	-0.712691	99
Es	0.977518	0.069283	-0.229044	99
Es	-1.048920	-1.845596	0.277420	99
Es	-0.171239	1.004004	-1.482553	99
Es	0.547203	-1.343460	-0.381632	99
Es	-2.321778	-0.146634	1.256958	99
Es	-0.695890	-1.372869	0.310300	99
Es	-0.091186	-1.362426	-0.019467	99
39
Properties=species:S:1:pos:R:3:Z:I:1 energy=-338.7744148172605 field_type=dipole dipole="0.000000 0.000000 0.000000" charge=0
O	-2.240948	0.100865	1.257195	8
C	-1.166878	-0.150585	0.741535	6
N	-0.695758	-1.373085	0.310755	7
N	0.547182	-1.343705	-0.382395	7
C	0.977701	0.069335	-0.228995	6
C	0.277922	1.179215	-0.959345	6
C	-0.125228	0.851805	0.454815	6
H	-1.334788	-2.159025	0.245035	1
H	1.193941	-1.959965	0.119035	1
H	2.003922	0.234585	0.080225	1
H	0.824052	2.099824	-1.126685	1
H	-0.402868	0.919875	-1.762255	1
H	0.141752	1.530865	1.251075	1
Es	-0.680795	-1.257546	0.572250	99
Es	0.507328	-1.429373	-0.710890	99
Es	-1.968466	0.050491	0.852409	99
Es	-0.170808	1.004148	-1.481792	99
Es	-0.107243	1.130604	-0.222386	99
Es	1.675723	0.169849	-0.033820	99
Es	0.470086	0.404615	0.265694	99
Es	-0.951471	-0.860485	0.353676	99
Es	-2.315166	-0.143004	1.253263	99
Es	-2.366593	0.372916	1.360690	99
Es	-0.091014	-1.362587	-0.019091	99
Es	0.547204	-1.343461	-0.381622	99
Es	-0.695991	-1.372752	0.310204	99
Es	-1.166768	-0.150733	0.741461	99
Es	-0.125130	0.851742	0.454661	99
Es	0.643175	1.791686	-1.062242	99
Es	0.977516	0.069286	-0.229040	99
Es	-1.791532	-0.013331	1.316701	99
Es	0.942818	-1.704481	-0.071179	99
Es	0.744551	0.564964	-0.768685	99
Es	-0.655149	0.377364	0.574746	99
Es	0.042872	1.308137	0.979189	99
Es	0.277918	1.179110	-0.959139	99
Es	-1.047911	-1.845971	0.279289	99
Es	-2.240582	0.100863	1.257036	99
Es	0.734360	-0.733585	-0.316745	99
39
Properties=species:S:1:pos:R:3:Z:I:1 energy=-338.7744148172605 field_type=dipole dipole="0.000000 0.000000 0.000000" charge=0
O	-2.240948	0.100865	1.257195	8
C	-1.166878	-0.150585	0.741535	6
N	-0.695758	-1.373085	0.310755	7
N	0.547182	-1.343705	-0.382395	7
C	0.977701	0.069335	-0.228995	6
C	0.277922	1.179215	-0.959345	6
C	-0.125228	0.851805	0.454815	6
H	-1.334788	-2.159025	0.245035	1
H	1.193941	-1.959965	0.119035	1
H	2.003922	0.234585	0.080225	1
H	0.824052	2.099824	-1.126685	1
H	-0.402868	0.919875	-1.762255	1
H	0.141752	1.530865	1.251075	1
Es	0.042903	1.308026	0.978910	99
Es	0.643041	1.791691	-1.062455	99
Es	-1.166768	-0.150732	0.741462	99
Es	-0.170211	1.004141	-1.481239	99
Es	0.547184	-1.343465	-0.381641	99
Es	-1.972825	0.054594	0.852234	99
Es	0.734355	-0.733833	-0.316464	99
Es	-2.308617	-0.138595	1.249224	99
Es	-0.125137	0.851746	0.454656	99
Es	-0.695662	-1.373087	0.310664	99
Es	0.507350	-1.428982	-0.710884	99
Es	0.977516	0.069289	-0.229042	99
Es	-0.107824	1.130627	-0.222327	99
Es	0.277924	1.179113	-0.959145	99
Es	-2.372279	0.367073	1.366691	99
Es	-1.046486	-1.847077	0.282606	99
Es	-0.951142	-0.859349	0.357307	99
Es	-1.788019	-0.015943	1.314879	99
Es	0.744701	0.564869	-0.769048	99
Es	0.942908	-1.704673	-0.071431	99
Es	1.675561	0.169797	-0.033912	99
Es	-2.240644	0.100776	1.257047	99
Es	-0.682777	-1.257361	0.565119	99
Es	-0.655243	0.377343	0.574999	99
Es	-0.091101	-1.362303	-0.019281	99
Es	0.470227	0.404780	0.265710	99
39
Properties=species:S:1:pos:R:3:Z:I:1 energy=-338.7744148172605 field_type=dipole dipole="0.000000 0.000000 0.000000" charge=0
O	-2.240948	0.100865	1.257195	8
C	-1.166878	-0.150585	0.741535	6
N	-0.695758	-1.373085	0.310755	7
N	0.547182	-1.343705	-0.382395	7
C	0.977701	0.069335	-0.228995	6
C	0.277922	1.179215	-0.959345	6
C	-0.125228	0.851805	0.454815	6
H	-1.334788	-2.159025	0.245035	1
H	1.193941	-1.959965	0.119035	1
H	2.003922	0.234585	0.080225	1
H	0.824052	2.099824	-1.126685	1
H	-0.402868	0.919875	-1.762255	1
H	0.141752	1.530865	1.251075	1
Es	-0.125135	0.851746	0.454657	99
Es	0.641614	1.792084	-1.061846	99
Es	0.039904	1.311735	0.983619	99
Es	0.746619	0.564335	-0.768811	99
Es	-1.042931	-1.849631	0.290783	99
Es	0.977516	0.069281	-0.229033	99
Es	-2.118249	0.276248	1.241770	99
Es	-0.944611	-0.849752	0.388084	99
Es	-1.166768	-0.150733	0.741461	99
Es	-2.012425	0.017974	0.850049	99
Es	-0.695866	-1.372895	0.310319	99
Es	0.547189	-1.343465	-0.381658	99
Es	-0.692462	-1.265154	0.524617	99
Es	-0.649232	0.378951	0.571534	99
Es	0.736572	-0.735986	-0.315845	99
Es	-0.088306	-1.362657	-0.017790	99
Es	-2.240207	0.100088	1.256757	99
Es	-2.510227	0.051858	1.380639	99
Es	0.503734	-1.426284	-0.708673	99
Es	0.277925	1.179109	-0.959142	99
Es	1.671479	0.171208	-0.033169	99
Es	-0.171045	1.004949	-1.480399	99
Es	0.471011	0.402852	0.266566	99
Es	-1.800324	-0.076710	1.310736	99
Es	0.942670	-1.710000	-0.075869	99
Es	-0.109511	1.129315	-0.224717	99
39
Properties=species:S:1:pos:R:3:Z:I:1 energy=-338.7744148172605 field_type=dipole dipole="0.000000 0.000000 0.000000" charge=0
O	-2.240948	0.100865	1.257195	8
C	-1.166878	-0.150585	0.741535	6
N	-0.695758	-1.373085	0.310755	7
N	0.547182	-1.343705	-0.382395	7
C	0.977701	0.069335	-0.228995	6
C	0.277922	1.179215	-0.959345	6
C	-0.125228	0.851805	0.454815	6
H	-1.334788	-2.159025	0.245035	1
H	1.193941	-1.959965	0.119035	1
H	2.003922	0.234585	0.080225	1
H	0.824052	2.099824	-1.126685	1
H	-0.402868	0.919875	-1.762255	1
H	0.141752	1.530865	1.251075	1
Es	0.043074	1.307972	0.978567	99
Es	-2.384340	0.356512	1.372585	99
Es	-0.169748	1.004204	-1.480427	99
Es	-0.950352	-0.857856	0.361861	99
Es	0.277923	1.179105	-0.959135	99
Es	-0.108113	1.130536	-0.222309	99
Es	0.734536	-0.733417	-0.318091	99
Es	0.744598	0.564661	-0.769256	99
Es	1.675482	0.169894	-0.034152	99
Es	-0.684310	-1.258175	0.558297	99
Es	0.977518	0.069286	-0.229042	99
Es	0.470296	0.404812	0.265745	99
Es	-0.125132	0.851744	0.454658	99
Es	-0.655460	0.377405	0.575262	99
Es	0.943182	-1.705345	-0.072445	99
Es	0.547214	-1.343461	-0.381599	99
Es	-0.695890	-1.372867	0.310306	99
Es	0.506814	-1.428907	-0.708660	99
Es	-2.296712	-0.129011	1.243114	99
Es	-1.789642	-0.017378	1.316079	99
Es	-1.045436	-1.848015	0.285452	99
Es	-1.166768	-0.150732	0.741461	99
Es	-2.240556	0.100911	1.257046	99
Es	-0.091051	-1.362173	-0.019154	99
Es	0.642904	1.791877	-1.062824	99
Es	-1.971098	0.056882	0.851302	99
39
Properties=species:S:1:pos:R:3:Z:I:1 energy=-338.7744148172605 field_type=dipole dipole="0.000000 0.000000 0.000000" charge=0
O	-2.240948	0.100865	1.257195	8
C	-1.166878	-0.150585	0.741535	6
N	-0.695758	-1.373085	0.310755	7
N	0.547182	-1.343705	-0.382395	7
C	0.977701	0.069335	-0.228995	6
C	0.277922	1.179215	-0.959345	6
C	-0.125228	0.851805	0.454815	6
H	-1.334788	-2.159025	0.245035	1
H	1.193941	-1.959965	0.119035	1
H	2.003922	0.234585	0.080225	1
H	0.824052	2.099824	-1.126685	1
H	-0.402868	0.919875	-1.762255	1
H	0.141752	1.530865	1.251075	1
Es	-2.385533	0.356805	1.371511	99
Es	0.642753	1.791836	-1.062825	99
Es	-2.296038	-0.128486	1.243037	99
Es	-0.108101	1.130443	-0.222173	99
Es	-1.967363	0.055018	0.851601	99
Es	-1.044225	-1.848459	0.287557	99
Es	1.675704	0.169711	-0.034257	99
Es	0.506987	-1.428045	-0.708964	99
Es	-0.684995	-1.257735	0.556193	99
Es	0.277922	1.179111	-0.959141	99
Es	-2.240559	0.100888	1.257026	99
Es	0.043013	1.307955	0.978481	99
Es	0.734350	-0.733651	-0.317184	99
Es	-0.695976	-1.372770	0.310203	99
Es	0.547206	-1.343449	-0.381578	99
Es	0.744816	0.564486	-0.769346	99
Es	-1.792850	-0.016354	1.317006	99
Es	-0.655530	0.377443	0.575190	99
Es	0.943292	-1.705737	-0.072896	99
Es	-1.166769	-0.150732	0.741459	99
Es	-0.950684	-0.857927	0.362176	99
Es	-0.169738	1.004204	-1.480367	99
Es	-0.125139	0.851746	0.454654	99
Es	0.977517	0.069284	-0.229043	99
Es	-0.091266	-1.362015	-0.019412	99
Es	0.470142	0.404894	0.265728	99
39
Properties=species:S:1:pos:R:3:Z:I:1 energy=-338.7744148172605 field_type=dipole dipole="0.000000 0.000000 0.000000" charge=0
O	-2.240948	0.100865	1.257195	8
C	-1.166878	-0.150585	0.741535	6
N	-0.695758	-1.373085	0.310755	7
N	0.547182	-1.343705	-0.382395	7
C	0.977701	0.069335	-0.228995	6
C	0.277922	1.179215	-0.959345	6
C	-0.125228	0.851805	0.454815	6
H	-1.334788	-2.159025	0.245035	1
H	1.193941	-1.959965	0.119035	1
H	2.003922	0.234585	0.080225	1
H	0.824052	2.099824	-1.126685	1
H	-0.402868	0.919875	-1.762255	1
H	0.141752	1.530865	1.251075	1
Es	-0.951108	-0.858200	0.361494	99
Es	-1.043379	-1.848589	0.288839	99
Es	-0.091327	-1.362174	-0.019564	99
Es	0.977518	0.069288	-0.229043	99
Es	0.277924	1.179109	-0.959139	99
Es	-1.969135	0.055911	0.851332	99
Es	0.734492	-0.733562	-0.317235	99
Es	0.470466	0.405017	0.265434	99
Es	-2.293015	-0.126612	1.242290	99
Es	-1.166770	-0.150733	0.741455	99
Es	-0.169161	1.004158	-1.479642	99
Es	0.547196	-1.343462	-0.381639	99
Es	-0.655606	0.377452	0.575233	99
Es	-2.240621	0.100832	1.257041	99
Es	-1.791237	-0.016215	1.316659	99
Es	0.507013	-1.428147	-0.708937	99
Es	0.042980	1.308080	0.978389	99
Es	0.642674	1.791869	-1.063264	99
Es	1.675527	0.169767	-0.034404	99
Es	-0.125140	0.851748	0.454650	99
Es	-0.685431	-1.257144	0.555557	99
Es	0.943207	-1.705691	-0.072857	99
Es	-0.695873	-1.372927	0.310327	99
Es	0.744789	0.564357	-0.769441	99
Es	-2.388302	0.353967	1.372902	99
Es	-0.108747	1.130370	-0.221796	99
39
Properties=species:S:1:pos:R:3:Z:I:1 energy=-338.7744148172605 field_type=dipole dipole="0.000000 0.000000 0.000000" charge=0
O	-2.240948	0.100865	1.257195	8
C	-1.166878	-0.150585	0.741535	6
N	-0.695758	-1.373085	0.310755	7
N	0.547182	-1.343705	-0.382395	7
C	0.977701	0.069335	-0.228995	6
C	0.277922	1.179215	-0.959345	6
C	-0.125228	0.851805	0.454815	6
H	-1.334788	-2.159025	0.245035	1
H	1.193941	-1.959965	0.119035	1
H	2.003922	0.234585	0.080225	1
H	0.824052	2.099824	-1.126685	1
H	-0.402868	0.919875	-1.762255	1
H	0.141752	1.530865	1.251075	1
Es	-0.169179	1.004254	-1.479736	99
Es	0.470235	0.404832	0.266019	99
Es	-0.091178	-1.361888	-0.019217	99
Es	0.977519	0.069286	-0.229044	99
Es	-1.965475	0.055308	0.851616	99
Es	-2.240571	0.100882	1.257034	99
Es	-0.125138	0.851749	0.454656	99
Es	0.744760	0.564218	-0.769454	99
Es	-0.695893	-1.372870	0.310299	99
Es	0.277924	1.179112	-0.959146	99
Es	-1.794090	-0.016450	1.318380	99
Es	-0.108503	1.130655	-0.222282	99
Es	-2.389115	0.353879	1.371988	99
Es	-0.950767	-0.857353	0.364237	99
Es	-0.655757	0.377503	0.575240	99
Es	0.642644	1.791658	-1.063129	99
Es	0.547162	-1.343488	-0.381732	99
Es	-1.042955	-1.848743	0.289598	99
Es	0.042954	1.307931	0.978147	99
Es	1.675665	0.169782	-0.034502	99
Es	-1.166769	-0.150732	0.741458	99
Es	-2.293038	-0.125778	1.241272	99
Es	0.734552	-0.733847	-0.316937	99
Es	0.943235	-1.705840	-0.073107	99
Es	0.506979	-1.427811	-0.709073	99
Es	-0.686266	-1.257783	0.552053	99
39
Properties=species:S:1:pos:R:3:Z:I:1 energy=-338.7744148172605 field_type=dipole dipole="0.000000 0.000000 0.000000" charge=0
O	-2.240948	0.100865	1.257195	8
C	-1.166878	-0.150585	0.741535	6
N	-0.695758	-1.373085	0.310755	7
N	0.547182	-1.343705	-0.382395	7
C	0.977701	0.069335	-0.228995	6
C	0.277922	1.179215	-0.959345	6
C	-0.125228	0.851805	0.454815	6
H	-1.334788	-2.159025	0.245035	1
H	1.193941	-1.959965	0.119035	1
H	2.003922	0.234585	0.080225	1
H	0.824052	2.099824	-1.126685	1
H	-0.402868	0.919875	-1.762255	1
H	0.141752	1.530865	1.251075	1
Es	-0.125141	0.851746	0.454661	99
Es	-2.240407	0.100899	1.256953	99
Es	-2.392596	0.350013	1.374814	99
Es	-0.091237	-1.362118	-0.019372	99
Es	0.734341	-0.733886	-0.316487	99
Es	-1.792366	-0.017572	1.317290	99
Es	-2.288915	-0.121724	1.239999	99
Es	-1.042753	-1.849199	0.290603	99
Es	-0.695921	-1.372844	0.310254	99
Es	0.547185	-1.343462	-0.381626	99
Es	0.977516	0.069286	-0.229036	99
Es	-0.686988	-1.258061	0.549351	99
Es	1.675602	0.169714	-0.034403	99
Es	0.642591	1.791917	-1.063609	99
Es	0.744722	0.564085	-0.769744	99
Es	0.470316	0.405052	0.265726	99
Es	0.277925	1.179113	-0.959139	99
Es	0.507026	-1.427395	-0.709224	99
Es	-0.108684	1.130770	-0.222120	99
Es	-0.168958	1.004212	-1.479055	99
Es	-1.166770	-0.150732	0.741457	99
Es	0.042973	1.307749	0.978237	99
Es	-0.655643	0.377423	0.575212	99
Es	0.943348	-1.706001	-0.073339	99
Es	-1.968006	0.056236	0.851219	99
Es	-0.950226	-0.856755	0.366014	99
39
Properties=species:S:1:pos:R:3:Z:I:1 energy=-338.7744148172605 field_type=dipole dipole="0.000000 0.000000 0.000000" charge=0
O	-2.240948	0.100865	1.257195	8
C	-1.166878	-0.150585	0.741535	6
N	-0.695758	-1.373085	0.310755	7
N	0.547182	-1.343705	-0.382395	7
C	0.977701	0.069335	-0.228995	6
C	0.277922	1.179215	-0.959345	6
C	-0.125228	0.851805	0.454815	6
H	-1.334788	-2.159025	0.245035	1
H	1.193941	-1.959965	0.119035	1
H	2.003922	0.234585	0.080225	1
H	0.824052	2.099824	-1.126685	1
H	-0.402868	0.919875	-1.762255	1
H	0.141752	1.530865	1.251075	1
Es	-0.168806	1.004136	-1.478985	99
Es	0.745009	0.563989	-0.769645	99
Es	-1.791298	-0.018572	1.316596	99
Es	0.642459	1.791814	-1.063684	99
Es	-1.166768	-0.150732	0.741461	99
Es	-0.687844	-1.257679	0.547196	99
Es	0.734362	-0.733993	-0.316467	99
Es	0.277921	1.179109	-0.959137	99
Es	-0.091232	-1.361979	-0.019409	99
Es	0.547195	-1.343459	-0.381650	99
Es	0.977514	0.069284	-0.229039	99
Es	-0.655788	0.377351	0.575267	99
Es	1.675601	0.169673	-0.034439	99
Es	0.507087	-1.427674	-0.709670	99
Es	0.470396	0.405299	0.265155	99
Es	-1.041456	-1.849350	0.292488	99
Es	-2.391576	0.350082	1.375977	99
Es	0.043027	1.307630	0.978185	99
Es	-0.125136	0.851746	0.454657	99
Es	-0.109008	1.130865	-0.221585	99
Es	-1.969493	0.057561	0.851080	99
Es	-0.695873	-1.372898	0.310317	99
Es	-0.950683	-0.856868	0.366411	99
Es	-2.289368	-0.122060	1.239546	99
Es	0.943275	-1.705670	-0.073023	99
Es	-2.240585	0.100862	1.257034	99
39
Properties=species:S:1:pos:R:3:Z:I:1 energy=-338.7744148172605 field_type=dipole dipole="0.000000 0.000000 0.000000" charge=0
O	-2.240948	0.100865	1.257195	8
C	-1.166878	-0.150585	0.741535	6
N	-0.695758	-1.373085	0.310755	7
N	0.547182	-1.343705	-0.382395	7
C	0.977701	0.069335	-0.228995	6
C	0.277922	1.179215	-0.959345	6
C	-0.125228	0.851805	0.454815	6
H	-1.334788	-2.159025	0.245035	1
H	1.193941	-1.959965	0.119035	1
H	2.003922	0.234585	0.080225	1
H	0.824052	2.099824	-1.126685	1
H	-0.402868	0.919875	-1.762255	1
H	0.141752	1.530865	1.251075	1
Es	0.734477	-0.733176	-0.318472	99
Es	-1.166769	-0.150732	0.741459	99
Es	-0.091248	-1.362004	-0.019400	99
Es	-1.965789	0.056250	0.850967	99
Es	0.744951	0.563903	-0.769758	99
Es	-2.287357	-0.120348	1.238968	99
Es	-1.794433	-0.017464	1.317885	99
Es	0.642433	1.791755	-1.063607	99
Es	0.042956	1.307755	0.978183	99
Es	0.547190	-1.343465	-0.381637	99
Es	-0.125135	0.851745	0.454656	99
Es	0.977518	0.069285	-0.229046	99
Es	1.675615	0.169648	-0.034542	99
Es	0.506840	-1.428561	-0.707839	99
Es	0.277921	1.179114	-0.959143	99
Es	0.943401	-1.705632	-0.072907	99
Es	-2.394145	0.348553	1.375423	99
Es	-0.950623	-0.856825	0.366140	99
Es	-0.655701	0.377426	0.575253	99
Es	-2.240569	0.100880	1.257033	99
Es	0.470438	0.405094	0.265384	99
Es	-0.687240	-1.257993	0.548591	99
Es	-0.695945	-1.372822	0.310233	99
Es	-0.109277	1.130819	-0.221815	99
Es	-1.041986	-1.849002	0.291434	99
Es	-0.168587	1.004263	-1.478803	99
39
Properties=species:S:1:pos:R:3:Z:I:1 energy=-338.7744148172605 field_type=dipole dipole="0.000000 0.000000 0.000000" charge=0
O	-2.240948	0.100865	1.257195	8
C	-1.166878	-0.150585	0.741535	6
N	-0.695758	-1.373085	0.310755	7
N	0.547182	-1.343705	-0.382395	7
C	0.977701	0.069335	-0.228995	6
C	0.277922	1.179215	-0.959345	6
C	-0.125228	0.851805	0.454815	6
H	-1.334788	-2.159025	0.245035	1
H	1.193941	-1.959965	0.119035	1
H	2.003922	0.234585	0.080225	1
H	0.824052	2.099824	-1.126685	1
H	-0.402868	0.919875	-1.762255	1
H	0.141752	1.530865	1.251075	1
Es	0.506889	-1.427380	-0.708714	99
Es	0.943396	-1.706162	-0.073622	99
Es	0.547207	-1.343457	-0.381625	99
Es	0.744756	0.563805	-0.769647	99
Es	-0.090943	-1.362182	-0.018908	99
Es	-1.041219	-1.849557	0.293181	99
Es	0.734465	-0.733828	-0.316980	99
Es	-1.795660	-0.018390	1.318092	99
Es	-0.696026	-1.372695	0.310200	99
Es	0.642690	1.791675	-1.063491	99
Es	-2.286340	-0.118387	1.238113	99
Es	-0.655841	0.377498	0.575376	99
Es	0.977517	0.069285	-0.229041	99
Es	-1.166767	-0.150732	0.741459	99
Es	-0.125137	0.851747	0.454656	99
Es	-2.394964	0.347667	1.376224	99
Es	-0.168588	1.004379	-1.478908	99
Es	-0.688052	-1.257169	0.547468	99
Es	0.277924	1.179107	-0.959136	99
Es	1.675577	0.169730	-0.034565	99
Es	-1.964744	0.056048	0.850881	99
Es	0.470533	0.405157	0.265063	99
Es	0.043104	1.307679	0.978023	99
Es	-0.109436	1.130888	-0.221556	99
Es	-2.240557	0.100900	1.257026	99
Es	-0.950852	-0.857159	0.365072	99
39
Properties=species:S:1:pos:R:3:Z:I:1 energy=-338.7744148172605 field_type=dipole dipole="0.000000 0.000000 0.000000" charge=0
O	-2.240948	0.100865	1.257195	8
C	-1.166878	-0.150585	0.741535	6
N	-0.695758	-1.373085	0.310755	7
N	0.547182	-1.343705	-0.382395	7
C	0.977701	0.069335	-0.228995	6
C	0.277922	1.179215	-0.959345	6
C	-0.125228	0.851805	0.454815	6
H	-1.334788	-2.159025	0.245035	1
H	1.193941	-1.959965	0.119035	1
H	2.003922	0.234585	0.080225	1
H	0.824052	2.099824	-1.126685	1
H	-0.402868	0.919875	-1.762255	1
H	0.141752	1.530865	1.251075	1
Es	-0.655936	0.377474	0.575318	99
Es	-0.950586	-0.856664	0.366801	99
Es	0.943484	-1.706328	-0.073678	99
Es	-1.166769	-0.150733	0.741459	99
Es	-0.109211	1.130783	-0.221751	99
Es	0.506869	-1.427316	-0.708333	99
Es	-1.794891	-0.016738	1.317428	99
Es	0.470487	0.405051	0.265496	99
Es	-2.240606	0.100822	1.257037	99
Es	-0.125132	0.851742	0.454661	99
Es	0.977518	0.069285	-0.229042	99
Es	-0.091140	-1.361940	-0.019244	99
Es	0.642316	1.791720	-1.063564	99
Es	0.734446	-0.733864	-0.317205	99
Es	0.745027	0.563944	-0.770009	99
Es	-2.396208	0.346457	1.376496	99
Es	-0.688503	-1.257428	0.545664	99
Es	0.043029	1.307686	0.977961	99
Es	-0.168489	1.004368	-1.478648	99
Es	1.675519	0.169667	-0.034577	99
Es	0.277925	1.179106	-0.959138	99
Es	-1.965667	0.055960	0.850552	99
Es	-0.695699	-1.373035	0.310599	99
Es	0.547198	-1.343459	-0.381638	99
Es	-2.284918	-0.118630	1.238769	99
Es	-1.041128	-1.849461	0.293223	99
39
Properties=species:S:1:pos:R:3:Z:I:1 energy=-338.7744148172605 field_type=dipole dipole="0.000000 0.000000 0.000000" charge=0
O	-2.240948	0.100865	1.257195	8
C	-1.166878	-0.150585	0.741535	6
N	-0.695758	-1.373085	0.310755	7
N	0.547182	-1.343705	-0.382395	7
C	0.977701	0.069335	-0.228995	6
C	0.277922	1.179215	-0.959345	6
C	-0.125228	0.851805	0.454815	6
H	-1.334788	-2.159025	0.245035	1
H	1.193941	-1.959965	0.119035	1
H	2.003922	0.234585	0.080225	1
H	0.824052	2.099824	-1.126685	1
H	-0.402868	0.919875	-1.762255	1
H	0.141752	1.530865	1.251075	1
Es	-1.040684	-1.849608	0.294053	99
Es	0.642325	1.791712	-1.063837	99
Es	0.506951	-1.427632	-0.708288	99
Es	0.744922	0.563706	-0.769726	99
Es	0.470490	0.405145	0.265407	99
Es	-0.091246	-1.361998	-0.019361	99
Es	0.977518	0.069285	-0.229044	99
Es	0.042869	1.307780	0.978168	99
Es	-0.109299	1.130865	-0.221626	99
Es	-2.240618	0.100824	1.257042	99
Es	-0.655819	0.377481	0.575069	99
Es	-1.963629	0.055733	0.851259	99
Es	0.943417	-1.706037	-0.073475	99
Es	-2.397755	0.345820	1.375964	99
Es	-0.125135	0.851744	0.454659	99
Es	-0.696024	-1.372728	0.310154	99
Es	-0.688247	-1.257296	0.546421	99
Es	-2.284030	-0.117433	1.237732	99
Es	-0.950862	-0.857018	0.365728	99
Es	-1.796221	-0.017089	1.318365	99
Es	0.547155	-1.343487	-0.381726	99
Es	-1.166769	-0.150732	0.741458	99
Es	-0.168381	1.004297	-1.478388	99
Es	1.675653	0.169685	-0.034787	99
Es	0.734428	-0.733661	-0.317443	99
Es	0.277923	1.179108	-0.959140	99
39
Properties=species:S:1:pos:R:3:Z:I:1 energy=-338.7744148172605 field_type=dipole dipole="0.000000 0.000000 0.000000" charge=0
O	-2.240948	0.100865	1.257195	8
C	-1.166878	-0.150585	0.741535	6
N	-0.695758	-1.373085	0.310755	7
N	0.547182	-1.343705	-0.382395	7
C	0.977701	0.069335	-0.228995	6
C	0.277922	1.179215	-0.959345	6
C	-0.125228	0.851805	0.454815	6
H	-1.334788	-2.159025	0.245035	1
H	1.193941	-1.959965	0.119035	1
H	2.003922	0.234585	0.080225	1
H	0.824052	2.099824	-1.126685	1
H	-0.402868	0.919875	-1.762255	1
H	0.141752	1.530865	1.251075	1
Es	-1.964918	0.057322	0.851057	99
Es	-0.125133	0.851743	0.454660	99
Es	0.506781	-1.427883	-0.707982	99
Es	0.277911	1.179096	-0.959133	99
Es	-0.689226	-1.258023	0.542703	99
Es	-2.399127	0.343619	1.377589	99
Es	-0.109356	1.130731	-0.221896	99
Es	-2.282445	-0.115193	1.236282	99
Es	-1.166768	-0.150732	0.741461	99
Es	-0.950185	-0.856032	0.368991	99
Es	-0.168358	1.004422	-1.478518	99
Es	0.470408	0.405119	0.265652	99
Es	-0.695846	-1.372917	0.310354	99
Es	-0.655768	0.377514	0.575424	99
Es	0.547186	-1.343465	-0.381640	99
Es	0.943475	-1.706034	-0.073456	99