37
Properties=species:S:1:pos:R:3:Z:I:1 energy=-321.5927078413141 field_type=dipole dipole="0.000000 0.000000 0.000000" charge=0
O	-2.122521	0.094423	0.612814	8
C	-0.687461	0.180763	0.560424	6
C	-0.209082	-0.528827	-0.709456	6
C	1.242259	-0.779707	-0.699216	6
C	2.425569	-0.982367	-0.695076	6
C	-0.248372	1.591422	0.587984	6
N	0.068849	2.707002	0.641594	7
H	-2.418111	0.649622	1.356954	1
H	-0.308331	-0.338928	1.448304	1
H	-0.484421	0.052433	-1.598786	1
H	-0.735742	-1.486697	-0.807746	1
H	3.477369	-1.159137	-0.697796	1
Es	-0.248466	1.591083	0.587969	99
Es	0.068726	2.706580	0.641574	99
Es	0.542794	-0.649363	-0.693911	99
Es	1.241954	-0.779659	-0.699217	99
Es	-0.687650	0.180943	0.560366	99
Es	1.881369	-0.658360	-0.967644	99
Es	-2.258129	0.393999	1.015123	99
Es	0.168959	3.058413	0.657449	99
Es	-0.449015	0.936328	0.569638	99
Es	-0.376335	-0.136181	-1.291391	99
Es	3.108938	-1.098278	-0.695748	99
Es	-0.428702	-0.151794	-0.069532	99
Es	-2.122327	0.094591	0.613030	99
Es	-2.170836	-0.195604	0.687297	99
Es	0.210850	2.105275	0.550505	99
Es	1.777403	-1.230112	-0.755070	99
Es	2.425797	-0.982410	-0.695070	99
Es	-0.417101	-0.146531	1.155312	99
Es	-0.170793	2.211482	0.912377	99
Es	-1.564855	0.161067	0.607072	99
Es	-2.225565	0.224681	0.355724	99
Es	1.848010	-0.759015	-0.357741	99
Es	-0.543654	-1.163297	-0.758538	99
Es	-0.276221	2.262980	0.389893	99
Es	-0.208951	-0.528804	-0.709375	99
37
Properties=species:S:1:pos:R:3:Z:I:1 energy=-321.5927078413141 field_type=dipole dipole="0.000000 0.000000 0.000000" charge=0
O	-2.122521	0.094423	0.612814	8
C	-0.687461	0.180763	0.560424	6
C	-0.209082	-0.528827	-0.709456	6
C	1.242259	-0.779707	-0.699216	6
C	2.425569	-0.982367	-0.695076	6
C	-0.248372	1.591422	0.587984	6
N	0.068849	2.707002	0.641594	7
H	-2.418111	0.649622	1.356954	1
H	-0.308331	-0.338928	1.448304	1
H	-0.484421	0.052433	-1.598786	1
H	-0.735742	-1.486697	-0.807746	1
H	3.477369	-1.159137	-0.697796	1
Es	-0.095861	2.194681	0.903549	99
Es	-0.417729	-0.146166	1.153570	99
Es	2.425801	-0.982410	-0.695071	99
Es	1.900375	-0.524442	-0.686340	99
Es	-0.428808	-0.151923	-0.070311	99
Es	1.807636	-1.063266	-0.395342	99
Es	-0.376074	-0.137368	-1.287581	99
Es	0.170931	3.058613	0.661028	99
Es	3.110147	-1.098284	-0.696448	99
Es	-0.449457	0.937321	0.570315	99
Es	-2.261713	0.398548	1.009025	99
Es	0.068723	2.706565	0.641573	99
Es	-0.248477	1.591080	0.587968	99
Es	-0.546519	-1.163332	-0.759430	99
Es	1.241949	-0.779660	-0.699213	99
Es	-2.122285	0.094599	0.613070	99
Es	-2.180687	-0.200029	0.681863	99
Es	-0.337893	2.273169	0.458095	99
Es	-1.561532	0.160866	0.606477	99
Es	0.197323	2.111358	0.487146	99
Es	1.798679	-1.058762	-0.998951	99
Es	0.544729	-0.649648	-0.693713	99
Es	-0.208949	-0.528805	-0.709377	99
Es	-0.687645	0.180944	0.560368	99
Es	-2.216463	0.224363	0.367822	99
37
Properties=species:S:1:pos:R:3:Z:I:1 energy=-321.5927078413141 field_type=dipole dipole="0.000000 0.000000 0.000000" charge=0
O	-2.122521	0.094423	0.612814	8
C	-0.687461	0.180763	0.560424	6
C	-0.209082	-0.528827	-0.709456	6
C	1.242259	-0.779707	-0.699216	6
C	2.425569	-0.982367	-0.695076	6
C	-0.248372	1.591422	0.587984	6
N	0.068849	2.707002	0.641594	7
H	-2.418111	0.649622	1.356954	1
H	-0.308331	-0.338928	1.448304	1
H	-0.484421	0.052433	-1.598786	1
H	-0.735742	-1.486697	-0.807746	1
H	3.477369	-1.159137	-0.697796	1
Es	-0.079981	2.216911	0.352611	99
Es	3.110667	-1.098302	-0.695509	99
Es	-0.248466	1.591079	0.587956	99
Es	-2.188888	-0.201207	0.674744	99
Es	0.068722	2.706562	0.641573	99
Es	-0.208950	-0.528805	-0.709376	99
Es	1.814642	-1.009145	-0.381228	99
Es	0.200867	2.102493	0.742593	99
Es	-0.429006	-0.151826	-0.070806	99
Es	-2.208095	0.225376	0.376998	99
Es	0.172387	3.058147	0.657727	99
Es	-0.448841	0.937798	0.567771	99
Es	-1.559594	0.157935	0.607417	99
Es	0.545647	-0.649261	-0.694085	99
Es	1.790375	-1.110705	-0.965463	99
Es	-0.687649	0.180944	0.560368	99
Es	-2.264249	0.401513	1.005939	99
Es	-0.547714	-1.163083	-0.759819	99
Es	1.241947	-0.779659	-0.699204	99
Es	-0.375933	-0.138288	-1.285672	99
Es	-0.418025	-0.146075	1.152672	99
Es	1.901629	-0.526527	-0.734856	99
Es	2.425803	-0.982416	-0.695061	99
Es	-0.358805	2.260007	0.759709	99
Es	-2.122289	0.094545	0.613092	99
37
Properties=species:S:1:pos:R:3:Z:I:1 energy=-321.5927078413141 field_type=dipole dipole="0.000000 0.000000 0.000000" charge=0
O	-2.122521	0.094423	0.612814	8
C	-0.687461	0.180763	0.560424	6
C	-0.209082	-0.528827	-0.709456	6
C	1.242259	-0.779707	-0.699216	6
C	2.425569	-0.982367	-0.695076	6
C	-0.248372	1.591422	0.587984	6
N	0.068849	2.707002	0.641594	7
H	-2.418111	0.649622	1.356954	1
H	-0.308331	-0.338928	1.448304	1
H	-0.484421	0.052433	-1.598786	1
H	-0.735742	-1.486697	-0.807746	1
H	3.477369	-1.159137	-0.697796	1
Es	0.068722	2.706564	0.641573	99
Es	-0.418150	-0.145928	1.152344	99
Es	-0.248470	1.591084	0.587957	99
Es	2.425807	-0.982414	-0.695069	99
Es	-0.429034	-0.151878	-0.071184	99
Es	-0.362361	2.261174	0.757443	99
Es	1.901524	-0.524680	-0.727281	99
Es	0.546124	-0.649270	-0.694441	99
Es	-2.206572	0.223011	0.379363	99
Es	-0.548497	-1.162875	-0.759994	99
Es	-2.190433	-0.200914	0.675561	99
Es	1.241945	-0.779656	-0.699215	99
Es	-2.265181	0.403756	1.003155	99
Es	-0.449154	0.938209	0.567554	99
Es	-2.122329	0.094592	0.613027	99
Es	0.172705	3.057592	0.657516	99
Es	0.210114	2.099124	0.727331	99
Es	3.110922	-1.098317	-0.695314	99
Es	1.790313	-1.111664	-0.965119	99
Es	1.814853	-1.009773	-0.389002	99
Es	-0.208955	-0.528806	-0.709383	99
Es	-0.085383	2.219259	0.370524	99
Es	-1.558877	0.157625	0.606966	99
Es	-0.687647	0.180943	0.560367	99
Es	-0.375786	-0.138744	-1.284590	99
37
Properties=species:S:1:pos:R:3:Z:I:1 energy=-321.5927078413141 field_type=dipole dipole="0.000000 0.000000 0.000000" charge=0
O	-2.122521	0.094423	0.612814	8
C	-0.687461	0.180763	0.560424	6
C	-0.209082	-0.528827	-0.709456	6
C	1.242259	-0.779707	-0.699216	6
C	2.425569	-0.982367	-0.695076	6
C	-0.248372	1.591422	0.587984	6
N	0.068849	2.707002	0.641594	7
H	-2.418111	0.649622	1.356954	1
H	-0.308331	-0.338928	1.448304	1
H	-0.484421	0.052433	-1.598786	1
H	-0.735742	-1.486697	-0.807746	1
H	3.477369	-1.159137	-0.697796	1
Es	1.837736	-0.861210	-1.015960	99
Es	-2.122318	0.094607	0.613071	99
Es	0.208962	2.105461	0.496624	99
Es	-0.548845	-1.162493	-0.759956	99
Es	-0.418132	-0.145921	1.152087	99
Es	-0.248482	1.591071	0.587967	99
Es	1.785107	-1.212787	-0.553807	99
Es	-0.450095	0.938469	0.570700	99
Es	0.546473	-0.649629	-0.695524	99
Es	-0.368511	2.279177	0.496013	99
Es	-2.203553	0.224320	0.383491	99
Es	3.111349	-1.096670	-0.696845	99
Es	-0.079631	2.196402	0.852712	99
Es	0.068722	2.706564	0.641574	99
Es	1.241944	-0.779658	-0.699220	99
Es	1.883631	-0.573373	-0.509109	99
Es	-0.429028	-0.151921	-0.071609	99
Es	-0.375947	-0.138966	-1.284035	99
Es	0.175338	3.055723	0.664409	99
Es	-0.208951	-0.528807	-0.709375	99
Es	-0.687646	0.180941	0.560374	99
Es	-1.558135	0.156832	0.607439	99
Es	-2.193314	-0.200916	0.671024	99
Es	2.425807	-0.982409	-0.695070	99
Es	-2.266281	0.403205	1.003115	99
37
Properties=species:S:1:pos:R:3:Z:I:1 energy=-321.5927078413141 field_type=dipole dipole="0.000000 0.000000 0.000000" charge=0
O	-2.122521	0.094423	0.612814	8
C	-0.687461	0.180763	0.560424	6
C	-0.209082	-0.528827	-0.709456	6
C	1.242259	-0.779707	-0.699216	6
C	2.425569	-0.982367	-0.695076	6
C	-0.248372	1.591422	0.587984	6
N	0.068849	2.707002	0.641594	7
H	-2.418111	0.649622	1.356954	1
H	-0.308331	-0.338928	1.448304	1
H	-0.484421	0.052433	-1.598786	1
H	-0.735742	-1.486697	-0.807746	1
H	3.477369	-1.159137	-0.697796	1
Es	-0.075580	2.217172	0.394395	99
Es	2.425806	-0.982413	-0.695075	99
Es	0.175172	3.055619	0.659255	99
Es	1.882789	-0.576287	-0.502215	99
Es	3.111439	-1.096773	-0.696377	99
Es	-0.248464	1.591087	0.587953	99
Es	-0.687648	0.180945	0.560366	99
Es	-2.267450	0.403946	1.002574	99
Es	-1.557890	0.155765	0.608320	99
Es	-2.201345	0.224335	0.385194	99
Es	-0.375726	2.266321	0.734598	99
Es	-0.375554	-0.139460	-1.283196	99
Es	1.784616	-1.215233	-0.563158	99
Es	-0.429083	-0.151844	-0.071783	99
Es	-0.208953	-0.528806	-0.709378	99
Es	1.839071	-0.855656	-1.013365	99
Es	-2.194715	-0.200513	0.668832	99
Es	-0.549220	-1.162341	-0.760502	99
Es	0.212238	2.097250	0.725546	99
Es	0.068722	2.706563	0.641573	99
Es	-2.122289	0.094547	0.613121	99
Es	-0.449991	0.938765	0.567036	99
Es	1.241943	-0.779663	-0.699216	99
Es	0.546696	-0.649601	-0.696265	99
Es	-0.418382	-0.145713	1.151858	99
37
Properties=species:S:1:pos:R:3:Z:I:1 energy=-321.5927078413141 field_type=dipole dipole="0.000000 0.000000 0.000000" charge=0
O	-2.122521	0.094423	0.612814	8
C	-0.687461	0.180763	0.560424	6
C	-0.209082	-0.528827	-0.709456	6
C	1.242259	-0.779707	-0.699216	6
C	2.425569	-0.982367	-0.695076	6
C	-0.248372	1.591422	0.587984	6
N	0.068849	2.707002	0.641594	7
H	-2.418111	0.649622	1.356954	1
H	-0.308331	-0.338928	1.448304	1
H	-0.484421	0.052433	-1.598786	1
H	-0.735742	-1.486697	-0.807746	1
H	3.477369	-1.159137	-0.697796	1
Es	0.175906	3.054670	0.665415	99
Es	-2.267939	0.403561	1.002555	99
Es	-0.074114	2.197672	0.825181	99
Es	-2.199391	-0.201977	0.662146	99
Es	-0.418262	-0.145795	1.151876	99
Es	-0.379056	2.280682	0.515902	99
Es	-0.687648	0.180944	0.560366	99
Es	-0.549569	-1.162221	-0.760427	99
Es	-1.557549	0.155041	0.608916	99
Es	-0.429138	-0.151786	-0.071834	99
Es	1.891551	-0.543159	-0.570173	99
Es	3.111453	-1.097208	-0.696340	99
Es	1.791965	-1.173748	-0.492218	99
Es	-0.375543	-0.139542	-1.282891	99
Es	-2.122264	0.094591	0.613095	99
Es	0.213580	2.103444	0.503752	99
Es	1.823074	-0.929473	-1.016946	99
Es	1.241942	-0.779664	-0.699219	99
Es	-0.208951	-0.528807	-0.709374	99
Es	-2.196643	0.226860	0.391322	99
Es	-0.248476	1.591084	0.587980	99
Es	0.068723	2.706569	0.641575	99
Es	0.546799	-0.649973	-0.695732	99
Es	-0.450056	0.938657	0.570237	99
Es	2.425808	-0.982409	-0.695073	99
37
Properties=species:S:1:pos:R:3:Z:I:1 energy=-321.5927078413141 field_type=dipole dipole="0.000000 0.000000 0.000000" charge=0
O	-2.122521	0.094423	0.612814	8
C	-0.687461	0.180763	0.560424	6
C	-0.209082	-0.528827	-0.709456	6
C	1.242259	-0.779707	-0.699216	6
C	2.425569	-0.982367	-0.695076	6
C	-0.248372	1.591422	0.587984	6
N	0.068849	2.707002	0.641594	7
H	-2.418111	0.649622	1.356954	1
H	-0.308331	-0.338928	1.448304	1
H	-0.484421	0.052433	-1.598786	1
H	-0.735742	-1.486697	-0.807746	1
H	3.477369	-1.159137	-0.697796	1
Es	-1.557262	0.154557	0.609313	99
Es	2.425811	-0.982408	-0.695069	99
Es	-0.208950	-0.528806	-0.709375	99
Es	-0.377389	2.281139	0.509589	99
Es	1.241941	-0.779662	-0.699215	99
Es	-0.450637	0.938976	0.570630	99
Es	1.889940	-0.548871	-0.556598	99
Es	-2.200250	-0.201557	0.661799	99
Es	-0.418327	-0.145697	1.151676	99
Es	-2.268985	0.405023	1.000879	99
Es	1.790182	-1.184568	-0.506550	99
Es	0.217714	2.101613	0.512542	99
Es	-0.375580	-0.139771	-1.282537	99
Es	0.546953	-0.649926	-0.695777	99
Es	-0.687649	0.180943	0.560370	99
Es	-2.195166	0.225540	0.392862	99
Es	-0.079254	2.199274	0.822303	99
Es	1.826413	-0.913269	-1.015920	99
Es	-2.122211	0.094495	0.613240	99
Es	0.068722	2.706562	0.641574	99
Es	-0.429060	-0.151774	-0.072081	99
Es	0.175844	3.054052	0.665617	99
Es	-0.248454	1.591084	0.587972	99
Es	-0.549724	-1.162090	-0.760428	99
Es	3.111580	-1.096845	-0.696725	99
37
Properties=species:S:1:pos:R:3:Z:I:1 energy=-321.5927078413141 field_type=dipole dipole="0.000000 0.000000 0.000000" charge=0
O	-2.122521	0.094423	0.612814	8
C	-0.687461	0.180763	0.560424	6
C	-0.209082	-0.528827	-0.709456	6
C	1.242259	-0.779707	-0.699216	6
C	2.425569	-0.982367	-0.695076	6
C	-0.248372	1.591422	0.587984	6
N	0.068849	2.707002	0.641594	7
H	-2.418111	0.649622	1.356954	1
H	-0.308331	-0.338928	1.448304	1
H	-0.484421	0.052433	-1.598786	1
H	-0.735742	-1.486697	-0.807746	1
H	3.477369	-1.159137	-0.697796	1
Es	2.425812	-0.982410	-0.695073	99
Es	-2.200948	-0.201635	0.659615	99
Es	-0.450733	0.939020	0.570348	99
Es	1.791212	-1.178709	-0.499719	99
Es	-0.248474	1.591089	0.587975	99
Es	-0.077650	2.200050	0.810318	99
Es	0.176349	3.053890	0.664886	99
Es	-2.270225	0.405504	1.000533	99
Es	-2.122236	0.094535	0.613118	99
Es	1.824741	-0.921475	-1.016987	99
Es	-0.418214	-0.145824	1.151723	99
Es	-0.549722	-1.162032	-0.760397	99
Es	3.111596	-1.096823	-0.696421	99
Es	-2.193271	0.225195	0.395116	99
Es	1.241944	-0.779664	-0.699211	99
Es	-0.208951	-0.528806	-0.709375	99
Es	-0.380901	2.281416	0.518207	99
Es	-0.375651	-0.139749	-1.282516	99
Es	0.068722	2.706564	0.641573	99
Es	-0.687650	0.180945	0.560364	99
Es	0.219199	2.100618	0.516900	99
Es	0.547021	-0.650019	-0.695926	99
Es	-1.557227	0.154451	0.609700	99
Es	1.890590	-0.546415	-0.562453	99
Es	-0.429132	-0.151704	-0.072207	99
37
Properties=species:S:1:pos:R:3:Z:I:1 energy=-321.5927078413141 field_type=dipole dipole="0.000000 0.000000 0.000000" charge=0
O	-2.122521	0.094423	0.612814	8
C	-0.687461	0.180763	0.560424	6
C	-0.209082	-0.528827	-0.709456	6
C	1.242259	-0.779707	-0.699216	6
C	2.425569	-0.982367	-0.695076	6
C	-0.248372	1.591422	0.587984	6
N	0.068849	2.707002	0.641594	7
H	-2.418111	0.649622	1.356954	1
H	-0.308331	-0.338928	1.448304	1
H	-0.484421	0.052433	-1.598786	1
H	-0.735742	-1.486697	-0.807746	1
H	3.477369	-1.159137	-0.697796	1
Es	3.111693	-1.096529	-0.696374	99
Es	1.827764	-0.907163	-1.015059	99
Es	-0.074146	2.199520	0.804824	99
Es	1.889151	-0.551343	-0.550133	99
Es	0.547141	-0.650012	-0.696081	99
Es	-2.268780	0.406359	0.999044	99
Es	-1.556977	0.154394	0.608926	99
Es	-2.197071	-0.199364	0.668730	99
Es	-2.122264	0.094537	0.613142	99
Es	1.789593	-1.188332	-0.513821	99
Es	-0.383909	2.281930	0.526078	99
Es	0.177255	3.053474	0.666048	99
Es	-0.418314	-0.145672	1.151692	99
Es	-0.549974	-1.161956	-0.760424	99
Es	-0.450682	0.939128	0.570140	99
Es	-2.198862	0.222094	0.388140	99
Es	1.241943	-0.779663	-0.699203	99
Es	0.068722	2.706564	0.641572	99
Es	0.217857	2.100976	0.513432	99
Es	-0.248475	1.591102	0.587976	99
Es	2.425810	-0.982410	-0.695073	99
Es	-0.429170	-0.151745	-0.072267	99
Es	-0.208953	-0.528807	-0.709380	99
Es	-0.375499	-0.140018	-1.282205	99
Es	-0.687652	0.180946	0.560365	99
37
Properties=species:S:1:pos:R:3:Z:I:1 energy=-321.5927078413141 field_type=dipole dipole="0.000000 0.000000 0.000000" charge=0
O	-2.122521	0.094423	0.612814	8
C	-0.687461	0.180763	0.560424	6
C	-0.209082	-0.528827	-0.709456	6
C	1.242259	-0.779707	-0.699216	6
C	2.425569	-0.982367	-0.695076	6
C	-0.248372	1.591422	0.587984	6
N	0.068849	2.707002	0.641594	7
H	-2.418111	0.649622	1.356954	1
H	-0.308331	-0.338928	1.448304	1
H	-0.484421	0.052433	-1.598786	1
H	-0.735742	-1.486697	-0.807746	1
H	3.477369	-1.159137	-0.697796	1
Es	-0.550030	-1.161818	-0.760572	99
Es	1.786140	-1.207033	-0.543729	99
Es	-2.199782	0.222706	0.387936	99
Es	2.425811	-0.982403	-0.695079	99
Es	-0.383506	2.282359	0.523509	99
Es	0.177181	3.052954	0.665235	99
Es	1.834739	-0.874952	-1.011609	99
Es	-2.195514	-0.199301	0.667566	99
Es	-0.208951	-0.528806	-0.709377	99
Es	-2.122275	0.094598	0.613079	99
Es	1.241944	-0.779655	-0.699218	99
Es	3.111757	-1.096239	-0.696488	99
Es	1.885565	-0.565166	-0.523634	99
Es	-0.429112	-0.151794	-0.072392	99
Es	0.068723	2.706561	0.641570	99
Es	-0.687649	0.180944	0.560360	99
Es	0.547197	-0.650097	-0.695974	99
Es	-0.451262	0.939254	0.570399	99
Es	-2.269420	0.404290	1.000843	99
Es	-0.248470	1.591091	0.587980	99
Es	-0.375470	-0.139950	-1.282103	99
Es	-0.077143	2.200775	0.800609	99
Es	0.221011	2.099520	0.520846	99
Es	-0.418280	-0.145628	1.151751	99
Es	-1.557002	0.155801	0.608581	99
37
Properties=species:S:1:pos:R:3:Z:I:1 energy=-321.5927078413141 field_type=dipole dipole="0.000000 0.000000 0.000000" charge=0
O	-2.122521	0.094423	0.612814	8
C	-0.687461	0.180763	0.560424	6
C	-0.209082	-0.528827	-0.709456	6
C	1.242259	-0.779707	-0.699216	6
C	2.425569	-0.982367	-0.695076	6
C	-0.248372	1.591422	0.587984	6
N	0.068849	2.707002	0.641594	7
H	-2.418111	0.649622	1.356954	1
H	-0.308331	-0.338928	1.448304	1
H	-0.484421	0.052433	-1.598786	1
H	-0.735742	-1.486697	-0.807746	1
H	3.477369	-1.159137	-0.697796	1
Es	-1.556821	0.153428	0.609759	99
Es	1.784886	-1.213596	-0.560929	99
Es	-0.450903	0.939728	0.566328	99
Es	3.111763	-1.096372	-0.695967	99
Es	-0.248469	1.591094	0.587955	99
Es	-0.375185	-0.140304	-1.281594	99
Es	-2.122318	0.094565	0.613042	99
Es	-0.550283	-1.161627	-0.760906	99
Es	1.241942	-0.779658	-0.699220	99
Es	0.068722	2.706563	0.641574	99
Es	1.883753	-0.572078	-0.509484	99
Es	-2.196010	0.223473	0.391167	99
Es	-0.072629	2.216660	0.428973	99
Es	-0.418443	-0.145496	1.151592	99
Es	-0.429213	-0.151772	-0.072440	99
Es	0.219459	2.094009	0.712536	99
Es	-0.386625	2.271686	0.712758	99
Es	0.177069	3.052795	0.660162	99
Es	-0.687650	0.180945	0.560365	99
Es	0.547326	-0.650099	-0.696443	99
Es	2.425810	-0.982413	-0.695071	99
Es	1.837845	-0.861364	-1.008691	99
Es	-0.208950	-0.528806	-0.709375	99
Es	-2.270021	0.405977	0.999752	99
Es	-2.198852	-0.199325	0.664248	99
37
Properties=species:S:1:pos:R:3:Z:I:1 energy=-321.5927078413141 field_type=dipole dipole="0.000000 0.000000 0.000000" charge=0
O	-2.122521	0.094423	0.612814	8
C	-0.687461	0.180763	0.560424	6
C	-0.209082	-0.528827	-0.709456	6
C	1.242259	-0.779707	-0.699216	6
C	2.425569	-0.982367	-0.695076	6
C	-0.248372	1.591422	0.587984	6
N	0.068849	2.707002	0.641594	7
H	-2.418111	0.649622	1.356954	1
H	-0.308331	-0.338928	1.448304	1
H	-0.484421	0.052433	-1.598786	1
H	-0.735742	-1.486697	-0.807746	1
H	3.477369	-1.159137	-0.697796	1
Es	-0.429243	-0.151797	-0.072408	99
Es	-2.197916	-0.198780	0.665896	99
Es	-0.375747	-0.139822	-1.282282	99
Es	0.547360	-0.649495	-0.694845	99
Es	-2.196649	0.222142	0.390257	99
Es	0.175462	3.053455	0.657220	99
Es	-2.122275	0.094604	0.613068	99
Es	1.241945	-0.779661	-0.699213	99
Es	-0.208951	-0.528805	-0.709375	99
Es	3.111647	-1.097357	-0.694900	99
Es	-0.387927	2.271887	0.708952	99
Es	0.068727	2.706580	0.641575	99
Es	1.901242	-0.531284	-0.760549	99
Es	-0.418119	-0.145897	1.151784	99
Es	1.784913	-1.149337	-0.931301	99
Es	-1.556748	0.153549	0.609766	99
Es	1.820370	-0.966105	-0.389757	99
Es	-0.072858	2.216062	0.438435	99
Es	2.425810	-0.982411	-0.695066	99
Es	-2.270448	0.406602	0.998967	99
Es	-0.450293	0.939314	0.567157	99
Es	-0.549945	-1.161617	-0.760308	99
Es	-0.687654	0.180948	0.560359	99
Es	0.221970	2.094146	0.708704	99
Es	-0.248472	1.591093	0.587954	99
37
Properties=species:S:1:pos:R:3:Z:I:1 energy=-321.5927078413141 field_type=dipole dipole="0.000000 0.000000 0.000000" charge=0
O	-2.122521	0.094423	0.612814	8
C	-0.687461	0.180763	0.560424	6
C	-0.209082	-0.528827	-0.709456	6
C	1.242259	-0.779707	-0.699216	6
C	2.425569	-0.982367	-0.695076	6
C	-0.248372	1.591422	0.587984	6
N	0.068849	2.707002	0.641594	7
H	-2.418111	0.649622	1.356954	1
H	-0.308331	-0.338928	1.448304	1
H	-0.484421	0.052433	-1.598786	1
H	-0.735742	-1.486697	-0.807746	1
H	3.477369	-1.159137	-0.697796	1
Es	1.784825	-1.214012	-0.563072	99
Es	-2.195024	0.223886	0.392723	99
Es	-0.388447	2.272648	0.707676	99
Es	2.425813	-0.982412	-0.695072	99
Es	-2.122285	0.094690	0.613007	99
Es	0.221029	2.093423	0.707922	99
Es	-0.208951	-0.528806	-0.709375	99
Es	0.177433	3.052433	0.660064	99
Es	-0.418369	-0.145489	1.151661	99
Es	-0.550120	-1.161564	-0.760750	99
Es	0.068733	2.706597	0.641575	99
Es	0.547423	-0.650042	-0.696660	99
Es	3.111847	-1.096160	-0.695865	99
Es	-0.429286	-0.151762	-0.072506	99
Es	-2.199525	-0.199238	0.662234	99
Es	1.241940	-0.779663	-0.699218	99
Es	-2.270576	0.405464	1.000126	99
Es	-0.072611	2.216547	0.438694	99
Es	-0.375385	-0.140406	-1.281629	99
Es	1.838261	-0.859548	-1.008718	99
Es	-1.556668	0.153314	0.609842	99
Es	-0.248469	1.591093	0.587950	99
Es	1.883344	-0.573626	-0.507214	99
Es	-0.687650	0.180945	0.560364	99
Es	-0.451080	0.939701	0.566329	99
37
Properties=species:S:1:pos:R:3:Z:I:1 energy=-321.5927078413141 field_type=dipole dipole="0.000000 0.000000 0.000000" charge=0
O	-2.122521	0.094423	0.612814	8
C	-0.687461	0.180763	0.560424	6
C	-0.209082	-0.528827	-0.709456	6
C	1.242259	-0.779707	-0.699216	6
C	2.425569	-0.982367	-0.695076	6
C	-0.248372	1.591422	0.587984	6
N	0.068849	2.707002	0.641594	7
H	-2.418111	0.649622	1.356954	1
H	-0.308331	-0.338928	1.448304	1
H	-0.484421	0.052433	-1.598786	1
H	-0.735742	-1.486697	-0.807746	1
H	3.477369	-1.159137	-0.697796	1
Es	-0.687650	0.180943	0.560369	99
Es	-2.188579	0.224286	0.400615	99
Es	-0.208950	-0.528805	-0.709375	99
Es	-0.374980	-0.140644	-1.281268	99
Es	1.799269	-1.128469	-0.453672	99
Es	0.176694	3.053431	0.660501	99
Es	-2.204745	-0.201714	0.656095	99
Es	-0.072310	2.216198	0.456691	99
Es	1.811811	-0.986752	-1.013491	99
Es	3.111650	-1.097512	-0.695598	99
Es	-0.418676	-0.145416	1.151169	99
Es	-0.450200	0.939506	0.566924	99
Es	1.241943	-0.779666	-0.699218	99
Es	-0.429206	-0.151634	-0.072487	99
Es	-0.550525	-1.161766	-0.760921	99
Es	2.425808	-0.982424	-0.695075	99
Es	-0.390623	2.272834	0.697341	99
Es	0.223048	2.093075	0.699512	99
Es	-2.122311	0.094542	0.613028	99
Es	-0.248470	1.591091	0.587948	99
Es	1.895563	-0.530476	-0.612884	99
Es	0.068723	2.706562	0.641574	99
Es	-1.556788	0.152835	0.610485	99
Es	0.547345	-0.650100	-0.695930	99
Es	-2.271640	0.408086	0.997756	99
37
Properties=species:S:1:pos:R:3:Z:I:1 energy=-321.5927078413141 field_type=dipole dipole="0.000000 0.000000 0.000000" charge=0
O	-2.122521	0.094423	0.612814	8
C	-0.687461	0.180763	0.560424	6
C	-0.209082	-0.528827	-0.709456	6
C	1.242259	-0.779707	-0.699216	6
C	2.425569	-0.982367	-0.695076	6
C	-0.248372	1.591422	0.587984	6
N	0.068849	2.707002	0.641594	7
H	-2.418111	0.649622	1.356954	1
H	-0.308331	-0.338928	1.448304	1
H	-0.484421	0.052433	-1.598786	1
H	-0.735742	-1.486697	-0.807746	1
H	3.477369	-1.159137	-0.697796	1
Es	1.241942	-0.779662	-0.699220	99
Es	1.882895	-0.575466	-0.504300	99
Es	-2.194886	0.225306	0.393018	99
Es	-2.270735	0.403765	1.001320	99
Es	-0.429193	-0.151724	-0.072639	99
Es	0.222613	2.092894	0.704041	99
Es	0.177584	3.051944	0.660288	99
Es	-0.375235	-0.140281	-1.281453	99
Es	-0.418372	-0.145605	1.151599	99
Es	2.425811	-0.982408	-0.695072	99
Es	-0.389858	2.273475	0.704256	99
Es	1.784421	-1.215895	-0.567646	99
Es	-1.556607	0.153646	0.610238	99
Es	0.547426	-0.650202	-0.696606	99
Es	-0.072798	2.216622	0.445532	99
Es	-0.451161	0.939786	0.566703	99
Es	-0.208950	-0.528806	-0.709374	99
Es	3.111892	-1.096113	-0.695779	99
Es	-0.550399	-1.161459	-0.760889	99
Es	-2.122312	0.094667	0.613002	99
Es	-0.687650	0.180944	0.560366	99
Es	1.839097	-0.855862	-1.007139	99
Es	-2.199576	-0.199212	0.660327	99
Es	0.068722	2.706563	0.641574	99
Es	-0.248469	1.591093	0.587945	99
37
Properties=species:S:1:pos:R:3:Z:I:1 energy=-321.5927078413141 field_type=dipole dipole="0.000000 0.000000 0.000000" charge=0
O	-2.122521	0.094423	0.612814	8
C	-0.687461	0.180763	0.560424	6
C	-0.209082	-0.528827	-0.709456	6
C	1.242259	-0.779707	-0.699216	6
C	2.425569	-0.982367	-0.695076	6
C	-0.248372	1.591422	0.587984	6
N	0.068849	2.707002	0.641594	7
H	-2.418111	0.649622	1.356954	1
H	-0.308331	-0.338928	1.448304	1
H	-0.484421	0.052433	-1.598786	1
H	-0.735742	-1.486697	-0.807746	1
H	3.477369	-1.159137	-0.697796	1
Es	1.783256	-1.161667	-0.915452	99
Es	0.225878	2.097236	0.533755	99
Es	-0.417920	-0.146099	1.151847	99
Es	-0.388556	2.282740	0.536106	99
Es	0.547441	-0.649688	-0.694479	99
Es	-0.375977	-0.139661	-1.282370	99
Es	-0.248465	1.591091	0.587969	99
Es	-2.193404	-0.196940	0.672160	99
Es	-2.201770	0.219138	0.385562	99
Es	-2.122265	0.094499	0.613155	99
Es	-0.076907	2.203014	0.776198	99
Es	-2.269995	0.406061	0.998887	99
Es	3.111767	-1.096911	-0.695277	99
Es	1.822308	-0.949251	-0.385403	99
Es	-0.208950	-0.528805	-0.709375	99
Es	1.900888	-0.536098	-0.780663	99
Es	2.425817	-0.982408	-0.695057	99
Es	-0.450869	0.939424	0.571014	99
Es	-0.550057	-1.161503	-0.759984	99
Es	-1.556674	0.155320	0.608156	99
Es	1.241942	-0.779661	-0.699210	99
Es	0.068723	2.706567	0.641574	99
Es	-0.429201	-0.151755	-0.072559	99
Es	-0.687651	0.180945	0.560365	99
Es	0.176840	3.052425	0.663169	99
37
Properties=species:S:1:pos:R:3:Z:I:1 energy=-321.5927078413141 field_type=dipole dipole="0.000000 0.000000 0.000000" charge=0
O	-2.122521	0.094423	0.612814	8
C	-0.687461	0.180763	0.560424	6
C	-0.209082	-0.528827	-0.709456	6
C	1.242259	-0.779707	-0.699216	6
C	2.425569	-0.982367	-0.695076	6
C	-0.248372	1.591422	0.587984	6
N	0.068849	2.707002	0.641594	7
H	-2.418111	0.649622	1.356954	1
H	-0.308331	-0.338928	1.448304	1
H	-0.484421	0.052433	-1.598786	1
H	-0.735742	-1.486697	-0.807746	1
H	3.477369	-1.159137	-0.697796	1
Es	-0.073238	2.216210	0.457337	99
Es	1.820540	-0.964712	-0.389706	99
Es	0.068722	2.706563	0.641573	99
Es	0.547453	-0.649636	-0.694987	99
Es	-0.248473	1.591099	0.587953	99
Es	2.425809	-0.982415	-0.695071	99
Es	-0.418130	-0.145698	1.151788	99
Es	1.241942	-0.779659	-0.699215	99
Es	-0.208949	-0.528804	-0.709374	99
Es	0.225341	2.092809	0.698349	99
Es	-0.450480	0.939499	0.567150	99
Es	-0.429290	-0.151837	-0.072492	99
Es	1.901123	-0.531969	-0.761609	99
Es	-2.122293	0.094619	0.613014	99
Es	-2.270326	0.407218	0.998053	99
Es	-2.198041	0.220602	0.388927	99
Es	0.176205	3.052452	0.658187	99
Es	-0.550078	-1.161502	-0.760374	99
Es	-1.556686	0.153815	0.609302	99
Es	-0.391441	2.273779	0.699321	99
Es	-0.687649	0.180944	0.560369	99
Es	-0.375670	-0.140062	-1.282003	99
Es	3.111759	-1.096978	-0.694919	99
Es	1.784834	-1.150223	-0.930142	99
Es	-2.196783	-0.198099	0.668661	99
37
Properties=species:S:1:pos:R:3:Z:I:1 energy=-321.5927078413141 field_type=dipole dipole="0.000000 0.000000 0.000000" charge=0
O	-2.122521	0.094423	0.612814	8
C	-0.687461	0.180763	0.560424	6
C	-0.209082	-0.528827	-0.709456	6
C	1.242259	-0.779707	-0.699216	6
C	2.425569	-0.982367	-0.695076	6
C	-0.248372	1.591422	0.587984	6
N	0.068849	2.707002	0.641594	7
H	-2.418111	0.649622	1.356954	1
H	-0.308331	-0.338928	1.448304	1
H	-0.484421	0.052433	-1.598786	1
H	-0.735742	-1.486697	-0.807746	1
H	3.477369	-1.159137	-0.697796	1
Es	-1.556688	0.154663	0.609012	99
Es	0.547450	-0.649885	-0.694703	99
Es	0.068726	2.706575	0.641573	99
Es	1.900990	-0.534685	-0.774131	99
Es	-0.429273	-0.151724	-0.072539	99
Es	1.821085	-0.958852	-0.383653	99
Es	-0.376033	-0.139700	-1.282403	99
Es	-2.195208	-0.197770	0.670247	99
Es	0.176850	3.052572	0.662601	99
Es	-0.248469	1.591094	0.587973	99
Es	1.241943	-0.779669	-0.699215	99
Es	-0.687651	0.180943	0.560366	99
Es	-2.199647	0.219802	0.387402	99
Es	-2.122306	0.094766	0.612962	99
Es	-0.075853	2.203664	0.764734	99
Es	-0.450921	0.939439	0.570625	99
Es	-0.390450	2.282498	0.543864	99
Es	-0.417906	-0.146158	1.151829	99
Es	2.425810	-0.982412	-0.695068	99
Es	3.111756	-1.096904	-0.695128	99
Es	-2.270276	0.406634	0.998284	99
Es	-0.208950	-0.528805	-0.709374	99
Es	1.784438	-1.153326	-0.923635	99
Es	-0.550027	-1.161408	-0.759918	99
Es	0.226810	2.096660	0.538387	99
37
Properties=species:S:1:pos:R:3:Z:I:1 energy=-321.5927078413141 field_type=dipole dipole="0.000000 0.000000 0.000000" charge=0
O	-2.122521	0.094423	0.612814	8
C	-0.687461	0.180763	0.560424	6
C	-0.209082	-0.528827	-0.709456	6
C	1.242259	-0.779707	-0.699216	6
C	2.425569	-0.982367	-0.695076	6
C	-0.248372	1.591422	0.587984	6
N	0.068849	2.707002	0.641594	7
H	-2.418111	0.649622	1.356954	1
H	-0.308331	-0.338928	1.448304	1
H	-0.484421	0.052433	-1.598786	1
H	-0.735742	-1.486697	-0.807746	1
H	3.477369	-1.159137	-0.697796	1
Es	0.177117	3.051802	0.663716	99
Es	-2.269848	0.406019	0.998746	99
Es	-1.556551	0.154249	0.609022	99
Es	3.111834	-1.096787	-0.695039	99
Es	-0.429283	-0.151657	-0.072745	99
Es	-0.417796	-0.146288	1.151824	99
Es	-0.248472	1.591091	0.587975	99
Es	0.068722	2.706563	0.641573	99
Es	0.547561	-0.649678	-0.694677	99
Es	2.425812	-0.982411	-0.695070	99
Es	-2.200445	0.220146	0.386617	99
Es	1.782836	-1.165187	-0.910500	99
Es	-2.122360	0.094702	0.612999	99
Es	1.241942	-0.779655	-0.699219	99
Es	1.900770	-0.537391	-0.785452	99
Es	-0.208949	-0.528803	-0.709374	99
Es	-0.075738	2.202933	0.772931	99
Es	-0.376055	-0.139695	-1.282159	99
Es	-0.687650	0.180945	0.560365	99
Es	-0.550148	-1.161337	-0.759999	99
Es	1.822841	-0.944559	-0.385606	99
Es	-0.450929	0.939471	0.570874	99
Es	0.226055	2.097228	0.533125	99
Es	-0.390100	2.283308	0.539624	99
Es	-2.194967	-0.196996	0.670540	99
37
Properties=species:S:1:pos:R:3:Z:I:1 energy=-321.5927078413141 field_type=dipole dipole="0.000000 0.000000 0.000000" charge=0
O	-2.122521	0.094423	0.612814	8
C	-0.687461	0.180763	0.560424	6
C	-0.209082	-0.528827	-0.709456	6
C	1.242259	-0.779707	-0.699216	6
C	2.425569	-0.982367	-0.695076	6
C	-0.248372	1.591422	0.587984	6
N	0.068849	2.707002	0.641594	7
H	-2.418111	0.649622	1.356954	1
H	-0.308331	-0.338928	1.448304	1
H	-0.484421	0.052433	-1.598786	1
H	-0.735742	-1.486697	-0.807746	1
H	3.477369	-1.159137	-0.697796	1
Es	-0.418669	-0.145224	1.151278	99
Es	-0.550502	-1.161495	-0.761224	99
Es	-0.248467	1.591097	0.587952	99
Es	-1.556532	0.152646	0.610288	99
Es	3.111857	-1.096365	-0.695890	99
Es	1.241941	-0.779661	-0.699217	99
Es	-0.429229	-0.151725	-0.072680	99
Es	1.790960	-1.181502	-0.509956	99
Es	-2.191441	0.223235	0.397022	99
Es	0.177941	3.052021	0.661771	99
Es	-0.208949	-0.528805	-0.709374	99
Es	-2.202082	-0.199769	0.659340	99
Es	1.889261	-0.550673	-0.551515	99
Es	0.547484	-0.650297	-0.696564	99
Es	-0.071835	2.216112	0.468155	99
Es	1.826305	-0.914443	-1.017777	99
Es	-2.122276	0.094616	0.613058	99
Es	-0.393133	2.274739	0.690018	99
Es	2.425810	-0.982408	-0.695075	99
Es	-0.451232	0.939922	0.566605	99
Es	0.224704	2.091947	0.694539	99
Es	-2.271821	0.407382	0.998259	99
Es	-0.687647	0.180944	0.560366	99
Es	0.068723	2.706566	0.641574	99
Es	-0.374970	-0.140849	-1.280862	99
