41
Properties=species:S:1:pos:R:3:Z:I:1 energy=-359.7579258782651 field_type=dipole dipole="0.000000 0.000000 0.000000" charge=0
O	-2.072423	-1.480297	0.083774	8
C	-0.687023	-1.158667	-0.009986	6
C	-0.468302	0.322723	0.055394	6
C	-1.415902	1.265183	0.186564	6
C	0.939727	0.787103	-0.034296	6
N	1.942677	-0.022887	-0.155246	7
O	3.125227	0.724343	-0.211636	8
H	-2.131682	-2.448867	0.030494	1
H	-0.313593	-1.556837	-0.959246	1
H	-0.170012	-1.656747	0.816844	1
H	-2.463892	0.986503	0.257654	1
H	-1.189492	2.325163	0.227904	1
H	1.096877	1.880613	0.008234	1
H	3.807807	0.032673	-0.296456	1
Es	-0.587414	-0.405350	0.024474	99
Es	0.939677	0.787075	-0.034288	99
Es	1.513135	0.313859	0.188161	99
Es	0.249749	0.535475	0.008082	99
Es	-2.072153	-1.480546	0.083637	99
Es	-0.687260	-1.158634	-0.009965	99
Es	3.143750	0.854270	0.065566	99
Es	-1.256860	1.980255	0.213891	99
Es	-0.881515	0.775003	0.439515	99
Es	-2.160670	-1.402540	0.366539	99
Es	-2.117158	1.091174	0.234857	99
Es	-0.425693	-1.418060	-0.654961	99
Es	-2.208085	-1.368430	-0.169095	99
Es	1.467231	0.343421	-0.390555	99
Es	-0.934758	0.811156	-0.203429	99
Es	-1.542605	-1.374852	0.046208	99
Es	-0.328106	-1.486149	0.551608	99
Es	3.125187	0.723928	-0.211626	99
Es	3.486838	0.350114	-0.257539	99
Es	3.102476	0.883485	-0.473737	99
Es	1.040760	1.520984	-0.005403	99
Es	-1.415940	1.265239	0.186576	99
Es	-2.083291	-2.003193	0.053783	99
Es	1.970324	-0.401700	-0.177005	99
Es	1.942730	-0.022291	-0.155222	99
Es	2.607325	0.397924	-0.187430	99
Es	-0.468149	0.322649	0.055378	99
41
Properties=species:S:1:pos:R:3:Z:I:1 energy=-359.7579258782651 field_type=dipole dipole="0.000000 0.000000 0.000000" charge=0
O	-2.072423	-1.480297	0.083774	8
C	-0.687023	-1.158667	-0.009986	6
C	-0.468302	0.322723	0.055394	6
C	-1.415902	1.265183	0.186564	6
C	0.939727	0.787103	-0.034296	6
N	1.942677	-0.022887	-0.155246	7
O	3.125227	0.724343	-0.211636	8
H	-2.131682	-2.448867	0.030494	1
H	-0.313593	-1.556837	-0.959246	1
H	-0.170012	-1.656747	0.816844	1
H	-2.463892	0.986503	0.257654	1
H	-1.189492	2.325163	0.227904	1
H	1.096877	1.880613	0.008234	1
H	3.807807	0.032673	-0.296456	1
Es	-1.540304	-1.374502	0.046666	99
Es	1.514247	0.318192	0.183975	99
Es	1.041057	1.520247	-0.005330	99
Es	-1.415943	1.265243	0.186571	99
Es	-2.165899	-1.399126	0.364559	99
Es	2.602925	0.401581	-0.186755	99
Es	-1.256194	1.978015	0.213670	99
Es	0.250733	0.535769	0.008270	99
Es	3.125182	0.723929	-0.211658	99
Es	-2.084986	-2.001567	0.055360	99
Es	1.967355	-0.405302	-0.176085	99
Es	-2.204171	-1.373456	-0.169062	99
Es	3.139581	0.853802	0.050119	99
Es	1.942656	-0.022276	-0.155213	99
Es	-2.072125	-1.480535	0.083647	99
Es	-0.881807	0.774912	0.438945	99
Es	-0.468144	0.322643	0.055391	99
Es	-0.425746	-1.418613	-0.653718	99
Es	3.100261	0.878463	-0.458312	99
Es	-0.328315	-1.486253	0.550595	99
Es	-0.687263	-1.158632	-0.009963	99
Es	1.468730	0.346442	-0.387179	99
Es	-2.119314	1.091888	0.234941	99
Es	-0.586232	-0.403375	0.024171	99
Es	0.939673	0.787077	-0.034303	99
Es	-0.934988	0.811136	-0.202781	99
Es	3.498556	0.348562	-0.258501	99
41
Properties=species:S:1:pos:R:3:Z:I:1 energy=-359.7579258782651 field_type=dipole dipole="0.000000 0.000000 0.000000" charge=0
O	-2.072423	-1.480297	0.083774	8
C	-0.687023	-1.158667	-0.009986	6
C	-0.468302	0.322723	0.055394	6
C	-1.415902	1.265183	0.186564	6
C	0.939727	0.787103	-0.034296	6
N	1.942677	-0.022887	-0.155246	7
O	3.125227	0.724343	-0.211636	8
H	-2.131682	-2.448867	0.030494	1
H	-0.313593	-1.556837	-0.959246	1
H	-0.170012	-1.656747	0.816844	1
H	-2.463892	0.986503	0.257654	1
H	-1.189492	2.325163	0.227904	1
H	1.096877	1.880613	0.008234	1
H	3.807807	0.032673	-0.296456	1
Es	-1.415944	1.265243	0.186572	99
Es	-0.328060	-1.485968	0.551309	99
Es	3.099147	0.867571	-0.455740	99
Es	1.514589	0.318631	0.186295	99
Es	0.251081	0.535224	0.008139	99
Es	0.939671	0.787079	-0.034290	99
Es	-0.935452	0.811199	-0.205791	99
Es	-2.089527	-2.001598	0.051928	99
Es	-0.425567	-1.418409	-0.654382	99
Es	3.500626	0.348058	-0.257165	99
Es	-1.537303	-1.371808	0.044232	99
Es	3.125216	0.723958	-0.211531	99
Es	1.040992	1.519205	-0.005472	99
Es	1.942712	-0.022257	-0.155217	99
Es	-0.585931	-0.402699	0.024235	99
Es	-2.120291	1.094178	0.235241	99
Es	-0.881580	0.774842	0.441976	99
Es	-0.687260	-1.158634	-0.009967	99
Es	-2.072049	-1.480612	0.084158	99
Es	-2.321252	-1.272105	0.105741	99
Es	1.966603	-0.404119	-0.176549	99
Es	1.468888	0.347656	-0.388803	99
Es	-0.468147	0.322646	0.055377	99
Es	2.602408	0.402484	-0.184974	99
Es	-2.047516	-1.501991	0.095199	99
Es	-1.256098	1.975049	0.213384	99
Es	3.139570	0.861442	0.044115	99
41
Properties=species:S:1:pos:R:3:Z:I:1 energy=-359.7579258782651 field_type=dipole dipole="0.000000 0.000000 0.000000" charge=0
O	-2.072423	-1.480297	0.083774	8
C	-0.687023	-1.158667	-0.009986	6
C	-0.468302	0.322723	0.055394	6
C	-1.415902	1.265183	0.186564	6
C	0.939727	0.787103	-0.034296	6
N	1.942677	-0.022887	-0.155246	7
O	3.125227	0.724343	-0.211636	8
H	-2.131682	-2.448867	0.030494	1
H	-0.313593	-1.556837	-0.959246	1
H	-0.170012	-1.656747	0.816844	1
H	-2.463892	0.986503	0.257654	1
H	-1.189492	2.325163	0.227904	1
H	1.096877	1.880613	0.008234	1
H	3.807807	0.032673	-0.296456	1
Es	1.942673	-0.022248	-0.155215	99
Es	-1.255330	1.972722	0.213124	99
Es	0.251564	0.534823	0.008162	99
Es	0.939671	0.787078	-0.034297	99
Es	-2.051513	-1.498625	0.083091	99
Es	3.502416	0.348181	-0.258272	99
Es	-0.687262	-1.158635	-0.009964	99
Es	1.515224	0.320290	0.184874	99
Es	-0.881689	0.774841	0.442205	99
Es	-0.328084	-1.486436	0.550822	99
Es	2.599041	0.406817	-0.185903	99
Es	-2.069278	-1.483069	0.079544	99
Es	1.469659	0.349154	-0.387579	99
Es	-0.468147	0.322645	0.055378	99
Es	3.125187	0.723867	-0.211264	99
Es	-0.585501	-0.402080	0.024442	99
Es	-2.321750	-1.272391	0.116502	99
Es	1.041177	1.518990	-0.005474	99
Es	3.100870	0.867191	-0.447043	99
Es	-0.935500	0.811223	-0.206057	99
Es	3.139351	0.855315	0.037079	99
Es	1.965267	-0.405355	-0.176259	99
Es	-2.088699	-1.997647	0.055997	99
Es	-2.121430	1.096159	0.235416	99
Es	-1.415944	1.265245	0.186570	99
Es	-1.536665	-1.375475	0.046153	99
Es	-0.425779	-1.418318	-0.654013	99
41
Properties=species:S:1:pos:R:3:Z:I:1 energy=-359.7579258782651 field_type=dipole dipole="0.000000 0.000000 0.000000" charge=0
O	-2.072423	-1.480297	0.083774	8
C	-0.687023	-1.158667	-0.009986	6
C	-0.468302	0.322723	0.055394	6
C	-1.415902	1.265183	0.186564	6
C	0.939727	0.787103	-0.034296	6
N	1.942677	-0.022887	-0.155246	7
O	3.125227	0.724343	-0.211636	8
H	-2.131682	-2.448867	0.030494	1
H	-0.313593	-1.556837	-0.959246	1
H	-0.170012	-1.656747	0.816844	1
H	-2.463892	0.986503	0.257654	1
H	-1.189492	2.325163	0.227904	1
H	1.096877	1.880613	0.008234	1
H	3.807807	0.032673	-0.296456	1
Es	-0.687258	-1.158636	-0.009975	99
Es	-2.089133	-1.993961	0.054881	99
Es	1.470320	0.350240	-0.386341	99
Es	-0.426280	-1.418087	-0.653426	99
Es	2.595192	0.414610	-0.183720	99
Es	-0.327915	-1.487139	0.550295	99
Es	1.515661	0.321366	0.183813	99
Es	3.125189	0.723904	-0.211578	99
Es	1.041289	1.519034	-0.005575	99
Es	-0.585337	-0.401222	0.024383	99
Es	-0.468147	0.322645	0.055386	99
Es	1.942671	-0.022246	-0.155213	99
Es	-2.050160	-1.499674	0.087495	99
Es	3.503715	0.348644	-0.258228	99
Es	3.101510	0.856061	-0.439181	99
Es	-1.536293	-1.379058	0.045306	99
Es	-1.254449	1.970433	0.212900	99
Es	0.939671	0.787076	-0.034287	99
Es	-2.070124	-1.482308	0.080625	99
Es	0.252105	0.534106	0.008073	99
Es	-2.122343	1.098471	0.235556	99
Es	1.964992	-0.406957	-0.176365	99
Es	-0.935481	0.811192	-0.205979	99
Es	3.140271	0.857288	0.027298	99
Es	-0.881950	0.774747	0.442273	99
Es	-1.415945	1.265242	0.186565	99
Es	-2.322248	-1.271506	0.113038	99
41
Properties=species:S:1:pos:R:3:Z:I:1 energy=-359.7579258782651 field_type=dipole dipole="0.000000 0.000000 0.000000" charge=0
O	-2.072423	-1.480297	0.083774	8
C	-0.687023	-1.158667	-0.009986	6
C	-0.468302	0.322723	0.055394	6
C	-1.415902	1.265183	0.186564	6
C	0.939727	0.787103	-0.034296	6
N	1.942677	-0.022887	-0.155246	7
O	3.125227	0.724343	-0.211636	8
H	-2.131682	-2.448867	0.030494	1
H	-0.313593	-1.556837	-0.959246	1
H	-0.170012	-1.656747	0.816844	1
H	-2.463892	0.986503	0.257654	1
H	-1.189492	2.325163	0.227904	1
H	1.096877	1.880613	0.008234	1
H	3.807807	0.032673	-0.296456	1
Es	3.140323	1.018530	-0.139767	99
Es	-1.254412	1.961569	0.212100	99
Es	3.125170	0.723924	-0.211705	99
Es	-2.091977	-1.978641	0.060890	99
Es	0.939671	0.787076	-0.034290	99
Es	-0.935975	0.811297	-0.210259	99
Es	2.596370	0.413701	-0.176930	99
Es	1.516122	0.321604	0.187589	99
Es	1.942665	-0.022247	-0.155213	99
Es	-0.468146	0.322648	0.055377	99
Es	3.505801	0.350069	-0.253156	99
Es	0.252720	0.531241	0.007889	99
Es	-0.586475	-0.400076	0.024761	99
Es	-2.065464	-1.486312	0.078977	99
Es	-0.327214	-1.486611	0.552148	99
Es	-0.881441	0.774828	0.446549	99
Es	3.097687	0.691272	-0.284293	99
Es	-2.123104	1.106601	0.236074	99
Es	-1.532615	-1.392170	0.041359	99
Es	-2.054406	-1.495807	0.092710	99
Es	1.041236	1.517587	-0.006000	99
Es	1.469776	0.350380	-0.390796	99
Es	-1.415945	1.265243	0.186570	99
Es	-0.426043	-1.417198	-0.655114	99
Es	-0.687256	-1.158633	-0.009966	99
Es	1.965705	-0.404331	-0.174973	99
Es	-2.323246	-1.271278	0.107488	99
41
Properties=species:S:1:pos:R:3:Z:I:1 energy=-359.7579258782651 field_type=dipole dipole="0.000000 0.000000 0.000000" charge=0
O	-2.072423	-1.480297	0.083774	8
C	-0.687023	-1.158667	-0.009986	6
C	-0.468302	0.322723	0.055394	6
C	-1.415902	1.265183	0.186564	6
C	0.939727	0.787103	-0.034296	6
N	1.942677	-0.022887	-0.155246	7
O	3.125227	0.724343	-0.211636	8
H	-2.131682	-2.448867	0.030494	1
H	-0.313593	-1.556837	-0.959246	1
H	-0.170012	-1.656747	0.816844	1
H	-2.463892	0.986503	0.257654	1
H	-1.189492	2.325163	0.227904	1
H	1.096877	1.880613	0.008234	1
H	3.807807	0.032673	-0.296456	1
Es	-1.254094	1.957921	0.212373	99
Es	-0.468146	0.322647	0.055375	99
Es	-0.586561	-0.399293	0.024600	99
Es	1.966497	-0.406457	-0.176771	99
Es	1.041256	1.517816	-0.005481	99
Es	-2.093448	-1.969003	0.056816	99
Es	1.470537	0.351410	-0.389398	99
Es	3.121739	0.716245	-0.205829	99
Es	0.939670	0.787076	-0.034290	99
Es	3.505047	0.349686	-0.259253	99
Es	0.253155	0.530223	0.007768	99
Es	1.516185	0.321847	0.186972	99
Es	-2.321955	-1.270767	0.116564	99
Es	-2.071782	-1.480834	0.084714	99
Es	-0.327842	-1.486138	0.551783	99
Es	3.137766	1.023459	-0.194524	99
Es	-2.048775	-1.500796	0.077983	99
Es	-0.935917	0.811524	-0.209979	99
Es	2.593190	0.419743	-0.182958	99
Es	-1.415945	1.265244	0.186571	99
Es	-2.123285	1.110376	0.236275	99
Es	3.105853	0.689035	-0.222638	99
Es	1.942655	-0.022248	-0.155212	99
Es	-0.425644	-1.418024	-0.654967	99
Es	-1.531674	-1.402304	0.045388	99
Es	-0.687257	-1.158634	-0.009966	99
Es	-0.881698	0.774509	0.446101	99
41
Properties=species:S:1:pos:R:3:Z:I:1 energy=-359.7579258782651 field_type=dipole dipole="0.000000 0.000000 0.000000" charge=0
O	-2.072423	-1.480297	0.083774	8
C	-0.687023	-1.158667	-0.009986	6
C	-0.468302	0.322723	0.055394	6
C	-1.415902	1.265183	0.186564	6
C	0.939727	0.787103	-0.034296	6
N	1.942677	-0.022887	-0.155246	7
O	3.125227	0.724343	-0.211636	8
H	-2.131682	-2.448867	0.030494	1
H	-0.313593	-1.556837	-0.959246	1
H	-0.170012	-1.656747	0.816844	1
H	-2.463892	0.986503	0.257654	1
H	-1.189492	2.325163	0.227904	1
H	1.096877	1.880613	0.008234	1
H	3.807807	0.032673	-0.296456	1
Es	3.101517	0.682151	-0.228451	99
Es	1.516472	0.322605	0.185565	99
Es	1.041162	1.518435	-0.005487	99
Es	-0.881831	0.774549	0.445267	99
Es	-0.426006	-1.418065	-0.654275	99
Es	-2.123305	1.113361	0.236484	99
Es	3.125127	0.723657	-0.211000	99
Es	-2.056751	-1.493789	0.087777	99
Es	-1.415945	1.265244	0.186572	99
Es	3.505136	0.349704	-0.258863	99
Es	2.592850	0.419570	-0.182453	99
Es	0.939670	0.787076	-0.034291	99
Es	1.942658	-0.022248	-0.155212	99
Es	-0.327879	-1.486733	0.551120	99
Es	-0.687260	-1.158634	-0.009964	99
Es	-0.586637	-0.397896	0.024635	99
Es	-2.063544	-1.487981	0.077625	99
Es	-1.532093	-1.413822	0.043611	99
Es	-0.468148	0.322646	0.055382	99
Es	3.138153	1.023047	-0.184498	99
Es	-2.093334	-1.957917	0.059160	99
Es	-2.321888	-1.270118	0.113282	99
Es	1.966406	-0.407854	-0.176631	99
Es	1.470954	0.351799	-0.388074	99
Es	-1.253859	1.955248	0.212040	99
Es	0.253822	0.528890	0.007590	99
Es	-0.935922	0.811339	-0.208892	99
41
Properties=species:S:1:pos:R:3:Z:I:1 energy=-359.7579258782651 field_type=dipole dipole="0.000000 0.000000 0.000000" charge=0
O	-2.072423	-1.480297	0.083774	8
C	-0.687023	-1.158667	-0.009986	6
C	-0.468302	0.322723	0.055394	6
C	-1.415902	1.265183	0.186564	6
C	0.939727	0.787103	-0.034296	6
N	1.942677	-0.022887	-0.155246	7
O	3.125227	0.724343	-0.211636	8
H	-2.131682	-2.448867	0.030494	1
H	-0.313593	-1.556837	-0.959246	1
H	-0.170012	-1.656747	0.816844	1
H	-2.463892	0.986503	0.257654	1
H	-1.189492	2.325163	0.227904	1
H	1.096877	1.880613	0.008234	1
H	3.807807	0.032673	-0.296456	1
Es	-2.321376	-1.269713	0.115043	99
Es	-0.425930	-1.418547	-0.653729	99
Es	-0.328258	-1.486674	0.550524	99
Es	0.939670	0.787077	-0.034294	99
Es	1.516596	0.322835	0.184342	99
Es	-2.058065	-1.492601	0.087264	99
Es	-2.123364	1.114537	0.236515	99
Es	-1.533506	-1.425794	0.042944	99
Es	-0.936139	0.811262	-0.207953	99
Es	-0.881697	0.774581	0.444297	99
Es	1.967030	-0.409442	-0.177165	99
Es	0.254405	0.527853	0.007494	99
Es	-1.253711	1.954179	0.212029	99
Es	-2.062189	-1.489130	0.078072	99
Es	1.942668	-0.022227	-0.155212	99
Es	-1.415945	1.265243	0.186571	99
Es	3.504806	0.349365	-0.259502	99
Es	3.121259	0.717339	-0.216552	99
Es	-0.468145	0.322650	0.055365	99
Es	-2.092483	-1.946651	0.058127	99
Es	1.471402	0.352357	-0.386543	99
Es	3.137973	1.022627	-0.193254	99
Es	-0.586627	-0.396767	0.024735	99
Es	3.106185	0.687484	-0.211551	99
Es	-0.687257	-1.158635	-0.009968	99
Es	2.591310	0.422032	-0.184181	99
Es	1.040917	1.519023	-0.005398	99
41
Properties=species:S:1:pos:R:3:Z:I:1 energy=-359.7579258782651 field_type=dipole dipole="0.000000 0.000000 0.000000" charge=0
O	-2.072423	-1.480297	0.083774	8
C	-0.687023	-1.158667	-0.009986	6
C	-0.468302	0.322723	0.055394	6
C	-1.415902	1.265183	0.186564	6
C	0.939727	0.787103	-0.034296	6
N	1.942677	-0.022887	-0.155246	7
O	3.125227	0.724343	-0.211636	8
H	-2.131682	-2.448867	0.030494	1
H	-0.313593	-1.556837	-0.959246	1
H	-0.170012	-1.656747	0.816844	1
H	-2.463892	0.986503	0.257654	1
H	-1.189492	2.325163	0.227904	1
H	1.096877	1.880613	0.008234	1
H	3.807807	0.032673	-0.296456	1
Es	0.254825	0.527433	0.007411	99
Es	-2.123340	1.115983	0.236628	99
Es	-2.321068	-1.269439	0.115806	99
Es	0.939670	0.787076	-0.034294	99
Es	2.590493	0.424196	-0.183628	99
Es	3.107273	0.689317	-0.210213	99
Es	-0.586489	-0.396130	0.024672	99
Es	1.471641	0.352056	-0.385601	99
Es	-1.534943	-1.434370	0.043499	99
Es	1.516849	0.323902	0.182915	99
Es	-0.936480	0.811033	-0.206891	99
Es	-0.426086	-1.418806	-0.653112	99
Es	1.942662	-0.022241	-0.155212	99
Es	3.138210	1.021007	-0.194793	99
Es	-2.091341	-1.938525	0.057480	99
Es	-2.048378	-1.500969	0.082074	99
Es	-0.468147	0.322645	0.055379	99
Es	-0.881538	0.774599	0.443348	99
Es	3.120221	0.715337	-0.216528	99
Es	-1.253551	1.952945	0.211892	99
Es	1.967125	-0.410520	-0.176776	99
Es	-0.328436	-1.486846	0.549976	99
Es	1.040793	1.519458	-0.005335	99
Es	-1.415945	1.265244	0.186571	99
Es	-2.071904	-1.480712	0.082606	99
Es	-0.687252	-1.158629	-0.009965	99
Es	3.504662	0.349220	-0.259890	99
41
Properties=species:S:1:pos:R:3:Z:I:1 energy=-359.7579258782651 field_type=dipole dipole="0.000000 0.000000 0.000000" charge=0
O	-2.072423	-1.480297	0.083774	8
C	-0.687023	-1.158667	-0.009986	6
C	-0.468302	0.322723	0.055394	6
C	-1.415902	1.265183	0.186564	6
C	0.939727	0.787103	-0.034296	6
N	1.942677	-0.022887	-0.155246	7
O	3.125227	0.724343	-0.211636	8
H	-2.131682	-2.448867	0.030494	1
H	-0.313593	-1.556837	-0.959246	1
H	-0.170012	-1.656747	0.816844	1
H	-2.463892	0.986503	0.257654	1
H	-1.189492	2.325163	0.227904	1
H	1.096877	1.880613	0.008234	1
H	3.807807	0.032673	-0.296456	1
Es	-1.536147	-1.440076	0.043660	99
Es	1.967689	-0.411518	-0.177291	99
Es	-0.933513	0.811307	-0.205618	99
Es	1.516947	0.324170	0.182074	99
Es	3.125172	0.723901	-0.211777	99
Es	-2.123226	1.117729	0.236720	99
Es	1.040884	1.519618	-0.005288	99
Es	0.939670	0.787076	-0.034292	99
Es	-0.426578	-1.418418	-0.652528	99
Es	-0.586486	-0.394925	0.024743	99
Es	2.589330	0.425436	-0.184355	99
Es	3.138384	1.020428	-0.194800	99
Es	1.942666	-0.022232	-0.155213	99
Es	-2.090029	-1.932905	0.057983	99
Es	-0.687255	-1.158633	-0.009966	99
Es	-0.328246	-1.487563	0.549364	99
Es	-2.070940	-1.481579	0.081379	99
Es	-1.253529	1.951327	0.211868	99
Es	0.255087	0.526521	0.007447	99
Es	-0.468145	0.322649	0.055380	99
Es	-1.415945	1.265244	0.186572	99
Es	3.504584	0.349086	-0.259682	99
Es	-2.049343	-1.500073	0.083033	99
Es	3.102312	0.680582	-0.214150	99
Es	1.471983	0.352340	-0.384520	99
Es	-2.321174	-1.269468	0.115380	99
Es	-0.884626	0.774237	0.441896	99
41
Properties=species:S:1:pos:R:3:Z:I:1 energy=-359.7579258782651 field_type=dipole dipole="0.000000 0.000000 0.000000" charge=0
O	-2.072423	-1.480297	0.083774	8
C	-0.687023	-1.158667	-0.009986	6
C	-0.468302	0.322723	0.055394	6
C	-1.415902	1.265183	0.186564	6
C	0.939727	0.787103	-0.034296	6
N	1.942677	-0.022887	-0.155246	7
O	3.125227	0.724343	-0.211636	8
H	-2.131682	-2.448867	0.030494	1
H	-0.313593	-1.556837	-0.959246	1
H	-0.170012	-1.656747	0.816844	1
H	-2.463892	0.986503	0.257654	1
H	-1.189492	2.325163	0.227904	1
H	1.096877	1.880613	0.008234	1
H	3.807807	0.032673	-0.296456	1
Es	-0.931255	0.811528	-0.203970	99
Es	-1.253474	1.951716	0.212488	99
Es	1.942643	-0.022273	-0.155213	99
Es	3.123923	0.722076	-0.214529	99
Es	-2.049108	-1.500370	0.077279	99
Es	3.102668	0.683452	-0.223344	99
Es	-0.586457	-0.395213	0.025037	99
Es	-0.435978	-1.404453	-0.643683	99
Es	3.140222	1.014844	-0.178924	99
Es	2.586876	0.430795	-0.185006	99
Es	0.939671	0.787075	-0.034284	99
Es	-0.468149	0.322644	0.055376	99
Es	-2.123195	1.117230	0.237426	99
Es	-2.088163	-1.923744	0.056448	99
Es	-0.318873	-1.501402	0.539526	99
Es	1.516706	0.325256	0.181950	99
Es	-0.886818	0.774099	0.440308	99
Es	1.969593	-0.411998	-0.179590	99
Es	3.504142	0.349043	-0.262725	99
Es	1.040864	1.519623	-0.004668	99
Es	-0.687253	-1.158633	-0.009961	99
Es	0.255003	0.526912	0.007168	99
Es	1.472166	0.351030	-0.383503	99
Es	-1.415945	1.265244	0.186575	99
Es	-2.071425	-1.481168	0.084656	99
Es	-1.538623	-1.449499	0.040526	99
Es	-2.320234	-1.269550	0.122655	99
41
Properties=species:S:1:pos:R:3:Z:I:1 energy=-359.7579258782651 field_type=dipole dipole="0.000000 0.000000 0.000000" charge=0
O	-2.072423	-1.480297	0.083774	8
C	-0.687023	-1.158667	-0.009986	6
C	-0.468302	0.322723	0.055394	6
C	-1.415902	1.265183	0.186564	6
C	0.939727	0.787103	-0.034296	6
N	1.942677	-0.022887	-0.155246	7
O	3.125227	0.724343	-0.211636	8
H	-2.131682	-2.448867	0.030494	1
H	-0.313593	-1.556837	-0.959246	1
H	-0.170012	-1.656747	0.816844	1
H	-2.463892	0.986503	0.257654	1
H	-1.189492	2.325163	0.227904	1
H	1.096877	1.880613	0.008234	1
H	3.807807	0.032673	-0.296456	1
Es	-1.253609	1.950312	0.212756	99
Es	-0.687253	-1.158632	-0.009964	99
Es	1.516596	0.325706	0.181479	99
Es	3.118788	0.713341	-0.219776	99
Es	0.939670	0.787077	-0.034291	99
Es	2.585859	0.431749	-0.184187	99
Es	-2.087057	-1.918920	0.055996	99
Es	0.255415	0.526121	0.007012	99
Es	-0.885183	0.774070	0.441889	99
Es	-2.319642	-1.269633	0.126899	99
Es	-2.050362	-1.499221	0.077824	99
Es	1.970499	-0.412301	-0.180715	99
Es	1.472382	0.350644	-0.382583	99
Es	-2.122966	1.118629	0.237812	99
Es	3.504004	0.349116	-0.264061	99
Es	-1.539978	-1.454550	0.040328	99
Es	-1.415945	1.265244	0.186573	99
Es	3.140264	1.014066	-0.178435	99
Es	1.942668	-0.022232	-0.155212	99
Es	1.040604	1.519891	-0.004295	99
Es	-0.586531	-0.394616	0.025229	99
Es	-0.468147	0.322648	0.055376	99
Es	-0.315945	-1.506213	0.532410	99
Es	-2.070440	-1.481999	0.080557	99
Es	3.107814	0.692168	-0.217977	99
Es	-0.439028	-1.399679	-0.637151	99
Es	-0.932951	0.811478	-0.205473	99
41
Properties=species:S:1:pos:R:3:Z:I:1 energy=-359.7579258782651 field_type=dipole dipole="0.000000 0.000000 0.000000" charge=0
O	-2.072423	-1.480297	0.083774	8
C	-0.687023	-1.158667	-0.009986	6
C	-0.468302	0.322723	0.055394	6
C	-1.415902	1.265183	0.186564	6
C	0.939727	0.787103	-0.034296	6
N	1.942677	-0.022887	-0.155246	7
O	3.125227	0.724343	-0.211636	8
H	-2.131682	-2.448867	0.030494	1
H	-0.313593	-1.556837	-0.959246	1
H	-0.170012	-1.656747	0.816844	1
H	-2.463892	0.986503	0.257654	1
H	-1.189492	2.325163	0.227904	1
H	1.096877	1.880613	0.008234	1
H	3.807807	0.032673	-0.296456	1
Es	-1.542354	-1.463941	0.043279	99
Es	1.516251	0.319846	0.175243	99
Es	3.110051	0.694822	-0.210712	99
Es	1.942663	-0.022238	-0.155213	99
Es	-2.048774	-1.500523	0.084664	99
Es	-0.874586	0.776209	0.431744	99
Es	-2.083966	-1.910551	0.062394	99
Es	-0.687255	-1.158633	-0.009966	99
Es	-2.071105	-1.481463	0.085554	99
Es	3.504662	0.348711	-0.256433	99
Es	1.040537	1.519951	-0.006042	99
Es	-0.342842	-1.467278	0.540185	99
Es	-0.468147	0.322646	0.055379	99
Es	1.971078	-0.412717	-0.174877	99
Es	1.472583	0.356686	-0.378581	99
Es	-1.415946	1.265243	0.186570	99
Es	-0.586698	-0.394439	0.024425	99
Es	3.118529	0.709274	-0.200356	99
Es	-2.321231	-1.268167	0.105355	99
Es	0.939670	0.787076	-0.034295	99
Es	-0.943564	0.809338	-0.195316	99
Es	2.585903	0.431094	-0.182382	99
Es	-1.253748	1.950086	0.211025	99
Es	3.137384	1.016555	-0.214989	99
Es	-2.123065	1.119133	0.235886	99
Es	-0.411853	-1.438722	-0.642071	99
Es	0.255351	0.526265	0.007548	99
41
Properties=species:S:1:pos:R:3:Z:I:1 energy=-359.7579258782651 field_type=dipole dipole="0.000000 0.000000 0.000000" charge=0
O	-2.072423	-1.480297	0.083774	8
C	-0.687023	-1.158667	-0.009986	6
C	-0.468302	0.322723	0.055394	6
C	-1.415902	1.265183	0.186564	6
C	0.939727	0.787103	-0.034296	6
N	1.942677	-0.022887	-0.155246	7
O	3.125227	0.724343	-0.211636	8
H	-2.131682	-2.448867	0.030494	1
H	-0.313593	-1.556837	-0.959246	1
H	-0.170012	-1.656747	0.816844	1
H	-2.463892	0.986503	0.257654	1
H	-1.189492	2.325163	0.227904	1
H	1.096877	1.880613	0.008234	1
H	3.807807	0.032673	-0.296456	1
Es	1.472598	0.350776	-0.382278	99
Es	-1.253665	1.949533	0.212914	99
Es	1.971113	-0.412490	-0.181573	99
Es	0.939670	0.787076	-0.034288	99
Es	3.503856	0.349051	-0.264660	99
Es	-0.687254	-1.158632	-0.009965	99
Es	-1.543940	-1.467553	0.038996	99
Es	-0.586555	-0.394790	0.025209	99
Es	0.255488	0.526364	0.006976	99
Es	1.942660	-0.022238	-0.155212	99
Es	-2.083048	-1.906018	0.056227	99
Es	-1.415945	1.265244	0.186573	99
Es	3.140917	1.011682	-0.171684	99
Es	-0.468147	0.322647	0.055377	99
Es	1.040473	1.520016	-0.004006	99
Es	-2.319604	-1.269778	0.127947	99
Es	-0.889662	0.773855	0.436596	99
Es	-2.071919	-1.480705	0.084410	99
Es	-2.122819	1.119449	0.238000	99
Es	-2.048885	-1.500530	0.074022	99
Es	-0.441573	-1.395639	-0.629801	99
Es	3.106370	0.690508	-0.222074	99
Es	1.516543	0.325766	0.181311	99
Es	2.584879	0.433661	-0.185616	99
Es	-0.313392	-1.510190	0.524833	99
Es	3.119850	0.715502	-0.220072	99
Es	-0.928482	0.811699	-0.200143	99
41
Properties=species:S:1:pos:R:3:Z:I:1 energy=-359.7579258782651 field_type=dipole dipole="0.000000 0.000000 0.000000" charge=0
O	-2.072423	-1.480297	0.083774	8
C	-0.687023	-1.158667	-0.009986	6
C	-0.468302	0.322723	0.055394	6
C	-1.415902	1.265183	0.186564	6
C	0.939727	0.787103	-0.034296	6
N	1.942677	-0.022887	-0.155246	7
O	3.125227	0.724343	-0.211636	8
H	-2.131682	-2.448867	0.030494	1
H	-0.313593	-1.556837	-0.959246	1
H	-0.170012	-1.656747	0.816844	1
H	-2.463892	0.986503	0.257654	1
H	-1.189492	2.325163	0.227904	1
H	1.096877	1.880613	0.008234	1
H	3.807807	0.032673	-0.296456	1
Es	1.942662	-0.022237	-0.155211	99
Es	-0.942589	0.809619	-0.198637	99
Es	-2.047800	-1.501302	0.088403	99
Es	1.473437	0.358692	-0.370128	99
Es	2.584763	0.433456	-0.181064	99
Es	1.515516	0.318055	0.166327	99
Es	-1.545583	-1.474510	0.045700	99
Es	-2.071997	-1.480668	0.082841	99
Es	0.939670	0.787077	-0.034295	99
Es	1.972134	-0.413043	-0.173984	99
Es	-0.468147	0.322646	0.055379	99
Es	-2.123056	1.119231	0.235673	99
Es	-2.080514	-1.899902	0.060013	99
Es	-1.253776	1.950019	0.210784	99
Es	-2.321483	-1.268331	0.104266	99
Es	3.137438	1.014433	-0.216497	99
Es	-0.408468	-1.443334	-0.636206	99
Es	-0.687256	-1.158634	-0.009968	99
Es	3.118510	0.711433	-0.212880	99
Es	-0.586726	-0.394077	0.024456	99
Es	-0.346248	-1.462729	0.534687	99
Es	1.040173	1.520221	-0.006348	99
Es	3.504671	0.348596	-0.255397	99
Es	3.110025	0.692642	-0.198862	99
Es	-1.415945	1.265244	0.186571	99
Es	-0.875587	0.775939	0.434745	99
Es	0.255704	0.525728	0.007654	99
