41
Properties=species:S:1:pos:R:3:Z:I:1 energy=-359.7907070525768 field_type=dipole dipole="0.000000 0.000000 0.000000" charge=0
O	-1.270234	-0.249724	1.548126	8
C	-0.529754	-0.584404	0.376776	6
C	-1.464234	-0.985654	-0.755503	6
O	-2.688904	-1.003624	-0.628314	8
C	0.305616	0.600736	-0.002564	6
C	1.770236	0.638006	0.353936	6
N	1.340666	0.477626	-1.033123	7
H	-2.213494	-0.380414	1.317876	1
H	0.086846	-1.458384	0.612696	1
H	-0.975504	-1.298484	-1.694664	1
H	-0.253824	1.528806	0.009276	1
H	2.224206	-0.231934	0.813446	1
H	2.212866	1.589486	0.623976	1
H	1.455516	1.357966	-1.541944	1
Es	-2.688578	-1.003616	-0.628342	99
Es	-1.754930	-0.324386	1.415278	99
Es	-1.192137	-0.455798	1.753648	99
Es	-2.236445	-1.233868	-0.594150	99
Es	-1.270363	-0.249834	1.547804	99
Es	-2.259036	-0.756873	-0.754782	99
Es	1.770096	0.637993	0.353709	99
Es	-1.000636	-0.776211	-0.195746	99
Es	1.384858	0.161437	-1.198042	99
Es	1.660906	0.558844	-0.474158	99
Es	2.074806	0.046810	0.665518	99
Es	0.305831	0.600659	-0.002716	99
Es	-1.464252	-0.985636	-0.755484	99
Es	-2.770484	-0.908290	-0.332759	99
Es	-0.113206	-1.178836	0.510849	99
Es	2.070312	1.285612	0.534185	99
Es	1.399695	1.015155	-1.320094	99
Es	0.979126	0.638436	0.394178	99
Es	-0.111756	-0.010276	0.156176	99
Es	-1.123928	-1.193191	-1.386184	99
Es	-1.225744	0.049100	1.586254	99
Es	-0.529916	-0.584335	0.376886	99
Es	-1.003996	-0.382449	1.080681	99
Es	0.784140	0.531500	-0.688410	99
Es	-0.073278	1.228159	0.000102	99
Es	-2.843818	-1.094987	-0.878593	99
Es	1.340550	0.478112	-1.032772	99
41
Properties=species:S:1:pos:R:3:Z:I:1 energy=-359.7907070525768 field_type=dipole dipole="0.000000 0.000000 0.000000" charge=0
O	-1.270234	-0.249724	1.548126	8
C	-0.529754	-0.584404	0.376776	6
C	-1.464234	-0.985654	-0.755503	6
O	-2.688904	-1.003624	-0.628314	8
C	0.305616	0.600736	-0.002564	6
C	1.770236	0.638006	0.353936	6
N	1.340666	0.477626	-1.033123	7
H	-2.213494	-0.380414	1.317876	1
H	0.086846	-1.458384	0.612696	1
H	-0.975504	-1.298484	-1.694664	1
H	-0.253824	1.528806	0.009276	1
H	2.224206	-0.231934	0.813446	1
H	2.212866	1.589486	0.623976	1
H	1.455516	1.357966	-1.541944	1
Es	2.075855	0.048340	0.663671	99
Es	1.340543	0.478114	-1.032741	99
Es	-1.225903	0.031669	1.581996	99
Es	-1.270373	-0.249815	1.547781	99
Es	-0.073170	1.227234	-0.000874	99
Es	-1.764065	-0.318890	1.417378	99
Es	-0.529914	-0.584336	0.376883	99
Es	-1.123998	-1.192938	-1.386263	99
Es	0.774900	0.528356	-0.688784	99
Es	-2.688569	-1.003611	-0.628327	99
Es	0.975992	0.638815	0.396830	99
Es	-2.258826	-0.759398	-0.753763	99
Es	1.670007	0.556422	-0.474158	99
Es	-0.113325	-1.177353	0.510966	99
Es	-2.762948	-0.907820	-0.331524	99
Es	2.071727	1.283755	0.532308	99
Es	-0.111712	-0.010666	0.156386	99
Es	-1.190318	-0.445711	1.755288	99
Es	1.400716	1.010458	-1.320435	99
Es	-1.464251	-0.985640	-0.755478	99
Es	1.770102	0.637993	0.353709	99
Es	-0.996561	-0.380637	1.081295	99
Es	0.305822	0.600663	-0.002707	99
Es	-2.851263	-1.094592	-0.879118	99
Es	1.385073	0.171923	-1.194645	99
Es	-1.000737	-0.776862	-0.196873	99
Es	-2.236990	-1.232247	-0.595765	99
41
Properties=species:S:1:pos:R:3:Z:I:1 energy=-359.7907070525768 field_type=dipole dipole="0.000000 0.000000 0.000000" charge=0
O	-1.270234	-0.249724	1.548126	8
C	-0.529754	-0.584404	0.376776	6
C	-1.464234	-0.985654	-0.755503	6
O	-2.688904	-1.003624	-0.628314	8
C	0.305616	0.600736	-0.002564	6
C	1.770236	0.638006	0.353936	6
N	1.340666	0.477626	-1.033123	7
H	-2.213494	-0.380414	1.317876	1
H	0.086846	-1.458384	0.612696	1
H	-0.975504	-1.298484	-1.694664	1
H	-0.253824	1.528806	0.009276	1
H	2.224206	-0.231934	0.813446	1
H	2.212866	1.589486	0.623976	1
H	1.455516	1.357966	-1.541944	1
Es	-2.236731	-1.230831	-0.596820	99
Es	0.305819	0.600656	-0.002704	99
Es	2.072779	1.282632	0.531364	99
Es	-1.124047	-1.192957	-1.386264	99
Es	-1.464246	-0.985655	-0.755480	99
Es	-2.688556	-1.003622	-0.628374	99
Es	0.770049	0.527110	-0.689583	99
Es	-0.112103	-0.011012	0.156549	99
Es	-2.758484	-0.907799	-0.330812	99
Es	-0.990466	-0.380794	1.082970	99
Es	1.675361	0.555260	-0.474079	99
Es	-0.072758	1.226810	-0.001452	99
Es	-0.529914	-0.584337	0.376880	99
Es	-1.185252	-0.430326	1.762676	99
Es	1.770102	0.637990	0.353707	99
Es	1.401014	1.006969	-1.319227	99
Es	0.974405	0.638824	0.397970	99
Es	-1.232903	0.017433	1.569305	99
Es	-1.000717	-0.777173	-0.197652	99
Es	2.076108	0.049270	0.662171	99
Es	1.340546	0.478098	-1.032748	99
Es	-1.270362	-0.249874	1.547816	99
Es	-0.113399	-1.176391	0.511005	99
Es	1.384813	0.178106	-1.192791	99
Es	-2.259380	-0.760964	-0.752724	99
Es	-1.768272	-0.319890	1.420976	99
Es	-2.855588	-1.094306	-0.879642	99
41
Properties=species:S:1:pos:R:3:Z:I:1 energy=-359.7907070525768 field_type=dipole dipole="0.000000 0.000000 0.000000" charge=0
O	-1.270234	-0.249724	1.548126	8
C	-0.529754	-0.584404	0.376776	6
C	-1.464234	-0.985654	-0.755503	6
O	-2.688904	-1.003624	-0.628314	8
C	0.305616	0.600736	-0.002564	6
C	1.770236	0.638006	0.353936	6
N	1.340666	0.477626	-1.033123	7
H	-2.213494	-0.380414	1.317876	1
H	0.086846	-1.458384	0.612696	1
H	-0.975504	-1.298484	-1.694664	1
H	-0.253824	1.528806	0.009276	1
H	2.224206	-0.231934	0.813446	1
H	2.212866	1.589486	0.623976	1
H	1.455516	1.357966	-1.541944	1
Es	-1.000699	-0.777397	-0.198071	99
Es	2.076034	0.050125	0.661198	99
Es	-1.179074	-0.413433	1.773023	99
Es	-0.985929	-0.380397	1.084216	99
Es	-1.241613	0.001186	1.554356	99
Es	-1.770353	-0.320927	1.424348	99
Es	0.767186	0.526822	-0.690007	99
Es	-0.529917	-0.584334	0.376883	99
Es	-0.111670	-0.011317	0.156699	99
Es	2.073381	1.281935	0.530860	99
Es	1.679701	0.554990	-0.474653	99
Es	1.384576	0.181919	-1.192425	99
Es	1.770103	0.637991	0.353709	99
Es	0.973452	0.638560	0.398208	99
Es	-2.688602	-1.003605	-0.628304	99
Es	-2.865928	-1.093682	-0.875401	99
Es	1.340548	0.478077	-1.032749	99
Es	0.305817	0.600658	-0.002710	99
Es	1.400330	1.003885	-1.317025	99
Es	-0.072617	1.226664	-0.001559	99
Es	-2.747664	-0.906709	-0.331812	99
Es	-1.464246	-0.985645	-0.755481	99
Es	-0.114014	-1.175669	0.510910	99
Es	-2.259287	-0.762418	-0.754730	99
Es	-1.123984	-1.192956	-1.386315	99
Es	-2.237336	-1.231184	-0.597930	99
Es	-1.270378	-0.249912	1.547798	99
41
Properties=species:S:1:pos:R:3:Z:I:1 energy=-359.7907070525768 field_type=dipole dipole="0.000000 0.000000 0.000000" charge=0
O	-1.270234	-0.249724	1.548126	8
C	-0.529754	-0.584404	0.376776	6
C	-1.464234	-0.985654	-0.755503	6
O	-2.688904	-1.003624	-0.628314	8
C	0.305616	0.600736	-0.002564	6
C	1.770236	0.638006	0.353936	6
N	1.340666	0.477626	-1.033123	7
H	-2.213494	-0.380414	1.317876	1
H	0.086846	-1.458384	0.612696	1
H	-0.975504	-1.298484	-1.694664	1
H	-0.253824	1.528806	0.009276	1
H	2.224206	-0.231934	0.813446	1
H	2.212866	1.589486	0.623976	1
H	1.455516	1.357966	-1.541944	1
Es	-1.000509	-0.777675	-0.198225	99
Es	-1.464247	-0.985645	-0.755481	99
Es	-1.251552	-0.019707	1.535846	99
Es	1.384230	0.184578	-1.193098	99
Es	-2.688562	-1.003617	-0.628350	99
Es	-2.237865	-1.230781	-0.598003	99
Es	-1.771801	-0.322128	1.427369	99
Es	0.765602	0.526785	-0.689888	99
Es	2.075937	0.050578	0.660164	99
Es	1.770109	0.637993	0.353713	99
Es	1.399770	1.002082	-1.314407	99
Es	-0.529914	-0.584335	0.376881	99
Es	2.074191	1.281574	0.530444	99
Es	0.972548	0.638296	0.397879	99
Es	-1.270354	-0.249922	1.547830	99
Es	-1.124018	-1.193025	-1.386290	99
Es	-2.869159	-1.094165	-0.873713	99
Es	-0.982039	-0.382131	1.086623	99
Es	-2.744328	-0.906633	-0.332242	99
Es	0.305815	0.600660	-0.002710	99
Es	1.682488	0.554294	-0.474809	99
Es	1.340543	0.478121	-1.032742	99
Es	-2.258971	-0.762374	-0.755688	99
Es	-1.171727	-0.389594	1.786022	99
Es	-0.072478	1.226697	-0.001650	99
Es	-0.111423	-0.011479	0.156719	99
Es	-0.114471	-1.175218	0.510845	99
41
Properties=species:S:1:pos:R:3:Z:I:1 energy=-359.7907070525768 field_type=dipole dipole="0.000000 0.000000 0.000000" charge=0
O	-1.270234	-0.249724	1.548126	8
C	-0.529754	-0.584404	0.376776	6
C	-1.464234	-0.985654	-0.755503	6
O	-2.688904	-1.003624	-0.628314	8
C	0.305616	0.600736	-0.002564	6
C	1.770236	0.638006	0.353936	6
N	1.340666	0.477626	-1.033123	7
H	-2.213494	-0.380414	1.317876	1
H	0.086846	-1.458384	0.612696	1
H	-0.975504	-1.298484	-1.694664	1
H	-0.253824	1.528806	0.009276	1
H	2.224206	-0.231934	0.813446	1
H	2.212866	1.589486	0.623976	1
H	1.455516	1.357966	-1.541944	1
Es	1.683621	0.555398	-0.474725	99
Es	-1.464247	-0.985640	-0.755482	99
Es	-2.238960	-1.231552	-0.598478	99
Es	-1.123852	-1.193090	-1.386286	99
Es	1.385025	0.185930	-1.192672	99
Es	-0.111541	-0.011427	0.156679	99
Es	-1.258022	-0.038096	1.525819	99
Es	-0.072051	1.226829	-0.001614	99
Es	0.971972	0.637933	0.397759	99
Es	-1.167556	-0.372641	1.792889	99
Es	-0.529915	-0.584334	0.376883	99
Es	-0.979033	-0.380757	1.087832	99
Es	0.305814	0.600659	-0.002707	99
Es	-1.000482	-0.777702	-0.198181	99
Es	-2.875260	-1.093067	-0.870447	99
Es	1.340536	0.478121	-1.032744	99
Es	-2.688569	-1.003630	-0.628387	99
Es	1.770096	0.637994	0.353710	99
Es	2.074552	1.281242	0.530085	99
Es	-1.270379	-0.249966	1.547799	99
Es	0.764297	0.526545	-0.690579	99
Es	-2.738035	-0.906595	-0.333762	99
Es	2.076018	0.050944	0.659481	99
Es	-1.772646	-0.322033	1.429242	99
Es	1.399375	0.999958	-1.313032	99
Es	-0.114825	-1.175148	0.510752	99
Es	-2.258116	-0.762648	-0.756800	99
41
Properties=species:S:1:pos:R:3:Z:I:1 energy=-359.7907070525768 field_type=dipole dipole="0.000000 0.000000 0.000000" charge=0
O	-1.270234	-0.249724	1.548126	8
C	-0.529754	-0.584404	0.376776	6
C	-1.464234	-0.985654	-0.755503	6
O	-2.688904	-1.003624	-0.628314	8
C	0.305616	0.600736	-0.002564	6
C	1.770236	0.638006	0.353936	6
N	1.340666	0.477626	-1.033123	7
H	-2.213494	-0.380414	1.317876	1
H	0.086846	-1.458384	0.612696	1
H	-0.975504	-1.298484	-1.694664	1
H	-0.253824	1.528806	0.009276	1
H	2.224206	-0.231934	0.813446	1
H	2.212866	1.589486	0.623976	1
H	1.455516	1.357966	-1.541944	1
Es	1.684181	0.555143	-0.474689	99
Es	-1.161146	-0.342727	1.802804	99
Es	2.075090	1.281023	0.529757	99
Es	-2.878894	-1.093277	-0.867817	99
Es	-0.111150	-0.011503	0.156695	99
Es	-2.260793	-0.761550	-0.757258	99
Es	-1.773288	-0.322684	1.431503	99
Es	-2.688562	-1.003601	-0.628300	99
Es	1.384842	0.187079	-1.191841	99
Es	-2.236209	-1.232234	-0.598203	99
Es	0.764124	0.526201	-0.689825	99
Es	-2.734543	-0.906816	-0.336117	99
Es	-1.000301	-0.777702	-0.198022	99
Es	1.770094	0.637992	0.353715	99
Es	-0.529915	-0.584336	0.376886	99
Es	-1.270378	-0.249927	1.547802	99
Es	2.076028	0.050954	0.658882	99
Es	0.305812	0.600657	-0.002708	99
Es	-1.123734	-1.193107	-1.386243	99
Es	1.399558	0.999592	-1.313128	99
Es	-0.072022	1.227166	-0.001615	99
Es	0.971114	0.637849	0.397019	99
Es	-0.976552	-0.382826	1.090162	99
Es	-1.464247	-0.985645	-0.755481	99
Es	-0.115320	-1.175236	0.510606	99
Es	1.340536	0.478125	-1.032715	99
Es	-1.266509	-0.065382	1.511168	99
41
Properties=species:S:1:pos:R:3:Z:I:1 energy=-359.7907070525768 field_type=dipole dipole="0.000000 0.000000 0.000000" charge=0
O	-1.270234	-0.249724	1.548126	8
C	-0.529754	-0.584404	0.376776	6
C	-1.464234	-0.985654	-0.755503	6
O	-2.688904	-1.003624	-0.628314	8
C	0.305616	0.600736	-0.002564	6
C	1.770236	0.638006	0.353936	6
N	1.340666	0.477626	-1.033123	7
H	-2.213494	-0.380414	1.317876	1
H	0.086846	-1.458384	0.612696	1
H	-0.975504	-1.298484	-1.694664	1
H	-0.253824	1.528806	0.009276	1
H	2.224206	-0.231934	0.813446	1
H	2.212866	1.589486	0.623976	1
H	1.455516	1.357966	-1.541944	1
Es	0.762352	0.524227	-0.693881	99
Es	1.340539	0.478115	-1.032743	99
Es	-2.261701	-0.766318	-0.754081	99
Es	-2.236155	-1.231073	-0.602719	99
Es	-2.729949	-0.906799	-0.333528	99
Es	-1.270368	-0.249761	1.547805	99
Es	1.375069	0.202412	-1.171465	99
Es	1.403528	0.993194	-1.328833	99
Es	-2.882596	-1.089050	-0.869406	99
Es	-1.464246	-0.985644	-0.755481	99
Es	-0.529915	-0.584334	0.376883	99
Es	-1.774275	-0.301955	1.426940	99
Es	-1.232620	-0.436015	1.662242	99
Es	1.692538	0.548209	-0.479476	99
Es	-0.111979	-1.174265	0.511162	99
Es	2.077991	0.051557	0.661110	99
Es	-0.114199	-0.012065	0.157335	99
Es	0.971764	0.639924	0.401276	99
Es	1.770099	0.637990	0.353708	99
Es	-1.123823	-1.192787	-1.386567	99
Es	-1.196097	-0.008961	1.658906	99
Es	0.305815	0.600657	-0.002708	99
Es	-0.974249	-0.366704	1.088025	99
Es	-2.688528	-1.003580	-0.628245	99
Es	2.071441	1.278284	0.528319	99
Es	-0.072069	1.225585	-0.002287	99
Es	-1.000549	-0.777614	-0.199254	99
41
Properties=species:S:1:pos:R:3:Z:I:1 energy=-359.7907070525768 field_type=dipole dipole="0.000000 0.000000 0.000000" charge=0
O	-1.270234	-0.249724	1.548126	8
C	-0.529754	-0.584404	0.376776	6
C	-1.464234	-0.985654	-0.755503	6
O	-2.688904	-1.003624	-0.628314	8
C	0.305616	0.600736	-0.002564	6
C	1.770236	0.638006	0.353936	6
N	1.340666	0.477626	-1.033123	7
H	-2.213494	-0.380414	1.317876	1
H	0.086846	-1.458384	0.612696	1
H	-0.975504	-1.298484	-1.694664	1
H	-0.253824	1.528806	0.009276	1
H	2.224206	-0.231934	0.813446	1
H	2.212866	1.589486	0.623976	1
H	1.455516	1.357966	-1.541944	1
Es	-1.000292	-0.777678	-0.197949	99
Es	-0.973698	-0.381650	1.091984	99
Es	1.384434	0.188104	-1.192302	99
Es	-1.273036	-0.096178	1.502382	99
Es	0.969660	0.637822	0.397569	99
Es	-2.237125	-1.234355	-0.603406	99
Es	0.305811	0.600656	-0.002711	99
Es	-1.464247	-0.985639	-0.755483	99
Es	-2.902888	-1.087992	-0.850511	99
Es	1.685390	0.554554	-0.476166	99
Es	1.340530	0.478166	-1.032719	99
Es	1.399325	0.998687	-1.311805	99
Es	-1.270350	-0.249900	1.547856	99
Es	-2.261636	-0.762363	-0.761283	99
Es	2.074982	1.280349	0.529023	99
Es	-2.708808	-0.909103	-0.343872	99
Es	1.770096	0.637992	0.353705	99
Es	-1.123369	-1.193097	-1.386312	99
Es	-0.110688	-0.011605	0.156794	99
Es	-0.115648	-1.175181	0.510417	99
Es	-1.774050	-0.321557	1.434194	99
Es	-0.072109	1.227422	-0.001233	99
Es	-0.529916	-0.584333	0.376886	99
Es	0.764713	0.526547	-0.689223	99
Es	-2.688557	-1.003624	-0.628368	99
Es	2.076373	0.051427	0.658527	99
Es	-1.157080	-0.314244	1.807041	99
41
Properties=species:S:1:pos:R:3:Z:I:1 energy=-359.7907070525768 field_type=dipole dipole="0.000000 0.000000 0.000000" charge=0
O	-1.270234	-0.249724	1.548126	8
C	-0.529754	-0.584404	0.376776	6
C	-1.464234	-0.985654	-0.755503	6
O	-2.688904	-1.003624	-0.628314	8
C	0.305616	0.600736	-0.002564	6
C	1.770236	0.638006	0.353936	6
N	1.340666	0.477626	-1.033123	7
H	-2.213494	-0.380414	1.317876	1
H	0.086846	-1.458384	0.612696	1
H	-0.975504	-1.298484	-1.694664	1
H	-0.253824	1.528806	0.009276	1
H	2.224206	-0.231934	0.813446	1
H	2.212866	1.589486	0.623976	1
H	1.455516	1.357966	-1.541944	1
Es	0.305812	0.600659	-0.002702	99
Es	-0.110663	-0.011636	0.156947	99
Es	-0.529917	-0.584332	0.376885	99
Es	2.075916	0.051830	0.658575	99
Es	0.765753	0.526943	-0.689083	99
Es	-0.974325	-0.380858	1.091043	99
Es	-1.000252	-0.777768	-0.197894	99
Es	2.074839	1.279923	0.529351	99
Es	-1.123188	-1.193096	-1.386435	99
Es	-0.115421	-1.175111	0.510400	99
Es	-2.685916	-0.912056	-0.356518	99
Es	-1.275279	-0.110418	1.499766	99
Es	-2.688595	-1.003627	-0.628342	99
Es	1.398990	0.998532	-1.310849	99
Es	-1.154317	-0.302205	1.809936	99
Es	-2.239337	-1.235761	-0.606676	99
Es	-2.923902	-1.082063	-0.830560	99
Es	1.685223	0.555371	-0.477459	99
Es	-1.774180	-0.320023	1.435025	99
Es	0.968836	0.638040	0.398232	99
Es	1.770097	0.637992	0.353706	99
Es	-1.270363	-0.249958	1.547822	99
Es	-1.464246	-0.985643	-0.755480	99
Es	1.340536	0.478127	-1.032712	99
Es	1.385186	0.186814	-1.193678	99
Es	-0.072269	1.227416	-0.001005	99
Es	-2.261201	-0.763864	-0.765257	99
41
Properties=species:S:1:pos:R:3:Z:I:1 energy=-359.7907070525768 field_type=dipole dipole="0.000000 0.000000 0.000000" charge=0
O	-1.270234	-0.249724	1.548126	8
C	-0.529754	-0.584404	0.376776	6
C	-1.464234	-0.985654	-0.755503	6
O	-2.688904	-1.003624	-0.628314	8
C	0.305616	0.600736	-0.002564	6
C	1.770236	0.638006	0.353936	6
N	1.340666	0.477626	-1.033123	7
H	-2.213494	-0.380414	1.317876	1
H	0.086846	-1.458384	0.612696	1
H	-0.975504	-1.298484	-1.694664	1
H	-0.253824	1.528806	0.009276	1
H	2.224206	-0.231934	0.813446	1
H	2.212866	1.589486	0.623976	1
H	1.455516	1.357966	-1.541944	1
Es	2.074601	1.279642	0.529161	99
Es	-2.933337	-1.078688	-0.819170	99
Es	-1.464245	-0.985646	-0.755480	99
Es	-2.264373	-0.763277	-0.765518	99
Es	-0.529916	-0.584334	0.376885	99
Es	-2.688534	-1.003643	-0.628431	99
Es	-0.974348	-0.380075	1.090659	99
Es	0.968377	0.638179	0.398792	99
Es	-1.774387	-0.318615	1.435584	99
Es	-0.110550	-0.011684	0.157139	99
Es	-1.270377	-0.250419	1.547838	99
Es	-0.072139	1.227387	-0.000909	99
Es	-1.277498	-0.126632	1.497652	99
Es	-1.151917	-0.287771	1.811896	99
Es	1.340524	0.478203	-1.032699	99
Es	-1.123113	-1.193092	-1.386453	99
Es	2.076042	0.051981	0.658637	99
Es	-1.000275	-0.777631	-0.197951	99
Es	0.766252	0.526949	-0.689139	99
Es	-2.237025	-1.236478	-0.609872	99
Es	1.399425	0.998856	-1.311234	99
Es	1.770096	0.637993	0.353705	99
Es	1.684368	0.555451	-0.477719	99
Es	0.305813	0.600657	-0.002706	99
Es	1.385657	0.186279	-1.193558	99
Es	-2.675675	-0.915238	-0.364347	99
Es	-0.115634	-1.175125	0.510276	99
41
Properties=species:S:1:pos:R:3:Z:I:1 energy=-359.7907070525768 field_type=dipole dipole="0.000000 0.000000 0.000000" charge=0
O	-1.270234	-0.249724	1.548126	8
C	-0.529754	-0.584404	0.376776	6
C	-1.464234	-0.985654	-0.755503	6
O	-2.688904	-1.003624	-0.628314	8
C	0.305616	0.600736	-0.002564	6
C	1.770236	0.638006	0.353936	6
N	1.340666	0.477626	-1.033123	7
H	-2.213494	-0.380414	1.317876	1
H	0.086846	-1.458384	0.612696	1
H	-0.975504	-1.298484	-1.694664	1
H	-0.253824	1.528806	0.009276	1
H	2.224206	-0.231934	0.813446	1
H	2.212866	1.589486	0.623976	1
H	1.455516	1.357966	-1.541944	1
Es	-1.000219	-0.777570	-0.197662	99
Es	-0.110906	-0.011542	0.156848	99
Es	-1.464246	-0.985646	-0.755480	99
Es	-2.688504	-1.003662	-0.628486	99
Es	0.766422	0.526934	-0.688313	99
Es	1.770094	0.637993	0.353705	99
Es	-0.973074	-0.379698	1.091644	99
Es	-1.149902	-0.262959	1.811695	99
Es	-2.932275	-1.078058	-0.820431	99
Es	-0.072358	1.227709	-0.000847	99
Es	-0.529915	-0.584334	0.376886	99
Es	-1.774767	-0.317092	1.436669	99
Es	0.305814	0.600658	-0.002700	99
Es	-1.280333	-0.153664	1.496307	99
Es	1.685398	0.553666	-0.477962	99
Es	1.383757	0.187970	-1.191586	99
Es	2.074253	1.279414	0.528589	99
Es	-0.115088	-1.175535	0.510364	99
Es	1.400162	0.999184	-1.312952	99
Es	-2.677224	-0.913892	-0.364731	99
Es	-1.270567	-0.250083	1.547184	99
Es	1.340527	0.478164	-1.032710	99
Es	2.076728	0.051614	0.658860	99
Es	-2.259290	-0.763983	-0.767148	99
Es	-2.241674	-1.237636	-0.606442	99
Es	-1.123009	-1.193092	-1.386428	99
Es	0.968012	0.638368	0.398164	99
41
Properties=species:S:1:pos:R:3:Z:I:1 energy=-359.7907070525768 field_type=dipole dipole="0.000000 0.000000 0.000000" charge=0
O	-1.270234	-0.249724	1.548126	8
C	-0.529754	-0.584404	0.376776	6
C	-1.464234	-0.985654	-0.755503	6
O	-2.688904	-1.003624	-0.628314	8
C	0.305616	0.600736	-0.002564	6
C	1.770236	0.638006	0.353936	6
N	1.340666	0.477626	-1.033123	7
H	-2.213494	-0.380414	1.317876	1
H	0.086846	-1.458384	0.612696	1
H	-0.975504	-1.298484	-1.694664	1
H	-0.253824	1.528806	0.009276	1
H	2.224206	-0.231934	0.813446	1
H	2.212866	1.589486	0.623976	1
H	1.455516	1.357966	-1.541944	1
Es	-2.239685	-1.237264	-0.608439	99
Es	-1.270404	-0.250230	1.547758	99
Es	1.770095	0.637993	0.353709	99
Es	-0.972932	-0.379235	1.091694	99
Es	1.384423	0.187719	-1.192094	99
Es	-1.279764	-0.147791	1.496294	99
Es	0.766452	0.527089	-0.689064	99
Es	-1.000217	-0.777731	-0.197900	99
Es	-2.261925	-0.764121	-0.767477	99
Es	-1.464246	-0.985645	-0.755481	99
Es	-0.529915	-0.584334	0.376884	99
Es	1.685938	0.554925	-0.478514	99
Es	-2.688528	-1.003622	-0.628372	99
Es	0.305814	0.600658	-0.002706	99
Es	-2.937728	-1.076803	-0.813579	99
Es	2.076288	0.052026	0.658589	99
Es	-0.072117	1.227491	-0.000858	99
Es	-2.671075	-0.915445	-0.369364	99
Es	-1.122974	-1.193064	-1.386480	99
Es	-0.110628	-0.011651	0.157126	99
Es	-0.115570	-1.175094	0.510277	99
Es	2.074322	1.279133	0.528903	99
Es	1.399501	0.998069	-1.311854	99
Es	1.340564	0.477999	-1.032801	99
Es	0.967741	0.638362	0.398918	99
Es	-1.150847	-0.269669	1.811500	99
Es	-1.774766	-0.316537	1.436367	99
41
Properties=species:S:1:pos:R:3:Z:I:1 energy=-359.7907070525768 field_type=dipole dipole="0.000000 0.000000 0.000000" charge=0
O	-1.270234	-0.249724	1.548126	8
C	-0.529754	-0.584404	0.376776	6
C	-1.464234	-0.985654	-0.755503	6
O	-2.688904	-1.003624	-0.628314	8
C	0.305616	0.600736	-0.002564	6
C	1.770236	0.638006	0.353936	6
N	1.340666	0.477626	-1.033123	7
H	-2.213494	-0.380414	1.317876	1
H	0.086846	-1.458384	0.612696	1
H	-0.975504	-1.298484	-1.694664	1
H	-0.253824	1.528806	0.009276	1
H	2.224206	-0.231934	0.813446	1
H	2.212866	1.589486	0.623976	1
H	1.455516	1.357966	-1.541944	1
Es	-1.281481	-0.166823	1.495947	99
Es	-1.464246	-0.985644	-0.755481	99
Es	-0.115238	-1.175112	0.510329	99
Es	1.340548	0.478070	-1.032751	99
Es	-0.529916	-0.584334	0.376884	99
Es	-1.000194	-0.777727	-0.197924	99
Es	1.684930	0.554670	-0.478671	99
Es	-1.148659	-0.252446	1.812661	99
Es	0.305812	0.600656	-0.002706	99
Es	1.384329	0.187170	-1.190633	99
Es	-2.661742	-0.918179	-0.379354	99
Es	-2.239266	-1.238039	-0.609667	99
Es	-2.688541	-1.003637	-0.628410	99
Es	2.073918	1.279030	0.528941	99
Es	-0.110771	-0.011644	0.157186	99
Es	-1.122970	-1.193021	-1.386544	99
Es	2.076428	0.052089	0.658828	99
Es	-0.973481	-0.378914	1.091008	99
Es	-1.774769	-0.315340	1.436267	99
Es	-2.946381	-1.072890	-0.801369	99
Es	-1.270377	-0.249921	1.547774	99
Es	1.770093	0.637989	0.353705	99
Es	-2.262983	-0.764477	-0.768417	99
Es	0.767037	0.527207	-0.689320	99
Es	1.400581	0.998614	-1.313837	99
Es	-0.072248	1.227443	-0.000772	99
Es	0.967403	0.638440	0.399361	99
41
Properties=species:S:1:pos:R:3:Z:I:1 energy=-359.7907070525768 field_type=dipole dipole="0.000000 0.000000 0.000000" charge=0
O	-1.270234	-0.249724	1.548126	8
C	-0.529754	-0.584404	0.376776	6
C	-1.464234	-0.985654	-0.755503	6
O	-2.688904	-1.003624	-0.628314	8
C	0.305616	0.600736	-0.002564	6
C	1.770236	0.638006	0.353936	6
N	1.340666	0.477626	-1.033123	7
H	-2.213494	-0.380414	1.317876	1
H	0.086846	-1.458384	0.612696	1
H	-0.975504	-1.298484	-1.694664	1
H	-0.253824	1.528806	0.009276	1
H	2.224206	-0.231934	0.813446	1
H	2.212866	1.589486	0.623976	1
H	1.455516	1.357966	-1.541944	1
Es	1.400134	0.998804	-1.313062	99
Es	-1.282265	-0.179680	1.496763	99
Es	-2.239271	-1.238706	-0.611684	99
Es	-0.529914	-0.584337	0.376886	99
Es	-2.688381	-1.003616	-0.628367	99
Es	-2.264062	-0.764607	-0.770020	99
Es	2.073545	1.278770	0.528886	99
Es	-0.072016	1.227269	-0.000727	99
Es	-2.954262	-1.068915	-0.787737	99
Es	1.384351	0.186741	-1.191761	99
Es	-2.652896	-0.921310	-0.389460	99
Es	-1.146572	-0.242655	1.814132	99
Es	-1.774741	-0.313929	1.435739	99
Es	0.967584	0.638660	0.399910	99
Es	1.770096	0.637984	0.353706	99
Es	-1.270375	-0.250012	1.547796	99
Es	1.685274	0.554605	-0.479500	99
Es	-1.464246	-0.985646	-0.755480	99
Es	-0.115123	-1.175128	0.510296	99
Es	-0.111065	-0.011610	0.157300	99
Es	-1.000247	-0.777626	-0.197984	99
Es	-1.122957	-1.193056	-1.386581	99
Es	2.076432	0.052260	0.659152	99
Es	0.767239	0.527361	-0.689061	99
Es	-0.974805	-0.377168	1.089342	99
Es	0.305814	0.600656	-0.002706	99
Es	1.340543	0.478120	-1.032741	99
41
Properties=species:S:1:pos:R:3:Z:I:1 energy=-359.7907070525768 field_type=dipole dipole="0.000000 0.000000 0.000000" charge=0
O	-1.270234	-0.249724	1.548126	8
C	-0.529754	-0.584404	0.376776	6
C	-1.464234	-0.985654	-0.755503	6
O	-2.688904	-1.003624	-0.628314	8
C	0.305616	0.600736	-0.002564	6
C	1.770236	0.638006	0.353936	6
N	1.340666	0.477626	-1.033123	7
H	-2.213494	-0.380414	1.317876	1
H	0.086846	-1.458384	0.612696	1
H	-0.975504	-1.298484	-1.694664	1
H	-0.253824	1.528806	0.009276	1
H	2.224206	-0.231934	0.813446	1
H	2.212866	1.589486	0.623976	1
H	1.455516	1.357966	-1.541944	1
Es	-1.774946	-0.319027	1.432163	99
Es	-1.151518	-0.249711	1.811457	99
Es	0.305811	0.600657	-0.002711	99
Es	0.755400	0.522600	-0.691584	99
Es	1.770102	0.637992	0.353709	99
Es	-0.999902	-0.777955	-0.198446	99
Es	-2.785374	-1.093768	-0.884196	99
Es	1.696152	0.548425	-0.473830	99
Es	1.340541	0.478115	-1.032738	99
Es	-2.260409	-0.755741	-0.745425	99
Es	0.974888	0.637237	0.392175	99
Es	-1.281931	-0.167246	1.495515	99
Es	-0.968621	-0.377829	1.095700	99
Es	-2.234224	-1.230053	-0.585496	99
Es	1.377666	0.205283	-1.181773	99
Es	-2.688514	-1.003580	-0.628244	99
Es	-0.115829	-1.174834	0.510836	99
Es	-0.111622	-0.011827	0.156284	99
Es	-0.071452	1.226793	-0.003129	99
Es	-1.270380	-0.249925	1.547783	99
Es	1.397713	0.993228	-1.311251	99
Es	-0.529915	-0.584335	0.376883	99
Es	2.076882	1.281282	0.527806	99
Es	-2.830746	-0.914227	-0.344499	99
Es	-1.464246	-0.985641	-0.755481	99
Es	2.076821	0.050298	0.657260	99
Es	-1.124531	-1.192981	-1.385731	99
41
Properties=species:S:1:pos:R:3:Z:I:1 energy=-359.7907070525768 field_type=dipole dipole="0.000000 0.000000 0.000000" charge=0
O	-1.270234	-0.249724	1.548126	8
C	-0.529754	-0.584404	0.376776	6
C	-1.464234	-0.985654	-0.755503	6
O	-2.688904	-1.003624	-0.628314	8
C	0.305616	0.600736	-0.002564	6
C	1.770236	0.638006	0.353936	6
N	1.340666	0.477626	-1.033123	7
H	-2.213494	-0.380414	1.317876	1
H	0.086846	-1.458384	0.612696	1
H	-0.975504	-1.298484	-1.694664	1
H	-0.253824	1.528806	0.009276	1
H	2.224206	-0.231934	0.813446	1
H	2.212866	1.589486	0.623976	1
H	1.455516	1.357966	-1.541944	1
Es	0.305818	0.600658	-0.002698	99
Es	-2.262113	-0.765480	-0.771251	99
Es	-2.651056	-0.921286	-0.391817	99
Es	-2.688491	-1.003708	-0.628626	99
Es	-0.114690	-1.175202	0.510368	99
Es	-0.072310	1.227300	-0.000706	99
Es	-2.955872	-1.067281	-0.784963	99
Es	-1.273426	-0.247170	1.537762	99
Es	-0.529916	-0.584333	0.376888	99
Es	1.770092	0.637994	0.353705	99
Es	0.767093	0.526952	-0.689206	99
Es	0.967486	0.638891	0.400071	99
Es	-2.241342	-1.239396	-0.610560	99
Es	-1.280045	-0.205794	1.509276	99
Es	2.073067	1.278312	0.528653	99
Es	1.686811	0.553339	-0.480104	99
Es	1.340539	0.478127	-1.032731	99
Es	1.400586	0.998592	-1.314828	99
Es	-1.122800	-1.192970	-1.386603	99
Es	-1.775038	-0.310935	1.435780	99
Es	1.382816	0.188670	-1.189475	99
Es	-0.111188	-0.011632	0.157268	99
Es	-1.146240	-0.224027	1.811322	99
Es	-1.000273	-0.777567	-0.197981	99
Es	-1.464246	-0.985645	-0.755480	99
Es	2.076687	0.052334	0.659370	99
Es	-0.974133	-0.375517	1.089602	99
41
Properties=species:S:1:pos:R:3:Z:I:1 energy=-359.7907070525768 field_type=dipole dipole="0.000000 0.000000 0.000000" charge=0
O	-1.270234	-0.249724	1.548126	8
C	-0.529754	-0.584404	0.376776	6
C	-1.464234	-0.985654	-0.755503	6
O	-2.688904	-1.003624	-0.628314	8
C	0.305616	0.600736	-0.002564	6
C	1.770236	0.638006	0.353936	6
N	1.340666	0.477626	-1.033123	7
H	-2.213494	-0.380414	1.317876	1
H	0.086846	-1.458384	0.612696	1
H	-0.975504	-1.298484	-1.694664	1
H	-0.253824	1.528806	0.009276	1
H	2.224206	-0.231934	0.813446	1
H	2.212866	1.589486	0.623976	1
H	1.455516	1.357966	-1.541944	1
Es	-0.115249	-1.174756	0.510249	99
Es	1.383847	0.187852	-1.191866	99
Es	1.687451	0.554986	-0.480556	99
Es	-1.270395	-0.249613	1.547665	99
Es	-1.282310	-0.183321	1.497290	99
Es	-1.122846	-1.192983	-1.386651	99
Es	-0.072183	1.227114	-0.000796	99
Es	2.076389	0.052595	0.658988	99
Es	-0.973971	-0.376710	1.090053	99
Es	-1.464246	-0.985645	-0.755480	99
Es	0.305814	0.600656	-0.002704	99
Es	-1.000322	-0.777674	-0.198281	99
Es	2.073334	1.278317	0.528828	99
Es	-2.649495	-0.922364	-0.392876	99
Es	-2.688494	-1.003691	-0.628576	99
Es	1.399254	0.997087	-1.311848	99
Es	-0.529915	-0.584333	0.376885	99
Es	-1.147190	-0.240938	1.812715	99
Es	0.967169	0.638750	0.400397	99
Es	0.767122	0.527577	-0.689305	99
Es	-1.774950	-0.312842	1.436122	99
Es	1.770091	0.637994	0.353705	99
Es	-2.243782	-1.238785	-0.610950	99
Es	-2.957207	-1.066069	-0.783499	99
Es	-2.259878	-0.766293	-0.771276	99
Es	-0.110763	-0.011788	0.157534	99
Es	1.340541	0.478106	-1.032730	99
41
Properties=species:S:1:pos:R:3:Z:I:1 energy=-359.7907070525768 field_type=dipole dipole="0.000000 0.000000 0.000000" charge=0
O	-1.270234	-0.249724	1.548126	8
C	-0.529754	-0.584404	0.376776	6
C	-1.464234	-0.985654	-0.755503	6
O	-2.688904	-1.003624	-0.628314	8
C	0.305616	0.600736	-0.002564	6
C	1.770236	0.638006	0.353936	6
N	1.340666	0.477626	-1.033123	7
H	-2.213494	-0.380414	1.317876	1
H	0.086846	-1.458384	0.612696	1
H	-0.975504	-1.298484	-1.694664	1
H	-0.253824	1.528806	0.009276	1
H	2.224206	-0.231934	0.813446	1
H	2.212866	1.589486	0.623976	1
H	1.455516	1.357966	-1.541944	1
Es	-0.115072	-1.174768	0.510326	99
Es	1.770091	0.637995	0.353704	99
Es	0.305813	0.600657	-0.002706	99
Es	1.340542	0.478110	-1.032735	99
Es	2.076303	0.052553	0.658949	99
Es	-0.973549	-0.376074	1.090174	99
Es	-2.688537	-1.003634	-0.628400	99
Es	-1.271478	-0.244869	1.543498	99
Es	-1.464246	-0.985642	-0.755480	99
Es	-2.958853	-1.065104	-0.780178	99
Es	-2.262722	-0.765570	-0.770619	99
Es	-2.241384	-1.239219	-0.613105	99
Es	-1.775019	-0.311026	1.435600	99
Es	-1.146887	-0.228432	1.811641	99
Es	-1.000397	-0.777797	-0.198266	99
Es	0.767312	0.527530	-0.689390	99
Es	2.073389	1.278165	0.528860	99
Es	0.967018	0.638795	0.400563	99
Es	-1.281842	-0.203009	1.502911	99
Es	-0.110902	-0.011715	0.157432	99
Es	-0.529915	-0.584334	0.376885	99
Es	1.687465	0.554607	-0.480548	99
Es	-0.072208	1.227156	-0.000765	99
Es	-2.647366	-0.923550	-0.394911	99
Es	-1.122813	-1.193003	-1.386639	99
Es	1.400361	0.996911	-1.315479	99
Es	1.382713	0.188497	-1.188286	99
41
Properties=species:S:1:pos:R:3:Z:I:1 energy=-359.7907070525768 field_type=dipole dipole="0.000000 0.000000 0.000000" charge=0
O	-1.270234	-0.249724	1.548126	8
C	-0.529754	-0.584404	0.376776	6
C	-1.464234	-0.985654	-0.755503	6
O	-2.688904	-1.003624	-0.628314	8
C	0.305616	0.600736	-0.002564	6
C	1.770236	0.638006	0.353936	6
N	1.340666	0.477626	-1.033123	7
H	-2.213494	-0.380414	1.317876	1
H	0.086846	-1.458384	0.612696	1
H	-0.975504	-1.298484	-1.694664	1
H	-0.253824	1.528806	0.009276	1
H	2.224206	-0.231934	0.813446	1
H	2.212866	1.589486	0.623976	1
H	1.455516	1.357966	-1.541944	1
Es	-1.271759	-0.249639	1.543376	99
Es	-1.122826	-1.192958	-1.386688	99
Es	2.073053	1.277938	0.528686	99
Es	1.340540	0.478111	-1.032730	99
Es	-0.111074	-0.011640	0.157487	99
Es	-0.974239	-0.376022	1.089640	99
Es	-1.464246	-0.985645	-0.755481	99
Es	-1.000323	-0.777819	-0.198259	99
Es	-2.688419	-1.003692	-0.628587	99
Es	-2.242217	-1.239363	-0.611047	99
Es	-0.529915	-0.584335	0.376883	99
Es	-0.115004	-1.174648	0.510295	99
Es	1.687848	0.554226	-0.480924	99