42
Properties=species:S:1:pos:R:3:Z:I:1 energy=-628.2439598927963 field_type=dipole dipole="0.000000 0.000000 0.000000" charge=0
C	-0.065269	-0.993970	1.106488	6
C	-0.443409	-1.376100	-0.355482	6
C	-0.134529	0.019730	-0.697912	6
C	-0.048819	1.013140	-1.606922	6
S	0.524071	2.441010	-0.773692	16
C	0.614761	1.624140	0.770918	6
C	0.214281	0.350530	0.580598	6
H	0.802691	-1.473730	1.571748	1
H	-0.853009	-1.006910	1.868378	1
H	-1.476409	-1.665300	-0.576692	1
H	0.185591	-2.101950	-0.882952	1
H	-0.263589	1.028560	-2.665632	1
H	0.943641	2.140850	1.661158	1
Es	-0.386283	0.607208	-1.066957	99
Es	0.835654	1.980195	1.357253	99
Es	0.614783	1.624302	0.770795	99
Es	0.709390	0.897277	0.590530	99
Es	-0.274580	-1.279381	0.405355	99
Es	0.108054	1.069065	0.712333	99
Es	0.152371	2.707145	-0.736820	99
Es	0.413022	2.404592	-0.801794	99
Es	-1.144656	-1.563294	-0.491227	99
Es	-0.007337	-1.860691	-0.701182	99
Es	0.548002	2.537023	-0.829514	99
Es	0.223910	1.715770	-1.229443	99
Es	-0.606819	-1.000179	1.607838	99
Es	0.525591	-1.320924	1.405358	99
Es	0.522956	2.443250	-0.771356	99
Es	0.961081	2.474369	-0.905912	99
Es	0.534977	2.458823	-0.657675	99
Es	-0.443388	-1.376043	-0.355453	99
Es	0.109539	-0.274708	0.947913	99
Es	0.216216	0.441979	-1.191834	99
Es	-0.315818	-0.687778	-0.642701	99
Es	0.050859	0.235596	-0.074689	99
Es	0.214279	0.350478	0.580684	99
Es	0.600851	2.358481	-0.806927	99
Es	-0.065270	-0.993935	1.106430	99
Es	-0.134567	0.019650	-0.697958	99
Es	-0.188407	1.036627	-2.313449	99
Es	0.581310	2.040799	0.038847	99
Es	-0.048759	1.013336	-1.606914	99
42
Properties=species:S:1:pos:R:3:Z:I:1 energy=-628.2439598927963 field_type=dipole dipole="0.000000 0.000000 0.000000" charge=0
C	-0.065269	-0.993970	1.106488	6
C	-0.443409	-1.376100	-0.355482	6
C	-0.134529	0.019730	-0.697912	6
C	-0.048819	1.013140	-1.606922	6
S	0.524071	2.441010	-0.773692	16
C	0.614761	1.624140	0.770918	6
C	0.214281	0.350530	0.580598	6
H	0.802691	-1.473730	1.571748	1
H	-0.853009	-1.006910	1.868378	1
H	-1.476409	-1.665300	-0.576692	1
H	0.185591	-2.101950	-0.882952	1
H	-0.263589	1.028560	-2.665632	1
H	0.943641	2.140850	1.661158	1
Es	-0.134567	0.019640	-0.697956	99
Es	0.625503	2.469015	-0.781219	99
Es	0.614782	1.624304	0.770793	99
Es	-0.604076	-1.001762	1.606620	99
Es	-0.188718	1.035717	-2.313781	99
Es	0.051590	0.237767	-0.075348	99
Es	-0.443388	-1.376043	-0.355450	99
Es	0.705628	0.898646	0.590788	99
Es	0.111848	1.068234	0.711962	99
Es	-0.065271	-0.993936	1.106431	99
Es	-0.048754	1.013338	-1.606915	99
Es	-0.010327	-1.860533	-0.699733	99
Es	0.214285	0.350474	0.580689	99
Es	0.639277	2.906715	-0.925555	99
Es	0.522599	-1.321003	1.405582	99
Es	-0.316019	-0.686915	-0.646275	99
Es	-1.141830	-1.564321	-0.490875	99
Es	0.226103	1.715010	-1.239989	99
Es	-0.275342	-1.282569	0.406506	99
Es	0.472580	2.469066	-0.877910	99
Es	0.110655	-0.272275	0.950047	99
Es	-0.382692	0.606296	-1.067597	99
Es	0.587735	2.044989	0.046358	99
Es	0.480252	2.507440	-0.691146	99
Es	0.212352	0.443127	-1.191053	99
Es	0.456196	2.280130	-0.714273	99
Es	0.526789	2.307570	-0.743423	99
Es	0.524290	2.441402	-0.773877	99
Es	0.835483	1.979511	1.358132	99
42
Properties=species:S:1:pos:R:3:Z:I:1 energy=-628.2439598927963 field_type=dipole dipole="0.000000 0.000000 0.000000" charge=0
C	-0.065269	-0.993970	1.106488	6
C	-0.443409	-1.376100	-0.355482	6
C	-0.134529	0.019730	-0.697912	6
C	-0.048819	1.013140	-1.606922	6
S	0.524071	2.441010	-0.773692	16
C	0.614761	1.624140	0.770918	6
C	0.214281	0.350530	0.580598	6
H	0.802691	-1.473730	1.571748	1
H	-0.853009	-1.006910	1.868378	1
H	-1.476409	-1.665300	-0.576692	1
H	0.185591	-2.101950	-0.882952	1
H	-0.263589	1.028560	-2.665632	1
H	0.943641	2.140850	1.661158	1
Es	0.524278	2.440859	-0.773708	99
Es	0.214280	0.350469	0.580692	99
Es	-0.188779	1.034982	-2.313898	99
Es	0.555155	2.565536	-0.796280	99
Es	0.703294	0.898533	0.590603	99
Es	0.614785	1.624308	0.770791	99
Es	0.522174	2.441674	-0.773402	99
Es	-0.380261	0.605341	-1.067353	99
Es	0.486283	2.367294	-0.869441	99
Es	0.624683	2.911833	-0.922552	99
Es	0.584269	2.045747	0.046009	99
Es	0.835443	1.979069	1.358521	99
Es	0.210440	0.443712	-1.189557	99
Es	0.533573	2.386762	-0.655919	99
Es	-0.443388	-1.376043	-0.355452	99
Es	0.111081	-0.270951	0.951485	99
Es	0.485282	2.267800	-0.717996	99
Es	-0.134565	0.019639	-0.697957	99
Es	0.223563	1.716135	-1.238471	99
Es	-0.065269	-0.993938	1.106427	99
Es	-1.140135	-1.565263	-0.491112	99
Es	0.520713	-1.320745	1.405624	99
Es	-0.275831	-1.285006	0.407212	99
Es	-0.048760	1.013344	-1.606914	99
Es	-0.011955	-1.859433	-0.698829	99
Es	-0.602333	-1.002449	1.605845	99
Es	0.113887	1.066998	0.710901	99
Es	0.051459	0.239253	-0.075821	99
Es	-0.316405	-0.686427	-0.647922	99
42
Properties=species:S:1:pos:R:3:Z:I:1 energy=-628.2439598927963 field_type=dipole dipole="0.000000 0.000000 0.000000" charge=0
C	-0.065269	-0.993970	1.106488	6
C	-0.443409	-1.376100	-0.355482	6
C	-0.134529	0.019730	-0.697912	6
C	-0.048819	1.013140	-1.606922	6
S	0.524071	2.441010	-0.773692	16
C	0.614761	1.624140	0.770918	6
C	0.214281	0.350530	0.580598	6
H	0.802691	-1.473730	1.571748	1
H	-0.853009	-1.006910	1.868378	1
H	-1.476409	-1.665300	-0.576692	1
H	0.185591	-2.101950	-0.882952	1
H	-0.263589	1.028560	-2.665632	1
H	0.943641	2.140850	1.661158	1
Es	0.487414	2.267990	-0.718896	99
Es	0.583696	2.045722	0.045392	99
Es	0.531793	2.367715	-0.667180	99
Es	0.624792	2.912067	-0.922654	99
Es	-0.048767	1.013346	-1.606912	99
Es	0.223094	1.716605	-1.237731	99
Es	-0.134565	0.019638	-0.697956	99
Es	-0.276214	-1.287119	0.407846	99
Es	0.835376	1.978685	1.359020	99
Es	0.518957	-1.320359	1.405683	99
Es	-0.188748	1.034517	-2.314031	99
Es	0.520068	2.441969	-0.772660	99
Es	0.557262	2.567920	-0.775937	99
Es	-0.316724	-0.686217	-0.649576	99
Es	-0.600649	-1.002904	1.605010	99
Es	0.214280	0.350475	0.580690	99
Es	-0.443390	-1.376043	-0.355449	99
Es	0.111613	-0.270035	0.952763	99
Es	0.208494	0.443757	-1.189252	99
Es	0.486104	2.384319	-0.878849	99
Es	0.525384	2.440733	-0.773706	99
Es	0.115525	1.066095	0.710112	99
Es	-1.138417	-1.565741	-0.491097	99
Es	0.701027	0.898664	0.590318	99
Es	0.051910	0.240393	-0.076254	99
Es	-0.378228	0.605123	-1.066383	99
Es	-0.065270	-0.993936	1.106432	99
Es	0.614780	1.624311	0.770791	99
Es	-0.013639	-1.858658	-0.698003	99
42
Properties=species:S:1:pos:R:3:Z:I:1 energy=-628.2439598927963 field_type=dipole dipole="0.000000 0.000000 0.000000" charge=0
C	-0.065269	-0.993970	1.106488	6
C	-0.443409	-1.376100	-0.355482	6
C	-0.134529	0.019730	-0.697912	6
C	-0.048819	1.013140	-1.606922	6
S	0.524071	2.441010	-0.773692	16
C	0.614761	1.624140	0.770918	6
C	0.214281	0.350530	0.580598	6
H	0.802691	-1.473730	1.571748	1
H	-0.853009	-1.006910	1.868378	1
H	-1.476409	-1.665300	-0.576692	1
H	0.185591	-2.101950	-0.882952	1
H	-0.263589	1.028560	-2.665632	1
H	0.943641	2.140850	1.661158	1
Es	0.517502	-1.320530	1.406733	99
Es	-0.443386	-1.376043	-0.355450	99
Es	0.547837	2.434218	-0.774875	99
Es	0.614788	1.624310	0.770787	99
Es	-0.376385	0.604825	-1.065918	99
Es	0.624520	2.912233	-0.923081	99
Es	-0.134560	0.019633	-0.697960	99
Es	0.699242	0.898701	0.589638	99
Es	0.583629	2.045578	0.044811	99
Es	-0.048768	1.013347	-1.606912	99
Es	-0.065275	-0.993938	1.106427	99
Es	0.526726	2.450941	-0.651501	99
Es	0.052043	0.241398	-0.076582	99
Es	-0.316650	-0.686165	-0.651060	99
Es	-1.137048	-1.566709	-0.491560	99
Es	0.540963	2.549503	-0.846056	99
Es	0.111876	-0.269198	0.953978	99
Es	0.525058	2.440468	-0.774101	99
Es	-0.276770	-1.289212	0.408496	99
Es	0.214277	0.350473	0.580693	99
Es	-0.015046	-1.857052	-0.696908	99
Es	0.206825	0.444022	-1.188626	99
Es	-0.189102	1.034045	-2.314164	99
Es	-0.598881	-1.002603	1.603144	99
Es	0.835428	1.978445	1.359339	99
Es	0.223633	1.716635	-1.237252	99
Es	0.477951	2.328484	-0.820710	99
Es	0.117132	1.065241	0.710085	99
Es	0.489402	2.267983	-0.719884	99
42
Properties=species:S:1:pos:R:3:Z:I:1 energy=-628.2439598927963 field_type=dipole dipole="0.000000 0.000000 0.000000" charge=0
C	-0.065269	-0.993970	1.106488	6
C	-0.443409	-1.376100	-0.355482	6
C	-0.134529	0.019730	-0.697912	6
C	-0.048819	1.013140	-1.606922	6
S	0.524071	2.441010	-0.773692	16
C	0.614761	1.624140	0.770918	6
C	0.214281	0.350530	0.580598	6
H	0.802691	-1.473730	1.571748	1
H	-0.853009	-1.006910	1.868378	1
H	-1.476409	-1.665300	-0.576692	1
H	0.185591	-2.101950	-0.882952	1
H	-0.263589	1.028560	-2.665632	1
H	0.943641	2.140850	1.661158	1
Es	-0.375684	0.603154	-1.067559	99
Es	0.224884	1.716447	-1.237065	99
Es	0.614785	1.624310	0.770789	99
Es	0.118962	1.064706	0.712029	99
Es	0.516797	2.443503	-0.771355	99
Es	-0.597603	-1.002554	1.602072	99
Es	0.516018	-1.320238	1.407107	99
Es	0.835167	1.978229	1.359646	99
Es	0.051860	0.242324	-0.076634	99
Es	-0.065271	-0.993937	1.106427	99
Es	-0.016025	-1.855944	-0.696195	99
Es	0.565699	2.564811	-0.781710	99
Es	0.532249	2.368189	-0.665526	99
Es	0.623936	2.912796	-0.922438	99
Es	-0.316911	-0.686134	-0.652201	99
Es	0.697278	0.898712	0.586976	99
Es	-0.277105	-1.290955	0.409053	99
Es	0.206613	0.445257	-1.186203	99
Es	0.488183	2.269041	-0.719624	99
Es	-1.135775	-1.567284	-0.491846	99
Es	0.214285	0.350470	0.580692	99
Es	0.478960	2.386296	-0.875472	99
Es	0.526680	2.440171	-0.774100	99
Es	-0.443389	-1.376045	-0.355454	99
Es	-0.048761	1.013348	-1.606911	99
Es	-0.188924	1.033712	-2.314267	99
Es	0.582323	2.045770	0.044517	99
Es	0.112292	-0.268758	0.954741	99
Es	-0.134564	0.019634	-0.697959	99
42
Properties=species:S:1:pos:R:3:Z:I:1 energy=-628.2439598927963 field_type=dipole dipole="0.000000 0.000000 0.000000" charge=0
C	-0.065269	-0.993970	1.106488	6
C	-0.443409	-1.376100	-0.355482	6
C	-0.134529	0.019730	-0.697912	6
C	-0.048819	1.013140	-1.606922	6
S	0.524071	2.441010	-0.773692	16
C	0.614761	1.624140	0.770918	6
C	0.214281	0.350530	0.580598	6
H	0.802691	-1.473730	1.571748	1
H	-0.853009	-1.006910	1.868378	1
H	-1.476409	-1.665300	-0.576692	1
H	0.185591	-2.101950	-0.882952	1
H	-0.263589	1.028560	-2.665632	1
H	0.943641	2.140850	1.661158	1
Es	0.052406	0.242942	-0.077015	99
Es	0.214277	0.350472	0.580692	99
Es	0.524881	2.440727	-0.773836	99
Es	-0.277403	-1.292460	0.409544	99
Es	-0.048742	1.013346	-1.606917	99
Es	0.481823	2.324155	-0.818345	99
Es	0.582397	2.045738	0.044244	99
Es	0.225189	1.716498	-1.236818	99
Es	0.835215	1.977965	1.359842	99
Es	0.539971	2.549285	-0.846764	99
Es	-0.016943	-1.854237	-0.695267	99
Es	0.523872	2.440991	-0.773598	99
Es	-0.065269	-0.993938	1.106429	99
Es	0.549086	2.448296	-0.655104	99
Es	-0.134565	0.019633	-0.697959	99
Es	0.487064	2.269664	-0.719526	99
Es	-1.134893	-1.568318	-0.492364	99
Es	-0.317125	-0.686197	-0.652998	99
Es	0.112481	-0.268344	0.955543	99
Es	0.696503	0.898697	0.588726	99
Es	0.514581	-1.321144	1.409369	99
Es	0.203942	0.443618	-1.189379	99
Es	0.625981	2.912156	-0.923414	99
Es	-0.443383	-1.376046	-0.355451	99
Es	0.119157	1.064185	0.709968	99
Es	-0.373302	0.605115	-1.063615	99
Es	-0.596091	-1.001416	1.599116	99
Es	0.614781	1.624313	0.770788	99
Es	-0.188930	1.033337	-2.314361	99
42
Properties=species:S:1:pos:R:3:Z:I:1 energy=-628.2439598927963 field_type=dipole dipole="0.000000 0.000000 0.000000" charge=0
C	-0.065269	-0.993970	1.106488	6
C	-0.443409	-1.376100	-0.355482	6
C	-0.134529	0.019730	-0.697912	6
C	-0.048819	1.013140	-1.606922	6
S	0.524071	2.441010	-0.773692	16
C	0.614761	1.624140	0.770918	6
C	0.214281	0.350530	0.580598	6
H	0.802691	-1.473730	1.571748	1
H	-0.853009	-1.006910	1.868378	1
H	-1.476409	-1.665300	-0.576692	1
H	0.185591	-2.101950	-0.882952	1
H	-0.263589	1.028560	-2.665632	1
H	0.943641	2.140850	1.661158	1
Es	-0.443389	-1.376045	-0.355455	99
Es	0.123445	1.063383	0.718127	99
Es	0.624932	2.912525	-0.923449	99
Es	-1.134581	-1.572614	-0.494505	99
Es	0.052171	0.243463	-0.077078	99
Es	0.202632	0.442793	-1.190567	99
Es	-0.371841	0.605587	-1.061875	99
Es	0.214278	0.350473	0.580697	99
Es	-0.189040	1.033201	-2.314314	99
Es	0.225656	1.716480	-1.236621	99
Es	0.536826	2.548482	-0.848798	99
Es	-0.065271	-0.993937	1.106428	99
Es	0.582211	2.045749	0.044049	99
Es	-0.134566	0.019634	-0.697959	99
Es	0.692415	0.899143	0.579969	99
Es	-0.277455	-1.293413	0.409781	99
Es	0.521674	2.441606	-0.773284	99
Es	0.526368	2.440444	-0.774144	99
Es	-0.017243	-1.849522	-0.692789	99
Es	0.614781	1.624312	0.770789	99
Es	-0.594397	-0.999862	1.595246	99
Es	-0.048759	1.013347	-1.606912	99
Es	0.486118	2.270490	-0.719562	99
Es	0.513049	-1.322504	1.412803	99
Es	0.488126	2.321760	-0.816550	99
Es	0.548352	2.450634	-0.654915	99
Es	-0.317261	-0.686249	-0.653508	99
Es	0.112517	-0.268140	0.956000	99
Es	0.835212	1.977812	1.359924	99
42
Properties=species:S:1:pos:R:3:Z:I:1 energy=-628.2439598927963 field_type=dipole dipole="0.000000 0.000000 0.000000" charge=0
C	-0.065269	-0.993970	1.106488	6
C	-0.443409	-1.376100	-0.355482	6
C	-0.134529	0.019730	-0.697912	6
C	-0.048819	1.013140	-1.606922	6
S	0.524071	2.441010	-0.773692	16
C	0.614761	1.624140	0.770918	6
C	0.214281	0.350530	0.580598	6
H	0.802691	-1.473730	1.571748	1
H	-0.853009	-1.006910	1.868378	1
H	-1.476409	-1.665300	-0.576692	1
H	0.185591	-2.101950	-0.882952	1
H	-0.263589	1.028560	-2.665632	1
H	0.943641	2.140850	1.661158	1
Es	0.582492	2.045665	0.043912	99
Es	0.214284	0.350471	0.580699	99
Es	-0.593137	-0.998568	1.592222	99
Es	-1.134281	-1.576854	-0.496758	99
Es	0.510039	2.330878	-0.699579	99
Es	-0.443395	-1.376047	-0.355454	99
Es	-0.134567	0.019634	-0.697959	99
Es	-0.356583	0.612046	-1.047216	99
Es	0.614781	1.624311	0.770787	99
Es	-0.277568	-1.293446	0.409826	99
Es	0.225118	1.716675	-1.236457	99
Es	-0.048759	1.013348	-1.606913	99
Es	-0.189259	1.033309	-2.314195	99
Es	0.495660	2.433669	-0.890075	99
Es	0.487769	2.270197	-0.720104	99
Es	0.566091	2.556743	-0.731367	99
Es	0.511746	-1.323926	1.415748	99
Es	0.112576	-0.268170	0.955923	99
Es	0.523938	2.441002	-0.773549	99
Es	0.835300	1.977739	1.359790	99
Es	-0.017701	-1.845238	-0.690469	99
Es	-0.317238	-0.686146	-0.653349	99
Es	0.693638	0.898876	0.582003	99
Es	0.186971	0.436401	-1.204633	99
Es	0.523617	2.441082	-0.773577	99
Es	-0.065274	-0.993937	1.106429	99
Es	0.121903	1.063455	0.715855	99
Es	0.052791	0.243361	-0.077069	99
Es	0.626008	2.912502	-0.922940	99
42
Properties=species:S:1:pos:R:3:Z:I:1 energy=-628.2439598927963 field_type=dipole dipole="0.000000 0.000000 0.000000" charge=0
C	-0.065269	-0.993970	1.106488	6
C	-0.443409	-1.376100	-0.355482	6
C	-0.134529	0.019730	-0.697912	6
C	-0.048819	1.013140	-1.606922	6
S	0.524071	2.441010	-0.773692	16
C	0.614761	1.624140	0.770918	6
C	0.214281	0.350530	0.580598	6
H	0.802691	-1.473730	1.571748	1
H	-0.853009	-1.006910	1.868378	1
H	-1.476409	-1.665300	-0.576692	1
H	0.185591	-2.101950	-0.882952	1
H	-0.263589	1.028560	-2.665632	1
H	0.943641	2.140850	1.661158	1
Es	0.511986	-1.323943	1.415449	99
Es	-0.317195	-0.686132	-0.653091	99
Es	0.169724	0.434140	-1.212163	99
Es	-0.277530	-1.293369	0.409743	99
Es	0.053520	0.243142	-0.077256	99
Es	0.626556	2.912259	-0.923717	99
Es	-0.065273	-0.993939	1.106427	99
Es	-0.593202	-0.998704	1.592464	99
Es	0.532282	2.438428	-0.775627	99
Es	0.614785	1.624311	0.770787	99
Es	0.224952	1.716766	-1.236244	99
Es	0.521144	2.517906	-0.878443	99
Es	0.695223	0.898647	0.585195	99
Es	0.112419	-0.268177	0.955836	99
Es	0.835484	1.977671	1.359662	99
Es	0.583643	2.045371	0.043633	99
Es	0.480574	2.315162	-0.770023	99
Es	-0.189412	1.033436	-2.313989	99
Es	-0.443389	-1.376045	-0.355454	99
Es	0.119890	1.063635	0.712217	99
Es	-0.017909	-1.844169	-0.689916	99
Es	0.214281	0.350471	0.580695	99
Es	0.559886	2.491498	-0.669480	99
Es	0.525261	2.440596	-0.773890	99
Es	0.486778	2.270853	-0.719975	99
Es	-1.134332	-1.577977	-0.497251	99
Es	-0.134571	0.019634	-0.697963	99
Es	-0.048757	1.013347	-1.606912	99
Es	-0.339855	0.614217	-1.039183	99
42
Properties=species:S:1:pos:R:3:Z:I:1 energy=-628.2439598927963 field_type=dipole dipole="0.000000 0.000000 0.000000" charge=0
C	-0.065269	-0.993970	1.106488	6
C	-0.443409	-1.376100	-0.355482	6
C	-0.134529	0.019730	-0.697912	6
C	-0.048819	1.013140	-1.606922	6
S	0.524071	2.441010	-0.773692	16
C	0.614761	1.624140	0.770918	6
C	0.214281	0.350530	0.580598	6
H	0.802691	-1.473730	1.571748	1
H	-0.853009	-1.006910	1.868378	1
H	-1.476409	-1.665300	-0.576692	1
H	0.185591	-2.101950	-0.882952	1
H	-0.263589	1.028560	-2.665632	1
H	0.943641	2.140850	1.661158	1
Es	0.498995	2.421826	-0.885345	99
Es	-0.590221	-0.996877	1.587260	99
Es	0.667097	0.904360	0.558567	99
Es	0.051583	0.243685	-0.077113	99
Es	-0.065279	-0.993941	1.106457	99
Es	0.112699	-0.268257	0.955743	99
Es	0.200406	0.440595	-1.194032	99
Es	0.563653	2.562918	-0.743846	99
Es	-0.189275	1.033340	-2.314009	99
Es	0.624265	2.913098	-0.922620	99
Es	0.527377	2.439971	-0.774660	99
Es	-0.134571	0.019633	-0.697964	99
Es	-0.369296	0.607615	-1.057507	99
Es	-0.317132	-0.686194	-0.653330	99
Es	0.148959	1.057336	0.738722	99
Es	0.224953	1.716800	-1.236400	99
Es	0.614781	1.624312	0.770788	99
Es	0.487127	2.271116	-0.719434	99
Es	-0.018328	-1.842649	-0.689124	99
Es	-0.443385	-1.376047	-0.355448	99
Es	0.582698	2.045602	0.043656	99
Es	0.517634	2.442601	-0.772838	99
Es	-1.133638	-1.579461	-0.497973	99
Es	0.513311	2.335495	-0.691791	99
Es	0.509201	-1.325859	1.420519	99
Es	0.214297	0.350467	0.580696	99
Es	0.835438	1.977635	1.359590	99
Es	-0.048756	1.013347	-1.606912	99
Es	-0.277630	-1.293436	0.409879	99
42
Properties=species:S:1:pos:R:3:Z:I:1 energy=-628.2439598927963 field_type=dipole dipole="0.000000 0.000000 0.000000" charge=0
C	-0.065269	-0.993970	1.106488	6
C	-0.443409	-1.376100	-0.355482	6
C	-0.134529	0.019730	-0.697912	6
C	-0.048819	1.013140	-1.606922	6
S	0.524071	2.441010	-0.773692	16
C	0.614761	1.624140	0.770918	6
C	0.214281	0.350530	0.580598	6
H	0.802691	-1.473730	1.571748	1
H	-0.853009	-1.006910	1.868378	1
H	-1.476409	-1.665300	-0.576692	1
H	0.185591	-2.101950	-0.882952	1
H	-0.263589	1.028560	-2.665632	1
H	0.943641	2.140850	1.661158	1
Es	0.549798	2.456897	-0.658950	99
Es	0.583406	2.045438	0.043480	99
Es	0.508097	-1.326487	1.422274	99
Es	0.477555	2.321100	-0.806585	99
Es	-0.357760	0.612012	-1.047338	99
Es	0.614787	1.624309	0.770789	99
Es	0.214285	0.350470	0.580697	99
Es	-0.277648	-1.293421	0.409908	99
Es	0.835723	1.977571	1.359380	99
Es	0.625558	2.912602	-0.923551	99
Es	0.112469	-0.268240	0.955660	99
Es	-0.048760	1.013346	-1.606911	99
Es	-0.018638	-1.841534	-0.688489	99
Es	0.526602	2.440176	-0.774139	99
Es	0.223793	1.717196	-1.236134	99
Es	-0.189576	1.033484	-2.313784	99
Es	-1.133555	-1.580616	-0.498575	99
Es	0.144861	1.058148	0.736818	99
Es	0.487995	2.270907	-0.719953	99
Es	-0.065286	-0.993938	1.106436	99
Es	0.670923	0.903421	0.560304	99
Es	0.527106	2.440024	-0.774300	99
Es	0.188410	0.436242	-1.203790	99
Es	-0.134565	0.019634	-0.697960	99
Es	-0.443401	-1.376045	-0.355448	99
Es	-0.588923	-0.996309	1.585478	99
Es	0.052235	0.243571	-0.077192	99
Es	-0.317074	-0.686210	-0.653098	99
Es	0.538543	2.545284	-0.853497	99
42
Properties=species:S:1:pos:R:3:Z:I:1 energy=-628.2439598927963 field_type=dipole dipole="0.000000 0.000000 0.000000" charge=0
C	-0.065269	-0.993970	1.106488	6
C	-0.443409	-1.376100	-0.355482	6
C	-0.134529	0.019730	-0.697912	6
C	-0.048819	1.013140	-1.606922	6
S	0.524071	2.441010	-0.773692	16
C	0.614761	1.624140	0.770918	6
C	0.214281	0.350530	0.580598	6
H	0.802691	-1.473730	1.571748	1
H	-0.853009	-1.006910	1.868378	1
H	-1.476409	-1.665300	-0.576692	1
H	0.185591	-2.101950	-0.882952	1
H	-0.263589	1.028560	-2.665632	1
H	0.943641	2.140850	1.661158	1
Es	-0.375078	0.601752	-1.068078	99
Es	0.177229	1.050076	0.748811	99
Es	-1.134228	-1.576622	-0.496326	99
Es	-0.443387	-1.376044	-0.355449	99
Es	0.492402	2.270719	-0.720470	99
Es	-0.277761	-1.293475	0.409874	99
Es	-0.134568	0.019635	-0.697958	99
Es	0.050823	0.243903	-0.077083	99
Es	0.528853	2.439581	-0.774875	99
Es	0.507868	2.498993	-0.886689	99
Es	0.510319	-1.325275	1.418747	99
Es	0.582276	2.045686	0.043544	99
Es	0.566450	2.510902	-0.683038	99
Es	0.112526	-0.268364	0.955364	99
Es	-0.189240	1.033365	-2.313714	99
Es	0.206720	0.445943	-1.182821	99
Es	-0.591134	-0.997561	1.588937	99
Es	-0.065288	-0.993937	1.106438	99
Es	0.214287	0.350469	0.580694	99
Es	-0.017519	-1.845699	-0.690701	99
Es	0.622812	2.913502	-0.922726	99
Es	0.614781	1.624312	0.770788	99
Es	0.526565	2.440130	-0.774571	99
Es	0.224889	1.717000	-1.236411	99
Es	0.835396	1.977653	1.359242	99
Es	0.487577	2.314020	-0.747842	99
Es	0.639174	0.911148	0.547871	99
Es	-0.048760	1.013347	-1.606911	99
Es	-0.317025	-0.686125	-0.653118	99
42
Properties=species:S:1:pos:R:3:Z:I:1 energy=-628.2439598927963 field_type=dipole dipole="0.000000 0.000000 0.000000" charge=0
C	-0.065269	-0.993970	1.106488	6
C	-0.443409	-1.376100	-0.355482	6
C	-0.134529	0.019730	-0.697912	6
C	-0.048819	1.013140	-1.606922	6
S	0.524071	2.441010	-0.773692	16
C	0.614761	1.624140	0.770918	6
C	0.214281	0.350530	0.580598	6
H	0.802691	-1.473730	1.571748	1
H	-0.853009	-1.006910	1.868378	1
H	-1.476409	-1.665300	-0.576692	1
H	0.185591	-2.101950	-0.882952	1
H	-0.263589	1.028560	-2.665632	1
H	0.943641	2.140850	1.661158	1
Es	0.835626	1.977527	1.359237	99
Es	-0.369599	0.607984	-1.056795	99
Es	0.563445	2.558254	-0.732877	99
Es	-0.065250	-0.993951	1.106430	99
Es	-0.588950	-0.996436	1.585642	99
Es	-0.316895	-0.686199	-0.653088	99
Es	0.223942	1.717225	-1.236122	99
Es	-0.189450	1.033446	-2.313711	99
Es	0.051284	0.243743	-0.077171	99
Es	0.112431	-0.268311	0.955458	99
Es	0.520205	2.442002	-0.773086	99
Es	-0.134559	0.019632	-0.697962	99
Es	0.214287	0.350469	0.580696	99
Es	-0.048761	1.013348	-1.606911	99
Es	0.486531	2.272481	-0.718855	99
Es	-0.443370	-1.376057	-0.355452	99
Es	0.614784	1.624311	0.770787	99
Es	0.644550	0.909566	0.549290	99
Es	0.512355	2.330764	-0.698300	99
Es	-1.133901	-1.579551	-0.497837	99
Es	0.508395	-1.326594	1.421995	99
Es	0.525349	2.440651	-0.774004	99
Es	-0.277746	-1.293314	0.409880	99
Es	0.200630	0.440196	-1.193892	99
Es	0.171759	1.051408	0.747233	99
Es	0.583077	2.045485	0.043381	99
Es	0.500642	2.430423	-0.890559	99
Es	0.624552	2.913165	-0.922828	99
Es	-0.018402	-1.842634	-0.689047	99
42
Properties=species:S:1:pos:R:3:Z:I:1 energy=-628.2439598927963 field_type=dipole dipole="0.000000 0.000000 0.000000" charge=0
C	-0.065269	-0.993970	1.106488	6
C	-0.443409	-1.376100	-0.355482	6
C	-0.134529	0.019730	-0.697912	6
C	-0.048819	1.013140	-1.606922	6
S	0.524071	2.441010	-0.773692	16
C	0.614761	1.624140	0.770918	6
C	0.214281	0.350530	0.580598	6
H	0.802691	-1.473730	1.571748	1
H	-0.853009	-1.006910	1.868378	1
H	-1.476409	-1.665300	-0.576692	1
H	0.185591	-2.101950	-0.882952	1
H	-0.263589	1.028560	-2.665632	1
H	0.943641	2.140850	1.661158	1
Es	0.112567	-0.268461	0.955215	99
Es	0.489850	2.271130	-0.719676	99
Es	0.614780	1.624312	0.770789	99
Es	0.582218	2.045709	0.043479	99
Es	0.224302	1.717129	-1.236201	99
Es	-0.590267	-0.996928	1.587373	99
Es	-0.134568	0.019632	-0.697964	99
Es	-0.443386	-1.376044	-0.355451	99
Es	0.517636	2.443154	-0.771472	99
Es	-0.017477	-1.845528	-0.690594	99
Es	-0.317065	-0.686132	-0.652954	99
Es	0.509466	-1.325978	1.420414	99
Es	-0.048749	1.013344	-1.606912	99
Es	0.214285	0.350470	0.580696	99
Es	0.477443	2.317714	-0.794377	99
Es	0.205480	0.443685	-1.186620	99
Es	0.523991	2.441043	-0.773617	99
Es	0.623286	2.913361	-0.923142	99
Es	-0.065270	-0.993938	1.106427	99
Es	0.835444	1.977593	1.359185	99
Es	-0.189297	1.033439	-2.313685	99
Es	-0.373923	0.604120	-1.063996	99
Es	-1.134348	-1.576857	-0.496438	99
Es	0.627934	0.913898	0.545218	99
Es	-0.277796	-1.293285	0.409863	99
Es	0.050989	0.243867	-0.077215	99
Es	0.569696	2.461059	-0.667896	99
Es	0.188395	1.047106	0.751315	99
Es	0.531345	2.540418	-0.860232	99
42
Properties=species:S:1:pos:R:3:Z:I:1 energy=-628.2439598927963 field_type=dipole dipole="0.000000 0.000000 0.000000" charge=0
C	-0.065269	-0.993970	1.106488	6
C	-0.443409	-1.376100	-0.355482	6
C	-0.134529	0.019730	-0.697912	6
C	-0.048819	1.013140	-1.606922	6
S	0.524071	2.441010	-0.773692	16
C	0.614761	1.624140	0.770918	6
C	0.214281	0.350530	0.580598	6
H	0.802691	-1.473730	1.571748	1
H	-0.853009	-1.006910	1.868378	1
H	-1.476409	-1.665300	-0.576692	1
H	0.185591	-2.101950	-0.882952	1
H	-0.263589	1.028560	-2.665632	1
H	0.943641	2.140850	1.661158	1
Es	-0.373970	0.604047	-1.063644	99
Es	0.524177	2.440958	-0.773711	99
Es	0.555368	2.569503	-0.784459	99
Es	0.223556	1.717456	-1.236104	99
Es	0.205569	0.443434	-1.186716	99
Es	0.509016	-1.326198	1.420967	99
Es	-0.589781	-0.996778	1.586714	99
Es	0.192202	1.046087	0.752127	99
Es	0.583261	2.045462	0.043193	99
Es	-0.443367	-1.376059	-0.355455	99
Es	-0.134567	0.019633	-0.697961	99
Es	0.623841	2.913457	-0.922704	99
Es	0.490209	2.271306	-0.719765	99
Es	0.524696	2.369765	-0.663155	99
Es	-0.048771	1.013349	-1.606909	99
Es	-0.316919	-0.686214	-0.652974	99
Es	0.835624	1.977513	1.359025	99
Es	-1.134447	-1.576968	-0.496457	99
Es	-0.017671	-1.845343	-0.690460	99
Es	0.614779	1.624315	0.770787	99
Es	0.214286	0.350470	0.580696	99
Es	0.624287	0.914893	0.544041	99
Es	-0.189395	1.033437	-2.313464	99
Es	-0.277706	-1.293290	0.409844	99
Es	0.487146	2.383255	-0.872045	99
Es	-0.065268	-0.993939	1.106427	99
Es	0.527728	2.439959	-0.774408	99
Es	0.112486	-0.268431	0.955255	99
Es	0.050590	0.243953	-0.077156	99
42
Properties=species:S:1:pos:R:3:Z:I:1 energy=-628.2439598927963 field_type=dipole dipole="0.000000 0.000000 0.000000" charge=0
C	-0.065269	-0.993970	1.106488	6
C	-0.443409	-1.376100	-0.355482	6
C	-0.134529	0.019730	-0.697912	6
C	-0.048819	1.013140	-1.606922	6
S	0.524071	2.441010	-0.773692	16
C	0.614761	1.624140	0.770918	6
C	0.214281	0.350530	0.580598	6
H	0.802691	-1.473730	1.571748	1
H	-0.853009	-1.006910	1.868378	1
H	-1.476409	-1.665300	-0.576692	1
H	0.185591	-2.101950	-0.882952	1
H	-0.263589	1.028560	-2.665632	1
H	0.943641	2.140850	1.661158	1
Es	-1.131041	-1.586905	-0.501689	99
Es	0.224995	1.716980	-1.236109	99
Es	0.112407	-0.268301	0.955441	99
Es	-0.048758	1.013348	-1.606912	99
Es	0.682392	0.900525	0.567085	99
Es	0.835496	1.977411	1.359228	99
Es	-0.134566	0.019633	-0.697961	99
Es	0.625937	2.912854	-0.923147	99
Es	-0.021265	-1.835331	-0.685027	99
Es	-0.065275	-0.993938	1.106428	99
Es	0.159774	0.433547	-1.214998	99
Es	0.052827	0.243410	-0.077020	99
Es	0.560887	2.566465	-0.765614	99
Es	0.214289	0.350469	0.580695	99
Es	0.485003	2.272641	-0.719748	99
Es	0.506335	-1.327112	1.424240	99
Es	0.520594	2.441873	-0.773111	99
Es	0.522078	2.354340	-0.673088	99
Es	-0.329404	0.614520	-1.034972	99
Es	0.583479	2.045615	0.043409	99
Es	-0.587404	-0.995749	1.583387	99
Es	-0.189409	1.033548	-2.313524	99
Es	0.614782	1.624311	0.770789	99
Es	0.528019	2.439711	-0.774836	99
Es	-0.317211	-0.686067	-0.652941	99
Es	-0.277505	-1.293554	0.409847	99
Es	-0.443392	-1.376044	-0.355450	99
Es	0.490108	2.400058	-0.881964	99
Es	0.132785	1.060774	0.729097	99
42
Properties=species:S:1:pos:R:3:Z:I:1 energy=-628.2439598927963 field_type=dipole dipole="0.000000 0.000000 0.000000" charge=0
C	-0.065269	-0.993970	1.106488	6
C	-0.443409	-1.376100	-0.355482	6
C	-0.134529	0.019730	-0.697912	6
C	-0.048819	1.013140	-1.606922	6
S	0.524071	2.441010	-0.773692	16
C	0.614761	1.624140	0.770918	6
C	0.214281	0.350530	0.580598	6
H	0.802691	-1.473730	1.571748	1
H	-0.853009	-1.006910	1.868378	1
H	-1.476409	-1.665300	-0.576692	1
H	0.185591	-2.101950	-0.882952	1
H	-0.263589	1.028560	-2.665632	1
H	0.943641	2.140850	1.661158	1
Es	0.154369	0.433444	-1.216435	99
Es	0.835834	1.977290	1.359108	99
Es	0.531296	2.438992	-0.775318	99
Es	-0.048759	1.013347	-1.606911	99
Es	-0.443388	-1.376043	-0.355449	99
Es	-0.134562	0.019631	-0.697962	99
Es	-1.131650	-1.586398	-0.501363	99
Es	0.052962	0.243370	-0.077096	99
Es	0.534414	2.551889	-0.845103	99
Es	0.614784	1.624311	0.770787	99
Es	-0.021226	-1.835682	-0.685334	99
Es	-0.324232	0.615124	-1.033457	99
Es	-0.277418	-1.293484	0.409842	99
Es	0.584609	2.045246	0.043101	99
Es	-0.189796	1.033657	-2.313371	99
Es	-0.316972	-0.686079	-0.652769	99
Es	-0.588926	-0.996470	1.585632	99
Es	0.138449	1.059271	0.733206	99
Es	0.508458	-1.326669	1.421957	99
Es	0.482531	2.322778	-0.816021	99
Es	0.487581	2.271658	-0.720623	99
Es	0.223466	1.717485	-1.235835	99
Es	0.625241	2.912964	-0.923428	99
Es	0.547769	2.448660	-0.657526	99
Es	0.112097	-0.268233	0.955412	99
Es	0.524000	2.440981	-0.773677	99
Es	0.214295	0.350468	0.580696	99
Es	0.677014	0.901463	0.563036	99
Es	-0.065281	-0.993937	1.106431	99
42
Properties=species:S:1:pos:R:3:Z:I:1 energy=-628.2439598927963 field_type=dipole dipole="0.000000 0.000000 0.000000" charge=0
C	-0.065269	-0.993970	1.106488	6
C	-0.443409	-1.376100	-0.355482	6
C	-0.134529	0.019730	-0.697912	6
C	-0.048819	1.013140	-1.606922	6
S	0.524071	2.441010	-0.773692	16
C	0.614761	1.624140	0.770918	6
C	0.214281	0.350530	0.580598	6
H	0.802691	-1.473730	1.571748	1
H	-0.853009	-1.006910	1.868378	1
H	-1.476409	-1.665300	-0.576692	1
H	0.185591	-2.101950	-0.882952	1
H	-0.263589	1.028560	-2.665632	1
H	0.943641	2.140850	1.661158	1
Es	-0.588856	-0.996405	1.585732	99
Es	-0.316968	-0.686099	-0.652679	99
Es	0.681705	0.900417	0.566355	99
Es	0.524110	2.440971	-0.773703	99
Es	0.144121	0.433538	-1.218562	99
Es	0.614783	1.624311	0.770788	99
Es	-0.277679	-1.293564	0.409861	99
Es	0.562127	2.543452	-0.710010	99
Es	-0.048762	1.013348	-1.606911	99
Es	0.508319	-1.326636	1.421783	99
Es	0.214283	0.350472	0.580700	99
Es	-0.065270	-0.993937	1.106425	99
Es	0.835815	1.977312	1.359027	99
Es	-0.443387	-1.376044	-0.355450	99
Es	0.486824	2.272072	-0.720485	99
Es	0.584930	2.045142	0.043005	99
Es	-0.189834	1.033691	-2.313264	99
Es	0.133413	1.060290	0.729775	99
Es	0.223226	1.717596	-1.235685	99
Es	0.499646	2.321591	-0.716141	99
Es	-0.314071	0.614807	-1.031125	99
Es	0.112293	-0.268305	0.955413	99
Es	-1.131994	-1.585479	-0.500841	99
Es	0.531855	2.438800	-0.775136	99
Es	-0.134564	0.019634	-0.697958	99
Es	0.053255	0.243452	-0.077219	99
Es	0.626193	2.912767	-0.923393	99
Es	-0.020802	-1.836620	-0.685802	99
Es	0.502251	2.458460	-0.892971	99
42
Properties=species:S:1:pos:R:3:Z:I:1 energy=-628.2439598927963 field_type=dipole dipole="0.000000 0.000000 0.000000" charge=0
C	-0.065269	-0.993970	1.106488	6
C	-0.443409	-1.376100	-0.355482	6
C	-0.134529	0.019730	-0.697912	6
C	-0.048819	1.013140	-1.606922	6
S	0.524071	2.441010	-0.773692	16
C	0.614761	1.624140	0.770918	6
C	0.214281	0.350530	0.580598	6
H	0.802691	-1.473730	1.571748	1
H	-0.853009	-1.006910	1.868378	1
H	-1.476409	-1.665300	-0.576692	1
H	0.185591	-2.101950	-0.882952	1
H	-0.263589	1.028560	-2.665632	1
H	0.943641	2.140850	1.661158	1
Es	-0.134570	0.019634	-0.697960	99