45
Properties=species:S:1:pos:R:3:Z:I:1 energy=-629.4790676527838 field_type=dipole dipole="0.000000 0.000000 0.000000" charge=0
C	-2.694809	0.371529	-0.013369	6
C	-1.207299	0.294259	-0.005969	6
C	-0.293259	1.326649	-0.001039	6
C	1.051180	0.855349	0.005631	6
C	1.122481	-0.522381	0.005491	6
C	2.344541	-1.375631	0.011371	6
S	-0.433569	-1.231281	-0.003259	16
H	-3.032419	1.413319	-0.004639	1
H	-3.114429	-0.123281	0.868771	1
H	-3.104089	-0.105331	-0.910109	1
H	-0.572629	2.373379	-0.002019	1
H	1.923241	1.498219	0.010401	1
H	2.109181	-2.444681	0.021451	1
H	2.952231	-1.157221	0.895661	1
H	2.949650	-1.172891	-0.878379	1
Es	2.746690	-1.221896	0.606468	99
Es	-2.968142	0.033699	0.580509	99
Es	-1.207322	0.294062	-0.005965	99
Es	-0.348841	-1.149876	-0.006341	99
Es	1.122378	-0.522558	0.005484	99
Es	-0.401830	-1.316908	-0.071706	99
Es	-2.961281	0.045954	-0.617171	99
Es	-2.694740	0.371522	-0.013368	99
Es	-0.708163	0.797610	-0.317822	99
Es	-0.476941	-1.376912	-0.428854	99
Es	-0.481093	2.035161	-0.001693	99
Es	-0.534681	-1.186300	-0.044506	99
Es	-0.293244	1.326676	-0.001042	99
Es	-0.433536	-1.230041	-0.003230	99
Es	-0.710995	0.797214	0.311190	99
Es	1.715780	-0.956222	0.008450	99
Es	1.051188	0.855378	0.005630	99
Es	0.394946	1.135051	0.002331	99
Es	-2.913624	1.076923	-0.007319	99
Es	-1.940913	0.323292	-0.009500	99
Es	1.640788	1.291573	0.008933	99
Es	0.383676	-0.891527	0.002063	99
Es	2.174351	-2.095913	0.018116	99
Es	2.744976	-1.232562	-0.587509	99
Es	2.344478	-1.375596	0.011371	99
Es	1.040760	0.190966	0.318620	99
Es	-0.448031	-1.270428	0.109613	99
Es	-0.485135	-1.387401	0.420040	99
Es	-0.862195	-0.456538	-0.004113	99
Es	1.044489	0.191126	-0.307906	99
45
Properties=species:S:1:pos:R:3:Z:I:1 energy=-629.4790676527838 field_type=dipole dipole="0.000000 0.000000 0.000000" charge=0
C	-2.694809	0.371529	-0.013369	6
C	-1.207299	0.294259	-0.005969	6
C	-0.293259	1.326649	-0.001039	6
C	1.051180	0.855349	0.005631	6
C	1.122481	-0.522381	0.005491	6
C	2.344541	-1.375631	0.011371	6
S	-0.433569	-1.231281	-0.003259	16
H	-3.032419	1.413319	-0.004639	1
H	-3.114429	-0.123281	0.868771	1
H	-3.104089	-0.105331	-0.910109	1
H	-0.572629	2.373379	-0.002019	1
H	1.923241	1.498219	0.010401	1
H	2.109181	-2.444681	0.021451	1
H	2.952231	-1.157221	0.895661	1
H	2.949650	-1.172891	-0.878379	1
Es	1.041383	0.191435	0.315625	99
Es	-0.711191	0.796750	0.308558	99
Es	2.746666	-1.220929	0.603922	99
Es	1.044491	0.191733	-0.305049	99
Es	1.642232	1.292333	0.008989	99
Es	-1.207326	0.294050	-0.005975	99
Es	-0.433545	-1.231125	-0.003148	99
Es	-0.430876	-1.305281	-0.090304	99
Es	2.174679	-2.099277	0.018085	99
Es	-0.383421	-1.281819	0.083507	99
Es	-2.960676	0.045548	-0.615150	99
Es	-0.872909	-0.455848	-0.004687	99
Es	1.051188	0.855378	0.005615	99
Es	1.716487	-0.953962	0.008320	99
Es	1.122376	-0.522555	0.005476	99
Es	-0.547935	-1.210271	0.026514	99
Es	-0.481428	2.036361	-0.001751	99
Es	-0.371628	-1.126139	-0.031397	99
Es	2.344480	-1.375596	0.011371	99
Es	-0.360563	-1.048518	-0.008128	99
Es	0.392741	-0.897884	0.002426	99
Es	-1.940437	0.322720	-0.009581	99
Es	0.394315	1.132936	0.002722	99
Es	-0.293242	1.326682	-0.001038	99
Es	-2.915192	1.078741	-0.007509	99
Es	-2.967709	0.033317	0.578744	99
Es	-0.708350	0.797078	-0.315213	99
Es	-2.694740	0.371522	-0.013367	99
Es	-0.600066	-1.710041	-0.001833	99
Es	2.743989	-1.231806	-0.584972	99
45
Properties=species:S:1:pos:R:3:Z:I:1 energy=-629.4790676527838 field_type=dipole dipole="0.000000 0.000000 0.000000" charge=0
C	-2.694809	0.371529	-0.013369	6
C	-1.207299	0.294259	-0.005969	6
C	-0.293259	1.326649	-0.001039	6
C	1.051180	0.855349	0.005631	6
C	1.122481	-0.522381	0.005491	6
C	2.344541	-1.375631	0.011371	6
S	-0.433569	-1.231281	-0.003259	16
H	-3.032419	1.413319	-0.004639	1
H	-3.114429	-0.123281	0.868771	1
H	-3.104089	-0.105331	-0.910109	1
H	-0.572629	2.373379	-0.002019	1
H	1.923241	1.498219	0.010401	1
H	2.109181	-2.444681	0.021451	1
H	2.952231	-1.157221	0.895661	1
H	2.949650	-1.172891	-0.878379	1
Es	-0.338499	-1.149222	-0.021967	99
Es	-0.413945	-1.352511	-0.035750	99
Es	-0.481757	2.037002	-0.001623	99
Es	0.391792	-0.897669	0.002032	99
Es	2.174995	-2.101183	0.018050	99
Es	-0.600358	-1.710630	-0.002012	99
Es	1.717020	-0.952317	0.008198	99
Es	0.393912	1.131739	0.002134	99
Es	-0.293243	1.326677	-0.001043	99
Es	-0.707453	0.796640	-0.313492	99
Es	-2.967470	0.033147	0.577499	99
Es	2.344478	-1.375595	0.011371	99
Es	1.040960	0.192754	0.313994	99
Es	-1.207327	0.294051	-0.005968	99
Es	-1.940100	0.322242	-0.009668	99
Es	-2.916128	1.079656	-0.007485	99
Es	-0.871848	-0.456193	-0.005002	99
Es	1.044448	0.192870	-0.303095	99
Es	-0.710127	0.796217	0.307010	99
Es	-0.434820	-1.235056	0.071270	99
Es	1.122375	-0.522558	0.005490	99
Es	-2.960375	0.045537	-0.613883	99
Es	-0.546711	-1.186792	-0.026101	99
Es	1.642871	1.292752	0.008925	99
Es	1.051187	0.855377	0.005649	99
Es	-2.694746	0.371526	-0.013367	99
Es	2.743786	-1.231414	-0.583072	99
Es	-0.361696	-1.049754	-0.005848	99
Es	-0.433503	-1.231140	-0.003678	99
Es	2.746075	-1.220627	0.602204	99
45
Properties=species:S:1:pos:R:3:Z:I:1 energy=-629.4790676527838 field_type=dipole dipole="0.000000 0.000000 0.000000" charge=0
C	-2.694809	0.371529	-0.013369	6
C	-1.207299	0.294259	-0.005969	6
C	-0.293259	1.326649	-0.001039	6
C	1.051180	0.855349	0.005631	6
C	1.122481	-0.522381	0.005491	6
C	2.344541	-1.375631	0.011371	6
S	-0.433569	-1.231281	-0.003259	16
H	-3.032419	1.413319	-0.004639	1
H	-3.114429	-0.123281	0.868771	1
H	-3.104089	-0.105331	-0.910109	1
H	-0.572629	2.373379	-0.002019	1
H	1.923241	1.498219	0.010401	1
H	2.109181	-2.444681	0.021451	1
H	2.952231	-1.157221	0.895661	1
H	2.949650	-1.172891	-0.878379	1
Es	1.044222	0.193747	-0.301634	99
Es	1.717567	-0.951103	0.008248	99
Es	0.391189	-0.897437	0.001653	99
Es	2.743196	-1.231303	-0.581511	99
Es	-0.481886	2.037464	-0.001640	99
Es	2.344477	-1.375594	0.011371	99
Es	-0.391960	-1.106628	-0.017490	99
Es	-1.939814	0.321821	-0.009753	99
Es	-0.707100	0.796364	-0.312234	99
Es	-2.959966	0.045658	-0.612784	99
Es	1.040632	0.193702	0.312270	99
Es	1.122376	-0.522563	0.005494	99
Es	0.393577	1.130630	0.002313	99
Es	-0.433431	-1.231354	-0.003268	99
Es	-1.207325	0.294056	-0.005977	99
Es	-0.709408	0.795797	0.305730	99
Es	-0.356520	-1.324009	-0.031230	99
Es	-2.967411	0.032972	0.576424	99
Es	1.643433	1.293044	0.009086	99
Es	2.175290	-2.102459	0.017882	99
Es	-0.557179	-1.259238	-0.003697	99
Es	-0.293242	1.326681	-0.001040	99
Es	-0.427988	-1.233574	0.040585	99
Es	2.745983	-1.220434	0.600879	99
Es	-2.916933	1.080343	-0.007546	99
Es	-0.600906	-1.710830	-0.004169	99
Es	-2.694740	0.371522	-0.013369	99
Es	-0.362365	-1.050700	-0.003941	99
Es	1.051189	0.855382	0.005633	99
Es	-0.871165	-0.456429	-0.005511	99
45
Properties=species:S:1:pos:R:3:Z:I:1 energy=-629.4790676527838 field_type=dipole dipole="0.000000 0.000000 0.000000" charge=0
C	-2.694809	0.371529	-0.013369	6
C	-1.207299	0.294259	-0.005969	6
C	-0.293259	1.326649	-0.001039	6
C	1.051180	0.855349	0.005631	6
C	1.122481	-0.522381	0.005491	6
C	2.344541	-1.375631	0.011371	6
S	-0.433569	-1.231281	-0.003259	16
H	-3.032419	1.413319	-0.004639	1
H	-3.114429	-0.123281	0.868771	1
H	-3.104089	-0.105331	-0.910109	1
H	-0.572629	2.373379	-0.002019	1
H	1.923241	1.498219	0.010401	1
H	2.109181	-2.444681	0.021451	1
H	2.952231	-1.157221	0.895661	1
H	2.949650	-1.172891	-0.878379	1
Es	-1.207326	0.294052	-0.005969	99
Es	1.051189	0.855384	0.005631	99
Es	1.122376	-0.522567	0.005491	99
Es	-0.433470	-1.231257	-0.001391	99
Es	-2.917462	1.080888	-0.007629	99
Es	-0.384632	-1.107160	-0.003379	99
Es	-2.967199	0.033169	0.575574	99
Es	-0.870605	-0.456704	-0.005071	99
Es	-0.709109	0.795711	0.304664	99
Es	0.393435	1.129874	0.002361	99
Es	2.745392	-1.220440	0.599629	99
Es	-0.481954	2.037754	-0.001701	99
Es	2.344480	-1.375595	0.011371	99
Es	2.743193	-1.231224	-0.580337	99
Es	1.717946	-0.949960	0.008179	99
Es	2.175585	-2.103382	0.018033	99
Es	0.390714	-0.897297	0.001523	99
Es	-0.433553	-1.231239	-0.003470	99
Es	-2.959884	0.045561	-0.611854	99
Es	1.643806	1.293171	0.008966	99
Es	1.040575	0.194245	0.311198	99
Es	-0.706418	0.795978	-0.311195	99
Es	-0.558091	-1.254649	-0.000711	99
Es	-1.939604	0.321379	-0.009663	99
Es	-0.363086	-1.051202	-0.002264	99
Es	-0.600984	-1.711104	-0.004219	99
Es	1.044002	0.194476	-0.300511	99
Es	-2.694738	0.371521	-0.013365	99
Es	-0.357546	-1.330534	-0.008077	99
Es	-0.293241	1.326680	-0.001042	99
45
Properties=species:S:1:pos:R:3:Z:I:1 energy=-629.4790676527838 field_type=dipole dipole="0.000000 0.000000 0.000000" charge=0
C	-2.694809	0.371529	-0.013369	6
C	-1.207299	0.294259	-0.005969	6
C	-0.293259	1.326649	-0.001039	6
C	1.051180	0.855349	0.005631	6
C	1.122481	-0.522381	0.005491	6
C	2.344541	-1.375631	0.011371	6
S	-0.433569	-1.231281	-0.003259	16
H	-3.032419	1.413319	-0.004639	1
H	-3.114429	-0.123281	0.868771	1
H	-3.104089	-0.105331	-0.910109	1
H	-0.572629	2.373379	-0.002019	1
H	1.923241	1.498219	0.010401	1
H	2.109181	-2.444681	0.021451	1
H	2.952231	-1.157221	0.895661	1
H	2.949650	-1.172891	-0.878379	1
Es	2.742919	-1.231127	-0.579163	99
Es	-0.413960	-1.359666	-0.003369	99
Es	-1.939337	0.321074	-0.009771	99
Es	-2.967083	0.032916	0.574726	99
Es	1.718292	-0.949035	0.008050	99
Es	2.745049	-1.220490	0.598548	99
Es	1.122376	-0.522562	0.005490	99
Es	-0.363542	-1.051688	-0.002435	99
Es	-0.706836	0.794660	0.303955	99
Es	1.043987	0.195046	-0.299258	99
Es	1.040432	0.195000	0.310126	99
Es	0.393161	1.129221	0.002097	99
Es	1.644132	1.293351	0.008935	99
Es	2.175985	-2.104159	0.017920	99
Es	-0.433541	-1.231220	-0.003424	99
Es	2.344478	-1.375595	0.011371	99
Es	-0.293242	1.326683	-0.001038	99
Es	-0.337215	-1.139177	-0.003506	99
Es	-0.482191	2.038006	-0.001649	99
Es	-1.207326	0.294052	-0.005970	99
Es	-2.959581	0.045866	-0.610959	99
Es	-0.433512	-1.231217	-0.001617	99
Es	-2.918176	1.081245	-0.007526	99
Es	-0.601089	-1.711315	-0.004448	99
Es	1.051189	0.855384	0.005631	99
Es	0.390408	-0.897291	0.000757	99
Es	-0.870171	-0.456804	-0.004729	99
Es	-2.694741	0.371521	-0.013371	99
Es	-0.707862	0.796259	-0.310064	99
Es	-0.549210	-1.193408	-0.004537	99
45
Properties=species:S:1:pos:R:3:Z:I:1 energy=-629.4790676527838 field_type=dipole dipole="0.000000 0.000000 0.000000" charge=0
C	-2.694809	0.371529	-0.013369	6
C	-1.207299	0.294259	-0.005969	6
C	-0.293259	1.326649	-0.001039	6
C	1.051180	0.855349	0.005631	6
C	1.122481	-0.522381	0.005491	6
C	2.344541	-1.375631	0.011371	6
S	-0.433569	-1.231281	-0.003259	16
H	-3.032419	1.413319	-0.004639	1
H	-3.114429	-0.123281	0.868771	1
H	-3.104089	-0.105331	-0.910109	1
H	-0.572629	2.373379	-0.002019	1
H	1.923241	1.498219	0.010401	1
H	2.109181	-2.444681	0.021451	1
H	2.952231	-1.157221	0.895661	1
H	2.949650	-1.172891	-0.878379	1
Es	-0.433584	-1.231239	-0.003565	99
Es	-0.364017	-1.052089	-0.001256	99
Es	-0.320050	-1.164607	-0.005329	99
Es	-1.207326	0.294051	-0.005972	99
Es	-0.601260	-1.711448	-0.005020	99
Es	-0.293242	1.326682	-0.001037	99
Es	1.644352	1.293507	0.008954	99
Es	1.041064	0.195045	0.309137	99
Es	2.745412	-1.220377	0.597496	99
Es	-0.433555	-1.231079	-0.000834	99
Es	2.741999	-1.231413	-0.578021	99
Es	1.051189	0.855383	0.005630	99
Es	2.176293	-2.104783	0.017814	99
Es	-0.447476	-1.363157	-0.003322	99
Es	1.718594	-0.948060	0.008143	99
Es	2.344482	-1.375594	0.011367	99
Es	-0.707726	0.794887	0.303121	99
Es	0.390096	-0.897216	0.000446	99
Es	-2.967165	0.032690	0.573961	99
Es	1.043257	0.195917	-0.298443	99
Es	-0.482161	2.038240	-0.001693	99
Es	-0.706406	0.795676	-0.309410	99
Es	-0.869815	-0.456921	-0.004718	99
Es	-2.959198	0.046216	-0.610226	99
Es	-2.694742	0.371521	-0.013367	99
Es	0.392954	1.128452	0.002266	99
Es	-0.532658	-1.164557	-0.003579	99
Es	-2.918709	1.081538	-0.007513	99
Es	1.122375	-0.522561	0.005490	99
Es	-1.939187	0.320825	-0.009748	99
45
Properties=species:S:1:pos:R:3:Z:I:1 energy=-629.4790676527838 field_type=dipole dipole="0.000000 0.000000 0.000000" charge=0
C	-2.694809	0.371529	-0.013369	6
C	-1.207299	0.294259	-0.005969	6
C	-0.293259	1.326649	-0.001039	6
C	1.051180	0.855349	0.005631	6
C	1.122481	-0.522381	0.005491	6
C	2.344541	-1.375631	0.011371	6
S	-0.433569	-1.231281	-0.003259	16
H	-3.032419	1.413319	-0.004639	1
H	-3.114429	-0.123281	0.868771	1
H	-3.104089	-0.105331	-0.910109	1
H	-0.572629	2.373379	-0.002019	1
H	1.923241	1.498219	0.010401	1
H	2.109181	-2.444681	0.021451	1
H	2.952231	-1.157221	0.895661	1
H	2.949650	-1.172891	-0.878379	1
Es	-0.364291	-1.052253	-0.001085	99
Es	-2.958959	0.046377	-0.609472	99
Es	2.741341	-1.231799	-0.576882	99
Es	1.122376	-0.522561	0.005487	99
Es	0.392716	1.127971	0.002294	99
Es	2.344478	-1.375595	0.011370	99
Es	1.044158	0.195747	-0.297635	99
Es	-1.207327	0.294051	-0.005958	99
Es	1.040098	0.196084	0.308328	99
Es	1.718889	-0.947086	0.007897	99
Es	-0.293242	1.326682	-0.001039	99
Es	-0.705782	0.795369	-0.308788	99
Es	-1.939050	0.320515	-0.009807	99
Es	-0.433561	-1.231097	0.004337	99
Es	-0.482277	2.038418	-0.001606	99
Es	0.389862	-0.897170	0.000766	99
Es	-0.532491	-1.171128	-0.004193	99
Es	-0.707843	0.794763	0.302315	99
Es	-2.967152	0.032690	0.573362	99
Es	-2.919125	1.081825	-0.007637	99
Es	-0.601318	-1.711586	-0.005518	99
Es	-0.869467	-0.457082	-0.004865	99
Es	-2.694740	0.371522	-0.013368	99
Es	-0.445866	-1.362169	-0.001213	99
Es	-0.434300	-1.231634	-0.005757	99
Es	1.051191	0.855382	0.005656	99
Es	1.644551	1.293556	0.009002	99
Es	-0.321217	-1.158718	-0.009648	99
Es	2.176601	-2.105299	0.017869	99
Es	2.745539	-1.220246	0.596558	99
45
Properties=species:S:1:pos:R:3:Z:I:1 energy=-629.4790676527838 field_type=dipole dipole="0.000000 0.000000 0.000000" charge=0
C	-2.694809	0.371529	-0.013369	6
C	-1.207299	0.294259	-0.005969	6
C	-0.293259	1.326649	-0.001039	6
C	1.051180	0.855349	0.005631	6
C	1.122481	-0.522381	0.005491	6
C	2.344541	-1.375631	0.011371	6
S	-0.433569	-1.231281	-0.003259	16
H	-3.032419	1.413319	-0.004639	1
H	-3.114429	-0.123281	0.868771	1
H	-3.104089	-0.105331	-0.910109	1
H	-0.572629	2.373379	-0.002019	1
H	1.923241	1.498219	0.010401	1
H	2.109181	-2.444681	0.021451	1
H	2.952231	-1.157221	0.895661	1
H	2.949650	-1.172891	-0.878379	1
Es	-2.919465	1.082082	-0.007642	99
Es	-0.433564	-1.231186	-0.002966	99
Es	1.122375	-0.522562	0.005490	99
Es	-0.704583	0.794776	-0.308363	99
Es	-1.207326	0.294051	-0.005966	99
Es	1.051190	0.855384	0.005631	99
Es	-0.464080	-1.360387	-0.001032	99
Es	-0.482303	2.038595	-0.001508	99
Es	-0.523352	-1.147276	-0.009279	99
Es	-0.869130	-0.457228	-0.004293	99
Es	0.392565	1.127445	0.002232	99
Es	-0.433481	-1.231260	-0.004775	99
Es	1.719200	-0.946358	0.008088	99
Es	2.740911	-1.231786	-0.576174	99
Es	1.644720	1.293714	0.008971	99
Es	-0.293242	1.326682	-0.001035	99
Es	1.043466	0.196718	-0.296953	99
Es	-2.958584	0.046724	-0.608898	99
Es	1.040763	0.196253	0.307716	99
Es	0.389603	-0.897073	0.000703	99
Es	2.176856	-2.105787	0.017922	99
Es	-0.601661	-1.711665	-0.004944	99
Es	-1.938960	0.320199	-0.009594	99
Es	-2.694740	0.371522	-0.013368	99
Es	2.745397	-1.220310	0.595530	99
Es	-0.364781	-1.052567	-0.002262	99
Es	-2.967275	0.032470	0.572752	99
Es	2.344478	-1.375595	0.011371	99
Es	-0.708439	0.794603	0.301773	99
Es	-0.312767	-1.184650	0.001643	99
45
Properties=species:S:1:pos:R:3:Z:I:1 energy=-629.4790676527838 field_type=dipole dipole="0.000000 0.000000 0.000000" charge=0
C	-2.694809	0.371529	-0.013369	6
C	-1.207299	0.294259	-0.005969	6
C	-0.293259	1.326649	-0.001039	6
C	1.051180	0.855349	0.005631	6
C	1.122481	-0.522381	0.005491	6
C	2.344541	-1.375631	0.011371	6
S	-0.433569	-1.231281	-0.003259	16
H	-3.032419	1.413319	-0.004639	1
H	-3.114429	-0.123281	0.868771	1
H	-3.104089	-0.105331	-0.910109	1
H	-0.572629	2.373379	-0.002019	1
H	1.923241	1.498219	0.010401	1
H	2.109181	-2.444681	0.021451	1
H	2.952231	-1.157221	0.895661	1
H	2.949650	-1.172891	-0.878379	1
Es	-0.434005	-1.231309	-0.001058	99
Es	-0.541163	-1.306432	-0.007100	99
Es	1.719352	-0.945776	0.008089	99
Es	-0.706788	0.793892	0.301204	99
Es	-0.433459	-1.231408	0.000717	99
Es	1.041835	0.196137	0.306748	99
Es	-0.293242	1.326682	-0.001040	99
Es	0.392318	1.126958	0.002631	99
Es	-0.482422	2.038752	-0.001545	99
Es	2.177144	-2.106059	0.017670	99
Es	-1.207325	0.294051	-0.005977	99
Es	2.739890	-1.232118	-0.575347	99
Es	-2.957013	0.048588	-0.608028	99
Es	-0.869002	-0.457342	-0.004244	99
Es	1.051189	0.855383	0.005647	99
Es	-2.919942	1.082246	-0.007659	99
Es	1.644873	1.293787	0.009014	99
Es	-1.938787	0.320072	-0.009654	99
Es	-0.602075	-1.711561	-0.005354	99
Es	1.122375	-0.522562	0.005490	99
Es	-0.705822	0.794926	-0.307749	99
Es	0.389490	-0.897066	0.000925	99
Es	2.746034	-1.220159	0.594943	99
Es	-0.428065	-1.098097	0.000811	99
Es	-0.330165	-1.287623	-0.008540	99
Es	1.042395	0.197708	-0.296371	99
Es	-0.365014	-1.052823	-0.003324	99
Es	-2.694740	0.371523	-0.013369	99
Es	2.344480	-1.375596	0.011370	99
Es	-2.968555	0.030756	0.571872	99
45
Properties=species:S:1:pos:R:3:Z:I:1 energy=-629.4790676527838 field_type=dipole dipole="0.000000 0.000000 0.000000" charge=0
C	-2.694809	0.371529	-0.013369	6
C	-1.207299	0.294259	-0.005969	6
C	-0.293259	1.326649	-0.001039	6
C	1.051180	0.855349	0.005631	6
C	1.122481	-0.522381	0.005491	6
C	2.344541	-1.375631	0.011371	6
S	-0.433569	-1.231281	-0.003259	16
H	-3.032419	1.413319	-0.004639	1
H	-3.114429	-0.123281	0.868771	1
H	-3.104089	-0.105331	-0.910109	1
H	-0.572629	2.373379	-0.002019	1
H	1.923241	1.498219	0.010401	1
H	2.109181	-2.444681	0.021451	1
H	2.952231	-1.157221	0.895661	1
H	2.949650	-1.172891	-0.878379	1
Es	-0.439265	-1.097918	-0.002404	99
Es	-1.207327	0.294052	-0.005970	99
Es	-0.704680	0.794339	-0.307380	99
Es	-0.433148	-1.231399	0.002603	99
Es	2.746471	-1.219947	0.594379	99
Es	-2.969122	0.029894	0.571289	99
Es	0.392211	1.126499	0.002565	99
Es	-0.868861	-0.457368	-0.004628	99
Es	2.177331	-2.106367	0.017513	99
Es	-0.365339	-1.052948	-0.002497	99
Es	-0.293242	1.326682	-0.001038	99
Es	-0.327368	-1.276517	-0.012317	99
Es	0.389314	-0.897046	0.001856	99
Es	1.043378	0.197497	-0.295683	99
Es	-2.694739	0.371522	-0.013368	99
Es	-0.602114	-1.711585	-0.006014	99
Es	-0.482381	2.038798	-0.001500	99
Es	2.344482	-1.375596	0.011368	99
Es	-2.956260	0.049567	-0.607378	99
Es	1.041015	0.196986	0.306234	99
Es	-0.707742	0.794116	0.300822	99
Es	1.051190	0.855384	0.005626	99
Es	-1.938776	0.319829	-0.009902	99
Es	-0.433753	-1.231120	-0.002149	99
Es	1.719698	-0.945186	0.007833	99
Es	2.739010	-1.232493	-0.574390	99
Es	1.644951	1.293890	0.009136	99
Es	1.122375	-0.522562	0.005493	99
Es	-0.533338	-1.317884	-0.001708	99
Es	-2.920184	1.082408	-0.007622	99
45
Properties=species:S:1:pos:R:3:Z:I:1 energy=-629.4790676527838 field_type=dipole dipole="0.000000 0.000000 0.000000" charge=0
C	-2.694809	0.371529	-0.013369	6
C	-1.207299	0.294259	-0.005969	6
C	-0.293259	1.326649	-0.001039	6
C	1.051180	0.855349	0.005631	6
C	1.122481	-0.522381	0.005491	6
C	2.344541	-1.375631	0.011371	6
S	-0.433569	-1.231281	-0.003259	16
H	-3.032419	1.413319	-0.004639	1
H	-3.114429	-0.123281	0.868771	1
H	-3.104089	-0.105331	-0.910109	1
H	-0.572629	2.373379	-0.002019	1
H	1.923241	1.498219	0.010401	1
H	2.109181	-2.444681	0.021451	1
H	2.952231	-1.157221	0.895661	1
H	2.949650	-1.172891	-0.878379	1
Es	-1.938594	0.319636	-0.009639	99
Es	1.051190	0.855384	0.005631	99
Es	2.344484	-1.375594	0.011370	99
Es	0.392171	1.126419	0.002186	99
Es	-2.694740	0.371523	-0.013368	99
Es	-1.207326	0.294049	-0.005970	99
Es	-0.445776	-1.097439	-0.000707	99
Es	-0.327227	-1.269001	-0.000282	99
Es	-0.433516	-1.231280	-0.004115	99
Es	-0.868612	-0.457461	-0.003777	99
Es	-0.708541	0.794052	0.300648	99
Es	-0.433633	-1.231463	-0.012600	99
Es	-0.703963	0.794039	-0.307195	99
Es	2.733976	-1.234461	-0.572929	99
Es	1.122374	-0.522563	0.005487	99
Es	2.177455	-2.106537	0.017620	99
Es	1.645146	1.293760	0.009065	99
Es	-2.954635	0.051506	-0.606426	99
Es	-0.293242	1.326682	-0.001032	99
Es	0.389274	-0.897019	0.000457	99
Es	1.046336	0.195792	-0.294971	99
Es	-2.920378	1.082399	-0.007853	99
Es	-2.970706	0.028091	0.570488	99
Es	-0.602308	-1.711589	-0.005778	99
Es	-0.526558	-1.325598	0.003131	99
Es	2.751243	-1.218075	0.592670	99
Es	1.037851	0.199378	0.305810	99
Es	1.719861	-0.944815	0.007998	99
Es	-0.365477	-1.053157	-0.003703	99
Es	-0.482335	2.038869	-0.001445	99
45
Properties=species:S:1:pos:R:3:Z:I:1 energy=-629.4790676527838 field_type=dipole dipole="0.000000 0.000000 0.000000" charge=0
C	-2.694809	0.371529	-0.013369	6
C	-1.207299	0.294259	-0.005969	6
C	-0.293259	1.326649	-0.001039	6
C	1.051180	0.855349	0.005631	6
C	1.122481	-0.522381	0.005491	6
C	2.344541	-1.375631	0.011371	6
S	-0.433569	-1.231281	-0.003259	16
H	-3.032419	1.413319	-0.004639	1
H	-3.114429	-0.123281	0.868771	1
H	-3.104089	-0.105331	-0.910109	1
H	-0.572629	2.373379	-0.002019	1
H	1.923241	1.498219	0.010401	1
H	2.109181	-2.444681	0.021451	1
H	2.952231	-1.157221	0.895661	1
H	2.949650	-1.172891	-0.878379	1
Es	1.719864	-0.944690	0.007960	99
Es	-2.972473	0.025663	0.569301	99
Es	2.177524	-2.106671	0.017679	99
Es	-2.952833	0.053939	-0.605322	99
Es	1.034883	0.201385	0.305135	99
Es	0.389170	-0.896940	0.000468	99
Es	2.731061	-1.235599	-0.571481	99
Es	-0.433549	-1.231254	-0.006453	99
Es	-2.694740	0.371522	-0.013369	99
Es	-0.482248	2.039002	-0.001481	99
Es	2.753944	-1.216932	0.591228	99
Es	-0.704021	0.794102	-0.307135	99
Es	1.645023	1.293986	0.009033	99
Es	-0.523871	-1.152596	-0.001721	99
Es	-0.313310	-1.178826	-0.003813	99
Es	-1.938671	0.319453	-0.009795	99
Es	1.051190	0.855384	0.005628	99
Es	-0.463028	-1.360851	-0.004496	99
Es	-0.707947	0.794055	0.300704	99
Es	1.049069	0.194005	-0.294323	99
Es	-0.433519	-1.231287	-0.000127	99
Es	-0.365391	-1.053239	-0.001794	99
Es	-1.207325	0.294051	-0.005972	99
Es	1.122375	-0.522562	0.005490	99
Es	2.344486	-1.375593	0.011370	99
Es	0.392086	1.126174	0.002287	99
Es	-0.868534	-0.457600	-0.004353	99
Es	-2.920205	1.082628	-0.007659	99
Es	-0.601977	-1.711859	-0.005178	99
Es	-0.293242	1.326682	-0.001039	99
45
Properties=species:S:1:pos:R:3:Z:I:1 energy=-629.4790676527838 field_type=dipole dipole="0.000000 0.000000 0.000000" charge=0
C	-2.694809	0.371529	-0.013369	6
C	-1.207299	0.294259	-0.005969	6
C	-0.293259	1.326649	-0.001039	6
C	1.051180	0.855349	0.005631	6
C	1.122481	-0.522381	0.005491	6
C	2.344541	-1.375631	0.011371	6
S	-0.433569	-1.231281	-0.003259	16
H	-3.032419	1.413319	-0.004639	1
H	-3.114429	-0.123281	0.868771	1
H	-3.104089	-0.105331	-0.910109	1
H	-0.572629	2.373379	-0.002019	1
H	1.923241	1.498219	0.010401	1
H	2.109181	-2.444681	0.021451	1
H	2.952231	-1.157221	0.895661	1
H	2.949650	-1.172891	-0.878379	1
Es	-2.694745	0.371518	-0.013372	99
Es	2.756669	-1.215908	0.589708	99
Es	1.036237	0.200642	0.305483	99
Es	-0.293242	1.326682	-0.001038	99
Es	1.051190	0.855386	0.005628	99
Es	-2.920360	1.082601	-0.007661	99
Es	-2.973947	0.023666	0.568074	99
Es	-0.433857	-1.231260	-0.006336	99
Es	-0.327313	-1.149376	-0.004323	99
Es	2.177448	-2.106696	0.017586	99
Es	-0.868550	-0.457582	-0.003563	99
Es	-0.601774	-1.711938	-0.006412	99
Es	-1.207325	0.294050	-0.005969	99
Es	-0.537545	-1.179951	0.000887	99
Es	-2.951251	0.055920	-0.604009	99
Es	0.392078	1.126133	0.002517	99
Es	-0.701480	0.793246	-0.306832	99
Es	1.122375	-0.522562	0.005488	99
Es	2.344480	-1.375596	0.011371	99
Es	-1.938642	0.319534	-0.009944	99
Es	-0.482241	2.039025	-0.001461	99
Es	-0.365533	-1.053636	-0.003415	99
Es	-0.434873	-1.362482	-0.004144	99
Es	0.389153	-0.896980	0.000399	99
Es	1.645055	1.294004	0.009099	99
Es	1.719932	-0.944493	0.007760	99
Es	1.047715	0.195001	-0.294850	99
Es	-0.433804	-1.231320	-0.000412	99
Es	2.728309	-1.236740	-0.569771	99
Es	-0.710368	0.794640	0.300283	99
45
Properties=species:S:1:pos:R:3:Z:I:1 energy=-629.4790676527838 field_type=dipole dipole="0.000000 0.000000 0.000000" charge=0
C	-2.694809	0.371529	-0.013369	6
C	-1.207299	0.294259	-0.005969	6
C	-0.293259	1.326649	-0.001039	6
C	1.051180	0.855349	0.005631	6
C	1.122481	-0.522381	0.005491	6
C	2.344541	-1.375631	0.011371	6
S	-0.433569	-1.231281	-0.003259	16
H	-3.032419	1.413319	-0.004639	1
H	-3.114429	-0.123281	0.868771	1
H	-3.104089	-0.105331	-0.910109	1
H	-0.572629	2.373379	-0.002019	1
H	1.923241	1.498219	0.010401	1
H	2.109181	-2.444681	0.021451	1
H	2.952231	-1.157221	0.895661	1
H	2.949650	-1.172891	-0.878379	1
Es	1.048046	0.194661	-0.294914	99
Es	0.391994	1.126042	0.002809	99
Es	-0.868546	-0.457643	-0.003848	99
Es	-1.207326	0.294051	-0.005970	99
Es	-1.938696	0.319603	-0.009744	99
Es	-2.949019	0.058710	-0.602158	99
Es	-0.482134	2.039097	-0.001337	99
Es	1.719975	-0.944504	0.007812	99
Es	-0.339153	-1.297882	-0.004040	99
Es	2.177322	-2.106702	0.017306	99
Es	1.051189	0.855383	0.005614	99
Es	-2.920257	1.082668	-0.007450	99
Es	1.644940	1.294103	0.009264	99
Es	0.389107	-0.896925	0.000662	99
Es	-0.710839	0.794957	0.300049	99
Es	1.122374	-0.522562	0.005488	99
Es	-2.976157	0.020796	0.565800	99
Es	-0.548457	-1.295720	-0.002549	99
Es	-0.412119	-1.098969	0.000349	99
Es	2.727476	-1.236963	-0.569195	99
Es	-2.694740	0.371522	-0.013368	99
Es	-0.365571	-1.053319	-0.001535	99
Es	-0.433547	-1.231223	-0.004641	99
Es	-0.293242	1.326683	-0.001038	99
Es	-0.433587	-1.231238	-0.004825	99
Es	1.035934	0.200853	0.305606	99
Es	2.757509	-1.215713	0.589299	99
Es	-0.700839	0.793078	-0.306825	99
Es	2.344480	-1.375592	0.011377	99
Es	-0.602326	-1.711723	-0.007225	99
45
Properties=species:S:1:pos:R:3:Z:I:1 energy=-629.4790676527838 field_type=dipole dipole="0.000000 0.000000 0.000000" charge=0
C	-2.694809	0.371529	-0.013369	6
C	-1.207299	0.294259	-0.005969	6
C	-0.293259	1.326649	-0.001039	6
C	1.051180	0.855349	0.005631	6
C	1.122481	-0.522381	0.005491	6
C	2.344541	-1.375631	0.011371	6
S	-0.433569	-1.231281	-0.003259	16
H	-3.032419	1.413319	-0.004639	1
H	-3.114429	-0.123281	0.868771	1
H	-3.104089	-0.105331	-0.910109	1
H	-0.572629	2.373379	-0.002019	1
H	1.923241	1.498219	0.010401	1
H	2.109181	-2.444681	0.021451	1
H	2.952231	-1.157221	0.895661	1
H	2.949650	-1.172891	-0.878379	1
Es	-0.419905	-1.098047	-0.004904	99
Es	-1.938700	0.319467	-0.009896	99
Es	1.045260	0.195083	0.305126	99
Es	1.051190	0.855384	0.005632	99
Es	-0.433576	-1.231325	-0.001722	99
Es	2.177426	-2.106774	0.017499	99
Es	-0.333976	-1.296078	0.003149	99
Es	-2.976455	0.020286	0.565469	99
Es	-0.868353	-0.457653	-0.002464	99
Es	2.757325	-1.215607	0.589222	99
Es	1.122374	-0.522566	0.005487	99
Es	-0.293242	1.326682	-0.001038	99
Es	-2.920184	1.082692	-0.007337	99
Es	-2.948757	0.059235	-0.601729	99
Es	2.727542	-1.236901	-0.569309	99
Es	-2.694739	0.371520	-0.013369	99
Es	-0.366129	-1.053807	0.002345	99
Es	-0.602259	-1.711821	-0.008857	99
Es	-0.545993	-1.297761	-0.007512	99
Es	-0.693668	0.790853	-0.303545	99
Es	2.344480	-1.375597	0.011370	99
Es	0.392061	1.125980	0.003873	99
Es	1.644982	1.294133	0.009258	99
Es	1.719970	-0.944500	0.007558	99
Es	-0.433270	-1.231342	-0.007663	99
Es	-0.717815	0.796948	0.296473	99
Es	-1.207326	0.294051	-0.005969	99
Es	-0.482069	2.039119	-0.001211	99
Es	1.038512	0.200871	-0.295286	99
Es	0.389084	-0.896996	0.000122	99
45
Properties=species:S:1:pos:R:3:Z:I:1 energy=-629.4790676527838 field_type=dipole dipole="0.000000 0.000000 0.000000" charge=0
C	-2.694809	0.371529	-0.013369	6
C	-1.207299	0.294259	-0.005969	6
C	-0.293259	1.326649	-0.001039	6
C	1.051180	0.855349	0.005631	6
C	1.122481	-0.522381	0.005491	6
C	2.344541	-1.375631	0.011371	6
S	-0.433569	-1.231281	-0.003259	16
H	-3.032419	1.413319	-0.004639	1
H	-3.114429	-0.123281	0.868771	1
H	-3.104089	-0.105331	-0.910109	1
H	-0.572629	2.373379	-0.002019	1
H	1.923241	1.498219	0.010401	1
H	2.109181	-2.444681	0.021451	1
H	2.952231	-1.157221	0.895661	1
H	2.949650	-1.172891	-0.878379	1
Es	-0.602200	-1.711869	-0.007095	99
Es	2.723953	-1.238283	-0.566682	99
Es	-0.696243	0.791549	-0.305513	99
Es	-0.868467	-0.457750	-0.003686	99
Es	-0.293242	1.326682	-0.001040	99
Es	2.344478	-1.375595	0.011371	99
Es	-0.382773	-1.105912	-0.004413	99
Es	2.760964	-1.214132	0.586791	99
Es	-0.365929	-1.054143	0.001841	99
Es	-0.433550	-1.231255	-0.003768	99
Es	-1.207326	0.294051	-0.005971	99
Es	1.644888	1.294241	0.009231	99
Es	1.051190	0.855384	0.005631	99
Es	1.719889	-0.944601	0.007645	99
Es	1.122375	-0.522562	0.005489	99
Es	-0.359836	-1.330255	-0.000093	99
Es	-0.433504	-1.231252	-0.004910	99
Es	-0.557285	-1.255673	-0.005870	99
Es	0.392148	1.126110	0.003153	99
Es	1.048414	0.194516	-0.295048	99
Es	2.177362	-2.106752	0.017406	99
Es	-0.715025	0.796016	0.298590	99
Es	-1.938758	0.319597	-0.009766	99
Es	-0.482072	2.039096	-0.001382	99
Es	-2.947667	0.060249	-0.600764	99
Es	0.389057	-0.896942	0.000546	99
Es	-2.694740	0.371522	-0.013368	99
Es	-2.920065	1.082735	-0.007660	99
Es	1.035263	0.201629	0.305516	99
Es	-2.977507	0.019127	0.564592	99
