44
Properties=species:S:1:pos:R:3:Z:I:1 energy=-645.4748815646299 field_type=dipole dipole="0.000000 0.000000 0.000000" charge=0
C	-2.496918	0.240575	-0.009980	6
C	-1.009418	0.169425	-0.007230	6
C	-0.098248	1.204235	0.003950	6
C	1.248102	0.733695	-0.007460	6
C	1.324352	-0.639675	-0.031310	6
N	2.441312	-1.389775	-0.061400	7
S	-0.228008	-1.352315	-0.023670	16
H	-2.838638	1.281055	-0.001250	1
H	-2.912138	-0.255575	0.873310	1
H	-2.906908	-0.238065	-0.905540	1
H	-0.378608	2.250375	0.014630	1
H	2.116692	1.379425	-0.007210	1
H	2.379112	-2.394245	0.068360	1
H	3.359312	-0.989135	0.094800	1
Es	-1.743184	0.190950	-0.008136	99
Es	-0.554774	0.659174	-0.320746	99
Es	-0.285793	1.912067	0.011322	99
Es	-0.553928	0.653000	0.318062	99
Es	2.369966	-1.339680	-0.308884	99
Es	1.231969	0.136316	0.293624	99
Es	-0.271522	-1.524835	-0.453806	99
Es	2.970610	-1.144687	0.063272	99
Es	-2.770336	-0.098997	0.586171	99
Es	1.230501	0.142358	-0.326158	99
Es	-0.148924	-1.438059	-0.045191	99
Es	-0.227850	-1.352158	-0.023607	99
Es	1.248115	0.733695	-0.007460	99
Es	-0.257325	-1.520960	0.409066	99
Es	0.590306	1.010175	-0.000706	99
Es	-2.766612	-0.087290	-0.614230	99
Es	2.396178	-1.979551	0.047008	99
Es	-1.009433	0.169213	-0.007234	99
Es	-0.650181	-0.587683	-0.015523	99
Es	2.440967	-1.389581	-0.060478	99
Es	-0.337159	-1.397055	-0.022901	99
Es	1.966964	-1.079779	0.056795	99
Es	1.841529	1.169424	-0.006282	99
Es	1.324341	-0.639945	-0.031323	99
Es	-2.496855	0.240565	-0.009975	99
Es	-0.098228	1.204270	0.003949	99
Es	-2.718131	0.945206	-0.003949	99
Es	0.608023	-1.015672	-0.031400	99
Es	-0.220486	-1.271585	-0.107347	99
Es	-0.204824	-1.300662	0.080707	99
44
Properties=species:S:1:pos:R:3:Z:I:1 energy=-645.4748815646299 field_type=dipole dipole="0.000000 0.000000 0.000000" charge=0
C	-2.496918	0.240575	-0.009980	6
C	-1.009418	0.169425	-0.007230	6
C	-0.098248	1.204235	0.003950	6
C	1.248102	0.733695	-0.007460	6
C	1.324352	-0.639675	-0.031310	6
N	2.441312	-1.389775	-0.061400	7
S	-0.228008	-1.352315	-0.023670	16
H	-2.838638	1.281055	-0.001250	1
H	-2.912138	-0.255575	0.873310	1
H	-2.906908	-0.238065	-0.905540	1
H	-0.378608	2.250375	0.014630	1
H	2.116692	1.379425	-0.007210	1
H	2.379112	-2.394245	0.068360	1
H	3.359312	-0.989135	0.094800	1
Es	1.324338	-0.639947	-0.031311	99
Es	-0.227562	-1.352283	-0.023818	99
Es	1.842907	1.169888	-0.009969	99
Es	-0.554502	0.661016	-0.315555	99
Es	-0.178806	-1.237172	-0.008865	99
Es	-0.553016	0.651965	0.314918	99
Es	-2.763884	-0.085605	-0.609953	99
Es	-0.656650	-0.589158	-0.038681	99
Es	-1.742710	0.190241	-0.007356	99
Es	2.377683	-1.350286	-0.231261	99
Es	-2.496851	0.240570	-0.009979	99
Es	1.228853	0.145728	-0.318696	99
Es	-0.277544	-1.391898	0.073429	99
Es	-2.771229	-0.101740	0.584424	99
Es	-0.307130	-1.349453	-0.105420	99
Es	1.950961	-1.066298	0.013807	99
Es	2.395746	-1.986532	0.037192	99
Es	0.588613	1.008064	-0.007969	99
Es	0.611037	-1.020567	-0.059760	99
Es	1.232906	0.133874	0.293168	99
Es	-0.286734	1.913771	0.008638	99
Es	2.978846	-1.140530	0.038999	99
Es	-0.164628	-1.270937	0.276512	99
Es	-1.009436	0.169201	-0.007237	99
Es	-0.360085	-1.771784	-0.265087	99
Es	2.441136	-1.389681	-0.060694	99
Es	-0.147749	-1.428107	-0.056021	99
Es	1.248115	0.733703	-0.007465	99
Es	-0.098228	1.204268	0.003946	99
Es	-2.720473	0.947925	-0.005295	99
44
Properties=species:S:1:pos:R:3:Z:I:1 energy=-645.4748815646299 field_type=dipole dipole="0.000000 0.000000 0.000000" charge=0
C	-2.496918	0.240575	-0.009980	6
C	-1.009418	0.169425	-0.007230	6
C	-0.098248	1.204235	0.003950	6
C	1.248102	0.733695	-0.007460	6
C	1.324352	-0.639675	-0.031310	6
N	2.441312	-1.389775	-0.061400	7
S	-0.228008	-1.352315	-0.023670	16
H	-2.838638	1.281055	-0.001250	1
H	-2.912138	-0.255575	0.873310	1
H	-2.906908	-0.238065	-0.905540	1
H	-0.378608	2.250375	0.014630	1
H	2.116692	1.379425	-0.007210	1
H	2.379112	-2.394245	0.068360	1
H	3.359312	-0.989135	0.094800	1
Es	-2.768348	-0.098406	0.583184	99
Es	-0.149328	-1.213106	-0.151135	99
Es	-0.342264	-1.297585	-0.020093	99
Es	1.324341	-0.639950	-0.031321	99
Es	2.396912	-1.988407	0.026190	99
Es	-2.766802	-0.089034	-0.612826	99
Es	-0.224986	-1.348872	-0.044187	99
Es	-2.496852	0.240568	-0.009980	99
Es	1.248114	0.733697	-0.007426	99
Es	-2.719960	0.947710	-0.002958	99
Es	1.842356	1.169735	-0.003605	99
Es	-0.098228	1.204269	0.003951	99
Es	2.974384	-1.142232	0.055340	99
Es	-0.659830	-0.588222	0.001415	99
Es	1.229835	0.141417	-0.326155	99
Es	0.588796	1.008559	0.003916	99
Es	2.440710	-1.389419	-0.060283	99
Es	1.231851	0.136827	0.288971	99
Es	1.954406	-1.071032	0.029279	99
Es	-0.553988	0.654533	0.314164	99
Es	0.615695	-1.022213	-0.011451	99
Es	-0.126347	-1.280048	0.012753	99
Es	-0.227201	-1.351018	-0.030182	99
Es	-0.286503	1.913652	0.013314	99
Es	-0.375374	-1.828223	0.063684	99
Es	2.377918	-1.342475	-0.253250	99
Es	-0.218714	-1.481407	-0.032161	99
Es	-1.742843	0.190327	-0.008722	99
Es	-0.554394	0.659377	-0.318552	99
Es	-1.009431	0.169215	-0.007233	99
44
Properties=species:S:1:pos:R:3:Z:I:1 energy=-645.4748815646299 field_type=dipole dipole="0.000000 0.000000 0.000000" charge=0
C	-2.496918	0.240575	-0.009980	6
C	-1.009418	0.169425	-0.007230	6
C	-0.098248	1.204235	0.003950	6
C	1.248102	0.733695	-0.007460	6
C	1.324352	-0.639675	-0.031310	6
N	2.441312	-1.389775	-0.061400	7
S	-0.228008	-1.352315	-0.023670	16
H	-2.838638	1.281055	-0.001250	1
H	-2.912138	-0.255575	0.873310	1
H	-2.906908	-0.238065	-0.905540	1
H	-0.378608	2.250375	0.014630	1
H	2.116692	1.379425	-0.007210	1
H	2.379112	-2.394245	0.068360	1
H	3.359312	-0.989135	0.094800	1
Es	-0.145315	-1.208180	0.040124	99
Es	-2.769839	-0.100431	0.584045	99
Es	2.396482	-1.987666	0.032630	99
Es	-1.009436	0.169202	-0.007226	99
Es	2.976347	-1.141347	0.047288	99
Es	1.248114	0.733702	-0.007458	99
Es	-0.227890	-1.352080	-0.024218	99
Es	-1.742989	0.190095	-0.007796	99
Es	0.616514	-1.021836	-0.040107	99
Es	-0.286587	1.913904	0.010759	99
Es	-2.496853	0.240569	-0.009979	99
Es	1.842429	1.170006	-0.007119	99
Es	-0.554516	0.660802	-0.317113	99
Es	1.228518	0.143964	-0.322752	99
Es	-0.098227	1.204269	0.003952	99
Es	-0.224391	-1.317584	0.075243	99
Es	-0.553433	0.653719	0.314702	99
Es	2.377633	-1.346727	-0.243602	99
Es	-2.765119	-0.087138	-0.611416	99
Es	1.232627	0.133840	0.291892	99
Es	0.588676	1.008390	-0.002705	99
Es	1.952779	-1.068224	0.021942	99
Es	-2.720006	0.948203	-0.004173	99
Es	-0.262621	-1.472200	-0.021616	99
Es	-0.118867	-1.339736	-0.064372	99
Es	2.441042	-1.389626	-0.060494	99
Es	-0.660622	-0.587531	-0.022597	99
Es	-0.305603	-1.278083	-0.084773	99
Es	1.324341	-0.639947	-0.031319	99
Es	-0.379263	-1.834091	-0.067101	99
44
Properties=species:S:1:pos:R:3:Z:I:1 energy=-645.4748815646299 field_type=dipole dipole="0.000000 0.000000 0.000000" charge=0
C	-2.496918	0.240575	-0.009980	6
C	-1.009418	0.169425	-0.007230	6
C	-0.098248	1.204235	0.003950	6
C	1.248102	0.733695	-0.007460	6
C	1.324352	-0.639675	-0.031310	6
N	2.441312	-1.389775	-0.061400	7
S	-0.228008	-1.352315	-0.023670	16
H	-2.838638	1.281055	-0.001250	1
H	-2.912138	-0.255575	0.873310	1
H	-2.906908	-0.238065	-0.905540	1
H	-0.378608	2.250375	0.014630	1
H	2.116692	1.379425	-0.007210	1
H	2.379112	-2.394245	0.068360	1
H	3.359312	-0.989135	0.094800	1
Es	0.588335	1.008126	-0.000890	99
Es	1.248115	0.733700	-0.007460	99
Es	-0.286595	1.914239	0.011378	99
Es	1.324341	-0.639950	-0.031317	99
Es	2.396526	-1.988871	0.028264	99
Es	-0.154836	-1.223926	0.015087	99
Es	-1.009434	0.169206	-0.007227	99
Es	-2.496851	0.240568	-0.009980	99
Es	-2.769294	-0.099960	0.583545	99
Es	1.232758	0.134074	0.290937	99
Es	-0.379438	-1.835864	-0.034342	99
Es	1.951639	-1.067745	0.018225	99
Es	2.378168	-1.346190	-0.235075	99
Es	-2.765421	-0.087721	-0.611425	99
Es	-0.660689	-0.587461	-0.015691	99
Es	-1.742879	0.190056	-0.008041	99
Es	-0.554028	0.660372	-0.317092	99
Es	-0.227919	-1.352224	-0.023886	99
Es	2.976573	-1.141059	0.047288	99
Es	-0.553382	0.654337	0.314083	99
Es	-0.325678	-1.343575	-0.085532	99
Es	0.616804	-1.021894	-0.032137	99
Es	-0.098228	1.204268	0.003950	99
Es	-0.259155	-1.374692	0.073175	99
Es	1.842578	1.169984	-0.006414	99
Es	-2.720234	0.948476	-0.003897	99
Es	-0.163290	-1.446853	-0.062123	99
Es	2.441251	-1.389749	-0.061146	99
Es	1.228045	0.143997	-0.323264	99
Es	-0.153857	-1.225433	-0.044355	99
44
Properties=species:S:1:pos:R:3:Z:I:1 energy=-645.4748815646299 field_type=dipole dipole="0.000000 0.000000 0.000000" charge=0
C	-2.496918	0.240575	-0.009980	6
C	-1.009418	0.169425	-0.007230	6
C	-0.098248	1.204235	0.003950	6
C	1.248102	0.733695	-0.007460	6
C	1.324352	-0.639675	-0.031310	6
N	2.441312	-1.389775	-0.061400	7
S	-0.228008	-1.352315	-0.023670	16
H	-2.838638	1.281055	-0.001250	1
H	-2.912138	-0.255575	0.873310	1
H	-2.906908	-0.238065	-0.905540	1
H	-0.378608	2.250375	0.014630	1
H	2.116692	1.379425	-0.007210	1
H	2.379112	-2.394245	0.068360	1
H	3.359312	-0.989135	0.094800	1
Es	-0.379538	-1.835529	-0.052225	99
Es	1.950023	-1.066270	0.011174	99
Es	1.248115	0.733700	-0.007462	99
Es	-0.553101	0.653858	0.314208	99
Es	-0.133955	-1.433489	-0.024270	99
Es	-1.009434	0.169205	-0.007231	99
Es	0.616300	-1.021716	-0.037367	99
Es	2.441147	-1.389689	-0.060715	99
Es	-0.305570	-1.387169	-0.092108	99
Es	-2.720369	0.948610	-0.004186	99
Es	2.396391	-1.989323	0.027763	99
Es	-0.286638	1.914356	0.010823	99
Es	-0.660411	-0.587552	-0.019330	99
Es	-2.769385	-0.100090	0.583594	99
Es	-0.553985	0.660696	-0.316547	99
Es	1.842702	1.170169	-0.007124	99
Es	-2.496854	0.240568	-0.009980	99
Es	-1.742849	0.190064	-0.007996	99
Es	2.379034	-1.347849	-0.224386	99
Es	-0.098227	1.204270	0.003954	99
Es	-2.765185	-0.087675	-0.611072	99
Es	-0.274264	-1.356082	0.071750	99
Es	-0.228026	-1.352275	-0.023761	99
Es	-0.196449	-1.230209	-0.055451	99
Es	1.230176	0.141322	-0.322136	99
Es	0.588192	1.007927	-0.002487	99
Es	1.324340	-0.639948	-0.031316	99
Es	2.977454	-1.140499	0.043812	99
Es	-0.146307	-1.208263	0.023115	99
Es	1.230600	0.137119	0.291595	99
44
Properties=species:S:1:pos:R:3:Z:I:1 energy=-645.4748815646299 field_type=dipole dipole="0.000000 0.000000 0.000000" charge=0
C	-2.496918	0.240575	-0.009980	6
C	-1.009418	0.169425	-0.007230	6
C	-0.098248	1.204235	0.003950	6
C	1.248102	0.733695	-0.007460	6
C	1.324352	-0.639675	-0.031310	6
N	2.441312	-1.389775	-0.061400	7
S	-0.228008	-1.352315	-0.023670	16
H	-2.838638	1.281055	-0.001250	1
H	-2.912138	-0.255575	0.873310	1
H	-2.906908	-0.238065	-0.905540	1
H	-0.378608	2.250375	0.014630	1
H	2.116692	1.379425	-0.007210	1
H	2.379112	-2.394245	0.068360	1
H	3.359312	-0.989135	0.094800	1
Es	2.978022	-1.140437	0.041696	99
Es	-2.769286	-0.100087	0.583104	99
Es	2.396533	-1.989995	0.024977	99
Es	-0.145937	-1.207647	0.009204	99
Es	1.227746	0.144500	-0.322435	99
Es	-0.553816	0.660667	-0.316412	99
Es	1.842841	1.170156	-0.006439	99
Es	-1.742782	0.189849	-0.007974	99
Es	-2.496852	0.240567	-0.009981	99
Es	0.616348	-1.021662	-0.034340	99
Es	-0.217456	-1.440586	-0.103133	99
Es	-2.720641	0.948905	-0.004093	99
Es	0.587964	1.007760	-0.001287	99
Es	1.232823	0.133888	0.290239	99
Es	-0.325316	-1.367146	0.038520	99
Es	1.949873	-1.065985	0.010534	99
Es	-1.009437	0.169209	-0.007228	99
Es	-0.553029	0.654229	0.313743	99
Es	-0.660280	-0.587599	-0.017908	99
Es	2.440923	-1.389553	-0.060399	99
Es	-0.145236	-1.362335	0.046479	99
Es	1.248115	0.733700	-0.007469	99
Es	-0.286670	1.914495	0.011096	99
Es	-0.098228	1.204269	0.003948	99
Es	-0.222978	-1.237316	-0.079820	99
Es	-0.379262	-1.836026	-0.044965	99
Es	-0.228007	-1.352277	-0.023729	99
Es	2.378697	-1.347633	-0.219163	99
Es	1.324337	-0.639947	-0.031319	99
Es	-2.765084	-0.087723	-0.610804	99
44
Properties=species:S:1:pos:R:3:Z:I:1 energy=-645.4748815646299 field_type=dipole dipole="0.000000 0.000000 0.000000" charge=0
C	-2.496918	0.240575	-0.009980	6
C	-1.009418	0.169425	-0.007230	6
C	-0.098248	1.204235	0.003950	6
C	1.248102	0.733695	-0.007460	6
C	1.324352	-0.639675	-0.031310	6
N	2.441312	-1.389775	-0.061400	7
S	-0.228008	-1.352315	-0.023670	16
H	-2.838638	1.281055	-0.001250	1
H	-2.912138	-0.255575	0.873310	1
H	-2.906908	-0.238065	-0.905540	1
H	-0.378608	2.250375	0.014630	1
H	2.116692	1.379425	-0.007210	1
H	2.379112	-2.394245	0.068360	1
H	3.359312	-0.989135	0.094800	1
Es	-0.227904	-1.351551	-0.023598	99
Es	-2.496852	0.240568	-0.009980	99
Es	-0.145309	-1.207659	-0.002085	99
Es	0.587925	1.007654	-0.001178	99
Es	-0.553607	0.660576	-0.316731	99
Es	-0.118037	-1.307990	0.002467	99
Es	2.440588	-1.389348	-0.060163	99
Es	-0.246354	-1.473572	0.011444	99
Es	-1.742825	0.189763	-0.007829	99
Es	1.248116	0.733705	-0.007467	99
Es	-0.553005	0.654606	0.313670	99
Es	-0.660244	-0.587563	-0.016864	99
Es	0.616323	-1.021743	-0.033699	99
Es	1.842754	1.170275	-0.006408	99
Es	-1.009434	0.169204	-0.007226	99
Es	1.231616	0.135352	0.290629	99
Es	-2.769324	-0.100094	0.583060	99
Es	-0.230043	-1.352099	-0.116565	99
Es	2.977476	-1.140608	0.043420	99
Es	-0.317110	-1.274417	0.007677	99
Es	2.396607	-1.990249	0.023990	99
Es	-2.720490	0.949005	-0.004023	99
Es	1.228727	0.143021	-0.322571	99
Es	1.324338	-0.639946	-0.031318	99
Es	-0.379428	-1.836339	-0.038655	99
Es	2.379218	-1.347286	-0.221029	99
Es	1.950044	-1.066119	0.011428	99
Es	-0.286582	1.914557	0.011261	99
Es	-0.098228	1.204269	0.003951	99
Es	-2.765034	-0.087736	-0.610969	99
44
Properties=species:S:1:pos:R:3:Z:I:1 energy=-645.4748815646299 field_type=dipole dipole="0.000000 0.000000 0.000000" charge=0
C	-2.496918	0.240575	-0.009980	6
C	-1.009418	0.169425	-0.007230	6
C	-0.098248	1.204235	0.003950	6
C	1.248102	0.733695	-0.007460	6
C	1.324352	-0.639675	-0.031310	6
N	2.441312	-1.389775	-0.061400	7
S	-0.228008	-1.352315	-0.023670	16
H	-2.838638	1.281055	-0.001250	1
H	-2.912138	-0.255575	0.873310	1
H	-2.906908	-0.238065	-0.905540	1
H	-0.378608	2.250375	0.014630	1
H	2.116692	1.379425	-0.007210	1
H	2.379112	-2.394245	0.068360	1
H	3.359312	-0.989135	0.094800	1
Es	-2.720626	0.949198	-0.004118	99
Es	-1.009435	0.169205	-0.007230	99
Es	-0.227889	-1.352145	-0.023659	99
Es	-0.098228	1.204269	0.003946	99
Es	-0.552849	0.654417	0.313334	99
Es	1.231058	0.136434	0.290394	99
Es	0.616084	-1.021604	-0.035436	99
Es	-0.553682	0.660822	-0.316318	99
Es	1.229091	0.142134	-0.322349	99
Es	2.396859	-1.990609	0.023086	99
Es	-2.496853	0.240568	-0.009980	99
Es	-0.379505	-1.836253	-0.043285	99
Es	-0.255081	-1.328498	0.063235	99
Es	-0.286590	1.914697	0.011233	99
Es	-0.660113	-0.587650	-0.016030	99
Es	-0.214916	-1.241363	-0.090759	99
Es	-2.769210	-0.100177	0.583020	99
Es	-0.125392	-1.411855	-0.005971	99
Es	1.324341	-0.639952	-0.031320	99
Es	1.248115	0.733701	-0.007460	99
Es	0.587821	1.007294	-0.001165	99
Es	2.977982	-1.140263	0.040652	99
Es	-1.742912	0.189789	-0.007685	99
Es	-0.145382	-1.208174	0.005684	99
Es	2.379685	-1.348281	-0.212208	99
Es	1.842837	1.170432	-0.006589	99
Es	1.948819	-1.065121	0.006130	99
Es	-2.764934	-0.087770	-0.610696	99
Es	2.440565	-1.389334	-0.060184	99
Es	-0.315734	-1.425675	-0.063634	99
44
Properties=species:S:1:pos:R:3:Z:I:1 energy=-645.4748815646299 field_type=dipole dipole="0.000000 0.000000 0.000000" charge=0
C	-2.496918	0.240575	-0.009980	6
C	-1.009418	0.169425	-0.007230	6
C	-0.098248	1.204235	0.003950	6
C	1.248102	0.733695	-0.007460	6
C	1.324352	-0.639675	-0.031310	6
N	2.441312	-1.389775	-0.061400	7
S	-0.228008	-1.352315	-0.023670	16
H	-2.838638	1.281055	-0.001250	1
H	-2.912138	-0.255575	0.873310	1
H	-2.906908	-0.238065	-0.905540	1
H	-0.378608	2.250375	0.014630	1
H	2.116692	1.379425	-0.007210	1
H	2.379112	-2.394245	0.068360	1
H	3.359312	-0.989135	0.094800	1
Es	-2.496851	0.240568	-0.009980	99
Es	2.977723	-1.140223	0.042345	99
Es	2.396667	-1.990698	0.022423	99
Es	2.379751	-1.347828	-0.213930	99
Es	-0.379482	-1.836741	-0.030338	99
Es	-2.769038	-0.100024	0.582869	99
Es	-0.660090	-0.587594	-0.015429	99
Es	0.587814	1.007375	-0.001415	99
Es	2.440662	-1.389392	-0.060134	99
Es	-1.742903	0.189708	-0.008071	99
Es	-0.553554	0.660803	-0.316297	99
Es	1.949074	-1.065433	0.006829	99
Es	-2.720577	0.949227	-0.003886	99
Es	1.229803	0.138073	0.290533	99
Es	0.616124	-1.021649	-0.031396	99
Es	-0.285641	-1.465223	-0.009026	99
Es	-0.217602	-1.341300	-0.113852	99
Es	-1.009435	0.169205	-0.007235	99
Es	-0.145378	-1.207640	-0.015638	99
Es	-0.228289	-1.351569	-0.023183	99
Es	1.842876	1.170389	-0.006480	99
Es	-0.552731	0.654453	0.313461	99
Es	1.248115	0.733702	-0.007447	99
Es	-0.286606	1.914720	0.011404	99
Es	1.230265	0.140489	-0.322172	99
Es	-0.116317	-1.351126	0.015481	99
Es	-0.098227	1.204270	0.003950	99
Es	-2.765158	-0.087879	-0.610818	99
Es	1.324340	-0.639946	-0.031318	99
Es	-0.291413	-1.250481	0.013390	99
44
Properties=species:S:1:pos:R:3:Z:I:1 energy=-645.4748815646299 field_type=dipole dipole="0.000000 0.000000 0.000000" charge=0
C	-2.496918	0.240575	-0.009980	6
C	-1.009418	0.169425	-0.007230	6
C	-0.098248	1.204235	0.003950	6
C	1.248102	0.733695	-0.007460	6
C	1.324352	-0.639675	-0.031310	6
N	2.441312	-1.389775	-0.061400	7
S	-0.228008	-1.352315	-0.023670	16
H	-2.838638	1.281055	-0.001250	1
H	-2.912138	-0.255575	0.873310	1
H	-2.906908	-0.238065	-0.905540	1
H	-0.378608	2.250375	0.014630	1
H	2.116692	1.379425	-0.007210	1
H	2.379112	-2.394245	0.068360	1
H	3.359312	-0.989135	0.094800	1
Es	1.324341	-0.639948	-0.031319	99
Es	-0.309953	-1.280628	-0.074435	99
Es	2.978677	-1.139866	0.038461	99
Es	-0.200665	-1.306412	0.070783	99
Es	1.842963	1.170431	-0.006422	99
Es	-0.132699	-1.348616	-0.087472	99
Es	-0.268158	-1.471919	-0.004297	99
Es	-2.496851	0.240568	-0.009980	99
Es	1.248114	0.733698	-0.007462	99
Es	-0.552658	0.654435	0.313069	99
Es	-2.765089	-0.087960	-0.610269	99
Es	2.440964	-1.389579	-0.060419	99
Es	-0.098228	1.204269	0.003949	99
Es	-0.286737	1.914882	0.011306	99
Es	0.587657	1.007143	-0.001060	99
Es	1.231706	0.135630	0.289915	99
Es	-2.720855	0.949480	-0.004092	99
Es	-0.227990	-1.352269	-0.023615	99
Es	-0.659958	-0.587639	-0.016505	99
Es	-2.768853	-0.100034	0.582765	99
Es	-0.145147	-1.207921	-0.001702	99
Es	-1.009435	0.169205	-0.007231	99
Es	1.948450	-1.064937	0.003933	99
Es	-1.742876	0.189568	-0.008082	99
Es	0.615897	-1.021504	-0.033255	99
Es	2.378983	-1.348018	-0.204682	99
Es	-0.379431	-1.836614	-0.039462	99
Es	-0.553398	0.660793	-0.315914	99
Es	2.396724	-1.991198	0.020260	99
Es	1.228432	0.143197	-0.322128	99
44
Properties=species:S:1:pos:R:3:Z:I:1 energy=-645.4748815646299 field_type=dipole dipole="0.000000 0.000000 0.000000" charge=0
C	-2.496918	0.240575	-0.009980	6
C	-1.009418	0.169425	-0.007230	6
C	-0.098248	1.204235	0.003950	6
C	1.248102	0.733695	-0.007460	6
C	1.324352	-0.639675	-0.031310	6
N	2.441312	-1.389775	-0.061400	7
S	-0.228008	-1.352315	-0.023670	16
H	-2.838638	1.281055	-0.001250	1
H	-2.912138	-0.255575	0.873310	1
H	-2.906908	-0.238065	-0.905540	1
H	-0.378608	2.250375	0.014630	1
H	2.116692	1.379425	-0.007210	1
H	2.379112	-2.394245	0.068360	1
H	3.359312	-0.989135	0.094800	1
Es	-0.553492	0.660962	-0.315951	99
Es	-1.742826	0.189742	-0.007996	99
Es	-0.301350	-1.298173	-0.091154	99
Es	1.948616	-1.064809	0.004105	99
Es	-0.379108	-1.836744	-0.035560	99
Es	-0.145014	-1.207940	-0.003547	99
Es	-2.720879	0.949399	-0.004057	99
Es	-2.769089	-0.100306	0.582749	99
Es	-0.286613	1.914830	0.011235	99
Es	1.324340	-0.639945	-0.031322	99
Es	-0.552686	0.654502	0.313348	99
Es	2.978549	-1.140022	0.038916	99
Es	-0.219200	-1.478924	-0.050610	99
Es	1.229509	0.141497	-0.321832	99
Es	2.440780	-1.389465	-0.060244	99
Es	0.587658	1.007279	-0.001671	99
Es	2.396607	-1.991066	0.021122	99
Es	-0.269472	-1.346217	0.056095	99
Es	-1.009433	0.169211	-0.007231	99
Es	-0.098226	1.204272	0.003950	99
Es	-0.660081	-0.587694	-0.016108	99
Es	2.379315	-1.348225	-0.206313	99
Es	-0.227860	-1.352297	-0.023618	99
Es	0.616002	-1.021590	-0.034631	99
Es	-2.764825	-0.087731	-0.610419	99
Es	-0.121908	-1.283970	-0.010890	99
Es	1.842992	1.170348	-0.006721	99
Es	1.230357	0.137043	0.290431	99
Es	-2.496851	0.240568	-0.009980	99
Es	1.248115	0.733701	-0.007458	99
44
Properties=species:S:1:pos:R:3:Z:I:1 energy=-645.4748815646299 field_type=dipole dipole="0.000000 0.000000 0.000000" charge=0
C	-2.496918	0.240575	-0.009980	6
C	-1.009418	0.169425	-0.007230	6
C	-0.098248	1.204235	0.003950	6
C	1.248102	0.733695	-0.007460	6
C	1.324352	-0.639675	-0.031310	6
N	2.441312	-1.389775	-0.061400	7
S	-0.228008	-1.352315	-0.023670	16
H	-2.838638	1.281055	-0.001250	1
H	-2.912138	-0.255575	0.873310	1
H	-2.906908	-0.238065	-0.905540	1
H	-0.378608	2.250375	0.014630	1
H	2.116692	1.379425	-0.007210	1
H	2.379112	-2.394245	0.068360	1
H	3.359312	-0.989135	0.094800	1
Es	-0.254090	-1.476796	-0.016114	99
Es	1.229363	0.141918	-0.321664	99
Es	1.230624	0.137131	0.289819	99
Es	-0.228282	-1.352303	-0.023792	99
Es	1.843120	1.170534	-0.006336	99
Es	-0.552541	0.654395	0.313168	99
Es	-2.720940	0.949503	-0.004016	99
Es	-0.145304	-1.208154	-0.006046	99
Es	2.396662	-1.991485	0.019295	99
Es	1.248115	0.733700	-0.007463	99
Es	-2.764969	-0.087855	-0.610272	99
Es	2.978710	-1.139566	0.038144	99
Es	-0.181974	-1.329639	-0.119703	99
Es	-2.496851	0.240568	-0.009980	99
Es	2.379868	-1.348663	-0.199133	99
Es	-0.286651	1.914928	0.011223	99
Es	1.324341	-0.639947	-0.031319	99
Es	-2.768930	-0.100149	0.582596	99
Es	-0.659944	-0.587743	-0.015923	99
Es	-1.742753	0.189635	-0.008070	99
Es	1.947726	-1.064347	-0.000552	99
Es	0.615715	-1.021561	-0.034084	99
Es	-0.323805	-1.279987	-0.012629	99
Es	-0.098228	1.204270	0.003951	99
Es	-1.009435	0.169204	-0.007227	99
Es	2.440773	-1.389461	-0.060220	99
Es	-0.553311	0.660835	-0.315783	99
Es	0.587548	1.006996	-0.001501	99
Es	-0.151241	-1.320962	0.054617	99
Es	-0.379390	-1.836761	-0.036349	99
44
Properties=species:S:1:pos:R:3:Z:I:1 energy=-645.4748815646299 field_type=dipole dipole="0.000000 0.000000 0.000000" charge=0
C	-2.496918	0.240575	-0.009980	6
C	-1.009418	0.169425	-0.007230	6
C	-0.098248	1.204235	0.003950	6
C	1.248102	0.733695	-0.007460	6
C	1.324352	-0.639675	-0.031310	6
N	2.441312	-1.389775	-0.061400	7
S	-0.228008	-1.352315	-0.023670	16
H	-2.838638	1.281055	-0.001250	1
H	-2.912138	-0.255575	0.873310	1
H	-2.906908	-0.238065	-0.905540	1
H	-0.378608	2.250375	0.014630	1
H	2.116692	1.379425	-0.007210	1
H	2.379112	-2.394245	0.068360	1
H	3.359312	-0.989135	0.094800	1
Es	-0.098228	1.204269	0.003951	99
Es	-0.379408	-1.836791	-0.031376	99
Es	-0.228089	-1.352227	-0.023804	99
Es	-0.659863	-0.587775	-0.015105	99
Es	1.230670	0.136772	0.289998	99
Es	1.229054	0.142208	-0.322051	99
Es	-0.552605	0.654509	0.313196	99
Es	-0.182066	-1.471713	-0.011078	99
Es	1.324341	-0.639948	-0.031318	99
Es	0.587632	1.007148	-0.001396	99
Es	-0.286620	1.914897	0.011358	99
Es	1.948323	-1.064899	0.003234	99
Es	-1.009434	0.169207	-0.007223	99
Es	-2.768761	-0.099940	0.582530	99
Es	2.396657	-1.991140	0.020528	99
Es	-0.149525	-1.236199	0.017077	99
Es	1.843041	1.170454	-0.006222	99
Es	-1.742829	0.189596	-0.008030	99
Es	-2.720809	0.949516	-0.003812	99
Es	1.248116	0.733701	-0.007464	99
Es	-0.241833	-1.347639	-0.097201	99
Es	-2.496853	0.240568	-0.009979	99
Es	2.978132	-1.139949	0.040857	99
Es	-0.553481	0.660818	-0.315892	99
Es	2.441014	-1.389608	-0.060458	99
Es	-2.765162	-0.088067	-0.610546	99
Es	-0.147490	-1.220069	-0.034412	99
Es	-0.335519	-1.339966	0.017192	99
Es	0.615865	-1.021531	-0.031312	99
Es	2.379655	-1.347969	-0.206603	99
44
Properties=species:S:1:pos:R:3:Z:I:1 energy=-645.4748815646299 field_type=dipole dipole="0.000000 0.000000 0.000000" charge=0
C	-2.496918	0.240575	-0.009980	6
C	-1.009418	0.169425	-0.007230	6
C	-0.098248	1.204235	0.003950	6
C	1.248102	0.733695	-0.007460	6
C	1.324352	-0.639675	-0.031310	6
N	2.441312	-1.389775	-0.061400	7
S	-0.228008	-1.352315	-0.023670	16
H	-2.838638	1.281055	-0.001250	1
H	-2.912138	-0.255575	0.873310	1
H	-2.906908	-0.238065	-0.905540	1
H	-0.378608	2.250375	0.014630	1
H	2.116692	1.379425	-0.007210	1
H	2.379112	-2.394245	0.068360	1
H	3.359312	-0.989135	0.094800	1
Es	1.230180	0.136769	0.290968	99
Es	-1.742829	0.189726	-0.007898	99
Es	-0.552575	0.654579	0.313767	99
Es	1.948866	-1.065258	0.005451	99
Es	-0.098228	1.204269	0.003949	99
Es	-0.227935	-1.352206	-0.015690	99
Es	2.977620	-1.140040	0.042196	99
Es	-2.769043	-0.100250	0.582937	99
Es	-2.764916	-0.087844	-0.610850	99
Es	2.441049	-1.389630	-0.060518	99
Es	-0.553386	0.661173	-0.316459	99
Es	2.379633	-1.348009	-0.212675	99
Es	-0.214298	-1.481779	-0.028088	99
Es	1.324341	-0.639948	-0.031318	99
Es	-0.127408	-1.266421	-0.027518	99
Es	-0.227883	-1.352249	-0.021674	99
Es	-0.342313	-1.306973	-0.024628	99
Es	0.615931	-1.021517	-0.034841	99
Es	0.587725	1.007456	-0.001975	99
Es	1.248115	0.733701	-0.007464	99
Es	-1.009434	0.169205	-0.007230	99
Es	-2.720573	0.949357	-0.003928	99
Es	-0.144922	-1.208166	-0.001267	99
Es	-2.496850	0.240567	-0.009978	99
Es	2.396575	-1.990736	0.023146	99
Es	-0.379037	-1.836788	-0.039500	99
Es	1.842847	1.170428	-0.006545	99
Es	-0.286594	1.914824	0.011159	99
Es	1.229304	0.141698	-0.322240	99
Es	-0.660037	-0.587702	-0.016650	99
44
Properties=species:S:1:pos:R:3:Z:I:1 energy=-645.4748815646299 field_type=dipole dipole="0.000000 0.000000 0.000000" charge=0
C	-2.496918	0.240575	-0.009980	6
C	-1.009418	0.169425	-0.007230	6
C	-0.098248	1.204235	0.003950	6
C	1.248102	0.733695	-0.007460	6
C	1.324352	-0.639675	-0.031310	6
N	2.441312	-1.389775	-0.061400	7
S	-0.228008	-1.352315	-0.023670	16
H	-2.838638	1.281055	-0.001250	1
H	-2.912138	-0.255575	0.873310	1
H	-2.906908	-0.238065	-0.905540	1
H	-0.378608	2.250375	0.014630	1
H	2.116692	1.379425	-0.007210	1
H	2.379112	-2.394245	0.068360	1
H	3.359312	-0.989135	0.094800	1
Es	-0.145624	-1.208257	-0.002277	99
Es	2.396652	-1.991449	0.019780	99
Es	-2.764957	-0.087943	-0.610422	99
Es	1.842975	1.170635	-0.006371	99
Es	1.248115	0.733702	-0.007462	99
Es	0.587487	1.006924	-0.001156	99
Es	-1.009435	0.169204	-0.007231	99
Es	-0.290859	-1.244865	-0.046859	99
Es	1.948246	-1.064587	0.001920	99
Es	-0.286634	1.915048	0.011282	99
Es	2.379217	-1.348241	-0.201989	99
Es	-0.228272	-1.352422	-0.024286	99
Es	-0.288158	-1.463043	-0.045173	99
Es	0.615676	-1.021436	-0.033439	99
Es	-2.496851	0.240568	-0.009979	99
Es	-0.659772	-0.587732	-0.016242	99
Es	-0.552333	0.654501	0.313178	99
Es	2.978607	-1.139729	0.038240	99
Es	-0.112490	-1.348226	-0.061069	99
Es	1.324341	-0.639948	-0.031318	99
Es	-2.720816	0.949622	-0.003933	99
Es	1.231900	0.135092	0.289857	99
Es	-0.379649	-1.836810	-0.037043	99
Es	-0.553283	0.660978	-0.315849	99
Es	-0.098228	1.204270	0.003950	99
Es	-1.742850	0.189554	-0.008049	99
Es	-2.768852	-0.100147	0.582592	99
Es	-0.219073	-1.351241	0.056446	99
Es	1.227860	0.143806	-0.322043	99
Es	2.440987	-1.389592	-0.060415	99
