43
Properties=species:S:1:pos:R:3:Z:I:1 energy=-665.308372085807 field_type=dipole dipole="0.000000 0.000000 0.000000" charge=0
C	-1.797719	-0.183191	-0.003544	6
C	-0.307930	-0.109491	-0.000164	6
C	0.431290	1.056799	-0.001324	6
O	-0.021950	2.305559	-0.005074	8
S	2.111681	0.765249	0.002946	16
C	1.883111	-0.925961	0.005986	6
C	0.548560	-1.261521	0.003876	6
H	-2.255899	0.810359	0.007756	1
H	-2.151780	-0.728231	0.877876	1
H	-2.148600	-0.707371	-0.898174	1
H	0.779530	2.856799	-0.004524	1
H	2.734060	-1.593691	0.009126	1
H	0.195640	-2.285311	0.005236	1
Es	-2.028424	-0.554237	0.592357	99
Es	2.033321	0.709246	-0.065116	99
Es	-2.101406	0.487232	0.003949	99
Es	2.158998	0.852427	-0.057748	99
Es	2.054587	0.809469	0.094588	99
Es	0.431425	1.057103	-0.001328	99
Es	0.088959	-0.710708	0.001360	99
Es	2.111715	0.765423	0.003204	99
Es	0.548530	-1.261533	0.003872	99
Es	-0.021575	2.305407	-0.005039	99
Es	1.236074	-1.065707	0.319906	99
Es	-0.307952	-0.109499	-0.000163	99
Es	0.083729	0.392921	-0.318909	99
Es	0.178190	1.824176	-0.003104	99
Es	2.197932	0.687898	0.039989	99
Es	2.026133	-0.105030	0.004917	99
Es	2.234264	0.885814	0.430945	99
Es	1.883222	-0.925769	0.005989	99
Es	-1.797655	-0.183194	-0.003544	99
Es	-0.147974	2.320570	-0.264600	99
Es	-0.156432	2.323833	0.251882	99
Es	2.233579	0.882078	-0.425941	99
Es	-2.026305	-0.539994	-0.608279	99
Es	2.459316	-1.358893	0.008163	99
Es	0.304111	-1.948702	0.004777	99
Es	0.411580	2.586343	-0.003312	99
Es	-1.045618	-0.140202	-0.001924	99
Es	0.083219	0.391896	0.318651	99
Es	1.243246	0.952144	0.001050	99
Es	1.237368	-1.066966	-0.310229	99
43
Properties=species:S:1:pos:R:3:Z:I:1 energy=-665.308372085807 field_type=dipole dipole="0.000000 0.000000 0.000000" charge=0
C	-1.797719	-0.183191	-0.003544	6
C	-0.307930	-0.109491	-0.000164	6
C	0.431290	1.056799	-0.001324	6
O	-0.021950	2.305559	-0.005074	8
S	2.111681	0.765249	0.002946	16
C	1.883111	-0.925961	0.005986	6
C	0.548560	-1.261521	0.003876	6
H	-2.255899	0.810359	0.007756	1
H	-2.151780	-0.728231	0.877876	1
H	-2.148600	-0.707371	-0.898174	1
H	0.779530	2.856799	-0.004524	1
H	2.734060	-1.593691	0.009126	1
H	0.195640	-2.285311	0.005236	1
Es	-2.026739	-0.540429	-0.606533	99
Es	1.883220	-0.925771	0.005988	99
Es	0.083972	0.391647	-0.315598	99
Es	0.431427	1.057105	-0.001319	99
Es	2.061618	0.852997	-0.055869	99
Es	1.961587	0.679925	0.068083	99
Es	1.235411	-1.065276	0.316998	99
Es	2.184852	0.714929	-0.067053	99
Es	0.548535	-1.261531	0.003876	99
Es	2.458519	-1.359772	0.008423	99
Es	-1.797651	-0.183196	-0.003540	99
Es	-1.044620	-0.140736	-0.002134	99
Es	0.303728	-1.950541	0.004152	99
Es	-0.146662	2.318948	0.242911	99
Es	0.091252	-0.710040	0.000066	99
Es	-0.307946	-0.109493	-0.000165	99
Es	-2.103201	0.487339	0.004145	99
Es	2.501977	1.085634	-0.040533	99
Es	1.239503	0.962130	-0.009287	99
Es	0.413406	2.593381	-0.002875	99
Es	-2.028293	-0.553493	0.590062	99
Es	2.025793	0.682379	0.038403	99
Es	2.111688	0.765308	0.003021	99
Es	-0.021564	2.305398	-0.005016	99
Es	2.035000	-0.110942	-0.004181	99
Es	-0.154668	2.323508	-0.254640	99
Es	0.173446	1.819038	-0.004442	99
Es	0.083209	0.392767	0.316485	99
Es	2.172676	0.809490	0.093412	99
Es	1.236681	-1.067157	-0.306473	99
43
Properties=species:S:1:pos:R:3:Z:I:1 energy=-665.308372085807 field_type=dipole dipole="0.000000 0.000000 0.000000" charge=0
C	-1.797719	-0.183191	-0.003544	6
C	-0.307930	-0.109491	-0.000164	6
C	0.431290	1.056799	-0.001324	6
O	-0.021950	2.305559	-0.005074	8
S	2.111681	0.765249	0.002946	16
C	1.883111	-0.925961	0.005986	6
C	0.548560	-1.261521	0.003876	6
H	-2.255899	0.810359	0.007756	1
H	-2.151780	-0.728231	0.877876	1
H	-2.148600	-0.707371	-0.898174	1
H	0.779530	2.856799	-0.004524	1
H	2.734060	-1.593691	0.009126	1
H	0.195640	-2.285311	0.005236	1
Es	2.111077	0.765182	0.001446	99
Es	-1.797655	-0.183194	-0.003544	99
Es	0.092749	-0.709404	0.001411	99
Es	-2.026321	-0.539359	-0.604917	99
Es	0.169892	1.815928	0.001209	99
Es	0.083402	0.391257	0.313975	99
Es	-0.172300	2.331507	0.232093	99
Es	2.032486	0.854936	0.010059	99
Es	-0.021613	2.305421	-0.005046	99
Es	2.108926	0.745753	-0.077793	99
Es	0.431427	1.057108	-0.001325	99
Es	2.504035	1.087527	0.012541	99
Es	2.457999	-1.360190	0.008337	99
Es	2.232608	0.800377	0.022454	99
Es	2.034593	-0.110315	0.006597	99
Es	0.303379	-1.951313	0.004763	99
Es	1.962308	0.679514	-0.012628	99
Es	0.084141	0.391708	-0.314686	99
Es	-0.307952	-0.109498	-0.000166	99
Es	1.883218	-0.925770	0.005994	99
Es	-2.028714	-0.554312	0.589066	99
Es	2.070573	0.659249	0.062630	99
Es	-1.044097	-0.141154	-0.002095	99
Es	0.413667	2.597543	-0.003344	99
Es	0.548532	-1.261532	0.003876	99
Es	1.235560	-1.066909	-0.305097	99
Es	1.239745	0.961355	0.000758	99
Es	-2.104372	0.487311	0.004026	99
Es	1.234480	-1.064960	0.314874	99
Es	-0.125619	2.309778	-0.249104	99
43
Properties=species:S:1:pos:R:3:Z:I:1 energy=-665.308372085807 field_type=dipole dipole="0.000000 0.000000 0.000000" charge=0
C	-1.797719	-0.183191	-0.003544	6
C	-0.307930	-0.109491	-0.000164	6
C	0.431290	1.056799	-0.001324	6
O	-0.021950	2.305559	-0.005074	8
S	2.111681	0.765249	0.002946	16
C	1.883111	-0.925961	0.005986	6
C	0.548560	-1.261521	0.003876	6
H	-2.255899	0.810359	0.007756	1
H	-2.151780	-0.728231	0.877876	1
H	-2.148600	-0.707371	-0.898174	1
H	0.779530	2.856799	-0.004524	1
H	2.734060	-1.593691	0.009126	1
H	0.195640	-2.285311	0.005236	1
Es	-2.029169	-0.554220	0.589477	99
Es	-1.797655	-0.183196	-0.003546	99
Es	0.302893	-1.951610	0.004750	99
Es	2.119467	0.888888	-0.016645	99
Es	-0.307953	-0.109500	-0.000158	99
Es	1.962190	0.682033	-0.021080	99
Es	1.883222	-0.925767	0.005988	99
Es	0.084512	0.393576	-0.315117	99
Es	0.548533	-1.261533	0.003879	99
Es	2.034184	-0.109808	0.011958	99
Es	1.234322	-1.066990	-0.305869	99
Es	0.413154	2.600317	0.004990	99
Es	2.217384	0.708212	-0.005137	99
Es	-2.026281	-0.539280	-0.605104	99
Es	2.098523	0.761204	0.080716	99
Es	0.084845	0.388235	0.314022	99
Es	2.457353	-1.359744	0.009807	99
Es	1.240257	0.960748	-0.003817	99
Es	-2.104130	0.486636	0.003653	99
Es	0.093307	-0.709325	0.001320	99
Es	-1.044047	-0.141133	-0.002319	99
Es	2.503972	1.088175	0.020321	99
Es	2.111375	0.765246	0.003252	99
Es	0.165767	1.814528	0.017644	99
Es	-0.258557	2.368854	0.165980	99
Es	0.431426	1.057106	-0.001322	99
Es	-0.021554	2.305337	-0.004968	99
Es	1.233387	-1.065206	0.314901	99
Es	-0.034393	2.271044	-0.208030	99
Es	2.009824	0.700716	-0.043183	99
43
Properties=species:S:1:pos:R:3:Z:I:1 energy=-665.308372085807 field_type=dipole dipole="0.000000 0.000000 0.000000" charge=0
C	-1.797719	-0.183191	-0.003544	6
C	-0.307930	-0.109491	-0.000164	6
C	0.431290	1.056799	-0.001324	6
O	-0.021950	2.305559	-0.005074	8
S	2.111681	0.765249	0.002946	16
C	1.883111	-0.925961	0.005986	6
C	0.548560	-1.261521	0.003876	6
H	-2.255899	0.810359	0.007756	1
H	-2.151780	-0.728231	0.877876	1
H	-2.148600	-0.707371	-0.898174	1
H	0.779530	2.856799	-0.004524	1
H	2.734060	-1.593691	0.009126	1
H	0.195640	-2.285311	0.005236	1
Es	0.548534	-1.261536	0.003861	99
Es	0.162972	1.812907	0.019640	99
Es	-2.026476	-0.539291	-0.605668	99
Es	2.000008	0.691800	-0.009165	99
Es	-0.307952	-0.109498	-0.000162	99
Es	0.085039	0.393359	-0.315338	99
Es	2.107574	0.892354	0.009111	99
Es	0.302474	-1.951647	0.004447	99
Es	1.962988	0.682593	0.000854	99
Es	2.155854	0.748015	-0.070476	99
Es	-0.001046	2.258470	-0.159420	99
Es	-2.029299	-0.554090	0.589631	99
Es	1.232511	-1.065526	0.315703	99
Es	2.504164	1.088682	0.013804	99
Es	-0.021321	2.305097	-0.004826	99
Es	0.412880	2.602177	0.005531	99
Es	0.431426	1.057109	-0.001312	99
Es	2.456831	-1.359345	0.009773	99
Es	0.085721	0.388027	0.314988	99
Es	2.180537	0.727382	0.076338	99
Es	1.240546	0.960352	-0.006274	99
Es	2.034297	-0.109723	0.009190	99
Es	-1.043968	-0.141148	-0.002362	99
Es	0.093582	-0.709310	0.000692	99
Es	1.233498	-1.067048	-0.306308	99
Es	-2.103843	0.486072	0.003825	99
Es	1.883221	-0.925767	0.005987	99
Es	-1.797656	-0.183195	-0.003543	99
Es	-0.288836	2.381347	0.114723	99
Es	2.111894	0.764926	0.003120	99
43
Properties=species:S:1:pos:R:3:Z:I:1 energy=-665.308372085807 field_type=dipole dipole="0.000000 0.000000 0.000000" charge=0
C	-1.797719	-0.183191	-0.003544	6
C	-0.307930	-0.109491	-0.000164	6
C	0.431290	1.056799	-0.001324	6
O	-0.021950	2.305559	-0.005074	8
S	2.111681	0.765249	0.002946	16
C	1.883111	-0.925961	0.005986	6
C	0.548560	-1.261521	0.003876	6
H	-2.255899	0.810359	0.007756	1
H	-2.151780	-0.728231	0.877876	1
H	-2.148600	-0.707371	-0.898174	1
H	0.779530	2.856799	-0.004524	1
H	2.734060	-1.593691	0.009126	1
H	0.195640	-2.285311	0.005236	1
Es	1.240762	0.960046	-0.005310	99
Es	-2.026656	-0.539184	-0.605857	99
Es	1.232615	-1.067783	-0.306849	99
Es	2.101064	0.862552	0.068089	99
Es	1.883221	-0.925767	0.005982	99
Es	-2.103569	0.485632	0.003795	99
Es	-0.307952	-0.109499	-0.000174	99
Es	0.086193	0.388637	0.315247	99
Es	2.112002	0.765081	0.003741	99
Es	0.015765	2.253100	-0.111747	99
Es	2.226382	0.735904	-0.008489	99
Es	-0.021476	2.305313	-0.004747	99
Es	0.548530	-1.261532	0.003876	99
Es	1.962023	0.682839	-0.010093	99
Es	0.086300	0.392466	-0.316193	99
Es	2.087667	0.794401	-0.083274	99
Es	-1.043942	-0.141205	-0.002357	99
Es	1.231641	-1.065280	0.316255	99
Es	0.431426	1.057105	-0.001325	99
Es	0.093908	-0.709429	0.001277	99
Es	2.029685	0.667302	0.035847	99
Es	0.302143	-1.951799	0.004463	99
Es	2.504382	1.088884	0.016221	99
Es	2.034194	-0.109527	0.009743	99
Es	-0.303439	2.387044	0.073775	99
Es	-1.797655	-0.183194	-0.003543	99
Es	2.456384	-1.358930	0.009634	99
Es	-2.029399	-0.554091	0.590037	99
Es	0.412834	2.603556	0.003151	99
Es	0.161124	1.810900	0.015189	99
43
Properties=species:S:1:pos:R:3:Z:I:1 energy=-665.308372085807 field_type=dipole dipole="0.000000 0.000000 0.000000" charge=0
C	-1.797719	-0.183191	-0.003544	6
C	-0.307930	-0.109491	-0.000164	6
C	0.431290	1.056799	-0.001324	6
O	-0.021950	2.305559	-0.005074	8
S	2.111681	0.765249	0.002946	16
C	1.883111	-0.925961	0.005986	6
C	0.548560	-1.261521	0.003876	6
H	-2.255899	0.810359	0.007756	1
H	-2.151780	-0.728231	0.877876	1
H	-2.148600	-0.707371	-0.898174	1
H	0.779530	2.856799	-0.004524	1
H	2.734060	-1.593691	0.009126	1
H	0.195640	-2.285311	0.005236	1
Es	1.975558	0.689523	0.035293	99
Es	2.155090	0.890628	0.020373	99
Es	0.016709	2.253076	0.095663	99
Es	2.151408	0.730803	0.035037	99
Es	2.034268	-0.109518	-0.000084	99
Es	-0.021525	2.305379	-0.005255	99
Es	-0.304582	2.387024	-0.081200	99
Es	0.302219	-1.951798	0.004870	99
Es	1.883223	-0.925764	0.005977	99
Es	-2.029075	-0.553880	0.589757	99
Es	2.118888	0.760247	-0.046591	99
Es	-0.307952	-0.109500	-0.000167	99
Es	1.983474	0.687869	-0.005458	99
Es	0.431426	1.057107	-0.001328	99
Es	1.232956	-1.066723	-0.306281	99
Es	0.412854	2.603664	-0.011883	99
Es	0.087353	0.387146	-0.315872	99
Es	2.504357	1.088756	-0.010911	99
Es	0.161351	1.810759	-0.021315	99
Es	-1.797655	-0.183194	-0.003544	99
Es	1.240650	0.960126	0.004814	99
Es	1.231308	-1.065915	0.316470	99
Es	0.548533	-1.261532	0.003876	99
Es	2.456462	-1.359054	0.006754	99
Es	0.093997	-0.709418	0.002571	99
Es	-1.043857	-0.141374	-0.001509	99
Es	-2.026884	-0.539399	-0.605594	99
Es	-2.103804	0.485812	0.003965	99
Es	0.084588	0.393950	0.314889	99
Es	2.134816	0.748748	-0.006955	99
43
Properties=species:S:1:pos:R:3:Z:I:1 energy=-665.308372085807 field_type=dipole dipole="0.000000 0.000000 0.000000" charge=0
C	-1.797719	-0.183191	-0.003544	6
C	-0.307930	-0.109491	-0.000164	6
C	0.431290	1.056799	-0.001324	6
O	-0.021950	2.305559	-0.005074	8
S	2.111681	0.765249	0.002946	16
C	1.883111	-0.925961	0.005986	6
C	0.548560	-1.261521	0.003876	6
H	-2.255899	0.810359	0.007756	1
H	-2.151780	-0.728231	0.877876	1
H	-2.148600	-0.707371	-0.898174	1
H	0.779530	2.856799	-0.004524	1
H	2.734060	-1.593691	0.009126	1
H	0.195640	-2.285311	0.005236	1
Es	2.055348	0.837736	0.061595	99
Es	0.548534	-1.261532	0.003878	99
Es	2.034196	-0.109483	0.002780	99
Es	-2.026912	-0.539197	-0.606079	99
Es	1.231992	-1.067316	-0.307208	99
Es	-1.043926	-0.141097	-0.001760	99
Es	-0.307953	-0.109499	-0.000163	99
Es	2.504791	1.089101	0.000105	99
Es	0.301772	-1.951819	0.004902	99
Es	0.094137	-0.709511	0.002163	99
Es	-0.021482	2.305306	-0.005435	99
Es	0.086376	0.391186	0.315767	99
Es	2.111675	0.765249	0.002934	99
Es	2.089236	0.787444	-0.068376	99
Es	0.087678	0.389484	-0.316623	99
Es	0.026600	2.250769	0.029576	99
Es	1.883220	-0.925768	0.005986	99
Es	-1.797658	-0.183195	-0.003539	99
Es	-2.029400	-0.553959	0.590298	99
Es	2.063223	0.641849	0.013829	99
Es	0.412832	2.604729	-0.007168	99
Es	2.237436	0.793111	0.003819	99
Es	-2.103378	0.485110	0.003862	99
Es	0.160191	1.809007	-0.008868	99
Es	-0.313128	2.390002	-0.032189	99
Es	1.230563	-1.065994	0.317056	99
Es	2.455929	-1.358599	0.007637	99
Es	1.961847	0.683544	0.007736	99
Es	1.240990	0.959784	0.001176	99
Es	0.431427	1.057104	-0.001327	99
43
Properties=species:S:1:pos:R:3:Z:I:1 energy=-665.308372085807 field_type=dipole dipole="0.000000 0.000000 0.000000" charge=0
C	-1.797719	-0.183191	-0.003544	6
C	-0.307930	-0.109491	-0.000164	6
C	0.431290	1.056799	-0.001324	6
O	-0.021950	2.305559	-0.005074	8
S	2.111681	0.765249	0.002946	16
C	1.883111	-0.925961	0.005986	6
C	0.548560	-1.261521	0.003876	6
H	-2.255899	0.810359	0.007756	1
H	-2.151780	-0.728231	0.877876	1
H	-2.148600	-0.707371	-0.898174	1
H	0.779530	2.856799	-0.004524	1
H	2.734060	-1.593691	0.009126	1
H	0.195640	-2.285311	0.005236	1
Es	-2.029531	-0.553975	0.590422	99
Es	-0.021211	2.304999	-0.006117	99
Es	2.190443	0.870744	0.018834	99
Es	2.111638	0.765193	0.003235	99
Es	-0.313244	2.390010	-0.026360	99
Es	-2.103326	0.484889	0.003775	99
Es	1.961966	0.684036	-0.000028	99
Es	1.985037	0.763056	0.032018	99
Es	1.231621	-1.067212	-0.307507	99
Es	0.412911	2.604884	-0.007907	99
Es	-0.307953	-0.109499	-0.000168	99
Es	0.159803	1.809003	-0.009923	99
Es	-1.043894	-0.141246	-0.001835	99
Es	0.026836	2.250860	0.026145	99
Es	0.548532	-1.261533	0.003872	99
Es	2.455606	-1.358381	0.007850	99
Es	0.094471	-0.709435	0.002101	99
Es	-1.797654	-0.183193	-0.003544	99
Es	2.504534	1.089645	0.002946	99
Es	1.241122	0.959571	0.002157	99
Es	0.087777	0.390414	-0.316757	99
Es	0.431426	1.057105	-0.001325	99
Es	0.301485	-1.951851	0.004818	99
Es	1.883222	-0.925766	0.005984	99
Es	0.086881	0.390070	0.315966	99
Es	2.034282	-0.109351	0.004640	99
Es	-2.026892	-0.539132	-0.606110	99
Es	2.162942	0.657692	0.000350	99
Es	2.107069	0.768212	-0.038342	99
Es	1.230257	-1.066267	0.317174	99
43
Properties=species:S:1:pos:R:3:Z:I:1 energy=-665.308372085807 field_type=dipole dipole="0.000000 0.000000 0.000000" charge=0
C	-1.797719	-0.183191	-0.003544	6
C	-0.307930	-0.109491	-0.000164	6
C	0.431290	1.056799	-0.001324	6
O	-0.021950	2.305559	-0.005074	8
S	2.111681	0.765249	0.002946	16
C	1.883111	-0.925961	0.005986	6
C	0.548560	-1.261521	0.003876	6
H	-2.255899	0.810359	0.007756	1
H	-2.151780	-0.728231	0.877876	1
H	-2.148600	-0.707371	-0.898174	1
H	0.779530	2.856799	-0.004524	1
H	2.734060	-1.593691	0.009126	1
H	0.195640	-2.285311	0.005236	1
Es	0.094692	-0.709409	0.001677	99
Es	2.111625	0.765227	0.003036	99
Es	2.455589	-1.358406	0.007984	99
Es	0.159420	1.808662	-0.004783	99
Es	2.108726	0.765802	0.031370	99
Es	2.035984	0.846301	-0.012951	99
Es	-2.029807	-0.554107	0.590309	99
Es	2.034144	-0.109292	0.005167	99
Es	0.301414	-1.951890	0.004872	99
Es	0.087593	0.387714	0.315784	99
Es	2.504848	1.089353	0.005428	99
Es	0.027983	2.250304	-0.013755	99
Es	1.241270	0.959511	0.000244	99
Es	1.230251	-1.065967	0.317116	99
Es	-0.021520	2.305392	-0.004922	99
Es	0.431426	1.057105	-0.001324	99
Es	-0.307952	-0.109498	-0.000170	99
Es	2.237241	0.807168	0.003986	99
Es	1.231635	-1.067328	-0.307315	99
Es	-2.026796	-0.538861	-0.606008	99
Es	1.961883	0.684147	0.000146	99
Es	0.413029	2.604809	-0.003632	99
Es	2.063391	0.640796	-0.010793	99
Es	-1.797656	-0.183194	-0.003544	99
Es	-0.313829	2.390550	0.002901	99
Es	1.883222	-0.925766	0.005986	99
Es	-1.043769	-0.141273	-0.001761	99
Es	-2.103340	0.484731	0.003721	99
Es	0.086927	0.392497	-0.316285	99
Es	0.548533	-1.261532	0.003879	99
43
Properties=species:S:1:pos:R:3:Z:I:1 energy=-665.308372085807 field_type=dipole dipole="0.000000 0.000000 0.000000" charge=0
C	-1.797719	-0.183191	-0.003544	6
C	-0.307930	-0.109491	-0.000164	6
C	0.431290	1.056799	-0.001324	6
O	-0.021950	2.305559	-0.005074	8
S	2.111681	0.765249	0.002946	16
C	1.883111	-0.925961	0.005986	6
C	0.548560	-1.261521	0.003876	6
H	-2.255899	0.810359	0.007756	1
H	-2.151780	-0.728231	0.877876	1
H	-2.148600	-0.707371	-0.898174	1
H	0.779530	2.856799	-0.004524	1
H	2.734060	-1.593691	0.009126	1
H	0.195640	-2.285311	0.005236	1
Es	0.159013	1.808592	-0.003614	99
Es	2.112148	0.764841	-0.006999	99
Es	-0.307953	-0.109499	-0.000164	99
Es	1.883225	-0.925764	0.005995	99
Es	2.455550	-1.358366	0.007984	99
Es	-0.021499	2.305340	-0.005409	99
Es	1.231272	-1.067337	-0.307075	99
Es	0.548533	-1.261533	0.003876	99
Es	2.034081	-0.109216	0.004070	99
Es	0.301469	-1.952001	0.004707	99
Es	-1.797655	-0.183194	-0.003543	99
Es	2.111824	0.765028	0.000499	99
Es	-1.043690	-0.141209	-0.001816	99
Es	0.028064	2.250279	-0.005827	99
Es	1.962192	0.684273	0.001018	99
Es	2.180105	0.680726	0.014063	99
Es	1.241325	0.959420	0.000940	99
Es	0.431425	1.057099	-0.001324	99
Es	1.229972	-1.066193	0.316902	99
Es	-2.029490	-0.554026	0.589926	99
Es	0.087444	0.389189	0.315737	99
Es	1.982192	0.729265	0.003957	99
Es	2.170858	0.885048	0.005047	99
Es	0.087502	0.391130	-0.316005	99
Es	-2.026955	-0.539005	-0.605923	99
Es	-0.313628	2.390647	-0.004730	99
Es	0.094841	-0.709287	0.001403	99
Es	-2.103671	0.484692	0.004016	99
Es	2.504510	1.089768	0.003164	99
Es	0.413150	2.604839	-0.004513	99
43
Properties=species:S:1:pos:R:3:Z:I:1 energy=-665.308372085807 field_type=dipole dipole="0.000000 0.000000 0.000000" charge=0
C	-1.797719	-0.183191	-0.003544	6
C	-0.307930	-0.109491	-0.000164	6
C	0.431290	1.056799	-0.001324	6
O	-0.021950	2.305559	-0.005074	8
S	2.111681	0.765249	0.002946	16
C	1.883111	-0.925961	0.005986	6
C	0.548560	-1.261521	0.003876	6
H	-2.255899	0.810359	0.007756	1
H	-2.151780	-0.728231	0.877876	1
H	-2.148600	-0.707371	-0.898174	1
H	0.779530	2.856799	-0.004524	1
H	2.734060	-1.593691	0.009126	1
H	0.195640	-2.285311	0.005236	1
Es	0.301282	-1.952078	0.004726	99
Es	-0.307951	-0.109500	-0.000164	99
Es	2.110707	0.765141	-0.005093	99
Es	1.231122	-1.067386	-0.306642	99
Es	-2.026908	-0.539000	-0.605653	99
Es	2.033996	-0.108984	0.003763	99
Es	0.086868	0.391209	0.315147	99
Es	0.412962	2.605218	-0.005984	99
Es	2.504670	1.089808	0.002331	99
Es	1.962358	0.684745	0.004825	99
Es	0.431426	1.057105	-0.001324	99
Es	0.095151	-0.709218	0.001721	99
Es	2.455400	-1.358517	0.007919	99
Es	1.241473	0.959256	0.000801	99
Es	2.111585	0.765198	0.001135	99
Es	-1.043649	-0.141313	-0.001727	99
Es	0.027382	2.250775	0.013422	99
Es	-2.029576	-0.553973	0.589815	99
Es	2.182476	0.677541	0.000814	99
Es	1.229699	-1.065887	0.316608	99
Es	0.159481	1.809027	-0.007286	99
Es	0.548532	-1.261534	0.003878	99
Es	-0.313609	2.389728	-0.018546	99
Es	2.168209	0.886452	0.002576	99
Es	-1.797655	-0.183194	-0.003544	99
Es	-0.021119	2.304922	-0.005723	99
Es	-2.103792	0.484710	0.003866	99
Es	1.883222	-0.925766	0.005983	99
Es	1.984107	0.730268	0.014659	99
Es	0.088308	0.388794	-0.315939	99
43
Properties=species:S:1:pos:R:3:Z:I:1 energy=-665.308372085807 field_type=dipole dipole="0.000000 0.000000 0.000000" charge=0
C	-1.797719	-0.183191	-0.003544	6
C	-0.307930	-0.109491	-0.000164	6
C	0.431290	1.056799	-0.001324	6
O	-0.021950	2.305559	-0.005074	8
S	2.111681	0.765249	0.002946	16
C	1.883111	-0.925961	0.005986	6
C	0.548560	-1.261521	0.003876	6
H	-2.255899	0.810359	0.007756	1
H	-2.151780	-0.728231	0.877876	1
H	-2.148600	-0.707371	-0.898174	1
H	0.779530	2.856799	-0.004524	1
H	2.734060	-1.593691	0.009126	1
H	0.195640	-2.285311	0.005236	1
Es	1.231260	-1.067128	-0.306268	99
Es	-1.043500	-0.141421	-0.001910	99
Es	-2.104031	0.484699	0.003931	99
Es	1.241632	0.959148	0.001144	99
Es	0.088274	0.388105	-0.315531	99
Es	-0.021539	2.305380	-0.005247	99
Es	0.095315	-0.709050	0.001827	99
Es	2.455377	-1.358743	0.007850	99
Es	2.183450	0.689996	0.011720	99
Es	0.027966	2.250302	0.007370	99
Es	0.086538	0.391694	0.314835	99
Es	1.962358	0.685533	0.009287	99
Es	1.883223	-0.925765	0.005986	99
Es	1.987153	0.714888	-0.008516	99
Es	2.034028	-0.109019	0.003061	99
Es	-0.313531	2.390122	-0.014933	99
Es	-1.797654	-0.183197	-0.003547	99
Es	0.548532	-1.261533	0.003876	99
Es	0.413245	2.604976	-0.006011	99
Es	-0.307952	-0.109498	-0.000183	99
Es	0.431426	1.057106	-0.001324	99
Es	2.111716	0.765188	0.001554	99
Es	2.111731	0.765144	0.002902	99
Es	-2.026987	-0.538927	-0.605318	99
Es	2.504565	1.089953	0.000082	99
Es	2.163040	0.888731	0.004447	99
Es	0.301374	-1.952167	0.004751	99
Es	0.158969	1.808865	-0.005249	99
Es	1.229660	-1.065847	0.316182	99
Es	-2.029482	-0.553991	0.589598	99
43
Properties=species:S:1:pos:R:3:Z:I:1 energy=-665.308372085807 field_type=dipole dipole="0.000000 0.000000 0.000000" charge=0
C	-1.797719	-0.183191	-0.003544	6
C	-0.307930	-0.109491	-0.000164	6
C	0.431290	1.056799	-0.001324	6
O	-0.021950	2.305559	-0.005074	8
S	2.111681	0.765249	0.002946	16
C	1.883111	-0.925961	0.005986	6
C	0.548560	-1.261521	0.003876	6
H	-2.255899	0.810359	0.007756	1
H	-2.151780	-0.728231	0.877876	1
H	-2.148600	-0.707371	-0.898174	1
H	0.779530	2.856799	-0.004524	1
H	2.734060	-1.593691	0.009126	1
H	0.195640	-2.285311	0.005236	1
Es	0.548532	-1.261533	0.003874	99
Es	-2.026814	-0.538925	-0.605000	99
Es	-0.307954	-0.109500	-0.000165	99
Es	2.156881	0.889178	-0.009423	99
Es	-0.021552	2.305377	-0.005174	99
Es	2.455306	-1.358737	0.008387	99
Es	0.086984	0.390237	0.314324	99
Es	0.413480	2.604877	-0.003801	99
Es	0.301145	-1.952233	0.004638	99
Es	-1.797655	-0.183194	-0.003544	99
Es	2.033833	-0.108822	0.005353	99
Es	0.431426	1.057106	-0.001324	99
Es	0.087990	0.389480	-0.315109	99
Es	2.504692	1.089980	0.005204	99
Es	1.241806	0.958967	-0.001463	99
Es	1.987358	0.716277	-0.015370	99
Es	0.095852	-0.708751	0.001640	99
Es	2.111569	0.765267	0.002924	99
Es	2.111980	0.764173	0.041456	99
Es	2.189288	0.689234	-0.007896	99
Es	0.158080	1.808622	-0.000077	99
Es	0.027724	2.250279	-0.025174	99
Es	1.883222	-0.925767	0.005988	99
Es	1.229609	-1.065948	0.315684	99
Es	-2.104351	0.484682	0.003802	99
Es	-0.312599	2.390437	0.010061	99
Es	1.962509	0.685522	0.005301	99
Es	-2.029616	-0.553935	0.589183	99
Es	-1.043387	-0.141638	-0.001961	99
Es	1.230816	-1.067167	-0.305974	99
43
Properties=species:S:1:pos:R:3:Z:I:1 energy=-665.308372085807 field_type=dipole dipole="0.000000 0.000000 0.000000" charge=0
C	-1.797719	-0.183191	-0.003544	6
C	-0.307930	-0.109491	-0.000164	6
C	0.431290	1.056799	-0.001324	6
O	-0.021950	2.305559	-0.005074	8
S	2.111681	0.765249	0.002946	16
C	1.883111	-0.925961	0.005986	6
C	0.548560	-1.261521	0.003876	6
H	-2.255899	0.810359	0.007756	1
H	-2.151780	-0.728231	0.877876	1
H	-2.148600	-0.707371	-0.898174	1
H	0.779530	2.856799	-0.004524	1
H	2.734060	-1.593691	0.009126	1
H	0.195640	-2.285311	0.005236	1
Es	-1.043346	-0.141602	-0.001936	99
Es	1.230633	-1.067147	-0.306058	99
Es	1.982939	0.725417	0.003109	99
Es	-0.307954	-0.109500	-0.000164	99
Es	0.158269	1.808691	-0.001712	99
Es	-2.026755	-0.538918	-0.604793	99
Es	0.088186	0.389483	-0.315204	99
Es	-2.029581	-0.553988	0.589225	99
Es	0.413276	2.605219	-0.004532	99
Es	1.962974	0.685466	-0.005410	99
Es	2.504696	1.090028	0.005125	99
Es	0.087312	0.390062	0.314440	99
Es	0.301098	-1.952263	0.004696	99
Es	0.095856	-0.708793	0.001752	99
Es	2.455070	-1.358673	0.008050	99
Es	1.883223	-0.925765	0.005989	99
Es	2.187234	0.681195	-0.000427	99
Es	2.163053	0.887608	0.003090	99
Es	0.431426	1.057106	-0.001324	99
Es	-2.104500	0.484634	0.003700	99
Es	0.027770	2.250647	-0.007576	99
Es	2.034055	-0.108821	0.005438	99
Es	-0.313089	2.390109	-0.004418	99
Es	0.548532	-1.261534	0.003875	99
Es	2.111715	0.765188	0.002416	99
Es	-1.797655	-0.183195	-0.003543	99
Es	2.111658	0.765013	0.010543	99
Es	1.241841	0.958896	0.002089	99
Es	1.229324	-1.065936	0.315844	99
Es	-0.021104	2.304918	-0.005920	99
43
Properties=species:S:1:pos:R:3:Z:I:1 energy=-665.308372085807 field_type=dipole dipole="0.000000 0.000000 0.000000" charge=0
C	-1.797719	-0.183191	-0.003544	6
C	-0.307930	-0.109491	-0.000164	6
C	0.431290	1.056799	-0.001324	6
O	-0.021950	2.305559	-0.005074	8
S	2.111681	0.765249	0.002946	16
C	1.883111	-0.925961	0.005986	6
C	0.548560	-1.261521	0.003876	6
H	-2.255899	0.810359	0.007756	1
H	-2.151780	-0.728231	0.877876	1
H	-2.148600	-0.707371	-0.898174	1
H	0.779530	2.856799	-0.004524	1
H	2.734060	-1.593691	0.009126	1
H	0.195640	-2.285311	0.005236	1
Es	1.962477	0.684932	0.001036	99
Es	-2.104586	0.484655	0.003963	99
Es	0.086930	0.390937	0.314128	99
Es	1.241864	0.958901	0.001511	99
Es	1.229327	-1.066040	0.315464	99
Es	-0.307953	-0.109500	-0.000164	99
Es	0.027766	2.250670	-0.004793	99
Es	-2.026987	-0.538966	-0.604749	99
Es	0.088335	0.388634	-0.314791	99
Es	2.066759	0.638319	0.016064	99
Es	2.111471	0.765384	0.003338	99
Es	0.096025	-0.708789	0.001549	99
Es	2.455147	-1.358838	0.007935	99
Es	0.158817	1.809035	-0.004160	99
Es	0.548533	-1.261533	0.003884	99
Es	-0.313625	2.389632	-0.004093	99
Es	2.033942	-0.108722	0.003663	99
Es	0.413234	2.605303	-0.005050	99
Es	-0.021105	2.304898	-0.006048	99
Es	1.230635	-1.066853	-0.305638	99
Es	-1.797655	-0.183194	-0.003543	99
Es	2.111424	0.765500	0.005276	99
Es	-2.029418	-0.553840	0.588903	99
Es	1.883223	-0.925765	0.005985	99
Es	2.034250	0.834740	-0.014807	99
Es	0.301162	-1.952359	0.004761	99
Es	-1.043268	-0.141649	-0.001899	99
Es	2.232968	0.821247	0.005353	99
Es	0.431426	1.057106	-0.001319	99
Es	2.505041	1.089697	0.004604	99
43
Properties=species:S:1:pos:R:3:Z:I:1 energy=-665.308372085807 field_type=dipole dipole="0.000000 0.000000 0.000000" charge=0
C	-1.797719	-0.183191	-0.003544	6
C	-0.307930	-0.109491	-0.000164	6
C	0.431290	1.056799	-0.001324	6
O	-0.021950	2.305559	-0.005074	8
S	2.111681	0.765249	0.002946	16
C	1.883111	-0.925961	0.005986	6
C	0.548560	-1.261521	0.003876	6
H	-2.255899	0.810359	0.007756	1
H	-2.151780	-0.728231	0.877876	1
H	-2.148600	-0.707371	-0.898174	1
H	0.779530	2.856799	-0.004524	1
H	2.734060	-1.593691	0.009126	1
H	0.195640	-2.285311	0.005236	1
Es	0.087425	0.390817	0.314013	99
Es	2.455051	-1.358857	0.008068	99
Es	2.033864	-0.108639	0.005345	99
Es	0.431426	1.057106	-0.001323	99
Es	0.088683	0.388854	-0.314751	99
Es	2.169320	0.671688	0.002050	99
Es	2.111847	0.765299	-0.001476	99
Es	2.185405	0.876557	0.013039	99
Es	1.978897	0.745283	0.004144	99
Es	1.883223	-0.925764	0.005986	99
Es	0.157903	1.808665	-0.001268	99
Es	-2.026616	-0.538821	-0.604445	99
Es	0.028202	2.250186	-0.008408	99
Es	1.962500	0.685790	-0.001822	99
Es	1.241965	0.958751	0.001052	99
Es	-2.029655	-0.554044	0.588924	99
Es	2.504692	1.090136	0.003835	99
Es	2.111662	0.765481	-0.000257	99
Es	-2.104823	0.484522	0.003619	99
Es	1.228882	-1.066008	0.315186	99
Es	-0.312723	2.389924	-0.004200	99
Es	0.301177	-1.952455	0.004776	99
Es	-1.797655	-0.183194	-0.003544	99
Es	1.230226	-1.067275	-0.305388	99
Es	0.096126	-0.708688	0.001540	99
Es	0.413272	2.605437	-0.004926	99
Es	-0.307954	-0.109500	-0.000164	99
Es	0.548532	-1.261533	0.003876	99
Es	-0.021507	2.305364	-0.005340	99
Es	-1.043191	-0.141534	-0.001777	99
43
Properties=species:S:1:pos:R:3:Z:I:1 energy=-665.308372085807 field_type=dipole dipole="0.000000 0.000000 0.000000" charge=0
C	-1.797719	-0.183191	-0.003544	6
C	-0.307930	-0.109491	-0.000164	6
C	0.431290	1.056799	-0.001324	6
O	-0.021950	2.305559	-0.005074	8
S	2.111681	0.765249	0.002946	16
C	1.883111	-0.925961	0.005986	6
C	0.548560	-1.261521	0.003876	6
H	-2.255899	0.810359	0.007756	1
H	-2.151780	-0.728231	0.877876	1
H	-2.148600	-0.707371	-0.898174	1
H	0.779530	2.856799	-0.004524	1
H	2.734060	-1.593691	0.009126	1
H	0.195640	-2.285311	0.005236	1
Es	2.505173	1.089656	0.003781	99
Es	0.413377	2.605217	-0.004219	99
Es	-0.313022	2.389994	-0.001714	99
Es	-0.021537	2.305389	-0.005183	99
Es	-0.307954	-0.109500	-0.000165	99
Es	0.301082	-1.952442	0.004686	99
Es	0.028192	2.250191	-0.009453	99
Es	1.229210	-1.066130	0.314824	99
Es	0.548532	-1.261533	0.003878	99
Es	2.111626	0.765024	-0.001138	99
Es	-1.043192	-0.141772	-0.001899	99
Es	2.232606	0.823041	0.009253	99
Es	1.230461	-1.066581	-0.305195	99
Es	-1.797654	-0.183194	-0.003541	99
Es	0.158143	1.808748	-0.003547	99
Es	-2.026701	-0.538785	-0.604425	99
Es	2.033933	-0.108591	0.004210	99
Es	0.087775	0.390329	-0.314305	99
Es	1.241994	0.958734	0.000830	99
Es	1.963059	0.684784	0.005628	99
Es	0.096352	-0.708488	0.001584	99
Es	2.454977	-1.359039	0.008146	99
Es	0.431426	1.057106	-0.001325	99
Es	-2.104973	0.484663	0.003912	99
Es	0.087416	0.389136	0.313841	99
Es	-2.029531	-0.554031	0.588506	99
Es	2.036934	0.833149	-0.007001	99
Es	2.063928	0.638834	0.004603	99
Es	2.111300	0.765403	0.005803	99
Es	1.883223	-0.925765	0.005986	99
43
Properties=species:S:1:pos:R:3:Z:I:1 energy=-665.308372085807 field_type=dipole dipole="0.000000 0.000000 0.000000" charge=0
C	-1.797719	-0.183191	-0.003544	6
C	-0.307930	-0.109491	-0.000164	6
C	0.431290	1.056799	-0.001324	6
O	-0.021950	2.305559	-0.005074	8
S	2.111681	0.765249	0.002946	16
C	1.883111	-0.925961	0.005986	6
C	0.548560	-1.261521	0.003876	6
H	-2.255899	0.810359	0.007756	1
H	-2.151780	-0.728231	0.877876	1
H	-2.148600	-0.707371	-0.898174	1
H	0.779530	2.856799	-0.004524	1
H	2.734060	-1.593691	0.009126	1
H	0.195640	-2.285311	0.005236	1
Es	0.413457	2.605203	-0.004591	99
Es	2.033751	-0.108469	0.004465	99
Es	1.229109	-1.065451	0.314754	99
Es	0.431426	1.057106	-0.001325	99
Es	1.230382	-1.067065	-0.304669	99
Es	1.883223	-0.925764	0.005986	99
Es	-1.043054	-0.141739	-0.002055	99
Es	-0.019956	2.303647	-0.007069	99
Es	1.242080	0.958721	0.000382	99
Es	0.087277	0.391664	-0.313843	99
Es	-2.105234	0.484556	0.003830	99
Es	2.455027	-1.359086	0.008023	99
Es	1.975241	0.689459	0.013876	99
Es	0.026594	2.251942	-0.009027	99
Es	2.504993	1.089864	0.004660	99
Es	2.190401	0.705486	0.006047	99
Es	-2.029563	-0.554113	0.588346	99
Es	0.158145	1.808884	-0.004731	99
Es	2.148741	0.893421	-0.004261	99
Es	-1.797654	-0.183194	-0.003543	99
Es	1.982402	0.691384	-0.019424	99
Es	0.087769	0.387589	0.313416	99
Es	2.111185	0.765275	0.017979	99
Es	2.111974	0.764947	0.002152	99
Es	-0.307954	-0.109500	-0.000166	99
Es	0.096582	-0.708357	0.001345	99
Es	-2.026639	-0.538641	-0.604027	99
Es	0.301065	-1.952502	0.004674	99
Es	0.548531	-1.261534	0.003875	99
Es	-0.313146	2.389811	0.001283	99
43