45
Properties=species:S:1:pos:R:3:Z:I:1 energy=-739.2859373674266 field_type=dipole dipole="0.000000 0.000000 0.000000" charge=0
C	-1.456546	0.096824	-0.506902	6
C	0.055994	0.060584	-0.506822	6
C	0.765624	1.024244	0.443128	6
O	1.786783	0.072664	0.820248	8
S	0.855144	-1.208956	0.411158	16
O	0.096143	-1.634286	1.564228	8
O	1.612514	-2.101686	-0.436062	8
H	-1.861636	-0.748456	-1.072292	1
H	-1.818156	1.017484	-0.976102	1
H	-1.867706	0.053804	0.506838	1
H	0.451324	0.110704	-1.528992	1
H	0.186684	1.346794	1.316888	1
H	1.193834	1.910284	-0.035312	1
Es	1.487446	-0.373707	0.711954	99
Es	-0.682966	0.066987	-0.498495	99
Es	-1.682284	0.721834	-0.825106	99
Es	1.056660	1.615637	0.115506	99
Es	0.855424	-1.209066	0.410905	99
Es	1.612311	-2.101501	-0.435785	99
Es	1.847785	0.068609	1.113007	99
Es	1.969281	0.070269	0.590577	99
Es	0.867223	-1.237496	0.297509	99
Es	0.877966	-1.303962	0.479288	99
Es	1.520628	-1.814132	-0.036947	99
Es	0.765795	1.024020	0.443153	99
Es	0.056018	0.060519	-0.506731	99
Es	1.709966	-2.338242	-0.349528	99
Es	-1.456457	0.096828	-0.506916	99
Es	0.363773	1.232935	1.029024	99
Es	0.096215	-1.634187	1.564094	99
Es	0.745025	-1.173200	0.429456	99
Es	-0.000165	-1.690660	1.215915	99
Es	0.189255	-1.834805	1.710127	99
Es	1.401670	0.425981	0.695851	99
Es	0.485749	-1.496141	1.260990	99
Es	0.930386	-1.120636	0.438813	99
Es	-1.720899	0.072000	0.175282	99
Es	0.331660	0.085202	-1.172737	99
Es	1.786444	0.072617	0.820119	99
Es	1.225263	-2.036721	-0.396704	99
Es	0.024439	-1.333109	1.572821	99
Es	-1.719426	-0.473082	-0.890186	99
Es	1.663713	-1.845629	-0.594581	99
Es	0.358510	-0.597712	-0.120045	99
Es	0.368157	0.574674	-0.048172	99
45
Properties=species:S:1:pos:R:3:Z:I:1 energy=-739.2859373674266 field_type=dipole dipole="0.000000 0.000000 0.000000" charge=0
C	-1.456546	0.096824	-0.506902	6
C	0.055994	0.060584	-0.506822	6
C	0.765624	1.024244	0.443128	6
O	1.786783	0.072664	0.820248	8
S	0.855144	-1.208956	0.411158	16
O	0.096143	-1.634286	1.564228	8
O	1.612514	-2.101686	-0.436062	8
H	-1.861636	-0.748456	-1.072292	1
H	-1.818156	1.017484	-0.976102	1
H	-1.867706	0.053804	0.506838	1
H	0.451324	0.110704	-1.528992	1
H	0.186684	1.346794	1.316888	1
H	1.193834	1.910284	-0.035312	1
Es	1.977463	0.072395	0.585656	99
Es	-0.682847	0.067059	-0.498360	99
Es	0.056017	0.060517	-0.506731	99
Es	0.918057	-1.299242	0.358267	99
Es	1.262974	-2.045937	-0.420298	99
Es	0.762277	-1.185909	0.348723	99
Es	-1.721786	0.072469	0.176999	99
Es	0.368902	0.574635	-0.047132	99
Es	0.484188	-1.510781	1.225690	99
Es	0.096378	-1.634170	1.563919	99
Es	1.612333	-2.101478	-0.435684	99
Es	-0.001715	-1.666396	1.249766	99
Es	0.920235	-1.111119	0.415935	99
Es	0.765793	1.024019	0.443154	99
Es	1.679429	-1.848722	-0.597149	99
Es	1.485286	-0.373189	0.716454	99
Es	1.786425	0.072665	0.820161	99
Es	0.183796	-1.851491	1.685795	99
Es	1.474734	-1.802192	-0.027211	99
Es	0.357708	-0.596886	-0.119908	99
Es	-1.681094	0.720541	-0.825179	99
Es	0.362757	1.233366	1.030060	99
Es	1.056978	1.614930	0.114689	99
Es	-1.719081	-0.472673	-0.891164	99
Es	0.855090	-1.209014	0.411166	99
Es	0.332165	0.084889	-1.174359	99
Es	0.820336	-1.239158	0.521868	99
Es	-1.456459	0.096827	-0.506916	99
Es	1.843046	0.067086	1.106342	99
Es	0.032852	-1.325898	1.598933	99
Es	1.399788	0.424851	0.702292	99
Es	1.702539	-2.337868	-0.333319	99
45
Properties=species:S:1:pos:R:3:Z:I:1 energy=-739.2859373674266 field_type=dipole dipole="0.000000 0.000000 0.000000" charge=0
C	-1.456546	0.096824	-0.506902	6
C	0.055994	0.060584	-0.506822	6
C	0.765624	1.024244	0.443128	6
O	1.786783	0.072664	0.820248	8
S	0.855144	-1.208956	0.411158	16
O	0.096143	-1.634286	1.564228	8
O	1.612514	-2.101686	-0.436062	8
H	-1.861636	-0.748456	-1.072292	1
H	-1.818156	1.017484	-0.976102	1
H	-1.867706	0.053804	0.506838	1
H	0.451324	0.110704	-1.528992	1
H	0.186684	1.346794	1.316888	1
H	1.193834	1.910284	-0.035312	1
Es	0.333600	-1.501447	1.092127	99
Es	0.893573	-1.247491	0.512788	99
Es	0.740337	-1.184567	0.421663	99
Es	-0.000716	-1.878790	1.473461	99
Es	-0.682847	0.067069	-0.498236	99
Es	-1.718748	-0.471950	-0.890868	99
Es	0.357610	-0.596790	-0.119746	99
Es	-0.008571	-1.343181	1.618314	99
Es	0.765794	1.024021	0.443153	99
Es	0.855078	-1.208515	0.411501	99
Es	1.697756	-2.341527	-0.331204	99
Es	0.374887	-1.630961	1.576493	99
Es	1.056843	1.614848	0.114164	99
Es	1.985303	0.073727	0.587548	99
Es	-1.722219	0.072174	0.177360	99
Es	0.056018	0.060519	-0.506730	99
Es	1.835542	0.063705	1.103474	99
Es	-1.456455	0.096827	-0.506914	99
Es	0.332605	0.085266	-1.174754	99
Es	1.485817	-0.371857	0.715162	99
Es	0.913800	-1.109939	0.384684	99
Es	1.452768	-1.803547	-0.024945	99
Es	0.873300	-1.293968	0.325360	99
Es	0.369395	0.574107	-0.046842	99
Es	1.398892	0.425360	0.704422	99
Es	1.612372	-2.101532	-0.435933	99
Es	0.362094	1.233276	1.030185	99
Es	0.096273	-1.634159	1.563838	99
Es	1.786494	0.072637	0.820132	99
Es	1.282462	-2.044420	-0.427550	99
Es	1.686734	-1.845144	-0.594112	99
Es	-1.681228	0.720376	-0.825533	99
45
Properties=species:S:1:pos:R:3:Z:I:1 energy=-739.2859373674266 field_type=dipole dipole="0.000000 0.000000 0.000000" charge=0
C	-1.456546	0.096824	-0.506902	6
C	0.055994	0.060584	-0.506822	6
C	0.765624	1.024244	0.443128	6
O	1.786783	0.072664	0.820248	8
S	0.855144	-1.208956	0.411158	16
O	0.096143	-1.634286	1.564228	8
O	1.612514	-2.101686	-0.436062	8
H	-1.861636	-0.748456	-1.072292	1
H	-1.818156	1.017484	-0.976102	1
H	-1.867706	0.053804	0.506838	1
H	0.451324	0.110704	-1.528992	1
H	0.186684	1.346794	1.316888	1
H	1.193834	1.910284	-0.035312	1
Es	-1.722197	0.072990	0.177963	99
Es	1.485732	-0.372329	0.712284	99
Es	1.057186	1.614504	0.114446	99
Es	0.892406	-1.296953	0.463681	99
Es	1.989252	0.077128	0.589445	99
Es	1.612310	-2.101512	-0.435773	99
Es	0.362247	1.233563	1.030589	99
Es	1.443214	-1.804729	-0.021534	99
Es	-1.719034	-0.472598	-0.891853	99
Es	1.680282	-2.348630	-0.334209	99
Es	0.850946	-1.235216	0.291624	99
Es	0.096283	-1.634201	1.564000	99
Es	1.297913	-2.033338	-0.429003	99
Es	0.007252	-1.645608	1.268630	99
Es	0.028019	-1.335770	1.641765	99
Es	1.399145	0.424181	0.705574	99
Es	0.186653	-1.867809	1.642954	99
Es	-0.682810	0.067093	-0.498253	99
Es	0.332444	0.084563	-1.175333	99
Es	1.831057	0.062426	1.103161	99
Es	0.744287	-1.177811	0.459094	99
Es	-1.680311	0.719539	-0.825018	99
Es	0.357202	-0.596197	-0.119942	99
Es	1.786440	0.072582	0.820110	99
Es	1.698352	-1.847949	-0.593253	99
Es	0.477241	-1.505233	1.206838	99
Es	0.855868	-1.208894	0.411152	99
Es	0.765792	1.024021	0.443155	99
Es	0.056019	0.060516	-0.506729	99
Es	0.932552	-1.125588	0.430438	99
Es	-1.456458	0.096828	-0.506916	99
Es	0.369280	0.574553	-0.046627	99
45
Properties=species:S:1:pos:R:3:Z:I:1 energy=-739.2859373674266 field_type=dipole dipole="0.000000 0.000000 0.000000" charge=0
C	-1.456546	0.096824	-0.506902	6
C	0.055994	0.060584	-0.506822	6
C	0.765624	1.024244	0.443128	6
O	1.786783	0.072664	0.820248	8
S	0.855144	-1.208956	0.411158	16
O	0.096143	-1.634286	1.564228	8
O	1.612514	-2.101686	-0.436062	8
H	-1.861636	-0.748456	-1.072292	1
H	-1.818156	1.017484	-0.976102	1
H	-1.867706	0.053804	0.506838	1
H	0.451324	0.110704	-1.528992	1
H	0.186684	1.346794	1.316888	1
H	1.193834	1.910284	-0.035312	1
Es	1.650132	-1.835435	-0.605801	99
Es	0.855153	-1.208942	0.411110	99
Es	1.057053	1.614172	0.114528	99
Es	-1.456460	0.096830	-0.506916	99
Es	1.247422	-1.839004	-0.127003	99
Es	0.751892	-1.244582	0.392020	99
Es	-0.682600	0.067134	-0.498316	99
Es	0.056020	0.060515	-0.506730	99
Es	0.096324	-1.634169	1.563961	99
Es	0.362182	1.233802	1.030691	99
Es	1.981304	0.075596	0.584448	99
Es	0.460625	-1.502622	1.184448	99
Es	0.765792	1.024023	0.443153	99
Es	1.486085	-0.370974	0.712999	99
Es	1.398742	0.422553	0.704661	99
Es	1.839058	0.064054	1.108407	99
Es	0.356680	-0.596379	-0.119815	99
Es	0.917685	-1.302599	0.444079	99
Es	0.332568	0.084603	-1.175792	99
Es	-1.680059	0.719477	-0.825234	99
Es	1.680873	-1.989571	-0.201283	99
Es	1.612314	-2.101484	-0.435859	99
Es	-1.722386	0.072911	0.178375	99
Es	-0.010666	-1.671829	1.285135	99
Es	1.786487	0.072630	0.820133	99
Es	0.369073	0.574516	-0.046589	99
Es	0.898705	-1.165561	0.307751	99
Es	0.852606	-1.122811	0.501028	99
Es	0.029536	-1.332417	1.635123	99
Es	-1.718785	-0.472330	-0.891941	99
Es	0.219640	-1.847500	1.655618	99
Es	1.541571	-2.370483	-0.443928	99
45
Properties=species:S:1:pos:R:3:Z:I:1 energy=-739.2859373674266 field_type=dipole dipole="0.000000 0.000000 0.000000" charge=0
C	-1.456546	0.096824	-0.506902	6
C	0.055994	0.060584	-0.506822	6
C	0.765624	1.024244	0.443128	6
O	1.786783	0.072664	0.820248	8
S	0.855144	-1.208956	0.411158	16
O	0.096143	-1.634286	1.564228	8
O	1.612514	-2.101686	-0.436062	8
H	-1.861636	-0.748456	-1.072292	1
H	-1.818156	1.017484	-0.976102	1
H	-1.867706	0.053804	0.506838	1
H	0.451324	0.110704	-1.528992	1
H	0.186684	1.346794	1.316888	1
H	1.193834	1.910284	-0.035312	1
Es	0.056016	0.060517	-0.506732	99
Es	-1.679938	0.718986	-0.825002	99
Es	1.786481	0.072629	0.820149	99
Es	1.485815	-0.371824	0.715080	99
Es	0.880421	-1.097283	0.454231	99
Es	1.426767	-1.808571	-0.018794	99
Es	-0.682654	0.067148	-0.498291	99
Es	0.741752	-1.242117	0.436611	99
Es	0.369418	0.574444	-0.046377	99
Es	-1.456457	0.096829	-0.506917	99
Es	0.332698	0.084478	-1.175712	99
Es	0.014062	-1.636705	1.269430	99
Es	0.096325	-1.634139	1.563948	99
Es	1.988049	0.076221	0.586494	99
Es	0.024581	-1.341188	1.654461	99
Es	-1.722573	0.073242	0.178362	99
Es	0.181485	-1.873173	1.627671	99
Es	0.855035	-1.208869	0.411158	99
Es	1.675267	-2.353445	-0.341405	99
Es	0.361979	1.233650	1.030808	99
Es	0.913947	-1.272152	0.463745	99
Es	1.833131	0.063629	1.102931	99
Es	-1.718970	-0.472403	-0.892115	99
Es	0.884881	-1.224060	0.290257	99
Es	1.612231	-2.101513	-0.435782	99
Es	1.314949	-2.028396	-0.432697	99
Es	0.765794	1.024019	0.443153	99
Es	1.057242	1.614285	0.114324	99
Es	0.478997	-1.503375	1.208720	99
Es	1.702942	-1.844167	-0.585149	99
Es	1.397991	0.423404	0.705809	99
Es	0.356900	-0.595977	-0.119908	99
45
Properties=species:S:1:pos:R:3:Z:I:1 energy=-739.2859373674266 field_type=dipole dipole="0.000000 0.000000 0.000000" charge=0
C	-1.456546	0.096824	-0.506902	6
C	0.055994	0.060584	-0.506822	6
C	0.765624	1.024244	0.443128	6
O	1.786783	0.072664	0.820248	8
S	0.855144	-1.208956	0.411158	16
O	0.096143	-1.634286	1.564228	8
O	1.612514	-2.101686	-0.436062	8
H	-1.861636	-0.748456	-1.072292	1
H	-1.818156	1.017484	-0.976102	1
H	-1.867706	0.053804	0.506838	1
H	0.451324	0.110704	-1.528992	1
H	0.186684	1.346794	1.316888	1
H	1.193834	1.910284	-0.035312	1
Es	0.369793	0.574029	-0.046746	99
Es	1.836836	0.063786	1.100404	99
Es	0.790912	-1.183061	0.331273	99
Es	1.786440	0.072626	0.820077	99
Es	1.693526	-2.347465	-0.337622	99
Es	0.357152	-0.596173	-0.119703	99
Es	1.986140	0.072860	0.583032	99
Es	1.056915	1.614290	0.114042	99
Es	0.056017	0.060517	-0.506731	99
Es	-0.012613	-1.342384	1.625611	99
Es	-1.722755	0.072732	0.178112	99
Es	0.865781	-1.329004	0.408672	99
Es	0.958602	-1.159020	0.385744	99
Es	-1.456456	0.096829	-0.506917	99
Es	0.765795	1.024020	0.443154	99
Es	0.805387	-1.164436	0.519071	99
Es	0.855360	-1.208951	0.411209	99
Es	1.397867	0.424870	0.707603	99
Es	1.416180	-1.808342	-0.021480	99
Es	1.612349	-2.101500	-0.435882	99
Es	0.356156	-1.628891	1.568181	99
Es	1.691259	-1.837944	-0.586685	99
Es	-1.680830	0.719161	-0.825511	99
Es	-1.718776	-0.471612	-0.891078	99
Es	0.361693	1.233590	1.030635	99
Es	-0.682613	0.067222	-0.498383	99
Es	0.006603	-1.879512	1.471878	99
Es	0.096313	-1.634178	1.563949	99
Es	0.349013	-1.503464	1.094691	99
Es	1.318954	-2.040825	-0.432127	99
Es	1.484584	-0.370520	0.719380	99
Es	0.332982	0.084871	-1.175392	99
45
Properties=species:S:1:pos:R:3:Z:I:1 energy=-739.2859373674266 field_type=dipole dipole="0.000000 0.000000 0.000000" charge=0
C	-1.456546	0.096824	-0.506902	6
C	0.055994	0.060584	-0.506822	6
C	0.765624	1.024244	0.443128	6
O	1.786783	0.072664	0.820248	8
S	0.855144	-1.208956	0.411158	16
O	0.096143	-1.634286	1.564228	8
O	1.612514	-2.101686	-0.436062	8
H	-1.861636	-0.748456	-1.072292	1
H	-1.818156	1.017484	-0.976102	1
H	-1.867706	0.053804	0.506838	1
H	0.451324	0.110704	-1.528992	1
H	0.186684	1.346794	1.316888	1
H	1.193834	1.910284	-0.035312	1
Es	0.847304	-1.149121	0.521348	99
Es	1.709470	-1.848891	-0.586368	99
Es	-0.682696	0.067225	-0.498329	99
Es	0.854921	-1.208966	0.411005	99
Es	0.096322	-1.634178	1.563972	99
Es	0.765796	1.024022	0.443152	99
Es	1.397433	0.423167	0.709517	99
Es	0.019121	-1.630578	1.278227	99
Es	0.905025	-1.310528	0.424427	99
Es	1.786575	0.072670	0.820157	99
Es	-1.456456	0.096827	-0.506915	99
Es	0.332766	0.084176	-1.175654	99
Es	-1.722603	0.073494	0.178341	99
Es	1.666548	-2.354844	-0.339158	99
Es	1.319973	-2.024934	-0.432900	99
Es	0.356805	-0.595695	-0.120040	99
Es	0.755088	-1.230791	0.376109	99
Es	1.057215	1.614048	0.114447	99
Es	0.913706	-1.145081	0.323091	99
Es	1.612251	-2.101436	-0.435677	99
Es	1.423954	-1.805993	-0.019707	99
Es	1.987727	0.078438	0.585656	99
Es	-1.719200	-0.472471	-0.892226	99
Es	0.476153	-1.502740	1.201186	99
Es	0.179649	-1.876120	1.616681	99
Es	0.369572	0.574582	-0.046525	99
Es	-1.679889	0.718618	-0.824780	99
Es	0.056018	0.060517	-0.506731	99
Es	1.833749	0.061696	1.101598	99
Es	0.024193	-1.344869	1.664162	99
Es	1.486059	-0.371975	0.713529	99
Es	0.362014	1.233853	1.030862	99
45
Properties=species:S:1:pos:R:3:Z:I:1 energy=-739.2859373674266 field_type=dipole dipole="0.000000 0.000000 0.000000" charge=0
C	-1.456546	0.096824	-0.506902	6
C	0.055994	0.060584	-0.506822	6
C	0.765624	1.024244	0.443128	6
O	1.786783	0.072664	0.820248	8
S	0.855144	-1.208956	0.411158	16
O	0.096143	-1.634286	1.564228	8
O	1.612514	-2.101686	-0.436062	8
H	-1.861636	-0.748456	-1.072292	1
H	-1.818156	1.017484	-0.976102	1
H	-1.867706	0.053804	0.506838	1
H	0.451324	0.110704	-1.528992	1
H	0.186684	1.346794	1.316888	1
H	1.193834	1.910284	-0.035312	1
Es	1.398351	0.425118	0.705210	99
Es	0.369800	0.574017	-0.046666	99
Es	1.612316	-2.101498	-0.435807	99
Es	1.056925	1.614172	0.114105	99
Es	0.056017	0.060517	-0.506732	99
Es	0.096302	-1.634162	1.563946	99
Es	0.887572	-1.101761	0.399560	99
Es	-1.456459	0.096828	-0.506916	99
Es	0.945971	-1.283884	0.372675	99
Es	0.361689	1.233659	1.030734	99
Es	1.486122	-0.370258	0.713506	99
Es	0.855418	-1.208903	0.411291	99
Es	-1.718796	-0.471658	-0.891364	99
Es	0.015000	-1.882045	1.476892	99
Es	0.345289	-1.503591	1.092091	99
Es	1.786502	0.072606	0.820095	99
Es	0.353717	-1.623856	1.559217	99
Es	1.323669	-2.033698	-0.441741	99
Es	0.765793	1.024021	0.443153	99
Es	1.704455	-1.838126	-0.575273	99
Es	1.683976	-2.351297	-0.339724	99
Es	1.826667	0.060935	1.101185	99
Es	1.994184	0.075308	0.590458	99
Es	-1.680628	0.719197	-0.825351	99
Es	0.818272	-1.229308	0.528641	99
Es	1.407867	-1.811441	-0.021276	99
Es	-0.682724	0.067214	-0.498376	99
Es	0.333034	0.084830	-1.175465	99
Es	-0.014820	-1.344720	1.632179	99
Es	0.357026	-0.596120	-0.119805	99
Es	0.768800	-1.220664	0.343806	99
Es	-1.722741	0.072692	0.178209	99
45
Properties=species:S:1:pos:R:3:Z:I:1 energy=-739.2859373674266 field_type=dipole dipole="0.000000 0.000000 0.000000" charge=0
C	-1.456546	0.096824	-0.506902	6
C	0.055994	0.060584	-0.506822	6
C	0.765624	1.024244	0.443128	6
O	1.786783	0.072664	0.820248	8
S	0.855144	-1.208956	0.411158	16
O	0.096143	-1.634286	1.564228	8
O	1.612514	-2.101686	-0.436062	8
H	-1.861636	-0.748456	-1.072292	1
H	-1.818156	1.017484	-0.976102	1
H	-1.867706	0.053804	0.506838	1
H	0.451324	0.110704	-1.528992	1
H	0.186684	1.346794	1.316888	1
H	1.193834	1.910284	-0.035312	1
Es	0.096273	-1.634230	1.564066	99
Es	-1.718665	-0.471436	-0.891113	99
Es	0.369915	0.573947	-0.046533	99
Es	0.003922	-1.874664	1.464706	99
Es	1.988444	0.074438	0.585235	99
Es	0.970615	-1.182502	0.410479	99
Es	0.855140	-1.208983	0.411169	99
Es	-1.456459	0.096829	-0.506917	99
Es	0.765795	1.024021	0.443153	99
Es	0.347094	-1.634255	1.567612	99
Es	1.397556	0.424765	0.707644	99
Es	1.056864	1.614122	0.113876	99
Es	-0.682775	0.067013	-0.498338	99
Es	0.820131	-1.206946	0.305277	99
Es	1.612361	-2.101488	-0.435905	99
Es	0.357047	-0.596248	-0.119683	99
Es	-1.722812	0.072683	0.178401	99
Es	0.056017	0.060517	-0.506732	99
Es	1.681967	-2.350637	-0.333788	99
Es	1.700384	-1.842774	-0.588476	99
Es	1.409993	-1.805495	-0.023726	99
Es	-0.010972	-1.341916	1.630580	99
Es	1.327559	-2.035681	-0.431938	99
Es	1.485653	-0.370079	0.716102	99
Es	1.786416	0.072604	0.820148	99
Es	1.833766	0.061887	1.101346	99
Es	0.361521	1.233697	1.030720	99
Es	0.332995	0.085001	-1.175581	99
Es	0.785993	-1.129105	0.483165	99
Es	0.359162	-1.503363	1.097363	99
Es	-1.680498	0.719368	-0.825736	99
Es	0.844164	-1.316966	0.445883	99
45
Properties=species:S:1:pos:R:3:Z:I:1 energy=-739.2859373674266 field_type=dipole dipole="0.000000 0.000000 0.000000" charge=0
C	-1.456546	0.096824	-0.506902	6
C	0.055994	0.060584	-0.506822	6
C	0.765624	1.024244	0.443128	6
O	1.786783	0.072664	0.820248	8
S	0.855144	-1.208956	0.411158	16
O	0.096143	-1.634286	1.564228	8
O	1.612514	-2.101686	-0.436062	8
H	-1.861636	-0.748456	-1.072292	1
H	-1.818156	1.017484	-0.976102	1
H	-1.867706	0.053804	0.506838	1
H	0.451324	0.110704	-1.528992	1
H	0.186684	1.346794	1.316888	1
H	1.193834	1.910284	-0.035312	1
Es	0.056019	0.060516	-0.506731	99
Es	0.344289	-1.630813	1.566878	99
Es	1.409798	-1.807205	-0.022615	99
Es	-1.680570	0.719204	-0.825347	99
Es	1.987064	0.074643	0.583701	99
Es	1.698625	-1.840590	-0.585299	99
Es	0.951849	-1.209202	0.453053	99
Es	1.835690	0.062334	1.100415	99
Es	1.786366	0.072597	0.820222	99
Es	-1.456457	0.096832	-0.506918	99
Es	0.765795	1.024020	0.443153	99
Es	-1.722860	0.072570	0.178282	99
Es	0.796566	-1.107203	0.453156	99
Es	1.612351	-2.101502	-0.435891	99
Es	-0.020782	-1.348117	1.633653	99
Es	0.357067	-0.596181	-0.119716	99
Es	-0.682716	0.067329	-0.498266	99
Es	0.369958	0.574016	-0.046596	99
Es	1.325320	-2.037394	-0.434302	99
Es	0.804702	-1.305286	0.451522	99
Es	1.686190	-2.349356	-0.335731	99
Es	0.855169	-1.208943	0.411173	99
Es	0.013503	-1.877526	1.459747	99
Es	0.361547	1.233604	1.030726	99
Es	0.332961	0.084920	-1.175521	99
Es	0.096286	-1.634199	1.564011	99
Es	1.056951	1.614208	0.113979	99
Es	-1.718677	-0.471535	-0.891465	99
Es	1.397209	0.424534	0.708861	99
Es	1.485433	-0.370464	0.717237	99
Es	0.867775	-1.213877	0.287098	99
Es	0.362144	-1.497811	1.099990	99
45
Properties=species:S:1:pos:R:3:Z:I:1 energy=-739.2859373674266 field_type=dipole dipole="0.000000 0.000000 0.000000" charge=0
C	-1.456546	0.096824	-0.506902	6
C	0.055994	0.060584	-0.506822	6
C	0.765624	1.024244	0.443128	6
O	1.786783	0.072664	0.820248	8
S	0.855144	-1.208956	0.411158	16
O	0.096143	-1.634286	1.564228	8
O	1.612514	-2.101686	-0.436062	8
H	-1.861636	-0.748456	-1.072292	1
H	-1.818156	1.017484	-0.976102	1
H	-1.867706	0.053804	0.506838	1
H	0.451324	0.110704	-1.528992	1
H	0.186684	1.346794	1.316888	1
H	1.193834	1.910284	-0.035312	1
Es	0.056016	0.060518	-0.506732	99
Es	0.014488	-1.633966	1.278002	99
Es	0.022036	-1.351269	1.673102	99
Es	0.332793	0.084186	-1.175858	99
Es	1.612372	-2.101399	-0.435674	99
Es	1.833438	0.063558	1.101982	99
Es	0.911031	-1.253378	0.469486	99
Es	0.855190	-1.208976	0.411188	99
Es	1.484799	-0.371626	0.715979	99
Es	0.472915	-1.495879	1.199391	99
Es	0.369602	0.574553	-0.046389	99
Es	1.398380	0.422998	0.707218	99
Es	-1.456458	0.096829	-0.506917	99
Es	0.356722	-0.595625	-0.119970	99
Es	1.057257	1.613992	0.114350	99
Es	1.666805	-2.360223	-0.351374	99
Es	1.705543	-1.841067	-0.579992	99
Es	0.189699	-1.873196	1.609811	99
Es	-1.679647	0.718469	-0.824888	99
Es	1.786594	0.072617	0.820181	99
Es	0.787381	-1.292451	0.375597	99
Es	-1.722762	0.073593	0.178597	99
Es	1.330467	-2.020643	-0.430163	99
Es	1.988236	0.076418	0.585064	99
Es	0.791836	-1.122758	0.482849	99
Es	0.930582	-1.166983	0.316836	99
Es	0.096314	-1.634192	1.563951	99
Es	-1.719116	-0.472334	-0.892294	99
Es	-0.682700	0.067154	-0.498293	99
Es	0.765793	1.024025	0.443153	99
Es	1.417034	-1.812715	-0.016648	99
Es	0.361927	1.233892	1.030913	99
45
Properties=species:S:1:pos:R:3:Z:I:1 energy=-739.2859373674266 field_type=dipole dipole="0.000000 0.000000 0.000000" charge=0
C	-1.456546	0.096824	-0.506902	6
C	0.055994	0.060584	-0.506822	6
C	0.765624	1.024244	0.443128	6
O	1.786783	0.072664	0.820248	8
S	0.855144	-1.208956	0.411158	16
O	0.096143	-1.634286	1.564228	8
O	1.612514	-2.101686	-0.436062	8
H	-1.861636	-0.748456	-1.072292	1
H	-1.818156	1.017484	-0.976102	1
H	-1.867706	0.053804	0.506838	1
H	0.451324	0.110704	-1.528992	1
H	0.186684	1.346794	1.316888	1
H	1.193834	1.910284	-0.035312	1
Es	1.688346	-1.841962	-0.593151	99
Es	1.693706	-2.346789	-0.333688	99
Es	0.342787	-1.633338	1.561008	99
Es	0.056018	0.060517	-0.506732	99
Es	0.332965	0.085032	-1.175624	99
Es	1.485433	-0.370088	0.717556	99
Es	0.777645	-1.213334	0.352230	99
Es	0.361404	1.233652	1.030746	99
Es	1.612342	-2.101460	-0.435733	99
Es	1.056890	1.614117	0.113855	99
Es	1.990115	0.074866	0.584424	99
Es	-0.014212	-1.347387	1.640678	99
Es	0.369992	0.574130	-0.046428	99
Es	0.834400	-1.111700	0.488564	99
Es	-1.456458	0.096828	-0.506915	99
Es	1.318144	-2.042407	-0.427791	99
Es	0.360219	-1.497058	1.098920	99
Es	0.958153	-1.202191	0.335915	99
Es	0.010386	-1.876468	1.459678	99
Es	-1.680518	0.719199	-0.825687	99
Es	0.357103	-0.596225	-0.119695	99
Es	1.832871	0.061207	1.098012	99
Es	-1.722948	0.072711	0.178390	99
Es	0.765794	1.024022	0.443153	99
Es	-0.682641	0.067066	-0.498270	99
Es	1.419742	-1.803464	-0.023446	99
Es	1.786524	0.072624	0.820130	99
Es	0.854970	-1.209135	0.411052	99
Es	0.096284	-1.634202	1.564017	99
Es	1.396835	0.424941	0.710262	99
Es	0.850885	-1.308150	0.468209	99
Es	-1.718606	-0.471431	-0.891180	99
45
Properties=species:S:1:pos:R:3:Z:I:1 energy=-739.2859373674266 field_type=dipole dipole="0.000000 0.000000 0.000000" charge=0
C	-1.456546	0.096824	-0.506902	6
C	0.055994	0.060584	-0.506822	6
C	0.765624	1.024244	0.443128	6
O	1.786783	0.072664	0.820248	8
S	0.855144	-1.208956	0.411158	16
O	0.096143	-1.634286	1.564228	8
O	1.612514	-2.101686	-0.436062	8
H	-1.861636	-0.748456	-1.072292	1
H	-1.818156	1.017484	-0.976102	1
H	-1.867706	0.053804	0.506838	1
H	0.451324	0.110704	-1.528992	1
H	0.186684	1.346794	1.316888	1
H	1.193834	1.910284	-0.035312	1
Es	1.573587	-2.379222	-0.414639	99
Es	-0.009543	-1.352378	1.650747	99
Es	0.369296	0.574416	-0.046701	99
Es	0.361826	1.233791	1.030737	99
Es	-1.680278	0.719784	-0.825657	99
Es	1.399042	0.424255	0.703151	99
Es	-0.682674	0.067039	-0.498246	99
Es	1.836803	0.063352	1.107686	99
Es	1.786451	0.072602	0.820109	99
Es	0.854945	-1.209592	0.411156	99
Es	-1.722475	0.072446	0.178625	99
Es	0.765792	1.024022	0.443153	99
Es	-1.718392	-0.471841	-0.891569	99
Es	1.652315	-1.973849	-0.230439	99
Es	-0.007346	-1.846043	1.421752	99
Es	1.485492	-0.368948	0.714737	99
Es	0.815758	-1.130075	0.339500	99
Es	-1.456457	0.096829	-0.506917	99
Es	0.356828	-0.596630	-0.119583	99
Es	0.332504	0.084967	-1.175949	99
Es	0.933404	-1.160594	0.465605	99
Es	0.905996	-1.301980	0.347274	99
Es	1.983984	0.072403	0.584921	99
Es	1.640093	-1.843037	-0.620841	99
Es	1.056863	1.614057	0.114282	99
Es	0.354851	-1.484337	1.102998	99
Es	1.612359	-2.101508	-0.435894	99
Es	0.056015	0.060519	-0.506733	99
Es	0.765993	-1.242234	0.492470	99
Es	0.096261	-1.634215	1.564043	99
Es	1.253946	-1.838375	-0.112116	99
Es	0.361325	-1.671501	1.584799	99
45
Properties=species:S:1:pos:R:3:Z:I:1 energy=-739.2859373674266 field_type=dipole dipole="0.000000 0.000000 0.000000" charge=0
C	-1.456546	0.096824	-0.506902	6
C	0.055994	0.060584	-0.506822	6
C	0.765624	1.024244	0.443128	6
O	1.786783	0.072664	0.820248	8
S	0.855144	-1.208956	0.411158	16
O	0.096143	-1.634286	1.564228	8
O	1.612514	-2.101686	-0.436062	8
H	-1.861636	-0.748456	-1.072292	1
H	-1.818156	1.017484	-0.976102	1
H	-1.867706	0.053804	0.506838	1
H	0.451324	0.110704	-1.528992	1
H	0.186684	1.346794	1.316888	1
H	1.193834	1.910284	-0.035312	1
Es	0.056016	0.060518	-0.506731	99
Es	1.612345	-2.101482	-0.435864	99
Es	0.767751	-1.189748	0.507815	99
Es	1.786622	0.072579	0.820177	99
Es	-1.718661	-0.471565	-0.891402	99
Es	0.857579	-1.208892	0.412950	99
Es	0.765794	1.024021	0.443153	99
Es	0.887823	-1.112722	0.340972	99
Es	0.096315	-1.634057	1.563899	99
Es	-0.023529	-1.353718	1.641353	99
Es	1.056961	1.614115	0.113890	99
Es	0.364392	-1.488889	1.104385	99
Es	1.397955	0.424837	0.708804	99
Es	1.692971	-2.346188	-0.333639	99
Es	0.332978	0.084848	-1.175648	99
Es	-1.722920	0.072763	0.178402	99
Es	-1.680454	0.719075	-0.825491	99
Es	1.831739	0.061012	1.100155	99
Es	1.485141	-0.370117	0.715458	99
Es	0.369892	0.574025	-0.046406	99
Es	0.357039	-0.596023	-0.119746	99
Es	1.318286	-2.042376	-0.429501	99
Es	-0.682663	0.067214	-0.498272	99
Es	1.418393	-1.804126	-0.022916	99
Es	1.690215	-1.841955	-0.591900	99
Es	0.011500	-1.870357	1.441454	99
Es	1.990280	0.075364	0.585823	99
Es	0.884183	-1.326513	0.365712	99
Es	-1.456459	0.096828	-0.506916	99
Es	0.878686	-1.206674	0.428500	99
Es	0.346794	-1.641402	1.573215	99
Es	0.361599	1.233727	1.030774	99
45
Properties=species:S:1:pos:R:3:Z:I:1 energy=-739.2859373674266 field_type=dipole dipole="0.000000 0.000000 0.000000" charge=0
C	-1.456546	0.096824	-0.506902	6
C	0.055994	0.060584	-0.506822	6
C	0.765624	1.024244	0.443128	6
O	1.786783	0.072664	0.820248	8
S	0.855144	-1.208956	0.411158	16
O	0.096143	-1.634286	1.564228	8
O	1.612514	-2.101686	-0.436062	8
H	-1.861636	-0.748456	-1.072292	1
H	-1.818156	1.017484	-0.976102	1
H	-1.867706	0.053804	0.506838	1
H	0.451324	0.110704	-1.528992	1
H	0.186684	1.346794	1.316888	1
H	1.193834	1.910284	-0.035312	1
Es	0.839530	-1.309869	0.460894	99
Es	0.361939	1.233948	1.031053	99
Es	1.057333	1.613855	0.114506	99
Es	0.369626	0.574326	-0.046452	99
Es	0.956807	-1.178897	0.437967	99
Es	0.356525	-0.595289	-0.120085	99
Es	-1.456459	0.096828	-0.506915	99
Es	1.418877	-1.811828	-0.016515	99
Es	1.832771	0.061530	1.100048	99
Es	0.850678	-1.222743	0.289521	99
Es	-1.719162	-0.472233	-0.892578	99
Es	1.397691	0.423908	0.709957	99
Es	1.328815	-2.020795	-0.430086	99
Es	1.664686	-2.358712	-0.348990	99
Es	1.612334	-2.101496	-0.435856	99
Es	0.056015	0.060515	-0.506730	99
Es	1.485003	-0.371237	0.715163	99
Es	0.333021	0.084009	-1.176015	99
Es	0.024762	-1.620471	1.285764	99
Es	0.773906	-1.124070	0.456354	99
Es	0.096309	-1.634208	1.563912	99
Es	1.786648	0.072615	0.820209	99
Es	0.171244	-1.880143	1.603947	99
Es	0.027802	-1.348346	1.674615	99
Es	-1.723033	0.073796	0.178781	99
Es	1.989268	0.077318	0.584972	99
Es	-0.682608	0.067364	-0.498353	99
Es	0.855145	-1.208941	0.411254	99
Es	0.765791	1.024021	0.443155	99
Es	1.707491	-1.843205	-0.582454	99
Es	-1.679508	0.717834	-0.824626	99
Es	0.475318	-1.505260	1.196041	99
45
Properties=species:S:1:pos:R:3:Z:I:1 energy=-739.2859373674266 field_type=dipole dipole="0.000000 0.000000 0.000000" charge=0
C	-1.456546	0.096824	-0.506902	6
C	0.055994	0.060584	-0.506822	6
C	0.765624	1.024244	0.443128	6
O	1.786783	0.072664	0.820248	8
S	0.855144	-1.208956	0.411158	16
O	0.096143	-1.634286	1.564228	8
O	1.612514	-2.101686	-0.436062	8
H	-1.861636	-0.748456	-1.072292	1
H	-1.818156	1.017484	-0.976102	1
H	-1.867706	0.053804	0.506838	1
H	0.451324	0.110704	-1.528992	1
H	0.186684	1.346794	1.316888	1
H	1.193834	1.910284	-0.035312	1
Es	1.786517	0.072612	0.820152	99
Es	0.361488	1.233837	1.030876	99
Es	0.932681	-1.139892	0.443371	99
Es	0.334458	-1.621563	1.554778	99
Es	0.056017	0.060519	-0.506731	99
Es	0.855061	-1.208985	0.411155	99
Es	-1.680335	0.718647	-0.825373	99
Es	1.691799	-2.351403	-0.343945	99
Es	1.989954	0.074069	0.583908	99
Es	0.013240	-1.883258	1.480669	99
Es	0.364349	-1.509639	1.096867	99
Es	0.370043	0.574001	-0.046632	99
Es	0.765789	1.024025	0.443153	99
Es	0.356951	-0.595986	-0.119729	99
Es	1.056958	1.613905	0.113964	99
Es	-1.718774	-0.471396	-0.891484	99
Es	1.689482	-1.837298	-0.583855	99
Es	1.397613	0.424015	0.707828	99
Es	1.414627	-1.809066	-0.019949	99
Es	-0.682618	0.067324	-0.498385	99
Es	1.612313	-2.101457	-0.435807	99
Es	1.484965	-0.369401	0.717732	99
Es	0.743995	-1.171634	0.458733	99
Es	1.832694	0.062341	1.100749	99
Es	0.884385	-1.305457	0.455409	99
Es	-1.456458	0.096828	-0.506916	99
Es	0.859957	-1.218527	0.287329	99
Es	-0.012910	-1.339735	1.628046	99
Es	0.096304	-1.634184	1.563969	99
Es	-1.723146	0.072946	0.178509	99
Es	1.324050	-2.036831	-0.430310	99
Es	0.333116	0.084769	-1.175622	99
45
Properties=species:S:1:pos:R:3:Z:I:1 energy=-739.2859373674266 field_type=dipole dipole="0.000000 0.000000 0.000000" charge=0
C	-1.456546	0.096824	-0.506902	6
C	0.055994	0.060584	-0.506822	6
C	0.765624	1.024244	0.443128	6
O	1.786783	0.072664	0.820248	8
S	0.855144	-1.208956	0.411158	16
O	0.096143	-1.634286	1.564228	8
O	1.612514	-2.101686	-0.436062	8
H	-1.861636	-0.748456	-1.072292	1
H	-1.818156	1.017484	-0.976102	1
H	-1.867706	0.053804	0.506838	1
H	0.451324	0.110704	-1.528992	1
H	0.186684	1.346794	1.316888	1
H	1.193834	1.910284	-0.035312	1
Es	1.675721	-2.357696	-0.353187	99
Es	0.855192	-1.208942	0.411189	99
Es	1.786420	0.072625	0.820129	99
Es	1.830551	0.061078	1.100969	99
Es	1.612329	-2.101493	-0.435801	99
Es	0.026234	-1.353090	1.680540	99
Es	0.096285	-1.634195	1.563999	99
Es	0.471644	-1.498740	1.194279	99
Es	-1.719114	-0.472344	-0.892492	99
Es	1.698731	-1.837797	-0.579702	99
Es	0.916685	-1.290098	0.333394	99
Es	0.926499	-1.137866	0.458686	99
Es	-1.722859	0.073702	0.178731	99
Es	1.057322	1.613993	0.114449	99
Es	0.361922	1.233827	1.031030	99
Es	1.327445	-2.024890	-0.429748	99
Es	-1.679557	0.718151	-0.824736	99
Es	0.332913	0.084061	-1.175951	99
Es	0.800710	-1.149611	0.354201	99
Es	1.991097	0.078506	0.586806	99
Es	0.356640	-0.595390	-0.120046	99
Es	-1.456454	0.096826	-0.506915	99
Es	0.022714	-1.621741	1.286493	99
Es	0.056018	0.060517	-0.506731	99
Es	0.776952	-1.257979	0.498496	99
Es	1.417954	-1.814201	-0.015430	99
Es	0.765794	1.024021	0.443153	99
Es	0.178571	-1.880709	1.598965	99
Es	-0.682697	0.067247	-0.498354	99
Es	0.369605	0.574466	-0.046393	99
Es	1.485291	-0.371365	0.713265	99
Es	1.398009	0.423250	0.709172	99
45
Properties=species:S:1:pos:R:3:Z:I:1 energy=-739.2859373674266 field_type=dipole dipole="0.000000 0.000000 0.000000" charge=0
C	-1.456546	0.096824	-0.506902	6
C	0.055994	0.060584	-0.506822	6
C	0.765624	1.024244	0.443128	6
O	1.786783	0.072664	0.820248	8
S	0.855144	-1.208956	0.411158	16
O	0.096143	-1.634286	1.564228	8
O	1.612514	-2.101686	-0.436062	8
H	-1.861636	-0.748456	-1.072292	1
H	-1.818156	1.017484	-0.976102	1
H	-1.867706	0.053804	0.506838	1