44
Properties=species:S:1:pos:R:3:Z:I:1 energy=-645.4772635491416 field_type=dipole dipole="0.000000 0.000000 0.000000" charge=0
C	-1.728167	0.540759	-0.005681	6
C	-0.236027	0.552759	0.000999	6
C	0.530533	1.705128	0.004049	6
S	2.211073	1.389338	0.012429	16
C	1.941823	-0.298491	0.012359	6
C	0.602383	-0.604742	0.005579	6
N	0.144543	-1.869511	0.003969	7
H	-2.136927	1.556418	0.002789	1
H	-2.109897	0.016519	0.876299	1
H	-2.101397	0.034369	-0.901611	1
H	0.182283	2.728868	0.001889	1
H	2.782473	-0.976891	0.017349	1
H	-0.843137	-2.098442	-0.019761	1
H	0.760433	-2.676081	-0.010651	1
Es	2.192884	1.272657	0.012106	99
Es	2.283218	1.416103	0.100567	99
Es	-1.728112	0.540747	-0.005682	99
Es	0.144674	-1.869137	0.002882	99
Es	-1.998318	1.228156	-0.000087	99
Es	-0.978290	0.540731	-0.002422	99
Es	-1.972355	0.192852	-0.610322	99
Es	-1.978196	0.180812	0.589416	99
Es	0.165093	1.083922	0.316407	99
Es	0.172405	-1.785206	0.174013	99
Es	0.301783	2.392349	0.002571	99
Es	-0.444564	-1.994209	-0.041802	99
Es	1.941897	-0.298340	0.012376	99
Es	-0.236065	0.552719	0.001007	99
Es	2.507871	-0.753549	0.015487	99
Es	0.530716	1.705172	0.004042	99
Es	1.331475	-0.384431	-0.304364	99
Es	1.328503	-0.385355	0.323211	99
Es	0.518615	-2.341424	-0.034338	99
Es	2.258552	1.422516	-0.091680	99
Es	2.211218	1.389340	0.012503	99
Es	2.107253	1.444802	0.028710	99
Es	2.101872	0.507071	0.013194	99
Es	0.602277	-0.604897	0.005579	99
Es	0.333961	-1.336945	-0.093522	99
Es	0.168239	1.083190	-0.311145	99
Es	2.323245	1.508647	-0.417937	99
Es	2.322672	1.511698	0.442495	99
Es	0.142049	-0.064261	0.002925	99
Es	1.340015	1.581879	0.008769	99
44
Properties=species:S:1:pos:R:3:Z:I:1 energy=-645.4772635491416 field_type=dipole dipole="0.000000 0.000000 0.000000" charge=0
C	-1.728167	0.540759	-0.005681	6
C	-0.236027	0.552759	0.000999	6
C	0.530533	1.705128	0.004049	6
S	2.211073	1.389338	0.012429	16
C	1.941823	-0.298491	0.012359	6
C	0.602383	-0.604742	0.005579	6
N	0.144543	-1.869511	0.003969	7
H	-2.136927	1.556418	0.002789	1
H	-2.109897	0.016519	0.876299	1
H	-2.101397	0.034369	-0.901611	1
H	0.182283	2.728868	0.001889	1
H	2.782473	-0.976891	0.017349	1
H	-0.843137	-2.098442	-0.019761	1
H	0.760433	-2.676081	-0.010651	1
Es	2.250230	1.388104	-0.095961	99
Es	2.107805	0.505184	0.030540	99
Es	-0.450837	-1.996768	-0.010172	99
Es	-1.999023	1.227231	-0.000945	99
Es	2.093914	1.336401	0.025140	99
Es	2.595411	1.665723	0.178544	99
Es	-1.979816	0.179964	0.589144	99
Es	0.164715	1.081580	0.313592	99
Es	0.530718	1.705173	0.004049	99
Es	-0.236070	0.552715	0.001007	99
Es	1.341262	1.589317	0.048877	99
Es	-0.977516	0.540080	-0.001189	99
Es	0.168538	-1.800616	0.068366	99
Es	0.169642	1.079797	-0.312012	99
Es	0.143373	-0.063408	0.008084	99
Es	2.217799	1.499998	0.056223	99
Es	0.301635	2.391377	0.001815	99
Es	2.045080	1.356049	-0.214890	99
Es	2.506518	-0.753507	0.013767	99
Es	0.341053	-1.317909	-0.037442	99
Es	1.327095	-0.388241	0.322030	99
Es	1.332670	-0.381637	-0.304074	99
Es	-1.971940	0.194489	-0.608437	99
Es	0.602277	-0.604895	0.005582	99
Es	-1.728112	0.540748	-0.005682	99
Es	1.941902	-0.298337	0.012369	99
Es	2.280073	1.331106	0.067569	99
Es	0.520645	-2.342712	-0.015457	99
Es	0.144657	-1.869165	0.002724	99
Es	2.210892	1.389765	0.011799	99
44
Properties=species:S:1:pos:R:3:Z:I:1 energy=-645.4772635491416 field_type=dipole dipole="0.000000 0.000000 0.000000" charge=0
C	-1.728167	0.540759	-0.005681	6
C	-0.236027	0.552759	0.000999	6
C	0.530533	1.705128	0.004049	6
S	2.211073	1.389338	0.012429	16
C	1.941823	-0.298491	0.012359	6
C	0.602383	-0.604742	0.005579	6
N	0.144543	-1.869511	0.003969	7
H	-2.136927	1.556418	0.002789	1
H	-2.109897	0.016519	0.876299	1
H	-2.101397	0.034369	-0.901611	1
H	0.182283	2.728868	0.001889	1
H	2.782473	-0.976891	0.017349	1
H	-0.843137	-2.098442	-0.019761	1
H	0.760433	-2.676081	-0.010651	1
Es	0.302135	2.390900	0.002510	99
Es	0.602275	-0.604898	0.005581	99
Es	-1.728112	0.540748	-0.005681	99
Es	1.331285	-0.383172	-0.305442	99
Es	-1.979173	0.181073	0.589349	99
Es	1.326312	-0.386655	0.323834	99
Es	0.520270	-2.341778	-0.014952	99
Es	0.167494	-1.802277	0.059781	99
Es	2.231461	1.363275	0.111899	99
Es	2.211224	1.389003	0.012364	99
Es	-0.236071	0.552716	0.001002	99
Es	-1.998421	1.226163	-0.000181	99
Es	2.087407	1.360564	-0.014419	99
Es	-0.977577	0.540122	-0.002199	99
Es	0.144547	-1.869494	0.003871	99
Es	0.143477	-0.063567	0.003859	99
Es	2.108868	0.503125	0.016890	99
Es	0.530716	1.705170	0.004058	99
Es	0.166513	1.080189	0.316826	99
Es	2.505635	-0.752806	0.014933	99
Es	-1.973170	0.193720	-0.609822	99
Es	0.342088	-1.316162	-0.025013	99
Es	2.621133	1.682103	0.046772	99
Es	2.254413	1.506892	-0.009423	99
Es	2.023188	1.340374	-0.037496	99
Es	1.336618	1.592476	0.019881	99
Es	-0.450898	-1.997496	-0.016042	99
Es	1.941903	-0.298337	0.012357	99
Es	0.169519	1.080039	-0.312086	99
Es	2.269526	1.325599	-0.038052	99
44
Properties=species:S:1:pos:R:3:Z:I:1 energy=-645.4772635491416 field_type=dipole dipole="0.000000 0.000000 0.000000" charge=0
C	-1.728167	0.540759	-0.005681	6
C	-0.236027	0.552759	0.000999	6
C	0.530533	1.705128	0.004049	6
S	2.211073	1.389338	0.012429	16
C	1.941823	-0.298491	0.012359	6
C	0.602383	-0.604742	0.005579	6
N	0.144543	-1.869511	0.003969	7
H	-2.136927	1.556418	0.002789	1
H	-2.109897	0.016519	0.876299	1
H	-2.101397	0.034369	-0.901611	1
H	0.182283	2.728868	0.001889	1
H	2.782473	-0.976891	0.017349	1
H	-0.843137	-2.098442	-0.019761	1
H	0.760433	-2.676081	-0.010651	1
Es	-1.973639	0.193291	-0.609804	99
Es	2.211113	1.388987	0.012118	99
Es	2.108790	0.503607	0.010660	99
Es	0.169906	1.079380	-0.311526	99
Es	0.166768	-1.803492	0.031510	99
Es	2.252772	1.328271	-0.062085	99
Es	-1.728112	0.540748	-0.005681	99
Es	2.622404	1.683015	0.006428	99
Es	0.520010	-2.341361	-0.009668	99
Es	1.941908	-0.298333	0.012375	99
Es	1.329452	-0.384937	-0.305635	99
Es	2.505002	-0.752637	0.015719	99
Es	-0.977295	0.539979	-0.002496	99
Es	-1.998560	1.225572	-0.000195	99
Es	-0.236071	0.552716	0.000998	99
Es	2.083977	1.365858	0.013202	99
Es	0.144024	-0.063388	0.002696	99
Es	0.530720	1.705173	0.004045	99
Es	-0.451286	-1.998247	-0.013390	99
Es	0.167266	1.079300	0.317113	99
Es	2.025430	1.341421	0.031043	99
Es	0.343014	-1.314655	-0.004740	99
Es	2.255739	1.352259	0.101031	99
Es	2.248436	1.509224	-0.007066	99
Es	0.144548	-1.869485	0.003722	99
Es	0.302075	2.390537	0.002771	99
Es	1.336926	1.592304	0.003289	99
Es	1.326161	-0.384417	0.323957	99
Es	-1.979163	0.181822	0.588990	99
Es	0.602274	-0.604900	0.005580	99
44
Properties=species:S:1:pos:R:3:Z:I:1 energy=-645.4772635491416 field_type=dipole dipole="0.000000 0.000000 0.000000" charge=0
C	-1.728167	0.540759	-0.005681	6
C	-0.236027	0.552759	0.000999	6
C	0.530533	1.705128	0.004049	6
S	2.211073	1.389338	0.012429	16
C	1.941823	-0.298491	0.012359	6
C	0.602383	-0.604742	0.005579	6
N	0.144543	-1.869511	0.003969	7
H	-2.136927	1.556418	0.002789	1
H	-2.109897	0.016519	0.876299	1
H	-2.101397	0.034369	-0.901611	1
H	0.182283	2.728868	0.001889	1
H	2.782473	-0.976891	0.017349	1
H	-0.843137	-2.098442	-0.019761	1
H	0.760433	-2.676081	-0.010651	1
Es	0.602273	-0.604900	0.005579	99
Es	-1.979354	0.181530	0.588507	99
Es	-0.976948	0.539895	-0.002287	99
Es	2.276186	1.312782	-0.004743	99
Es	0.167382	1.078954	0.316190	99
Es	2.504736	-0.752794	0.015642	99
Es	0.144551	-1.869483	0.003690	99
Es	2.211068	1.389258	0.012505	99
Es	-1.728112	0.540748	-0.005681	99
Es	-0.451417	-1.998795	-0.011947	99
Es	0.166716	-1.803259	0.028726	99
Es	0.530718	1.705172	0.004049	99
Es	-0.236072	0.552715	0.000998	99
Es	-1.999151	1.225449	-0.000237	99
Es	0.519589	-2.340941	-0.006919	99
Es	2.622589	1.683348	0.019428	99
Es	1.325111	-0.385449	0.323127	99
Es	2.194342	1.422941	-0.081569	99
Es	-1.973451	0.193614	-0.609165	99
Es	0.170382	1.078776	-0.311110	99
Es	0.301940	2.390433	0.002501	99
Es	2.024148	1.341525	0.000706	99
Es	1.337280	1.591910	0.010058	99
Es	1.941908	-0.298333	0.012364	99
Es	1.329586	-0.383883	-0.304986	99
Es	0.144708	-0.063149	0.003312	99
Es	2.271779	1.481001	0.079101	99
Es	0.343230	-1.314850	-0.005978	99
Es	2.108525	0.504141	0.014126	99
Es	2.100348	1.339250	0.058971	99
44
Properties=species:S:1:pos:R:3:Z:I:1 energy=-645.4772635491416 field_type=dipole dipole="0.000000 0.000000 0.000000" charge=0
C	-1.728167	0.540759	-0.005681	6
C	-0.236027	0.552759	0.000999	6
C	0.530533	1.705128	0.004049	6
S	2.211073	1.389338	0.012429	16
C	1.941823	-0.298491	0.012359	6
C	0.602383	-0.604742	0.005579	6
N	0.144543	-1.869511	0.003969	7
H	-2.136927	1.556418	0.002789	1
H	-2.109897	0.016519	0.876299	1
H	-2.101397	0.034369	-0.901611	1
H	0.182283	2.728868	0.001889	1
H	2.782473	-0.976891	0.017349	1
H	-0.843137	-2.098442	-0.019761	1
H	0.760433	-2.676081	-0.010651	1
Es	0.144545	-1.869498	0.003890	99
Es	2.024725	1.341503	0.004418	99
Es	2.210905	1.389375	0.014142	99
Es	2.108633	0.504310	0.012633	99
Es	-0.236072	0.552715	0.001002	99
Es	2.504217	-0.752393	0.015546	99
Es	0.519283	-2.340404	-0.006927	99
Es	0.171076	1.077596	-0.311654	99
Es	1.941909	-0.298332	0.012350	99
Es	-1.728114	0.540748	-0.005682	99
Es	1.337530	1.591804	0.009130	99
Es	-1.973554	0.193784	-0.609509	99
Es	-0.976917	0.540005	-0.002297	99
Es	0.144850	-0.063163	0.003196	99
Es	-0.451517	-1.999304	-0.010937	99
Es	2.302463	1.315815	0.026457	99
Es	2.087096	1.338561	0.022444	99
Es	0.301970	2.390076	0.002799	99
Es	2.211153	1.386926	-0.004044	99
Es	1.324871	-0.384591	0.323973	99
Es	-1.998984	1.224779	-0.000145	99
Es	0.166699	-1.803282	0.025618	99
Es	2.242150	1.514823	0.005080	99
Es	1.328553	-0.384304	-0.305831	99
Es	-1.979525	0.181524	0.588692	99
Es	0.602274	-0.604901	0.005579	99
Es	0.530717	1.705172	0.004049	99
Es	2.622679	1.683688	0.018348	99
Es	0.343350	-1.314789	-0.004097	99
Es	0.167624	1.079365	0.316738	99
44
Properties=species:S:1:pos:R:3:Z:I:1 energy=-645.4772635491416 field_type=dipole dipole="0.000000 0.000000 0.000000" charge=0
C	-1.728167	0.540759	-0.005681	6
C	-0.236027	0.552759	0.000999	6
C	0.530533	1.705128	0.004049	6
S	2.211073	1.389338	0.012429	16
C	1.941823	-0.298491	0.012359	6
C	0.602383	-0.604742	0.005579	6
N	0.144543	-1.869511	0.003969	7
H	-2.136927	1.556418	0.002789	1
H	-2.109897	0.016519	0.876299	1
H	-2.101397	0.034369	-0.901611	1
H	0.182283	2.728868	0.001889	1
H	2.782473	-0.976891	0.017349	1
H	-0.843137	-2.098442	-0.019761	1
H	0.760433	-2.676081	-0.010651	1
Es	-0.451571	-1.999714	-0.010263	99
Es	0.343728	-1.314904	-0.001737	99
Es	2.152638	1.463362	0.026524	99
Es	-0.236073	0.552715	0.001000	99
Es	2.335159	1.427169	0.038737	99
Es	1.941910	-0.298333	0.012357	99
Es	0.301785	2.390108	0.002716	99
Es	2.504148	-0.752819	0.015316	99
Es	0.602275	-0.604899	0.005579	99
Es	-0.976633	0.539675	-0.002197	99
Es	0.171000	1.077588	-0.310557	99
Es	2.211138	1.388710	0.012656	99
Es	0.144547	-1.869502	0.004140	99
Es	-1.979425	0.181571	0.587879	99
Es	-1.728112	0.540748	-0.005682	99
Es	0.166655	-1.803272	0.020670	99
Es	1.337880	1.591640	0.009006	99
Es	2.108500	0.504610	0.012542	99
Es	2.623028	1.683372	0.015559	99
Es	-1.999551	1.225036	0.000004	99
Es	0.167821	1.079014	0.315736	99
Es	1.328027	-0.384983	-0.304457	99
Es	0.518957	-2.340010	-0.005277	99
Es	2.147112	1.277329	0.047785	99
Es	1.325076	-0.384007	0.323045	99
Es	-1.973613	0.193779	-0.608906	99
Es	2.024362	1.342136	0.008895	99
Es	0.145385	-0.062905	0.002897	99
Es	0.530720	1.705173	0.004052	99
Es	2.207715	1.389224	-0.063059	99
44
Properties=species:S:1:pos:R:3:Z:I:1 energy=-645.4772635491416 field_type=dipole dipole="0.000000 0.000000 0.000000" charge=0
C	-1.728167	0.540759	-0.005681	6
C	-0.236027	0.552759	0.000999	6
C	0.530533	1.705128	0.004049	6
S	2.211073	1.389338	0.012429	16
C	1.941823	-0.298491	0.012359	6
C	0.602383	-0.604742	0.005579	6
N	0.144543	-1.869511	0.003969	7
H	-2.136927	1.556418	0.002789	1
H	-2.109897	0.016519	0.876299	1
H	-2.101397	0.034369	-0.901611	1
H	0.182283	2.728868	0.001889	1
H	2.782473	-0.976891	0.017349	1
H	-0.843137	-2.098442	-0.019761	1
H	0.760433	-2.676081	-0.010651	1
Es	-0.976557	0.539542	-0.002365	99
Es	-1.728112	0.540748	-0.005681	99
Es	1.327984	-0.384187	-0.304775	99
Es	2.623073	1.683695	0.013660	99
Es	0.602275	-0.604898	0.005580	99
Es	-1.979682	0.181681	0.588065	99
Es	2.211061	1.389283	0.012712	99
Es	2.025198	1.342599	0.014849	99
Es	-1.973595	0.193832	-0.608723	99
Es	0.344037	-1.315107	-0.005154	99
Es	0.518456	-2.339368	-0.007525	99
Es	-0.236073	0.552715	0.000999	99
Es	0.530718	1.705171	0.004052	99
Es	0.145523	-0.062645	0.003041	99
Es	0.165716	-1.805962	0.031336	99
Es	2.111024	1.448563	0.024845	99
Es	-1.999508	1.224686	-0.000303	99
Es	2.108554	0.504821	0.013249	99
Es	-0.451624	-2.000154	-0.011216	99
Es	1.324362	-0.384195	0.323048	99
Es	2.324645	1.455358	0.032934	99
Es	2.503733	-0.752720	0.015630	99
Es	0.168214	1.077757	0.315999	99
Es	0.301814	2.389833	0.002535	99
Es	1.338218	1.591480	0.007236	99
Es	0.145477	-1.866778	0.000117	99
Es	2.211573	1.392198	-0.021079	99
Es	1.941908	-0.298334	0.012369	99
Es	2.195170	1.260145	0.010213	99
Es	0.171004	1.077851	-0.310685	99
44
Properties=species:S:1:pos:R:3:Z:I:1 energy=-645.4772635491416 field_type=dipole dipole="0.000000 0.000000 0.000000" charge=0
C	-1.728167	0.540759	-0.005681	6
C	-0.236027	0.552759	0.000999	6
C	0.530533	1.705128	0.004049	6
S	2.211073	1.389338	0.012429	16
C	1.941823	-0.298491	0.012359	6
C	0.602383	-0.604742	0.005579	6
N	0.144543	-1.869511	0.003969	7
H	-2.136927	1.556418	0.002789	1
H	-2.109897	0.016519	0.876299	1
H	-2.101397	0.034369	-0.901611	1
H	0.182283	2.728868	0.001889	1
H	2.782473	-0.976891	0.017349	1
H	-0.843137	-2.098442	-0.019761	1
H	0.760433	-2.676081	-0.010651	1
Es	2.108505	0.505099	0.013415	99
Es	0.301683	2.389752	0.002552	99
Es	-1.979588	0.181564	0.587662	99
Es	1.327745	-0.384273	-0.304273	99
Es	-0.976359	0.539633	-0.002469	99
Es	2.503578	-0.752845	0.015599	99
Es	-1.999939	1.224619	-0.000181	99
Es	-0.236073	0.552714	0.000999	99
Es	2.186044	1.260300	0.021939	99
Es	0.602273	-0.604901	0.005579	99
Es	0.343909	-1.314981	-0.001105	99
Es	0.168149	1.077923	0.315337	99
Es	-1.973628	0.193959	-0.608287	99
Es	1.338405	1.591374	0.008309	99
Es	-1.728112	0.540748	-0.005681	99
Es	2.327997	1.452211	0.023614	99
Es	0.530717	1.705175	0.004055	99
Es	0.144543	-1.869493	0.004117	99
Es	2.204886	1.393510	-0.035930	99
Es	0.518429	-2.339235	-0.004555	99
Es	0.171268	1.077315	-0.310333	99
Es	-0.451626	-2.000427	-0.010415	99
Es	0.145867	-0.062528	0.003179	99
Es	2.123900	1.450236	0.041070	99
Es	2.025096	1.342648	0.008405	99
Es	2.623212	1.683626	0.015624	99
Es	2.210903	1.389476	0.012280	99
Es	1.324322	-0.384038	0.322592	99
Es	1.941911	-0.298333	0.012371	99
Es	0.166570	-1.803221	0.019493	99
44
Properties=species:S:1:pos:R:3:Z:I:1 energy=-645.4772635491416 field_type=dipole dipole="0.000000 0.000000 0.000000" charge=0
C	-1.728167	0.540759	-0.005681	6
C	-0.236027	0.552759	0.000999	6
C	0.530533	1.705128	0.004049	6
S	2.211073	1.389338	0.012429	16
C	1.941823	-0.298491	0.012359	6
C	0.602383	-0.604742	0.005579	6
N	0.144543	-1.869511	0.003969	7
H	-2.136927	1.556418	0.002789	1
H	-2.109897	0.016519	0.876299	1
H	-2.101397	0.034369	-0.901611	1
H	0.182283	2.728868	0.001889	1
H	2.782473	-0.976891	0.017349	1
H	-0.843137	-2.098442	-0.019761	1
H	0.760433	-2.676081	-0.010651	1
Es	0.530719	1.705173	0.004049	99
Es	-1.728112	0.540748	-0.005681	99
Es	2.222899	1.369115	-0.042656	99
Es	-0.236073	0.552715	0.001001	99
Es	2.024819	1.342716	0.007409	99
Es	2.112479	1.303619	0.055267	99
Es	1.328047	-0.384218	-0.303198	99
Es	2.320963	1.463113	0.040888	99
Es	-1.979611	0.181286	0.586834	99
Es	2.207878	1.393096	0.010992	99
Es	-0.451608	-2.000179	-0.009122	99
Es	-2.000606	1.225373	-0.000224	99
Es	1.941902	-0.298336	0.012384	99
Es	2.108338	0.505114	0.013224	99
Es	2.622933	1.683865	0.017112	99
Es	0.168233	1.078700	0.314333	99
Es	0.146101	-0.062445	0.003026	99
Es	0.166457	-1.803783	0.014009	99
Es	0.301374	2.390169	0.002762	99
Es	1.324148	-0.384886	0.321341	99
Es	0.144708	-1.868970	0.005949	99
Es	2.503901	-0.753404	0.015592	99
Es	2.189452	1.416722	-0.001788	99
Es	0.518614	-2.339566	-0.004250	99
Es	-0.976184	0.539321	-0.002430	99
Es	0.343886	-1.314987	0.000966	99
Es	0.602273	-0.604901	0.005581	99
Es	1.338397	1.591178	0.008357	99
Es	-1.973146	0.194052	-0.607605	99
Es	0.171407	1.077210	-0.309163	99
44
Properties=species:S:1:pos:R:3:Z:I:1 energy=-645.4772635491416 field_type=dipole dipole="0.000000 0.000000 0.000000" charge=0
C	-1.728167	0.540759	-0.005681	6
C	-0.236027	0.552759	0.000999	6
C	0.530533	1.705128	0.004049	6
S	2.211073	1.389338	0.012429	16
C	1.941823	-0.298491	0.012359	6
C	0.602383	-0.604742	0.005579	6
N	0.144543	-1.869511	0.003969	7
H	-2.136927	1.556418	0.002789	1
H	-2.109897	0.016519	0.876299	1
H	-2.101397	0.034369	-0.901611	1
H	0.182283	2.728868	0.001889	1
H	2.782473	-0.976891	0.017349	1
H	-0.843137	-2.098442	-0.019761	1
H	0.760433	-2.676081	-0.010651	1
Es	0.144561	-1.869458	0.003483	99
Es	0.146316	-0.062258	0.003357	99
Es	2.084768	1.340135	0.002626	99
Es	0.343954	-1.314985	0.001202	99
Es	0.530720	1.705173	0.004043	99
Es	1.323847	-0.384310	0.322193	99
Es	-0.236073	0.552715	0.000999	99
Es	-0.451629	-2.000861	-0.009828	99
Es	0.301473	2.389683	0.002789	99
Es	-1.728112	0.540745	-0.005677	99
Es	2.622969	1.684210	0.013095	99
Es	0.171965	1.076294	-0.309789	99
Es	0.602275	-0.604900	0.005581	99
Es	-0.976124	0.539495	-0.002254	99
Es	2.108417	0.505357	0.012652	99
Es	2.261457	1.511314	0.003959	99
Es	-1.979629	0.181664	0.587135	99
Es	2.210787	1.389369	0.016653	99
Es	-1.973523	0.193895	-0.607902	99
Es	2.025084	1.343185	0.013495	99
Es	2.503371	-0.752935	0.015403	99
Es	0.518182	-2.338767	-0.005835	99
Es	0.166541	-1.803306	0.018537	99
Es	2.210740	1.389703	0.014985	99
Es	1.941913	-0.298330	0.012357	99
Es	1.338673	1.591209	0.007397	99
Es	1.327429	-0.384243	-0.303875	99
Es	2.286346	1.314803	0.023671	99
Es	-2.000397	1.224508	-0.000243	99
Es	0.168288	1.078504	0.314753	99
44
Properties=species:S:1:pos:R:3:Z:I:1 energy=-645.4772635491416 field_type=dipole dipole="0.000000 0.000000 0.000000" charge=0
C	-1.728167	0.540759	-0.005681	6
C	-0.236027	0.552759	0.000999	6
C	0.530533	1.705128	0.004049	6
S	2.211073	1.389338	0.012429	16
C	1.941823	-0.298491	0.012359	6
C	0.602383	-0.604742	0.005579	6
N	0.144543	-1.869511	0.003969	7
H	-2.136927	1.556418	0.002789	1
H	-2.109897	0.016519	0.876299	1
H	-2.101397	0.034369	-0.901611	1
H	0.182283	2.728868	0.001889	1
H	2.782473	-0.976891	0.017349	1
H	-0.843137	-2.098442	-0.019761	1
H	0.760433	-2.676081	-0.010651	1
Es	-0.976075	0.539472	-0.002473	99
Es	1.327042	-0.384512	-0.303620	99
Es	2.211624	1.388760	0.014133	99
Es	1.941910	-0.298332	0.012361	99
Es	2.622960	1.684276	0.015469	99
Es	1.324002	-0.383679	0.321845	99
Es	-1.979490	0.181635	0.586846	99
Es	-2.000732	1.224573	-0.000204	99
Es	2.087190	1.333427	0.012121	99
Es	-0.236075	0.552715	0.001006	99
Es	0.166477	-1.803389	0.018795	99
Es	0.344179	-1.315097	-0.000374	99
Es	2.503256	-0.753050	0.015618	99
Es	0.530720	1.705173	0.004049	99
Es	-1.728113	0.540746	-0.005683	99
Es	0.602274	-0.604900	0.005579	99
Es	0.144614	-1.869307	0.002874	99
Es	2.258261	1.513855	0.008220	99
Es	2.108428	0.505468	0.012897	99
Es	-0.451649	-2.001062	-0.008976	99
Es	0.168945	1.076827	0.314609	99
Es	2.211436	1.389211	0.022981	99
Es	0.301363	2.389651	0.002586	99
Es	2.285635	1.320039	0.003942	99
Es	0.171281	1.077656	-0.309090	99
Es	1.338823	1.591147	0.007406	99
Es	2.025313	1.343193	0.011455	99
Es	0.146568	-0.062201	0.002985	99
Es	-1.973510	0.193870	-0.607574	99
Es	0.517930	-2.338557	-0.004824	99
44
Properties=species:S:1:pos:R:3:Z:I:1 energy=-645.4772635491416 field_type=dipole dipole="0.000000 0.000000 0.000000" charge=0
C	-1.728167	0.540759	-0.005681	6
C	-0.236027	0.552759	0.000999	6
C	0.530533	1.705128	0.004049	6
S	2.211073	1.389338	0.012429	16
C	1.941823	-0.298491	0.012359	6
C	0.602383	-0.604742	0.005579	6
N	0.144543	-1.869511	0.003969	7
H	-2.136927	1.556418	0.002789	1
H	-2.109897	0.016519	0.876299	1
H	-2.101397	0.034369	-0.901611	1
H	0.182283	2.728868	0.001889	1
H	2.782473	-0.976891	0.017349	1
H	-0.843137	-2.098442	-0.019761	1
H	0.760433	-2.676081	-0.010651	1
Es	0.166383	-1.803592	0.016266	99
Es	-1.979376	0.181654	0.586188	99
Es	0.168843	1.076740	0.313585	99
Es	1.328238	-0.383000	-0.302862	99
Es	2.207732	1.393162	0.008068	99
Es	1.323166	-0.385449	0.320568	99
Es	2.203007	1.396944	-0.000174	99
Es	0.301160	2.389777	0.002526	99
Es	-1.973333	0.193817	-0.606865	99
Es	2.108279	0.505605	0.013425	99
Es	-1.728112	0.540748	-0.005681	99
Es	1.941914	-0.298333	0.012361	99
Es	2.025152	1.343152	0.011080	99
Es	2.503444	-0.753475	0.016029	99
Es	0.144695	-1.869072	0.002370	99
Es	2.172711	1.430663	0.068745	99
Es	2.142224	1.272244	-0.005645	99
Es	0.146787	-0.061927	0.003087	99
Es	2.328177	1.452741	-0.009296	99
Es	0.518031	-2.338738	-0.002213	99
Es	0.344188	-1.315141	0.000613	99
Es	2.623276	1.683832	0.015708	99
Es	0.602273	-0.604901	0.005579	99
Es	-2.001318	1.225029	-0.000280	99
Es	-0.236074	0.552715	0.001002	99
Es	-0.451679	-2.000890	-0.009501	99
Es	0.530720	1.705173	0.004050	99
Es	0.171069	1.077938	-0.308275	99
Es	1.338920	1.591028	0.006982	99
Es	-0.975910	0.539165	-0.002475	99
44
Properties=species:S:1:pos:R:3:Z:I:1 energy=-645.4772635491416 field_type=dipole dipole="0.000000 0.000000 0.000000" charge=0
C	-1.728167	0.540759	-0.005681	6
C	-0.236027	0.552759	0.000999	6
C	0.530533	1.705128	0.004049	6
S	2.211073	1.389338	0.012429	16
C	1.941823	-0.298491	0.012359	6
C	0.602383	-0.604742	0.005579	6
N	0.144543	-1.869511	0.003969	7
H	-2.136927	1.556418	0.002789	1
H	-2.109897	0.016519	0.876299	1
H	-2.101397	0.034369	-0.901611	1
H	0.182283	2.728868	0.001889	1
H	2.782473	-0.976891	0.017349	1
H	-0.843137	-2.098442	-0.019761	1
H	0.760433	-2.676081	-0.010651	1
Es	1.323949	-0.383063	0.321321	99
Es	2.139122	1.274064	0.005035	99
Es	0.169257	1.076911	0.313944	99
Es	0.147069	-0.062129	0.002996	99
Es	-2.001149	1.224618	-0.000311	99
Es	1.941913	-0.298330	0.012360	99
Es	2.503081	-0.753212	0.015516	99
Es	2.108314	0.505707	0.012668	99
Es	0.517658	-2.338271	-0.002674	99
Es	0.171744	1.077329	-0.308672	99
Es	1.326313	-0.385492	-0.302924	99
Es	2.151862	1.471933	0.019698	99
Es	-1.728113	0.540748	-0.005681	99
Es	2.025257	1.343841	0.012877	99
Es	0.602274	-0.604901	0.005580	99
Es	-1.979598	0.181409	0.586510	99
Es	-0.236075	0.552715	0.000998	99
Es	-0.975863	0.539307	-0.002580	99
Es	2.340656	1.421305	0.009281	99
Es	2.211086	1.389175	0.014131	99
Es	-0.451644	-2.001346	-0.008982	99
Es	0.301292	2.389645	0.002651	99
Es	0.144553	-1.869480	0.003633	99
Es	-1.973288	0.194117	-0.606981	99
Es	2.211024	1.389245	0.013343	99
Es	0.530720	1.705173	0.004045	99
Es	1.339137	1.590855	0.007574	99
Es	0.344230	-1.315143	0.000059	99
Es	2.623289	1.684060	0.014036	99
Es	0.166517	-1.803181	0.015508	99
44
Properties=species:S:1:pos:R:3:Z:I:1 energy=-645.4772635491416 field_type=dipole dipole="0.000000 0.000000 0.000000" charge=0
C	-1.728167	0.540759	-0.005681	6
C	-0.236027	0.552759	0.000999	6
C	0.530533	1.705128	0.004049	6
S	2.211073	1.389338	0.012429	16
C	1.941823	-0.298491	0.012359	6
C	0.602383	-0.604742	0.005579	6
N	0.144543	-1.869511	0.003969	7
H	-2.136927	1.556418	0.002789	1
H	-2.109897	0.016519	0.876299	1
H	-2.101397	0.034369	-0.901611	1
H	0.182283	2.728868	0.001889	1
H	2.782473	-0.976891	0.017349	1
H	-0.843137	-2.098442	-0.019761	1
H	0.760433	-2.676081	-0.010651	1
Es	0.169028	1.076810	0.313248	99
Es	-1.728110	0.540749	-0.005682	99
Es	0.166495	-1.803267	0.010843	99
Es	0.301011	2.389716	0.002596	99
Es	0.530720	1.705173	0.004050	99
Es	0.344431	-1.315250	0.001725	99
Es	2.108284	0.505777	0.013053	99
Es	-2.001590	1.224855	-0.000238	99
Es	-0.236074	0.552714	0.000998	99
Es	2.196611	1.403879	-0.023353	99
Es	2.210974	1.389298	0.012477	99
Es	2.335318	1.441526	0.004972	99
Es	-0.975665	0.539017	-0.002489	99
Es	2.503119	-0.753552	0.015814	99
Es	2.164338	1.441540	0.057334	99
Es	1.941913	-0.298330	0.012360	99
Es	2.025588	1.343651	0.007663	99
Es	1.322971	-0.385160	0.320311	99
Es	2.146396	1.269401	0.011799	99
Es	0.517608	-2.338144	-0.001580	99
Es	0.602273	-0.604901	0.005579	99
Es	-1.979491	0.181535	0.585833	99
Es	0.147175	-0.061849	0.003055	99
Es	0.171524	1.077251	-0.307885	99
Es	-1.973286	0.194090	-0.606473	99
Es	0.144577	-1.869381	0.004937	99
Es	1.339239	1.590843	0.007873	99
Es	2.623184	1.684152	0.016992	99
Es	-0.451687	-2.001436	-0.008381	99
Es	1.327714	-0.383099	-0.302471	99
44
Properties=species:S:1:pos:R:3:Z:I:1 energy=-645.4772635491416 field_type=dipole dipole="0.000000 0.000000 0.000000" charge=0
C	-1.728167	0.540759	-0.005681	6
C	-0.236027	0.552759	0.000999	6
C	0.530533	1.705128	0.004049	6
S	2.211073	1.389338	0.012429	16
C	1.941823	-0.298491	0.012359	6
C	0.602383	-0.604742	0.005579	6
N	0.144543	-1.869511	0.003969	7
H	-2.136927	1.556418	0.002789	1
H	-2.109897	0.016519	0.876299	1
H	-2.101397	0.034369	-0.901611	1
H	0.182283	2.728868	0.001889	1
H	2.782473	-0.976891	0.017349	1
H	-0.843137	-2.098442	-0.019761	1
H	0.760433	-2.676081	-0.010651	1
Es	1.327198	-0.383323	-0.302393	99
Es	0.344459	-1.315214	0.001919	99
Es	0.171526	1.078194	-0.307899	99
Es	0.144580	-1.869404	0.003209	99
Es	-1.973173	0.194254	-0.606416	99
Es	1.941913	-0.298332	0.012353	99
Es	2.211125	1.389309	0.012078	99
Es	-0.451633	-2.001662	-0.008374	99
Es	-0.236075	0.552715	0.000998	99
Es	0.517455	-2.337922	-0.004190	99
Es	-0.975620	0.539040	-0.002492	99
Es	0.147280	-0.061908	0.002994	99
Es	1.322705	-0.385078	0.320767	99
Es	-2.001625	1.224676	-0.000300	99
Es	2.502958	-0.753458	0.015392	99
Es	2.212633	1.388705	-0.000421	99
Es	2.265779	1.314950	0.024752	99
Es	1.339454	1.590873	0.008649	99
Es	0.602274	-0.604901	0.005578	99
Es	0.169796	1.075833	0.313480	99
Es	-1.728112	0.540748	-0.005682	99
Es	2.622920	1.684650	0.014209	99
Es	2.108229	0.505789	0.012000	99
Es	0.530720	1.705173	0.004050	99
Es	2.283570	1.502468	0.022224	99
Es	0.166471	-1.803271	0.015002	99
Es	0.300997	2.389586	0.002635	99
Es	2.081094	1.349872	0.002908	99
Es	-1.979611	0.181360	0.585939	99
Es	2.025300	1.343888	0.011993	99
44
Properties=species:S:1:pos:R:3:Z:I:1 energy=-645.4772635491416 field_type=dipole dipole="0.000000 0.000000 0.000000" charge=0
C	-1.728167	0.540759	-0.005681	6
C	-0.236027	0.552759	0.000999	6
C	0.530533	1.705128	0.004049	6
S	2.211073	1.389338	0.012429	16
C	1.941823	-0.298491	0.012359	6
C	0.602383	-0.604742	0.005579	6
N	0.144543	-1.869511	0.003969	7
H	-2.136927	1.556418	0.002789	1
H	-2.109897	0.016519	0.876299	1
H	-2.101397	0.034369	-0.901611	1
H	0.182283	2.728868	0.001889	1
H	2.782473	-0.976891	0.017349	1
H	-0.843137	-2.098442	-0.019761	1
H	0.760433	-2.676081	-0.010651	1
Es	1.326133	-0.384542	-0.302262	99
Es	2.304146	1.485732	0.014367	99
Es	-0.236075	0.552715	0.000998	99
Es	0.166481	-1.803179	0.011928	99
Es	2.210973	1.389350	0.012749	99
Es	0.144550	-1.869468	0.004452	99
Es	1.322903	-0.383887	0.320869	99
Es	0.172607	1.076133	-0.308051	99
Es	2.108331	0.506005	0.012789	99
Es	-0.451645	-2.002115	-0.008189	99
Es	0.169540	1.077340	0.313344	99
Es	0.517074	-2.337394	-0.003038	99
Es	2.502515	-0.753383	0.015190	99
Es	0.530720	1.705173	0.004049	99
Es	0.301002	2.389398	0.002762	99
Es	0.344532	-1.315246	0.002387	99
Es	-2.001739	1.224383	-0.000244	99
Es	-1.973150	0.194321	-0.606402	99
Es	2.080961	1.402076	0.008398	99
Es	2.623048	1.684739	0.015136	99
Es	0.602272	-0.604903	0.005578	99
Es	-1.979686	0.181356	0.585736	99
Es	-0.975536	0.538941	-0.002379	99
Es	2.025539	1.344523	0.009171	99
Es	1.941913	-0.298330	0.012361	99
Es	1.339734	1.590716	0.008257	99
Es	2.211096	1.389145	0.007144	99
Es	2.246813	1.278967	0.020479	99
Es	-1.728113	0.540748	-0.005681	99
Es	0.147648	-0.061706	0.003068	99
44
Properties=species:S:1:pos:R:3:Z:I:1 energy=-645.4772635491416 field_type=dipole dipole="0.000000 0.000000 0.000000" charge=0
C	-1.728167	0.540759	-0.005681	6
C	-0.236027	0.552759	0.000999	6
C	0.530533	1.705128	0.004049	6
S	2.211073	1.389338	0.012429	16
C	1.941823	-0.298491	0.012359	6
C	0.602383	-0.604742	0.005579	6
N	0.144543	-1.869511	0.003969	7
H	-2.136927	1.556418	0.002789	1
H	-2.109897	0.016519	0.876299	1
H	-2.101397	0.034369	-0.901611	1
H	0.182283	2.728868	0.001889	1
H	2.782473	-0.976891	0.017349	1
H	-0.843137	-2.098442	-0.019761	1
H	0.760433	-2.676081	-0.010651	1
Es	-1.973041	0.194289	-0.606082	99
Es	-1.728112	0.540748	-0.005681	99
Es	-1.979550	0.181308	0.585473	99
Es	2.108368	0.506016	0.012505	99
Es	-2.002023	1.224742	-0.000250	99
Es	0.602274	-0.604902	0.005578	99
Es	2.502849	-0.753723	0.015623	99
Es	1.339434	1.590631	0.007282	99
Es	1.941912	-0.298331	0.012364	99
Es	0.530720	1.705173	0.004049	99
Es	-0.236073	0.552715	0.001000	99
Es	0.147600	-0.061558	0.003010	99
Es	-0.451686	-2.001672	-0.008314	99
Es	2.211065	1.389315	0.012493	99
Es	1.322649	-0.385106	0.319872	99
Es	2.211083	1.389758	0.028005	99
Es	0.144672	-1.869141	0.002485	99
Es	2.135541	1.275170	0.006893	99
Es	1.327192	-0.383404	-0.301867	99
Es	0.344567	-1.315322	0.002013	99
Es	0.517281	-2.337832	-0.003412	99
Es	0.300986	2.389634	0.002630	99
Es	2.160238	1.451250	0.011794	99
Es	2.025578	1.343779	0.011807	99
Es	0.169425	1.076789	0.312964	99
Es	0.171804	1.077248	-0.307429	99
Es	-0.975535	0.538941	-0.002595	99
Es	2.623269	1.684236	0.016089	99
Es	2.335744	1.440365	0.001904	99
Es	0.166356	-1.803506	0.014756	99
44
Properties=species:S:1:pos:R:3:Z:I:1 energy=-645.4772635491416 field_type=dipole dipole="0.000000 0.000000 0.000000" charge=0
C	-1.728167	0.540759	-0.005681	6
C	-0.236027	0.552759	0.000999	6
C	0.530533	1.705128	0.004049	6
S	2.211073	1.389338	0.012429	16
C	1.941823	-0.298491	0.012359	6
C	0.602383	-0.604742	0.005579	6
N	0.144543	-1.869511	0.003969	7
H	-2.136927	1.556418	0.002789	1
H	-2.109897	0.016519	0.876299	1
H	-2.101397	0.034369	-0.901611	1
H	0.182283	2.728868	0.001889	1
H	2.782473	-0.976891	0.017349	1
H	-0.843137	-2.098442	-0.019761	1
H	0.760433	-2.676081	-0.010651	1
Es	0.517122	-2.337459	-0.003741	99
Es	1.327442	-0.382366	-0.301676	99
Es	-1.728112	0.540748	-0.005681	99
Es	0.144556	-1.869466	0.003545	99
Es	2.262604	1.316161	0.039305	99
Es	2.025551	1.344322	0.009502	99
Es	0.344631	-1.315338	0.003392	99
Es	0.300837	2.389620	0.002727	99
Es	-0.451651	-2.002043	-0.008144	99
Es	2.623069	1.684625	0.014742	99
Es	1.339738	1.590641	0.008347	99
Es	-1.973121	0.194392	-0.605833	99
Es	2.081168	1.351524	0.003807	99
Es	2.211182	1.389212	0.011977	99
Es	-0.236075	0.552714	0.000998	99
Es	1.941913	-0.298329	0.012361	99
Es	0.166463	-1.803182	0.012503	99
Es	0.172779	1.075201	-0.307221	99
Es	0.530720	1.705173	0.004050	99