44
Properties=species:S:1:pos:R:3:Z:I:1 energy=-645.4805250291728 field_type=dipole dipole="0.000000 0.000000 0.000000" charge=0
C	-1.548138	0.684481	-0.003386	6
C	-0.059088	0.687801	0.003444	6
C	0.730402	1.824451	0.012754	6
S	2.375202	1.370421	0.017724	16
N	2.100182	-0.258829	0.008094	7
C	0.785302	-0.483639	0.001244	6
C	0.333632	-1.903538	-0.008316	6
H	-1.949868	1.703001	0.002854	1
H	-1.933038	0.164931	0.879894	1
H	-1.924748	0.178881	-0.898246	1
H	0.431732	2.862861	0.016694	1
H	-0.757698	-1.985368	-0.003316	1
H	0.712542	-2.430408	0.873704	1
H	0.703582	-2.415049	-0.903136	1
Es	0.353671	1.182517	-0.299595	99
Es	-0.796821	0.682433	0.000174	99
Es	2.472120	1.373423	0.082082	99
Es	1.544234	-0.287980	-0.267849	99
Es	0.537109	2.516955	0.015379	99
Es	2.388943	-0.475771	0.008032	99
Es	-1.792951	0.340601	-0.606652	99
Es	0.583518	-2.233809	-0.608085	99
Es	-1.548072	0.684481	-0.003386	99
Es	2.191719	0.433362	0.011071	99
Es	2.290865	1.311485	0.076573	99
Es	2.396378	1.313848	-0.083368	99
Es	2.099773	-0.258422	0.008089	99
Es	0.785343	-0.483654	0.001243	99
Es	0.589476	-2.244385	0.582932	99
Es	2.337992	1.481489	-0.004359	99
Es	1.542191	-0.289717	0.279779	99
Es	-0.408340	-1.948283	-0.004962	99
Es	0.324041	0.079135	0.001433	99
Es	0.333631	-1.903473	-0.008316	99
Es	-1.798630	0.331197	0.592120	99
Es	0.730573	1.824487	0.012755	99
Es	-0.059116	0.687781	0.003444	99
Es	0.544464	-1.183547	-0.003373	99
Es	2.494898	1.479211	-0.410756	99
Es	0.351433	1.177970	0.315803	99
Es	1.512083	1.650014	0.012817	99
Es	2.475775	1.468834	0.451296	99
Es	2.375254	1.370801	0.017577	99
Es	-1.811890	1.376240	0.000814	99
44
Properties=species:S:1:pos:R:3:Z:I:1 energy=-645.4805250291728 field_type=dipole dipole="0.000000 0.000000 0.000000" charge=0
C	-1.548138	0.684481	-0.003386	6
C	-0.059088	0.687801	0.003444	6
C	0.730402	1.824451	0.012754	6
S	2.375202	1.370421	0.017724	16
N	2.100182	-0.258829	0.008094	7
C	0.785302	-0.483639	0.001244	6
C	0.333632	-1.903538	-0.008316	6
H	-1.949868	1.703001	0.002854	1
H	-1.933038	0.164931	0.879894	1
H	-1.924748	0.178881	-0.898246	1
H	0.431732	2.862861	0.016694	1
H	-0.757698	-1.985368	-0.003316	1
H	0.712542	-2.430408	0.873704	1
H	0.703582	-2.415049	-0.903136	1
Es	-1.798689	0.331218	0.590803	99
Es	0.326020	0.079399	0.001379	99
Es	-0.796100	0.681573	-0.000098	99
Es	0.352491	1.175739	0.314064	99
Es	0.354998	1.179009	-0.297934	99
Es	2.383827	-0.476730	0.007971	99
Es	-0.410458	-1.950976	-0.004950	99
Es	2.463966	1.458593	0.027306	99
Es	0.730569	1.824492	0.012757	99
Es	2.374814	1.370440	0.017986	99
Es	0.546249	-1.182098	-0.003529	99
Es	0.333629	-1.903476	-0.008317	99
Es	-1.548072	0.684479	-0.003386	99
Es	-1.813073	1.376461	0.000799	99
Es	2.099770	-0.258420	0.008087	99
Es	0.537144	2.517135	0.015432	99
Es	-0.059121	0.687777	0.003441	99
Es	1.545266	-0.290071	-0.265665	99
Es	2.315269	1.366947	0.110724	99
Es	1.507513	1.660054	0.013031	99
Es	0.785341	-0.483655	0.001244	99
Es	2.199515	0.431565	0.011581	99
Es	2.152988	1.328661	0.025706	99
Es	1.543804	-0.291311	0.277474	99
Es	-1.793063	0.340693	-0.605221	99
Es	2.419683	1.259835	-0.000311	99
Es	0.583206	-2.233766	-0.604048	99
Es	0.589264	-2.244219	0.579025	99
Es	2.300606	1.394925	-0.067743	99
Es	2.812305	1.622948	0.015101	99
44
Properties=species:S:1:pos:R:3:Z:I:1 energy=-645.4805250291728 field_type=dipole dipole="0.000000 0.000000 0.000000" charge=0
C	-1.548138	0.684481	-0.003386	6
C	-0.059088	0.687801	0.003444	6
C	0.730402	1.824451	0.012754	6
S	2.375202	1.370421	0.017724	16
N	2.100182	-0.258829	0.008094	7
C	0.785302	-0.483639	0.001244	6
C	0.333632	-1.903538	-0.008316	6
H	-1.949868	1.703001	0.002854	1
H	-1.933038	0.164931	0.879894	1
H	-1.924748	0.178881	-0.898246	1
H	0.431732	2.862861	0.016694	1
H	-0.757698	-1.985368	-0.003316	1
H	0.712542	-2.430408	0.873704	1
H	0.703582	-2.415049	-0.903136	1
Es	-0.411908	-1.952961	-0.005275	99
Es	2.337654	1.251100	-0.018971	99
Es	2.286708	1.446692	0.027043	99
Es	-1.548073	0.684482	-0.003387	99
Es	1.542246	-0.291827	0.275512	99
Es	1.507954	1.659166	0.013060	99
Es	2.392506	1.360749	0.092476	99
Es	2.812624	1.623363	0.021020	99
Es	0.547782	-1.181480	-0.003373	99
Es	-0.795627	0.681020	0.000026	99
Es	0.588942	-2.243911	0.576126	99
Es	0.537041	2.517296	0.015392	99
Es	0.583067	-2.233184	-0.600931	99
Es	0.355987	1.177883	-0.296461	99
Es	0.353681	1.173368	0.312339	99
Es	-1.793078	0.340668	-0.604062	99
Es	0.327242	0.079616	0.001624	99
Es	0.730573	1.824489	0.012746	99
Es	0.333629	-1.903477	-0.008316	99
Es	-1.798563	0.331329	0.589560	99
Es	1.544238	-0.289870	-0.263909	99
Es	2.153119	1.332673	0.019636	99
Es	2.375369	1.370364	0.017877	99
Es	-1.814115	1.376757	0.000857	99
Es	2.201059	0.432788	0.011535	99
Es	2.482180	1.421991	-0.030346	99
Es	2.381428	-0.477563	0.008127	99
Es	0.785339	-0.483657	0.001247	99
Es	-0.059118	0.687776	0.003443	99
Es	2.099777	-0.258421	0.008093	99
44
Properties=species:S:1:pos:R:3:Z:I:1 energy=-645.4805250291728 field_type=dipole dipole="0.000000 0.000000 0.000000" charge=0
C	-1.548138	0.684481	-0.003386	6
C	-0.059088	0.687801	0.003444	6
C	0.730402	1.824451	0.012754	6
S	2.375202	1.370421	0.017724	16
N	2.100182	-0.258829	0.008094	7
C	0.785302	-0.483639	0.001244	6
C	0.333632	-1.903538	-0.008316	6
H	-1.949868	1.703001	0.002854	1
H	-1.933038	0.164931	0.879894	1
H	-1.924748	0.178881	-0.898246	1
H	0.431732	2.862861	0.016694	1
H	-0.757698	-1.985368	-0.003316	1
H	0.712542	-2.430408	0.873704	1
H	0.703582	-2.415049	-0.903136	1
Es	2.422635	1.491715	0.024874	99
Es	0.333630	-1.903476	-0.008316	99
Es	1.508263	1.658601	0.015714	99
Es	-0.059123	0.687775	0.003443	99
Es	0.536853	2.517385	0.015492	99
Es	2.812348	1.624110	0.019833	99
Es	1.540382	-0.291821	0.273590	99
Es	0.548983	-1.181203	-0.003340	99
Es	2.202320	0.433355	0.011871	99
Es	0.328321	0.079844	0.001708	99
Es	-0.412958	-1.954683	-0.004869	99
Es	-1.548074	0.684479	-0.003386	99
Es	2.375156	1.370410	0.017668	99
Es	2.379877	-0.478836	0.007819	99
Es	1.542622	-0.289026	-0.262098	99
Es	0.588727	-2.243072	0.573422	99
Es	-0.795282	0.680495	0.000082	99
Es	-1.798505	0.331434	0.588624	99
Es	2.445608	1.290859	0.058144	99
Es	0.582915	-2.232857	-0.598736	99
Es	0.785339	-0.483656	0.001245	99
Es	2.384771	1.361805	-0.030077	99
Es	0.730572	1.824490	0.012749	99
Es	0.357020	1.176440	-0.295130	99
Es	-1.793022	0.340707	-0.603045	99
Es	2.200144	1.335793	-0.005082	99
Es	2.099767	-0.258407	0.008094	99
Es	-1.814929	1.376970	0.000802	99
Es	0.354352	1.173700	0.310933	99
Es	2.200951	1.333891	0.040682	99
44
Properties=species:S:1:pos:R:3:Z:I:1 energy=-645.4805250291728 field_type=dipole dipole="0.000000 0.000000 0.000000" charge=0
C	-1.548138	0.684481	-0.003386	6
C	-0.059088	0.687801	0.003444	6
C	0.730402	1.824451	0.012754	6
S	2.375202	1.370421	0.017724	16
N	2.100182	-0.258829	0.008094	7
C	0.785302	-0.483639	0.001244	6
C	0.333632	-1.903538	-0.008316	6
H	-1.949868	1.703001	0.002854	1
H	-1.933038	0.164931	0.879894	1
H	-1.924748	0.178881	-0.898246	1
H	0.431732	2.862861	0.016694	1
H	-0.757698	-1.985368	-0.003316	1
H	0.712542	-2.430408	0.873704	1
H	0.703582	-2.415049	-0.903136	1
Es	2.451337	1.284675	0.013006	99
Es	1.543828	-0.287683	-0.261691	99
Es	-1.548074	0.684479	-0.003387	99
Es	1.539255	-0.293599	0.271773	99
Es	-0.059121	0.687776	0.003451	99
Es	1.508543	1.658205	0.016147	99
Es	0.785340	-0.483657	0.001246	99
Es	2.247997	1.331822	0.018507	99
Es	0.549988	-1.181079	-0.003415	99
Es	0.328952	0.079988	0.002549	99
Es	2.378642	-0.479227	0.008840	99
Es	-1.815533	1.377036	0.000880	99
Es	0.333632	-1.903474	-0.008315	99
Es	2.376295	1.370272	0.033703	99
Es	2.099793	-0.258435	0.008094	99
Es	-0.794986	0.680198	0.000076	99
Es	-1.798431	0.331473	0.587884	99
Es	0.582479	-2.231944	-0.596493	99
Es	0.354328	1.174479	0.309649	99
Es	-1.793001	0.340808	-0.602374	99
Es	2.376136	1.370036	0.015222	99
Es	2.203077	0.433732	0.012324	99
Es	2.422674	1.493576	0.010203	99
Es	0.588728	-2.242878	0.571613	99
Es	0.358194	1.173395	-0.294509	99
Es	2.812233	1.624607	0.023194	99
Es	2.153751	1.336811	0.011461	99
Es	0.536726	2.517427	0.015462	99
Es	0.730572	1.824491	0.012756	99
Es	-0.413691	-1.956087	-0.005142	99
44
Properties=species:S:1:pos:R:3:Z:I:1 energy=-645.4805250291728 field_type=dipole dipole="0.000000 0.000000 0.000000" charge=0
C	-1.548138	0.684481	-0.003386	6
C	-0.059088	0.687801	0.003444	6
C	0.730402	1.824451	0.012754	6
S	2.375202	1.370421	0.017724	16
N	2.100182	-0.258829	0.008094	7
C	0.785302	-0.483639	0.001244	6
C	0.333632	-1.903538	-0.008316	6
H	-1.949868	1.703001	0.002854	1
H	-1.933038	0.164931	0.879894	1
H	-1.924748	0.178881	-0.898246	1
H	0.431732	2.862861	0.016694	1
H	-0.757698	-1.985368	-0.003316	1
H	0.712542	-2.430408	0.873704	1
H	0.703582	-2.415049	-0.903136	1
Es	2.249261	1.325908	0.012980	99
Es	2.455140	1.288793	0.018583	99
Es	0.536558	2.517481	0.015560	99
Es	-0.059123	0.687776	0.003449	99
Es	-0.794728	0.679910	0.000062	99
Es	-1.816260	1.377190	0.000902	99
Es	1.539896	-0.291830	0.270989	99
Es	2.374817	1.370789	0.023424	99
Es	0.355078	1.173041	0.309024	99
Es	2.377771	-0.480085	0.008305	99
Es	0.730573	1.824490	0.012758	99
Es	-1.548073	0.684479	-0.003387	99
Es	0.329491	0.080193	0.001984	99
Es	-1.798251	0.331565	0.587078	99
Es	0.588680	-2.242594	0.569614	99
Es	2.375542	1.370356	0.026293	99
Es	2.812296	1.624712	0.020988	99
Es	0.785339	-0.483657	0.001250	99
Es	0.333629	-1.903478	-0.008314	99
Es	1.542322	-0.289056	-0.260155	99
Es	0.358296	1.173767	-0.293513	99
Es	0.581965	-2.231061	-0.594590	99
Es	-0.414225	-1.957451	-0.005101	99
Es	2.419998	1.494638	0.008077	99
Es	2.099763	-0.258409	0.008086	99
Es	-1.792892	0.340785	-0.601630	99
Es	0.550957	-1.180989	-0.003391	99
Es	2.153376	1.337990	0.015151	99
Es	1.508766	1.657920	0.016190	99
Es	2.203701	0.434049	0.012048	99
44
Properties=species:S:1:pos:R:3:Z:I:1 energy=-645.4805250291728 field_type=dipole dipole="0.000000 0.000000 0.000000" charge=0
C	-1.548138	0.684481	-0.003386	6
C	-0.059088	0.687801	0.003444	6
C	0.730402	1.824451	0.012754	6
S	2.375202	1.370421	0.017724	16
N	2.100182	-0.258829	0.008094	7
C	0.785302	-0.483639	0.001244	6
C	0.333632	-1.903538	-0.008316	6
H	-1.949868	1.703001	0.002854	1
H	-1.933038	0.164931	0.879894	1
H	-1.924748	0.178881	-0.898246	1
H	0.431732	2.862861	0.016694	1
H	-0.757698	-1.985368	-0.003316	1
H	0.712542	-2.430408	0.873704	1
H	0.703582	-2.415049	-0.903136	1
Es	-1.816782	1.377218	0.000813	99
Es	0.785339	-0.483657	0.001244	99
Es	-0.794496	0.679638	0.000122	99
Es	-1.792516	0.341277	-0.600928	99
Es	0.536428	2.517442	0.015493	99
Es	0.551793	-1.181046	-0.003571	99
Es	2.376829	-0.480593	0.008564	99
Es	1.539602	-0.291287	0.269996	99
Es	0.582098	-2.230913	-0.592587	99
Es	2.099820	-0.258439	0.008089	99
Es	-1.548075	0.684479	-0.003386	99
Es	-0.414701	-1.958852	-0.005241	99
Es	0.730573	1.824490	0.012751	99
Es	0.333631	-1.903476	-0.008314	99
Es	2.374704	1.370616	0.016613	99
Es	2.153281	1.339269	0.017391	99
Es	1.541836	-0.289128	-0.259371	99
Es	0.358896	1.172369	-0.292700	99
Es	2.491776	1.430906	0.021058	99
Es	2.374843	1.370474	0.023192	99
Es	-1.798548	0.331286	0.586437	99
Es	0.355085	1.173220	0.308046	99
Es	-0.059124	0.687776	0.003437	99
Es	2.355000	1.238865	0.017028	99
Es	2.204394	0.434207	0.011992	99
Es	1.509084	1.657658	0.015417	99
Es	2.812511	1.624704	0.020466	99
Es	0.588083	-2.241412	0.567946	99
Es	2.278247	1.439781	0.010461	99
Es	0.330053	0.080349	0.002251	99
44
Properties=species:S:1:pos:R:3:Z:I:1 energy=-645.4805250291728 field_type=dipole dipole="0.000000 0.000000 0.000000" charge=0
C	-1.548138	0.684481	-0.003386	6
C	-0.059088	0.687801	0.003444	6
C	0.730402	1.824451	0.012754	6
S	2.375202	1.370421	0.017724	16
N	2.100182	-0.258829	0.008094	7
C	0.785302	-0.483639	0.001244	6
C	0.333632	-1.903538	-0.008316	6
H	-1.949868	1.703001	0.002854	1
H	-1.933038	0.164931	0.879894	1
H	-1.924748	0.178881	-0.898246	1
H	0.431732	2.862861	0.016694	1
H	-0.757698	-1.985368	-0.003316	1
H	0.712542	-2.430408	0.873704	1
H	0.703582	-2.415049	-0.903136	1
Es	0.358019	1.175290	-0.291797	99
Es	-1.548074	0.684480	-0.003386	99
Es	-1.792578	0.341137	-0.600264	99
Es	0.536359	2.517478	0.015426	99
Es	-0.059125	0.687777	0.003449	99
Es	0.552592	-1.181133	-0.003449	99
Es	0.582041	-2.230510	-0.590940	99
Es	0.333629	-1.903476	-0.008316	99
Es	2.375168	1.370347	0.019156	99
Es	2.153349	1.340003	0.015163	99
Es	-1.817331	1.377223	0.000752	99
Es	0.356216	1.169495	0.307645	99
Es	2.205030	0.434321	0.012046	99
Es	0.785339	-0.483657	0.001243	99
Es	2.389851	1.238976	0.015141	99
Es	1.509231	1.657390	0.015880	99
Es	-0.415040	-1.960002	-0.005408	99
Es	0.730573	1.824491	0.012745	99
Es	0.587574	-2.240628	0.566338	99
Es	2.099766	-0.258411	0.008098	99
Es	2.470953	1.462407	0.018315	99
Es	2.376112	-0.481169	0.008336	99
Es	0.330512	0.080610	0.001764	99
Es	1.541789	-0.288458	-0.258366	99
Es	1.539217	-0.291443	0.269276	99
Es	-0.794281	0.679354	0.000060	99
Es	2.263795	1.408587	0.019485	99
Es	2.812418	1.624946	0.022057	99
Es	-1.798320	0.331587	0.585872	99
Es	2.374877	1.370208	0.016391	99
44
Properties=species:S:1:pos:R:3:Z:I:1 energy=-645.4805250291728 field_type=dipole dipole="0.000000 0.000000 0.000000" charge=0
C	-1.548138	0.684481	-0.003386	6
C	-0.059088	0.687801	0.003444	6
C	0.730402	1.824451	0.012754	6
S	2.375202	1.370421	0.017724	16
N	2.100182	-0.258829	0.008094	7
C	0.785302	-0.483639	0.001244	6
C	0.333632	-1.903538	-0.008316	6
H	-1.949868	1.703001	0.002854	1
H	-1.933038	0.164931	0.879894	1
H	-1.924748	0.178881	-0.898246	1
H	0.431732	2.862861	0.016694	1
H	-0.757698	-1.985368	-0.003316	1
H	0.712542	-2.430408	0.873704	1
H	0.703582	-2.415049	-0.903136	1
Es	-1.817816	1.377451	0.000808	99
Es	1.542446	-0.286846	-0.257041	99
Es	1.538045	-0.292873	0.267982	99
Es	2.153078	1.340624	0.017506	99
Es	-0.059125	0.687774	0.003436	99
Es	0.330944	0.080633	0.002264	99
Es	2.099765	-0.258412	0.008093	99
Es	0.588354	-2.241342	0.564886	99
Es	2.812594	1.624789	0.021726	99
Es	0.785340	-0.483657	0.001247	99
Es	0.359728	1.170778	-0.291205	99
Es	-1.798218	0.331548	0.585231	99
Es	2.297774	1.449798	0.021916	99
Es	0.730573	1.824491	0.012754	99
Es	0.355228	1.173793	0.306642	99
Es	2.499406	1.415845	0.022480	99
Es	0.553147	-1.181176	-0.003520	99
Es	-0.794152	0.679127	0.000080	99
Es	2.375151	1.370658	0.013113	99
Es	2.326908	1.244114	0.016725	99
Es	0.536216	2.517616	0.015425	99
Es	2.204820	0.434514	0.011882	99
Es	0.333630	-1.903475	-0.008316	99
Es	1.509297	1.657176	0.014779	99
Es	2.376185	-0.482035	0.008166	99
Es	-1.792391	0.341276	-0.599700	99
Es	2.375182	1.370403	0.013557	99
Es	-0.415150	-1.961005	-0.005069	99
Es	-1.548075	0.684478	-0.003385	99
Es	0.580777	-2.228845	-0.589753	99
44
Properties=species:S:1:pos:R:3:Z:I:1 energy=-645.4805250291728 field_type=dipole dipole="0.000000 0.000000 0.000000" charge=0
C	-1.548138	0.684481	-0.003386	6
C	-0.059088	0.687801	0.003444	6
C	0.730402	1.824451	0.012754	6
S	2.375202	1.370421	0.017724	16
N	2.100182	-0.258829	0.008094	7
C	0.785302	-0.483639	0.001244	6
C	0.333632	-1.903538	-0.008316	6
H	-1.949868	1.703001	0.002854	1
H	-1.933038	0.164931	0.879894	1
H	-1.924748	0.178881	-0.898246	1
H	0.431732	2.862861	0.016694	1
H	-0.757698	-1.985368	-0.003316	1
H	0.712542	-2.430408	0.873704	1
H	0.703582	-2.415049	-0.903136	1
Es	0.536073	2.517679	0.015357	99
Es	0.331211	0.080749	0.002109	99
Es	-1.548074	0.684478	-0.003384	99
Es	0.354514	1.176862	0.305610	99
Es	2.250634	1.318574	0.018176	99
Es	1.539451	-0.290157	0.267333	99
Es	1.509400	1.657030	0.015821	99
Es	2.812310	1.625139	0.021319	99
Es	-1.818213	1.377553	0.000658	99
Es	2.451410	1.295767	0.014716	99
Es	0.333631	-1.903476	-0.008315	99
Es	0.588300	-2.241320	0.563974	99
Es	2.152958	1.341085	0.015232	99
Es	2.204912	0.434637	0.012997	99
Es	-1.791765	0.342014	-0.599067	99
Es	2.099759	-0.258390	0.008083	99
Es	0.730574	1.824490	0.012759	99
Es	0.360843	1.167306	-0.290254	99
Es	0.580335	-2.227943	-0.588226	99
Es	2.375922	-0.482589	0.008283	99
Es	0.785339	-0.483658	0.001243	99
Es	1.540697	-0.289272	-0.256348	99
Es	2.375164	1.370361	0.018446	99
Es	2.422430	1.495407	0.019478	99
Es	-0.415355	-1.961783	-0.005618	99
Es	-0.059120	0.687775	0.003446	99
Es	-0.794054	0.678923	0.000027	99
Es	0.553861	-1.181374	-0.003615	99
Es	-1.798664	0.330944	0.584793	99
Es	2.375180	1.370412	0.017678	99
44
Properties=species:S:1:pos:R:3:Z:I:1 energy=-645.4805250291728 field_type=dipole dipole="0.000000 0.000000 0.000000" charge=0
C	-1.548138	0.684481	-0.003386	6
C	-0.059088	0.687801	0.003444	6
C	0.730402	1.824451	0.012754	6
S	2.375202	1.370421	0.017724	16
N	2.100182	-0.258829	0.008094	7
C	0.785302	-0.483639	0.001244	6
C	0.333632	-1.903538	-0.008316	6
H	-1.949868	1.703001	0.002854	1
H	-1.933038	0.164931	0.879894	1
H	-1.924748	0.178881	-0.898246	1
H	0.431732	2.862861	0.016694	1
H	-0.757698	-1.985368	-0.003316	1
H	0.712542	-2.430408	0.873704	1
H	0.703582	-2.415049	-0.903136	1
Es	2.812294	1.625289	0.020360	99
Es	1.540689	-0.288137	0.267233	99
Es	0.536079	2.517584	0.015885	99
Es	-1.796775	0.333436	0.584404	99
Es	2.205310	0.434650	0.010946	99
Es	1.539299	-0.290970	-0.255723	99
Es	2.099803	-0.258431	0.008093	99
Es	0.730573	1.824490	0.012755	99
Es	-0.415361	-1.962364	-0.004501	99
Es	0.333629	-1.903479	-0.008314	99
Es	0.785339	-0.483658	0.001239	99
Es	0.351999	1.196184	-0.284190	99
Es	0.584000	-2.232875	-0.588254	99
Es	0.331406	0.080860	0.000868	99
Es	2.153092	1.341607	0.015789	99
Es	2.255206	1.308337	0.015302	99
Es	2.375167	1.370611	0.015690	99
Es	2.460574	1.302546	0.022438	99
Es	-1.818335	1.377429	0.001048	99
Es	2.375447	-0.482544	0.007721	99
Es	0.584429	-2.235816	0.562252	99
Es	-0.793935	0.678785	0.000324	99
Es	2.408401	1.498626	0.022403	99
Es	0.363289	1.147303	0.300834	99
Es	-1.548073	0.684479	-0.003386	99
Es	2.375382	1.370334	0.013518	99
Es	1.509524	1.656949	0.016829	99
Es	-1.793661	0.339587	-0.599198	99
Es	0.553994	-1.181367	-0.003092	99
Es	-0.059123	0.687776	0.003434	99
44
Properties=species:S:1:pos:R:3:Z:I:1 energy=-645.4805250291728 field_type=dipole dipole="0.000000 0.000000 0.000000" charge=0
C	-1.548138	0.684481	-0.003386	6
C	-0.059088	0.687801	0.003444	6
C	0.730402	1.824451	0.012754	6
S	2.375202	1.370421	0.017724	16
N	2.100182	-0.258829	0.008094	7
C	0.785302	-0.483639	0.001244	6
C	0.333632	-1.903538	-0.008316	6
H	-1.949868	1.703001	0.002854	1
H	-1.933038	0.164931	0.879894	1
H	-1.924748	0.178881	-0.898246	1
H	0.431732	2.862861	0.016694	1
H	-0.757698	-1.985368	-0.003316	1
H	0.712542	-2.430408	0.873704	1
H	0.703582	-2.415049	-0.903136	1
Es	0.553759	-1.181302	-0.004223	99
Es	0.333637	-1.903483	-0.008307	99
Es	2.205895	0.434523	0.013774	99
Es	2.375106	1.370384	0.019106	99
Es	0.577163	-2.223598	-0.586211	99
Es	0.331339	0.080869	0.003983	99
Es	0.536236	2.517511	0.014908	99
Es	0.785339	-0.483657	0.001249	99
Es	2.323220	1.245167	0.014766	99
Es	0.370318	1.135411	-0.276392	99
Es	0.345226	1.207257	0.290196	99
Es	2.500239	1.411835	0.020491	99
Es	0.591364	-2.245367	0.563570	99
Es	0.730573	1.824490	0.012755	99
Es	2.375169	1.370418	0.017489	99
Es	2.099763	-0.258403	0.008091	99
Es	-0.415312	-1.962126	-0.006475	99
Es	1.536120	-0.295384	0.266770	99
Es	-0.794047	0.678848	-0.000248	99
Es	2.374802	-0.481662	0.009094	99
Es	2.300725	1.453015	0.015853	99
Es	-1.548074	0.684479	-0.003385	99
Es	2.812569	1.625052	0.021651	99
Es	-1.818091	1.377346	0.000434	99
Es	-1.800469	0.328607	0.584834	99
Es	2.152658	1.342449	0.018443	99
Es	1.543994	-0.284415	-0.256685	99
Es	1.509653	1.656858	0.012541	99
Es	-1.790088	0.344320	-0.598803	99
Es	-0.059124	0.687776	0.003446	99
44
Properties=species:S:1:pos:R:3:Z:I:1 energy=-645.4805250291728 field_type=dipole dipole="0.000000 0.000000 0.000000" charge=0
C	-1.548138	0.684481	-0.003386	6
C	-0.059088	0.687801	0.003444	6
C	0.730402	1.824451	0.012754	6
S	2.375202	1.370421	0.017724	16
N	2.100182	-0.258829	0.008094	7
C	0.785302	-0.483639	0.001244	6
C	0.333632	-1.903538	-0.008316	6
H	-1.949868	1.703001	0.002854	1
H	-1.933038	0.164931	0.879894	1
H	-1.924748	0.178881	-0.898246	1
H	0.431732	2.862861	0.016694	1
H	-0.757698	-1.985368	-0.003316	1
H	0.712542	-2.430408	0.873704	1
H	0.703582	-2.415049	-0.903136	1
Es	-0.059124	0.687776	0.003439	99
Es	-1.548075	0.684478	-0.003384	99
Es	0.554161	-1.181445	-0.002701	99
Es	0.730573	1.824490	0.012755	99
Es	0.333631	-1.903475	-0.008315	99
Es	2.812278	1.625398	0.021676	99
Es	2.375172	1.370366	0.017909	99
Es	0.536225	2.517513	0.016401	99
Es	-0.793990	0.678771	0.000457	99
Es	1.541301	-0.287881	0.268014	99
Es	1.509691	1.656728	0.019434	99
Es	2.451482	1.295895	0.013900	99
Es	2.374833	-0.481938	0.006992	99
Es	2.099792	-0.258425	0.008086	99
Es	-1.796265	0.334021	0.584241	99
Es	0.785339	-0.483658	0.001243	99
Es	2.250472	1.318840	0.019271	99
Es	-1.818271	1.377342	0.001350	99
Es	0.585148	-2.234344	-0.588095	99
Es	0.345934	1.215146	-0.269240	99
Es	-1.794189	0.338939	-0.599496	99
Es	2.205777	0.434650	0.009795	99
Es	2.422334	1.495091	0.021443	99
Es	0.369580	1.127142	0.287070	99
Es	0.331542	0.080945	-0.000728	99
Es	1.538793	-0.291652	-0.255561	99
Es	2.152563	1.342843	0.013183	99
Es	-0.415421	-1.962457	-0.004162	99
Es	0.583050	-2.234149	0.561076	99
Es	2.375330	1.370266	0.016656	99
44
Properties=species:S:1:pos:R:3:Z:I:1 energy=-645.4805250291728 field_type=dipole dipole="0.000000 0.000000 0.000000" charge=0
C	-1.548138	0.684481	-0.003386	6
C	-0.059088	0.687801	0.003444	6
C	0.730402	1.824451	0.012754	6
S	2.375202	1.370421	0.017724	16
N	2.100182	-0.258829	0.008094	7
C	0.785302	-0.483639	0.001244	6
C	0.333632	-1.903538	-0.008316	6
H	-1.949868	1.703001	0.002854	1
H	-1.933038	0.164931	0.879894	1
H	-1.924748	0.178881	-0.898246	1
H	0.431732	2.862861	0.016694	1
H	-0.757698	-1.985368	-0.003316	1
H	0.712542	-2.430408	0.873704	1
H	0.703582	-2.415049	-0.903136	1
Es	1.509820	1.656571	0.020882	99
Es	2.375164	1.370401	0.017695	99
Es	1.539170	-0.290568	-0.256333	99
Es	0.372621	1.117358	0.276974	99
Es	2.374504	-0.481379	0.006155	99
Es	2.099781	-0.258418	0.008090	99
Es	2.206143	0.434482	0.009295	99
Es	2.304519	1.451046	0.022972	99
Es	0.536295	2.517486	0.016446	99
Es	2.812529	1.625192	0.022190	99
Es	0.333632	-1.903475	-0.008316	99
Es	0.583260	-2.234336	0.561187	99
Es	-0.415351	-1.962274	-0.003745	99
Es	-0.059126	0.687777	0.003437	99
Es	-1.817912	1.377118	0.001492	99
Es	-1.548075	0.684479	-0.003385	99
Es	2.318867	1.246641	0.014281	99
Es	2.500809	1.412313	0.015978	99
Es	-0.794053	0.678894	0.000397	99
Es	-1.795517	0.337476	-0.599650	99
Es	0.343100	1.224337	-0.258431	99
Es	0.553804	-1.181366	-0.002404	99
Es	0.785339	-0.483657	0.001242	99
Es	1.540814	-0.289082	0.269190	99
Es	2.375169	1.370385	0.017759	99
Es	0.585170	-2.234410	-0.588865	99
Es	2.152351	1.343354	0.012308	99
Es	0.331504	0.080889	-0.001235	99
Es	-1.795242	0.335498	0.584350	99
Es	0.730573	1.824490	0.012754	99
44
Properties=species:S:1:pos:R:3:Z:I:1 energy=-645.4805250291728 field_type=dipole dipole="0.000000 0.000000 0.000000" charge=0
C	-1.548138	0.684481	-0.003386	6
C	-0.059088	0.687801	0.003444	6
C	0.730402	1.824451	0.012754	6
S	2.375202	1.370421	0.017724	16
N	2.100182	-0.258829	0.008094	7
C	0.785302	-0.483639	0.001244	6
C	0.333632	-1.903538	-0.008316	6
H	-1.949868	1.703001	0.002854	1
H	-1.933038	0.164931	0.879894	1
H	-1.924748	0.178881	-0.898246	1
H	0.431732	2.862861	0.016694	1
H	-0.757698	-1.985368	-0.003316	1
H	0.712542	-2.430408	0.873704	1
H	0.703582	-2.415049	-0.903136	1
Es	0.730573	1.824490	0.012753	99
Es	2.812338	1.625442	0.021880	99
Es	0.333633	-1.903476	-0.008311	99
Es	0.536309	2.517366	0.014502	99
Es	0.331603	0.080946	0.005315	99
Es	0.375445	1.116884	-0.258310	99
Es	2.397858	1.500218	0.014008	99
Es	2.373924	-0.480613	0.009759	99
Es	2.152377	1.343652	0.018063	99
Es	-1.801413	0.327611	0.585072	99
Es	0.592076	-2.246237	0.563226	99
Es	-0.059124	0.687776	0.003446	99
Es	-1.548073	0.684479	-0.003386	99
Es	-0.415379	-1.962410	-0.006906	99
Es	0.339837	1.224223	0.270946	99
Es	2.099835	-0.258488	0.008095	99
Es	-1.789379	0.345313	-0.598689	99
Es	1.543428	-0.286135	-0.258345	99
Es	0.785339	-0.483657	0.001244	99
Es	0.553818	-1.181335	-0.004556	99
Es	1.509944	1.656668	0.010882	99
Es	-0.794013	0.678903	-0.000352	99
Es	2.375206	1.370353	0.016179	99
Es	0.576264	-2.222362	-0.584977	99
Es	-1.817920	1.376950	0.000148	99
Es	2.467059	1.309616	0.021962	99
Es	2.375175	1.370378	0.017329	99
Es	2.259461	1.299964	0.019242	99
Es	1.536938	-0.293722	0.268029	99
Es	2.206525	0.434426	0.014464	99
44
Properties=species:S:1:pos:R:3:Z:I:1 energy=-645.4805250291728 field_type=dipole dipole="0.000000 0.000000 0.000000" charge=0
C	-1.548138	0.684481	-0.003386	6
C	-0.059088	0.687801	0.003444	6
C	0.730402	1.824451	0.012754	6
S	2.375202	1.370421	0.017724	16
N	2.100182	-0.258829	0.008094	7
C	0.785302	-0.483639	0.001244	6
C	0.333632	-1.903538	-0.008316	6
H	-1.949868	1.703001	0.002854	1
H	-1.933038	0.164931	0.879894	1
H	-1.924748	0.178881	-0.898246	1
H	0.431732	2.862861	0.016694	1
H	-0.757698	-1.985368	-0.003316	1
H	0.712542	-2.430408	0.873704	1
H	0.703582	-2.415049	-0.903136	1
Es	0.333631	-1.903478	-0.008317	99
Es	0.331685	0.080951	0.004896	99
Es	2.451237	1.300785	0.022207	99
Es	2.206426	0.434512	0.014459	99
Es	0.730573	1.824491	0.012755	99
Es	1.532626	-0.300952	0.263049	99
Es	-0.415382	-1.962686	-0.007077	99
Es	0.592095	-2.246301	0.562863	99
Es	1.509798	1.656662	0.011325	99
Es	-0.793957	0.678820	-0.000384	99
Es	-1.548074	0.684479	-0.003386	99
Es	-1.790108	0.344446	-0.598848	99
Es	0.785339	-0.483658	0.001243	99
Es	0.576120	-2.222021	-0.584564	99
Es	-1.800618	0.328566	0.584866	99
Es	2.375139	1.370354	0.019094	99
Es	2.812330	1.625412	0.022141	99
Es	0.374921	1.119062	-0.260514	99
Es	-0.059124	0.687776	0.003446	99
Es	0.340769	1.221977	0.273701	99
Es	2.099802	-0.258427	0.008079	99
Es	2.252256	1.313026	0.010340	99
Es	2.374074	-0.481212	0.009402	99
Es	-1.818077	1.377048	0.000433	99
Es	2.420419	1.496191	0.018518	99
Es	0.553942	-1.181364	-0.004510	99
Es	2.375353	1.370258	0.016640	99
Es	2.152664	1.343706	0.019716	99
Es	1.547551	-0.278693	-0.253507	99
Es	0.536253	2.517489	0.014645	99
44
Properties=species:S:1:pos:R:3:Z:I:1 energy=-645.4805250291728 field_type=dipole dipole="0.000000 0.000000 0.000000" charge=0
C	-1.548138	0.684481	-0.003386	6
C	-0.059088	0.687801	0.003444	6
C	0.730402	1.824451	0.012754	6
S	2.375202	1.370421	0.017724	16
N	2.100182	-0.258829	0.008094	7
C	0.785302	-0.483639	0.001244	6
C	0.333632	-1.903538	-0.008316	6
H	-1.949868	1.703001	0.002854	1
H	-1.933038	0.164931	0.879894	1
H	-1.924748	0.178881	-0.898246	1
H	0.431732	2.862861	0.016694	1
H	-0.757698	-1.985368	-0.003316	1
H	0.712542	-2.430408	0.873704	1
H	0.703582	-2.415049	-0.903136	1
Es	0.592246	-2.246486	0.563788	99
Es	-1.818164	1.377248	0.000007	99
Es	0.536146	2.517478	0.014303	99
Es	-0.059123	0.687776	0.003455	99
Es	2.152144	1.343115	0.019046	99
Es	2.812455	1.625118	0.021511	99
Es	0.376250	1.111533	-0.249661	99
Es	-1.789560	0.344908	-0.598319	99
Es	1.509860	1.656752	0.009707	99
Es	0.730574	1.824490	0.012754	99
Es	0.576211	-2.222411	-0.585022	99
Es	0.337697	1.229892	0.262202	99
Es	2.099790	-0.258418	0.008097	99
Es	0.553892	-1.181344	-0.004812	99
Es	2.368409	1.376335	0.023416	99
Es	0.785339	-0.483657	0.001246	99
Es	2.289773	1.262474	0.018995	99
Es	2.467861	1.469517	0.015867	99
Es	-1.801034	0.328087	0.584896	99
Es	2.372924	1.372286	0.013364	99
Es	-0.415347	-1.962123	-0.007073	99
Es	-1.548074	0.684479	-0.003385	99
Es	2.205495	0.434577	0.014959	99
Es	0.331538	0.080886	0.005679	99
Es	2.375710	1.369960	0.017114	99
Es	1.537141	-0.293811	0.266644	99
Es	0.333635	-1.903477	-0.008308	99
Es	2.375247	-0.481994	0.009866	99
Es	-0.793984	0.678886	-0.000498	99
Es	1.544613	-0.284856	-0.257127	99
44
Properties=species:S:1:pos:R:3:Z:I:1 energy=-645.4805250291728 field_type=dipole dipole="0.000000 0.000000 0.000000" charge=0
C	-1.548138	0.684481	-0.003386	6
C	-0.059088	0.687801	0.003444	6
C	0.730402	1.824451	0.012754	6
S	2.375202	1.370421	0.017724	16
N	2.100182	-0.258829	0.008094	7
C	0.785302	-0.483639	0.001244	6
C	0.333632	-1.903538	-0.008316	6
H	-1.949868	1.703001	0.002854	1
H	-1.933038	0.164931	0.879894	1
H	-1.924748	0.178881	-0.898246	1
H	0.431732	2.862861	0.016694	1
H	-0.757698	-1.985368	-0.003316	1
H	0.712542	-2.430408	0.873704	1
H	0.703582	-2.415049	-0.903136	1
Es	2.152252	1.344352	0.018736	99
Es	0.730574	1.824491	0.012757	99
Es	0.536400	2.517355	0.014396	99
Es	-0.794002	0.678962	-0.000331	99
Es	0.575613	-2.221541	-0.584334	99
Es	1.543579	-0.285860	-0.258864	99
Es	-1.789001	0.345847	-0.598661	99
Es	1.536620	-0.294042	0.268218	99
Es	2.459933	1.304452	0.018708	99
Es	1.510017	1.656532	0.009776	99
Es	-1.817828	1.376755	0.000078	99
Es	-1.801912	0.327085	0.585077	99
Es	2.375146	1.370433	0.018016	99
Es	0.378038	1.108259	-0.246462	99
Es	2.099764	-0.258408	0.008097	99
Es	0.592670	-2.246906	0.562926	99
Es	0.337543	1.232000	0.259004	99
Es	0.785339	-0.483658	0.001244	99
Es	2.375203	1.370353	0.020679	99
Es	-0.059123	0.687776	0.003446	99
Es	2.408674	1.498724	0.014876	99
Es	0.331678	0.080923	0.005425	99
Es	2.206823	0.434380	0.015048	99
Es	2.812333	1.625537	0.021325	99
Es	2.255770	1.306561	0.016931	99
Es	-0.415379	-1.962557	-0.006967	99
Es	0.333630	-1.903475	-0.008315	99
Es	2.373617	-0.480258	0.010039	99
Es	-1.548073	0.684479	-0.003386	99
Es	0.553765	-1.181330	-0.004772	99
44
Properties=species:S:1:pos:R:3:Z:I:1 energy=-645.4805250291728 field_type=dipole dipole="0.000000 0.000000 0.000000" charge=0
C	-1.548138	0.684481	-0.003386	6
C	-0.059088	0.687801	0.003444	6
C	0.730402	1.824451	0.012754	6
S	2.375202	1.370421	0.017724	16
N	2.100182	-0.258829	0.008094	7
C	0.785302	-0.483639	0.001244	6
C	0.333632	-1.903538	-0.008316	6
H	-1.949868	1.703001	0.002854	1
H	-1.933038	0.164931	0.879894	1
H	-1.924748	0.178881	-0.898246	1
H	0.431732	2.862861	0.016694	1
H	-0.757698	-1.985368	-0.003316	1
H	0.712542	-2.430408	0.873704	1
H	0.703582	-2.415049	-0.903136	1
Es	2.445245	1.295359	0.017723	99
Es	0.553853	-1.181328	-0.004898	99
Es	2.374876	1.370457	0.022725	99
Es	-0.059123	0.687776	0.003440	99
Es	2.099762	-0.258397	0.008111	99
Es	-1.548074	0.684479	-0.003386	99
Es	0.336887	1.234076	0.255404	99
Es	0.785339	-0.483658	0.001247	99
Es	0.730573	1.824490	0.012755	99
Es	2.373459	-0.480443	0.009962	99
Es	0.536408	2.517379	0.014241	99
Es	-0.794001	0.678839	-0.000498	99
Es	0.333637	-1.903483	-0.008308	99
Es	1.542746	-0.287490	-0.259015	99
Es	1.510024	1.656488	0.009432	99
Es	2.151825	1.344837	0.020689	99
Es	0.378913	1.105978	-0.243087	99
Es	-1.789200	0.345541	-0.598520	99
Es	2.430225	1.492546	0.014474	99