41
Properties=species:S:1:pos:R:3:Z:I:1 energy=-644.2887670134668 field_type=dipole dipole="0.000000 0.000000 0.000000" charge=0
C	-0.633630	-2.089107	0.244574	6
C	-1.143710	-0.874217	-0.003566	6
C	-0.431220	0.368943	-0.108466	6
N	-1.090030	1.503113	-0.361286	7
S	-0.024610	2.766253	-0.426806	16
C	1.371680	1.834523	-0.116556	6
C	0.990450	0.518323	0.039214	6
H	-1.289370	-2.953277	0.298174	1
H	0.424840	-2.265357	0.399264	1
H	-2.221560	-0.803337	-0.144376	1
H	2.357610	2.273453	-0.065436	1
H	1.689550	-0.279317	0.245264	1
Es	-0.024610	2.766245	-0.426812	99
Es	1.371600	1.834670	-0.116596	99
Es	-1.089454	1.503066	-0.361210	99
Es	-1.143711	-0.874108	-0.003576	99
Es	1.078228	1.173691	0.260034	99
Es	0.290808	0.403107	-0.027080	99
Es	0.012250	2.873312	-0.464466	99
Es	-1.865263	-0.820030	-0.098913	99
Es	-0.731487	0.998328	-0.518767	99
Es	-1.070269	-2.675100	0.281856	99
Es	0.083966	-2.209872	0.349705	99
Es	-0.618835	2.017067	-0.383547	99
Es	-0.775757	-0.254368	-0.054240	99
Es	0.028729	2.842432	-0.868305	99
Es	0.032992	2.677382	-0.484846	99
Es	-0.835001	-1.500016	-0.197737	99
Es	1.150227	1.082094	-0.338753	99
Es	-0.431248	0.368982	-0.108477	99
Es	0.741676	2.305133	-0.263936	99
Es	-0.072692	2.972209	-0.027990	99
Es	2.021166	2.132963	-0.084213	99
Es	-0.795651	1.080406	0.016521	99
Es	-1.436932	1.580737	-0.414733	99
Es	1.453367	-0.023657	0.177743	99
Es	0.990443	0.518313	0.039210	99
Es	-0.911206	-1.403170	0.433189	99
Es	-0.145616	2.754688	-0.436442	99
Es	-0.633586	-2.089183	0.244585	99
Es	0.002479	2.756074	-0.320744	99
41
Properties=species:S:1:pos:R:3:Z:I:1 energy=-644.2887670134668 field_type=dipole dipole="0.000000 0.000000 0.000000" charge=0
C	-0.633630	-2.089107	0.244574	6
C	-1.143710	-0.874217	-0.003566	6
C	-0.431220	0.368943	-0.108466	6
N	-1.090030	1.503113	-0.361286	7
S	-0.024610	2.766253	-0.426806	16
C	1.371680	1.834523	-0.116556	6
C	0.990450	0.518323	0.039214	6
H	-1.289370	-2.953277	0.298174	1
H	0.424840	-2.265357	0.399264	1
H	-2.221560	-0.803337	-0.144376	1
H	2.357610	2.273453	-0.065436	1
H	1.689550	-0.279317	0.245264	1
Es	-0.113276	3.255020	-0.512096	99
Es	-0.024697	2.766331	-0.426725	99
Es	-0.125935	2.783808	-0.478261	99
Es	0.081885	-2.207894	0.349095	99
Es	1.070822	1.167699	0.257580	99
Es	1.145381	1.078940	-0.335829	99
Es	-1.089433	1.503069	-0.361211	99
Es	1.453760	-0.026647	0.178231	99
Es	-0.835381	-1.499945	-0.195285	99
Es	-0.627207	2.025257	-0.386210	99
Es	-1.430128	1.572882	-0.413104	99
Es	0.012772	2.638917	-0.418613	99
Es	0.990440	0.518310	0.039221	99
Es	0.074374	2.564348	-0.383698	99
Es	-0.794487	1.080810	0.015343	99
Es	2.019775	2.131846	-0.084353	99
Es	-0.431248	0.368982	-0.108477	99
Es	-0.774730	-0.253658	-0.054342	99
Es	0.750184	2.309280	-0.264289	99
Es	-1.071115	-2.677976	0.282217	99
Es	-0.730844	0.998741	-0.516873	99
Es	-0.633585	-2.089190	0.244585	99
Es	1.371599	1.834676	-0.116582	99
Es	-0.043489	2.779342	-0.362323	99
Es	0.290325	0.407292	-0.028023	99
Es	0.058180	2.860984	-0.447527	99
Es	-1.862754	-0.821791	-0.098291	99
Es	-1.143710	-0.874104	-0.003583	99
Es	-0.910868	-1.403932	0.430883	99
41
Properties=species:S:1:pos:R:3:Z:I:1 energy=-644.2887670134668 field_type=dipole dipole="0.000000 0.000000 0.000000" charge=0
C	-0.633630	-2.089107	0.244574	6
C	-1.143710	-0.874217	-0.003566	6
C	-0.431220	0.368943	-0.108466	6
N	-1.090030	1.503113	-0.361286	7
S	-0.024610	2.766253	-0.426806	16
C	1.371680	1.834523	-0.116556	6
C	0.990450	0.518323	0.039214	6
H	-1.289370	-2.953277	0.298174	1
H	0.424840	-2.265357	0.399264	1
H	-2.221560	-0.803337	-0.144376	1
H	2.357610	2.273453	-0.065436	1
H	1.689550	-0.279317	0.245264	1
Es	-1.071313	-2.679472	0.282441	99
Es	0.075684	2.568689	-0.381741	99
Es	-0.112751	3.255547	-0.513105	99
Es	-0.728178	1.000376	-0.513800	99
Es	0.748562	2.310092	-0.264090	99
Es	-0.024625	2.766411	-0.425682	99
Es	0.289737	0.410259	-0.028582	99
Es	1.140259	1.075764	-0.332736	99
Es	-0.088861	2.770762	-0.394307	99
Es	0.990441	0.518307	0.039219	99
Es	-0.633585	-2.089189	0.244592	99
Es	-0.774255	-0.253334	-0.054446	99
Es	-1.861829	-0.823160	-0.098136	99
Es	-1.089430	1.503060	-0.361206	99
Es	1.453813	-0.028210	0.178553	99
Es	-0.630032	2.029670	-0.387089	99
Es	1.070364	1.166333	0.254439	99
Es	-0.835662	-1.499831	-0.192462	99
Es	2.019382	2.130840	-0.084106	99
Es	-0.910671	-1.404230	0.428303	99
Es	1.371599	1.834676	-0.116586	99
Es	0.081283	-2.206329	0.348798	99
Es	-0.431247	0.368979	-0.108476	99
Es	-1.143710	-0.874102	-0.003580	99
Es	-1.427374	1.567510	-0.411871	99
Es	0.011050	2.892888	-0.456929	99
Es	-0.034461	2.764075	-0.440436	99
Es	-0.791804	1.080391	0.012349	99
Es	0.014227	2.634625	-0.417867	99
41
Properties=species:S:1:pos:R:3:Z:I:1 energy=-644.2887670134668 field_type=dipole dipole="0.000000 0.000000 0.000000" charge=0
C	-0.633630	-2.089107	0.244574	6
C	-1.143710	-0.874217	-0.003566	6
C	-0.431220	0.368943	-0.108466	6
N	-1.090030	1.503113	-0.361286	7
S	-0.024610	2.766253	-0.426806	16
C	1.371680	1.834523	-0.116556	6
C	0.990450	0.518323	0.039214	6
H	-1.289370	-2.953277	0.298174	1
H	0.424840	-2.265357	0.399264	1
H	-2.221560	-0.803337	-0.144376	1
H	2.357610	2.273453	-0.065436	1
H	1.689550	-0.279317	0.245264	1
Es	-0.911338	-1.404294	0.427971	99
Es	0.060208	2.770371	-0.421470	99
Es	-0.061806	2.635321	-0.413781	99
Es	0.290104	0.411533	-0.033896	99
Es	-0.024790	2.766523	-0.424201	99
Es	2.018439	2.130173	-0.082700	99
Es	-1.422102	1.563964	-0.412071	99
Es	1.010067	1.114270	0.200635	99
Es	1.453114	-0.029495	0.178512	99
Es	-0.024560	2.766178	-0.426968	99
Es	1.371600	1.834675	-0.116585	99
Es	0.079892	-2.205237	0.348872	99
Es	-0.112983	3.256544	-0.508939	99
Es	-0.633194	2.032510	-0.392386	99
Es	-0.728475	0.999581	-0.512568	99
Es	-0.633585	-2.089189	0.244590	99
Es	-0.071938	2.890843	-0.447727	99
Es	-0.835029	-1.499939	-0.192077	99
Es	-1.070639	-2.680786	0.282064	99
Es	-1.089421	1.503062	-0.361206	99
Es	0.079970	2.569504	-0.389296	99
Es	1.195166	1.121320	-0.274191	99
Es	0.746555	2.311926	-0.257728	99
Es	-0.774269	-0.252966	-0.054481	99
Es	-0.789659	1.085782	0.012254	99
Es	-1.860199	-0.823955	-0.098317	99
Es	0.990442	0.518305	0.039208	99
Es	-0.431249	0.368980	-0.108472	99
Es	-1.143708	-0.874105	-0.003586	99
41
Properties=species:S:1:pos:R:3:Z:I:1 energy=-644.2887670134668 field_type=dipole dipole="0.000000 0.000000 0.000000" charge=0
C	-0.633630	-2.089107	0.244574	6
C	-1.143710	-0.874217	-0.003566	6
C	-0.431220	0.368943	-0.108466	6
N	-1.090030	1.503113	-0.361286	7
S	-0.024610	2.766253	-0.426806	16
C	1.371680	1.834523	-0.116556	6
C	0.990450	0.518323	0.039214	6
H	-1.289370	-2.953277	0.298174	1
H	0.424840	-2.265357	0.399264	1
H	-2.221560	-0.803337	-0.144376	1
H	2.357610	2.273453	-0.065436	1
H	1.689550	-0.279317	0.245264	1
Es	-0.637339	2.035509	-0.386462	99
Es	-0.835711	-1.500675	-0.194466	99
Es	-0.910793	-1.403798	0.430258	99
Es	0.014169	2.636733	-0.402291	99
Es	0.990441	0.518307	0.039216	99
Es	0.084474	2.572407	-0.382669	99
Es	0.288428	0.413765	-0.026233	99
Es	2.017595	2.129204	-0.084731	99
Es	0.077916	-2.204855	0.347934	99
Es	-0.774582	-0.252744	-0.054453	99
Es	-0.727367	1.007031	-0.517802	99
Es	-0.791398	1.086785	0.013787	99
Es	-1.089420	1.503063	-0.361211	99
Es	-1.416234	1.563321	-0.409158	99
Es	1.203172	1.190987	0.012828	99
Es	0.747260	2.311327	-0.267079	99
Es	0.997879	1.032084	-0.091926	99
Es	-0.111754	3.256000	-0.514046	99
Es	-1.858075	-0.823865	-0.097294	99
Es	1.371600	1.834675	-0.116589	99
Es	-1.069461	-2.681633	0.283213	99
Es	0.000363	2.897515	-0.449528	99
Es	1.451855	-0.030463	0.178620	99
Es	-0.024924	2.765828	-0.429056	99
Es	-1.143709	-0.874105	-0.003582	99
Es	-0.088244	2.762633	-0.427264	99
Es	-0.431249	0.368980	-0.108476	99
Es	-0.633585	-2.089188	0.244594	99
Es	-0.024695	2.766571	-0.424673	99
41
Properties=species:S:1:pos:R:3:Z:I:1 energy=-644.2887670134668 field_type=dipole dipole="0.000000 0.000000 0.000000" charge=0
C	-0.633630	-2.089107	0.244574	6
C	-1.143710	-0.874217	-0.003566	6
C	-0.431220	0.368943	-0.108466	6
N	-1.090030	1.503113	-0.361286	7
S	-0.024610	2.766253	-0.426806	16
C	1.371680	1.834523	-0.116556	6
C	0.990450	0.518323	0.039214	6
H	-1.289370	-2.953277	0.298174	1
H	0.424840	-2.265357	0.399264	1
H	-2.221560	-0.803337	-0.144376	1
H	2.357610	2.273453	-0.065436	1
H	1.689550	-0.279317	0.245264	1
Es	-0.034729	2.899829	-0.448526	99
Es	0.085181	2.572906	-0.381964	99
Es	-0.787022	1.093380	0.010664	99
Es	-0.910791	-1.403582	0.428558	99
Es	-0.774555	-0.252569	-0.054542	99
Es	-0.024899	2.766161	-0.426830	99
Es	-0.633586	-2.089189	0.244596	99
Es	1.451119	-0.031016	0.178691	99
Es	-0.835601	-1.500883	-0.192862	99
Es	0.988590	1.036665	-0.040317	99
Es	-0.111729	3.256155	-0.513790	99
Es	0.077601	-2.204184	0.347999	99
Es	-0.431247	0.368979	-0.108476	99
Es	-1.069353	-2.682187	0.283187	99
Es	0.746891	2.312028	-0.265061	99
Es	-0.016530	2.630642	-0.404585	99
Es	1.210533	1.184367	-0.036574	99
Es	-1.143711	-0.874107	-0.003583	99
Es	2.016982	2.129074	-0.084356	99
Es	1.371599	1.834675	-0.116589	99
Es	0.990441	0.518307	0.039219	99
Es	-0.022650	2.766540	-0.426110	99
Es	-1.857850	-0.824407	-0.097214	99
Es	-1.089411	1.503065	-0.361205	99
Es	-0.024229	2.765984	-0.428250	99
Es	-1.415143	1.561401	-0.409021	99
Es	0.289372	0.414016	-0.028670	99
Es	-0.638793	2.036448	-0.388720	99
Es	-0.729868	1.002899	-0.514208	99
41
Properties=species:S:1:pos:R:3:Z:I:1 energy=-644.2887670134668 field_type=dipole dipole="0.000000 0.000000 0.000000" charge=0
C	-0.633630	-2.089107	0.244574	6
C	-1.143710	-0.874217	-0.003566	6
C	-0.431220	0.368943	-0.108466	6
N	-1.090030	1.503113	-0.361286	7
S	-0.024610	2.766253	-0.426806	16
C	1.371680	1.834523	-0.116556	6
C	0.990450	0.518323	0.039214	6
H	-1.289370	-2.953277	0.298174	1
H	0.424840	-2.265357	0.399264	1
H	-2.221560	-0.803337	-0.144376	1
H	2.357610	2.273453	-0.065436	1
H	1.689550	-0.279317	0.245264	1
Es	0.289732	0.414455	-0.029336	99
Es	2.016411	2.128707	-0.083752	99
Es	0.990444	0.518304	0.039193	99
Es	-0.027095	2.765887	-0.428707	99
Es	-0.112124	3.257081	-0.508267	99
Es	-0.835499	-1.500393	-0.193889	99
Es	-0.024678	2.766221	-0.426886	99
Es	1.208095	1.186997	-0.019303	99
Es	-0.640569	2.037395	-0.389415	99
Es	-1.856731	-0.824496	-0.097051	99
Es	1.450572	-0.031531	0.178214	99
Es	-1.143709	-0.874104	-0.003579	99
Es	-0.910982	-1.404169	0.429633	99
Es	0.988560	1.029963	-0.056557	99
Es	-0.431251	0.368982	-0.108465	99
Es	0.746729	2.312845	-0.263684	99
Es	1.371596	1.834676	-0.116585	99
Es	0.087216	2.572390	-0.387409	99
Es	-0.633586	-2.089189	0.244594	99
Es	-0.027295	2.900519	-0.446399	99
Es	-0.774684	-0.252437	-0.054433	99
Es	-0.025593	2.766357	-0.425630	99
Es	-0.018593	2.630318	-0.406111	99
Es	-1.411173	1.560869	-0.409530	99
Es	-0.802426	1.052552	-0.033600	99
Es	-0.715200	1.046809	-0.470829	99
Es	0.076583	-2.203889	0.347614	99
Es	-1.068699	-2.682780	0.282837	99
Es	-1.089438	1.503057	-0.361208	99
41
Properties=species:S:1:pos:R:3:Z:I:1 energy=-644.2887670134668 field_type=dipole dipole="0.000000 0.000000 0.000000" charge=0
C	-0.633630	-2.089107	0.244574	6
C	-1.143710	-0.874217	-0.003566	6
C	-0.431220	0.368943	-0.108466	6
N	-1.090030	1.503113	-0.361286	7
S	-0.024610	2.766253	-0.426806	16
C	1.371680	1.834523	-0.116556	6
C	0.990450	0.518323	0.039214	6
H	-1.289370	-2.953277	0.298174	1
H	0.424840	-2.265357	0.399264	1
H	-2.221560	-0.803337	-0.144376	1
H	2.357610	2.273453	-0.065436	1
H	1.689550	-0.279317	0.245264	1
Es	-0.021258	2.766263	-0.426853	99
Es	1.371598	1.834676	-0.116583	99
Es	0.075646	-2.203466	0.347918	99
Es	-0.910778	-1.405025	0.430154	99
Es	-0.633584	-2.089189	0.244589	99
Es	-0.756736	1.118010	-0.080353	99
Es	-1.143706	-0.874106	-0.003593	99
Es	-0.431250	0.368980	-0.108474	99
Es	0.746694	2.312921	-0.264763	99
Es	-0.641518	2.037944	-0.389338	99
Es	1.449890	-0.031790	0.179061	99
Es	-1.855894	-0.824512	-0.097138	99
Es	-0.024627	2.766055	-0.427671	99
Es	-0.110955	3.255897	-0.516518	99
Es	1.213106	1.179727	-0.066092	99
Es	0.981423	1.033531	-0.010010	99
Es	-0.024634	2.766225	-0.426875	99
Es	-1.089430	1.503074	-0.361212	99
Es	-0.774717	-0.252394	-0.054623	99
Es	-0.025123	2.900331	-0.447823	99
Es	-1.068166	-2.683130	0.283777	99
Es	2.016231	2.128487	-0.084631	99
Es	0.990442	0.518306	0.039216	99
Es	-0.027521	2.630378	-0.404913	99
Es	-0.835902	-1.499672	-0.194554	99
Es	0.290286	0.414818	-0.029243	99
Es	-0.761518	0.984382	-0.423978	99
Es	-1.408850	1.560933	-0.407698	99
Es	0.087466	2.573742	-0.380319	99
41
Properties=species:S:1:pos:R:3:Z:I:1 energy=-644.2887670134668 field_type=dipole dipole="0.000000 0.000000 0.000000" charge=0
C	-0.633630	-2.089107	0.244574	6
C	-1.143710	-0.874217	-0.003566	6
C	-0.431220	0.368943	-0.108466	6
N	-1.090030	1.503113	-0.361286	7
S	-0.024610	2.766253	-0.426806	16
C	1.371680	1.834523	-0.116556	6
C	0.990450	0.518323	0.039214	6
H	-1.289370	-2.953277	0.298174	1
H	0.424840	-2.265357	0.399264	1
H	-2.221560	-0.803337	-0.144376	1
H	2.357610	2.273453	-0.065436	1
H	1.689550	-0.279317	0.245264	1
Es	1.212399	1.181121	-0.058000	99
Es	-0.835907	-1.499693	-0.195003	99
Es	-0.003847	2.768438	-0.420320	99
Es	0.980504	1.029950	-0.018137	99
Es	-1.067721	-2.683497	0.283859	99
Es	-0.633586	-2.089189	0.244592	99
Es	-1.855001	-0.824603	-0.096957	99
Es	-0.023962	2.765840	-0.428953	99
Es	-0.910768	-1.405041	0.430625	99
Es	0.990436	0.518310	0.039229	99
Es	-0.024350	2.766204	-0.427016	99
Es	-0.110945	3.256036	-0.515942	99
Es	0.089022	2.573718	-0.381849	99
Es	-1.406430	1.560722	-0.407103	99
Es	-0.770352	0.985085	-0.384815	99
Es	-0.041732	2.898384	-0.452680	99
Es	-0.774928	-0.252243	-0.054592	99
Es	1.371598	1.834674	-0.116591	99
Es	-1.143707	-0.874104	-0.003581	99
Es	1.449407	-0.032084	0.178993	99
Es	0.074789	-2.203276	0.347663	99
Es	-0.748695	1.118781	-0.120126	99
Es	-0.431249	0.368980	-0.108475	99
Es	2.015952	2.128418	-0.084647	99
Es	-0.029243	2.630449	-0.404812	99
Es	0.290434	0.415178	-0.029110	99
Es	-1.089399	1.503066	-0.361199	99
Es	0.746566	2.313230	-0.264655	99
Es	-0.642673	2.038540	-0.388933	99
41
Properties=species:S:1:pos:R:3:Z:I:1 energy=-644.2887670134668 field_type=dipole dipole="0.000000 0.000000 0.000000" charge=0
C	-0.633630	-2.089107	0.244574	6
C	-1.143710	-0.874217	-0.003566	6
C	-0.431220	0.368943	-0.108466	6
N	-1.090030	1.503113	-0.361286	7
S	-0.024610	2.766253	-0.426806	16
C	1.371680	1.834523	-0.116556	6
C	0.990450	0.518323	0.039214	6
H	-1.289370	-2.953277	0.298174	1
H	0.424840	-2.265357	0.399264	1
H	-2.221560	-0.803337	-0.144376	1
H	2.357610	2.273453	-0.065436	1
H	1.689550	-0.279317	0.245264	1
Es	1.449097	-0.032322	0.178877	99
Es	-0.026955	2.899574	-0.452097	99
Es	-0.775201	-0.252131	-0.054652	99
Es	-0.739638	1.118124	-0.170444	99
Es	0.290582	0.415451	-0.028958	99
Es	1.211600	1.182321	-0.050766	99
Es	-1.404315	1.560424	-0.407209	99
Es	-0.779569	0.988650	-0.334723	99
Es	2.015839	2.128280	-0.084564	99
Es	-1.089415	1.503063	-0.361203	99
Es	-0.035324	2.630616	-0.405685	99
Es	-0.835484	-1.500769	-0.195573	99
Es	0.074088	-2.203164	0.347612	99
Es	-0.024517	2.766940	-0.422440	99
Es	0.990439	0.518309	0.039220	99
Es	-0.911152	-1.403990	0.431213	99
Es	-0.110861	3.256273	-0.514745	99
Es	0.746601	2.313372	-0.264845	99
Es	0.089867	2.573738	-0.382743	99
Es	-0.431249	0.368980	-0.108473	99
Es	-1.143708	-0.874104	-0.003583	99
Es	-0.024617	2.766227	-0.426759	99
Es	-0.643711	2.039002	-0.389570	99
Es	-0.011869	2.766001	-0.426307	99
Es	-1.067315	-2.683746	0.283886	99
Es	-0.633586	-2.089189	0.244592	99
Es	1.371598	1.834675	-0.116592	99
Es	-1.854313	-0.824635	-0.096967	99
Es	0.979701	1.025427	-0.025039	99
41
Properties=species:S:1:pos:R:3:Z:I:1 energy=-644.2887670134668 field_type=dipole dipole="0.000000 0.000000 0.000000" charge=0
C	-0.633630	-2.089107	0.244574	6
C	-1.143710	-0.874217	-0.003566	6
C	-0.431220	0.368943	-0.108466	6
N	-1.090030	1.503113	-0.361286	7
S	-0.024610	2.766253	-0.426806	16
C	1.371680	1.834523	-0.116556	6
C	0.990450	0.518323	0.039214	6
H	-1.289370	-2.953277	0.298174	1
H	0.424840	-2.265357	0.399264	1
H	-2.221560	-0.803337	-0.144376	1
H	2.357610	2.273453	-0.065436	1
H	1.689550	-0.279317	0.245264	1
Es	0.990441	0.518308	0.039222	99
Es	-1.402846	1.560292	-0.407398	99
Es	1.210044	1.184437	-0.037441	99
Es	1.371598	1.834674	-0.116590	99
Es	-0.024258	2.630314	-0.405159	99
Es	-0.787911	0.994498	-0.281962	99
Es	-1.089394	1.503071	-0.361198	99
Es	-0.022734	2.766120	-0.427840	99
Es	0.746686	2.313304	-0.266072	99
Es	-0.633587	-2.089189	0.244594	99
Es	-1.853900	-0.824651	-0.096821	99
Es	1.448889	-0.032455	0.178761	99
Es	-1.143708	-0.874105	-0.003583	99
Es	0.980059	1.021815	-0.038683	99
Es	-0.731930	1.113294	-0.223758	99
Es	-0.911110	-1.404341	0.431423	99
Es	-0.110828	3.256447	-0.513779	99
Es	2.015662	2.128264	-0.084461	99
Es	-0.644264	2.039275	-0.389461	99
Es	-0.775156	-0.252107	-0.054632	99
Es	0.090818	2.573975	-0.381889	99
Es	-0.835600	-1.500455	-0.195769	99
Es	-0.024911	2.766100	-0.427571	99
Es	0.290529	0.415703	-0.028270	99
Es	-0.431249	0.368980	-0.108474	99
Es	0.073597	-2.202982	0.347400	99
Es	-0.026962	2.900590	-0.446117	99
Es	-0.024375	2.766244	-0.426833	99
Es	-1.066989	-2.684022	0.283819	99
41
Properties=species:S:1:pos:R:3:Z:I:1 energy=-644.2887670134668 field_type=dipole dipole="0.000000 0.000000 0.000000" charge=0
C	-0.633630	-2.089107	0.244574	6
C	-1.143710	-0.874217	-0.003566	6
C	-0.431220	0.368943	-0.108466	6
N	-1.090030	1.503113	-0.361286	7
S	-0.024610	2.766253	-0.426806	16
C	1.371680	1.834523	-0.116556	6
C	0.990450	0.518323	0.039214	6
H	-1.289370	-2.953277	0.298174	1
H	0.424840	-2.265357	0.399264	1
H	-2.221560	-0.803337	-0.144376	1
H	2.357610	2.273453	-0.065436	1
H	1.689550	-0.279317	0.245264	1
Es	0.746499	2.313738	-0.264600	99
Es	-0.024506	2.766230	-0.426525	99
Es	-0.431249	0.368980	-0.108472	99
Es	-0.644776	2.039412	-0.390256	99
Es	0.290744	0.415653	-0.029348	99
Es	0.978540	1.022102	-0.030676	99
Es	-1.401696	1.560145	-0.407263	99
Es	-0.022620	2.630968	-0.402080	99
Es	-0.775060	-0.252066	-0.054615	99
Es	0.990441	0.518308	0.039216	99
Es	1.448643	-0.032637	0.178670	99
Es	1.371600	1.834674	-0.116593	99
Es	-0.020015	2.901097	-0.441187	99
Es	-0.034312	2.765474	-0.432795	99
Es	-0.910975	-1.404807	0.430832	99
Es	-1.853941	-0.824875	-0.096897	99
Es	1.210845	1.183344	-0.044631	99
Es	-0.791295	0.997788	-0.257643	99
Es	2.015413	2.128158	-0.084109	99
Es	-0.021911	2.765579	-0.430946	99
Es	-1.066988	-2.684193	0.283662	99
Es	0.073567	-2.202786	0.347309	99
Es	-1.143711	-0.874100	-0.003584	99
Es	-1.089449	1.503078	-0.361214	99
Es	-0.110826	3.256708	-0.512402	99
Es	-0.835617	-1.499923	-0.194990	99
Es	-0.728383	1.110754	-0.248288	99
Es	-0.633585	-2.089189	0.244591	99
Es	0.091237	2.573783	-0.383703	99
41
Properties=species:S:1:pos:R:3:Z:I:1 energy=-644.2887670134668 field_type=dipole dipole="0.000000 0.000000 0.000000" charge=0
C	-0.633630	-2.089107	0.244574	6
C	-1.143710	-0.874217	-0.003566	6
C	-0.431220	0.368943	-0.108466	6
N	-1.090030	1.503113	-0.361286	7
S	-0.024610	2.766253	-0.426806	16
C	1.371680	1.834523	-0.116556	6
C	0.990450	0.518323	0.039214	6
H	-1.289370	-2.953277	0.298174	1
H	0.424840	-2.265357	0.399264	1
H	-2.221560	-0.803337	-0.144376	1
H	2.357610	2.273453	-0.065436	1
H	1.689550	-0.279317	0.245264	1
Es	-1.400695	1.560124	-0.407415	99
Es	-0.793707	0.999991	-0.242282	99
Es	0.290765	0.415969	-0.028615	99
Es	0.746437	2.313873	-0.264849	99
Es	0.091637	2.574094	-0.382301	99
Es	0.073213	-2.202580	0.347232	99
Es	-1.066743	-2.684392	0.283837	99
Es	0.990442	0.518307	0.039216	99
Es	-0.024129	2.764981	-0.435230	99
Es	-0.835450	-1.503632	-0.187689	99
Es	-1.143707	-0.874105	-0.003586	99
Es	1.209406	1.185246	-0.032294	99
Es	-0.020402	2.630931	-0.402210	99
Es	1.448284	-0.032842	0.178714	99
Es	-0.726538	1.108508	-0.263484	99
Es	1.371600	1.834675	-0.116588	99
Es	-0.024228	2.766260	-0.426865	99
Es	-0.775030	-0.252013	-0.054623	99
Es	-0.633586	-2.089189	0.244591	99
Es	-0.110628	3.256536	-0.513677	99
Es	-0.431244	0.368980	-0.108477	99
Es	-0.024064	2.766313	-0.426690	99
Es	-1.853670	-0.824958	-0.096832	99
Es	-1.089401	1.503068	-0.361193	99
Es	-0.911214	-1.401111	0.423548	99
Es	-0.645086	2.039572	-0.389926	99
Es	-0.030420	2.900814	-0.442920	99
Es	2.015298	2.128024	-0.084375	99
Es	0.979473	1.019955	-0.043555	99
41
Properties=species:S:1:pos:R:3:Z:I:1 energy=-644.2887670134668 field_type=dipole dipole="0.000000 0.000000 0.000000" charge=0
C	-0.633630	-2.089107	0.244574	6
C	-1.143710	-0.874217	-0.003566	6
C	-0.431220	0.368943	-0.108466	6
N	-1.090030	1.503113	-0.361286	7
S	-0.024610	2.766253	-0.426806	16
C	1.371680	1.834523	-0.116556	6
C	0.990450	0.518323	0.039214	6
H	-1.289370	-2.953277	0.298174	1
H	0.424840	-2.265357	0.399264	1
H	-2.221560	-0.803337	-0.144376	1
H	2.357610	2.273453	-0.065436	1
H	1.689550	-0.279317	0.245264	1
Es	-0.835719	-1.504324	-0.181491	99
Es	0.746367	2.314258	-0.263593	99
Es	-0.022184	2.629774	-0.409158	99
Es	-1.089392	1.503063	-0.361204	99
Es	0.990442	0.518307	0.039216	99
Es	0.091778	2.574006	-0.383402	99
Es	-0.633585	-2.089189	0.244591	99
Es	2.015116	2.127887	-0.084202	99
Es	-0.025283	2.766435	-0.425404	99
Es	-1.853474	-0.825054	-0.096755	99
Es	-0.910851	-1.400456	0.417053	99
Es	-0.110444	3.256520	-0.513928	99
Es	0.072958	-2.202442	0.347339	99
Es	-1.399569	1.559764	-0.406866	99
Es	-0.026523	2.766337	-0.425999	99
Es	-0.026070	2.900195	-0.448519	99
Es	1.371598	1.834675	-0.116590	99
Es	-1.066575	-2.684515	0.283919	99
Es	-0.793691	1.000117	-0.241577	99
Es	-1.143707	-0.874105	-0.003586	99
Es	-0.775151	-0.251946	-0.054642	99
Es	-0.431249	0.368980	-0.108475	99
Es	0.290921	0.415934	-0.028957	99
Es	-0.023326	2.766602	-0.424287	99
Es	-0.726159	1.108814	-0.264420	99
Es	1.210108	1.184192	-0.039425	99
Es	1.448131	-0.032918	0.178771	99
Es	0.978275	1.020572	-0.036217	99
Es	-0.646127	2.039914	-0.390732	99
41
Properties=species:S:1:pos:R:3:Z:I:1 energy=-644.2887670134668 field_type=dipole dipole="0.000000 0.000000 0.000000" charge=0
C	-0.633630	-2.089107	0.244574	6
C	-1.143710	-0.874217	-0.003566	6
C	-0.431220	0.368943	-0.108466	6
N	-1.090030	1.503113	-0.361286	7
S	-0.024610	2.766253	-0.426806	16
C	1.371680	1.834523	-0.116556	6
C	0.990450	0.518323	0.039214	6
H	-1.289370	-2.953277	0.298174	1
H	0.424840	-2.265357	0.399264	1
H	-2.221560	-0.803337	-0.144376	1
H	2.357610	2.273453	-0.065436	1
H	1.689550	-0.279317	0.245264	1
Es	-0.028491	2.900174	-0.448494	99
Es	-0.431244	0.368981	-0.108473	99
Es	-0.110379	3.256399	-0.514768	99
Es	-0.020321	2.766022	-0.428365	99
Es	-0.633586	-2.089190	0.244592	99
Es	-0.027273	2.630439	-0.404637	99
Es	-1.399050	1.559645	-0.407353	99
Es	-1.143707	-0.874104	-0.003582	99
Es	0.290959	0.416096	-0.028822	99
Es	2.014954	2.127735	-0.084444	99
Es	-0.646341	2.040069	-0.389829	99
Es	-0.793175	0.999161	-0.247523	99
Es	-0.022790	2.766593	-0.424772	99
Es	-0.775212	-0.251912	-0.054667	99
Es	-1.089398	1.503061	-0.361196	99
Es	0.072562	-2.202374	0.347136	99
Es	0.990441	0.518307	0.039219	99
Es	-0.910152	-1.399992	0.408267	99
Es	0.746459	2.314340	-0.264476	99
Es	1.371600	1.834673	-0.116596	99
Es	1.209487	1.185021	-0.033983	99
Es	-0.836591	-1.504844	-0.172568	99
Es	0.091925	2.574240	-0.382131	99
Es	-0.726649	1.110357	-0.258184	99
Es	-0.024399	2.766101	-0.427501	99
Es	-1.066312	-2.684659	0.284027	99
Es	1.447889	-0.033062	0.178768	99
Es	-1.852975	-0.824989	-0.096624	99
Es	0.978381	1.019110	-0.041558	99
41
Properties=species:S:1:pos:R:3:Z:I:1 energy=-644.2887670134668 field_type=dipole dipole="0.000000 0.000000 0.000000" charge=0
C	-0.633630	-2.089107	0.244574	6
C	-1.143710	-0.874217	-0.003566	6
C	-0.431220	0.368943	-0.108466	6
N	-1.090030	1.503113	-0.361286	7
S	-0.024610	2.766253	-0.426806	16
C	1.371680	1.834523	-0.116556	6
C	0.990450	0.518323	0.039214	6
H	-1.289370	-2.953277	0.298174	1
H	0.424840	-2.265357	0.399264	1
H	-2.221560	-0.803337	-0.144376	1
H	2.357610	2.273453	-0.065436	1
H	1.689550	-0.279317	0.245264	1
Es	-0.023016	2.766354	-0.426419	99
Es	-0.775134	-0.251933	-0.054571	99
Es	-0.841107	-1.487485	-0.168500	99
Es	-0.727734	1.112005	-0.248551	99
Es	0.072295	-2.202270	0.346933	99
Es	-0.024516	2.766392	-0.425607	99
Es	-0.023109	2.630050	-0.407135	99
Es	-1.852724	-0.824868	-0.096333	99
Es	2.014906	2.127786	-0.084302	99
Es	-0.024339	2.766216	-0.426958	99
Es	1.209393	1.185076	-0.033808	99
Es	0.990443	0.518305	0.039202	99
Es	-0.646998	2.040306	-0.390399	99
Es	-0.792184	0.997498	-0.258024	99
Es	-1.089390	1.503068	-0.361202	99
Es	0.746573	2.314093	-0.265941	99
Es	-0.633586	-2.089189	0.244592	99
Es	-0.431250	0.368981	-0.108467	99
Es	-0.110693	3.256984	-0.511092	99
Es	-1.066031	-2.684851	0.283782	99
Es	0.291113	0.416095	-0.029435	99
Es	-0.905824	-1.417460	0.404012	99
Es	0.977989	1.018898	-0.041314	99
Es	-0.028366	2.900279	-0.447772	99
Es	-1.398099	1.559629	-0.406011	99
Es	-1.143707	-0.874103	-0.003585	99
Es	0.092357	2.574111	-0.383330	99
Es	1.371599	1.834677	-0.116590	99
Es	1.447753	-0.033247	0.178287	99
41
Properties=species:S:1:pos:R:3:Z:I:1 energy=-644.2887670134668 field_type=dipole dipole="0.000000 0.000000 0.000000" charge=0
C	-0.633630	-2.089107	0.244574	6
C	-1.143710	-0.874217	-0.003566	6
C	-0.431220	0.368943	-0.108466	6
N	-1.090030	1.503113	-0.361286	7
S	-0.024610	2.766253	-0.426806	16
C	1.371680	1.834523	-0.116556	6
C	0.990450	0.518323	0.039214	6
H	-1.289370	-2.953277	0.298174	1
H	0.424840	-2.265357	0.399264	1
H	-2.221560	-0.803337	-0.144376	1
H	2.357610	2.273453	-0.065436	1
H	1.689550	-0.279317	0.245264	1
Es	1.447615	-0.033346	0.178230	99
Es	0.092597	2.573931	-0.384682	99
Es	0.746399	2.314293	-0.265076	99
Es	-0.633585	-2.089190	0.244587	99
Es	0.071991	-2.202266	0.346967	99
Es	-1.397369	1.559753	-0.405914	99
Es	-0.110760	3.257170	-0.509910	99
Es	0.291325	0.416161	-0.029502	99
Es	-0.775419	-0.251805	-0.054682	99
Es	-1.852298	-0.824997	-0.096466	99
Es	1.371597	1.834675	-0.116590	99
Es	-0.026461	2.766075	-0.427837	99
Es	-0.647033	2.040280	-0.390577	99
Es	0.990440	0.518308	0.039221	99
Es	0.977050	1.019264	-0.035786	99
Es	-0.792894	0.997460	-0.257047	99
Es	-1.065946	-2.684925	0.283716	99
Es	1.210079	1.184234	-0.039269	99
Es	-1.089412	1.503073	-0.361206	99
Es	2.014755	2.127809	-0.084186	99
Es	-0.727409	1.112279	-0.249792	99
Es	-0.023344	2.766112	-0.427745	99
Es	-0.841783	-1.485808	-0.163035	99
Es	-0.022642	2.630335	-0.405261	99
Es	-0.024931	2.766075	-0.427744	99
Es	-0.431249	0.368980	-0.108474	99
Es	-1.143720	-0.874108	-0.003583	99
Es	-0.025947	2.900656	-0.445640	99
Es	-0.905031	-1.419081	0.398745	99
41
Properties=species:S:1:pos:R:3:Z:I:1 energy=-644.2887670134668 field_type=dipole dipole="0.000000 0.000000 0.000000" charge=0
C	-0.633630	-2.089107	0.244574	6
C	-1.143710	-0.874217	-0.003566	6
C	-0.431220	0.368943	-0.108466	6
N	-1.090030	1.503113	-0.361286	7
S	-0.024610	2.766253	-0.426806	16
C	1.371680	1.834523	-0.116556	6
C	0.990450	0.518323	0.039214	6
H	-1.289370	-2.953277	0.298174	1
H	0.424840	-2.265357	0.399264	1
H	-2.221560	-0.803337	-0.144376	1
H	2.357610	2.273453	-0.065436	1
H	1.689550	-0.279317	0.245264	1
Es	1.371599	1.834674	-0.116591	99
Es	0.977406	1.018449	-0.040711	99
Es	-1.396452	1.559365	-0.406816	99
Es	-1.065783	-2.684968	0.284125	99
Es	2.014705	2.127663	-0.084368	99
Es	-0.028414	2.900572	-0.445903	99
Es	-0.775322	-0.251863	-0.054823	99
Es	-0.023509	2.766236	-0.427205	99
Es	0.071673	-2.202206	0.346992	99
Es	-0.725173	1.109607	-0.267233	99
Es	-0.633586	-2.089189	0.244590	99
Es	-0.431249	0.368980	-0.108473	99
Es	-0.024029	2.766406	-0.425540	99
Es	1.447411	-0.033320	0.178866	99
Es	-1.089400	1.503068	-0.361205	99
Es	0.291067	0.416421	-0.028192	99
Es	0.092410	2.574329	-0.382512	99
Es	-0.023393	2.629938	-0.407769	99
Es	-1.852185	-0.825020	-0.096742	99
Es	1.209589	1.184810	-0.035458	99
Es	0.746220	2.314669	-0.263618	99
Es	-1.143707	-0.874105	-0.003587	99
Es	-0.838202	-1.504668	-0.153510	99
Es	-0.109953	3.256405	-0.515063	99
Es	-0.647657	2.040523	-0.390602	99
Es	-0.795105	1.000281	-0.238828	99
Es	-0.908601	-1.400154	0.389537	99
Es	0.990442	0.518306	0.039213	99
Es	-0.024192	2.766188	-0.427115	99
41
Properties=species:S:1:pos:R:3:Z:I:1 energy=-644.2887670134668 field_type=dipole dipole="0.000000 0.000000 0.000000" charge=0
C	-0.633630	-2.089107	0.244574	6
C	-1.143710	-0.874217	-0.003566	6
C	-0.431220	0.368943	-0.108466	6
N	-1.090030	1.503113	-0.361286	7
S	-0.024610	2.766253	-0.426806	16
C	1.371680	1.834523	-0.116556	6
C	0.990450	0.518323	0.039214	6
H	-1.289370	-2.953277	0.298174	1
H	0.424840	-2.265357	0.399264	1
H	-2.221560	-0.803337	-0.144376	1
H	2.357610	2.273453	-0.065436	1
H	1.689550	-0.279317	0.245264	1
Es	-0.633586	-2.089189	0.244592	99
Es	-0.725487	1.110560	-0.264659	99
Es	1.371598	1.834675	-0.116590	99
Es	-0.794791	0.999772	-0.241957	99
Es	-1.089383	1.503066	-0.361193	99
Es	1.447312	-0.033505	0.178207	99
Es	-0.648117	2.040697	-0.390566	99
Es	0.990443	0.518305	0.039204	99
Es	-0.024011	2.766383	-0.425728	99
Es	-1.065711	-2.685053	0.283784	99
Es	0.746490	2.314510	-0.265357	99
Es	-0.028999	2.900646	-0.445230	99
Es	-1.395958	1.559354	-0.405991	99
Es	-0.024422	2.766263	-0.426728	99
Es	-0.843330	-1.483147	-0.153520	99
Es	-0.110761	3.257221	-0.509750	99
Es	2.014640	2.127580	-0.084237	99
Es	0.093176	2.574004	-0.384809	99
Es	-1.852133	-0.824953	-0.096281	99
Es	0.977056	1.017702	-0.041824	99
Es	-0.024580	2.630011	-0.407208	99
Es	-0.431248	0.368979	-0.108479	99
Es	-0.021254	2.765983	-0.429052	99
Es	0.071688	-2.202193	0.346772	99
Es	1.209153	1.185229	-0.033058	99
Es	-0.903517	-1.421780	0.389096	99
Es	-0.775277	-0.251859	-0.054601	99
Es	-1.143707	-0.874104	-0.003581	99
Es	0.291330	0.416240	-0.029796	99
41
Properties=species:S:1:pos:R:3:Z:I:1 energy=-644.2887670134668 field_type=dipole dipole="0.000000 0.000000 0.000000" charge=0
C	-0.633630	-2.089107	0.244574	6
C	-1.143710	-0.874217	-0.003566	6
C	-0.431220	0.368943	-0.108466	6
N	-1.090030	1.503113	-0.361286	7
S	-0.024610	2.766253	-0.426806	16
C	1.371680	1.834523	-0.116556	6
C	0.990450	0.518323	0.039214	6
H	-1.289370	-2.953277	0.298174	1
H	0.424840	-2.265357	0.399264	1
H	-2.221560	-0.803337	-0.144376	1
H	2.357610	2.273453	-0.065436	1
H	1.689550	-0.279317	0.245264	1
Es	0.291317	0.416248	-0.029908	99
Es	0.746504	2.314420	-0.266286	99
Es	-0.793758	0.998182	-0.252046	99
Es	1.447253	-0.033560	0.178129	99
Es	-0.015169	2.630961	-0.403387	99
Es	0.071432	-2.202111	0.346762	99
Es	2.014523	2.127603	-0.084231	99
Es	-0.775482	-0.251757	-0.054685	99
Es	-0.843808	-1.482231	-0.150129	99
Es	-1.089419	1.503076	-0.361206	99
Es	1.209428	1.185001	-0.034326	99
Es	-0.110685	3.257241	-0.509750	99