47
Properties=species:S:1:pos:R:3:Z:I:1 energy=-305.27988905338987 field_type=dipole dipole="0.000000 0.000000 0.000000" charge=0
C	-2.151226	0.294183	-0.370129	6
C	-0.634576	0.269313	-0.393579	6
C	0.079794	1.350943	0.465941	6
C	1.100754	0.277583	0.909920	6
N	2.252934	0.305783	-0.003039	7
C	0.048424	-0.795867	0.509561	6
N	0.619694	-1.857347	-0.324129	7
H	-2.558246	-0.577787	-0.893269	1
H	-2.529126	1.192453	-0.869899	1
H	-2.541426	0.287083	0.653561	1
H	-0.276856	0.283873	-1.433139	1
H	-0.527796	1.725653	1.299971	1
H	0.465384	2.215443	-0.083389	1
H	1.375194	0.296193	1.967991	1
H	2.024844	0.482853	-0.977780	1
H	2.756994	-0.581777	0.015091	1
H	-0.556506	-1.152207	1.351061	1
H	1.134424	-1.517897	-1.133169	1
H	-0.082686	-2.498467	-0.691569	1
Es	1.739308	0.262668	0.367143	99
Es	-2.151225	0.294178	-0.370137	99
Es	2.080763	0.389890	-0.589709	99
Es	-0.634595	0.269360	-0.393545	99
Es	-1.404687	0.283486	-0.383868	99
Es	-0.355197	-0.308464	0.027907	99
Es	-2.427097	-0.305359	-0.727718	99
Es	1.100825	0.277585	0.909785	99
Es	2.537804	-0.237828	0.003686	99
Es	2.461849	0.561559	0.097180	99
Es	-0.371341	-1.042115	1.077468	99
Es	-0.377066	0.269175	-1.105194	99
Es	0.349348	1.941407	0.089759	99
Es	0.619324	-1.857032	-0.324442	99
Es	0.359224	-1.402493	0.016538	99
Es	0.636383	0.880121	0.727298	99
Es	0.903034	-1.626225	-0.815691	99
Es	2.252566	0.305360	-0.003213	99
Es	1.301631	0.284640	1.635070	99
Es	-2.411211	0.288556	0.333136	99
Es	0.048483	-0.795957	0.509450	99
Es	0.845775	-2.053009	-0.137644	99
Es	0.173910	-2.219191	-0.552980	99
Es	0.611822	-0.327522	0.754720	99
Es	0.079788	1.350896	0.465943	99
Es	-0.342886	1.594773	1.037254	99
Es	-0.327172	0.881601	0.000325	99
Es	-2.408370	0.908024	-0.712059	99
47
Properties=species:S:1:pos:R:3:Z:I:1 energy=-305.27988905338987 field_type=dipole dipole="0.000000 0.000000 0.000000" charge=0
C	-2.151226	0.294183	-0.370129	6
C	-0.634576	0.269313	-0.393579	6
C	0.079794	1.350943	0.465941	6
C	1.100754	0.277583	0.909920	6
N	2.252934	0.305783	-0.003039	7
C	0.048424	-0.795867	0.509561	6
N	0.619694	-1.857347	-0.324129	7
H	-2.558246	-0.577787	-0.893269	1
H	-2.529126	1.192453	-0.869899	1
H	-2.541426	0.287083	0.653561	1
H	-0.276856	0.283873	-1.433139	1
H	-0.527796	1.725653	1.299971	1
H	0.465384	2.215443	-0.083389	1
H	1.375194	0.296193	1.967991	1
H	2.024844	0.482853	-0.977780	1
H	2.756994	-0.581777	0.015091	1
H	-0.556506	-1.152207	1.351061	1
H	1.134424	-1.517897	-1.133169	1
H	-0.082686	-2.498467	-0.691569	1
Es	0.048484	-0.795957	0.509451	99
Es	-2.151224	0.294179	-0.370137	99
Es	1.739378	0.263282	0.368117	99
Es	2.252544	0.305332	-0.003227	99
Es	0.174354	-2.219558	-0.552181	99
Es	0.079792	1.350890	0.465944	99
Es	-2.426811	-0.305205	-0.728449	99
Es	0.611457	-0.327385	0.754219	99
Es	1.301578	0.284967	1.635697	99
Es	-2.407449	0.907578	-0.712197	99
Es	2.080856	0.390064	-0.590618	99
Es	2.463170	0.560197	0.097117	99
Es	0.636017	0.879965	0.726406	99
Es	0.349768	1.941367	0.089609	99
Es	0.843911	-2.052289	-0.139876	99
Es	-0.355300	-0.308132	0.028066	99
Es	-0.634592	0.269362	-0.393542	99
Es	1.100826	0.277585	0.909785	99
Es	-0.327266	0.881172	0.000777	99
Es	-0.376967	0.269015	-1.106238	99
Es	0.903829	-1.626069	-0.816551	99
Es	0.359852	-1.402816	0.018591	99
Es	-1.404740	0.283419	-0.383798	99
Es	0.619412	-1.857109	-0.324384	99
Es	-0.371686	-1.042124	1.077936	99
Es	-2.411549	0.288771	0.334349	99
Es	-0.342883	1.594713	1.038158	99
Es	2.536227	-0.237128	0.003437	99
47
Properties=species:S:1:pos:R:3:Z:I:1 energy=-305.27988905338987 field_type=dipole dipole="0.000000 0.000000 0.000000" charge=0
C	-2.151226	0.294183	-0.370129	6
C	-0.634576	0.269313	-0.393579	6
C	0.079794	1.350943	0.465941	6
C	1.100754	0.277583	0.909920	6
N	2.252934	0.305783	-0.003039	7
C	0.048424	-0.795867	0.509561	6
N	0.619694	-1.857347	-0.324129	7
H	-2.558246	-0.577787	-0.893269	1
H	-2.529126	1.192453	-0.869899	1
H	-2.541426	0.287083	0.653561	1
H	-0.276856	0.283873	-1.433139	1
H	-0.527796	1.725653	1.299971	1
H	0.465384	2.215443	-0.083389	1
H	1.375194	0.296193	1.967991	1
H	2.024844	0.482853	-0.977780	1
H	2.756994	-0.581777	0.015091	1
H	-0.556506	-1.152207	1.351061	1
H	1.134424	-1.517897	-1.133169	1
H	-0.082686	-2.498467	-0.691569	1
Es	0.842975	-2.051480	-0.142239	99
Es	0.079791	1.350895	0.465944	99
Es	0.048483	-0.795958	0.509450	99
Es	0.619317	-1.857020	-0.324448	99
Es	-2.426526	-0.305191	-0.728739	99
Es	-0.342884	1.594791	1.038631	99
Es	-2.411619	0.288858	0.334997	99
Es	0.174645	-2.220344	-0.551405	99
Es	-0.355351	-0.307926	0.028186	99
Es	2.463827	0.558725	0.097146	99
Es	-2.407099	0.907351	-0.712345	99
Es	-0.634595	0.269360	-0.393544	99
Es	-1.404790	0.283467	-0.383769	99
Es	1.100827	0.277587	0.909784	99
Es	2.252537	0.305332	-0.003239	99
Es	0.349989	1.941221	0.089547	99
Es	0.635807	0.879705	0.726027	99
Es	2.080907	0.390703	-0.591326	99
Es	1.301523	0.285045	1.636111	99
Es	0.360685	-1.403244	0.020834	99
Es	0.903801	-1.625717	-0.817225	99
Es	-0.327426	0.880984	0.000968	99
Es	1.739742	0.264159	0.368719	99
Es	2.535109	-0.237020	0.003301	99
Es	-2.151223	0.294178	-0.370136	99
Es	0.611297	-0.327250	0.753940	99
Es	-0.376953	0.268992	-1.106840	99
Es	-0.371807	-1.042117	1.078132	99
47
Properties=species:S:1:pos:R:3:Z:I:1 energy=-305.27988905338987 field_type=dipole dipole="0.000000 0.000000 0.000000" charge=0
C	-2.151226	0.294183	-0.370129	6
C	-0.634576	0.269313	-0.393579	6
C	0.079794	1.350943	0.465941	6
C	1.100754	0.277583	0.909920	6
N	2.252934	0.305783	-0.003039	7
C	0.048424	-0.795867	0.509561	6
N	0.619694	-1.857347	-0.324129	7
H	-2.558246	-0.577787	-0.893269	1
H	-2.529126	1.192453	-0.869899	1
H	-2.541426	0.287083	0.653561	1
H	-0.276856	0.283873	-1.433139	1
H	-0.527796	1.725653	1.299971	1
H	0.465384	2.215443	-0.083389	1
H	1.375194	0.296193	1.967991	1
H	2.024844	0.482853	-0.977780	1
H	2.756994	-0.581777	0.015091	1
H	-0.556506	-1.152207	1.351061	1
H	1.134424	-1.517897	-1.133169	1
H	-0.082686	-2.498467	-0.691569	1
Es	0.048484	-0.795959	0.509452	99
Es	0.619320	-1.857028	-0.324449	99
Es	0.361382	-1.403366	0.022088	99
Es	0.904650	-1.625925	-0.817277	99
Es	2.534763	-0.236523	0.003585	99
Es	1.100828	0.277588	0.909785	99
Es	0.079792	1.350894	0.465943	99
Es	-2.426381	-0.305220	-0.729012	99
Es	0.635670	0.879557	0.725765	99
Es	-1.404623	0.283518	-0.383646	99
Es	0.174441	-2.219516	-0.551612	99
Es	-2.411652	0.288888	0.335334	99
Es	-0.376991	0.268921	-1.107349	99
Es	-0.342850	1.594755	1.038861	99
Es	-0.355700	-0.307925	0.028254	99
Es	0.841663	-2.052016	-0.143277	99
Es	1.301587	0.285167	1.636442	99
Es	-2.151223	0.294178	-0.370137	99
Es	0.611192	-0.327125	0.753585	99
Es	2.463801	0.557667	0.097043	99
Es	-0.327531	0.880855	0.001189	99
Es	2.081083	0.390908	-0.592113	99
Es	2.252541	0.305336	-0.003238	99
Es	1.739754	0.264609	0.369192	99
Es	-2.406813	0.907293	-0.712361	99
Es	-0.371746	-1.042029	1.078384	99
Es	0.350145	1.941222	0.089572	99
Es	-0.634595	0.269362	-0.393543	99
47
Properties=species:S:1:pos:R:3:Z:I:1 energy=-305.27988905338987 field_type=dipole dipole="0.000000 0.000000 0.000000" charge=0
C	-2.151226	0.294183	-0.370129	6
C	-0.634576	0.269313	-0.393579	6
C	0.079794	1.350943	0.465941	6
C	1.100754	0.277583	0.909920	6
N	2.252934	0.305783	-0.003039	7
C	0.048424	-0.795867	0.509561	6
N	0.619694	-1.857347	-0.324129	7
H	-2.558246	-0.577787	-0.893269	1
H	-2.529126	1.192453	-0.869899	1
H	-2.541426	0.287083	0.653561	1
H	-0.276856	0.283873	-1.433139	1
H	-0.527796	1.725653	1.299971	1
H	0.465384	2.215443	-0.083389	1
H	1.375194	0.296193	1.967991	1
H	2.024844	0.482853	-0.977780	1
H	2.756994	-0.581777	0.015091	1
H	-0.556506	-1.152207	1.351061	1
H	1.134424	-1.517897	-1.133169	1
H	-0.082686	-2.498467	-0.691569	1
Es	2.252555	0.305345	-0.003212	99
Es	-2.406527	0.907167	-0.712399	99
Es	-0.355711	-0.307803	0.028389	99
Es	-2.411663	0.288983	0.335689	99
Es	1.739729	0.264754	0.369828	99
Es	-0.377036	0.268843	-1.107582	99
Es	0.361648	-1.403542	0.022849	99
Es	2.534080	-0.236065	0.003399	99
Es	0.619367	-1.857064	-0.324424	99
Es	2.464140	0.556557	0.097102	99
Es	-0.371787	-1.042065	1.078513	99
Es	0.174606	-2.220050	-0.551230	99
Es	2.081424	0.391386	-0.592645	99
Es	0.048484	-0.795956	0.509451	99
Es	1.100828	0.277587	0.909784	99
Es	-0.634595	0.269362	-0.393543	99
Es	-0.342871	1.594788	1.039078	99
Es	-0.327613	0.880843	0.001173	99
Es	0.611104	-0.327128	0.753437	99
Es	-2.426267	-0.305243	-0.729236	99
Es	0.350329	1.941154	0.089569	99
Es	1.301508	0.285260	1.636627	99
Es	0.635541	0.879546	0.725529	99
Es	-1.404687	0.283491	-0.383692	99
Es	0.841696	-2.051485	-0.144252	99
Es	0.904139	-1.625649	-0.817547	99
Es	0.079791	1.350896	0.465943	99
Es	-2.151224	0.294177	-0.370135	99
47
Properties=species:S:1:pos:R:3:Z:I:1 energy=-305.27988905338987 field_type=dipole dipole="0.000000 0.000000 0.000000" charge=0
C	-2.151226	0.294183	-0.370129	6
C	-0.634576	0.269313	-0.393579	6
C	0.079794	1.350943	0.465941	6
C	1.100754	0.277583	0.909920	6
N	2.252934	0.305783	-0.003039	7
C	0.048424	-0.795867	0.509561	6
N	0.619694	-1.857347	-0.324129	7
H	-2.558246	-0.577787	-0.893269	1
H	-2.529126	1.192453	-0.869899	1
H	-2.541426	0.287083	0.653561	1
H	-0.276856	0.283873	-1.433139	1
H	-0.527796	1.725653	1.299971	1
H	0.465384	2.215443	-0.083389	1
H	1.375194	0.296193	1.967991	1
H	2.024844	0.482853	-0.977780	1
H	2.756994	-0.581777	0.015091	1
H	-0.556506	-1.152207	1.351061	1
H	1.134424	-1.517897	-1.133169	1
H	-0.082686	-2.498467	-0.691569	1
Es	0.611039	-0.327160	0.753368	99
Es	2.533802	-0.235974	0.003638	99
Es	-1.404811	0.283485	-0.383695	99
Es	0.904854	-1.625978	-0.817857	99
Es	-0.327885	0.880785	0.001187	99
Es	-0.342705	1.594763	1.039290	99
Es	2.464333	0.556273	0.096646	99
Es	1.739999	0.265345	0.370261	99
Es	-0.355653	-0.307740	0.028442	99
Es	1.100826	0.277586	0.909785	99
Es	0.175005	-2.220520	-0.550800	99
Es	-0.377124	0.268903	-1.107828	99
Es	-2.406353	0.907163	-0.712530	99
Es	0.350370	1.941135	0.089651	99
Es	0.079792	1.350896	0.465943	99
Es	2.252575	0.305345	-0.003214	99
Es	-2.411575	0.289020	0.336016	99
Es	0.635534	0.879389	0.725167	99
Es	-2.151223	0.294178	-0.370136	99
Es	0.840873	-2.050809	-0.144382	99
Es	-2.426074	-0.305318	-0.729349	99
Es	-0.371878	-1.042142	1.078563	99
Es	0.361429	-1.403340	0.022795	99
Es	1.301521	0.285417	1.636930	99
Es	-0.634595	0.269360	-0.393545	99
Es	0.048485	-0.795959	0.509451	99
Es	2.081090	0.391028	-0.592913	99
Es	0.619339	-1.857044	-0.324423	99
47
Properties=species:S:1:pos:R:3:Z:I:1 energy=-305.27988905338987 field_type=dipole dipole="0.000000 0.000000 0.000000" charge=0
C	-2.151226	0.294183	-0.370129	6
C	-0.634576	0.269313	-0.393579	6
C	0.079794	1.350943	0.465941	6
C	1.100754	0.277583	0.909920	6
N	2.252934	0.305783	-0.003039	7
C	0.048424	-0.795867	0.509561	6
N	0.619694	-1.857347	-0.324129	7
H	-2.558246	-0.577787	-0.893269	1
H	-2.529126	1.192453	-0.869899	1
H	-2.541426	0.287083	0.653561	1
H	-0.276856	0.283873	-1.433139	1
H	-0.527796	1.725653	1.299971	1
H	0.465384	2.215443	-0.083389	1
H	1.375194	0.296193	1.967991	1
H	2.024844	0.482853	-0.977780	1
H	2.756994	-0.581777	0.015091	1
H	-0.556506	-1.152207	1.351061	1
H	1.134424	-1.517897	-1.133169	1
H	-0.082686	-2.498467	-0.691569	1
Es	2.464571	0.555531	0.097136	99
Es	1.100827	0.277586	0.909784	99
Es	-0.355798	-0.307840	0.028509	99
Es	0.904184	-1.625625	-0.817919	99
Es	0.635521	0.879486	0.724999	99
Es	0.174690	-2.219930	-0.550888	99
Es	-2.406192	0.907043	-0.712466	99
Es	-1.404780	0.283594	-0.383711	99
Es	-0.377123	0.268924	-1.107968	99
Es	-0.342696	1.594790	1.039519	99
Es	0.841018	-2.051402	-0.145434	99
Es	2.081234	0.391843	-0.593186	99
Es	0.619331	-1.857040	-0.324472	99
Es	0.362308	-1.403773	0.024033	99
Es	0.350396	1.941039	0.089702	99
Es	0.610913	-0.327043	0.753145	99
Es	0.048484	-0.795959	0.509450	99
Es	1.740119	0.265216	0.370390	99
Es	-2.411651	0.289030	0.336196	99
Es	0.079793	1.350895	0.465940	99
Es	-0.371797	-1.042048	1.078721	99
Es	-0.327874	0.880654	0.001152	99
Es	2.252562	0.305354	-0.003211	99
Es	-2.426028	-0.305265	-0.729540	99
Es	-2.151223	0.294178	-0.370136	99
Es	-0.634595	0.269361	-0.393544	99
Es	2.533289	-0.235918	0.003266	99
Es	1.301506	0.285405	1.636990	99
47
Properties=species:S:1:pos:R:3:Z:I:1 energy=-305.27988905338987 field_type=dipole dipole="0.000000 0.000000 0.000000" charge=0
C	-2.151226	0.294183	-0.370129	6
C	-0.634576	0.269313	-0.393579	6
C	0.079794	1.350943	0.465941	6
C	1.100754	0.277583	0.909920	6
N	2.252934	0.305783	-0.003039	7
C	0.048424	-0.795867	0.509561	6
N	0.619694	-1.857347	-0.324129	7
H	-2.558246	-0.577787	-0.893269	1
H	-2.529126	1.192453	-0.869899	1
H	-2.541426	0.287083	0.653561	1
H	-0.276856	0.283873	-1.433139	1
H	-0.527796	1.725653	1.299971	1
H	0.465384	2.215443	-0.083389	1
H	1.375194	0.296193	1.967991	1
H	2.024844	0.482853	-0.977780	1
H	2.756994	-0.581777	0.015091	1
H	-0.556506	-1.152207	1.351061	1
H	1.134424	-1.517897	-1.133169	1
H	-0.082686	-2.498467	-0.691569	1
Es	0.840869	-2.051101	-0.145928	99
Es	0.174890	-2.220242	-0.550724	99
Es	-0.327844	0.880686	0.001211	99
Es	-2.406096	0.907062	-0.712432	99
Es	1.301517	0.285490	1.637154	99
Es	2.532905	-0.235956	0.003427	99
Es	-0.634596	0.269362	-0.393544	99
Es	0.079791	1.350894	0.465943	99
Es	1.100823	0.277588	0.909785	99
Es	-0.355933	-0.307782	0.028541	99
Es	-1.404746	0.283576	-0.383670	99
Es	2.081290	0.391832	-0.593406	99
Es	0.350539	1.941014	0.089642	99
Es	-2.425944	-0.305231	-0.729690	99
Es	1.740179	0.265772	0.370511	99
Es	0.610977	-0.327065	0.752936	99
Es	-0.371706	-1.042085	1.078877	99
Es	-0.342769	1.594831	1.039540	99
Es	2.464716	0.555063	0.096989	99
Es	-2.411632	0.288948	0.336344	99
Es	0.619311	-1.857020	-0.324468	99
Es	-0.377220	0.268840	-1.108134	99
Es	2.252615	0.305417	-0.003179	99
Es	0.048486	-0.795957	0.509451	99
Es	0.635370	0.879315	0.724986	99
Es	-2.151221	0.294181	-0.370138	99
Es	0.904140	-1.625499	-0.818053	99
Es	0.362277	-1.403846	0.024491	99
47
Properties=species:S:1:pos:R:3:Z:I:1 energy=-305.27988905338987 field_type=dipole dipole="0.000000 0.000000 0.000000" charge=0
C	-2.151226	0.294183	-0.370129	6
C	-0.634576	0.269313	-0.393579	6
C	0.079794	1.350943	0.465941	6
C	1.100754	0.277583	0.909920	6
N	2.252934	0.305783	-0.003039	7
C	0.048424	-0.795867	0.509561	6
N	0.619694	-1.857347	-0.324129	7
H	-2.558246	-0.577787	-0.893269	1
H	-2.529126	1.192453	-0.869899	1
H	-2.541426	0.287083	0.653561	1
H	-0.276856	0.283873	-1.433139	1
H	-0.527796	1.725653	1.299971	1
H	0.465384	2.215443	-0.083389	1
H	1.375194	0.296193	1.967991	1
H	2.024844	0.482853	-0.977780	1
H	2.756994	-0.581777	0.015091	1
H	-0.556506	-1.152207	1.351061	1
H	1.134424	-1.517897	-1.133169	1
H	-0.082686	-2.498467	-0.691569	1
Es	1.301476	0.285516	1.637231	99
Es	0.362510	-1.403967	0.025112	99
Es	2.252561	0.305348	-0.003224	99
Es	0.610886	-0.327026	0.752943	99
Es	0.841013	-2.051506	-0.146424	99
Es	2.532871	-0.235691	0.003507	99
Es	-0.634595	0.269361	-0.393543	99
Es	-2.405989	0.907074	-0.712579	99
Es	-0.355892	-0.307758	0.028573	99
Es	-0.327876	0.880666	0.001319	99
Es	-2.411577	0.289075	0.336444	99
Es	0.903757	-1.625352	-0.818133	99
Es	-0.342754	1.594772	1.039654	99
Es	-0.377204	0.268810	-1.108244	99
Es	2.464774	0.555134	0.097159	99
Es	1.740234	0.265593	0.370464	99
Es	0.048486	-0.795958	0.509453	99
Es	0.350571	1.941047	0.089594	99
Es	0.079789	1.350893	0.465943	99
Es	-1.404830	0.283558	-0.383652	99
Es	-2.425854	-0.305368	-0.729673	99
Es	1.100826	0.277586	0.909785	99
Es	-2.151223	0.294178	-0.370136	99
Es	0.635343	0.879299	0.724877	99
Es	0.174961	-2.219885	-0.550768	99
Es	2.081283	0.391747	-0.593605	99
Es	0.619281	-1.856993	-0.324480	99
Es	-0.371837	-1.042066	1.078866	99
47
Properties=species:S:1:pos:R:3:Z:I:1 energy=-305.27988905338987 field_type=dipole dipole="0.000000 0.000000 0.000000" charge=0
C	-2.151226	0.294183	-0.370129	6
C	-0.634576	0.269313	-0.393579	6
C	0.079794	1.350943	0.465941	6
C	1.100754	0.277583	0.909920	6
N	2.252934	0.305783	-0.003039	7
C	0.048424	-0.795867	0.509561	6
N	0.619694	-1.857347	-0.324129	7
H	-2.558246	-0.577787	-0.893269	1
H	-2.529126	1.192453	-0.869899	1
H	-2.541426	0.287083	0.653561	1
H	-0.276856	0.283873	-1.433139	1
H	-0.527796	1.725653	1.299971	1
H	0.465384	2.215443	-0.083389	1
H	1.375194	0.296193	1.967991	1
H	2.024844	0.482853	-0.977780	1
H	2.756994	-0.581777	0.015091	1
H	-0.556506	-1.152207	1.351061	1
H	1.134424	-1.517897	-1.133169	1
H	-0.082686	-2.498467	-0.691569	1
Es	1.100826	0.277586	0.909784	99
Es	-2.405905	0.907050	-0.712601	99
Es	-0.377333	0.268709	-1.108389	99
Es	-2.151223	0.294178	-0.370136	99
Es	-2.411555	0.289106	0.336545	99
Es	2.252567	0.305330	-0.003222	99
Es	0.362578	-1.403906	0.024844	99
Es	0.350598	1.941017	0.089696	99
Es	-0.371830	-1.042073	1.078918	99
Es	2.465000	0.554558	0.097033	99
Es	-0.634595	0.269360	-0.393544	99
Es	-1.404727	0.283512	-0.383593	99
Es	0.079792	1.350894	0.465943	99
Es	0.635271	0.879206	0.724783	99
Es	0.048484	-0.795958	0.509451	99
Es	0.174790	-2.219873	-0.550622	99
Es	0.619310	-1.857024	-0.324461	99
Es	0.903945	-1.625467	-0.818260	99
Es	-0.355961	-0.307672	0.028560	99
Es	1.740347	0.265699	0.370912	99
Es	1.301468	0.285569	1.637389	99
Es	0.610980	-0.326935	0.752928	99
Es	-2.425852	-0.305347	-0.729703	99
Es	-0.342679	1.594799	1.039690	99
Es	2.081219	0.392080	-0.593683	99
Es	2.532532	-0.235565	0.003167	99
Es	0.840876	-2.051423	-0.146203	99
Es	-0.327937	0.880678	0.001235	99
47
Properties=species:S:1:pos:R:3:Z:I:1 energy=-305.27988905338987 field_type=dipole dipole="0.000000 0.000000 0.000000" charge=0
C	-2.151226	0.294183	-0.370129	6
C	-0.634576	0.269313	-0.393579	6
C	0.079794	1.350943	0.465941	6
C	1.100754	0.277583	0.909920	6
N	2.252934	0.305783	-0.003039	7
C	0.048424	-0.795867	0.509561	6
N	0.619694	-1.857347	-0.324129	7
H	-2.558246	-0.577787	-0.893269	1
H	-2.529126	1.192453	-0.869899	1
H	-2.541426	0.287083	0.653561	1
H	-0.276856	0.283873	-1.433139	1
H	-0.527796	1.725653	1.299971	1
H	0.465384	2.215443	-0.083389	1
H	1.375194	0.296193	1.967991	1
H	2.024844	0.482853	-0.977780	1
H	2.756994	-0.581777	0.015091	1
H	-0.556506	-1.152207	1.351061	1
H	1.134424	-1.517897	-1.133169	1
H	-0.082686	-2.498467	-0.691569	1
Es	2.532593	-0.235478	0.003581	99
Es	-2.425730	-0.305488	-0.729795	99
Es	-0.371846	-1.042094	1.078915	99
Es	-2.405901	0.906963	-0.712586	99
Es	-2.151223	0.294179	-0.370136	99
Es	1.740252	0.266082	0.370930	99
Es	-0.355953	-0.307703	0.028600	99
Es	-0.634594	0.269361	-0.393545	99
Es	0.840874	-2.051600	-0.146628	99
Es	0.350654	1.940992	0.089597	99
Es	0.903725	-1.625340	-0.818389	99
Es	0.610870	-0.327034	0.752859	99
Es	-1.404813	0.283681	-0.383610	99
Es	0.048485	-0.795958	0.509451	99
Es	-0.377318	0.268773	-1.108457	99
Es	2.081494	0.392050	-0.593979	99
Es	0.619323	-1.857069	-0.324444	99
Es	1.100826	0.277585	0.909785	99
Es	-2.411510	0.289156	0.336640	99
Es	0.635320	0.879141	0.724565	99
Es	1.301496	0.285648	1.637419	99
Es	0.174746	-2.219632	-0.550568	99
Es	0.079793	1.350894	0.465943	99
Es	2.252512	0.305300	-0.003254	99
Es	2.464746	0.554221	0.096987	99
Es	-0.328058	0.880691	0.001365	99
Es	-0.342606	1.594795	1.039901	99
Es	0.362833	-1.404028	0.025317	99
47
Properties=species:S:1:pos:R:3:Z:I:1 energy=-305.27988905338987 field_type=dipole dipole="0.000000 0.000000 0.000000" charge=0
C	-2.151226	0.294183	-0.370129	6
C	-0.634576	0.269313	-0.393579	6
C	0.079794	1.350943	0.465941	6
C	1.100754	0.277583	0.909920	6
N	2.252934	0.305783	-0.003039	7
C	0.048424	-0.795867	0.509561	6
N	0.619694	-1.857347	-0.324129	7
H	-2.558246	-0.577787	-0.893269	1
H	-2.529126	1.192453	-0.869899	1
H	-2.541426	0.287083	0.653561	1
H	-0.276856	0.283873	-1.433139	1
H	-0.527796	1.725653	1.299971	1
H	0.465384	2.215443	-0.083389	1
H	1.375194	0.296193	1.967991	1
H	2.024844	0.482853	-0.977780	1
H	2.756994	-0.581777	0.015091	1
H	-0.556506	-1.152207	1.351061	1
H	1.134424	-1.517897	-1.133169	1
H	-0.082686	-2.498467	-0.691569	1
Es	0.635291	0.879190	0.724629	99
Es	2.532397	-0.235314	0.003551	99
Es	-0.634595	0.269363	-0.393543	99
Es	-2.151223	0.294178	-0.370136	99
Es	-2.425713	-0.305411	-0.729835	99
Es	1.301513	0.285555	1.637484	99
Es	0.610866	-0.326985	0.752618	99
Es	-0.377284	0.268750	-1.108524	99
Es	-2.405774	0.907007	-0.712636	99
Es	-0.342609	1.594781	1.039904	99
Es	0.619316	-1.857010	-0.324485	99
Es	0.079793	1.350893	0.465943	99
Es	-0.356041	-0.307684	0.028650	99
Es	-0.371788	-1.042049	1.079103	99
Es	0.048484	-0.795958	0.509451	99
Es	0.362875	-1.404079	0.025487	99
Es	0.350636	1.940990	0.089658	99
Es	0.174813	-2.219575	-0.550544	99
Es	2.464981	0.554362	0.097113	99
Es	-0.328063	0.880608	0.001348	99
Es	1.100822	0.277584	0.909784	99
Es	1.740238	0.265974	0.370845	99
Es	0.903625	-1.625303	-0.818440	99
Es	2.252543	0.305339	-0.003238	99
Es	-1.404846	0.283588	-0.383636	99
Es	0.840856	-2.051709	-0.146781	99
Es	2.081401	0.391864	-0.594057	99
Es	-2.411524	0.289139	0.336749	99
47
Properties=species:S:1:pos:R:3:Z:I:1 energy=-305.27988905338987 field_type=dipole dipole="0.000000 0.000000 0.000000" charge=0
C	-2.151226	0.294183	-0.370129	6
C	-0.634576	0.269313	-0.393579	6
C	0.079794	1.350943	0.465941	6
C	1.100754	0.277583	0.909920	6
N	2.252934	0.305783	-0.003039	7
C	0.048424	-0.795867	0.509561	6
N	0.619694	-1.857347	-0.324129	7
H	-2.558246	-0.577787	-0.893269	1
H	-2.529126	1.192453	-0.869899	1
H	-2.541426	0.287083	0.653561	1
H	-0.276856	0.283873	-1.433139	1
H	-0.527796	1.725653	1.299971	1
H	0.465384	2.215443	-0.083389	1
H	1.375194	0.296193	1.967991	1
H	2.024844	0.482853	-0.977780	1
H	2.756994	-0.581777	0.015091	1
H	-0.556506	-1.152207	1.351061	1
H	1.134424	-1.517897	-1.133169	1
H	-0.082686	-2.498467	-0.691569	1
Es	0.350684	1.940935	0.089657	99
Es	0.174897	-2.219594	-0.550687	99
Es	-0.377297	0.268756	-1.108607	99
Es	2.252533	0.305341	-0.003219	99
Es	-0.327999	0.880534	0.001341	99
Es	0.635243	0.879247	0.724581	99
Es	0.079793	1.350895	0.465943	99
Es	0.610838	-0.326937	0.752713	99
Es	0.048483	-0.795962	0.509450	99
Es	0.903729	-1.625075	-0.818352	99
Es	-2.405685	0.907050	-0.712616	99
Es	0.362837	-1.404299	0.025667	99
Es	-1.404917	0.283558	-0.383616	99
Es	-0.634595	0.269361	-0.393545	99
Es	-0.356054	-0.307651	0.028647	99
Es	1.301497	0.285573	1.637524	99
Es	-0.371816	-1.042057	1.079025	99
Es	2.465370	0.553962	0.097200	99
Es	-2.425721	-0.305409	-0.729905	99
Es	-2.151223	0.294178	-0.370136	99
Es	-2.411465	0.289123	0.336820	99
Es	0.840731	-2.051698	-0.146929	99
Es	-0.342683	1.594816	1.039944	99
Es	2.081420	0.392050	-0.594252	99
Es	2.531824	-0.235398	0.003542	99
Es	0.619323	-1.857022	-0.324454	99
Es	1.100825	0.277585	0.909785	99
Es	1.740417	0.266224	0.370941	99
47
Properties=species:S:1:pos:R:3:Z:I:1 energy=-305.27988905338987 field_type=dipole dipole="0.000000 0.000000 0.000000" charge=0
C	-2.151226	0.294183	-0.370129	6
C	-0.634576	0.269313	-0.393579	6
C	0.079794	1.350943	0.465941	6
C	1.100754	0.277583	0.909920	6
N	2.252934	0.305783	-0.003039	7
C	0.048424	-0.795867	0.509561	6
N	0.619694	-1.857347	-0.324129	7
H	-2.558246	-0.577787	-0.893269	1
H	-2.529126	1.192453	-0.869899	1
H	-2.541426	0.287083	0.653561	1
H	-0.276856	0.283873	-1.433139	1
H	-0.527796	1.725653	1.299971	1
H	0.465384	2.215443	-0.083389	1
H	1.375194	0.296193	1.967991	1
H	2.024844	0.482853	-0.977780	1
H	2.756994	-0.581777	0.015091	1
H	-0.556506	-1.152207	1.351061	1
H	1.134424	-1.517897	-1.133169	1
H	-0.082686	-2.498467	-0.691569	1
Es	-0.634594	0.269359	-0.393545	99
Es	0.635234	0.879194	0.724560	99
Es	2.252689	0.305521	-0.003133	99
Es	0.363304	-1.404226	0.026150	99
Es	-0.356247	-0.307745	0.028637	99
Es	0.903386	-1.625193	-0.818520	99
Es	2.465301	0.553655	0.097037	99
Es	2.531777	-0.235321	0.003327	99
Es	-2.411477	0.289132	0.336873	99
Es	1.740394	0.266153	0.371184	99
Es	2.081415	0.392157	-0.594202	99
Es	0.079792	1.350895	0.465943	99
Es	-0.328010	0.880547	0.001432	99
Es	-0.377392	0.268752	-1.108677	99
Es	-0.371706	-1.042074	1.079086	99
Es	-2.405654	0.906985	-0.712566	99
Es	-2.151222	0.294178	-0.370135	99
Es	0.048484	-0.795956	0.509450	99
Es	1.100825	0.277586	0.909785	99
Es	0.619305	-1.857026	-0.324448	99
Es	1.301444	0.285589	1.637604	99
Es	0.840838	-2.051895	-0.147387	99
Es	-2.425678	-0.305441	-0.730002	99
Es	0.350744	1.940973	0.089613	99
Es	-0.342657	1.594800	1.039929	99
Es	-1.404798	0.283692	-0.383616	99
Es	0.174696	-2.219324	-0.550522	99
Es	0.610799	-0.326879	0.752604	99
47
Properties=species:S:1:pos:R:3:Z:I:1 energy=-305.27988905338987 field_type=dipole dipole="0.000000 0.000000 0.000000" charge=0
C	-2.151226	0.294183	-0.370129	6
C	-0.634576	0.269313	-0.393579	6
C	0.079794	1.350943	0.465941	6
C	1.100754	0.277583	0.909920	6
N	2.252934	0.305783	-0.003039	7
C	0.048424	-0.795867	0.509561	6
N	0.619694	-1.857347	-0.324129	7
H	-2.558246	-0.577787	-0.893269	1
H	-2.529126	1.192453	-0.869899	1
H	-2.541426	0.287083	0.653561	1
H	-0.276856	0.283873	-1.433139	1
H	-0.527796	1.725653	1.299971	1
H	0.465384	2.215443	-0.083389	1
H	1.375194	0.296193	1.967991	1
H	2.024844	0.482853	-0.977780	1
H	2.756994	-0.581777	0.015091	1
H	-0.556506	-1.152207	1.351061	1
H	1.134424	-1.517897	-1.133169	1
H	-0.082686	-2.498467	-0.691569	1
Es	-2.405724	0.906926	-0.712652	99
Es	0.363609	-1.404357	0.026619	99
Es	0.174631	-2.219222	-0.550656	99
Es	-0.371863	-1.042032	1.079126	99
Es	2.081851	0.392718	-0.594460	99
Es	-0.634595	0.269360	-0.393545	99
Es	1.740228	0.266368	0.371122	99
Es	0.840630	-2.051978	-0.147770	99
Es	1.100828	0.277586	0.909785	99
Es	-0.328020	0.880597	0.001313	99
Es	-2.411538	0.289138	0.336883	99
Es	0.635219	0.879195	0.724438	99
Es	2.252583	0.305322	-0.003235	99
Es	-0.342596	1.594765	1.040006	99
Es	0.079789	1.350895	0.465944	99
Es	2.531586	-0.235390	0.003392	99
Es	0.048483	-0.795958	0.509450	99
Es	-1.404720	0.283654	-0.383611	99
Es	0.610780	-0.326992	0.752596	99
Es	0.903433	-1.625141	-0.818417	99
Es	0.619260	-1.856982	-0.324512	99
Es	-0.377458	0.268728	-1.108668	99
Es	0.350722	1.940967	0.089738	99
Es	-0.356026	-0.307710	0.028579	99
Es	-2.425620	-0.305392	-0.729907	99
Es	1.301544	0.285654	1.637646	99
Es	2.465197	0.553191	0.097395	99
Es	-2.151222	0.294178	-0.370136	99
47
Properties=species:S:1:pos:R:3:Z:I:1 energy=-305.27988905338987 field_type=dipole dipole="0.000000 0.000000 0.000000" charge=0
C	-2.151226	0.294183	-0.370129	6
C	-0.634576	0.269313	-0.393579	6
C	0.079794	1.350943	0.465941	6
C	1.100754	0.277583	0.909920	6
N	2.252934	0.305783	-0.003039	7
C	0.048424	-0.795867	0.509561	6
N	0.619694	-1.857347	-0.324129	7
H	-2.558246	-0.577787	-0.893269	1
H	-2.529126	1.192453	-0.869899	1
H	-2.541426	0.287083	0.653561	1
H	-0.276856	0.283873	-1.433139	1
H	-0.527796	1.725653	1.299971	1
H	0.465384	2.215443	-0.083389	1
H	1.375194	0.296193	1.967991	1
H	2.024844	0.482853	-0.977780	1
H	2.756994	-0.581777	0.015091	1
H	-0.556506	-1.152207	1.351061	1
H	1.134424	-1.517897	-1.133169	1
H	-0.082686	-2.498467	-0.691569	1
Es	2.532728	-0.234893	0.003804	99
Es	1.301506	0.285676	1.637652	99
Es	1.100824	0.277586	0.909785	99
Es	2.252501	0.305286	-0.003256	99
Es	0.350688	1.940988	0.089726	99
Es	-2.405569	0.907023	-0.712612	99
Es	1.740322	0.266029	0.371283	99
Es	-0.342586	1.594736	1.040023	99
Es	-0.377388	0.268749	-1.108786	99
Es	-1.404857	0.283567	-0.383647	99
Es	0.079790	1.350894	0.465943	99
Es	2.081477	0.391991	-0.594468	99
Es	-2.425615	-0.305436	-0.730047	99
Es	0.174720	-2.219544	-0.550375	99
Es	-0.328178	0.880605	0.001411	99
Es	0.619308	-1.857016	-0.324474	99
Es	-0.356205	-0.307647	0.028610	99
Es	-0.371782	-1.042100	1.079066	99
Es	2.464451	0.553786	0.096864	99
Es	0.635283	0.879170	0.724403	99
Es	-0.634595	0.269360	-0.393545	99
Es	-2.151224	0.294177	-0.370136	99
Es	0.048484	-0.795958	0.509451	99
Es	0.840435	-2.051593	-0.147839	99
Es	0.610839	-0.326981	0.752642	99
Es	-2.411405	0.289116	0.337012	99
Es	0.903526	-1.625192	-0.818606	99
Es	0.363512	-1.404291	0.026581	99
47
Properties=species:S:1:pos:R:3:Z:I:1 energy=-305.27988905338987 field_type=dipole dipole="0.000000 0.000000 0.000000" charge=0
C	-2.151226	0.294183	-0.370129	6
C	-0.634576	0.269313	-0.393579	6
C	0.079794	1.350943	0.465941	6
C	1.100754	0.277583	0.909920	6
N	2.252934	0.305783	-0.003039	7
C	0.048424	-0.795867	0.509561	6
N	0.619694	-1.857347	-0.324129	7
H	-2.558246	-0.577787	-0.893269	1
H	-2.529126	1.192453	-0.869899	1
H	-2.541426	0.287083	0.653561	1
H	-0.276856	0.283873	-1.433139	1
H	-0.527796	1.725653	1.299971	1
H	0.465384	2.215443	-0.083389	1
H	1.375194	0.296193	1.967991	1
H	2.024844	0.482853	-0.977780	1
H	2.756994	-0.581777	0.015091	1
H	-0.556506	-1.152207	1.351061	1
H	1.134424	-1.517897	-1.133169	1
H	-0.082686	-2.498467	-0.691569	1
Es	0.174871	-2.219781	-0.550292	99
Es	2.252526	0.305332	-0.003231	99
Es	0.048484	-0.795957	0.509451	99
Es	1.301469	0.285682	1.637768	99
Es	0.610771	-0.326901	0.752530	99
Es	-2.411469	0.289167	0.337017	99
Es	-2.405521	0.906991	-0.712670	99
Es	-0.356195	-0.307569	0.028699	99
Es	-0.328202	0.880468	0.001408	99
Es	0.079793	1.350895	0.465942	99
Es	1.740469	0.266207	0.371041	99
Es	2.465573	0.553329	0.097574	99
Es	-2.151224	0.294178	-0.370137	99
Es	0.619316	-1.857026	-0.324458	99
Es	0.903570	-1.625156	-0.818663	99
Es	-1.404829	0.283516	-0.383532	99
Es	-0.377410	0.268755	-1.108877	99
Es	1.100825	0.277585	0.909785	99
Es	2.081532	0.392686	-0.594467	99
Es	0.635275	0.879110	0.724295	99
Es	0.350680	1.940913	0.089624	99
Es	-2.425641	-0.305384	-0.730002	99
Es	-0.342556	1.594808	1.040119	99
Es	0.840468	-2.051365	-0.147677	99
Es	2.531371	-0.235359	0.003268	99
Es	-0.634596	0.269360	-0.393546	99
Es	-0.371675	-1.041987	1.079142	99
Es	0.363311	-1.404412	0.026353	99
47
Properties=species:S:1:pos:R:3:Z:I:1 energy=-305.27988905338987 field_type=dipole dipole="0.000000 0.000000 0.000000" charge=0
C	-2.151226	0.294183	-0.370129	6
C	-0.634576	0.269313	-0.393579	6
C	0.079794	1.350943	0.465941	6
C	1.100754	0.277583	0.909920	6
N	2.252934	0.305783	-0.003039	7
C	0.048424	-0.795867	0.509561	6
N	0.619694	-1.857347	-0.324129	7
H	-2.558246	-0.577787	-0.893269	1
H	-2.529126	1.192453	-0.869899	1
H	-2.541426	0.287083	0.653561	1
H	-0.276856	0.283873	-1.433139	1
H	-0.527796	1.725653	1.299971	1
H	0.465384	2.215443	-0.083389	1
H	1.375194	0.296193	1.967991	1
H	2.024844	0.482853	-0.977780	1
H	2.756994	-0.581777	0.015091	1
H	-0.556506	-1.152207	1.351061	1
H	1.134424	-1.517897	-1.133169	1
H	-0.082686	-2.498467	-0.691569	1
Es	-2.405590	0.906988	-0.712673	99
Es	0.079792	1.350894	0.465944	99
Es	-2.425550	-0.305469	-0.730012	99
Es	0.619299	-1.857014	-0.324478	99
Es	0.903497	-1.625157	-0.818617	99
Es	-0.634595	0.269361	-0.393545	99
Es	0.363510	-1.404361	0.026674	99
Es	1.301485	0.285671	1.637755	99