43
Properties=species:S:1:pos:R:3:Z:I:1 energy=-661.4593372843789 field_type=dipole dipole="0.000000 0.000000 0.000000" charge=0
C	-1.450454	-1.327596	0.114760	6
C	0.065716	-1.223166	0.064670	6
C	0.517015	0.199074	0.061330	6
N	0.702215	0.928434	1.143360	7
N	1.120265	2.210094	0.845410	7
C	1.235565	2.397984	-0.450730	6
S	0.844915	1.031484	-1.408620	16
H	-1.757575	-2.377966	0.137480	1
H	-1.910554	-0.858306	-0.761390	1
H	-1.852005	-0.836716	1.007910	1
H	0.442356	-1.753816	-0.817690	1
H	0.490766	-1.729046	0.939680	1
H	1.551775	3.339544	-0.876170	1
Es	0.914997	0.963128	-1.477664	99
Es	0.517027	0.199124	0.061190	99
Es	-1.755542	-1.006566	-0.485382	99
Es	0.891898	2.328010	0.247553	99
Es	0.300541	-0.488421	0.047581	99
Es	0.844921	1.031484	-1.408596	99
Es	1.120153	2.209673	0.844917	99
Es	0.448578	1.114255	-1.590217	99
Es	0.905286	0.586489	0.657612	99
Es	0.065712	-1.223066	0.064649	99
Es	1.242047	0.874897	-1.505156	99
Es	0.839054	1.138833	-1.452797	99
Es	0.652421	0.811195	1.487007	99
Es	0.375097	0.748312	0.637362	99
Es	1.420062	2.157511	0.270943	99
Es	1.188636	2.459230	1.105261	99
Es	0.888891	1.037952	-1.297505	99
Es	0.353677	-1.551570	0.650943	99
Es	1.048550	1.759070	-0.953338	99
Es	-1.650800	-2.042936	0.127893	99
Es	0.702286	0.928598	1.142737	99
Es	1.443618	3.014180	-0.749650	99
Es	0.322755	-1.566460	-0.541722	99
Es	0.736860	0.987238	-1.403450	99
Es	-1.715835	-0.995410	0.718202	99
Es	0.907965	1.563303	0.959730	99
Es	-0.677255	-1.253769	0.085334	99
Es	-1.450391	-1.327597	0.114745	99
Es	0.661012	0.580038	-0.677893	99
Es	1.235529	2.397866	-0.450845	99
43
Properties=species:S:1:pos:R:3:Z:I:1 energy=-661.4593372843789 field_type=dipole dipole="0.000000 0.000000 0.000000" charge=0
C	-1.450454	-1.327596	0.114760	6
C	0.065716	-1.223166	0.064670	6
C	0.517015	0.199074	0.061330	6
N	0.702215	0.928434	1.143360	7
N	1.120265	2.210094	0.845410	7
C	1.235565	2.397984	-0.450730	6
S	0.844915	1.031484	-1.408620	16
H	-1.757575	-2.377966	0.137480	1
H	-1.910554	-0.858306	-0.761390	1
H	-1.852005	-0.836716	1.007910	1
H	0.442356	-1.753816	-0.817690	1
H	0.490766	-1.729046	0.939680	1
H	1.551775	3.339544	-0.876170	1
Es	1.444259	3.014430	-0.749325	99
Es	1.235527	2.397866	-0.450847	99
Es	-1.649823	-2.044035	0.127080	99
Es	-1.715674	-0.994278	0.719701	99
Es	0.845270	1.031020	-1.408425	99
Es	0.775789	1.095974	-1.337429	99
Es	0.065712	-1.223067	0.064649	99
Es	0.978631	1.030277	-1.200769	99
Es	1.186337	2.463667	1.106113	99
Es	0.352131	-1.551729	0.651763	99
Es	0.949377	1.071420	-1.398273	99
Es	0.382111	0.747446	0.636663	99
Es	0.897271	2.324738	0.246620	99
Es	0.648199	0.809091	1.489904	99
Es	-1.754170	-1.006542	-0.485749	99
Es	0.902821	0.588625	0.657131	99
Es	0.843615	0.918132	-1.371644	99
Es	1.120150	2.209669	0.844922	99
Es	0.517043	0.199119	0.061176	99
Es	0.808928	1.041717	-1.525237	99
Es	0.322089	-1.567909	-0.543260	99
Es	0.299877	-0.487489	0.048495	99
Es	0.906059	1.563470	0.958173	99
Es	0.702293	0.928614	1.142736	99
Es	0.637246	0.575739	-0.680750	99
Es	-0.676647	-1.253398	0.085247	99
Es	1.417373	2.156916	0.270386	99
Es	-1.450392	-1.327596	0.114746	99
Es	1.035364	1.772832	-0.960211	99
Es	0.750983	0.949871	-1.884143	99
43
Properties=species:S:1:pos:R:3:Z:I:1 energy=-661.4593372843789 field_type=dipole dipole="0.000000 0.000000 0.000000" charge=0
C	-1.450454	-1.327596	0.114760	6
C	0.065716	-1.223166	0.064670	6
C	0.517015	0.199074	0.061330	6
N	0.702215	0.928434	1.143360	7
N	1.120265	2.210094	0.845410	7
C	1.235565	2.397984	-0.450730	6
S	0.844915	1.031484	-1.408620	16
H	-1.757575	-2.377966	0.137480	1
H	-1.910554	-0.858306	-0.761390	1
H	-1.852005	-0.836716	1.007910	1
H	0.442356	-1.753816	-0.817690	1
H	0.490766	-1.729046	0.939680	1
H	1.551775	3.339544	-0.876170	1
Es	1.189799	2.463824	1.106559	99
Es	0.702298	0.928623	1.142747	99
Es	0.517037	0.199122	0.061177	99
Es	0.768856	0.985690	-1.325102	99
Es	1.413999	2.157773	0.269444	99
Es	0.823531	0.991036	-1.526980	99
Es	-1.450394	-1.327596	0.114745	99
Es	-0.676268	-1.253333	0.085171	99
Es	0.845868	1.148233	-1.400264	99
Es	0.908005	1.562517	0.957659	99
Es	1.052800	1.768853	-0.959000	99
Es	-1.754120	-1.005986	-0.486436	99
Es	1.444120	3.014685	-0.749182	99
Es	0.382454	0.748474	0.636554	99
Es	1.235534	2.397864	-0.450847	99
Es	0.654246	0.568830	-0.678592	99
Es	0.845098	1.030649	-1.408178	99
Es	0.650458	0.807154	1.491204	99
Es	0.899485	0.589875	0.656521	99
Es	0.065712	-1.223066	0.064650	99
Es	0.896469	2.323674	0.247363	99
Es	-1.649508	-2.044381	0.127405	99
Es	0.940145	1.002658	-1.380749	99
Es	0.878748	1.064192	-1.198494	99
Es	0.321339	-1.567942	-0.543722	99
Es	1.120154	2.209680	0.844916	99
Es	0.815999	0.927172	-1.890067	99
Es	0.351772	-1.552412	0.652491	99
Es	-1.714890	-0.994240	0.719904	99
Es	0.299004	-0.487033	0.048550	99
43
Properties=species:S:1:pos:R:3:Z:I:1 energy=-661.4593372843789 field_type=dipole dipole="0.000000 0.000000 0.000000" charge=0
C	-1.450454	-1.327596	0.114760	6
C	0.065716	-1.223166	0.064670	6
C	0.517015	0.199074	0.061330	6
N	0.702215	0.928434	1.143360	7
N	1.120265	2.210094	0.845410	7
C	1.235565	2.397984	-0.450730	6
S	0.844915	1.031484	-1.408620	16
H	-1.757575	-2.377966	0.137480	1
H	-1.910554	-0.858306	-0.761390	1
H	-1.852005	-0.836716	1.007910	1
H	0.442356	-1.753816	-0.817690	1
H	0.490766	-1.729046	0.939680	1
H	1.551775	3.339544	-0.876170	1
Es	0.517034	0.199121	0.061172	99
Es	-1.450393	-1.327594	0.114743	99
Es	0.897735	2.322453	0.247442	99
Es	0.819255	0.926270	-1.890241	99
Es	0.320768	-1.568422	-0.544259	99
Es	0.933178	1.007152	-1.413605	99
Es	0.784845	0.930497	-1.440274	99
Es	1.412159	2.157460	0.269282	99
Es	0.873440	1.066011	-1.199122	99
Es	1.190129	2.465111	1.106684	99
Es	0.825656	1.068822	-1.287320	99
Es	0.384104	0.748331	0.636475	99
Es	0.908041	1.562393	0.957096	99
Es	1.055398	1.767644	-0.958719	99
Es	0.298459	-0.486602	0.048762	99
Es	-1.714684	-0.993988	0.720440	99
Es	-0.676024	-1.253107	0.085310	99
Es	1.120149	2.209666	0.844922	99
Es	0.702282	0.928603	1.142743	99
Es	0.653870	0.569260	-0.678738	99
Es	1.235524	2.397866	-0.450848	99
Es	0.898187	0.591160	0.656687	99
Es	1.444378	3.014776	-0.749069	99
Es	0.065711	-1.223065	0.064648	99
Es	0.351159	-1.552628	0.653001	99
Es	0.834335	1.120426	-1.491499	99
Es	0.845402	1.031207	-1.408546	99
Es	0.650132	0.806323	1.491969	99
Es	-1.648953	-2.044813	0.127122	99
Es	-1.753525	-1.005745	-0.486816	99
43
Properties=species:S:1:pos:R:3:Z:I:1 energy=-661.4593372843789 field_type=dipole dipole="0.000000 0.000000 0.000000" charge=0
C	-1.450454	-1.327596	0.114760	6
C	0.065716	-1.223166	0.064670	6
C	0.517015	0.199074	0.061330	6
N	0.702215	0.928434	1.143360	7
N	1.120265	2.210094	0.845410	7
C	1.235565	2.397984	-0.450730	6
S	0.844915	1.031484	-1.408620	16
H	-1.757575	-2.377966	0.137480	1
H	-1.910554	-0.858306	-0.761390	1
H	-1.852005	-0.836716	1.007910	1
H	0.442356	-1.753816	-0.817690	1
H	0.490766	-1.729046	0.939680	1
H	1.551775	3.339544	-0.876170	1
Es	-1.450390	-1.327594	0.114745	99
Es	0.298126	-0.486306	0.048901	99
Es	1.120157	2.209688	0.844918	99
Es	0.650083	0.805353	1.492582	99
Es	-1.714312	-0.993622	0.720710	99
Es	-0.675522	-1.252957	0.085398	99
Es	0.065711	-1.223066	0.064649	99
Es	0.914499	0.998233	-1.406951	99
Es	1.056980	1.766893	-0.958604	99
Es	1.235520	2.397868	-0.450848	99
Es	0.908012	1.562369	0.956619	99
Es	0.656153	0.568721	-0.678569	99
Es	0.702280	0.928581	1.142744	99
Es	0.861864	1.069693	-1.199730	99
Es	-1.753196	-1.005691	-0.487199	99
Es	1.444363	3.014900	-0.748970	99
Es	0.350596	-1.552900	0.653328	99
Es	0.898734	2.321823	0.247398	99
Es	0.842265	1.085204	-1.524842	99
Es	0.385121	0.746819	0.635545	99
Es	1.410798	2.156966	0.269444	99
Es	0.844773	1.031631	-1.408458	99
Es	0.517035	0.199122	0.061172	99
Es	1.190651	2.465904	1.106981	99
Es	0.769998	0.933349	-1.389281	99
Es	0.897440	0.593950	0.657340	99
Es	0.853096	1.108915	-1.311740	99
Es	0.825556	0.924588	-1.890302	99
Es	0.320088	-1.568844	-0.544783	99
Es	-1.648728	-2.044998	0.127247	99
43
Properties=species:S:1:pos:R:3:Z:I:1 energy=-661.4593372843789 field_type=dipole dipole="0.000000 0.000000 0.000000" charge=0
C	-1.450454	-1.327596	0.114760	6
C	0.065716	-1.223166	0.064670	6
C	0.517015	0.199074	0.061330	6
N	0.702215	0.928434	1.143360	7
N	1.120265	2.210094	0.845410	7
C	1.235565	2.397984	-0.450730	6
S	0.844915	1.031484	-1.408620	16
H	-1.757575	-2.377966	0.137480	1
H	-1.910554	-0.858306	-0.761390	1
H	-1.852005	-0.836716	1.007910	1
H	0.442356	-1.753816	-0.817690	1
H	0.490766	-1.729046	0.939680	1
H	1.551775	3.339544	-0.876170	1
Es	0.065714	-1.223073	0.064651	99
Es	1.120153	2.209677	0.844918	99
Es	1.058118	1.766417	-0.958556	99
Es	0.899219	2.321234	0.247380	99
Es	1.409815	2.156856	0.269304	99
Es	0.385953	0.748020	0.636089	99
Es	-1.450392	-1.327596	0.114747	99
Es	1.235534	2.397863	-0.450850	99
Es	0.860798	1.070223	-1.199924	99
Es	0.650323	0.804575	1.492913	99
Es	0.702282	0.928590	1.142740	99
Es	1.191074	2.466402	1.106999	99
Es	-1.752900	-1.005545	-0.487478	99
Es	0.825188	0.924146	-1.890331	99
Es	-1.648469	-2.045218	0.127248	99
Es	0.844995	1.031404	-1.408526	99
Es	0.655835	0.568894	-0.678669	99
Es	-0.675261	-1.252824	0.085216	99
Es	-1.713972	-0.993404	0.720983	99
Es	0.517029	0.199123	0.061171	99
Es	0.816334	0.953017	-1.312955	99
Es	0.896156	0.593600	0.656838	99
Es	0.793290	1.058561	-1.413300	99
Es	1.444415	3.015002	-0.748931	99
Es	0.908197	1.562246	0.956503	99
Es	0.297852	-0.486140	0.048997	99
Es	0.915724	1.131190	-1.378387	99
Es	0.350105	-1.553131	0.653836	99
Es	0.854926	0.983524	-1.528098	99
Es	0.319717	-1.569041	-0.545085	99
43
Properties=species:S:1:pos:R:3:Z:I:1 energy=-661.4593372843789 field_type=dipole dipole="0.000000 0.000000 0.000000" charge=0
C	-1.450454	-1.327596	0.114760	6
C	0.065716	-1.223166	0.064670	6
C	0.517015	0.199074	0.061330	6
N	0.702215	0.928434	1.143360	7
N	1.120265	2.210094	0.845410	7
C	1.235565	2.397984	-0.450730	6
S	0.844915	1.031484	-1.408620	16
H	-1.757575	-2.377966	0.137480	1
H	-1.910554	-0.858306	-0.761390	1
H	-1.852005	-0.836716	1.007910	1
H	0.442356	-1.753816	-0.817690	1
H	0.490766	-1.729046	0.939680	1
H	1.551775	3.339544	-0.876170	1
Es	0.854995	1.028111	-1.407513	99
Es	0.899494	2.320718	0.247734	99
Es	0.797265	0.914575	-1.390524	99
Es	-1.713833	-0.993374	0.721221	99
Es	0.702287	0.928606	1.142732	99
Es	0.825378	0.924730	-1.890559	99
Es	1.058738	1.765988	-0.958470	99
Es	-0.674977	-1.252738	0.085144	99
Es	0.866702	1.075318	-1.528751	99
Es	1.191198	2.466767	1.106925	99
Es	0.065711	-1.223065	0.064649	99
Es	0.895957	0.594859	0.657310	99
Es	0.297598	-0.485929	0.049191	99
Es	1.444668	3.014938	-0.748838	99
Es	0.908227	1.562117	0.956390	99
Es	0.655372	0.569229	-0.678691	99
Es	1.409332	2.156866	0.269128	99
Es	0.861240	1.070035	-1.200020	99
Es	1.120160	2.209700	0.844919	99
Es	0.842420	1.032528	-1.408672	99
Es	1.235523	2.397867	-0.450849	99
Es	0.517031	0.199123	0.061172	99
Es	0.863106	1.106802	-1.305843	99
Es	-1.648248	-2.045264	0.127172	99
Es	-1.752855	-1.005509	-0.487562	99
Es	-1.450392	-1.327596	0.114746	99
Es	0.650206	0.804433	1.493198	99
Es	0.319472	-1.569174	-0.545326	99
Es	0.349782	-1.553292	0.653916	99
Es	0.386197	0.747218	0.635512	99
43
Properties=species:S:1:pos:R:3:Z:I:1 energy=-661.4593372843789 field_type=dipole dipole="0.000000 0.000000 0.000000" charge=0
C	-1.450454	-1.327596	0.114760	6
C	0.065716	-1.223166	0.064670	6
C	0.517015	0.199074	0.061330	6
N	0.702215	0.928434	1.143360	7
N	1.120265	2.210094	0.845410	7
C	1.235565	2.397984	-0.450730	6
S	0.844915	1.031484	-1.408620	16
H	-1.757575	-2.377966	0.137480	1
H	-1.910554	-0.858306	-0.761390	1
H	-1.852005	-0.836716	1.007910	1
H	0.442356	-1.753816	-0.817690	1
H	0.490766	-1.729046	0.939680	1
H	1.551775	3.339544	-0.876170	1
Es	0.805471	0.915521	-1.432974	99
Es	0.654585	0.569683	-0.678751	99
Es	-0.674775	-1.252720	0.085014	99
Es	-1.752480	-1.005377	-0.487629	99
Es	0.702288	0.928610	1.142743	99
Es	1.120143	2.209661	0.844916	99
Es	0.649996	0.803907	1.493465	99
Es	0.349355	-1.553428	0.654233	99
Es	1.444805	3.014950	-0.748898	99
Es	1.191174	2.467350	1.106913	99
Es	0.319164	-1.569383	-0.545598	99
Es	0.297228	-0.485723	0.049285	99
Es	0.517031	0.199123	0.061173	99
Es	0.859993	1.071712	-1.282704	99
Es	0.387148	0.747328	0.635617	99
Es	1.408591	2.156314	0.269409	99
Es	0.859572	1.070686	-1.200226	99
Es	0.837919	1.034116	-1.408731	99
Es	0.843984	1.031823	-1.408627	99
Es	-1.648233	-2.045505	0.127096	99
Es	0.877611	1.104335	-1.508248	99
Es	-1.713484	-0.993072	0.721421	99
Es	0.826161	0.923995	-1.890453	99
Es	0.908143	1.562150	0.956082	99
Es	-1.450391	-1.327595	0.114744	99
Es	1.235535	2.397863	-0.450848	99
Es	1.059938	1.765459	-0.958320	99
Es	0.900353	2.320777	0.247347	99
Es	0.895217	0.595095	0.657347	99
Es	0.065710	-1.223067	0.064649	99
43
Properties=species:S:1:pos:R:3:Z:I:1 energy=-661.4593372843789 field_type=dipole dipole="0.000000 0.000000 0.000000" charge=0
C	-1.450454	-1.327596	0.114760	6
C	0.065716	-1.223166	0.064670	6
C	0.517015	0.199074	0.061330	6
N	0.702215	0.928434	1.143360	7
N	1.120265	2.210094	0.845410	7
C	1.235565	2.397984	-0.450730	6
S	0.844915	1.031484	-1.408620	16
H	-1.757575	-2.377966	0.137480	1
H	-1.910554	-0.858306	-0.761390	1
H	-1.852005	-0.836716	1.007910	1
H	0.442356	-1.753816	-0.817690	1
H	0.490766	-1.729046	0.939680	1
H	1.551775	3.339544	-0.876170	1
Es	1.060714	1.765055	-0.958313	99
Es	0.857813	1.071367	-1.200319	99
Es	1.235524	2.397865	-0.450851	99
Es	0.650021	0.803411	1.493765	99
Es	0.387782	0.747332	0.635523	99
Es	0.827347	0.923449	-1.890540	99
Es	0.297132	-0.485502	0.049361	99
Es	1.191544	2.467565	1.107207	99
Es	-1.752106	-1.005220	-0.487986	99
Es	-1.450391	-1.327596	0.114745	99
Es	0.654743	0.569635	-0.678834	99
Es	0.881520	1.150187	-1.384052	99
Es	0.348923	-1.553628	0.654466	99
Es	0.318641	-1.569648	-0.545805	99
Es	0.803871	0.961214	-1.309140	99
Es	0.894442	0.595694	0.657320	99
Es	0.065711	-1.223067	0.064649	99
Es	0.517034	0.199122	0.061172	99
Es	0.908236	1.562067	0.955570	99
Es	-1.713361	-0.992991	0.721597	99
Es	0.900441	2.320056	0.247917	99
Es	0.702287	0.928606	1.142742	99
Es	1.408035	2.156722	0.268960	99
Es	-0.674497	-1.252619	0.085220	99
Es	0.845283	1.031131	-1.408492	99
Es	-1.647976	-2.045611	0.127066	99
Es	0.871346	1.021095	-1.407815	99
Es	1.444896	3.014925	-0.748762	99
Es	0.822644	0.994307	-1.531850	99
Es	1.120150	2.209666	0.844923	99
43
Properties=species:S:1:pos:R:3:Z:I:1 energy=-661.4593372843789 field_type=dipole dipole="0.000000 0.000000 0.000000" charge=0
C	-1.450454	-1.327596	0.114760	6
C	0.065716	-1.223166	0.064670	6
C	0.517015	0.199074	0.061330	6
N	0.702215	0.928434	1.143360	7
N	1.120265	2.210094	0.845410	7
C	1.235565	2.397984	-0.450730	6
S	0.844915	1.031484	-1.408620	16
H	-1.757575	-2.377966	0.137480	1
H	-1.910554	-0.858306	-0.761390	1
H	-1.852005	-0.836716	1.007910	1
H	0.442356	-1.753816	-0.817690	1
H	0.490766	-1.729046	0.939680	1
H	1.551775	3.339544	-0.876170	1
Es	-1.450391	-1.327595	0.114745	99
Es	1.407333	2.156604	0.269042	99
Es	0.893903	0.595839	0.657153	99
Es	0.900955	2.319692	0.247840	99
Es	0.702284	0.928591	1.142742	99
Es	0.841894	1.033092	-1.408506	99
Es	1.120153	2.209667	0.844917	99
Es	0.655190	0.569592	-0.678732	99
Es	0.297019	-0.485430	0.049410	99
Es	0.782357	0.925653	-1.433130	99
Es	0.649987	0.803109	1.493951	99
Es	0.065708	-1.223066	0.064648	99
Es	-1.713028	-0.992868	0.721818	99
Es	0.854969	1.072107	-1.200887	99
Es	0.828608	0.923237	-1.890425	99
Es	0.388325	0.747639	0.635703	99
Es	-1.751886	-1.005061	-0.488123	99
Es	1.444919	3.015040	-0.748671	99
Es	0.908319	1.562018	0.955437	99
Es	0.864887	1.069186	-1.282997	99
Es	-0.674397	-1.252614	0.085043	99
Es	1.191674	2.468024	1.107128	99
Es	1.235536	2.397863	-0.450849	99
Es	0.348501	-1.553799	0.654715	99
Es	0.851419	1.027624	-1.408408	99
Es	-1.647784	-2.045789	0.127015	99
Es	0.318437	-1.569756	-0.545976	99
Es	0.885546	1.101685	-1.507935	99
Es	0.517032	0.199123	0.061170	99
Es	1.060283	1.765181	-0.958394	99
43
Properties=species:S:1:pos:R:3:Z:I:1 energy=-661.4593372843789 field_type=dipole dipole="0.000000 0.000000 0.000000" charge=0
C	-1.450454	-1.327596	0.114760	6
C	0.065716	-1.223166	0.064670	6
C	0.517015	0.199074	0.061330	6
N	0.702215	0.928434	1.143360	7
N	1.120265	2.210094	0.845410	7
C	1.235565	2.397984	-0.450730	6
S	0.844915	1.031484	-1.408620	16
H	-1.757575	-2.377966	0.137480	1
H	-1.910554	-0.858306	-0.761390	1
H	-1.852005	-0.836716	1.007910	1
H	0.442356	-1.753816	-0.817690	1
H	0.490766	-1.729046	0.939680	1
H	1.551775	3.339544	-0.876170	1
Es	-1.647819	-2.045771	0.126898	99
Es	-1.713051	-0.992772	0.721922	99
Es	0.894150	0.597514	0.658041	99
Es	0.296596	-0.485333	0.049480	99
Es	0.844759	1.031552	-1.408598	99
Es	0.841490	1.006047	-1.536646	99
Es	-1.751641	-1.005054	-0.488165	99
Es	0.901453	2.319745	0.247645	99
Es	0.388615	0.746169	0.634852	99
Es	1.407108	2.156144	0.269257	99
Es	0.318229	-1.569913	-0.546185	99
Es	0.702283	0.928609	1.142744	99
Es	0.857805	1.071281	-1.200488	99
Es	0.348311	-1.553789	0.654847	99
Es	1.120150	2.209666	0.844930	99
Es	0.810135	0.943333	-1.320778	99
Es	0.517033	0.199122	0.061171	99
Es	0.908159	1.561964	0.955368	99
Es	0.841268	1.032849	-1.408828	99
Es	0.065711	-1.223066	0.064649	99
Es	0.887430	1.143637	-1.366389	99
Es	1.235534	2.397863	-0.450850	99
Es	-1.450389	-1.327594	0.114746	99
Es	0.826791	0.923988	-1.890697	99
Es	0.649619	0.803068	1.494064	99
Es	-0.674104	-1.252581	0.085151	99
Es	1.445089	3.014979	-0.748700	99
Es	0.653843	0.570080	-0.678954	99
Es	1.061707	1.764580	-0.958180	99
Es	1.191489	2.468271	1.107139	99
43
Properties=species:S:1:pos:R:3:Z:I:1 energy=-661.4593372843789 field_type=dipole dipole="0.000000 0.000000 0.000000" charge=0
C	-1.450454	-1.327596	0.114760	6
C	0.065716	-1.223166	0.064670	6
C	0.517015	0.199074	0.061330	6
N	0.702215	0.928434	1.143360	7
N	1.120265	2.210094	0.845410	7
C	1.235565	2.397984	-0.450730	6
S	0.844915	1.031484	-1.408620	16
H	-1.757575	-2.377966	0.137480	1
H	-1.910554	-0.858306	-0.761390	1
H	-1.852005	-0.836716	1.007910	1
H	0.442356	-1.753816	-0.817690	1
H	0.490766	-1.729046	0.939680	1
H	1.551775	3.339544	-0.876170	1
Es	0.784202	0.944689	-1.339254	99
Es	0.908294	1.561870	0.955190	99
Es	-1.647739	-2.045974	0.126952	99
Es	-1.712576	-0.992622	0.722059	99
Es	1.445116	3.015049	-0.748662	99
Es	-0.673726	-1.252466	0.084950	99
Es	0.389329	0.746289	0.634796	99
Es	0.065711	-1.223066	0.064649	99
Es	0.296477	-0.485132	0.049589	99
Es	0.317746	-1.570048	-0.546364	99
Es	-1.751451	-1.004852	-0.488309	99
Es	0.869712	1.142968	-1.351940	99
Es	0.901574	2.319077	0.248129	99
Es	0.847839	1.020952	-1.538363	99
Es	0.653488	0.570279	-0.678957	99
Es	0.860619	1.070431	-1.200508	99
Es	1.235535	2.397862	-0.450850	99
Es	0.649477	0.802637	1.494261	99
Es	0.876629	1.018447	-1.402820	99
Es	0.702296	0.928621	1.142738	99
Es	0.825141	0.924528	-1.890779	99
Es	-1.450392	-1.327596	0.114745	99
Es	0.517033	0.199122	0.061171	99
Es	0.893572	0.597812	0.658036	99
Es	1.061558	1.764482	-0.958205	99
Es	1.406698	2.156569	0.268868	99
Es	0.845802	1.030688	-1.408910	99
Es	0.347768	-1.554106	0.655167	99
Es	1.191874	2.468414	1.107141	99
Es	1.120145	2.209665	0.844923	99
43
Properties=species:S:1:pos:R:3:Z:I:1 energy=-661.4593372843789 field_type=dipole dipole="0.000000 0.000000 0.000000" charge=0
C	-1.450454	-1.327596	0.114760	6
C	0.065716	-1.223166	0.064670	6
C	0.517015	0.199074	0.061330	6
N	0.702215	0.928434	1.143360	7
N	1.120265	2.210094	0.845410	7
C	1.235565	2.397984	-0.450730	6
S	0.844915	1.031484	-1.408620	16
H	-1.757575	-2.377966	0.137480	1
H	-1.910554	-0.858306	-0.761390	1
H	-1.852005	-0.836716	1.007910	1
H	0.442356	-1.753816	-0.817690	1
H	0.490766	-1.729046	0.939680	1
H	1.551775	3.339544	-0.876170	1
Es	0.828903	0.923461	-1.890737	99
Es	0.845651	1.031202	-1.408593	99
Es	1.235535	2.397863	-0.450850	99
Es	0.853044	1.058047	-1.535909	99
Es	0.853769	1.072811	-1.201232	99
Es	-1.751221	-1.004776	-0.488292	99
Es	-1.450392	-1.327595	0.114746	99
Es	0.296505	-0.485158	0.049735	99
Es	0.882953	1.116373	-1.317732	99
Es	1.062882	1.763928	-0.958155	99
Es	0.908374	1.561775	0.955086	99
Es	0.347680	-1.554092	0.655080	99
Es	1.406478	2.156613	0.268714	99
Es	0.702288	0.928609	1.142744	99
Es	0.847769	1.030178	-1.408665	99
Es	0.517035	0.199121	0.061171	99
Es	0.796487	0.921105	-1.369858	99
Es	0.065708	-1.223064	0.064648	99
Es	1.191750	2.468672	1.107109	99
Es	0.901717	2.318825	0.248239	99
Es	0.649558	0.802585	1.494388	99
Es	1.120151	2.209664	0.844922	99
Es	0.893167	0.596952	0.657616	99
Es	-0.673706	-1.252444	0.085128	99
Es	-1.647774	-2.046044	0.126821	99
Es	1.445273	3.014992	-0.748590	99
Es	0.389472	0.747411	0.635245	99
Es	0.317569	-1.570162	-0.546555	99
Es	0.653676	0.570288	-0.678918	99
Es	-1.712547	-0.992551	0.722138	99
43
Properties=species:S:1:pos:R:3:Z:I:1 energy=-661.4593372843789 field_type=dipole dipole="0.000000 0.000000 0.000000" charge=0
C	-1.450454	-1.327596	0.114760	6
C	0.065716	-1.223166	0.064670	6
C	0.517015	0.199074	0.061330	6
N	0.702215	0.928434	1.143360	7
N	1.120265	2.210094	0.845410	7
C	1.235565	2.397984	-0.450730	6
S	0.844915	1.031484	-1.408620	16
H	-1.757575	-2.377966	0.137480	1
H	-1.910554	-0.858306	-0.761390	1
H	-1.852005	-0.836716	1.007910	1
H	0.442356	-1.753816	-0.817690	1
H	0.490766	-1.729046	0.939680	1
H	1.551775	3.339544	-0.876170	1
Es	0.652680	0.570741	-0.678969	99
Es	0.854827	1.072256	-1.200857	99
Es	-1.712452	-0.992385	0.722258	99
Es	0.517033	0.199122	0.061171	99
Es	0.798164	0.967917	-1.510245	99
Es	0.065708	-1.223066	0.064648	99
Es	0.878509	1.018048	-1.411092	99
Es	-1.450393	-1.327597	0.114745	99
Es	0.702285	0.928602	1.142739	99
Es	0.879970	1.150019	-1.425546	99
Es	0.390010	0.745825	0.634455	99
Es	1.063278	1.763787	-0.958209	99
Es	0.649010	0.802364	1.494436	99
Es	1.191653	2.469006	1.107144	99
Es	1.406057	2.156593	0.268670	99
Es	0.843034	1.032286	-1.408217	99
Es	-1.647608	-2.046219	0.126722	99
Es	0.908393	1.561819	0.954993	99
Es	-0.673447	-1.252252	0.085076	99
Es	-1.750880	-1.004729	-0.488380	99
Es	0.296272	-0.485055	0.049784	99
Es	1.120150	2.209666	0.844921	99
Es	0.826113	0.989753	-1.286180	99
Es	1.445454	3.014949	-0.748549	99
Es	0.901999	2.318553	0.248241	99
Es	0.893103	0.598668	0.658476	99
Es	0.317319	-1.570338	-0.546756	99
Es	0.347176	-1.554203	0.655355	99
Es	1.235531	2.397861	-0.450852	99
Es	0.828803	0.922599	-1.890539	99
43
Properties=species:S:1:pos:R:3:Z:I:1 energy=-661.4593372843789 field_type=dipole dipole="0.000000 0.000000 0.000000" charge=0
C	-1.450454	-1.327596	0.114760	6
C	0.065716	-1.223166	0.064670	6
C	0.517015	0.199074	0.061330	6
N	0.702215	0.928434	1.143360	7
N	1.120265	2.210094	0.845410	7
C	1.235565	2.397984	-0.450730	6
S	0.844915	1.031484	-1.408620	16
H	-1.757575	-2.377966	0.137480	1
H	-1.910554	-0.858306	-0.761390	1
H	-1.852005	-0.836716	1.007910	1
H	0.442356	-1.753816	-0.817690	1
H	0.490766	-1.729046	0.939680	1
H	1.551775	3.339544	-0.876170	1
Es	1.445279	3.015040	-0.748614	99
Es	-1.750813	-1.004683	-0.488544	99
Es	0.346802	-1.554347	0.655527	99
Es	0.653029	0.570664	-0.678998	99
Es	0.065711	-1.223066	0.064648	99
Es	-1.712242	-0.992348	0.722424	99
Es	0.860167	1.058241	-1.534214	99
Es	-1.450393	-1.327596	0.114746	99
Es	0.829156	0.923358	-1.890763	99
Es	1.191547	2.469171	1.107176	99
Es	0.390247	0.746681	0.634797	99
Es	1.120150	2.209666	0.844924	99
Es	0.844240	1.032308	-1.408867	99
Es	1.062987	1.763811	-0.958068	99
Es	0.702285	0.928600	1.142743	99
Es	0.317196	-1.570387	-0.546852	99
Es	-1.647470	-2.046196	0.126746	99
Es	0.517031	0.199122	0.061171	99
Es	1.235535	2.397862	-0.450851	99
Es	0.854506	1.072467	-1.201106	99
Es	0.296213	-0.484976	0.049866	99
Es	0.902369	2.318482	0.248304	99
Es	0.796168	0.919438	-1.373415	99
Es	0.822579	1.043594	-1.406475	99
Es	1.405946	2.156460	0.269016	99
Es	0.908323	1.561801	0.954842	99
Es	0.892776	0.598039	0.657864	99
Es	-0.673188	-1.252309	0.084901	99
Es	0.902536	1.103492	-1.318000	99
Es	0.649078	0.802200	1.494516	99
43
Properties=species:S:1:pos:R:3:Z:I:1 energy=-661.4593372843789 field_type=dipole dipole="0.000000 0.000000 0.000000" charge=0
C	-1.450454	-1.327596	0.114760	6
C	0.065716	-1.223166	0.064670	6
C	0.517015	0.199074	0.061330	6
N	0.702215	0.928434	1.143360	7
N	1.120265	2.210094	0.845410	7
C	1.235565	2.397984	-0.450730	6
S	0.844915	1.031484	-1.408620	16
H	-1.757575	-2.377966	0.137480	1
H	-1.910554	-0.858306	-0.761390	1
H	-1.852005	-0.836716	1.007910	1
H	0.442356	-1.753816	-0.817690	1
H	0.490766	-1.729046	0.939680	1
H	1.551775	3.339544	-0.876170	1
Es	0.649451	0.802108	1.494643	99
Es	1.445455	3.014978	-0.748571	99
Es	0.827369	0.923704	-1.890714	99
Es	0.902053	2.318386	0.248320	99
Es	0.346972	-1.554320	0.655571	99
Es	1.120150	2.209668	0.844923	99
Es	1.235535	2.397862	-0.450850	99
Es	0.802278	0.944334	-1.326606	99
Es	-1.647411	-2.046054	0.126800	99
Es	1.405759	2.156568	0.268670	99
Es	0.317000	-1.570425	-0.546823	99
Es	0.296101	-0.484948	0.049705	99
Es	-1.750812	-1.004692	-0.488721	99
Es	0.517034	0.199122	0.061172	99
Es	0.908473	1.561712	0.954674	99
Es	0.065707	-1.223065	0.064648	99
Es	0.857245	1.071713	-1.200823	99
Es	-1.450393	-1.327596	0.114746	99
Es	0.842872	1.006785	-1.536564	99
Es	-1.712232	-0.992386	0.722500	99
Es	0.390164	0.746042	0.634682	99
Es	0.652707	0.570726	-0.678993	99
Es	0.702288	0.928608	1.142742	99
Es	1.191938	2.468999	1.107219	99
Es	0.889180	1.143859	-1.361177	99
Es	1.063525	1.763644	-0.958166	99
Es	-0.673298	-1.252345	0.085043	99
Es	0.843676	1.031976	-1.408484	99
Es	0.846385	1.030868	-1.408466	99
Es	0.892580	0.598756	0.658345	99
43
Properties=species:S:1:pos:R:3:Z:I:1 energy=-661.4593372843789 field_type=dipole dipole="0.000000 0.000000 0.000000" charge=0
C	-1.450454	-1.327596	0.114760	6
C	0.065716	-1.223166	0.064670	6
C	0.517015	0.199074	0.061330	6
N	0.702215	0.928434	1.143360	7
N	1.120265	2.210094	0.845410	7
C	1.235565	2.397984	-0.450730	6
S	0.844915	1.031484	-1.408620	16
H	-1.757575	-2.377966	0.137480	1
H	-1.910554	-0.858306	-0.761390	1
H	-1.852005	-0.836716	1.007910	1
H	0.442356	-1.753816	-0.817690	1
H	0.490766	-1.729046	0.939680	1
H	1.551775	3.339544	-0.876170	1
Es	0.652288	0.570987	-0.679039	99
Es	1.192388	2.469147	1.107232	99
Es	0.856562	1.071782	-1.200855	99
Es	1.064136	1.763343	-0.958042	99
Es	1.235535	2.397862	-0.450851	99
Es	0.839489	1.009056	-1.536803	99
Es	-1.450392	-1.327596	0.114747	99
Es	1.445560	3.015011	-0.748583	99
Es	0.827607	0.923514	-1.890762	99
Es	0.902152	2.318160	0.248536	99
Es	0.908751	1.561726	0.954893	99
Es	0.065711	-1.223066	0.064649	99
Es	0.390167	0.747435	0.635061	99
Es	0.844894	1.031575	-1.408535	99
Es	0.892194	0.597722	0.657747	99
Es	0.702286	0.928610	1.142743	99
Es	-1.712130	-0.992264	0.722526	99
Es	0.649619	0.801849	1.494516	99
Es	-1.750676	-1.004690	-0.488709	99
Es	0.346574	-1.554442	0.655755	99
Es	-0.673023	-1.252186	0.084893	99
Es	0.885181	1.144026	-1.365955	99
Es	1.405241	2.156675	0.268545	99
Es	0.316881	-1.570493	-0.546943	99
Es	0.855665	1.027009	-1.407879	99
Es	-1.647329	-2.046205	0.126781	99
Es	0.517030	0.199123	0.061170	99
Es	0.295960	-0.484875	0.049763	99
Es	0.799283	0.946131	-1.322082	99
Es	1.120149	2.209663	0.844925	99
43
Properties=species:S:1:pos:R:3:Z:I:1 energy=-661.4593372843789 field_type=dipole dipole="0.000000 0.000000 0.000000" charge=0
C	-1.450454	-1.327596	0.114760	6
C	0.065716	-1.223166	0.064670	6
C	0.517015	0.199074	0.061330	6
N	0.702215	0.928434	1.143360	7
N	1.120265	2.210094	0.845410	7
C	1.235565	2.397984	-0.450730	6
S	0.844915	1.031484	-1.408620	16
H	-1.757575	-2.377966	0.137480	1
H	-1.910554	-0.858306	-0.761390	1
H	-1.852005	-0.836716	1.007910	1
H	0.442356	-1.753816	-0.817690	1
H	0.490766	-1.729046	0.939680	1
H	1.551775	3.339544	-0.876170	1
Es	1.063223	1.763697	-0.958088	99
Es	1.405215	2.156672	0.268533	99
Es	0.517032	0.199122	0.061171	99
Es	0.902281	1.137690	-1.440415	99
Es	0.847134	1.030438	-1.408271	99
Es	0.902364	2.318103	0.248624	99
Es	0.296092	-0.484859	0.049866	99
Es	0.652514	0.570846	-0.679056	99
Es	0.065710	-1.223067	0.064648	99
Es	0.346422	-1.554604	0.655798	99
Es	1.445495	3.015055	-0.748566	99
Es	1.120148	2.209664	0.844922	99
Es	0.858976	1.071077	-1.200850	99
Es	0.822474	1.006999	-1.280979	99
Es	0.826977	0.923504	-1.890682	99
Es	-1.750422	-1.004586	-0.488744	99
Es	0.892024	0.598796	0.658144	99
Es	1.235535	2.397862	-0.450850	99
Es	-0.672897	-1.252203	0.084960	99
Es	0.702287	0.928604	1.142740	99
Es	0.840243	1.033909	-1.408836	99
Es	-1.450391	-1.327596	0.114746	99
Es	-1.711991	-0.992143	0.722531	99
Es	0.390536	0.746343	0.634673	99
Es	-1.647435	-2.046299	0.126757	99
Es	0.908425	1.561783	0.954585	99
Es	0.811450	0.949414	-1.502820	99
Es	0.649469	0.801693	1.494667	99
Es	0.316589	-1.570516	-0.547021	99
Es	1.192272	2.469189	1.107256	99
