49
Properties=species:S:1:pos:R:3:Z:I:1 energy=-663.8546082551828 field_type=dipole dipole="0.000000 0.000000 0.000000" charge=0
C	-0.752851	-1.494376	1.425639	6
C	-1.197461	-0.585676	0.287839	6
C	-0.574181	0.806284	0.371049	6
N	0.868199	0.778984	0.202969	7
C	1.589269	0.774144	-0.937381	6
N	0.932639	0.835184	-2.108561	7
S	3.246839	0.722184	-0.894391	16
H	-1.262111	-2.460726	1.357259	1
H	-0.993871	-1.052316	2.397519	1
H	0.325009	-1.680086	1.389439	1
H	-2.288721	-0.486496	0.324159	1
H	-0.947751	-1.059776	-0.668361	1
H	-0.777891	1.260844	1.346419	1
H	-1.010021	1.455834	-0.394911	1
H	1.429059	0.716024	1.045249	1
H	-0.060941	0.684774	-2.181641	1
H	1.474789	0.785194	-2.962291	1
Es	3.227814	0.834308	-0.858932	99
Es	3.359265	0.547298	-1.382742	99
Es	-0.752866	-1.494349	1.425615	99
Es	-1.943709	-0.509949	0.313067	99
Es	-0.968339	-1.033138	0.857936	99
Es	2.314328	0.704901	-0.917388	99
Es	-1.197436	-0.585654	0.287860	99
Es	0.345699	0.731156	-2.143542	99
Es	1.015831	1.100403	-1.916768	99
Es	1.178655	0.633286	-1.661045	99
Es	-1.101240	-2.149043	1.376580	99
Es	-1.021824	-0.900272	-0.370581	99
Es	-0.573987	0.806260	0.371009	99
Es	1.589112	0.774154	-0.937392	99
Es	1.077806	0.530151	-0.183270	99
Es	1.240862	0.788708	-2.606279	99
Es	0.868210	0.778959	0.202884	99
Es	1.183774	0.731494	0.701231	99
Es	3.313605	0.666487	-0.815781	99
Es	3.246665	0.722301	-0.894169	99
Es	1.040125	1.053145	-0.057893	99
Es	-0.867441	1.245006	-0.160355	99
Es	0.932708	0.834824	-2.108437	99
Es	0.259343	0.778549	0.253730	99
Es	-0.021874	-1.614549	1.399689	99
Es	-0.918780	-1.184333	2.086505	99
Es	-0.876208	0.111417	0.326997	99
Es	3.333858	0.559567	-0.395866	99
Es	3.143035	0.665713	-0.903947	99
Es	3.301270	0.722021	-0.999144	99
Es	3.050621	1.102286	-0.904974	99
Es	-0.708227	1.109048	1.035196	99
49
Properties=species:S:1:pos:R:3:Z:I:1 energy=-663.8546082551828 field_type=dipole dipole="0.000000 0.000000 0.000000" charge=0
C	-0.752851	-1.494376	1.425639	6
C	-1.197461	-0.585676	0.287839	6
C	-0.574181	0.806284	0.371049	6
N	0.868199	0.778984	0.202969	7
C	1.589269	0.774144	-0.937381	6
N	0.932639	0.835184	-2.108561	7
S	3.246839	0.722184	-0.894391	16
H	-1.262111	-2.460726	1.357259	1
H	-0.993871	-1.052316	2.397519	1
H	0.325009	-1.680086	1.389439	1
H	-2.288721	-0.486496	0.324159	1
H	-0.947751	-1.059776	-0.668361	1
H	-0.777891	1.260844	1.346419	1
H	-1.010021	1.455834	-0.394911	1
H	1.429059	0.716024	1.045249	1
H	-0.060941	0.684774	-2.181641	1
H	1.474789	0.785194	-2.962291	1
Es	-0.573987	0.806258	0.371012	99
Es	-0.708528	1.109304	1.034104	99
Es	-0.752867	-1.494349	1.425614	99
Es	0.932739	0.834778	-2.108384	99
Es	0.868206	0.778783	0.202874	99
Es	-0.919306	-1.184235	2.084668	99
Es	3.262383	0.618826	-0.854131	99
Es	1.589095	0.774155	-0.937391	99
Es	3.346540	0.583322	-0.388763	99
Es	-0.867286	1.244672	-0.159005	99
Es	1.067306	0.524755	-0.159755	99
Es	-0.019608	-1.613896	1.399608	99
Es	0.258279	0.778429	0.253773	99
Es	2.312561	0.695351	-0.916835	99
Es	-1.021057	-0.900332	-0.368950	99
Es	3.246835	0.722186	-0.894387	99
Es	-1.946058	-0.510604	0.313242	99
Es	-0.875909	0.111028	0.327015	99
Es	3.356809	0.779542	-0.908050	99
Es	1.051451	1.052789	-0.081466	99
Es	3.020649	1.061347	-0.902184	99
Es	1.017328	1.098903	-1.913515	99
Es	-1.197436	-0.585658	0.287862	99
Es	-1.102865	-2.149130	1.376489	99
Es	0.343429	0.729322	-2.143243	99
Es	-0.968211	-1.032929	0.858053	99
Es	3.378701	0.574218	-1.393439	99
Es	1.242234	0.790179	-2.605512	99
Es	1.177813	0.634826	-1.664543	99
Es	3.189621	0.711857	-0.997014	99
Es	3.177381	0.778927	-0.818344	99
Es	1.184412	0.737527	0.700397	99
49
Properties=species:S:1:pos:R:3:Z:I:1 energy=-663.8546082551828 field_type=dipole dipole="0.000000 0.000000 0.000000" charge=0
C	-0.752851	-1.494376	1.425639	6
C	-1.197461	-0.585676	0.287839	6
C	-0.574181	0.806284	0.371049	6
N	0.868199	0.778984	0.202969	7
C	1.589269	0.774144	-0.937381	6
N	0.932639	0.835184	-2.108561	7
S	3.246839	0.722184	-0.894391	16
H	-1.262111	-2.460726	1.357259	1
H	-0.993871	-1.052316	2.397519	1
H	0.325009	-1.680086	1.389439	1
H	-2.288721	-0.486496	0.324159	1
H	-0.947751	-1.059776	-0.668361	1
H	-0.777891	1.260844	1.346419	1
H	-1.010021	1.455834	-0.394911	1
H	1.429059	0.716024	1.045249	1
H	-0.060941	0.684774	-2.181641	1
H	1.474789	0.785194	-2.962291	1
Es	0.868222	0.778855	0.202856	99
Es	3.271806	0.646163	-0.812296	99
Es	3.352970	0.873272	-0.399092	99
Es	3.285464	0.679486	-0.994094	99
Es	-0.875695	0.110152	0.327106	99
Es	2.315631	0.813002	-0.918890	99
Es	-0.752867	-1.494348	1.425613	99
Es	-0.868553	1.245446	-0.159582	99
Es	-0.708360	1.107987	1.033807	99
Es	-0.573983	0.806257	0.371010	99
Es	1.178225	0.634119	-1.660479	99
Es	1.036233	1.044172	-0.045905	99
Es	-1.197438	-0.585658	0.287860	99
Es	-1.947277	-0.509523	0.313008	99
Es	-1.102305	-2.146586	1.377126	99
Es	1.021871	1.088402	-1.917128	99
Es	-0.968453	-1.032998	0.857954	99
Es	-0.920092	-1.185273	2.084421	99
Es	-1.020569	-0.899397	-0.368700	99
Es	0.257373	0.784661	0.253824	99
Es	3.122201	0.744936	-0.899360	99
Es	1.589095	0.774158	-0.937391	99
Es	3.246832	0.722021	-0.894403	99
Es	-0.018046	-1.615445	1.399821	99
Es	3.000248	0.381324	-0.886831	99
Es	1.241136	0.787345	-2.604670	99
Es	1.183781	0.728667	0.698941	99
Es	0.932667	0.835056	-2.108481	99
Es	3.305943	0.818571	-0.871921	99
Es	3.391005	0.844609	-1.396206	99
Es	0.339441	0.744248	-2.143895	99
Es	1.084153	0.536472	-0.194227	99
49
Properties=species:S:1:pos:R:3:Z:I:1 energy=-663.8546082551828 field_type=dipole dipole="0.000000 0.000000 0.000000" charge=0
C	-0.752851	-1.494376	1.425639	6
C	-1.197461	-0.585676	0.287839	6
C	-0.574181	0.806284	0.371049	6
N	0.868199	0.778984	0.202969	7
C	1.589269	0.774144	-0.937381	6
N	0.932639	0.835184	-2.108561	7
S	3.246839	0.722184	-0.894391	16
H	-1.262111	-2.460726	1.357259	1
H	-0.993871	-1.052316	2.397519	1
H	0.325009	-1.680086	1.389439	1
H	-2.288721	-0.486496	0.324159	1
H	-0.947751	-1.059776	-0.668361	1
H	-0.777891	1.260844	1.346419	1
H	-1.010021	1.455834	-0.394911	1
H	1.429059	0.716024	1.045249	1
H	-0.060941	0.684774	-2.181641	1
H	1.474789	0.785194	-2.962291	1
Es	1.080566	0.533619	-0.188374	99
Es	1.176226	0.631587	-1.663853	99
Es	-0.017417	-1.615485	1.400004	99
Es	1.040149	1.045213	-0.051770	99
Es	3.303123	0.799538	-0.951374	99
Es	-0.920191	-1.185541	2.083764	99
Es	-0.968547	-1.032884	0.857855	99
Es	3.355083	0.868701	-0.398543	99
Es	1.241035	0.786525	-2.604259	99
Es	-0.573985	0.806259	0.371009	99
Es	1.024673	1.089925	-1.913826	99
Es	-1.947947	-0.509485	0.312890	99
Es	0.257293	0.786549	0.254230	99
Es	1.183567	0.728706	0.698260	99
Es	-0.752866	-1.494348	1.425613	99
Es	-1.102592	-2.146300	1.377313	99
Es	-0.708206	1.107755	1.033282	99
Es	3.251655	0.754511	-0.797323	99
Es	-0.875606	0.109856	0.327361	99
Es	-0.868821	1.245658	-0.159371	99
Es	-1.020344	-0.899177	-0.368174	99
Es	1.589096	0.774158	-0.937393	99
Es	3.306982	0.612093	-0.900138	99
Es	0.932704	0.834877	-2.108440	99
Es	3.395463	0.835451	-1.398758	99
Es	2.993786	0.391673	-0.885125	99
Es	3.123638	0.722161	-0.928698	99
Es	-1.197437	-0.585658	0.287861	99
Es	0.338677	0.746279	-2.143845	99
Es	2.315951	0.816451	-0.918820	99
Es	3.246724	0.722721	-0.894409	99
Es	0.868222	0.778764	0.202847	99
49
Properties=species:S:1:pos:R:3:Z:I:1 energy=-663.8546082551828 field_type=dipole dipole="0.000000 0.000000 0.000000" charge=0
C	-0.752851	-1.494376	1.425639	6
C	-1.197461	-0.585676	0.287839	6
C	-0.574181	0.806284	0.371049	6
N	0.868199	0.778984	0.202969	7
C	1.589269	0.774144	-0.937381	6
N	0.932639	0.835184	-2.108561	7
S	3.246839	0.722184	-0.894391	16
H	-1.262111	-2.460726	1.357259	1
H	-0.993871	-1.052316	2.397519	1
H	0.325009	-1.680086	1.389439	1
H	-2.288721	-0.486496	0.324159	1
H	-0.947751	-1.059776	-0.668361	1
H	-0.777891	1.260844	1.346419	1
H	-1.010021	1.455834	-0.394911	1
H	1.429059	0.716024	1.045249	1
H	-0.060941	0.684774	-2.181641	1
H	1.474789	0.785194	-2.962291	1
Es	0.257050	0.787200	0.254263	99
Es	-1.020221	-0.898855	-0.367640	99
Es	-0.708228	1.107452	1.032954	99
Es	3.247019	0.722231	-0.894377	99
Es	2.315591	0.817037	-0.918741	99
Es	3.237068	0.692777	-0.988945	99
Es	2.994608	0.390536	-0.884729	99
Es	-0.968336	-1.032953	0.857990	99
Es	-1.948430	-0.509688	0.312692	99
Es	-0.752866	-1.494348	1.425613	99
Es	3.316647	0.814682	-0.900403	99
Es	0.868236	0.778740	0.202828	99
Es	3.355083	0.869282	-0.399796	99
Es	-0.573984	0.806259	0.371009	99
Es	3.302707	0.629749	-0.837303	99
Es	-0.875589	0.109865	0.327290	99
Es	0.932796	0.834666	-2.108295	99
Es	3.395071	0.835309	-1.397966	99
Es	-0.920355	-1.185709	2.083212	99
Es	1.176394	0.631752	-1.663547	99
Es	1.241029	0.786536	-2.603749	99
Es	-0.868971	1.245867	-0.159212	99
Es	3.128838	0.751544	-0.850901	99
Es	1.083396	0.536302	-0.193535	99
Es	1.037770	1.043120	-0.046318	99
Es	1.183488	0.727608	0.697798	99
Es	0.338045	0.747502	-2.144088	99
Es	-1.197440	-0.585657	0.287862	99
Es	1.589095	0.774157	-0.937392	99
Es	-0.016802	-1.615710	1.400132	99
Es	1.024955	1.088771	-1.914238	99
Es	-1.103010	-2.145868	1.377326	99
49
Properties=species:S:1:pos:R:3:Z:I:1 energy=-663.8546082551828 field_type=dipole dipole="0.000000 0.000000 0.000000" charge=0
C	-0.752851	-1.494376	1.425639	6
C	-1.197461	-0.585676	0.287839	6
C	-0.574181	0.806284	0.371049	6
N	0.868199	0.778984	0.202969	7
C	1.589269	0.774144	-0.937381	6
N	0.932639	0.835184	-2.108561	7
S	3.246839	0.722184	-0.894391	16
H	-1.262111	-2.460726	1.357259	1
H	-0.993871	-1.052316	2.397519	1
H	0.325009	-1.680086	1.389439	1
H	-2.288721	-0.486496	0.324159	1
H	-0.947751	-1.059776	-0.668361	1
H	-0.777891	1.260844	1.346419	1
H	-1.010021	1.455834	-0.394911	1
H	1.429059	0.716024	1.045249	1
H	-0.060941	0.684774	-2.181641	1
H	1.474789	0.785194	-2.962291	1
Es	1.058795	0.522228	-0.139122	99
Es	-0.752867	-1.494349	1.425614	99
Es	-1.105558	-2.149629	1.376796	99
Es	1.589095	0.774157	-0.937392	99
Es	-1.948524	-0.512018	0.312921	99
Es	-0.573983	0.806258	0.371008	99
Es	-0.708529	1.109419	1.031965	99
Es	-0.968099	-1.032984	0.858297	99
Es	1.183549	0.742031	0.698181	99
Es	1.242456	0.787521	-2.603045	99
Es	3.354872	0.787198	-0.921349	99
Es	3.395038	0.595140	-1.398654	99
Es	-0.866843	1.244602	-0.157025	99
Es	1.172816	0.631886	-1.674894	99
Es	2.997879	1.018135	-0.904319	99
Es	3.247374	0.689949	-0.791543	99
Es	0.257369	0.778243	0.254120	99
Es	-0.919376	-1.184270	2.081195	99
Es	-0.875529	0.110571	0.327020	99
Es	-1.197437	-0.585658	0.287861	99
Es	0.341556	0.728069	-2.143156	99
Es	3.144155	0.784106	-0.910786	99
Es	2.311316	0.688144	-0.915797	99
Es	3.355930	0.613566	-0.382409	99
Es	-0.017033	-1.612485	1.399853	99
Es	3.239293	0.627678	-0.954086	99
Es	1.023760	1.105325	-1.904381	99
Es	1.062004	1.051366	-0.101209	99
Es	0.868205	0.778923	0.202889	99
Es	-1.020561	-0.900059	-0.365974	99
Es	3.246808	0.722178	-0.894390	99
Es	0.932726	0.834910	-2.108393	99
49
Properties=species:S:1:pos:R:3:Z:I:1 energy=-663.8546082551828 field_type=dipole dipole="0.000000 0.000000 0.000000" charge=0
C	-0.752851	-1.494376	1.425639	6
C	-1.197461	-0.585676	0.287839	6
C	-0.574181	0.806284	0.371049	6
N	0.868199	0.778984	0.202969	7
C	1.589269	0.774144	-0.937381	6
N	0.932639	0.835184	-2.108561	7
S	3.246839	0.722184	-0.894391	16
H	-1.262111	-2.460726	1.357259	1
H	-0.993871	-1.052316	2.397519	1
H	0.325009	-1.680086	1.389439	1
H	-2.288721	-0.486496	0.324159	1
H	-0.947751	-1.059776	-0.668361	1
H	-0.777891	1.260844	1.346419	1
H	-1.010021	1.455834	-0.394911	1
H	1.429059	0.716024	1.045249	1
H	-0.060941	0.684774	-2.181641	1
H	1.474789	0.785194	-2.962291	1
Es	2.311150	0.687490	-0.915797	99
Es	-0.968018	-1.032960	0.858254	99
Es	3.246511	0.722243	-0.894639	99
Es	0.340823	0.730590	-2.143586	99
Es	0.868206	0.778800	0.202876	99
Es	3.227582	0.608073	-0.869785	99
Es	3.397139	0.600087	-1.400074	99
Es	3.156933	0.789303	-0.849835	99
Es	-1.105710	-2.149615	1.376979	99
Es	-0.875569	0.110575	0.326945	99
Es	3.364731	0.763294	-0.865459	99
Es	3.237055	0.727911	-0.992207	99
Es	-0.919296	-1.184449	2.080811	99
Es	-0.866992	1.244885	-0.156911	99
Es	1.183562	0.741243	0.697925	99
Es	-0.708375	1.109139	1.031672	99
Es	3.357707	0.618543	-0.381073	99
Es	1.168108	0.624379	-1.684965	99
Es	1.060571	1.052081	-0.098410	99
Es	-1.020685	-0.899882	-0.365711	99
Es	-0.573983	0.806256	0.371009	99
Es	1.589095	0.774152	-0.937392	99
Es	1.029659	1.107468	-1.893361	99
Es	-0.016840	-1.612418	1.399977	99
Es	0.932716	0.834814	-2.108420	99
Es	2.993895	1.009171	-0.904414	99
Es	1.241985	0.790422	-2.603515	99
Es	-1.948671	-0.512155	0.312939	99
Es	1.060280	0.523333	-0.141784	99
Es	0.257388	0.777386	0.254271	99
Es	-0.752867	-1.494350	1.425615	99
Es	-1.197437	-0.585657	0.287862	99
49
Properties=species:S:1:pos:R:3:Z:I:1 energy=-663.8546082551828 field_type=dipole dipole="0.000000 0.000000 0.000000" charge=0
C	-0.752851	-1.494376	1.425639	6
C	-1.197461	-0.585676	0.287839	6
C	-0.574181	0.806284	0.371049	6
N	0.868199	0.778984	0.202969	7
C	1.589269	0.774144	-0.937381	6
N	0.932639	0.835184	-2.108561	7
S	3.246839	0.722184	-0.894391	16
H	-1.262111	-2.460726	1.357259	1
H	-0.993871	-1.052316	2.397519	1
H	0.325009	-1.680086	1.389439	1
H	-2.288721	-0.486496	0.324159	1
H	-0.947751	-1.059776	-0.668361	1
H	-0.777891	1.260844	1.346419	1
H	-1.010021	1.455834	-0.394911	1
H	1.429059	0.716024	1.045249	1
H	-0.060941	0.684774	-2.181641	1
H	1.474789	0.785194	-2.962291	1
Es	-0.968428	-1.032710	0.858240	99
Es	0.932711	0.834843	-2.108428	99
Es	-0.869283	1.246362	-0.158825	99
Es	0.336744	0.751803	-2.144319	99
Es	0.868221	0.778812	0.202865	99
Es	1.082448	0.535212	-0.191470	99
Es	-0.752867	-1.494348	1.425615	99
Es	2.989365	0.399940	-0.886689	99
Es	3.258009	0.743193	-0.986501	99
Es	3.274253	0.603753	-0.887232	99
Es	3.356224	0.860132	-0.398002	99
Es	-0.573982	0.806259	0.371011	99
Es	-1.103532	-2.145520	1.377557	99
Es	-1.949218	-0.509702	0.312420	99
Es	1.039808	1.042858	-0.047862	99
Es	2.315677	0.819993	-0.918257	99
Es	1.589096	0.774157	-0.937393	99
Es	1.173080	0.627071	-1.669209	99
Es	-0.920249	-1.186271	2.082201	99
Es	3.399569	0.831687	-1.398282	99
Es	1.240740	0.785710	-2.602804	99
Es	3.124649	0.755502	-0.863568	99
Es	-0.875604	0.109417	0.327359	99
Es	3.246644	0.721831	-0.893924	99
Es	1.182813	0.727031	0.696659	99
Es	-1.197438	-0.585657	0.287862	99
Es	3.328580	0.786950	-0.840804	99
Es	0.256745	0.789124	0.254569	99
Es	1.029892	1.089923	-1.908574	99
Es	-0.707949	1.106991	1.032072	99
Es	-0.015982	-1.615714	1.400260	99
Es	-1.020081	-0.898477	-0.366752	99
49
Properties=species:S:1:pos:R:3:Z:I:1 energy=-663.8546082551828 field_type=dipole dipole="0.000000 0.000000 0.000000" charge=0
C	-0.752851	-1.494376	1.425639	6
C	-1.197461	-0.585676	0.287839	6
C	-0.574181	0.806284	0.371049	6
N	0.868199	0.778984	0.202969	7
C	1.589269	0.774144	-0.937381	6
N	0.932639	0.835184	-2.108561	7
S	3.246839	0.722184	-0.894391	16
H	-1.262111	-2.460726	1.357259	1
H	-0.993871	-1.052316	2.397519	1
H	0.325009	-1.680086	1.389439	1
H	-2.288721	-0.486496	0.324159	1
H	-0.947751	-1.059776	-0.668361	1
H	-0.777891	1.260844	1.346419	1
H	-1.010021	1.455834	-0.394911	1
H	1.429059	0.716024	1.045249	1
H	-0.060941	0.684774	-2.181641	1
H	1.474789	0.785194	-2.962291	1
Es	-0.920401	-1.186158	2.082372	99
Es	2.987589	0.403184	-0.888027	99
Es	-0.752867	-1.494348	1.425613	99
Es	-1.103256	-2.145562	1.377585	99
Es	-1.020215	-0.898489	-0.367000	99
Es	1.038227	1.042988	-0.045101	99
Es	-1.949079	-0.509602	0.312624	99
Es	0.336930	0.752248	-2.144612	99
Es	-0.016091	-1.615640	1.400331	99
Es	3.356854	0.856945	-0.396452	99
Es	3.246646	0.716373	-0.857267	99
Es	1.172561	0.625490	-1.670277	99
Es	3.400522	0.831374	-1.398452	99
Es	-0.708018	1.107120	1.032279	99
Es	0.868209	0.778824	0.202875	99
Es	1.183012	0.725966	0.696614	99
Es	1.030393	1.089892	-1.906969	99
Es	2.315814	0.820520	-0.918064	99
Es	-0.573979	0.806259	0.371009	99
Es	1.589095	0.774157	-0.937392	99
Es	3.115539	0.714852	-0.909427	99
Es	1.083709	0.537109	-0.194260	99
Es	1.240734	0.786665	-2.603051	99
Es	0.256757	0.788027	0.254575	99
Es	-1.197438	-0.585659	0.287862	99
Es	3.291786	0.831492	-0.892154	99
Es	-0.869280	1.246197	-0.159014	99
Es	3.246972	0.722626	-0.891625	99
Es	3.331211	0.625632	-0.921711	99
Es	-0.968424	-1.032927	0.857968	99
Es	-0.875517	0.109558	0.327448	99
Es	0.932659	0.835041	-2.108506	99
49
Properties=species:S:1:pos:R:3:Z:I:1 energy=-663.8546082551828 field_type=dipole dipole="0.000000 0.000000 0.000000" charge=0
C	-0.752851	-1.494376	1.425639	6
C	-1.197461	-0.585676	0.287839	6
C	-0.574181	0.806284	0.371049	6
N	0.868199	0.778984	0.202969	7
C	1.589269	0.774144	-0.937381	6
N	0.932639	0.835184	-2.108561	7
S	3.246839	0.722184	-0.894391	16
H	-1.262111	-2.460726	1.357259	1
H	-0.993871	-1.052316	2.397519	1
H	0.325009	-1.680086	1.389439	1
H	-2.288721	-0.486496	0.324159	1
H	-0.947751	-1.059776	-0.668361	1
H	-0.777891	1.260844	1.346419	1
H	-1.010021	1.455834	-0.394911	1
H	1.429059	0.716024	1.045249	1
H	-0.060941	0.684774	-2.181641	1
H	1.474789	0.785194	-2.962291	1
Es	1.028599	1.107724	-1.895493	99
Es	-1.197435	-0.585661	0.287860	99
Es	-0.016718	-1.612239	1.399942	99
Es	0.868224	0.778918	0.202865	99
Es	1.589096	0.774157	-0.937393	99
Es	-0.866804	1.244682	-0.156677	99
Es	1.059310	1.052967	-0.095569	99
Es	-0.708466	1.109331	1.031504	99
Es	0.932696	0.834843	-2.108455	99
Es	3.246972	0.721912	-0.901444	99
Es	-0.968002	-1.032894	0.858191	99
Es	3.359655	0.622333	-0.380244	99
Es	1.183330	0.740223	0.697436	99
Es	-0.573982	0.806258	0.371010	99
Es	-0.752868	-1.494348	1.425613	99
Es	-1.948899	-0.512326	0.312989	99
Es	-1.020576	-0.900011	-0.365449	99
Es	1.061727	0.524010	-0.144420	99
Es	1.242277	0.789115	-2.603040	99
Es	2.990913	1.002206	-0.904537	99
Es	3.270043	0.609953	-0.872046	99
Es	3.349216	0.804637	-0.884045	99
Es	3.119757	0.756572	-0.879821	99
Es	3.398822	0.604025	-1.401014	99
Es	-1.105991	-2.149731	1.376949	99
Es	3.246299	0.717870	-0.934679	99
Es	0.340920	0.729422	-2.143496	99
Es	-0.875512	0.110525	0.326958	99
Es	2.311128	0.686668	-0.915436	99
Es	1.168814	0.626545	-1.683237	99
Es	-0.919295	-1.184299	2.080563	99
Es	0.257407	0.776766	0.254413	99
49
Properties=species:S:1:pos:R:3:Z:I:1 energy=-663.8546082551828 field_type=dipole dipole="0.000000 0.000000 0.000000" charge=0
C	-0.752851	-1.494376	1.425639	6
C	-1.197461	-0.585676	0.287839	6
C	-0.574181	0.806284	0.371049	6
N	0.868199	0.778984	0.202969	7
C	1.589269	0.774144	-0.937381	6
N	0.932639	0.835184	-2.108561	7
S	3.246839	0.722184	-0.894391	16
H	-1.262111	-2.460726	1.357259	1
H	-0.993871	-1.052316	2.397519	1
H	0.325009	-1.680086	1.389439	1
H	-2.288721	-0.486496	0.324159	1
H	-0.947751	-1.059776	-0.668361	1
H	-0.777891	1.260844	1.346419	1
H	-1.010021	1.455834	-0.394911	1
H	1.429059	0.716024	1.045249	1
H	-0.060941	0.684774	-2.181641	1
H	1.474789	0.785194	-2.962291	1
Es	3.249776	0.732217	-0.914276	99
Es	-1.197439	-0.585657	0.287862	99
Es	0.868205	0.778880	0.202882	99
Es	3.359856	0.652350	-0.897080	99
Es	-0.920390	-1.186285	2.081918	99
Es	3.126262	0.677215	-0.924814	99
Es	-0.015726	-1.615851	1.400435	99
Es	1.081309	0.535500	-0.190841	99
Es	0.256818	0.789597	0.254661	99
Es	3.353419	0.859979	-0.399695	99
Es	-0.869493	1.246455	-0.158781	99
Es	0.336488	0.753134	-2.144272	99
Es	-0.752867	-1.494349	1.425613	99
Es	0.932754	0.834756	-2.108358	99
Es	1.589096	0.774156	-0.937393	99
Es	-0.707877	1.106804	1.031944	99
Es	3.401873	0.831642	-1.398355	99
Es	-1.949456	-0.509562	0.312454	99
Es	-1.020128	-0.898318	-0.366553	99
Es	2.315963	0.821438	-0.917950	99
Es	-0.875458	0.109288	0.327375	99
Es	1.029452	1.087570	-1.909510	99
Es	-0.968392	-1.032888	0.858011	99
Es	3.248710	0.728367	-0.904971	99
Es	-0.573985	0.806259	0.371009	99
Es	1.182342	0.724304	0.695883	99
Es	1.240599	0.786754	-2.603002	99
Es	-1.103507	-2.145221	1.377777	99
Es	1.041200	1.044634	-0.048010	99
Es	3.248072	0.820622	-0.830843	99
Es	1.174047	0.627331	-1.667904	99
Es	2.989131	0.399033	-0.885422	99
49
Properties=species:S:1:pos:R:3:Z:I:1 energy=-663.8546082551828 field_type=dipole dipole="0.000000 0.000000 0.000000" charge=0
C	-0.752851	-1.494376	1.425639	6
C	-1.197461	-0.585676	0.287839	6
C	-0.574181	0.806284	0.371049	6
N	0.868199	0.778984	0.202969	7
C	1.589269	0.774144	-0.937381	6
N	0.932639	0.835184	-2.108561	7
S	3.246839	0.722184	-0.894391	16
H	-1.262111	-2.460726	1.357259	1
H	-0.993871	-1.052316	2.397519	1
H	0.325009	-1.680086	1.389439	1
H	-2.288721	-0.486496	0.324159	1
H	-0.947751	-1.059776	-0.668361	1
H	-0.777891	1.260844	1.346419	1
H	-1.010021	1.455834	-0.394911	1
H	1.429059	0.716024	1.045249	1
H	-0.060941	0.684774	-2.181641	1
H	1.474789	0.785194	-2.962291	1
Es	1.183437	0.741177	0.697542	99
Es	3.159323	0.626008	-0.911591	99
Es	0.868200	0.778889	0.202890	99
Es	3.399046	0.606047	-1.401261	99
Es	-0.752867	-1.494349	1.425614	99
Es	1.242147	0.790267	-2.602958	99
Es	0.257240	0.778098	0.254424	99
Es	0.932698	0.834805	-2.108441	99
Es	2.310528	0.687941	-0.915876	99
Es	0.340712	0.729246	-2.143595	99
Es	1.589095	0.774156	-0.937391	99
Es	2.990974	0.999544	-0.903911	99
Es	3.204141	0.833662	-0.859455	99
Es	-0.708354	1.109066	1.031191	99
Es	3.246984	0.721464	-0.891689	99
Es	1.168995	0.626268	-1.683624	99
Es	-1.949088	-0.512388	0.312696	99
Es	3.375058	0.707789	-0.916613	99
Es	-1.197438	-0.585658	0.287861	99
Es	1.063753	1.051529	-0.103392	99
Es	-1.106314	-2.149679	1.377080	99
Es	-0.016377	-1.612136	1.400233	99
Es	-0.967960	-1.032921	0.858403	99
Es	-0.875407	0.110510	0.327038	99
Es	1.028662	1.107110	-1.894982	99
Es	-0.867029	1.244909	-0.156700	99
Es	3.246950	0.721763	-0.892723	99
Es	-1.020603	-0.899737	-0.365029	99
Es	-0.919250	-1.184611	2.079917	99
Es	1.057489	0.523175	-0.136718	99
Es	-0.573983	0.806258	0.371009	99
Es	3.359894	0.621951	-0.380156	99
49
Properties=species:S:1:pos:R:3:Z:I:1 energy=-663.8546082551828 field_type=dipole dipole="0.000000 0.000000 0.000000" charge=0
C	-0.752851	-1.494376	1.425639	6
C	-1.197461	-0.585676	0.287839	6
C	-0.574181	0.806284	0.371049	6
N	0.868199	0.778984	0.202969	7
C	1.589269	0.774144	-0.937381	6
N	0.932639	0.835184	-2.108561	7
S	3.246839	0.722184	-0.894391	16
H	-1.262111	-2.460726	1.357259	1
H	-0.993871	-1.052316	2.397519	1
H	0.325009	-1.680086	1.389439	1
H	-2.288721	-0.486496	0.324159	1
H	-0.947751	-1.059776	-0.668361	1
H	-0.777891	1.260844	1.346419	1
H	-1.010021	1.455834	-0.394911	1
H	1.429059	0.716024	1.045249	1
H	-0.060941	0.684774	-2.181641	1
H	1.474789	0.785194	-2.962291	1
Es	-1.949400	-0.512568	0.312712	99
Es	2.992209	1.000986	-0.903299	99
Es	3.316389	0.623695	-0.906577	99
Es	-0.752867	-1.494349	1.425614	99
Es	-0.866864	1.244860	-0.156471	99
Es	-0.573983	0.806258	0.371008	99
Es	1.067466	1.048796	-0.111896	99
Es	1.241892	0.788703	-2.602269	99
Es	-0.016133	-1.612013	1.400073	99
Es	-0.968035	-1.032834	0.858417	99
Es	1.167235	0.624585	-1.686205	99
Es	3.242180	0.744264	-0.964946	99
Es	0.257104	0.779243	0.254609	99
Es	-0.875366	0.110392	0.326956	99
Es	2.310223	0.688646	-0.916036	99
Es	0.932656	0.835104	-2.108500	99
Es	3.305430	0.820482	-0.841304	99
Es	3.400090	0.605160	-1.400674	99
Es	-1.106579	-2.149629	1.377084	99
Es	1.183464	0.745000	0.697410	99
Es	3.246841	0.722221	-0.894451	99
Es	-0.708373	1.109144	1.030957	99
Es	-1.197437	-0.585657	0.287862	99
Es	1.589096	0.774156	-0.937392	99
Es	0.340142	0.730902	-2.143857	99
Es	0.868199	0.778975	0.202900	99
Es	-0.919229	-1.184587	2.079676	99
Es	3.358396	0.620643	-0.381246	99
Es	3.121276	0.700099	-0.864691	99
Es	1.053857	0.520943	-0.128392	99
Es	1.031279	1.108346	-1.892629	99
Es	-1.020501	-0.899812	-0.364645	99
49
Properties=species:S:1:pos:R:3:Z:I:1 energy=-663.8546082551828 field_type=dipole dipole="0.000000 0.000000 0.000000" charge=0
C	-0.752851	-1.494376	1.425639	6
C	-1.197461	-0.585676	0.287839	6
C	-0.574181	0.806284	0.371049	6
N	0.868199	0.778984	0.202969	7
C	1.589269	0.774144	-0.937381	6
N	0.932639	0.835184	-2.108561	7
S	3.246839	0.722184	-0.894391	16
H	-1.262111	-2.460726	1.357259	1
H	-0.993871	-1.052316	2.397519	1
H	0.325009	-1.680086	1.389439	1
H	-2.288721	-0.486496	0.324159	1
H	-0.947751	-1.059776	-0.668361	1
H	-0.777891	1.260844	1.346419	1
H	-1.010021	1.455834	-0.394911	1
H	1.429059	0.716024	1.045249	1
H	-0.060941	0.684774	-2.181641	1
H	1.474789	0.785194	-2.962291	1
Es	3.246420	0.721888	-0.892501	99
Es	1.589095	0.774156	-0.937392	99
Es	-1.020178	-0.898004	-0.366191	99
Es	3.402772	0.822662	-1.400348	99
Es	-0.015412	-1.615838	1.400442	99
Es	1.172240	0.624616	-1.671333	99
Es	-0.752866	-1.494349	1.425614	99
Es	3.356273	0.860413	-0.399281	99
Es	1.240171	0.785954	-2.602296	99
Es	1.043063	1.043015	-0.053002	99
Es	0.932716	0.834856	-2.108413	99
Es	1.079119	0.532898	-0.186518	99
Es	1.182866	0.727055	0.696245	99
Es	-1.103741	-2.145093	1.377917	99
Es	-1.949741	-0.509653	0.312390	99
Es	-0.869708	1.246656	-0.158625	99
Es	-0.875429	0.109151	0.327596	99
Es	-0.920305	-1.186463	2.081485	99
Es	3.343080	0.638987	-0.926164	99
Es	0.336174	0.754355	-2.144489	99
Es	3.119662	0.699418	-0.919102	99
Es	-0.968361	-1.032991	0.858004	99
Es	3.274997	0.833792	-0.900737	99
Es	2.986356	0.406503	-0.883218	99
Es	1.031947	1.089715	-1.906428	99
Es	3.247897	0.717300	-0.833551	99
Es	-1.197438	-0.585658	0.287860	99
Es	0.256831	0.791243	0.254922	99
Es	2.315688	0.821893	-0.918375	99
Es	0.868207	0.778851	0.202877	99
Es	-0.573989	0.806256	0.371008	99
Es	-0.707753	1.106566	1.031400	99
49
Properties=species:S:1:pos:R:3:Z:I:1 energy=-663.8546082551828 field_type=dipole dipole="0.000000 0.000000 0.000000" charge=0
C	-0.752851	-1.494376	1.425639	6
C	-1.197461	-0.585676	0.287839	6
C	-0.574181	0.806284	0.371049	6
N	0.868199	0.778984	0.202969	7
C	1.589269	0.774144	-0.937381	6
N	0.932639	0.835184	-2.108561	7
S	3.246839	0.722184	-0.894391	16
H	-1.262111	-2.460726	1.357259	1
H	-0.993871	-1.052316	2.397519	1
H	0.325009	-1.680086	1.389439	1
H	-2.288721	-0.486496	0.324159	1
H	-0.947751	-1.059776	-0.668361	1
H	-0.777891	1.260844	1.346419	1
H	-1.010021	1.455834	-0.394911	1
H	1.429059	0.716024	1.045249	1
H	-0.060941	0.684774	-2.181641	1
H	1.474789	0.785194	-2.962291	1
Es	2.988793	0.994939	-0.906271	99
Es	0.257128	0.778759	0.254641	99
Es	3.401160	0.604072	-1.400717	99
Es	3.169287	0.616377	-0.893817	99
Es	0.932709	0.834820	-2.108432	99
Es	1.031043	1.108276	-1.890898	99
Es	1.166943	0.623964	-1.687448	99
Es	1.242108	0.790516	-2.602970	99
Es	-0.967994	-1.032905	0.858318	99
Es	3.379929	0.721490	-0.901085	99
Es	1.063417	1.051224	-0.102591	99
Es	-0.573983	0.806258	0.371009	99
Es	3.246680	0.722598	-0.886904	99
Es	1.058067	0.522218	-0.137407	99
Es	-0.875403	0.110359	0.326896	99
Es	-1.197437	-0.585657	0.287861	99
Es	3.190269	0.826605	-0.908651	99
Es	-0.919299	-1.184553	2.079944	99
Es	-0.752867	-1.494349	1.425614	99
Es	1.183128	0.741855	0.697128	99
Es	3.359624	0.629526	-0.378948	99
Es	-0.866867	1.244928	-0.156500	99
Es	0.868227	0.778933	0.202859	99
Es	0.340472	0.730113	-2.143720	99
Es	-1.106367	-2.149612	1.377020	99
Es	-0.016270	-1.612098	1.400072	99
Es	-0.708347	1.109101	1.031140	99
Es	3.246549	0.723478	-0.881576	99
Es	2.310712	0.686991	-0.915306	99
Es	-1.020577	-0.899802	-0.364909	99
Es	-1.949273	-0.512426	0.312834	99
Es	1.589095	0.774156	-0.937393	99
49
Properties=species:S:1:pos:R:3:Z:I:1 energy=-663.8546082551828 field_type=dipole dipole="0.000000 0.000000 0.000000" charge=0
C	-0.752851	-1.494376	1.425639	6
C	-1.197461	-0.585676	0.287839	6
C	-0.574181	0.806284	0.371049	6
N	0.868199	0.778984	0.202969	7
C	1.589269	0.774144	-0.937381	6
N	0.932639	0.835184	-2.108561	7
S	3.246839	0.722184	-0.894391	16
H	-1.262111	-2.460726	1.357259	1
H	-0.993871	-1.052316	2.397519	1
H	0.325009	-1.680086	1.389439	1
H	-2.288721	-0.486496	0.324159	1
H	-0.947751	-1.059776	-0.668361	1
H	-0.777891	1.260844	1.346419	1
H	-1.010021	1.455834	-0.394911	1
H	1.429059	0.716024	1.045249	1
H	-0.060941	0.684774	-2.181641	1
H	1.474789	0.785194	-2.962291	1
Es	-0.573982	0.806257	0.371010	99
Es	-0.968382	-1.032949	0.858013	99
Es	2.315569	0.821480	-0.918113	99
Es	2.991759	0.395055	-0.884127	99
Es	1.080511	0.534619	-0.189182	99
Es	3.250000	0.735827	-0.905398	99
Es	-1.103872	-2.145026	1.377973	99
Es	-0.920309	-1.186630	2.081147	99
Es	1.182419	0.725150	0.695646	99
Es	-0.752866	-1.494349	1.425614	99
Es	1.240448	0.786078	-2.602199	99
Es	-1.197439	-0.585658	0.287862	99
Es	-0.869726	1.246835	-0.158474	99
Es	0.256748	0.790875	0.254895	99
Es	-1.020241	-0.897940	-0.365897	99
Es	-0.875408	0.109170	0.327471	99
Es	3.262420	0.769201	-0.803047	99
Es	3.400997	0.832131	-1.397136	99
Es	1.042185	1.043562	-0.049869	99
Es	3.253150	0.752521	-0.914042	99
Es	1.032357	1.088568	-1.905939	99
Es	0.335863	0.755535	-2.144627	99
Es	-1.949887	-0.509717	0.312325	99
Es	3.115503	0.707660	-0.919554	99
Es	0.868196	0.778819	0.202888	99
Es	3.352995	0.862979	-0.401880	99
Es	-0.015212	-1.615802	1.400580	99
Es	-0.707668	1.106424	1.031236	99
Es	3.350887	0.646056	-0.929989	99
Es	1.589096	0.774158	-0.937392	99
Es	0.932718	0.834841	-2.108418	99
Es	1.171828	0.624424	-1.671584	99
49
Properties=species:S:1:pos:R:3:Z:I:1 energy=-663.8546082551828 field_type=dipole dipole="0.000000 0.000000 0.000000" charge=0
C	-0.752851	-1.494376	1.425639	6
C	-1.197461	-0.585676	0.287839	6
C	-0.574181	0.806284	0.371049	6
N	0.868199	0.778984	0.202969	7
C	1.589269	0.774144	-0.937381	6
N	0.932639	0.835184	-2.108561	7
S	3.246839	0.722184	-0.894391	16
H	-1.262111	-2.460726	1.357259	1
H	-0.993871	-1.052316	2.397519	1
H	0.325009	-1.680086	1.389439	1
H	-2.288721	-0.486496	0.324159	1
H	-0.947751	-1.059776	-0.668361	1
H	-0.777891	1.260844	1.346419	1
H	-1.010021	1.455834	-0.394911	1
H	1.429059	0.716024	1.045249	1
H	-0.060941	0.684774	-2.181641	1
H	1.474789	0.785194	-2.962291	1
Es	3.253478	0.770822	-0.811743	99
Es	3.246780	0.722097	-0.892737	99
Es	-1.106871	-2.149614	1.377203	99
Es	2.310292	0.687590	-0.915565	99
Es	0.932692	0.834889	-2.108459	99
Es	1.066108	1.049771	-0.108474	99
Es	2.991056	0.999044	-0.905068	99
Es	1.183067	0.743967	0.697045	99
Es	1.036021	1.111021	-1.884586	99
Es	-0.573986	0.806258	0.371009	99
Es	-1.197438	-0.585658	0.287862	99
Es	-0.875342	0.110249	0.326959	99
Es	0.257109	0.778781	0.254570	99
Es	1.055656	0.521543	-0.131476	99
Es	-1.949699	-0.512720	0.312632	99
Es	0.339718	0.732208	-2.144068	99
Es	-0.015881	-1.611885	1.400226	99
Es	3.400531	0.603937	-1.399960	99
Es	1.163251	0.620245	-1.694082	99
Es	-0.866906	1.245063	-0.156141	99
Es	3.359056	0.625107	-0.380554	99
Es	3.356410	0.660362	-0.911096	99
Es	1.589096	0.774157	-0.937392	99
Es	-0.708258	1.108894	1.030538	99
Es	3.242671	0.800959	-0.959832	99
Es	-0.919179	-1.184741	2.079160	99