50
Properties=species:S:1:pos:R:3:Z:I:1 energy=-704.6430529543828 field_type=dipole dipole="0.000000 0.000000 0.000000" charge=0
C	-1.433361	-0.717549	0.601294	6
C	0.090169	-0.668289	0.612844	6
C	0.674609	-1.475590	-0.540696	6
S	0.709759	1.023961	0.633084	16
C	0.156319	1.760221	-0.889196	6
O	0.048709	1.728170	1.716574	8
O	2.158909	0.969071	0.582714	8
H	-1.855561	-0.148709	1.435754	1
H	-1.785471	-1.750689	0.691474	1
H	-1.844571	-0.305819	-0.325456	1
H	0.444299	-1.103839	1.555484	1
H	0.341769	-1.094329	-1.510986	1
H	0.365679	-2.524129	-0.471646	1
H	1.768909	-1.450229	-0.529336	1
H	0.578629	1.212281	-1.732036	1
H	0.514779	2.792201	-0.909276	1
H	-0.933581	1.753271	-0.920596	1
Es	0.385243	-1.041423	0.034610	99
Es	0.437135	1.384133	-1.439014	99
Es	0.367273	0.130812	0.593857	99
Es	0.399025	1.403942	-0.199154	99
Es	0.674566	-1.475550	-0.540656	99
Es	2.163191	0.803363	0.830192	99
Es	-1.654861	-1.418826	0.658217	99
Es	-1.433288	-0.717550	0.601272	99
Es	0.622121	1.028403	0.712831	99
Es	0.398451	2.429560	-0.884170	99
Es	-1.712779	-0.338145	1.158996	99
Es	0.697927	0.925921	0.565239	99
Es	0.048800	1.728065	1.716504	99
Es	0.334238	-0.936589	1.241242	99
Es	0.454678	-2.177188	-0.482913	99
Es	-0.566074	1.743200	-0.900519	99
Es	2.158582	0.969093	0.582699	99
Es	0.814269	1.021808	0.689261	99
Es	0.709765	1.023960	0.633080	99
Es	0.090189	-0.668167	0.612793	99
Es	-0.208782	1.646426	1.567960	99
Es	0.156354	1.760155	-0.889088	99
Es	1.621238	0.989895	0.613486	99
Es	2.111664	0.828353	0.313296	99
Es	-0.658491	-0.666325	0.599866	99
Es	-1.701430	-0.435134	-0.035317	99
Es	0.439887	-1.206748	-1.196235	99
Es	0.164609	1.535935	1.911840	99
Es	0.184720	1.977510	1.628816	99
Es	1.404433	-1.457881	-0.530920	99
Es	0.304869	1.466308	1.320690	99
Es	0.704603	1.119669	0.564839	99
Es	2.160568	1.266659	0.582762	99
50
Properties=species:S:1:pos:R:3:Z:I:1 energy=-704.6430529543828 field_type=dipole dipole="0.000000 0.000000 0.000000" charge=0
C	-1.433361	-0.717549	0.601294	6
C	0.090169	-0.668289	0.612844	6
C	0.674609	-1.475590	-0.540696	6
S	0.709759	1.023961	0.633084	16
C	0.156319	1.760221	-0.889196	6
O	0.048709	1.728170	1.716574	8
O	2.158909	0.969071	0.582714	8
H	-1.855561	-0.148709	1.435754	1
H	-1.785471	-1.750689	0.691474	1
H	-1.844571	-0.305819	-0.325456	1
H	0.444299	-1.103839	1.555484	1
H	0.341769	-1.094329	-1.510986	1
H	0.365679	-2.524129	-0.471646	1
H	1.768909	-1.450229	-0.529336	1
H	0.578629	1.212281	-1.732036	1
H	0.514779	2.792201	-0.909276	1
H	-0.933581	1.753271	-0.920596	1
Es	-1.713801	-0.337643	1.159425	99
Es	0.156350	1.760156	-0.889092	99
Es	0.316901	1.469396	1.322554	99
Es	1.405536	-1.458180	-0.531289	99
Es	2.158674	0.969081	0.582698	99
Es	0.367356	0.130403	0.594385	99
Es	0.637307	1.087241	0.705646	99
Es	0.709774	1.023889	0.633194	99
Es	0.825735	1.034889	0.666660	99
Es	0.334023	-0.935597	1.240447	99
Es	2.155851	0.816639	0.830562	99
Es	-1.433288	-0.717549	0.601272	99
Es	1.618201	0.994427	0.616078	99
Es	0.048785	1.728063	1.716428	99
Es	2.161978	1.261037	0.580578	99
Es	0.440020	-1.207542	-1.195351	99
Es	0.399078	1.404736	-0.199815	99
Es	-0.567092	1.743575	-0.900094	99
Es	0.090189	-0.668164	0.612798	99
Es	0.678273	0.911439	0.634617	99
Es	0.454394	-2.176368	-0.483640	99
Es	0.674563	-1.475547	-0.540654	99
Es	2.120576	0.816107	0.312391	99
Es	-1.701082	-0.436094	-0.034590	99
Es	0.177759	1.976524	1.634900	99
Es	-0.658441	-0.666593	0.599949	99
Es	0.697615	1.062294	0.525167	99
Es	0.438099	1.384006	-1.439565	99
Es	-0.212879	1.639593	1.565772	99
Es	0.163494	1.540685	1.906129	99
Es	0.398518	2.428539	-0.883297	99
Es	-1.654955	-1.418088	0.657491	99
Es	0.385179	-1.041704	0.034613	99
50
Properties=species:S:1:pos:R:3:Z:I:1 energy=-704.6430529543828 field_type=dipole dipole="0.000000 0.000000 0.000000" charge=0
C	-1.433361	-0.717549	0.601294	6
C	0.090169	-0.668289	0.612844	6
C	0.674609	-1.475590	-0.540696	6
S	0.709759	1.023961	0.633084	16
C	0.156319	1.760221	-0.889196	6
O	0.048709	1.728170	1.716574	8
O	2.158909	0.969071	0.582714	8
H	-1.855561	-0.148709	1.435754	1
H	-1.785471	-1.750689	0.691474	1
H	-1.844571	-0.305819	-0.325456	1
H	0.444299	-1.103839	1.555484	1
H	0.341769	-1.094329	-1.510986	1
H	0.365679	-2.524129	-0.471646	1
H	1.768909	-1.450229	-0.529336	1
H	0.578629	1.212281	-1.732036	1
H	0.514779	2.792201	-0.909276	1
H	-0.933581	1.753271	-0.920596	1
Es	0.311720	1.466534	1.317631	99
Es	-0.219414	1.649172	1.575299	99
Es	-1.714129	-0.337500	1.159742	99
Es	0.709746	1.023952	0.633098	99
Es	-0.567535	1.743697	-0.899870	99
Es	0.438386	1.383777	-1.439588	99
Es	0.602016	0.987506	0.600104	99
Es	0.454190	-2.176145	-0.484017	99
Es	0.398667	2.428208	-0.883171	99
Es	2.158658	0.968929	0.582599	99
Es	-1.654918	-1.417711	0.657183	99
Es	0.399114	1.405234	-0.200080	99
Es	0.759850	1.083154	0.543691	99
Es	0.186050	1.970929	1.637113	99
Es	2.129487	0.804093	0.317848	99
Es	0.385043	-1.041873	0.034612	99
Es	-1.701088	-0.436476	-0.034225	99
Es	0.776910	0.929526	0.661038	99
Es	0.156352	1.760153	-0.889088	99
Es	0.367453	0.130160	0.594459	99
Es	0.090190	-0.668161	0.612796	99
Es	0.440156	-1.207889	-1.194752	99
Es	1.615902	0.994595	0.614260	99
Es	0.166922	1.539587	1.899214	99
Es	1.406042	-1.458210	-0.531515	99
Es	0.334049	-0.935049	1.240001	99
Es	0.700178	1.095616	0.727363	99
Es	2.153988	0.832454	0.836925	99
Es	0.048718	1.728035	1.716499	99
Es	0.674561	-1.475547	-0.540653	99
Es	-1.433288	-0.717549	0.601273	99
Es	2.157266	1.257163	0.570602	99
Es	-0.658549	-0.666719	0.599972	99
50
Properties=species:S:1:pos:R:3:Z:I:1 energy=-704.6430529543828 field_type=dipole dipole="0.000000 0.000000 0.000000" charge=0
C	-1.433361	-0.717549	0.601294	6
C	0.090169	-0.668289	0.612844	6
C	0.674609	-1.475590	-0.540696	6
S	0.709759	1.023961	0.633084	16
C	0.156319	1.760221	-0.889196	6
O	0.048709	1.728170	1.716574	8
O	2.158909	0.969071	0.582714	8
H	-1.855561	-0.148709	1.435754	1
H	-1.785471	-1.750689	0.691474	1
H	-1.844571	-0.305819	-0.325456	1
H	0.444299	-1.103839	1.555484	1
H	0.341769	-1.094329	-1.510986	1
H	0.365679	-2.524129	-0.471646	1
H	1.768909	-1.450229	-0.529336	1
H	0.578629	1.212281	-1.732036	1
H	0.514779	2.792201	-0.909276	1
H	-0.933581	1.753271	-0.920596	1
Es	0.181378	1.551738	1.895842	99
Es	2.158546	0.969042	0.582667	99
Es	0.156351	1.760155	-0.889091	99
Es	-0.567679	1.743752	-0.899815	99
Es	0.334002	-0.934884	1.239890	99
Es	2.128640	0.808846	0.314772	99
Es	0.438687	1.383899	-1.439826	99
Es	0.398513	2.427941	-0.882878	99
Es	-1.701019	-0.436648	-0.034124	99
Es	0.439957	-1.208153	-1.194627	99
Es	1.615342	0.997788	0.614164	99
Es	0.090189	-0.668164	0.612798	99
Es	0.633973	1.090678	0.576619	99
Es	0.454315	-2.175973	-0.483981	99
Es	-0.658537	-0.666791	0.599978	99
Es	0.184810	1.966057	1.624429	99
Es	2.150080	0.825073	0.831853	99
Es	0.399122	1.405362	-0.200152	99
Es	-0.227674	1.647325	1.593234	99
Es	0.367447	0.130002	0.594685	99
Es	0.306549	1.461161	1.315932	99
Es	2.162682	1.256467	0.578702	99
Es	-1.433289	-0.717550	0.601272	99
Es	0.385164	-1.041869	0.034601	99
Es	1.406178	-1.458193	-0.531790	99
Es	0.657313	0.980493	0.730683	99
Es	-1.714317	-0.337414	1.159896	99
Es	0.048870	1.727964	1.716297	99
Es	0.747589	0.933513	0.559918	99
Es	0.800086	1.091104	0.664971	99
Es	0.674563	-1.475548	-0.540654	99
Es	0.709771	1.023955	0.633076	99
Es	-1.654912	-1.417481	0.657026	99
50
Properties=species:S:1:pos:R:3:Z:I:1 energy=-704.6430529543828 field_type=dipole dipole="0.000000 0.000000 0.000000" charge=0
C	-1.433361	-0.717549	0.601294	6
C	0.090169	-0.668289	0.612844	6
C	0.674609	-1.475590	-0.540696	6
S	0.709759	1.023961	0.633084	16
C	0.156319	1.760221	-0.889196	6
O	0.048709	1.728170	1.716574	8
O	2.158909	0.969071	0.582714	8
H	-1.855561	-0.148709	1.435754	1
H	-1.785471	-1.750689	0.691474	1
H	-1.844571	-0.305819	-0.325456	1
H	0.444299	-1.103839	1.555484	1
H	0.341769	-1.094329	-1.510986	1
H	0.365679	-2.524129	-0.471646	1
H	1.768909	-1.450229	-0.529336	1
H	0.578629	1.212281	-1.732036	1
H	0.514779	2.792201	-0.909276	1
H	-0.933581	1.753271	-0.920596	1
Es	0.454389	-2.175877	-0.484204	99
Es	0.334006	-0.934694	1.239798	99
Es	-1.433287	-0.717551	0.601271	99
Es	0.603377	1.086380	0.646680	99
Es	-1.654927	-1.417458	0.656919	99
Es	-0.222499	1.647173	1.575677	99
Es	1.614113	0.992524	0.603061	99
Es	0.692385	0.923310	0.575264	99
Es	0.183430	1.965923	1.625905	99
Es	0.168487	1.551660	1.905018	99
Es	0.385051	-1.042012	0.034612	99
Es	2.158582	0.969071	0.582700	99
Es	0.794049	1.089142	0.576660	99
Es	0.090190	-0.668163	0.612796	99
Es	2.156823	1.257887	0.577442	99
Es	0.315588	1.461408	1.322737	99
Es	0.709845	1.024051	0.633171	99
Es	2.148943	0.798027	0.322107	99
Es	-1.700996	-0.436779	-0.033904	99
Es	2.136841	0.839703	0.836831	99
Es	0.048830	1.728026	1.716359	99
Es	0.674562	-1.475547	-0.540654	99
Es	1.406340	-1.458111	-0.531778	99
Es	-1.714466	-0.337385	1.159892	99
Es	0.749048	0.996855	0.733555	99
Es	0.440016	-1.208245	-1.194465	99
Es	0.156353	1.760154	-0.889086	99
Es	0.398510	2.427716	-0.882692	99
Es	-0.567797	1.743896	-0.899762	99
Es	0.438855	1.383901	-1.439976	99
Es	0.399123	1.405496	-0.200246	99
Es	-0.658541	-0.666684	0.599954	99
Es	0.367468	0.129848	0.594724	99
50
Properties=species:S:1:pos:R:3:Z:I:1 energy=-704.6430529543828 field_type=dipole dipole="0.000000 0.000000 0.000000" charge=0
C	-1.433361	-0.717549	0.601294	6
C	0.090169	-0.668289	0.612844	6
C	0.674609	-1.475590	-0.540696	6
S	0.709759	1.023961	0.633084	16
C	0.156319	1.760221	-0.889196	6
O	0.048709	1.728170	1.716574	8
O	2.158909	0.969071	0.582714	8
H	-1.855561	-0.148709	1.435754	1
H	-1.785471	-1.750689	0.691474	1
H	-1.844571	-0.305819	-0.325456	1
H	0.444299	-1.103839	1.555484	1
H	0.341769	-1.094329	-1.510986	1
H	0.365679	-2.524129	-0.471646	1
H	1.768909	-1.450229	-0.529336	1
H	0.578629	1.212281	-1.732036	1
H	0.514779	2.792201	-0.909276	1
H	-0.933581	1.753271	-0.920596	1
Es	-1.700996	-0.436704	-0.033973	99
Es	1.613450	0.984176	0.605342	99
Es	0.367592	0.129920	0.594703	99
Es	2.158818	0.968985	0.582825	99
Es	0.709733	1.024213	0.632860	99
Es	0.090188	-0.668167	0.612797	99
Es	0.592983	1.023710	0.676050	99
Es	0.316036	1.468355	1.317494	99
Es	0.385103	-1.041927	0.034650	99
Es	-1.714366	-0.337392	1.159747	99
Es	0.398743	2.427691	-0.882850	99
Es	0.399180	1.405470	-0.200215	99
Es	0.728571	1.113259	0.557590	99
Es	-0.658595	-0.666787	0.600023	99
Es	0.440017	-1.208229	-1.194453	99
Es	1.406389	-1.458174	-0.531770	99
Es	0.438707	1.383886	-1.439768	99
Es	2.157901	0.792409	0.324907	99
Es	0.454240	-2.175889	-0.484106	99
Es	0.156351	1.760155	-0.889091	99
Es	0.334019	-0.934747	1.239709	99
Es	-0.567921	1.743998	-0.899818	99
Es	0.778359	1.038759	0.717533	99
Es	-1.655041	-1.417490	0.657039	99
Es	-0.224678	1.655031	1.574137	99
Es	-1.433289	-0.717551	0.601270	99
Es	0.048798	1.728048	1.716422	99
Es	0.674564	-1.475547	-0.540653	99
Es	0.189401	1.964219	1.642295	99
Es	0.164262	1.538543	1.895332	99
Es	2.141823	0.854494	0.840694	99
Es	2.143294	1.257104	0.568384	99
Es	0.739055	0.919822	0.581259	99
50
Properties=species:S:1:pos:R:3:Z:I:1 energy=-704.6430529543828 field_type=dipole dipole="0.000000 0.000000 0.000000" charge=0
C	-1.433361	-0.717549	0.601294	6
C	0.090169	-0.668289	0.612844	6
C	0.674609	-1.475590	-0.540696	6
S	0.709759	1.023961	0.633084	16
C	0.156319	1.760221	-0.889196	6
O	0.048709	1.728170	1.716574	8
O	2.158909	0.969071	0.582714	8
H	-1.855561	-0.148709	1.435754	1
H	-1.785471	-1.750689	0.691474	1
H	-1.844571	-0.305819	-0.325456	1
H	0.444299	-1.103839	1.555484	1
H	0.341769	-1.094329	-1.510986	1
H	0.365679	-2.524129	-0.471646	1
H	1.768909	-1.450229	-0.529336	1
H	0.578629	1.212281	-1.732036	1
H	0.514779	2.792201	-0.909276	1
H	-0.933581	1.753271	-0.920596	1
Es	-0.228653	1.661712	1.581614	99
Es	0.681007	0.962396	0.730704	99
Es	-1.654913	-1.417484	0.656742	99
Es	-1.700914	-0.436843	-0.033706	99
Es	0.689537	0.958114	0.544201	99
Es	2.158390	1.254769	0.551659	99
Es	-0.567868	1.743939	-0.899613	99
Es	0.334054	-0.934517	1.239614	99
Es	2.148056	0.858374	0.839387	99
Es	0.709616	1.024058	0.633003	99
Es	0.168741	1.542067	1.896043	99
Es	0.674562	-1.475548	-0.540654	99
Es	0.454240	-2.175891	-0.484384	99
Es	-0.658590	-0.666729	0.600051	99
Es	0.398549	2.427660	-0.882610	99
Es	0.311567	1.464772	1.315251	99
Es	0.640738	1.122840	0.623597	99
Es	-1.433288	-0.717550	0.601272	99
Es	0.384978	-1.041995	0.034676	99
Es	0.827815	1.052361	0.633810	99
Es	2.136102	0.778909	0.331337	99
Es	0.090188	-0.668166	0.612798	99
Es	2.158751	0.969068	0.582637	99
Es	0.438952	1.383738	-1.440045	99
Es	0.399085	1.405737	-0.200328	99
Es	0.156353	1.760155	-0.889089	99
Es	0.048719	1.728103	1.716428	99
Es	1.406414	-1.458182	-0.531932	99
Es	0.440168	-1.208326	-1.194172	99
Es	0.193411	1.957534	1.636342	99
Es	-1.714568	-0.337325	1.160011	99
Es	1.613984	0.996003	0.617007	99
Es	0.367508	0.129893	0.594715	99
50
Properties=species:S:1:pos:R:3:Z:I:1 energy=-704.6430529543828 field_type=dipole dipole="0.000000 0.000000 0.000000" charge=0
C	-1.433361	-0.717549	0.601294	6
C	0.090169	-0.668289	0.612844	6
C	0.674609	-1.475590	-0.540696	6
S	0.709759	1.023961	0.633084	16
C	0.156319	1.760221	-0.889196	6
O	0.048709	1.728170	1.716574	8
O	2.158909	0.969071	0.582714	8
H	-1.855561	-0.148709	1.435754	1
H	-1.785471	-1.750689	0.691474	1
H	-1.844571	-0.305819	-0.325456	1
H	0.444299	-1.103839	1.555484	1
H	0.341769	-1.094329	-1.510986	1
H	0.365679	-2.524129	-0.471646	1
H	1.768909	-1.450229	-0.529336	1
H	0.578629	1.212281	-1.732036	1
H	0.514779	2.792201	-0.909276	1
H	-0.933581	1.753271	-0.920596	1
Es	-1.700875	-0.436954	-0.033581	99
Es	1.613295	0.990679	0.613578	99
Es	0.171376	1.541766	1.891468	99
Es	2.148815	1.253992	0.574016	99
Es	0.385155	-1.041999	0.034614	99
Es	-0.228457	1.657989	1.586097	99
Es	0.593959	1.065475	0.624315	99
Es	0.367446	0.129836	0.594769	99
Es	2.144619	0.801511	0.316408	99
Es	0.709783	1.024039	0.633037	99
Es	0.438953	1.383761	-1.439930	99
Es	0.440218	-1.208244	-1.194154	99
Es	0.735178	1.023396	0.735777	99
Es	0.789770	1.097133	0.577456	99
Es	2.158794	0.969022	0.582680	99
Es	-1.714556	-0.337171	1.159909	99
Es	-1.433289	-0.717549	0.601273	99
Es	0.720007	0.909699	0.594706	99
Es	2.149761	0.841937	0.835328	99
Es	0.334098	-0.934392	1.239585	99
Es	0.309586	1.464343	1.313971	99
Es	0.674564	-1.475547	-0.540653	99
Es	0.048763	1.728073	1.716449	99
Es	1.406454	-1.458278	-0.531879	99
Es	0.398665	2.427445	-0.882721	99
Es	0.192469	1.961988	1.637662	99
Es	-0.658598	-0.666792	0.600008	99
Es	-0.567999	1.744137	-0.899749	99
Es	0.454084	-2.175884	-0.484384	99
Es	0.090188	-0.668164	0.612796	99
Es	-1.655027	-1.417526	0.656809	99
Es	0.399138	1.405767	-0.200203	99
Es	0.156353	1.760157	-0.889090	99
50
Properties=species:S:1:pos:R:3:Z:I:1 energy=-704.6430529543828 field_type=dipole dipole="0.000000 0.000000 0.000000" charge=0
C	-1.433361	-0.717549	0.601294	6
C	0.090169	-0.668289	0.612844	6
C	0.674609	-1.475590	-0.540696	6
S	0.709759	1.023961	0.633084	16
C	0.156319	1.760221	-0.889196	6
O	0.048709	1.728170	1.716574	8
O	2.158909	0.969071	0.582714	8
H	-1.855561	-0.148709	1.435754	1
H	-1.785471	-1.750689	0.691474	1
H	-1.844571	-0.305819	-0.325456	1
H	0.444299	-1.103839	1.555484	1
H	0.341769	-1.094329	-1.510986	1
H	0.365679	-2.524129	-0.471646	1
H	1.768909	-1.450229	-0.529336	1
H	0.578629	1.212281	-1.732036	1
H	0.514779	2.792201	-0.909276	1
H	-0.933581	1.753271	-0.920596	1
Es	-0.230303	1.654984	1.584166	99
Es	0.313510	1.462597	1.318374	99
Es	0.190629	1.961401	1.633860	99
Es	0.334010	-0.934511	1.239698	99
Es	2.155313	0.802426	0.316672	99
Es	0.788635	1.048838	0.705374	99
Es	2.149675	0.848396	0.834852	99
Es	0.048812	1.728047	1.716393	99
Es	0.739038	0.918033	0.580906	99
Es	0.709863	1.023914	0.633075	99
Es	2.138582	1.257018	0.575202	99
Es	0.171071	1.547154	1.892812	99
Es	0.440028	-1.208347	-1.194167	99
Es	0.398684	2.427539	-0.882684	99
Es	1.613041	0.980142	0.612585	99
Es	0.090190	-0.668166	0.612799	99
Es	-1.701006	-0.436874	-0.033685	99
Es	0.454262	-2.175935	-0.484254	99
Es	-1.714449	-0.337287	1.159824	99
Es	0.156351	1.760156	-0.889092	99
Es	-0.567964	1.744093	-0.899768	99
Es	0.674563	-1.475548	-0.540653	99
Es	1.406522	-1.458024	-0.531912	99
Es	-1.655013	-1.417535	0.656940	99
Es	-0.658576	-0.666700	0.599841	99
Es	0.399186	1.405645	-0.200208	99
Es	0.438860	1.383891	-1.439926	99
Es	2.158664	0.969061	0.582720	99
Es	-1.433288	-0.717549	0.601272	99
Es	0.603188	1.017653	0.693604	99
Es	0.707969	1.111322	0.552329	99
Es	0.385077	-1.042072	0.034691	99
Es	0.367568	0.129886	0.594728	99
50
Properties=species:S:1:pos:R:3:Z:I:1 energy=-704.6430529543828 field_type=dipole dipole="0.000000 0.000000 0.000000" charge=0
C	-1.433361	-0.717549	0.601294	6
C	0.090169	-0.668289	0.612844	6
C	0.674609	-1.475590	-0.540696	6
S	0.709759	1.023961	0.633084	16
C	0.156319	1.760221	-0.889196	6
O	0.048709	1.728170	1.716574	8
O	2.158909	0.969071	0.582714	8
H	-1.855561	-0.148709	1.435754	1
H	-1.785471	-1.750689	0.691474	1
H	-1.844571	-0.305819	-0.325456	1
H	0.444299	-1.103839	1.555484	1
H	0.341769	-1.094329	-1.510986	1
H	0.365679	-2.524129	-0.471646	1
H	1.768909	-1.450229	-0.529336	1
H	0.578629	1.212281	-1.732036	1
H	0.514779	2.792201	-0.909276	1
H	-0.933581	1.753271	-0.920596	1
Es	0.674563	-1.475548	-0.540654	99
Es	-1.700821	-0.436876	-0.033697	99
Es	0.803973	1.019236	0.690500	99
Es	0.619367	0.969565	0.698165	99
Es	0.709383	1.024261	0.632578	99
Es	0.090191	-0.668160	0.612797	99
Es	0.334125	-0.934621	1.239800	99
Es	1.406464	-1.458171	-0.531846	99
Es	0.398587	2.427447	-0.882665	99
Es	0.440135	-1.208323	-1.194240	99
Es	-0.567894	1.744167	-0.899806	99
Es	2.143398	0.798332	0.317294	99
Es	0.367460	0.129812	0.594802	99
Es	0.048838	1.728011	1.716332	99
Es	-1.433288	-0.717550	0.601272	99
Es	-0.658469	-0.666782	0.600028	99
Es	0.399192	1.405652	-0.200061	99
Es	0.181779	1.553099	1.889619	99
Es	0.190594	1.958331	1.625747	99
Es	0.454308	-2.175812	-0.484386	99
Es	0.307241	1.459379	1.315224	99
Es	0.438900	1.383927	-1.440029	99
Es	1.613020	0.993735	0.614684	99
Es	-1.655054	-1.417401	0.656760	99
Es	-0.234753	1.655347	1.598697	99
Es	-1.714601	-0.337241	1.159924	99
Es	2.146218	0.842056	0.832638	99
Es	2.158510	0.969048	0.582765	99
Es	0.729007	0.966126	0.534807	99
Es	0.156352	1.760156	-0.889091	99
Es	0.384851	-1.041982	0.034628	99
Es	2.154105	1.253828	0.574572	99
Es	0.687011	1.140602	0.609207	99
50
Properties=species:S:1:pos:R:3:Z:I:1 energy=-704.6430529543828 field_type=dipole dipole="0.000000 0.000000 0.000000" charge=0
C	-1.433361	-0.717549	0.601294	6
C	0.090169	-0.668289	0.612844	6
C	0.674609	-1.475590	-0.540696	6
S	0.709759	1.023961	0.633084	16
C	0.156319	1.760221	-0.889196	6
O	0.048709	1.728170	1.716574	8
O	2.158909	0.969071	0.582714	8
H	-1.855561	-0.148709	1.435754	1
H	-1.785471	-1.750689	0.691474	1
H	-1.844571	-0.305819	-0.325456	1
H	0.444299	-1.103839	1.555484	1
H	0.341769	-1.094329	-1.510986	1
H	0.365679	-2.524129	-0.471646	1
H	1.768909	-1.450229	-0.529336	1
H	0.578629	1.212281	-1.732036	1
H	0.514779	2.792201	-0.909276	1
H	-0.933581	1.753271	-0.920596	1
Es	0.440244	-1.208267	-1.194231	99
Es	0.653491	0.954814	0.581290	99
Es	1.406306	-1.458028	-0.531808	99
Es	-1.655069	-1.417553	0.656650	99
Es	-1.700712	-0.436745	-0.033673	99
Es	0.192259	1.959789	1.630187	99
Es	0.384928	-1.042137	0.034690	99
Es	2.158747	0.845232	0.832834	99
Es	2.158538	0.969023	0.582763	99
Es	0.048832	1.728131	1.716407	99
Es	0.454347	-2.176047	-0.484401	99
Es	0.674564	-1.475549	-0.540655	99
Es	2.140588	0.801885	0.314751	99
Es	0.156352	1.760155	-0.889090	99
Es	-0.236004	1.655277	1.601357	99
Es	0.090189	-0.668166	0.612799	99
Es	0.438814	1.383830	-1.439979	99
Es	0.810687	1.050222	0.562851	99
Es	0.182454	1.549910	1.884081	99
Es	0.306185	1.461112	1.313567	99
Es	-0.658564	-0.666868	0.600233	99
Es	0.635418	1.121051	0.656023	99
Es	0.398605	2.427602	-0.882748	99
Es	-1.433289	-0.717549	0.601272	99
Es	-0.567805	1.744096	-0.899777	99
Es	0.709760	1.023963	0.633087	99
Es	0.334058	-0.934433	1.239628	99
Es	-1.714601	-0.337278	1.159927	99
Es	0.367476	0.129967	0.594732	99
Es	0.739369	0.969688	0.732064	99
Es	1.614055	0.984317	0.621775	99
Es	2.143330	1.256555	0.569831	99
Es	0.399140	1.405646	-0.200071	99
50
Properties=species:S:1:pos:R:3:Z:I:1 energy=-704.6430529543828 field_type=dipole dipole="0.000000 0.000000 0.000000" charge=0
C	-1.433361	-0.717549	0.601294	6
C	0.090169	-0.668289	0.612844	6
C	0.674609	-1.475590	-0.540696	6
S	0.709759	1.023961	0.633084	16
C	0.156319	1.760221	-0.889196	6
O	0.048709	1.728170	1.716574	8
O	2.158909	0.969071	0.582714	8
H	-1.855561	-0.148709	1.435754	1
H	-1.785471	-1.750689	0.691474	1
H	-1.844571	-0.305819	-0.325456	1
H	0.444299	-1.103839	1.555484	1
H	0.341769	-1.094329	-1.510986	1
H	0.365679	-2.524129	-0.471646	1
H	1.768909	-1.450229	-0.529336	1
H	0.578629	1.212281	-1.732036	1
H	0.514779	2.792201	-0.909276	1
H	-0.933581	1.753271	-0.920596	1
Es	0.789861	0.933634	0.659857	99
Es	0.398683	2.427382	-0.882712	99
Es	2.149856	0.848242	0.835270	99
Es	0.440028	-1.208247	-1.194094	99
Es	0.334062	-0.934420	1.239565	99
Es	0.763546	1.120437	0.583278	99
Es	0.385026	-1.042251	0.034762	99
Es	0.367547	0.129812	0.594814	99
Es	0.438887	1.383798	-1.439996	99
Es	0.307428	1.456809	1.317461	99
Es	-1.700964	-0.436893	-0.033677	99
Es	0.631627	1.053461	0.726728	99
Es	2.143728	0.794715	0.319342	99
Es	1.406555	-1.458073	-0.531947	99
Es	0.454298	-2.175843	-0.484475	99
Es	-0.234517	1.653778	1.598580	99
Es	0.399209	1.405748	-0.200177	99
Es	0.181770	1.556134	1.890692	99
Es	-0.658674	-0.666636	0.600037	99
Es	-1.714535	-0.337298	1.159894	99
Es	0.090189	-0.668163	0.612797	99
Es	0.190190	1.959371	1.622584	99
Es	2.158793	0.969032	0.582781	99
Es	0.654249	0.988525	0.562725	99
Es	-0.567994	1.744224	-0.899711	99
Es	0.674562	-1.475545	-0.540652	99
Es	1.613301	0.990872	0.616496	99
Es	-1.433288	-0.717550	0.601272	99
Es	0.156352	1.760157	-0.889093	99
Es	2.149598	1.254224	0.568062	99
Es	0.709430	1.023732	0.632718	99
Es	0.048828	1.728015	1.716324	99
Es	-1.654940	-1.417537	0.656859	99
50
Properties=species:S:1:pos:R:3:Z:I:1 energy=-704.6430529543828 field_type=dipole dipole="0.000000 0.000000 0.000000" charge=0
C	-1.433361	-0.717549	0.601294	6
C	0.090169	-0.668289	0.612844	6
C	0.674609	-1.475590	-0.540696	6
S	0.709759	1.023961	0.633084	16
C	0.156319	1.760221	-0.889196	6
O	0.048709	1.728170	1.716574	8
O	2.158909	0.969071	0.582714	8
H	-1.855561	-0.148709	1.435754	1
H	-1.785471	-1.750689	0.691474	1
H	-1.844571	-0.305819	-0.325456	1
H	0.444299	-1.103839	1.555484	1
H	0.341769	-1.094329	-1.510986	1
H	0.365679	-2.524129	-0.471646	1
H	1.768909	-1.450229	-0.529336	1
H	0.578629	1.212281	-1.732036	1
H	0.514779	2.792201	-0.909276	1
H	-0.933581	1.753271	-0.920596	1
Es	-1.433289	-0.717548	0.601268	99
Es	0.438912	1.384092	-1.440076	99
Es	1.406532	-1.457983	-0.531860	99
Es	-1.655191	-1.417566	0.656908	99
Es	0.674563	-1.475547	-0.540653	99
Es	2.145036	0.853170	0.832976	99
Es	0.384930	-1.042164	0.034674	99
Es	1.611829	0.989248	0.615598	99
Es	0.186122	1.958122	1.622245	99
Es	0.367584	0.129883	0.594736	99
Es	0.440185	-1.208357	-1.194063	99
Es	-0.567897	1.744208	-0.899870	99
Es	0.655432	1.060347	0.736165	99
Es	-1.714382	-0.337108	1.159834	99
Es	2.158444	0.969191	0.582711	99
Es	0.828168	1.040490	0.638143	99
Es	0.048830	1.728030	1.716346	99
Es	0.710040	1.024290	0.633095	99
Es	0.399289	1.405640	-0.199976	99
Es	2.148838	0.790394	0.323012	99
Es	0.090189	-0.668165	0.612798	99
Es	2.151075	1.254949	0.567498	99
Es	-0.658646	-0.666941	0.600028	99
Es	0.156352	1.760155	-0.889090	99
Es	-1.700877	-0.436875	-0.033557	99
Es	0.398578	2.427410	-0.882578	99
Es	-0.229927	1.652193	1.584088	99
Es	0.334181	-0.934283	1.239620	99
Es	0.667651	1.083594	0.544111	99
Es	0.687410	0.911047	0.613778	99
Es	0.454237	-2.175997	-0.484374	99
Es	0.316406	1.456837	1.322656	99
Es	0.172087	1.558888	1.900177	99
50
Properties=species:S:1:pos:R:3:Z:I:1 energy=-704.6430529543828 field_type=dipole dipole="0.000000 0.000000 0.000000" charge=0
C	-1.433361	-0.717549	0.601294	6
C	0.090169	-0.668289	0.612844	6
C	0.674609	-1.475590	-0.540696	6
S	0.709759	1.023961	0.633084	16
C	0.156319	1.760221	-0.889196	6
O	0.048709	1.728170	1.716574	8
O	2.158909	0.969071	0.582714	8
H	-1.855561	-0.148709	1.435754	1
H	-1.785471	-1.750689	0.691474	1
H	-1.844571	-0.305819	-0.325456	1
H	0.444299	-1.103839	1.555484	1
H	0.341769	-1.094329	-1.510986	1
H	0.365679	-2.524129	-0.471646	1
H	1.768909	-1.450229	-0.529336	1
H	0.578629	1.212281	-1.732036	1
H	0.514779	2.792201	-0.909276	1
H	-0.933581	1.753271	-0.920596	1
Es	0.733012	0.937141	0.552192	99
Es	-0.567883	1.744242	-0.899833	99
Es	-1.655075	-1.417476	0.656892	99
Es	0.048818	1.727952	1.716206	99
Es	-1.433288	-0.717549	0.601272	99
Es	2.151174	1.249632	0.570284	99
Es	0.156353	1.760154	-0.889089	99
Es	0.454248	-2.175884	-0.484275	99
Es	0.180728	1.962583	1.615240	99
Es	-1.714402	-0.337291	1.159891	99
Es	0.438804	1.384120	-1.440090	99
Es	-1.700953	-0.436770	-0.033743	99
Es	0.385018	-1.042047	0.034664	99
Es	-0.658516	-0.666886	0.599968	99
Es	0.309089	1.455296	1.318333	99
Es	0.674561	-1.475547	-0.540654	99
Es	0.090189	-0.668164	0.612798	99
Es	1.612552	0.995870	0.618153	99
Es	0.399333	1.405574	-0.199964	99
Es	2.139730	0.799226	0.315953	99
Es	2.153257	0.843077	0.834688	99
Es	1.406401	-1.458184	-0.531751	99
Es	0.190986	1.566872	1.885664	99
Es	0.367438	0.129890	0.594717	99
Es	2.158520	0.969135	0.582780	99
Es	0.793820	1.028407	0.697811	99
Es	0.398605	2.427406	-0.882614	99
Es	0.334118	-0.934460	1.239829	99
Es	0.703821	1.130194	0.579346	99
Es	-0.236010	1.641394	1.610120	99
Es	0.608236	1.000072	0.702841	99
Es	0.440183	-1.208281	-1.194338	99
Es	0.709825	1.023949	0.633074	99
50
Properties=species:S:1:pos:R:3:Z:I:1 energy=-704.6430529543828 field_type=dipole dipole="0.000000 0.000000 0.000000" charge=0
C	-1.433361	-0.717549	0.601294	6
C	0.090169	-0.668289	0.612844	6
C	0.674609	-1.475590	-0.540696	6
S	0.709759	1.023961	0.633084	16
C	0.156319	1.760221	-0.889196	6
O	0.048709	1.728170	1.716574	8
O	2.158909	0.969071	0.582714	8
H	-1.855561	-0.148709	1.435754	1
H	-1.785471	-1.750689	0.691474	1
H	-1.844571	-0.305819	-0.325456	1
H	0.444299	-1.103839	1.555484	1
H	0.341769	-1.094329	-1.510986	1
H	0.365679	-2.524129	-0.471646	1
H	1.768909	-1.450229	-0.529336	1
H	0.578629	1.212281	-1.732036	1
H	0.514779	2.792201	-0.909276	1
H	-0.933581	1.753271	-0.920596	1
Es	0.454137	-2.176162	-0.484258	99
Es	0.709272	1.037324	0.749477	99
Es	-1.655251	-1.417779	0.657063	99
Es	0.090189	-0.668166	0.612798	99
Es	2.137258	0.862035	0.837440	99
Es	0.770422	1.115140	0.581277	99
Es	-0.658619	-0.666800	0.599974	99
Es	1.611437	0.984906	0.606726	99
Es	2.142172	1.253955	0.568003	99
Es	0.674563	-1.475548	-0.540653	99
Es	0.440136	-1.208288	-1.194016	99
Es	0.384911	-1.042067	0.034620	99
Es	-1.714246	-0.337139	1.159635	99
Es	2.158675	0.969087	0.582726	99
Es	0.172915	1.545502	1.892090	99
Es	1.406534	-1.457880	-0.531876	99
Es	0.603234	1.028776	0.598659	99
Es	2.165675	0.786975	0.326936	99
Es	-0.567938	1.744083	-0.899877	99
Es	0.756757	0.914834	0.602965	99
Es	0.048848	1.728035	1.716408	99
Es	0.709036	1.023713	0.632906	99
Es	0.334236	-0.934461	1.239638	99
Es	-1.700954	-0.436816	-0.033513	99
Es	-1.433291	-0.717549	0.601273	99
Es	0.313591	1.465722	1.314459	99
Es	0.367656	0.129992	0.594668	99
Es	-0.232757	1.659728	1.586937	99
Es	0.438725	1.384076	-1.439830	99
Es	0.398711	2.427599	-0.882785	99
Es	0.190935	1.955075	1.635612	99
Es	0.399369	1.405581	-0.200028	99
Es	0.156355	1.760163	-0.889090	99
50
Properties=species:S:1:pos:R:3:Z:I:1 energy=-704.6430529543828 field_type=dipole dipole="0.000000 0.000000 0.000000" charge=0
C	-1.433361	-0.717549	0.601294	6
C	0.090169	-0.668289	0.612844	6
C	0.674609	-1.475590	-0.540696	6
S	0.709759	1.023961	0.633084	16
C	0.156319	1.760221	-0.889196	6
O	0.048709	1.728170	1.716574	8
O	2.158909	0.969071	0.582714	8
H	-1.855561	-0.148709	1.435754	1
H	-1.785471	-1.750689	0.691474	1
H	-1.844571	-0.305819	-0.325456	1
H	0.444299	-1.103839	1.555484	1
H	0.341769	-1.094329	-1.510986	1
H	0.365679	-2.524129	-0.471646	1
H	1.768909	-1.450229	-0.529336	1
H	0.578629	1.212281	-1.732036	1
H	0.514779	2.792201	-0.909276	1
H	-0.933581	1.753271	-0.920596	1
Es	0.304554	1.453703	1.316618	99
Es	2.142281	1.255468	0.565423	99
Es	-0.658575	-0.666903	0.599927	99
Es	2.152880	0.791703	0.322334	99
Es	0.674562	-1.475547	-0.540652	99
Es	1.406363	-1.457957	-0.531767	99
Es	0.756066	0.913882	0.639450	99
Es	0.384965	-1.042085	0.034627	99
Es	0.398531	2.427534	-0.882686	99
Es	-1.655156	-1.417666	0.656925	99
Es	0.048813	1.728036	1.716410	99
Es	0.334138	-0.934385	1.239796	99
Es	0.438855	1.384124	-1.439989	99
Es	-1.433288	-0.717550	0.601272	99
Es	-0.238417	1.662991	1.602841	99
Es	0.612543	1.017143	0.578161	99
Es	0.195920	1.952058	1.620168	99
Es	0.090188	-0.668162	0.612796	99
Es	0.367527	0.129962	0.594740	99
Es	-1.714303	-0.337167	1.159845	99
Es	-1.700902	-0.436767	-0.033608	99
Es	0.182653	1.557280	1.889469	99
Es	2.149361	0.857178	0.835121	99
Es	1.612088	0.983489	0.616160	99
Es	0.440251	-1.208297	-1.194204	99
Es	0.686499	1.065599	0.742232	99
Es	0.783481	1.100051	0.572060	99
Es	0.710108	1.023131	0.633384	99
Es	2.158585	0.969045	0.582715	99
Es	-0.567807	1.744120	-0.899960	99
Es	0.454274	-2.176125	-0.484286	99
Es	0.399299	1.405603	-0.199863	99
Es	0.156352	1.760156	-0.889094	99
50
Properties=species:S:1:pos:R:3:Z:I:1 energy=-704.6430529543828 field_type=dipole dipole="0.000000 0.000000 0.000000" charge=0
C	-1.433361	-0.717549	0.601294	6
C	0.090169	-0.668289	0.612844	6
C	0.674609	-1.475590	-0.540696	6
S	0.709759	1.023961	0.633084	16
C	0.156319	1.760221	-0.889196	6
O	0.048709	1.728170	1.716574	8
O	2.158909	0.969071	0.582714	8
H	-1.855561	-0.148709	1.435754	1
H	-1.785471	-1.750689	0.691474	1
H	-1.844571	-0.305819	-0.325456	1
H	0.444299	-1.103839	1.555484	1
H	0.341769	-1.094329	-1.510986	1
H	0.365679	-2.524129	-0.471646	1
H	1.768909	-1.450229	-0.529336	1
H	0.578629	1.212281	-1.732036	1
H	0.514779	2.792201	-0.909276	1
H	-0.933581	1.753271	-0.920596	1
Es	0.438832	1.384115	-1.439997	99
Es	-0.658545	-0.666868	0.599938	99
Es	1.406368	-1.458123	-0.531677	99
Es	-0.239067	1.649982	1.617329	99
Es	0.745650	1.131107	0.600621	99
Es	0.156352	1.760155	-0.889090	99
Es	-1.433289	-0.717549	0.601273	99
Es	0.090188	-0.668166	0.612797	99
Es	0.195337	1.559853	1.881288	99
Es	0.048828	1.728023	1.716351	99
Es	0.367403	0.129928	0.594704	99
Es	0.647952	1.027303	0.741151	99
Es	0.709533	1.023983	0.633158	99
Es	0.399333	1.405578	-0.199877	99
Es	2.150860	0.847932	0.834389	99