45
Properties=species:S:1:pos:R:3:Z:I:1 energy=-739.2965939143933 field_type=dipole dipole="0.000000 0.000000 0.000000" charge=0
C	-0.083566	-2.076990	0.724428	6
C	-0.329396	-0.783970	-0.015992	6
O	-1.226936	-0.748930	-0.866772	8
S	0.576764	0.767870	0.245008	16
C	-0.166016	1.906600	-0.891392	6
O	0.265544	1.177560	1.601718	8
O	1.939694	0.498690	-0.173212	8
H	0.811394	-1.976150	1.343588	1
H	0.072944	-2.884760	0.005618	1
H	-0.940506	-2.295840	1.365588	1
H	-0.034806	1.531920	-1.908171	1
H	0.339204	2.868920	-0.783491	1
H	-1.224316	2.015080	-0.646922	1
Es	-0.655697	-2.201070	1.134281	99
Es	-0.070463	1.649410	-1.549643	99
Es	-0.172045	-1.385865	0.366241	99
Es	1.452483	0.618257	0.018551	99
Es	1.975226	0.296863	0.041595	99
Es	0.614581	0.745342	0.134670	99
Es	0.265599	1.177498	1.601485	99
Es	-1.226603	-0.748785	-0.866516	99
Es	0.512627	-2.007128	1.137957	99
Es	0.373861	1.440179	1.558695	99
Es	2.004402	0.778335	-0.169691	99
Es	0.181270	2.521287	-0.799077	99
Es	-1.362528	-1.023685	-0.887835	99
Es	-0.083577	-2.076874	0.724376	99
Es	0.666289	0.754528	0.319813	99
Es	-1.057971	-0.679022	-0.380421	99
Es	-0.727830	-0.813976	-0.735658	99
Es	0.487214	0.692298	0.274578	99
Es	0.093367	-0.080986	0.113120	99
Es	0.013892	-2.592231	0.236858	99
Es	1.759301	0.402675	-0.419941	99
Es	0.170950	1.356854	-0.363104	99
Es	-0.017344	1.123245	1.460441	99
Es	-0.165937	1.906497	-0.891279	99
Es	-0.329359	-0.783858	-0.016000	99
Es	-0.855055	1.967844	-0.718135	99
Es	0.538816	0.879238	0.250846	99
Es	0.576758	0.767860	0.245034	99
Es	-1.260608	-0.468650	-1.003716	99
Es	0.393090	0.936499	1.716430	99
Es	0.428343	1.034531	1.110106	99
Es	1.939475	0.498740	-0.173153	99
45
Properties=species:S:1:pos:R:3:Z:I:1 energy=-739.2965939143933 field_type=dipole dipole="0.000000 0.000000 0.000000" charge=0
C	-0.083566	-2.076990	0.724428	6
C	-0.329396	-0.783970	-0.015992	6
O	-1.226936	-0.748930	-0.866772	8
S	0.576764	0.767870	0.245008	16
C	-0.166016	1.906600	-0.891392	6
O	0.265544	1.177560	1.601718	8
O	1.939694	0.498690	-0.173212	8
H	0.811394	-1.976150	1.343588	1
H	0.072944	-2.884760	0.005618	1
H	-0.940506	-2.295840	1.365588	1
H	-0.034806	1.531920	-1.908171	1
H	0.339204	2.868920	-0.783491	1
H	-1.224316	2.015080	-0.646922	1
Es	-0.725444	-0.815317	-0.737980	99
Es	-0.069607	1.649078	-1.550819	99
Es	0.695507	0.762456	0.220286	99
Es	0.509346	0.726164	0.152323	99
Es	0.415186	1.021903	1.104825	99
Es	-0.856003	1.968550	-0.717000	99
Es	1.939455	0.498730	-0.173150	99
Es	1.441302	0.588816	0.016757	99
Es	0.514410	-2.006548	1.138813	99
Es	0.552348	0.708055	0.343964	99
Es	0.013158	-2.591376	0.235994	99
Es	-0.329355	-0.783856	-0.015997	99
Es	1.790408	0.404404	-0.438230	99
Es	0.093369	-0.081151	0.113098	99
Es	-0.172001	-1.387565	0.366838	99
Es	-0.656635	-2.200153	1.133561	99
Es	-1.255026	-0.472373	-0.998747	99
Es	0.180809	2.519360	-0.798981	99
Es	-0.165937	1.906496	-0.891278	99
Es	2.007838	0.320492	0.046529	99
Es	0.265590	1.177478	1.601392	99
Es	-0.030763	1.136254	1.489909	99
Es	-1.226701	-0.748939	-0.866551	99
Es	-1.061060	-0.676850	-0.377764	99
Es	-1.367628	-1.020973	-0.893208	99
Es	0.384742	1.424204	1.531887	99
Es	1.952003	0.782517	-0.154339	99
Es	0.576847	0.767762	0.245171	99
Es	-0.083577	-2.076873	0.724376	99
Es	0.171321	1.358152	-0.363240	99
Es	0.408968	0.952118	1.719236	99
Es	0.549655	0.874836	0.263234	99
45
Properties=species:S:1:pos:R:3:Z:I:1 energy=-739.2965939143933 field_type=dipole dipole="0.000000 0.000000 0.000000" charge=0
C	-0.083566	-2.076990	0.724428	6
C	-0.329396	-0.783970	-0.015992	6
O	-1.226936	-0.748930	-0.866772	8
S	0.576764	0.767870	0.245008	16
C	-0.166016	1.906600	-0.891392	6
O	0.265544	1.177560	1.601718	8
O	1.939694	0.498690	-0.173212	8
H	0.811394	-1.976150	1.343588	1
H	0.072944	-2.884760	0.005618	1
H	-0.940506	-2.295840	1.365588	1
H	-0.034806	1.531920	-1.908171	1
H	0.339204	2.868920	-0.783491	1
H	-1.224316	2.015080	-0.646922	1
Es	2.014197	0.331304	0.050086	99
Es	0.417413	0.990641	1.117967	99
Es	-0.165938	1.906495	-0.891278	99
Es	1.939423	0.498737	-0.173137	99
Es	-0.657073	-2.199737	1.133155	99
Es	0.265558	1.177531	1.601507	99
Es	1.781224	0.389713	-0.431962	99
Es	0.093469	-0.081153	0.113121	99
Es	0.427302	1.001128	1.761187	99
Es	-1.250255	-0.474374	-0.991639	99
Es	-1.372005	-1.019734	-0.900569	99
Es	1.951417	0.778216	-0.171408	99
Es	-0.034674	1.137916	1.492772	99
Es	0.538312	0.663161	0.216762	99
Es	0.181047	2.518698	-0.798817	99
Es	-0.329356	-0.783858	-0.016004	99
Es	-0.856386	1.968932	-0.716615	99
Es	-0.083576	-2.076872	0.724376	99
Es	0.368239	1.404771	1.473849	99
Es	1.444796	0.596970	0.024085	99
Es	-1.063565	-0.677629	-0.376871	99
Es	-0.069351	1.648990	-1.551076	99
Es	0.582630	0.830228	0.147749	99
Es	0.576899	0.767662	0.244887	99
Es	-1.226701	-0.748923	-0.866556	99
Es	0.497633	0.818276	0.318036	99
Es	0.688204	0.759922	0.297528	99
Es	-0.723540	-0.813962	-0.738556	99
Es	-0.172142	-1.388656	0.367212	99
Es	0.515160	-2.005986	1.139234	99
Es	0.012982	-2.590984	0.235433	99
Es	0.171186	1.358431	-0.363550	99
45
Properties=species:S:1:pos:R:3:Z:I:1 energy=-739.2965939143933 field_type=dipole dipole="0.000000 0.000000 0.000000" charge=0
C	-0.083566	-2.076990	0.724428	6
C	-0.329396	-0.783970	-0.015992	6
O	-1.226936	-0.748930	-0.866772	8
S	0.576764	0.767870	0.245008	16
C	-0.166016	1.906600	-0.891392	6
O	0.265544	1.177560	1.601718	8
O	1.939694	0.498690	-0.173212	8
H	0.811394	-1.976150	1.343588	1
H	0.072944	-2.884760	0.005618	1
H	-0.940506	-2.295840	1.365588	1
H	-0.034806	1.531920	-1.908171	1
H	0.339204	2.868920	-0.783491	1
H	-1.224316	2.015080	-0.646922	1
Es	0.013049	-2.590951	0.235204	99
Es	-0.083576	-2.076873	0.724377	99
Es	0.515220	-2.005771	1.139162	99
Es	2.055461	0.361713	0.050320	99
Es	-0.723638	-0.813685	-0.740112	99
Es	-1.226704	-0.748940	-0.866550	99
Es	1.790205	0.389330	-0.435738	99
Es	0.093474	-0.081120	0.113120	99
Es	-0.329362	-0.783861	-0.015996	99
Es	1.939418	0.498740	-0.173133	99
Es	-0.035296	1.134242	1.503130	99
Es	-0.172200	-1.388919	0.367489	99
Es	-1.373183	-1.020296	-0.899534	99
Es	0.411833	0.986083	1.118361	99
Es	0.181136	2.518933	-0.798580	99
Es	0.362803	1.402008	1.463154	99
Es	1.444627	0.568780	0.030168	99
Es	0.438897	1.012122	1.761186	99
Es	-0.069255	1.648865	-1.551134	99
Es	0.171012	1.358626	-0.363806	99
Es	1.901348	0.776419	-0.173926	99
Es	-1.250255	-0.476155	-0.991289	99
Es	0.547000	0.672504	0.280908	99
Es	0.569518	0.763881	0.123056	99
Es	0.265626	1.177479	1.601455	99
Es	-0.657289	-2.199599	1.133244	99
Es	-0.165936	1.906495	-0.891277	99
Es	0.691827	0.789526	0.286788	99
Es	0.576680	0.767807	0.245038	99
Es	-1.062196	-0.675706	-0.376799	99
Es	-0.856406	1.968622	-0.716526	99
Es	0.498689	0.845552	0.289149	99
45
Properties=species:S:1:pos:R:3:Z:I:1 energy=-739.2965939143933 field_type=dipole dipole="0.000000 0.000000 0.000000" charge=0
C	-0.083566	-2.076990	0.724428	6
C	-0.329396	-0.783970	-0.015992	6
O	-1.226936	-0.748930	-0.866772	8
S	0.576764	0.767870	0.245008	16
C	-0.166016	1.906600	-0.891392	6
O	0.265544	1.177560	1.601718	8
O	1.939694	0.498690	-0.173212	8
H	0.811394	-1.976150	1.343588	1
H	0.072944	-2.884760	0.005618	1
H	-0.940506	-2.295840	1.365588	1
H	-0.034806	1.531920	-1.908171	1
H	0.339204	2.868920	-0.783491	1
H	-1.224316	2.015080	-0.646922	1
Es	-0.724505	-0.815488	-0.736876	99
Es	0.012771	-2.590486	0.236072	99
Es	1.939341	0.498779	-0.173165	99
Es	-0.069139	1.649745	-1.551544	99
Es	0.515513	-2.006401	1.139509	99
Es	-0.329356	-0.783860	-0.016002	99
Es	-0.034067	1.172662	1.465018	99
Es	0.093351	-0.081363	0.112980	99
Es	1.794856	0.409121	-0.444141	99
Es	0.265535	1.177503	1.601560	99
Es	-1.257119	-0.473155	-1.002105	99
Es	-1.226676	-0.749003	-0.866502	99
Es	-0.083577	-2.076873	0.724376	99
Es	0.179801	2.517577	-0.799172	99
Es	-1.064816	-0.676949	-0.376301	99
Es	0.695825	0.776625	0.283504	99
Es	1.441886	0.565777	0.026625	99
Es	-0.165936	1.906496	-0.891278	99
Es	0.576698	0.767879	0.244988	99
Es	-1.362963	-1.019763	-0.892551	99
Es	-0.856295	1.969488	-0.716786	99
Es	2.065832	0.356850	0.048141	99
Es	0.441718	1.092657	1.102138	99
Es	0.331599	0.902151	1.584616	99
Es	-0.172082	-1.388449	0.366979	99
Es	0.564101	0.697347	0.148463	99
Es	0.505187	0.730640	0.331157	99
Es	0.172015	1.358161	-0.362651	99
Es	0.439080	1.366870	1.694041	99
Es	1.889132	0.764575	-0.159774	99
Es	0.541874	0.866776	0.216807	99
Es	-0.657058	-2.200038	1.132780	99
45
Properties=species:S:1:pos:R:3:Z:I:1 energy=-739.2965939143933 field_type=dipole dipole="0.000000 0.000000 0.000000" charge=0
C	-0.083566	-2.076990	0.724428	6
C	-0.329396	-0.783970	-0.015992	6
O	-1.226936	-0.748930	-0.866772	8
S	0.576764	0.767870	0.245008	16
C	-0.166016	1.906600	-0.891392	6
O	0.265544	1.177560	1.601718	8
O	1.939694	0.498690	-0.173212	8
H	0.811394	-1.976150	1.343588	1
H	0.072944	-2.884760	0.005618	1
H	-0.940506	-2.295840	1.365588	1
H	-0.034806	1.531920	-1.908171	1
H	0.339204	2.868920	-0.783491	1
H	-1.224316	2.015080	-0.646922	1
Es	0.586993	0.858543	0.194258	99
Es	-1.226686	-0.748940	-0.866540	99
Es	2.050636	0.361945	0.055894	99
Es	-0.165937	1.906495	-0.891276	99
Es	1.445424	0.586914	0.029818	99
Es	-0.172285	-1.389503	0.367699	99
Es	0.093496	-0.081075	0.113122	99
Es	-0.723562	-0.812864	-0.739826	99
Es	-1.245737	-0.478444	-0.987153	99
Es	0.180971	2.518709	-0.798469	99
Es	0.652905	0.771640	0.344225	99
Es	1.912982	0.770117	-0.187547	99
Es	0.455348	0.753239	0.272132	99
Es	-1.376555	-1.019704	-0.904782	99
Es	0.419971	0.991258	1.117546	99
Es	-0.657501	-2.199423	1.132968	99
Es	0.611674	0.688018	0.169332	99
Es	0.446004	1.026947	1.769644	99
Es	1.782503	0.377273	-0.427326	99
Es	0.171094	1.358769	-0.363789	99
Es	1.939534	0.498724	-0.173149	99
Es	-0.069094	1.648914	-1.551338	99
Es	-1.063513	-0.674948	-0.375987	99
Es	-0.036570	1.126288	1.499882	99
Es	0.576776	0.767841	0.245009	99
Es	-0.856474	1.968624	-0.716417	99
Es	0.348869	1.389982	1.458843	99
Es	0.515613	-2.005494	1.139408	99
Es	-0.329357	-0.783858	-0.015999	99
Es	-0.083576	-2.076873	0.724376	99
Es	0.265630	1.177419	1.601412	99
Es	0.012951	-2.590684	0.234937	99
45
Properties=species:S:1:pos:R:3:Z:I:1 energy=-739.2965939143933 field_type=dipole dipole="0.000000 0.000000 0.000000" charge=0
C	-0.083566	-2.076990	0.724428	6
C	-0.329396	-0.783970	-0.015992	6
O	-1.226936	-0.748930	-0.866772	8
S	0.576764	0.767870	0.245008	16
C	-0.166016	1.906600	-0.891392	6
O	0.265544	1.177560	1.601718	8
O	1.939694	0.498690	-0.173212	8
H	0.811394	-1.976150	1.343588	1
H	0.072944	-2.884760	0.005618	1
H	-0.940506	-2.295840	1.365588	1
H	-0.034806	1.531920	-1.908171	1
H	0.339204	2.868920	-0.783491	1
H	-1.224316	2.015080	-0.646922	1
Es	0.700453	0.743935	0.264702	99
Es	0.172025	1.358224	-0.362656	99
Es	0.516117	-2.006354	1.139680	99
Es	0.349311	0.901667	1.613686	99
Es	0.179659	2.517554	-0.799087	99
Es	0.265602	1.177469	1.601420	99
Es	-0.083576	-2.076873	0.724376	99
Es	-0.329357	-0.783856	-0.015996	99
Es	-0.172376	-1.388917	0.367360	99
Es	-1.226755	-0.748924	-0.866605	99
Es	1.446461	0.571243	0.033838	99
Es	0.423347	1.077153	1.094812	99
Es	-1.366128	-1.019466	-0.894080	99
Es	-0.657371	-2.200015	1.132521	99
Es	1.939344	0.498825	-0.173016	99
Es	-0.724726	-0.815685	-0.739231	99
Es	2.080376	0.371321	0.048255	99
Es	0.438245	1.387665	1.654631	99
Es	-0.856286	1.969381	-0.716782	99
Es	1.879104	0.753472	-0.169808	99
Es	0.503249	0.768436	0.345811	99
Es	1.785781	0.400258	-0.441530	99
Es	0.576854	0.769278	0.244803	99
Es	-0.165938	1.906496	-0.891279	99
Es	0.580208	0.820003	0.238667	99
Es	0.522956	0.737631	0.130969	99
Es	-1.062743	-0.677273	-0.375993	99
Es	-1.255560	-0.473205	-0.998684	99
Es	0.093336	-0.081275	0.113011	99
Es	0.012534	-2.589917	0.235943	99
Es	-0.032582	1.167835	1.482824	99
Es	-0.069038	1.649765	-1.551651	99
45
Properties=species:S:1:pos:R:3:Z:I:1 energy=-739.2965939143933 field_type=dipole dipole="0.000000 0.000000 0.000000" charge=0
C	-0.083566	-2.076990	0.724428	6
C	-0.329396	-0.783970	-0.015992	6
O	-1.226936	-0.748930	-0.866772	8
S	0.576764	0.767870	0.245008	16
C	-0.166016	1.906600	-0.891392	6
O	0.265544	1.177560	1.601718	8
O	1.939694	0.498690	-0.173212	8
H	0.811394	-1.976150	1.343588	1
H	0.072944	-2.884760	0.005618	1
H	-0.940506	-2.295840	1.365588	1
H	-0.034806	1.531920	-1.908171	1
H	0.339204	2.868920	-0.783491	1
H	-1.224316	2.015080	-0.646922	1
Es	0.668793	0.747973	0.171982	99
Es	0.599952	0.858505	0.327125	99
Es	-0.036106	1.115193	1.495808	99
Es	-0.329357	-0.783858	-0.015999	99
Es	-0.069139	1.648672	-1.551200	99
Es	0.515838	-2.005525	1.139573	99
Es	0.093579	-0.081115	0.113123	99
Es	-0.723273	-0.813295	-0.740009	99
Es	0.265593	1.177484	1.601451	99
Es	0.012721	-2.590644	0.234923	99
Es	0.449583	1.036523	1.773975	99
Es	0.426424	0.995021	1.119138	99
Es	1.790018	0.391247	-0.437578	99
Es	0.569136	0.685149	0.297973	99
Es	1.939367	0.498729	-0.173131	99
Es	-0.165939	1.906501	-0.891282	99
Es	-1.062962	-0.675332	-0.376638	99
Es	1.443593	0.576943	0.029390	99
Es	-1.226728	-0.748928	-0.866577	99
Es	-0.856577	1.968516	-0.716284	99
Es	0.338470	1.387694	1.456959	99
Es	2.054370	0.359137	0.051770	99
Es	0.576728	0.767740	0.245052	99
Es	1.903727	0.768957	-0.172722	99
Es	-0.083576	-2.076873	0.724376	99
Es	0.181203	2.518860	-0.798522	99
Es	0.170939	1.358892	-0.364040	99
Es	-1.379225	-1.019057	-0.906158	99
Es	-1.244005	-0.478307	-0.984793	99
Es	0.469107	0.779923	0.182808	99
Es	-0.172273	-1.389624	0.367636	99
Es	-0.657454	-2.199250	1.132780	99
45
Properties=species:S:1:pos:R:3:Z:I:1 energy=-739.2965939143933 field_type=dipole dipole="0.000000 0.000000 0.000000" charge=0
C	-0.083566	-2.076990	0.724428	6
C	-0.329396	-0.783970	-0.015992	6
O	-1.226936	-0.748930	-0.866772	8
S	0.576764	0.767870	0.245008	16
C	-0.166016	1.906600	-0.891392	6
O	0.265544	1.177560	1.601718	8
O	1.939694	0.498690	-0.173212	8
H	0.811394	-1.976150	1.343588	1
H	0.072944	-2.884760	0.005618	1
H	-0.940506	-2.295840	1.365588	1
H	-0.034806	1.531920	-1.908171	1
H	0.339204	2.868920	-0.783491	1
H	-1.224316	2.015080	-0.646922	1
Es	0.605909	0.825394	0.154701	99
Es	1.445437	0.582624	0.031556	99
Es	-1.245795	-0.479584	-0.985686	99
Es	-0.165937	1.906496	-0.891278	99
Es	0.488562	0.827318	0.300022	99
Es	0.536840	0.664326	0.207920	99
Es	-0.329353	-0.783859	-0.016004	99
Es	0.181225	2.518895	-0.798518	99
Es	0.433925	0.995380	1.122272	99
Es	2.058805	0.366885	0.054505	99
Es	0.676207	0.753975	0.317845	99
Es	1.784971	0.381162	-0.431847	99
Es	-0.083576	-2.076873	0.724376	99
Es	-0.034992	1.108651	1.488587	99
Es	0.576144	0.768239	0.244500	99
Es	-1.062932	-0.674323	-0.376315	99
Es	0.331728	1.384547	1.453971	99
Es	0.170980	1.359003	-0.364064	99
Es	1.939497	0.498737	-0.173166	99
Es	-1.226685	-0.748956	-0.866529	99
Es	-0.172251	-1.389856	0.367718	99
Es	-0.657615	-2.199123	1.132924	99
Es	1.902389	0.765611	-0.183293	99
Es	0.265597	1.177474	1.601443	99
Es	0.447658	1.045867	1.781058	99
Es	-1.377936	-1.019616	-0.904573	99
Es	-0.722796	-0.812515	-0.741125	99
Es	-0.069025	1.648581	-1.551142	99
Es	0.093566	-0.081078	0.113171	99
Es	-0.856657	1.968468	-0.716342	99
Es	0.012715	-2.590597	0.234792	99
Es	0.515921	-2.005402	1.139430	99
45
Properties=species:S:1:pos:R:3:Z:I:1 energy=-739.2965939143933 field_type=dipole dipole="0.000000 0.000000 0.000000" charge=0
C	-0.083566	-2.076990	0.724428	6
C	-0.329396	-0.783970	-0.015992	6
O	-1.226936	-0.748930	-0.866772	8
S	0.576764	0.767870	0.245008	16
C	-0.166016	1.906600	-0.891392	6
O	0.265544	1.177560	1.601718	8
O	1.939694	0.498690	-0.173212	8
H	0.811394	-1.976150	1.343588	1
H	0.072944	-2.884760	0.005618	1
H	-0.940506	-2.295840	1.365588	1
H	-0.034806	1.531920	-1.908171	1
H	0.339204	2.868920	-0.783491	1
H	-1.224316	2.015080	-0.646922	1
Es	-0.657493	-2.199233	1.132856	99
Es	-0.856484	1.968476	-0.716370	99
Es	-0.069127	1.648577	-1.551210	99
Es	1.787299	0.390078	-0.435077	99
Es	-0.172352	-1.389681	0.367688	99
Es	-0.329356	-0.783859	-0.016002	99
Es	-0.083576	-2.076870	0.724376	99
Es	0.093532	-0.081071	0.113143	99
Es	0.515903	-2.005464	1.139492	99
Es	-1.226716	-0.748945	-0.866568	99
Es	-0.723133	-0.812605	-0.739686	99
Es	1.939410	0.498756	-0.173129	99
Es	-1.063014	-0.673117	-0.377196	99
Es	0.419137	0.982199	1.121699	99
Es	0.639119	0.770165	0.352023	99
Es	0.181281	2.518998	-0.798433	99
Es	-0.165938	1.906496	-0.891279	99
Es	0.265583	1.177483	1.601462	99
Es	-1.376090	-1.021151	-0.901797	99
Es	0.453100	0.744631	0.255962	99
Es	0.586457	0.860606	0.204297	99
Es	0.338477	1.377683	1.441528	99
Es	1.898977	0.770655	-0.175713	99
Es	-0.036505	1.121542	1.505424	99
Es	0.576800	0.768032	0.244780	99
Es	0.457296	1.052989	1.777224	99
Es	0.012693	-2.590617	0.234870	99
Es	0.628231	0.695878	0.167921	99
Es	2.060571	0.362733	0.050184	99
Es	0.170823	1.358927	-0.364034	99
Es	1.444791	0.572741	0.031449	99
Es	-1.247173	-0.479180	-0.988976	99
45
Properties=species:S:1:pos:R:3:Z:I:1 energy=-739.2965939143933 field_type=dipole dipole="0.000000 0.000000 0.000000" charge=0
C	-0.083566	-2.076990	0.724428	6
C	-0.329396	-0.783970	-0.015992	6
O	-1.226936	-0.748930	-0.866772	8
S	0.576764	0.767870	0.245008	16
C	-0.166016	1.906600	-0.891392	6
O	0.265544	1.177560	1.601718	8
O	1.939694	0.498690	-0.173212	8
H	0.811394	-1.976150	1.343588	1
H	0.072944	-2.884760	0.005618	1
H	-0.940506	-2.295840	1.365588	1
H	-0.034806	1.531920	-1.908171	1
H	0.339204	2.868920	-0.783491	1
H	-1.224316	2.015080	-0.646922	1
Es	0.633317	0.765457	0.355874	99
Es	0.432571	1.100999	1.097102	99
Es	-1.226665	-0.748887	-0.866541	99
Es	2.082762	0.374382	0.046925	99
Es	0.515726	-2.006286	1.139613	99
Es	0.476912	0.836765	0.242583	99
Es	0.462071	1.336406	1.714561	99
Es	-1.258881	-0.473486	-1.001447	99
Es	0.265597	1.177464	1.601433	99
Es	0.316924	0.907681	1.554194	99
Es	0.012770	-2.590284	0.236158	99
Es	-0.657244	-2.200057	1.132651	99
Es	0.575615	0.766575	0.246736	99
Es	-0.033167	1.189316	1.480087	99
Es	-0.329359	-0.783861	-0.015998	99
Es	-1.363431	-1.020135	-0.890810	99
Es	-1.062754	-0.676728	-0.376677	99
Es	0.093361	-0.081335	0.112971	99
Es	0.171852	1.358071	-0.362649	99
Es	1.785177	0.397711	-0.438512	99
Es	-0.172216	-1.388744	0.366972	99
Es	-0.165938	1.906496	-0.891279	99
Es	-0.856318	1.969522	-0.716872	99
Es	1.446628	0.566472	0.034882	99
Es	0.179930	2.517632	-0.799145	99
Es	1.939423	0.498739	-0.173138	99
Es	0.546086	0.674872	0.224758	99
Es	0.651755	0.795580	0.155009	99
Es	-0.069126	1.649727	-1.551459	99
Es	-0.724309	-0.815133	-0.738933	99
Es	-0.083576	-2.076872	0.724375	99
Es	1.877031	0.757793	-0.172517	99
45
Properties=species:S:1:pos:R:3:Z:I:1 energy=-739.2965939143933 field_type=dipole dipole="0.000000 0.000000 0.000000" charge=0
C	-0.083566	-2.076990	0.724428	6
C	-0.329396	-0.783970	-0.015992	6
O	-1.226936	-0.748930	-0.866772	8
S	0.576764	0.767870	0.245008	16
C	-0.166016	1.906600	-0.891392	6
O	0.265544	1.177560	1.601718	8
O	1.939694	0.498690	-0.173212	8
H	0.811394	-1.976150	1.343588	1
H	0.072944	-2.884760	0.005618	1
H	-0.940506	-2.295840	1.365588	1
H	-0.034806	1.531920	-1.908171	1
H	0.339204	2.868920	-0.783491	1
H	-1.224316	2.015080	-0.646922	1
Es	-1.362281	-1.020737	-0.889942	99
Es	0.576766	0.767864	0.245030	99
Es	0.093421	-0.081351	0.112903	99
Es	-1.226650	-0.748824	-0.866549	99
Es	-0.172140	-1.388645	0.366801	99
Es	0.591697	0.714944	0.352907	99
Es	-1.258819	-0.475024	-1.003521	99
Es	-0.724291	-0.814881	-0.737611	99
Es	0.459095	1.334739	1.720463	99
Es	-0.032623	1.192480	1.470057	99
Es	1.443886	0.562538	0.032484	99
Es	-0.856360	1.969564	-0.716754	99
Es	-0.083576	-2.076873	0.724376	99
Es	0.179841	2.517494	-0.799232	99
Es	0.012650	-2.590369	0.236257	99
Es	0.518179	0.860485	0.260365	99
Es	2.083280	0.371170	0.045466	99
Es	0.515738	-2.006383	1.139725	99
Es	1.873285	0.753642	-0.162732	99
Es	0.439935	1.099264	1.101516	99
Es	1.791185	0.409020	-0.444430	99
Es	0.514588	0.696389	0.168760	99
Es	0.265629	1.177478	1.601341	99
Es	-0.657077	-2.199999	1.132536	99
Es	0.311909	0.907896	1.554003	99
Es	-0.165937	1.906495	-0.891279	99
Es	0.682485	0.799587	0.197886	99
Es	-0.329357	-0.783858	-0.015999	99
Es	0.171979	1.358121	-0.362664	99
Es	-1.064154	-0.674853	-0.376631	99
Es	1.939397	0.498736	-0.173123	99
Es	-0.069152	1.649743	-1.551501	99
45
Properties=species:S:1:pos:R:3:Z:I:1 energy=-739.2965939143933 field_type=dipole dipole="0.000000 0.000000 0.000000" charge=0
C	-0.083566	-2.076990	0.724428	6
C	-0.329396	-0.783970	-0.015992	6
O	-1.226936	-0.748930	-0.866772	8
S	0.576764	0.767870	0.245008	16
C	-0.166016	1.906600	-0.891392	6
O	0.265544	1.177560	1.601718	8
O	1.939694	0.498690	-0.173212	8
H	0.811394	-1.976150	1.343588	1
H	0.072944	-2.884760	0.005618	1
H	-0.940506	-2.295840	1.365588	1
H	-0.034806	1.531920	-1.908171	1
H	0.339204	2.868920	-0.783491	1
H	-1.224316	2.015080	-0.646922	1
Es	-0.657187	-2.200120	1.132749	99
Es	-1.062345	-0.677168	-0.377113	99
Es	0.180120	2.517756	-0.799267	99
Es	-1.364577	-1.020932	-0.891747	99
Es	1.442301	0.565463	0.027237	99
Es	-0.083576	-2.076873	0.724376	99
Es	0.171917	1.358035	-0.362872	99
Es	0.301854	0.914915	1.536826	99
Es	0.449730	1.105381	1.105559	99
Es	0.626873	0.782511	0.137130	99
Es	-0.856596	1.969414	-0.716873	99
Es	-0.030837	1.198150	1.461196	99
Es	1.890198	0.765785	-0.159472	99
Es	0.012626	-2.590173	0.236088	99
Es	0.265644	1.177534	1.601304	99
Es	-0.165935	1.906495	-0.891276	99
Es	-1.259028	-0.473701	-0.999073	99
Es	0.093519	-0.081333	0.112928	99
Es	0.465762	0.813013	0.246305	99
Es	0.649328	0.809933	0.339177	99
Es	0.576277	0.768262	0.245084	99
Es	1.939422	0.498735	-0.173134	99
Es	-0.172171	-1.388777	0.366859	99
Es	1.792712	0.410673	-0.443358	99
Es	-0.069113	1.649719	-1.551132	99
Es	2.066395	0.354434	0.046373	99
Es	-1.226669	-0.748876	-0.866550	99
Es	0.515910	-2.006314	1.139478	99
Es	-0.329359	-0.783861	-0.016005	99
Es	-0.723667	-0.813700	-0.739636	99
Es	0.457561	1.315912	1.742486	99
Es	0.565436	0.665557	0.257260	99
45
Properties=species:S:1:pos:R:3:Z:I:1 energy=-739.2965939143933 field_type=dipole dipole="0.000000 0.000000 0.000000" charge=0
C	-0.083566	-2.076990	0.724428	6
C	-0.329396	-0.783970	-0.015992	6
O	-1.226936	-0.748930	-0.866772	8
S	0.576764	0.767870	0.245008	16
C	-0.166016	1.906600	-0.891392	6
O	0.265544	1.177560	1.601718	8
O	1.939694	0.498690	-0.173212	8
H	0.811394	-1.976150	1.343588	1
H	0.072944	-2.884760	0.005618	1
H	-0.940506	-2.295840	1.365588	1
H	-0.034806	1.531920	-1.908171	1
H	0.339204	2.868920	-0.783491	1
H	-1.224316	2.015080	-0.646922	1
Es	-0.722627	-0.813109	-0.739594	99
Es	2.067794	0.368548	0.047993	99
Es	-1.379392	-1.018946	-0.906418	99
Es	-0.329367	-0.783855	-0.015991	99
Es	-0.856543	1.968493	-0.716437	99
Es	-0.172128	-1.389584	0.367607	99
Es	1.447902	0.573225	0.036680	99
Es	-0.036689	1.113659	1.496309	99
Es	-1.226693	-0.748957	-0.866531	99
Es	0.476285	0.787630	0.173365	99
Es	-0.083575	-2.076872	0.724376	99
Es	-0.657642	-2.199394	1.132794	99
Es	1.894499	0.768609	-0.181199	99
Es	0.012810	-2.590445	0.234966	99
Es	0.670886	0.739249	0.180537	99
Es	-1.243541	-0.479648	-0.984766	99
Es	0.557057	0.682607	0.312717	99
Es	0.455121	1.064685	1.784953	99
Es	0.603255	0.861361	0.312997	99
Es	-1.064017	-0.674243	-0.376759	99
Es	0.330502	1.371502	1.439608	99
Es	0.093602	-0.081099	0.113019	99
Es	0.429439	0.984573	1.124937	99
Es	0.576231	0.768465	0.245347	99
Es	-0.165938	1.906497	-0.891279	99
Es	1.781514	0.385838	-0.432672	99
Es	0.181108	2.518911	-0.798530	99
Es	0.515820	-2.005638	1.139539	99
Es	-0.069101	1.648750	-1.551161	99
Es	1.939372	0.498790	-0.173111	99
Es	0.265567	1.177454	1.601525	99
Es	0.171015	1.358797	-0.363918	99
45
Properties=species:S:1:pos:R:3:Z:I:1 energy=-739.2965939143933 field_type=dipole dipole="0.000000 0.000000 0.000000" charge=0
C	-0.083566	-2.076990	0.724428	6
C	-0.329396	-0.783970	-0.015992	6
O	-1.226936	-0.748930	-0.866772	8
S	0.576764	0.767870	0.245008	16
C	-0.166016	1.906600	-0.891392	6
O	0.265544	1.177560	1.601718	8
O	1.939694	0.498690	-0.173212	8
H	0.811394	-1.976150	1.343588	1
H	0.072944	-2.884760	0.005618	1
H	-0.940506	-2.295840	1.365588	1
H	-0.034806	1.531920	-1.908171	1
H	0.339204	2.868920	-0.783491	1
H	-1.224316	2.015080	-0.646922	1
Es	-0.329358	-0.783857	-0.015998	99
Es	-0.165939	1.906498	-0.891279	99
Es	-0.083576	-2.076874	0.724377	99
Es	1.939368	0.498732	-0.173114	99
Es	0.181118	2.518805	-0.798450	99
Es	-1.239507	-0.478494	-0.981499	99
Es	0.425620	0.990525	1.120761	99
Es	0.456423	1.050875	1.776418	99
Es	0.576774	0.767867	0.244999	99
Es	-0.856531	1.968543	-0.716342	99
Es	0.665127	0.762069	0.334742	99
Es	1.448548	0.570080	0.037065	99
Es	0.581778	0.857579	0.208640	99
Es	-0.036110	1.111204	1.500663	99
Es	0.460860	0.756278	0.286194	99
Es	-0.069120	1.648814	-1.551269	99
Es	0.599152	0.695510	0.150381	99
Es	-0.723355	-0.814600	-0.739030	99
Es	-1.382494	-1.016675	-0.910849	99
Es	2.071357	0.370175	0.047271	99
Es	-1.226709	-0.748926	-0.866565	99
Es	0.515760	-2.005477	1.139734	99
Es	-1.064188	-0.676263	-0.376167	99
Es	0.012657	-2.590880	0.234819	99
Es	0.171011	1.358801	-0.363995	99
Es	0.332414	1.381862	1.448062	99
Es	-0.172173	-1.389638	0.367606	99
Es	1.782223	0.388554	-0.435054	99
Es	-0.657282	-2.199048	1.132651	99
Es	0.093497	-0.081071	0.113115	99
Es	0.265615	1.177446	1.601423	99
Es	1.889567	0.767439	-0.178402	99
45
Properties=species:S:1:pos:R:3:Z:I:1 energy=-739.2965939143933 field_type=dipole dipole="0.000000 0.000000 0.000000" charge=0
C	-0.083566	-2.076990	0.724428	6
C	-0.329396	-0.783970	-0.015992	6
O	-1.226936	-0.748930	-0.866772	8
S	0.576764	0.767870	0.245008	16
C	-0.166016	1.906600	-0.891392	6
O	0.265544	1.177560	1.601718	8
O	1.939694	0.498690	-0.173212	8
H	0.811394	-1.976150	1.343588	1
H	0.072944	-2.884760	0.005618	1
H	-0.940506	-2.295840	1.365588	1
H	-0.034806	1.531920	-1.908171	1
H	0.339204	2.868920	-0.783491	1
H	-1.224316	2.015080	-0.646922	1
Es	-0.329355	-0.783858	-0.016000	99
Es	1.878061	0.764775	-0.176066	99
Es	-0.083576	-2.076873	0.724376	99
Es	0.589704	0.839211	0.181778	99
Es	0.448702	1.054120	1.784542	99
Es	-1.380155	-1.018348	-0.907466	99
Es	0.170860	1.358790	-0.363978	99
Es	-1.226699	-0.748947	-0.866545	99
Es	-0.856488	1.968626	-0.716385	99
Es	2.073829	0.382298	0.053392	99
Es	0.181314	2.518912	-0.798546	99
Es	0.515689	-2.005566	1.139376	99
Es	0.453691	0.757074	0.255857	99
Es	0.429553	0.984816	1.125319	99
Es	0.093513	-0.081059	0.113073	99
Es	-0.723726	-0.814174	-0.739212	99
Es	-0.035287	1.115642	1.492044	99
Es	-0.172182	-1.389472	0.367472	99
Es	1.939327	0.498692	-0.173001	99
Es	1.442923	0.561385	0.030184	99
Es	-0.069212	1.648632	-1.551153	99
Es	0.265620	1.177434	1.601398	99
Es	-0.657489	-2.199225	1.133003	99
Es	0.335353	1.379866	1.444025	99
Es	-0.165938	1.906498	-0.891280	99
Es	-1.063213	-0.675579	-0.376559	99
Es	0.625154	0.671985	0.194012	99
Es	0.638936	0.803882	0.346559	99
Es	0.576228	0.767177	0.246773	99
Es	-1.242305	-0.477908	-0.984453	99
Es	0.012772	-2.590804	0.235153	99
Es	1.796924	0.387849	-0.436784	99
45
Properties=species:S:1:pos:R:3:Z:I:1 energy=-739.2965939143933 field_type=dipole dipole="0.000000 0.000000 0.000000" charge=0
C	-0.083566	-2.076990	0.724428	6
C	-0.329396	-0.783970	-0.015992	6
O	-1.226936	-0.748930	-0.866772	8
S	0.576764	0.767870	0.245008	16
C	-0.166016	1.906600	-0.891392	6
O	0.265544	1.177560	1.601718	8
O	1.939694	0.498690	-0.173212	8
H	0.811394	-1.976150	1.343588	1
H	0.072944	-2.884760	0.005618	1
H	-0.940506	-2.295840	1.365588	1
H	-0.034806	1.531920	-1.908171	1
H	0.339204	2.868920	-0.783491	1
H	-1.224316	2.015080	-0.646922	1
Es	0.012548	-2.590749	0.235775	99
Es	0.515640	-2.006236	1.139941	99
Es	0.171726	1.358064	-0.362844	99
Es	0.573077	0.814470	0.249515	99
Es	0.503072	0.737536	0.340499	99
Es	1.444789	0.564299	0.031093	99
Es	-0.656624	-2.199772	1.132360	99
Es	0.528195	0.752399	0.126518	99
Es	0.093355	-0.081260	0.113092	99
Es	-0.083577	-2.076873	0.724375	99
Es	0.265606	1.177472	1.601435	99
Es	0.438943	1.092884	1.101284	99
Es	0.463402	1.333258	1.720403	99
Es	1.885476	0.761043	-0.155272	99
Es	-0.165937	1.906496	-0.891278	99
Es	-1.257928	-0.473062	-0.999743	99
Es	0.576162	0.779502	0.245167	99
Es	-0.856357	1.969426	-0.716832	99
Es	-0.031550	1.196840	1.469799	99
Es	-0.172318	-1.388652	0.367053	99
Es	1.939396	0.498750	-0.173118	99
Es	-0.329363	-0.783856	-0.015995	99
Es	-1.062764	-0.677226	-0.377412	99
Es	-0.069184	1.649615	-1.551348	99
Es	0.307571	0.911485	1.554452	99
Es	-0.723851	-0.814742	-0.738649	99
Es	2.071987	0.353832	0.042315	99
Es	1.789354	0.417111	-0.447289	99
Es	-1.364901	-1.020463	-0.891893	99
Es	0.180107	2.517814	-0.799144	99
Es	-1.226728	-0.748919	-0.866590	99
Es	0.703204	0.755363	0.263237	99
45
Properties=species:S:1:pos:R:3:Z:I:1 energy=-739.2965939143933 field_type=dipole dipole="0.000000 0.000000 0.000000" charge=0
C	-0.083566	-2.076990	0.724428	6
C	-0.329396	-0.783970	-0.015992	6
O	-1.226936	-0.748930	-0.866772	8
S	0.576764	0.767870	0.245008	16
C	-0.166016	1.906600	-0.891392	6
O	0.265544	1.177560	1.601718	8
O	1.939694	0.498690	-0.173212	8
H	0.811394	-1.976150	1.343588	1
H	0.072944	-2.884760	0.005618	1
H	-0.940506	-2.295840	1.365588	1
H	-0.034806	1.531920	-1.908171	1
H	0.339204	2.868920	-0.783491	1
H	-1.224316	2.015080	-0.646922	1
Es	-0.083578	-2.076872	0.724373	99
Es	1.469034	0.677516	0.013454	99
Es	0.507690	0.858403	0.225443	99
Es	0.171876	1.358233	-0.362575	99
Es	0.265599	1.177515	1.601508	99
Es	2.134397	0.641340	-0.035725	99
Es	1.790274	0.468782	-0.460777	99
Es	0.179703	2.517362	-0.799059	99
Es	0.438066	1.020387	1.779317	99
Es	1.798068	0.308524	-0.046023	99
Es	-0.069041	1.649730	-1.551779	99
Es	-1.062910	-0.677184	-0.376325	99
Es	0.576778	0.767890	0.245046	99
Es	-1.364941	-1.020127	-0.892877	99
Es	-0.856246	1.969594	-0.716722	99
Es	-0.165937	1.906496	-0.891279	99
Es	-0.724116	-0.814582	-0.739417	99
Es	0.688064	0.805370	0.287351	99
Es	0.093245	-0.081269	0.113254	99
Es	0.360104	1.378186	1.456033	99
Es	0.584275	0.699989	0.144356	99
Es	-0.034896	1.147790	1.493102	99
Es	0.415053	0.988145	1.117275	99
Es	-0.329356	-0.783856	-0.015998	99
Es	0.012462	-2.590873	0.235473	99
Es	-1.226755	-0.748926	-0.866592	99
Es	-1.257358	-0.473638	-0.999220	99
Es	-0.172464	-1.388754	0.367353	99
Es	0.515654	-2.006147	1.140233	99
Es	1.939343	0.498780	-0.173127	99
Es	0.526885	0.707614	0.322738	99
Es	-0.656446	-2.199562	1.132096	99
45
Properties=species:S:1:pos:R:3:Z:I:1 energy=-739.2965939143933 field_type=dipole dipole="0.000000 0.000000 0.000000" charge=0
C	-0.083566	-2.076990	0.724428	6
C	-0.329396	-0.783970	-0.015992	6
O	-1.226936	-0.748930	-0.866772	8
S	0.576764	0.767870	0.245008	16
C	-0.166016	1.906600	-0.891392	6
O	0.265544	1.177560	1.601718	8