43
Properties=species:S:1:pos:R:3:Z:I:1 energy=-661.4690237910766 field_type=dipole dipole="0.000000 0.000000 0.000000" charge=0
N	-2.038791	-0.532412	0.118158	7
C	-0.684101	-0.586942	0.081778	6
C	0.194779	0.473328	-0.028122	6
N	-0.195391	1.769048	-0.070712	7
C	1.551419	0.062328	-0.084422	6
C	1.672679	-1.307212	0.007568	6
S	0.151509	-2.078432	0.156368	16
H	-2.474831	0.262738	-0.339422	1
H	-2.532581	-1.401522	-0.058042	1
H	0.484899	2.504728	0.093228	1
H	-1.109871	2.003148	0.306048	1
H	2.400309	0.725818	-0.180092	1
H	2.579969	-1.894612	-0.002332	1
Es	0.217514	2.189015	0.058243	99
Es	0.151507	-2.078456	0.156549	99
Es	-0.730271	1.893721	0.185363	99
Es	-2.038515	-0.532511	0.117541	99
Es	2.116919	0.520871	-0.148406	99
Es	0.947861	-1.705591	0.077773	99
Es	-0.195273	1.768854	-0.070047	99
Es	-2.034799	-0.474147	0.410149	99
Es	0.241570	-2.136600	0.097460	99
Es	0.194736	0.473475	-0.028169	99
Es	0.089775	-2.015114	0.082884	99
Es	1.608572	-0.608529	0.275675	99
Es	-2.315746	-1.049609	-0.012977	99
Es	-0.019637	1.218720	0.014779	99
Es	-0.188883	-0.109031	-0.291200	99
Es	0.884422	0.315626	-0.059664	99
Es	-0.239038	1.746984	-0.355061	99
Es	-2.276645	-0.069424	-0.182385	99
Es	1.574253	-0.652405	-0.350076	99
Es	-0.684208	-0.587120	0.081807	99
Es	0.078800	-2.154583	0.212066	99
Es	1.672544	-1.307357	0.007591	99
Es	-0.320227	-1.314111	0.120156	99
Es	-0.158692	-0.071079	0.342176	99
Es	0.079739	-2.281797	-0.257987	99
Es	0.196833	-2.005247	0.232636	99
Es	1.551421	0.062360	-0.084418	99
Es	0.135430	-2.201006	0.599953	99
Es	2.271577	-1.709415	0.003368	99
Es	-1.451817	-0.571837	0.041566	99
43
Properties=species:S:1:pos:R:3:Z:I:1 energy=-661.4690237910766 field_type=dipole dipole="0.000000 0.000000 0.000000" charge=0
N	-2.038791	-0.532412	0.118158	7
C	-0.684101	-0.586942	0.081778	6
C	0.194779	0.473328	-0.028122	6
N	-0.195391	1.769048	-0.070712	7
C	1.551419	0.062328	-0.084422	6
C	1.672679	-1.307212	0.007568	6
S	0.151509	-2.078432	0.156368	16
H	-2.474831	0.262738	-0.339422	1
H	-2.532581	-1.401522	-0.058042	1
H	0.484899	2.504728	0.093228	1
H	-1.109871	2.003148	0.306048	1
H	2.400309	0.725818	-0.180092	1
H	2.579969	-1.894612	-0.002332	1
Es	1.672544	-1.307361	0.007607	99
Es	0.230359	-1.932210	0.352616	99
Es	-2.283364	-0.060390	-0.171247	99
Es	-0.018962	1.212559	0.006079	99
Es	1.551420	0.062365	-0.084431	99
Es	-0.157931	-0.072990	0.341140	99
Es	0.220085	2.199993	0.036258	99
Es	-0.328567	-1.316826	0.103002	99
Es	-0.684216	-0.587127	0.081826	99
Es	0.044452	-2.020406	0.143427	99
Es	-2.038545	-0.532513	0.117528	99
Es	1.606630	-0.608086	0.273465	99
Es	-0.234613	1.738847	-0.314546	99
Es	0.884009	0.313192	-0.066404	99
Es	-0.195255	1.768795	-0.069979	99
Es	2.118406	0.521237	-0.150856	99
Es	0.139360	-2.199524	0.177393	99
Es	2.272421	-1.708512	0.004440	99
Es	0.193025	-2.039156	0.237527	99
Es	0.194739	0.473481	-0.028161	99
Es	-1.446073	-0.570059	0.051788	99
Es	0.229369	-2.053002	0.065049	99
Es	-0.009816	-2.541189	0.037862	99
Es	0.151774	-2.078156	0.156022	99
Es	-2.325231	-1.054859	0.006088	99
Es	-0.737951	1.897558	0.174181	99
Es	1.575616	-0.650345	-0.344577	99
Es	0.951979	-1.713642	0.050196	99
Es	-2.024237	-0.479756	0.370666	99
Es	-0.191709	-0.107264	-0.286610	99
43
Properties=species:S:1:pos:R:3:Z:I:1 energy=-661.4690237910766 field_type=dipole dipole="0.000000 0.000000 0.000000" charge=0
N	-2.038791	-0.532412	0.118158	7
C	-0.684101	-0.586942	0.081778	6
C	0.194779	0.473328	-0.028122	6
N	-0.195391	1.769048	-0.070712	7
C	1.551419	0.062328	-0.084422	6
C	1.672679	-1.307212	0.007568	6
S	0.151509	-2.078432	0.156368	16
H	-2.474831	0.262738	-0.339422	1
H	-2.532581	-1.401522	-0.058042	1
H	0.484899	2.504728	0.093228	1
H	-1.109871	2.003148	0.306048	1
H	2.400309	0.725818	-0.180092	1
H	2.579969	-1.894612	-0.002332	1
Es	0.194738	0.473477	-0.028144	99
Es	0.154503	-2.085497	0.122067	99
Es	0.151965	-2.079652	0.142253	99
Es	-0.195317	1.768952	-0.070278	99
Es	0.227832	-1.920137	0.188417	99
Es	-1.445599	-0.569132	0.053376	99
Es	-2.324349	-1.055059	0.002449	99
Es	1.574220	-0.650730	-0.345985	99
Es	-0.019463	1.210425	0.001485	99
Es	2.272182	-1.708481	0.003312	99
Es	0.040348	-2.139296	0.176197	99
Es	-0.739096	1.897599	0.171836	99
Es	0.884407	0.313360	-0.061668	99
Es	-0.160684	-0.071489	0.340186	99
Es	-2.038405	-0.532522	0.117474	99
Es	1.607844	-0.607760	0.272509	99
Es	-0.233089	1.740951	-0.308466	99
Es	-2.283357	-0.059605	-0.169372	99
Es	0.155366	-1.948653	0.150700	99
Es	0.956830	-1.712304	0.070823	99
Es	0.255989	-2.137437	0.188967	99
Es	0.220458	2.199960	0.038056	99
Es	2.118564	0.521698	-0.149285	99
Es	1.672542	-1.307364	0.007590	99
Es	-0.329817	-1.314601	0.117654	99
Es	-0.011491	-2.556804	0.165516	99
Es	1.551420	0.062366	-0.084424	99
Es	-0.188936	-0.109065	-0.288273	99
Es	-2.025669	-0.481418	0.370588	99
Es	-0.684213	-0.587130	0.081786	99
43
Properties=species:S:1:pos:R:3:Z:I:1 energy=-661.4690237910766 field_type=dipole dipole="0.000000 0.000000 0.000000" charge=0
N	-2.038791	-0.532412	0.118158	7
C	-0.684101	-0.586942	0.081778	6
C	0.194779	0.473328	-0.028122	6
N	-0.195391	1.769048	-0.070712	7
C	1.551419	0.062328	-0.084422	6
C	1.672679	-1.307212	0.007568	6
S	0.151509	-2.078432	0.156368	16
H	-2.474831	0.262738	-0.339422	1
H	-2.532581	-1.401522	-0.058042	1
H	0.484899	2.504728	0.093228	1
H	-1.109871	2.003148	0.306048	1
H	2.400309	0.725818	-0.180092	1
H	2.579969	-1.894612	-0.002332	1
Es	0.884439	0.312878	-0.061495	99
Es	-0.195274	1.768867	-0.070065	99
Es	0.194739	0.473479	-0.028143	99
Es	0.203083	-2.172607	0.214342	99
Es	-0.189844	-0.108397	-0.287599	99
Es	0.215455	-1.965712	0.159453	99
Es	1.551422	0.062366	-0.084427	99
Es	-0.230870	1.740412	-0.295793	99
Es	0.154902	-2.102646	0.067660	99
Es	-0.019750	1.208540	-0.002961	99
Es	0.956749	-1.712226	0.072356	99
Es	-0.684213	-0.587129	0.081808	99
Es	-2.022881	-0.483993	0.358665	99
Es	2.118909	0.521825	-0.149098	99
Es	-0.159406	-0.071984	0.339477	99
Es	1.607216	-0.607329	0.271717	99
Es	0.151581	-2.078317	0.156438	99
Es	-0.011092	-2.556631	0.175390	99
Es	-0.741277	1.898287	0.167608	99
Es	2.272361	-1.708293	0.003225	99
Es	0.226486	-1.922570	0.178190	99
Es	-2.326294	-1.056094	0.006712	99
Es	1.574177	-0.650281	-0.345211	99
Es	-2.285160	-0.056907	-0.164719	99
Es	0.033143	-2.070127	0.178883	99
Es	-0.329190	-1.314509	0.119710	99
Es	1.672541	-1.307364	0.007592	99
Es	0.220744	2.201940	0.033861	99
Es	-2.038534	-0.532522	0.117503	99
Es	-1.444441	-0.568300	0.056270	99
43
Properties=species:S:1:pos:R:3:Z:I:1 energy=-661.4690237910766 field_type=dipole dipole="0.000000 0.000000 0.000000" charge=0
N	-2.038791	-0.532412	0.118158	7
C	-0.684101	-0.586942	0.081778	6
C	0.194779	0.473328	-0.028122	6
N	-0.195391	1.769048	-0.070712	7
C	1.551419	0.062328	-0.084422	6
C	1.672679	-1.307212	0.007568	6
S	0.151509	-2.078432	0.156368	16
H	-2.474831	0.262738	-0.339422	1
H	-2.532581	-1.401522	-0.058042	1
H	0.484899	2.504728	0.093228	1
H	-1.109871	2.003148	0.306048	1
H	2.400309	0.725818	-0.180092	1
H	2.579969	-1.894612	-0.002332	1
Es	-2.285675	-0.055688	-0.162781	99
Es	1.672542	-1.307366	0.007592	99
Es	0.215464	-1.962606	0.147678	99
Es	0.956475	-1.712071	0.073055	99
Es	-0.160063	-0.071536	0.339184	99
Es	1.607443	-0.607265	0.271474	99
Es	-0.328940	-1.314650	0.119423	99
Es	-0.195226	1.768634	-0.069872	99
Es	-0.742657	1.898725	0.164589	99
Es	-2.022061	-0.485189	0.351491	99
Es	1.573859	-0.650119	-0.344863	99
Es	0.161474	-2.113574	0.073953	99
Es	-0.229349	1.739847	-0.285844	99
Es	0.884370	0.312539	-0.061568	99
Es	0.031139	-2.072588	0.170116	99
Es	2.272247	-1.708256	0.003096	99
Es	-2.038437	-0.532529	0.117421	99
Es	0.151541	-2.078358	0.156403	99
Es	-2.327531	-1.056442	0.009419	99
Es	2.119021	0.521933	-0.149296	99
Es	-0.011158	-2.557081	0.173817	99
Es	0.198802	-2.161905	0.226767	99
Es	1.551420	0.062365	-0.084426	99
Es	-0.684216	-0.587130	0.081825	99
Es	-1.443460	-0.567921	0.059023	99
Es	-0.188711	-0.108541	-0.287337	99
Es	0.225834	-1.923036	0.181407	99
Es	0.194740	0.473482	-0.028136	99
Es	-0.019809	1.207360	-0.005991	99
Es	0.220644	2.203620	0.029730	99
43
Properties=species:S:1:pos:R:3:Z:I:1 energy=-661.4690237910766 field_type=dipole dipole="0.000000 0.000000 0.000000" charge=0
N	-2.038791	-0.532412	0.118158	7
C	-0.684101	-0.586942	0.081778	6
C	0.194779	0.473328	-0.028122	6
N	-0.195391	1.769048	-0.070712	7
C	1.551419	0.062328	-0.084422	6
C	1.672679	-1.307212	0.007568	6
S	0.151509	-2.078432	0.156368	16
H	-2.474831	0.262738	-0.339422	1
H	-2.532581	-1.401522	-0.058042	1
H	0.484899	2.504728	0.093228	1
H	-1.109871	2.003148	0.306048	1
H	2.400309	0.725818	-0.180092	1
H	2.579969	-1.894612	-0.002332	1
Es	-0.010694	-2.556682	0.184043	99
Es	-2.327458	-1.056640	0.009505	99
Es	-2.286019	-0.055189	-0.161937	99
Es	-2.021631	-0.485716	0.350222	99
Es	0.151960	-2.077992	0.158068	99
Es	0.884505	0.312425	-0.061004	99
Es	-0.189459	-0.108156	-0.287404	99
Es	1.573589	-0.649999	-0.345161	99
Es	1.607387	-0.607078	0.271235	99
Es	-0.019995	1.207146	-0.006103	99
Es	-0.328829	-1.314576	0.120737	99
Es	0.151793	-2.078020	0.158000	99
Es	-1.443519	-0.567787	0.059191	99
Es	2.119068	0.522085	-0.148884	99
Es	-0.742652	1.898891	0.164054	99
Es	-0.195249	1.768744	-0.069945	99
Es	0.956735	-1.711795	0.076656	99
Es	1.551421	0.062367	-0.084428	99
Es	-0.684219	-0.587135	0.081801	99
Es	-2.038505	-0.532528	0.117464	99
Es	0.231609	-2.171775	0.150088	99
Es	0.216622	-1.929602	0.178300	99
Es	2.272249	-1.708150	0.003276	99
Es	0.220706	2.203546	0.030276	99
Es	0.194740	0.473482	-0.028137	99
Es	0.028316	-2.109116	0.174781	99
Es	-0.229104	1.739906	-0.285670	99
Es	0.202288	-1.946697	0.121605	99
Es	-0.158477	-0.071938	0.339126	99
Es	1.672543	-1.307366	0.007591	99
43
Properties=species:S:1:pos:R:3:Z:I:1 energy=-661.4690237910766 field_type=dipole dipole="0.000000 0.000000 0.000000" charge=0
N	-2.038791	-0.532412	0.118158	7
C	-0.684101	-0.586942	0.081778	6
C	0.194779	0.473328	-0.028122	6
N	-0.195391	1.769048	-0.070712	7
C	1.551419	0.062328	-0.084422	6
C	1.672679	-1.307212	0.007568	6
S	0.151509	-2.078432	0.156368	16
H	-2.474831	0.262738	-0.339422	1
H	-2.532581	-1.401522	-0.058042	1
H	0.484899	2.504728	0.093228	1
H	-1.109871	2.003148	0.306048	1
H	2.400309	0.725818	-0.180092	1
H	2.579969	-1.894612	-0.002332	1
Es	0.884440	0.312202	-0.060547	99
Es	-0.195225	1.768673	-0.069855	99
Es	0.047413	-2.142781	0.187651	99
Es	-0.020073	1.206492	-0.008430	99
Es	-2.328654	-1.057009	0.012388	99
Es	1.551419	0.062364	-0.084433	99
Es	1.573795	-0.649630	-0.344674	99
Es	1.672541	-1.307367	0.007590	99
Es	-1.442613	-0.567046	0.061466	99
Es	0.220721	2.204762	0.026582	99
Es	-0.011142	-2.556852	0.182100	99
Es	-0.188934	-0.108610	-0.287077	99
Es	-0.159551	-0.071795	0.338706	99
Es	0.216072	-2.086565	0.232857	99
Es	-2.038410	-0.532527	0.117441	99
Es	-0.328586	-1.314756	0.119661	99
Es	1.606998	-0.606644	0.270770	99
Es	-2.287694	-0.053088	-0.157185	99
Es	-0.227136	1.738918	-0.276195	99
Es	0.194740	0.473482	-0.028145	99
Es	0.151951	-2.078447	0.156409	99
Es	-0.744535	1.899447	0.160447	99
Es	2.272301	-1.708007	0.002997	99
Es	0.956593	-1.711865	0.076163	99
Es	-0.684215	-0.587130	0.081804	99
Es	0.225003	-1.922699	0.165516	99
Es	2.119214	0.522116	-0.149017	99
Es	0.139665	-1.953494	0.126640	99
Es	0.203391	-2.129309	0.075288	99
Es	-2.019767	-0.488180	0.340429	99
43
Properties=species:S:1:pos:R:3:Z:I:1 energy=-661.4690237910766 field_type=dipole dipole="0.000000 0.000000 0.000000" charge=0
N	-2.038791	-0.532412	0.118158	7
C	-0.684101	-0.586942	0.081778	6
C	0.194779	0.473328	-0.028122	6
N	-0.195391	1.769048	-0.070712	7
C	1.551419	0.062328	-0.084422	6
C	1.672679	-1.307212	0.007568	6
S	0.151509	-2.078432	0.156368	16
H	-2.474831	0.262738	-0.339422	1
H	-2.532581	-1.401522	-0.058042	1
H	0.484899	2.504728	0.093228	1
H	-1.109871	2.003148	0.306048	1
H	2.400309	0.725818	-0.180092	1
H	2.579969	-1.894612	-0.002332	1
Es	0.956553	-1.711659	0.079100	99
Es	-0.195270	1.768872	-0.070042	99
Es	1.672542	-1.307365	0.007597	99
Es	1.551421	0.062366	-0.084427	99
Es	-0.010388	-2.556576	0.192544	99
Es	-0.745013	1.899645	0.159038	99
Es	-0.684217	-0.587132	0.081808	99
Es	0.223902	-1.923967	0.146095	99
Es	2.119415	0.522317	-0.148688	99
Es	-0.160076	-0.071673	0.338456	99
Es	0.174268	-2.004478	0.239381	99
Es	-0.188070	-0.109201	-0.287172	99
Es	1.573242	-0.649231	-0.344584	99
Es	-2.288247	-0.051913	-0.154552	99
Es	0.215982	-2.047356	0.065770	99
Es	2.272287	-1.707844	0.002895	99
Es	-0.020594	1.205312	-0.012155	99
Es	-2.018997	-0.489482	0.336617	99
Es	-2.328989	-1.057295	0.012782	99
Es	0.040247	-2.063008	0.127160	99
Es	0.884631	0.311975	-0.060105	99
Es	0.194739	0.473481	-0.028144	99
Es	-0.226257	1.739483	-0.270336	99
Es	-0.328207	-1.314538	0.122861	99
Es	1.607337	-0.606265	0.270220	99
Es	-2.038314	-0.532532	0.117363	99
Es	0.151557	-2.078378	0.156320	99
Es	-1.442492	-0.566723	0.062270	99
Es	0.175829	-2.197205	0.193187	99
Es	0.220900	2.205024	0.026090	99
43
Properties=species:S:1:pos:R:3:Z:I:1 energy=-661.4690237910766 field_type=dipole dipole="0.000000 0.000000 0.000000" charge=0
N	-2.038791	-0.532412	0.118158	7
C	-0.684101	-0.586942	0.081778	6
C	0.194779	0.473328	-0.028122	6
N	-0.195391	1.769048	-0.070712	7
C	1.551419	0.062328	-0.084422	6
C	1.672679	-1.307212	0.007568	6
S	0.151509	-2.078432	0.156368	16
H	-2.474831	0.262738	-0.339422	1
H	-2.532581	-1.401522	-0.058042	1
H	0.484899	2.504728	0.093228	1
H	-1.109871	2.003148	0.306048	1
H	2.400309	0.725818	-0.180092	1
H	2.579969	-1.894612	-0.002332	1
Es	-0.195219	1.768554	-0.069836	99
Es	-0.159083	-0.072020	0.338801	99
Es	0.194740	0.473481	-0.028138	99
Es	-1.442709	-0.566844	0.061490	99
Es	2.119343	0.522314	-0.148824	99
Es	1.551421	0.062367	-0.084429	99
Es	-0.188861	-0.108608	-0.287218	99
Es	-0.684216	-0.587131	0.081809	99
Es	0.148754	-2.081954	0.101801	99
Es	-2.287612	-0.053057	-0.157029	99
Es	1.573532	-0.649320	-0.344785	99
Es	0.063425	-2.166809	0.185695	99
Es	1.606802	-0.606421	0.270865	99
Es	0.127511	-1.950155	0.171621	99
Es	-0.744252	1.899569	0.159976	99
Es	0.224255	-1.923670	0.151649	99
Es	2.272181	-1.707848	0.002995	99
Es	-0.226956	1.739391	-0.273557	99
Es	-0.020532	1.205698	-0.010000	99
Es	0.220746	2.205106	0.025989	99
Es	1.672543	-1.307362	0.007595	99
Es	-2.328540	-1.057231	0.012117	99
Es	0.267209	-2.113601	0.168971	99
Es	-2.019923	-0.488292	0.340438	99
Es	0.956561	-1.711835	0.077616	99
Es	0.151581	-2.078061	0.154082	99
Es	0.884693	0.312088	-0.060746	99
Es	-0.328354	-1.314604	0.121703	99
Es	-0.011085	-2.556578	0.189229	99
Es	-2.038236	-0.532514	0.117467	99
43
Properties=species:S:1:pos:R:3:Z:I:1 energy=-661.4690237910766 field_type=dipole dipole="0.000000 0.000000 0.000000" charge=0
N	-2.038791	-0.532412	0.118158	7
C	-0.684101	-0.586942	0.081778	6
C	0.194779	0.473328	-0.028122	6
N	-0.195391	1.769048	-0.070712	7
C	1.551419	0.062328	-0.084422	6
C	1.672679	-1.307212	0.007568	6
S	0.151509	-2.078432	0.156368	16
H	-2.474831	0.262738	-0.339422	1
H	-2.532581	-1.401522	-0.058042	1
H	0.484899	2.504728	0.093228	1
H	-1.109871	2.003148	0.306048	1
H	2.400309	0.725818	-0.180092	1
H	2.579969	-1.894612	-0.002332	1
Es	0.224195	-1.923903	0.152217	99
Es	0.172871	-2.206743	0.162859	99
Es	-0.158782	-0.072051	0.338854	99
Es	-2.287631	-0.052734	-0.156401	99
Es	0.151424	-2.075764	0.176884	99
Es	-2.038126	-0.532493	0.117493	99
Es	0.956458	-1.711738	0.077588	99
Es	-0.020453	1.205407	-0.011545	99
Es	1.672540	-1.307366	0.007591	99
Es	2.119263	0.522374	-0.148897	99
Es	-0.010533	-2.556900	0.188837	99
Es	0.247111	-1.990332	0.138294	99
Es	-2.019436	-0.488492	0.339544	99
Es	1.551421	0.062366	-0.084429	99
Es	0.884509	0.312019	-0.060436	99
Es	1.606939	-0.606244	0.270750	99
Es	-0.328253	-1.314566	0.122150	99
Es	1.573514	-0.649324	-0.344886	99
Es	-2.328987	-1.057170	0.012759	99
Es	2.272116	-1.707899	0.002926	99
Es	-0.227081	1.739757	-0.272627	99
Es	-1.442760	-0.567107	0.061072	99
Es	-0.189031	-0.108606	-0.287384	99
Es	-0.684220	-0.587133	0.081812	99
Es	0.151554	-2.078113	0.158990	99
Es	0.034949	-2.039296	0.144724	99
Es	-0.195240	1.768768	-0.069902	99
Es	0.220782	2.205078	0.026183	99
Es	-0.744138	1.899376	0.160467	99
Es	0.194743	0.473483	-0.028141	99
43
Properties=species:S:1:pos:R:3:Z:I:1 energy=-661.4690237910766 field_type=dipole dipole="0.000000 0.000000 0.000000" charge=0
N	-2.038791	-0.532412	0.118158	7
C	-0.684101	-0.586942	0.081778	6
C	0.194779	0.473328	-0.028122	6
N	-0.195391	1.769048	-0.070712	7
C	1.551419	0.062328	-0.084422	6
C	1.672679	-1.307212	0.007568	6
S	0.151509	-2.078432	0.156368	16
H	-2.474831	0.262738	-0.339422	1
H	-2.532581	-1.401522	-0.058042	1
H	0.484899	2.504728	0.093228	1
H	-1.109871	2.003148	0.306048	1
H	2.400309	0.725818	-0.180092	1
H	2.579969	-1.894612	-0.002332	1
Es	0.220590	2.205937	0.023937	99
Es	0.197927	-2.076578	0.235504	99
Es	1.573832	-0.649224	-0.343993	99
Es	-0.158506	-0.072186	0.338282	99
Es	-2.329472	-1.057493	0.014713	99
Es	0.223874	-1.923604	0.157621	99
Es	-0.327964	-1.314723	0.121368	99
Es	1.606443	-0.606181	0.270273	99
Es	-0.745469	1.899782	0.157268	99
Es	0.052881	-2.156598	0.176093	99
Es	-1.441951	-0.566298	0.063755	99
Es	0.884517	0.311692	-0.060549	99
Es	0.225408	-2.124986	0.089627	99
Es	1.551421	0.062365	-0.084434	99
Es	0.956305	-1.711807	0.077006	99
Es	-0.684214	-0.587131	0.081813	99
Es	-2.038316	-0.532540	0.117329	99
Es	-0.011219	-2.556832	0.187369	99
Es	-2.018432	-0.490203	0.331859	99
Es	-2.288815	-0.051415	-0.153268	99
Es	-0.195237	1.768762	-0.069890	99
Es	0.151514	-2.078499	0.156261	99
Es	1.672541	-1.307367	0.007590	99
Es	-0.020580	1.205087	-0.012437	99
Es	0.194740	0.473482	-0.028141	99
Es	-0.225500	1.738857	-0.266302	99
Es	0.131104	-1.953989	0.121313	99
Es	2.119473	0.522385	-0.148825	99
Es	-0.189528	-0.108288	-0.286716	99
Es	2.272352	-1.707753	0.002919	99
43
Properties=species:S:1:pos:R:3:Z:I:1 energy=-661.4690237910766 field_type=dipole dipole="0.000000 0.000000 0.000000" charge=0
N	-2.038791	-0.532412	0.118158	7
C	-0.684101	-0.586942	0.081778	6
C	0.194779	0.473328	-0.028122	6
N	-0.195391	1.769048	-0.070712	7
C	1.551419	0.062328	-0.084422	6
C	1.672679	-1.307212	0.007568	6
S	0.151509	-2.078432	0.156368	16
H	-2.474831	0.262738	-0.339422	1
H	-2.532581	-1.401522	-0.058042	1
H	0.484899	2.504728	0.093228	1
H	-1.109871	2.003148	0.306048	1
H	2.400309	0.725818	-0.180092	1
H	2.579969	-1.894612	-0.002332	1
Es	0.215867	-2.178572	0.178434	99
Es	-0.010914	-2.557005	0.186184	99
Es	-0.745389	1.899985	0.157098	99
Es	-2.329347	-1.057556	0.014645	99
Es	-2.038495	-0.532528	0.117465	99
Es	2.272292	-1.707680	0.003110	99
Es	-0.225472	1.738491	-0.266338	99
Es	-0.684216	-0.587132	0.081810	99
Es	1.606962	-0.606290	0.270230	99
Es	-0.159664	-0.071519	0.338306	99
Es	-2.018312	-0.490019	0.332386	99
Es	0.151544	-2.078415	0.156379	99
Es	1.551421	0.062368	-0.084426	99
Es	0.220511	2.206063	0.023271	99
Es	0.217784	-1.945436	0.135875	99
Es	1.672540	-1.307368	0.007590	99
Es	0.140465	-2.086389	0.088358	99
Es	-2.288589	-0.051377	-0.153811	99
Es	-0.020515	1.205187	-0.011576	99
Es	-0.195241	1.768762	-0.069906	99
Es	2.119406	0.522429	-0.148791	99
Es	-0.328090	-1.314789	0.121077	99
Es	0.037225	-2.086730	0.197673	99
Es	0.194740	0.473482	-0.028142	99
Es	0.884519	0.311672	-0.060639	99
Es	0.219442	-1.938811	0.181595	99
Es	1.572951	-0.649108	-0.344457	99
Es	0.956251	-1.711817	0.077106	99
Es	-0.187779	-0.108789	-0.286946	99
Es	-1.442174	-0.566455	0.063787	99
43
Properties=species:S:1:pos:R:3:Z:I:1 energy=-661.4690237910766 field_type=dipole dipole="0.000000 0.000000 0.000000" charge=0
N	-2.038791	-0.532412	0.118158	7
C	-0.684101	-0.586942	0.081778	6
C	0.194779	0.473328	-0.028122	6
N	-0.195391	1.769048	-0.070712	7
C	1.551419	0.062328	-0.084422	6
C	1.672679	-1.307212	0.007568	6
S	0.151509	-2.078432	0.156368	16
H	-2.474831	0.262738	-0.339422	1
H	-2.532581	-1.401522	-0.058042	1
H	0.484899	2.504728	0.093228	1
H	-1.109871	2.003148	0.306048	1
H	2.400309	0.725818	-0.180092	1
H	2.579969	-1.894612	-0.002332	1
Es	0.884508	0.311607	-0.060920	99
Es	1.606585	-0.606254	0.270522	99
Es	0.151559	-2.078435	0.157032	99
Es	0.194739	0.473480	-0.028144	99
Es	0.260707	-2.131000	0.163287	99
Es	-0.011135	-2.556814	0.189572	99
Es	0.224011	-1.924011	0.152374	99
Es	1.573462	-0.649277	-0.344377	99
Es	-0.327933	-1.314746	0.121281	99
Es	-2.018774	-0.489822	0.334686	99
Es	0.220585	2.205895	0.023937	99
Es	0.148780	-2.081254	0.117098	99
Es	-2.329190	-1.057517	0.013540	99
Es	0.956283	-1.711682	0.078254	99
Es	0.047021	-2.152167	0.183249	99
Es	-0.159074	-0.071756	0.338599	99
Es	-0.188436	-0.108393	-0.286947	99
Es	-2.288353	-0.051648	-0.153980	99
Es	2.272194	-1.707711	0.002951	99
Es	-0.020517	1.205267	-0.011507	99
Es	-0.225970	1.738664	-0.267912	99
Es	-2.038173	-0.532512	0.117430	99
Es	1.672541	-1.307366	0.007596	99
Es	2.119367	0.522555	-0.148758	99
Es	0.150293	-1.947825	0.160171	99
Es	-0.684216	-0.587129	0.081817	99
Es	-0.744916	1.899741	0.158200	99
Es	-1.442356	-0.566518	0.062876	99
Es	-0.195292	1.768914	-0.070154	99
Es	1.551422	0.062366	-0.084426	99
43
Properties=species:S:1:pos:R:3:Z:I:1 energy=-661.4690237910766 field_type=dipole dipole="0.000000 0.000000 0.000000" charge=0
N	-2.038791	-0.532412	0.118158	7
C	-0.684101	-0.586942	0.081778	6
C	0.194779	0.473328	-0.028122	6
N	-0.195391	1.769048	-0.070712	7
C	1.551419	0.062328	-0.084422	6
C	1.672679	-1.307212	0.007568	6
S	0.151509	-2.078432	0.156368	16
H	-2.474831	0.262738	-0.339422	1
H	-2.532581	-1.401522	-0.058042	1
H	0.484899	2.504728	0.093228	1
H	-1.109871	2.003148	0.306048	1
H	2.400309	0.725818	-0.180092	1
H	2.579969	-1.894612	-0.002332	1
Es	-0.010791	-2.556860	0.190678	99
Es	1.672541	-1.307366	0.007590	99
Es	2.119459	0.522458	-0.148835	99
Es	0.223822	-1.924363	0.149465	99
Es	-1.442337	-0.566479	0.062817	99
Es	-0.195248	1.768804	-0.069954	99
Es	0.071141	-1.985049	0.161539	99
Es	-0.745476	1.899899	0.157025	99
Es	0.106404	-2.200112	0.175104	99
Es	-2.037910	-0.532441	0.117711	99
Es	0.194739	0.473482	-0.028143	99
Es	0.956138	-1.711689	0.077060	99
Es	-2.288905	-0.051083	-0.152529	99
Es	0.151578	-2.078447	0.155954	99
Es	-0.020666	1.204705	-0.013841	99
Es	0.165012	-2.078405	0.089012	99
Es	1.606956	-0.606087	0.270231	99
Es	-2.329796	-1.057576	0.015546	99
Es	0.884561	0.311662	-0.060449	99
Es	-0.225240	1.738669	-0.262502	99
Es	1.573045	-0.649039	-0.344457	99
Es	-2.017905	-0.490415	0.331122	99
Es	0.264039	-2.048331	0.201170	99
Es	1.551421	0.062365	-0.084430	99
Es	2.272203	-1.707710	0.002913	99
Es	-0.159548	-0.071786	0.338279	99
Es	-0.327937	-1.314690	0.122734	99
Es	0.220552	2.206455	0.021789	99
Es	-0.187914	-0.108782	-0.287056	99
Es	-0.684218	-0.587133	0.081805	99
43
Properties=species:S:1:pos:R:3:Z:I:1 energy=-661.4690237910766 field_type=dipole dipole="0.000000 0.000000 0.000000" charge=0
N	-2.038791	-0.532412	0.118158	7
C	-0.684101	-0.586942	0.081778	6
C	0.194779	0.473328	-0.028122	6
N	-0.195391	1.769048	-0.070712	7
C	1.551419	0.062328	-0.084422	6
C	1.672679	-1.307212	0.007568	6
S	0.151509	-2.078432	0.156368	16
H	-2.474831	0.262738	-0.339422	1
H	-2.532581	-1.401522	-0.058042	1
H	0.484899	2.504728	0.093228	1
H	-1.109871	2.003148	0.306048	1
H	2.400309	0.725818	-0.180092	1
H	2.579969	-1.894612	-0.002332	1
Es	0.029532	-2.099021	0.176367	99
Es	-2.329641	-1.057699	0.015040	99
Es	0.209875	-1.943518	0.179192	99
Es	-1.442233	-0.566300	0.063345	99
Es	-0.010824	-2.556751	0.190722	99
Es	0.215217	-1.936438	0.129056	99
Es	0.884522	0.311687	-0.059828	99
Es	0.224621	-2.174771	0.179018	99
Es	0.956234	-1.711601	0.078966	99
Es	0.151480	-2.078310	0.156217	99
Es	0.194739	0.473481	-0.028144	99
Es	-0.225117	1.738267	-0.263947	99
Es	0.220577	2.206318	0.022132	99
Es	1.607040	-0.606173	0.270110	99
Es	1.572883	-0.649135	-0.344713	99
Es	-0.745578	1.900180	0.156434	99
Es	-2.038508	-0.532531	0.117458	99
Es	2.119429	0.522523	-0.148704	99
Es	-0.327881	-1.314736	0.122873	99
Es	-0.159545	-0.071446	0.338237	99
Es	1.551419	0.062365	-0.084427	99
Es	-0.187412	-0.108871	-0.287265	99
Es	-2.017593	-0.490448	0.331186	99
Es	-0.020700	1.205000	-0.012157	99
Es	-2.288818	-0.050980	-0.152487	99
Es	2.272142	-1.707703	0.002879	99
Es	1.672540	-1.307368	0.007587	99
Es	-0.195240	1.768775	-0.069898	99
Es	0.150778	-2.083011	0.110285	99
Es	-0.684218	-0.587133	0.081812	99
43
Properties=species:S:1:pos:R:3:Z:I:1 energy=-661.4690237910766 field_type=dipole dipole="0.000000 0.000000 0.000000" charge=0
N	-2.038791	-0.532412	0.118158	7
C	-0.684101	-0.586942	0.081778	6
C	0.194779	0.473328	-0.028122	6
N	-0.195391	1.769048	-0.070712	7
C	1.551419	0.062328	-0.084422	6
C	1.672679	-1.307212	0.007568	6
S	0.151509	-2.078432	0.156368	16
H	-2.474831	0.262738	-0.339422	1
H	-2.532581	-1.401522	-0.058042	1
H	0.484899	2.504728	0.093228	1
H	-1.109871	2.003148	0.306048	1
H	2.400309	0.725818	-0.180092	1
H	2.579969	-1.894612	-0.002332	1
Es	0.201845	-1.956286	0.140742	99
Es	-0.020752	1.204375	-0.014833	99
Es	0.194740	0.473482	-0.028142	99
Es	0.956175	-1.711589	0.079155	99
Es	-0.195245	1.768799	-0.069925	99
Es	-1.442055	-0.566284	0.064630	99
Es	0.159515	-2.086217	0.212796	99
Es	1.551421	0.062367	-0.084426	99
Es	-2.329691	-1.057729	0.015381	99
Es	-2.288597	-0.051013	-0.153049	99
Es	0.220488	2.206552	0.022126	99
Es	2.119446	0.522595	-0.148910	99
Es	-0.327788	-1.314732	0.121571	99
Es	0.151573	-2.078278	0.156246	99
Es	-0.224838	1.738876	-0.260978	99
Es	-0.189456	-0.107966	-0.286773	99
Es	-0.684217	-0.587132	0.081807	99
Es	0.217312	-2.173287	0.116669	99
Es	0.884515	0.311504	-0.060651	99
Es	-0.157898	-0.072258	0.338368	99
Es	0.027788	-2.096260	0.152825	99
Es	0.223620	-1.924823	0.148390	99
Es	1.672541	-1.307366	0.007589	99
Es	-2.038456	-0.532536	0.117410	99
Es	-2.018048	-0.490452	0.330133	99
Es	-0.010477	-2.556733	0.194123	99
Es	1.572879	-0.649038	-0.344379	99
Es	1.606877	-0.606226	0.270274	99
Es	-0.745681	1.899966	0.156092	99
Es	2.272185	-1.707654	0.003085	99
43
Properties=species:S:1:pos:R:3:Z:I:1 energy=-661.4690237910766 field_type=dipole dipole="0.000000 0.000000 0.000000" charge=0
N	-2.038791	-0.532412	0.118158	7
C	-0.684101	-0.586942	0.081778	6
C	0.194779	0.473328	-0.028122	6
N	-0.195391	1.769048	-0.070712	7
C	1.551419	0.062328	-0.084422	6
C	1.672679	-1.307212	0.007568	6
S	0.151509	-2.078432	0.156368	16
H	-2.474831	0.262738	-0.339422	1
H	-2.532581	-1.401522	-0.058042	1
H	0.484899	2.504728	0.093228	1
H	-1.109871	2.003148	0.306048	1
H	2.400309	0.725818	-0.180092	1
H	2.579969	-1.894612	-0.002332	1
Es	2.271961	-1.707713	0.002951	99
Es	-2.329800	-1.057644	0.015432	99
Es	1.572992	-0.648959	-0.344575	99
Es	-2.288528	-0.051290	-0.153313	99
Es	0.155109	-2.076947	0.182638	99
Es	-0.158653	-0.072025	0.338378	99
Es	-0.195249	1.768794	-0.069962	99
Es	-0.327833	-1.314710	0.121707	99
Es	0.223725	-1.924413	0.150527	99
Es	-2.017790	-0.490181	0.331246	99
Es	0.071621	-2.182514	0.162948	99
Es	0.151621	-2.077949	0.158620	99
Es	-0.684216	-0.587132	0.081809	99
Es	-0.745518	1.900012	0.156325	99
Es	1.551420	0.062366	-0.084429	99
Es	0.884500	0.311550	-0.060262	99
Es	-0.020736	1.204845	-0.012846	99
Es	-0.011126	-2.556913	0.189537	99
Es	2.119422	0.522570	-0.148840	99
Es	1.607122	-0.605906	0.270402	99
Es	0.271360	-2.096691	0.134113	99
Es	0.108688	-1.956444	0.143748	99
Es	-0.188558	-0.108535	-0.286942	99
Es	-2.038543	-0.532520	0.117525	99
Es	0.220533	2.206413	0.022548	99
Es	-0.225070	1.738519	-0.263522	99
Es	1.672542	-1.307366	0.007591	99
Es	0.956155	-1.711637	0.078532	99
Es	-1.442171	-0.566409	0.063602	99
Es	0.194740	0.473482	-0.028141	99
43
Properties=species:S:1:pos:R:3:Z:I:1 energy=-661.4690237910766 field_type=dipole dipole="0.000000 0.000000 0.000000" charge=0
N	-2.038791	-0.532412	0.118158	7
C	-0.684101	-0.586942	0.081778	6
C	0.194779	0.473328	-0.028122	6
N	-0.195391	1.769048	-0.070712	7
C	1.551419	0.062328	-0.084422	6
C	1.672679	-1.307212	0.007568	6
S	0.151509	-2.078432	0.156368	16
H	-2.474831	0.262738	-0.339422	1
H	-2.532581	-1.401522	-0.058042	1
H	0.484899	2.504728	0.093228	1
H	-1.109871	2.003148	0.306048	1
H	2.400309	0.725818	-0.180092	1
H	2.579969	-1.894612	-0.002332	1
Es	2.119457	0.522586	-0.148732	99
Es	-0.195255	1.768831	-0.069962	99
Es	1.572959	-0.649082	-0.344520	99
Es	0.254551	-2.141536	0.154626	99
Es	1.672540	-1.307367	0.007591	99
Es	1.606879	-0.606014	0.270303	99
Es	0.220448	2.206620	0.022149	99
Es	2.272098	-1.707695	0.002916	99
Es	-0.225157	1.738785	-0.262215	99
Es	-2.288863	-0.050937	-0.152436	99
Es	0.194739	0.473480	-0.028148	99
Es	-2.329690	-1.057729	0.015325	99
Es	0.884577	0.311603	-0.060367	99
Es	-0.158265	-0.072107	0.338401	99
Es	1.551421	0.062367	-0.084428	99
Es	-0.684214	-0.587132	0.081808	99
Es	0.956160	-1.711697	0.077984	99
Es	-0.745368	1.899774	0.156720	99
Es	-0.188858	-0.108276	-0.286921	99
Es	-0.020768	1.204532	-0.014142	99
Es	0.041994	-2.147112	0.166380	99
Es	-0.011325	-2.556965	0.187533	99
Es	-1.442271	-0.566324	0.063339	99
Es	0.151459	-2.078398	0.155660	99
Es	0.223343	-1.924667	0.150397	99
Es	0.152714	-2.073590	0.178798	99
Es	0.158150	-1.949600	0.128591	99
Es	-2.038524	-0.532522	0.117500	99
Es	-2.017475	-0.490519	0.330753	99
Es	-0.327734	-1.314655	0.122444	99
43
Properties=species:S:1:pos:R:3:Z:I:1 energy=-661.4690237910766 field_type=dipole dipole="0.000000 0.000000 0.000000" charge=0
N	-2.038791	-0.532412	0.118158	7
C	-0.684101	-0.586942	0.081778	6
C	0.194779	0.473328	-0.028122	6
N	-0.195391	1.769048	-0.070712	7
C	1.551419	0.062328	-0.084422	6
C	1.672679	-1.307212	0.007568	6
S	0.151509	-2.078432	0.156368	16
H	-2.474831	0.262738	-0.339422	1
H	-2.532581	-1.401522	-0.058042	1
H	0.484899	2.504728	0.093228	1
H	-1.109871	2.003148	0.306048	1
H	2.400309	0.725818	-0.180092	1
H	2.579969	-1.894612	-0.002332	1
Es	0.956115	-1.711714	0.077807	99
Es	0.151462	-2.078512	0.155592	99
Es	-1.441988	-0.566190	0.064883	99
Es	-0.684216	-0.587132	0.081809	99
Es	1.551421	0.062366	-0.084428	99
Es	-2.038422	-0.532539	0.117372	99
Es	-0.020759	1.204538	-0.013983	99
Es	-0.188908	-0.108205	-0.286925	99
Es	2.119406	0.522622	-0.148820	99
Es	1.606436	-0.606064	0.270546	99
Es	1.573226	-0.648983	-0.344479	99
Es	-0.195214	1.768524	-0.069841	99
Es	2.272104	-1.707655	0.002843	99
Es	0.054311	-2.001338	0.153084	99
Es	0.130342	-2.207515	0.165504	99
Es	0.151723	-2.078120	0.162827	99
Es	-0.010758	-2.557123	0.189039	99
Es	0.884549	0.311577	-0.060712	99
Es	-0.327771	-1.314710	0.122280	99
Es	-2.288645	-0.050898	-0.152759	99
Es	0.270038	-2.024907	0.144260	99
Es	-2.329844	-1.057808	0.015887	99
Es	1.672541	-1.307366	0.007590	99
Es	-0.225443	1.739080	-0.262759	99
Es	0.223930	-1.924453	0.152078	99