45
Properties=species:S:1:pos:R:3:Z:I:1 energy=-739.2730979463427 field_type=dipole dipole="0.000000 0.000000 0.000000" charge=0
O	-2.020713	0.238225	-0.799034	8
C	-0.574863	0.158615	-0.742294	6
C	0.110997	1.145905	0.234506	6
C	1.211797	0.130725	0.605316	6
S	0.130157	-1.205015	0.204136	16
O	-0.724523	-1.582865	1.311346	8
O	0.759567	-2.175154	-0.666244	8
H	-2.322503	-0.688055	-0.854124	1
H	-0.152363	0.170765	-1.753344	1
H	-0.522043	1.433005	1.083536	1
H	0.481687	2.065245	-0.229034	1
H	2.092017	0.158745	-0.045044	1
H	1.530787	0.149855	1.650276	1
Es	-2.020500	0.237919	-0.799004	99
Es	0.367306	1.754941	-0.084476	99
Es	-1.461229	0.181143	-0.775489	99
Es	-0.896876	-1.709141	1.100916	99
Es	0.061480	-1.295929	0.192490	99
Es	-0.496951	-1.722281	1.427032	99
Es	0.692218	0.657578	0.443186	99
Es	-0.395950	-1.448599	0.900611	99
Es	-2.103736	0.340030	-0.526842	99
Es	0.858749	-1.912371	-0.807939	99
Es	-0.310416	1.318756	0.800471	99
Es	1.418896	0.136373	1.296637	99
Es	1.777955	0.140756	0.159485	99
Es	-0.319899	-0.538266	-0.345655	99
Es	0.909395	-2.304596	-0.459998	99
Es	-0.753299	-1.281661	1.352147	99
Es	0.537665	-1.842236	-0.308019	99
Es	0.759494	-2.175037	-0.666162	99
Es	0.130742	-1.205205	0.204284	99
Es	0.109599	-1.154385	0.311384	99
Es	0.111046	1.145782	0.234463	99
Es	-0.575065	0.158564	-0.742206	99
Es	0.776040	-0.543697	0.469510	99
Es	-0.724413	-1.582784	1.311210	99
Es	0.111707	-1.125972	0.111696	99
Es	-2.161119	-0.259018	-0.834049	99
Es	-0.265216	0.687184	-0.271979	99
Es	-2.079644	0.375278	-1.062112	99
Es	1.211703	0.130667	0.605279	99
Es	0.237251	-1.243518	0.200881	99
Es	0.472418	-2.243806	-0.731154	99
Es	-0.272801	0.159363	-1.408663	99
45
Properties=species:S:1:pos:R:3:Z:I:1 energy=-739.2730979463427 field_type=dipole dipole="0.000000 0.000000 0.000000" charge=0
O	-2.020713	0.238225	-0.799034	8
C	-0.574863	0.158615	-0.742294	6
C	0.110997	1.145905	0.234506	6
C	1.211797	0.130725	0.605316	6
S	0.130157	-1.205015	0.204136	16
O	-0.724523	-1.582865	1.311346	8
O	0.759567	-2.175154	-0.666244	8
H	-2.322503	-0.688055	-0.854124	1
H	-0.152363	0.170765	-1.753344	1
H	-0.522043	1.433005	1.083536	1
H	0.481687	2.065245	-0.229034	1
H	2.092017	0.158745	-0.045044	1
H	1.530787	0.149855	1.650276	1
Es	1.779878	0.141206	0.158970	99
Es	-0.272681	0.159406	-1.409182	99
Es	0.759449	-2.174967	-0.666086	99
Es	-0.389955	-1.439540	0.901429	99
Es	0.212700	-1.186343	0.279263	99
Es	0.875761	-1.917274	-0.810422	99
Es	-0.311503	1.318545	0.801944	99
Es	-0.575073	0.158562	-0.742206	99
Es	-0.878300	-1.705947	1.092938	99
Es	-0.263893	0.687134	-0.270867	99
Es	-0.503375	-1.729473	1.403819	99
Es	0.895225	-2.281961	-0.442761	99
Es	-0.771641	-1.286772	1.382569	99
Es	0.139550	-1.124789	0.116035	99
Es	0.131015	-1.204089	0.205632	99
Es	0.025049	-1.193172	0.258432	99
Es	1.211699	0.130668	0.605282	99
Es	0.512830	-1.840217	-0.316119	99
Es	0.690802	0.657425	0.443229	99
Es	0.494542	-2.263719	-0.737875	99
Es	-0.319938	-0.538057	-0.345469	99
Es	0.111046	1.145783	0.234463	99
Es	-0.724392	-1.582793	1.311156	99
Es	-2.074567	0.359928	-1.060235	99
Es	0.142465	-1.316680	0.161350	99
Es	1.417542	0.136372	1.294816	99
Es	0.775519	-0.543887	0.470401	99
Es	-2.108891	0.355058	-0.526301	99
Es	-1.461403	0.183071	-0.781278	99
Es	0.368167	1.755013	-0.085663	99
Es	-2.020506	0.237939	-0.799080	99
Es	-2.160571	-0.260599	-0.830251	99
45
Properties=species:S:1:pos:R:3:Z:I:1 energy=-739.2730979463427 field_type=dipole dipole="0.000000 0.000000 0.000000" charge=0
O	-2.020713	0.238225	-0.799034	8
C	-0.574863	0.158615	-0.742294	6
C	0.110997	1.145905	0.234506	6
C	1.211797	0.130725	0.605316	6
S	0.130157	-1.205015	0.204136	16
O	-0.724523	-1.582865	1.311346	8
O	0.759567	-2.175154	-0.666244	8
H	-2.322503	-0.688055	-0.854124	1
H	-0.152363	0.170765	-1.753344	1
H	-0.522043	1.433005	1.083536	1
H	0.481687	2.065245	-0.229034	1
H	2.092017	0.158745	-0.045044	1
H	1.530787	0.149855	1.650276	1
Es	-0.319925	-0.538141	-0.345387	99
Es	-0.575067	0.158563	-0.742204	99
Es	-0.517811	-1.755814	1.389797	99
Es	0.111046	1.145781	0.234462	99
Es	-1.462217	0.182816	-0.783059	99
Es	0.187293	-1.183639	0.095812	99
Es	-0.777936	-1.296829	1.405819	99
Es	-0.382230	-1.429112	0.910693	99
Es	0.884354	-1.923959	-0.817432	99
Es	-0.263141	0.687124	-0.270236	99
Es	1.211700	0.130667	0.605281	99
Es	0.130171	-1.205097	0.204065	99
Es	0.775322	-0.544122	0.470961	99
Es	0.368514	1.755284	-0.086284	99
Es	1.417022	0.136285	1.293416	99
Es	-0.272674	0.159617	-1.409332	99
Es	0.064139	-1.306080	0.202403	99
Es	-2.071642	0.355661	-1.058521	99
Es	0.202081	-1.223221	0.269206	99
Es	-2.161012	-0.261079	-0.830813	99
Es	-2.020611	0.238018	-0.799046	99
Es	0.495926	-1.837348	-0.328609	99
Es	-0.865369	-1.680057	1.074416	99
Es	0.690033	0.657642	0.443696	99
Es	0.759443	-2.174917	-0.666012	99
Es	-2.110296	0.360061	-0.525550	99
Es	0.886304	-2.248105	-0.427371	99
Es	1.780720	0.141309	0.158968	99
Es	0.067113	-1.107064	0.249261	99
Es	-0.724373	-1.582800	1.311143	99
Es	0.511833	-2.293867	-0.733779	99
Es	-0.312158	1.318253	0.802171	99
45
Properties=species:S:1:pos:R:3:Z:I:1 energy=-739.2730979463427 field_type=dipole dipole="0.000000 0.000000 0.000000" charge=0
O	-2.020713	0.238225	-0.799034	8
C	-0.574863	0.158615	-0.742294	6
C	0.110997	1.145905	0.234506	6
C	1.211797	0.130725	0.605316	6
S	0.130157	-1.205015	0.204136	16
O	-0.724523	-1.582865	1.311346	8
O	0.759567	-2.175154	-0.666244	8
H	-2.322503	-0.688055	-0.854124	1
H	-0.152363	0.170765	-1.753344	1
H	-0.522043	1.433005	1.083536	1
H	0.481687	2.065245	-0.229034	1
H	2.092017	0.158745	-0.045044	1
H	1.530787	0.149855	1.650276	1
Es	-0.272327	0.159747	-1.409569	99
Es	0.592138	-2.393799	-0.708179	99
Es	-0.724269	-1.582735	1.311082	99
Es	0.447979	-1.854759	-0.360113	99
Es	0.077207	-1.231633	0.312080	99
Es	-1.461491	0.183223	-0.784392	99
Es	-2.074506	0.358407	-1.057877	99
Es	-0.376441	-1.434819	0.911373	99
Es	0.775472	-0.543510	0.470989	99
Es	-0.312371	1.318419	0.802484	99
Es	1.211702	0.130668	0.605282	99
Es	-2.159882	-0.259997	-0.832345	99
Es	0.869039	-2.138021	-0.414599	99
Es	0.052495	-1.200041	0.130227	99
Es	-0.778708	-1.293261	1.396220	99
Es	0.209535	-1.290977	0.168156	99
Es	-2.109494	0.355964	-0.523318	99
Es	-0.575071	0.158563	-0.742205	99
Es	-2.020517	0.237943	-0.799025	99
Es	0.690185	0.657166	0.443298	99
Es	0.111047	1.145778	0.234462	99
Es	0.368274	1.754903	-0.086335	99
Es	1.416806	0.136055	1.293829	99
Es	0.181290	-1.097552	0.206067	99
Es	0.130282	-1.204885	0.204217	99
Es	-0.862248	-1.676435	1.073732	99
Es	-0.319987	-0.537989	-0.345168	99
Es	0.759410	-2.174955	-0.665980	99
Es	1.780971	0.141087	0.158574	99
Es	0.869358	-1.916616	-0.824359	99
Es	-0.526102	-1.757247	1.399512	99
Es	-0.263224	0.687138	-0.270187	99
45
Properties=species:S:1:pos:R:3:Z:I:1 energy=-739.2730979463427 field_type=dipole dipole="0.000000 0.000000 0.000000" charge=0
O	-2.020713	0.238225	-0.799034	8
C	-0.574863	0.158615	-0.742294	6
C	0.110997	1.145905	0.234506	6
C	1.211797	0.130725	0.605316	6
S	0.130157	-1.205015	0.204136	16
O	-0.724523	-1.582865	1.311346	8
O	0.759567	-2.175154	-0.666244	8
H	-2.322503	-0.688055	-0.854124	1
H	-0.152363	0.170765	-1.753344	1
H	-0.522043	1.433005	1.083536	1
H	0.481687	2.065245	-0.229034	1
H	2.092017	0.158745	-0.045044	1
H	1.530787	0.149855	1.650276	1
Es	0.207837	-1.280735	0.240172	99
Es	0.019033	-1.231223	0.253101	99
Es	-0.373865	-1.428007	0.916954	99
Es	-0.320066	-0.537728	-0.345169	99
Es	0.130347	-1.205133	0.204289	99
Es	0.872275	-1.923110	-0.832077	99
Es	0.759453	-2.174961	-0.666044	99
Es	0.606089	-2.408230	-0.689687	99
Es	0.444545	-1.853421	-0.365102	99
Es	-0.272232	0.159587	-1.409741	99
Es	-0.312289	1.318576	0.802701	99
Es	0.690144	0.656977	0.443081	99
Es	-2.073863	0.357986	-1.058494	99
Es	-2.159775	-0.259684	-0.832361	99
Es	-0.575070	0.158564	-0.742205	99
Es	-0.263302	0.686985	-0.270265	99
Es	-2.020568	0.237969	-0.799051	99
Es	1.781021	0.141136	0.158402	99
Es	0.111049	1.145784	0.234464	99
Es	1.416712	0.136279	1.294061	99
Es	-1.461853	0.182584	-0.784053	99
Es	-0.724328	-1.582789	1.311066	99
Es	-0.526054	-1.758062	1.398836	99
Es	-2.109828	0.356647	-0.522935	99
Es	0.775411	-0.543464	0.471089	99
Es	0.855545	-2.118405	-0.420376	99
Es	0.167092	-1.096399	0.234891	99
Es	-0.848856	-1.677539	1.067179	99
Es	-0.794706	-1.298099	1.397848	99
Es	1.211700	0.130668	0.605281	99
Es	0.126506	-1.211618	0.088304	99
Es	0.368448	1.754697	-0.086225	99
45
Properties=species:S:1:pos:R:3:Z:I:1 energy=-739.2730979463427 field_type=dipole dipole="0.000000 0.000000 0.000000" charge=0
O	-2.020713	0.238225	-0.799034	8
C	-0.574863	0.158615	-0.742294	6
C	0.110997	1.145905	0.234506	6
C	1.211797	0.130725	0.605316	6
S	0.130157	-1.205015	0.204136	16
O	-0.724523	-1.582865	1.311346	8
O	0.759567	-2.175154	-0.666244	8
H	-2.322503	-0.688055	-0.854124	1
H	-0.152363	0.170765	-1.753344	1
H	-0.522043	1.433005	1.083536	1
H	0.481687	2.065245	-0.229034	1
H	2.092017	0.158745	-0.045044	1
H	1.530787	0.149855	1.650276	1
Es	0.759373	-2.174920	-0.666029	99
Es	-0.853175	-1.681683	1.073717	99
Es	0.201576	-1.222050	0.272007	99
Es	0.437980	-1.859726	-0.368228	99
Es	-0.518060	-1.753578	1.388622	99
Es	0.057072	-1.117366	0.252817	99
Es	-0.575070	0.158564	-0.742204	99
Es	-2.020510	0.237927	-0.799054	99
Es	-0.272192	0.159747	-1.409788	99
Es	-0.312389	1.318520	0.802702	99
Es	0.368452	1.754786	-0.086497	99
Es	-0.320049	-0.537803	-0.345073	99
Es	-2.160353	-0.260020	-0.829408	99
Es	0.852361	-2.116394	-0.417419	99
Es	-0.791887	-1.301531	1.407870	99
Es	1.781086	0.141107	0.158344	99
Es	-2.073642	0.356097	-1.059591	99
Es	0.188877	-1.170885	0.098785	99
Es	-2.109559	0.359078	-0.524784	99
Es	-0.380376	-1.424960	0.910655	99
Es	0.873807	-1.916585	-0.825599	99
Es	0.130052	-1.205025	0.204085	99
Es	0.614393	-2.410489	-0.696008	99
Es	0.689969	0.656924	0.443104	99
Es	0.073218	-1.309773	0.193034	99
Es	1.211701	0.130668	0.605282	99
Es	-1.461814	0.182494	-0.784003	99
Es	0.111047	1.145782	0.234464	99
Es	0.775504	-0.543367	0.471120	99
Es	-0.263218	0.686862	-0.270053	99
Es	1.416675	0.136186	1.294022	99
Es	-0.724296	-1.582754	1.311043	99
45
Properties=species:S:1:pos:R:3:Z:I:1 energy=-739.2730979463427 field_type=dipole dipole="0.000000 0.000000 0.000000" charge=0
O	-2.020713	0.238225	-0.799034	8
C	-0.574863	0.158615	-0.742294	6
C	0.110997	1.145905	0.234506	6
C	1.211797	0.130725	0.605316	6
S	0.130157	-1.205015	0.204136	16
O	-0.724523	-1.582865	1.311346	8
O	0.759567	-2.175154	-0.666244	8
H	-2.322503	-0.688055	-0.854124	1
H	-0.152363	0.170765	-1.753344	1
H	-0.522043	1.433005	1.083536	1
H	0.481687	2.065245	-0.229034	1
H	2.092017	0.158745	-0.045044	1
H	1.530787	0.149855	1.650276	1
Es	0.368502	1.754894	-0.086674	99
Es	0.775377	-0.543499	0.471318	99
Es	-0.272188	0.159813	-1.409787	99
Es	-0.262982	0.687023	-0.269831	99
Es	-2.159746	-0.260064	-0.828966	99
Es	1.416530	0.136240	1.293516	99
Es	-0.320005	-0.537848	-0.345030	99
Es	-0.849575	-1.673731	1.073721	99
Es	-0.521400	-1.760989	1.387930	99
Es	-0.575069	0.158563	-0.742206	99
Es	0.441305	-1.857488	-0.362982	99
Es	0.759317	-2.174796	-0.666060	99
Es	0.111046	1.145783	0.234464	99
Es	0.058502	-1.255524	0.291709	99
Es	0.878415	-1.916706	-0.822139	99
Es	-0.312611	1.318356	0.802789	99
Es	0.119845	-1.086958	0.202503	99
Es	-2.020521	0.237965	-0.799076	99
Es	0.849511	-2.122093	-0.421217	99
Es	1.211699	0.130668	0.605282	99
Es	-2.073785	0.352899	-1.057733	99
Es	-0.724342	-1.582784	1.311141	99
Es	-0.380781	-1.425501	0.909664	99
Es	0.130126	-1.205014	0.204112	99
Es	0.241525	-1.232098	0.222216	99
Es	1.781340	0.141203	0.158320	99
Es	-1.461180	0.183745	-0.786430	99
Es	0.100807	-1.245519	0.100214	99
Es	-2.110590	0.361010	-0.524642	99
Es	-0.791717	-1.301544	1.409448	99
Es	0.609377	-2.407045	-0.700869	99
Es	0.689823	0.656870	0.443228	99
45
Properties=species:S:1:pos:R:3:Z:I:1 energy=-739.2730979463427 field_type=dipole dipole="0.000000 0.000000 0.000000" charge=0
O	-2.020713	0.238225	-0.799034	8
C	-0.574863	0.158615	-0.742294	6
C	0.110997	1.145905	0.234506	6
C	1.211797	0.130725	0.605316	6
S	0.130157	-1.205015	0.204136	16
O	-0.724523	-1.582865	1.311346	8
O	0.759567	-2.175154	-0.666244	8
H	-2.322503	-0.688055	-0.854124	1
H	-0.152363	0.170765	-1.753344	1
H	-0.522043	1.433005	1.083536	1
H	0.481687	2.065245	-0.229034	1
H	2.092017	0.158745	-0.045044	1
H	1.530787	0.149855	1.650276	1
Es	-2.072978	0.352446	-1.054314	99
Es	0.759444	-2.174948	-0.666065	99
Es	0.543346	-1.867823	-0.272969	99
Es	0.912364	-1.912826	-0.785886	99
Es	-1.460253	0.183864	-0.787664	99
Es	-0.481480	-1.675888	1.369389	99
Es	1.781498	0.141507	0.158156	99
Es	-0.797383	-1.301397	1.401250	99
Es	-2.160331	-0.259555	-0.832111	99
Es	0.229003	-1.193403	0.128665	99
Es	0.165049	-1.238528	0.300059	99
Es	0.512139	-2.103864	-0.708305	99
Es	-0.575071	0.158564	-0.742205	99
Es	0.689696	0.656881	0.443387	99
Es	1.416329	0.136491	1.293617	99
Es	-0.312441	1.318429	0.802944	99
Es	1.211699	0.130667	0.605281	99
Es	0.111043	1.145783	0.234461	99
Es	-0.724355	-1.582780	1.311081	99
Es	-0.404078	-1.424257	0.889640	99
Es	-0.272093	0.159554	-1.409856	99
Es	0.130074	-1.205194	0.204426	99
Es	-2.111838	0.360712	-0.523719	99
Es	0.810667	-2.418598	-0.540114	99
Es	-0.860454	-1.760197	1.120601	99
Es	-2.020522	0.237945	-0.799034	99
Es	0.775127	-0.543599	0.471307	99
Es	-0.263026	0.686622	-0.270155	99
Es	0.368920	1.754801	-0.086373	99
Es	0.068855	-1.099939	0.221580	99
Es	0.057761	-1.288048	0.165986	99
Es	-0.320160	-0.537590	-0.345126	99
45
Properties=species:S:1:pos:R:3:Z:I:1 energy=-739.2730979463427 field_type=dipole dipole="0.000000 0.000000 0.000000" charge=0
O	-2.020713	0.238225	-0.799034	8
C	-0.574863	0.158615	-0.742294	6
C	0.110997	1.145905	0.234506	6
C	1.211797	0.130725	0.605316	6
S	0.130157	-1.205015	0.204136	16
O	-0.724523	-1.582865	1.311346	8
O	0.759567	-2.175154	-0.666244	8
H	-2.322503	-0.688055	-0.854124	1
H	-0.152363	0.170765	-1.753344	1
H	-0.522043	1.433005	1.083536	1
H	0.481687	2.065245	-0.229034	1
H	2.092017	0.158745	-0.045044	1
H	1.530787	0.149855	1.650276	1
Es	-0.312639	1.318408	0.802985	99
Es	-0.320083	-0.537715	-0.345073	99
Es	0.368607	1.754755	-0.086622	99
Es	1.781377	0.141250	0.158183	99
Es	0.162675	-1.107480	0.259686	99
Es	0.439873	-1.856624	-0.365420	99
Es	0.111048	1.145782	0.234461	99
Es	0.875501	-1.921105	-0.829433	99
Es	0.759428	-2.174945	-0.666064	99
Es	-0.787367	-1.298216	1.404362	99
Es	-0.850556	-1.667255	1.069914	99
Es	-1.461092	0.182980	-0.784530	99
Es	-0.724453	-1.582826	1.311158	99
Es	-2.112396	0.362451	-0.525457	99
Es	0.615687	-2.412523	-0.688805	99
Es	0.129853	-1.205100	0.204058	99
Es	0.079475	-1.285882	0.283167	99
Es	0.775295	-0.543415	0.471284	99
Es	-0.373518	-1.430839	0.913305	99
Es	-0.531923	-1.765395	1.393189	99
Es	-0.262948	0.686752	-0.269912	99
Es	-0.575070	0.158564	-0.742205	99
Es	0.689790	0.657020	0.443229	99
Es	1.416481	0.136203	1.293658	99
Es	0.222406	-1.251845	0.131310	99
Es	1.211701	0.130669	0.605281	99
Es	-2.020472	0.237924	-0.799006	99
Es	0.847467	-2.112905	-0.423551	99
Es	0.056355	-1.174760	0.142523	99
Es	-2.160232	-0.259831	-0.829930	99
Es	-2.071637	0.351984	-1.057911	99
Es	-0.272082	0.159750	-1.409901	99
45
Properties=species:S:1:pos:R:3:Z:I:1 energy=-739.2730979463427 field_type=dipole dipole="0.000000 0.000000 0.000000" charge=0
O	-2.020713	0.238225	-0.799034	8
C	-0.574863	0.158615	-0.742294	6
C	0.110997	1.145905	0.234506	6
C	1.211797	0.130725	0.605316	6
S	0.130157	-1.205015	0.204136	16
O	-0.724523	-1.582865	1.311346	8
O	0.759567	-2.175154	-0.666244	8
H	-2.322503	-0.688055	-0.854124	1
H	-0.152363	0.170765	-1.753344	1
H	-0.522043	1.433005	1.083536	1
H	0.481687	2.065245	-0.229034	1
H	2.092017	0.158745	-0.045044	1
H	1.530787	0.149855	1.650276	1
Es	1.416187	0.136468	1.293025	99
Es	-0.485367	-1.673087	1.368075	99
Es	1.211699	0.130667	0.605281	99
Es	0.817627	-2.412076	-0.530724	99
Es	0.759502	-2.175046	-0.666169	99
Es	0.206222	-1.148348	0.259924	99
Es	-0.272163	0.159521	-1.409803	99
Es	0.071793	-1.128122	0.149130	99
Es	0.187411	-1.278936	0.122242	99
Es	-0.401766	-1.432427	0.887229	99
Es	0.111049	1.145784	0.234461	99
Es	-0.724295	-1.582774	1.311076	99
Es	-0.312575	1.318372	0.803101	99
Es	-0.790556	-1.295800	1.398476	99
Es	-0.865815	-1.760452	1.127078	99
Es	0.130163	-1.205005	0.204152	99
Es	-0.320078	-0.537636	-0.345122	99
Es	-2.114100	0.365816	-0.526842	99
Es	0.055188	-1.264678	0.285289	99
Es	0.689504	0.657014	0.443453	99
Es	-0.262815	0.686857	-0.269989	99
Es	-0.575072	0.158562	-0.742205	99
Es	-1.460611	0.184326	-0.786113	99
Es	1.781755	0.141530	0.158255	99
Es	-2.020486	0.237972	-0.799060	99
Es	-2.069955	0.348035	-1.054649	99
Es	0.538868	-1.864126	-0.276517	99
Es	0.369021	1.754815	-0.086568	99
Es	-2.160735	-0.260764	-0.830181	99
Es	0.774989	-0.543772	0.471525	99
Es	0.512322	-2.113103	-0.708898	99
Es	0.909643	-1.913757	-0.790998	99
45
Properties=species:S:1:pos:R:3:Z:I:1 energy=-739.2730979463427 field_type=dipole dipole="0.000000 0.000000 0.000000" charge=0
O	-2.020713	0.238225	-0.799034	8
C	-0.574863	0.158615	-0.742294	6
C	0.110997	1.145905	0.234506	6
C	1.211797	0.130725	0.605316	6
S	0.130157	-1.205015	0.204136	16
O	-0.724523	-1.582865	1.311346	8
O	0.759567	-2.175154	-0.666244	8
H	-2.322503	-0.688055	-0.854124	1
H	-0.152363	0.170765	-1.753344	1
H	-0.522043	1.433005	1.083536	1
H	0.481687	2.065245	-0.229034	1
H	2.092017	0.158745	-0.045044	1
H	1.530787	0.149855	1.650276	1
Es	-2.073284	0.352311	-1.054396	99
Es	0.689755	0.657003	0.443496	99
Es	-0.851602	-1.788663	1.151512	99
Es	-0.476449	-1.643532	1.353805	99
Es	0.541974	-1.862294	-0.276096	99
Es	0.775196	-0.543662	0.471543	99
Es	-0.312666	1.318594	0.803002	99
Es	1.416156	0.136277	1.293049	99
Es	-0.272130	0.159501	-1.409838	99
Es	0.759439	-2.174941	-0.666057	99
Es	-1.460356	0.184373	-0.787750	99
Es	-0.320150	-0.537582	-0.345201	99
Es	-0.800144	-1.297959	1.397733	99
Es	-2.111775	0.360695	-0.523893	99
Es	0.368769	1.754548	-0.086408	99
Es	1.211698	0.130667	0.605286	99
Es	0.111046	1.145782	0.234464	99
Es	-0.415288	-1.431557	0.877716	99
Es	0.208127	-1.285880	0.154116	99
Es	-0.575072	0.158562	-0.742208	99
Es	-0.724347	-1.582768	1.311122	99
Es	0.906648	-1.914767	-0.793086	99
Es	0.028638	-1.257133	0.255667	99
Es	-2.020549	0.237908	-0.799016	99
Es	-2.160014	-0.259828	-0.831720	99
Es	1.781812	0.141387	0.158315	99
Es	-0.262822	0.686935	-0.270088	99
Es	0.823823	-2.406998	-0.526659	99
Es	0.100374	-1.130700	0.126133	99
Es	0.506105	-2.119081	-0.711422	99
Es	0.183404	-1.146315	0.280652	99
Es	0.130234	-1.205052	0.204162	99
45
Properties=species:S:1:pos:R:3:Z:I:1 energy=-739.2730979463427 field_type=dipole dipole="0.000000 0.000000 0.000000" charge=0
O	-2.020713	0.238225	-0.799034	8
C	-0.574863	0.158615	-0.742294	6
C	0.110997	1.145905	0.234506	6
C	1.211797	0.130725	0.605316	6
S	0.130157	-1.205015	0.204136	16
O	-0.724523	-1.582865	1.311346	8
O	0.759567	-2.175154	-0.666244	8
H	-2.322503	-0.688055	-0.854124	1
H	-0.152363	0.170765	-1.753344	1
H	-0.522043	1.433005	1.083536	1
H	0.481687	2.065245	-0.229034	1
H	2.092017	0.158745	-0.045044	1
H	1.530787	0.149855	1.650276	1
Es	0.797353	-2.420574	-0.538268	99
Es	0.047944	-1.232966	0.294630	99
Es	0.514481	-2.097833	-0.707871	99
Es	0.079996	-1.210410	0.117490	99
Es	-2.020511	0.237938	-0.799017	99
Es	1.781747	0.141393	0.158213	99
Es	0.545500	-1.863293	-0.274507	99
Es	0.130188	-1.205045	0.204141	99
Es	-0.262878	0.686855	-0.269972	99
Es	-0.483699	-1.675409	1.363195	99
Es	-0.804988	-1.307301	1.410437	99
Es	-0.402253	-1.419114	0.892032	99
Es	-0.575069	0.158563	-0.742205	99
Es	0.921259	-1.921457	-0.786621	99
Es	0.172573	-1.090649	0.210178	99
Es	-0.852549	-1.759855	1.115174	99
Es	0.111048	1.145782	0.234463	99
Es	0.368641	1.754603	-0.086494	99
Es	-0.312641	1.318543	0.802970	99
Es	-2.160914	-0.260270	-0.829789	99
Es	-0.272050	0.159551	-1.409900	99
Es	-0.320190	-0.537562	-0.345159	99
Es	1.416163	0.136286	1.293356	99
Es	-2.111372	0.362909	-0.525323	99
Es	-0.724310	-1.582784	1.311082	99
Es	-2.072311	0.351235	-1.055596	99
Es	0.775190	-0.543468	0.471392	99
Es	0.689886	0.656823	0.443398	99
Es	1.211699	0.130667	0.605280	99
Es	0.759425	-2.174925	-0.666027	99
Es	0.220077	-1.286047	0.194305	99
Es	-1.460881	0.183645	-0.787051	99
45
Properties=species:S:1:pos:R:3:Z:I:1 energy=-739.2730979463427 field_type=dipole dipole="0.000000 0.000000 0.000000" charge=0
O	-2.020713	0.238225	-0.799034	8
C	-0.574863	0.158615	-0.742294	6
C	0.110997	1.145905	0.234506	6
C	1.211797	0.130725	0.605316	6
S	0.130157	-1.205015	0.204136	16
O	-0.724523	-1.582865	1.311346	8
O	0.759567	-2.175154	-0.666244	8
H	-2.322503	-0.688055	-0.854124	1
H	-0.152363	0.170765	-1.753344	1
H	-0.522043	1.433005	1.083536	1
H	0.481687	2.065245	-0.229034	1
H	2.092017	0.158745	-0.045044	1
H	1.530787	0.149855	1.650276	1
Es	0.098576	-1.148451	0.308609	99
Es	0.130103	-1.204956	0.204070	99
Es	1.416262	0.136233	1.293266	99
Es	-2.075638	0.357876	-1.054840	99
Es	-0.376672	-1.420138	0.914246	99
Es	-0.272075	0.159964	-1.409919	99
Es	-2.020478	0.237893	-0.799043	99
Es	0.102250	-1.322229	0.206291	99
Es	-0.526497	-1.766978	1.381576	99
Es	-2.160064	-0.260028	-0.833223	99
Es	-0.724366	-1.582788	1.311139	99
Es	-0.840333	-1.666500	1.068164	99
Es	0.246973	-1.188102	0.176713	99
Es	1.781653	0.141258	0.158289	99
Es	0.072858	-1.161365	0.125049	99
Es	0.759428	-2.174924	-0.666065	99
Es	0.368698	1.754885	-0.086885	99
Es	0.775342	-0.543499	0.471472	99
Es	0.441723	-1.856655	-0.362561	99
Es	-0.575064	0.158563	-0.742205	99
Es	0.615603	-2.413529	-0.688888	99
Es	-1.461259	0.183815	-0.788116	99
Es	-2.108340	0.355984	-0.521580	99
Es	1.211702	0.130668	0.605281	99
Es	0.689563	0.656654	0.443199	99
Es	0.111046	1.145784	0.234463	99
Es	-0.799948	-1.308129	1.416807	99
Es	-0.262940	0.687025	-0.269531	99
Es	0.878933	-1.920227	-0.828059	99
Es	-0.312745	1.318345	0.802933	99
Es	-0.320019	-0.537832	-0.345034	99
Es	0.842277	-2.112785	-0.427684	99
45
Properties=species:S:1:pos:R:3:Z:I:1 energy=-739.2730979463427 field_type=dipole dipole="0.000000 0.000000 0.000000" charge=0
O	-2.020713	0.238225	-0.799034	8
C	-0.574863	0.158615	-0.742294	6
C	0.110997	1.145905	0.234506	6
C	1.211797	0.130725	0.605316	6
S	0.130157	-1.205015	0.204136	16
O	-0.724523	-1.582865	1.311346	8
O	0.759567	-2.175154	-0.666244	8
H	-2.322503	-0.688055	-0.854124	1
H	-0.152363	0.170765	-1.753344	1
H	-0.522043	1.433005	1.083536	1
H	0.481687	2.065245	-0.229034	1
H	2.092017	0.158745	-0.045044	1
H	1.530787	0.149855	1.650276	1
Es	0.111044	1.145785	0.234464	99
Es	0.215264	-1.226010	0.106640	99
Es	0.136770	-1.204592	0.210331	99
Es	0.802118	-2.422230	-0.552638	99
Es	0.088364	-1.087909	0.225937	99
Es	-2.112371	0.362445	-0.525572	99
Es	0.775118	-0.543613	0.471460	99
Es	1.781794	0.141572	0.158162	99
Es	-0.575074	0.158562	-0.742205	99
Es	0.147921	-1.205408	0.224898	99
Es	0.689794	0.656925	0.443521	99
Es	-2.020494	0.237943	-0.799000	99
Es	0.542266	-1.876707	-0.267796	99
Es	-0.262840	0.686599	-0.270072	99
Es	-2.072320	0.350778	-1.054456	99
Es	0.513900	-2.093803	-0.713419	99
Es	-0.272044	0.159466	-1.409910	99
Es	0.368744	1.754649	-0.086518	99
Es	0.759451	-2.174967	-0.666086	99
Es	1.416111	0.136414	1.293294	99
Es	-0.312584	1.318506	0.803021	99
Es	-2.160757	-0.260077	-0.830655	99
Es	-0.320193	-0.537495	-0.345083	99
Es	-0.867664	-1.737363	1.109696	99
Es	1.211699	0.130668	0.605281	99
Es	-0.724333	-1.582780	1.311130	99
Es	-1.460067	0.184326	-0.787091	99
Es	-0.488494	-1.697791	1.370032	99
Es	-0.399650	-1.425220	0.891766	99
Es	0.920307	-1.910322	-0.773396	99
Es	-0.787681	-1.301341	1.409298	99
Es	0.062455	-1.301179	0.252900	99
45
Properties=species:S:1:pos:R:3:Z:I:1 energy=-739.2730979463427 field_type=dipole dipole="0.000000 0.000000 0.000000" charge=0
O	-2.020713	0.238225	-0.799034	8
C	-0.574863	0.158615	-0.742294	6
C	0.110997	1.145905	0.234506	6
C	1.211797	0.130725	0.605316	6
S	0.130157	-1.205015	0.204136	16
O	-0.724523	-1.582865	1.311346	8
O	0.759567	-2.175154	-0.666244	8
H	-2.322503	-0.688055	-0.854124	1
H	-0.152363	0.170765	-1.753344	1
H	-0.522043	1.433005	1.083536	1
H	0.481687	2.065245	-0.229034	1
H	2.092017	0.158745	-0.045044	1
H	1.530787	0.149855	1.650276	1
Es	0.102827	-1.093764	0.231540	99
Es	-2.111740	0.360760	-0.524044	99
Es	-0.794881	-1.305100	1.412564	99
Es	-0.575072	0.158563	-0.742207	99
Es	0.219556	-1.222798	0.251841	99
Es	0.922870	-1.919307	-0.784264	99
Es	-0.491119	-1.695400	1.367903	99
Es	0.793587	-2.424078	-0.542449	99
Es	0.046385	-1.286745	0.250210	99
Es	0.130156	-1.205017	0.204147	99
Es	-0.724302	-1.582797	1.311078	99
Es	0.111046	1.145783	0.234464	99
Es	1.782128	0.141470	0.158262	99
Es	0.774981	-0.543641	0.471637	99
Es	0.535750	-1.864533	-0.276542	99
Es	-0.320126	-0.537662	-0.345165	99
Es	1.415931	0.136215	1.292635	99
Es	-0.395559	-1.421471	0.896206	99
Es	-2.020480	0.237933	-0.799095	99
Es	0.759438	-2.174929	-0.666016	99
Es	0.368783	1.754734	-0.086606	99
Es	-0.272121	0.159599	-1.409796	99
Es	-1.460145	0.184278	-0.787935	99
Es	-0.861980	-1.739720	1.104148	99
Es	-2.161242	-0.260062	-0.833287	99
Es	-0.262690	0.686864	-0.269912	99
Es	-2.072393	0.352563	-1.052414	99
Es	0.526400	-2.095225	-0.704024	99
Es	-0.312719	1.318410	0.803023	99
Es	0.689730	0.657035	0.443741	99
Es	0.151852	-1.216795	0.083010	99
Es	1.211699	0.130668	0.605281	99
45
Properties=species:S:1:pos:R:3:Z:I:1 energy=-739.2730979463427 field_type=dipole dipole="0.000000 0.000000 0.000000" charge=0
O	-2.020713	0.238225	-0.799034	8
C	-0.574863	0.158615	-0.742294	6
C	0.110997	1.145905	0.234506	6
C	1.211797	0.130725	0.605316	6
S	0.130157	-1.205015	0.204136	16
O	-0.724523	-1.582865	1.311346	8
O	0.759567	-2.175154	-0.666244	8
H	-2.322503	-0.688055	-0.854124	1
H	-0.152363	0.170765	-1.753344	1
H	-0.522043	1.433005	1.083536	1
H	0.481687	2.065245	-0.229034	1
H	2.092017	0.158745	-0.045044	1
H	1.530787	0.149855	1.650276	1
Es	0.920472	-1.919090	-0.789219	99
Es	-2.020593	0.238026	-0.799045	99
Es	0.138005	-1.297081	0.128758	99
Es	0.121607	-1.244528	0.317465	99
Es	-0.262706	0.686995	-0.269887	99
Es	0.689825	0.656741	0.443520	99
Es	-0.724333	-1.582765	1.311089	99
Es	0.225162	-1.131905	0.191248	99
Es	0.759433	-2.174965	-0.666093	99
Es	-0.859030	-1.769658	1.134966	99
Es	-0.312866	1.318549	0.803029	99
Es	1.211702	0.130668	0.605281	99
Es	0.534641	-1.863593	-0.277517	99
Es	0.035833	-1.146557	0.179103	99
Es	-2.159918	-0.260085	-0.831303	99
Es	-1.460387	0.184670	-0.786775	99
Es	0.111045	1.145786	0.234465	99
Es	1.782018	0.141370	0.158179	99
Es	1.415997	0.136211	1.292949	99
Es	-2.071403	0.349533	-1.054446	99
Es	0.799953	-2.418169	-0.535735	99
Es	0.775193	-0.543512	0.471621	99
Es	-0.320142	-0.537599	-0.345082	99
Es	-0.272046	0.159637	-1.409894	99
Es	-0.407603	-1.431636	0.883116	99
Es	-0.480693	-1.663301	1.363186	99
Es	-0.796147	-1.297083	1.399583	99
Es	-2.113723	0.363332	-0.525151	99
Es	0.523524	-2.102244	-0.704771	99
Es	-0.575070	0.158563	-0.742206	99
Es	0.368638	1.754538	-0.086643	99
Es	0.130161	-1.205018	0.204141	99
45
Properties=species:S:1:pos:R:3:Z:I:1 energy=-739.2730979463427 field_type=dipole dipole="0.000000 0.000000 0.000000" charge=0
O	-2.020713	0.238225	-0.799034	8
C	-0.574863	0.158615	-0.742294	6
C	0.110997	1.145905	0.234506	6
C	1.211797	0.130725	0.605316	6
S	0.130157	-1.205015	0.204136	16
O	-0.724523	-1.582865	1.311346	8
O	0.759567	-2.175154	-0.666244	8
H	-2.322503	-0.688055	-0.854124	1
H	-0.152363	0.170765	-1.753344	1
H	-0.522043	1.433005	1.083536	1
H	0.481687	2.065245	-0.229034	1
H	2.092017	0.158745	-0.045044	1
H	1.530787	0.149855	1.650276	1
Es	-0.320125	-0.537591	-0.345012	99
Es	0.795339	-2.419835	-0.537366	99
Es	0.759452	-2.174967	-0.666085	99
Es	0.130175	-1.205087	0.204144	99
Es	-1.459984	0.183671	-0.786575	99
Es	-2.072051	0.351016	-1.054795	99
Es	-0.788260	-1.294648	1.399178	99
Es	-0.479035	-1.660467	1.359266	99
Es	0.689899	0.656734	0.443563	99
Es	0.144874	-1.182833	0.086757	99
Es	-0.312920	1.318433	0.803003	99
Es	1.781895	0.141293	0.158015	99
Es	0.119835	-1.321525	0.222327	99
Es	-0.864556	-1.771607	1.143545	99
Es	0.220949	-1.175541	0.252404	99
Es	-0.271987	0.159615	-1.409882	99
Es	-2.112829	0.362281	-0.525152	99
Es	0.923633	-1.921442	-0.786689	99
Es	-2.020514	0.237909	-0.799034	99
Es	0.034956	-1.140095	0.255124	99
Es	0.368581	1.754578	-0.086486	99
Es	0.537014	-1.863007	-0.276826	99
Es	-0.724431	-1.582910	1.311218	99
Es	1.211698	0.130667	0.605285	99
Es	0.775174	-0.543387	0.471623	99
Es	-0.262662	0.687023	-0.270105	99
Es	-0.575071	0.158560	-0.742204	99
Es	-0.411589	-1.434789	0.878702	99
Es	1.416158	0.136131	1.293024	99
Es	0.522635	-2.098788	-0.706332	99
Es	0.111045	1.145782	0.234462	99
Es	-2.160747	-0.259344	-0.831163	99
45
Properties=species:S:1:pos:R:3:Z:I:1 energy=-739.2730979463427 field_type=dipole dipole="0.000000 0.000000 0.000000" charge=0
O	-2.020713	0.238225	-0.799034	8
C	-0.574863	0.158615	-0.742294	6
C	0.110997	1.145905	0.234506	6
C	1.211797	0.130725	0.605316	6
S	0.130157	-1.205015	0.204136	16
O	-0.724523	-1.582865	1.311346	8
O	0.759567	-2.175154	-0.666244	8
H	-2.322503	-0.688055	-0.854124	1
H	-0.152363	0.170765	-1.753344	1
H	-0.522043	1.433005	1.083536	1
H	0.481687	2.065245	-0.229034	1
H	2.092017	0.158745	-0.045044	1
H	1.530787	0.149855	1.650276	1
Es	-0.392189	-1.417927	0.900932	99
Es	0.081867	-1.145273	0.129374	99
Es	0.866120	-1.914446	-0.833212	99
Es	-0.312844	1.318143	0.802898	99
Es	1.416124	0.136079	1.292862	99
Es	-1.460833	0.184529	-0.788037	99
Es	-0.272068	0.160038	-1.409901	99
Es	0.759427	-2.174947	-0.666063	99
Es	0.434216	-1.867279	-0.362984	99
Es	1.211699	0.130668	0.605281	99
Es	0.368735	1.755072	-0.087024	99
Es	0.775289	-0.543448	0.471627	99
Es	0.839907	-2.096702	-0.432734	99
Es	0.111046	1.145784	0.234464	99
Es	-2.159599	-0.260225	-0.828345	99
Es	-2.110601	0.361857	-0.524757	99
Es	-0.500578	-1.734896	1.377932	99
Es	1.781911	0.141206	0.158260	99
Es	0.689396	0.656724	0.443413	99
Es	-0.724326	-1.582701	1.311047	99
Es	0.056364	-1.209459	0.307222	99
Es	-0.850029	-1.700364	1.085706	99
Es	-0.575074	0.158568	-0.742202	99
Es	0.638266	-2.424785	-0.678225	99
Es	-0.800727	-1.308661	1.416285	99
Es	0.154400	-1.314323	0.153803	99
Es	-0.262777	0.687016	-0.269484	99
Es	0.130158	-1.205018	0.204138	99
Es	-0.319922	-0.537844	-0.344933	99
Es	-2.020555	0.238007	-0.799038	99
Es	0.227995	-1.151011	0.226207	99
Es	-2.074246	0.351448	-1.056578	99
45
Properties=species:S:1:pos:R:3:Z:I:1 energy=-739.2730979463427 field_type=dipole dipole="0.000000 0.000000 0.000000" charge=0
O	-2.020713	0.238225	-0.799034	8
C	-0.574863	0.158615	-0.742294	6
C	0.110997	1.145905	0.234506	6