37
Properties=species:S:1:pos:R:3:Z:I:1 energy=-715.8189355850316 field_type=dipole dipole="0.000000 0.000000 0.000000" charge=0
O	-1.899877	0.129297	0.523835	8
S	-0.487517	0.039667	0.786315	16
O	0.209842	-0.604192	1.868375	8
C	0.126583	-0.804643	-0.637765	6
C	0.543763	-1.382602	-1.607095	6
C	0.099953	1.714177	0.778015	6
N	0.498123	2.809587	0.750805	7
H	0.909133	-1.901292	-2.462485	1
Es	0.661953	-1.029143	-0.987769	99
Es	-1.899550	0.129281	0.523901	99
Es	-1.436127	0.129209	0.771577	99
Es	0.618491	3.147131	0.746139	99
Es	-0.152353	-0.344847	1.587674	99
Es	-0.117628	-0.394153	-0.030637	99
Es	-1.811741	-0.168266	0.484269	99
Es	0.176043	2.326224	0.488654	99
Es	-0.487645	0.039340	0.786065	99
Es	0.106731	-0.838237	1.704974	99
Es	0.126455	-0.804440	-0.637411	99
Es	0.543822	-1.382719	-1.607232	99
Es	0.777221	-1.715955	-2.154824	99
Es	0.497957	2.809130	0.750816	99
Es	-1.648666	0.253374	0.300235	99
Es	0.137981	2.313726	1.021915	99
Es	-0.135986	1.005908	0.761992	99
Es	0.596081	2.183312	0.782586	99
Es	0.209660	-0.604037	1.868118	99
Es	-0.418553	-0.029910	0.848639	99
Es	0.163693	-0.841089	-1.311755	99
Es	-0.460252	0.157996	0.808258	99
Es	0.129347	-1.339785	-0.950163	99
Es	0.196547	-0.493526	2.112411	99
Es	0.099806	1.713717	0.778010	99
Es	0.369505	-0.434782	1.589808	99
Es	-2.065635	0.275672	0.670145	99
Es	-0.599339	0.016456	0.814553	99
Es	-0.471398	0.014856	0.673621	99
37
Properties=species:S:1:pos:R:3:Z:I:1 energy=-715.8189355850316 field_type=dipole dipole="0.000000 0.000000 0.000000" charge=0
O	-1.899877	0.129297	0.523835	8
S	-0.487517	0.039667	0.786315	16
O	0.209842	-0.604192	1.868375	8
C	0.126583	-0.804643	-0.637765	6
C	0.543763	-1.382602	-1.607095	6
C	0.099953	1.714177	0.778015	6
N	0.498123	2.809587	0.750805	7
H	0.909133	-1.901292	-2.462485	1
Es	-0.140697	-0.345311	1.570836	99
Es	-0.509587	0.041532	0.899945	99
Es	0.497957	2.809130	0.750816	99
Es	-0.472623	-0.078564	0.743474	99
Es	0.187397	-0.468930	2.107216	99
Es	0.172521	2.300760	1.044111	99
Es	0.099800	1.713712	0.778020	99
Es	0.543820	-1.382703	-1.607242	99
Es	0.616732	3.148685	0.750394	99
Es	-1.424628	0.107924	0.752109	99
Es	-0.134284	1.005228	0.758441	99
Es	-1.845981	-0.173689	0.461077	99
Es	0.126445	-0.804420	-0.637427	99
Es	0.145793	2.342190	0.513241	99
Es	0.591723	2.179537	0.735333	99
Es	0.364695	-0.442484	1.599840	99
Es	-1.655181	0.263537	0.317280	99
Es	-0.392891	0.102632	0.768573	99
Es	-1.899688	0.129306	0.523849	99
Es	0.134390	-1.342627	-0.945979	99
Es	0.776384	-1.717993	-2.154580	99
Es	-0.487372	0.039694	0.786314	99
Es	0.659463	-1.021439	-0.992442	99
Es	-0.116206	-0.391157	-0.031398	99
Es	0.108946	-0.854516	1.716781	99
Es	0.209719	-0.604076	1.868174	99
Es	-2.036046	0.292344	0.695713	99
Es	0.160484	-0.847255	-1.310699	99
Es	-0.574662	0.093395	0.732798	99
37
Properties=species:S:1:pos:R:3:Z:I:1 energy=-715.8189355850316 field_type=dipole dipole="0.000000 0.000000 0.000000" charge=0
O	-1.899877	0.129297	0.523835	8
S	-0.487517	0.039667	0.786315	16
O	0.209842	-0.604192	1.868375	8
C	0.126583	-0.804643	-0.637765	6
C	0.543763	-1.382602	-1.607095	6
C	0.099953	1.714177	0.778015	6
N	0.498123	2.809587	0.750805	7
H	0.909133	-1.901292	-2.462485	1
Es	0.775888	-1.718885	-2.154518	99
Es	-0.532213	-0.018608	0.688146	99
Es	0.126446	-0.804410	-0.637414	99
Es	-1.648298	0.258516	0.323227	99
Es	0.615354	3.149538	0.752399	99
Es	-0.487670	0.039569	0.786367	99
Es	0.657267	-1.029343	-0.989823	99
Es	-0.132961	1.004851	0.756738	99
Es	0.126619	-1.341236	-0.950813	99
Es	-2.026926	0.306318	0.696368	99
Es	0.119447	-0.858485	1.702370	99
Es	-0.140873	-0.347848	1.578122	99
Es	0.592195	2.184229	0.771826	99
Es	-0.393595	0.093796	0.756364	99
Es	0.543820	-1.382705	-1.607236	99
Es	-0.455601	-0.036196	0.860970	99
Es	0.209731	-0.604033	1.868138	99
Es	0.355113	-0.429093	1.603409	99
Es	-0.115469	-0.389997	-0.031588	99
Es	0.497957	2.809130	0.750816	99
Es	0.170145	-0.841130	-1.308389	99
Es	0.176445	2.327252	0.493965	99
Es	-1.899675	0.129302	0.523865	99
Es	-1.860011	-0.174411	0.457854	99
Es	0.186646	-0.475834	2.110738	99
Es	0.099801	1.713711	0.778008	99
Es	0.141388	2.310563	1.026716	99
Es	-1.426517	0.099687	0.748668	99
Es	-0.568031	0.120197	0.839277	99
37
Properties=species:S:1:pos:R:3:Z:I:1 energy=-715.8189355850316 field_type=dipole dipole="0.000000 0.000000 0.000000" charge=0
O	-1.899877	0.129297	0.523835	8
S	-0.487517	0.039667	0.786315	16
O	0.209842	-0.604192	1.868375	8
C	0.126583	-0.804643	-0.637765	6
C	0.543763	-1.382602	-1.607095	6
C	0.099953	1.714177	0.778015	6
N	0.498123	2.809587	0.750805	7
H	0.909133	-1.901292	-2.462485	1
Es	0.515064	2.185093	0.562578	99
Es	0.209670	-0.603998	1.868116	99
Es	-0.138818	-0.352571	1.574019	99
Es	-1.859490	-0.175617	0.456080	99
Es	0.653380	-0.985170	-1.009947	99
Es	0.543817	-1.382715	-1.607241	99
Es	0.043024	2.383141	0.666175	99
Es	-0.487943	0.039855	0.785814	99
Es	0.776205	-1.719064	-2.154463	99
Es	-1.899610	0.129287	0.523878	99
Es	-0.134485	1.005261	0.756869	99
Es	0.615591	3.149572	0.753589	99
Es	0.126451	-0.804411	-0.637432	99
Es	-0.540412	-0.069511	0.778500	99
Es	0.357927	-0.431768	1.600688	99
Es	-1.426999	0.099746	0.746017	99
Es	-2.026178	0.305971	0.699482	99
Es	0.118224	-0.860958	1.711734	99
Es	0.134127	-0.873800	-1.311462	99
Es	0.497953	2.809121	0.750813	99
Es	-0.556427	0.125486	0.847723	99
Es	-1.649118	0.259977	0.324608	99
Es	0.166838	-1.353044	-0.927302	99
Es	0.183078	-0.465923	2.108108	99
Es	-0.460011	0.076300	0.680932	99
Es	0.099783	1.713710	0.778015	99
Es	-0.116113	-0.389536	-0.031933	99
Es	-0.392371	0.026600	0.838143	99
Es	0.353267	2.253409	1.062468	99
37
Properties=species:S:1:pos:R:3:Z:I:1 energy=-715.8189355850316 field_type=dipole dipole="0.000000 0.000000 0.000000" charge=0
O	-1.899877	0.129297	0.523835	8
S	-0.487517	0.039667	0.786315	16
O	0.209842	-0.604192	1.868375	8
C	0.126583	-0.804643	-0.637765	6
C	0.543763	-1.382602	-1.607095	6
C	0.099953	1.714177	0.778015	6
N	0.498123	2.809587	0.750805	7
H	0.909133	-1.901292	-2.462485	1
Es	0.149802	2.341362	0.515600	99
Es	-1.426256	0.104068	0.741778	99
Es	0.156402	-0.854382	-1.309294	99
Es	0.497959	2.809134	0.750815	99
Es	0.543820	-1.382715	-1.607243	99
Es	-0.132172	1.004857	0.754379	99
Es	-2.026499	0.304165	0.702709	99
Es	-1.899542	0.129282	0.523911	99
Es	-1.855954	-0.179229	0.452887	99
Es	-0.399974	-0.043255	0.799584	99
Es	0.168632	-0.453529	2.106134	99
Es	0.141281	-1.345498	-0.941716	99
Es	0.775685	-1.719613	-2.154479	99
Es	-0.134152	-0.360710	1.560282	99
Es	0.589716	2.180351	0.731929	99
Es	0.132174	-0.867334	1.717152	99
Es	-0.114979	-0.388842	-0.031839	99
Es	0.209680	-0.604022	1.868097	99
Es	0.170225	2.300251	1.044375	99
Es	0.126449	-0.804399	-0.637426	99
Es	-0.487506	0.039683	0.786334	99
Es	-0.461333	0.151508	0.840560	99
Es	-1.653099	0.261105	0.328685	99
Es	0.099785	1.713712	0.777995	99
Es	0.353794	-0.429589	1.610994	99
Es	-0.576593	-0.000957	0.830784	99
Es	-0.511752	0.051790	0.673870	99
Es	0.614808	3.149637	0.755500	99
Es	0.656021	-1.012389	-0.997786	99
37
Properties=species:S:1:pos:R:3:Z:I:1 energy=-715.8189355850316 field_type=dipole dipole="0.000000 0.000000 0.000000" charge=0
O	-1.899877	0.129297	0.523835	8
S	-0.487517	0.039667	0.786315	16
O	0.209842	-0.604192	1.868375	8
C	0.126583	-0.804643	-0.637765	6
C	0.543763	-1.382602	-1.607095	6
C	0.099953	1.714177	0.778015	6
N	0.498123	2.809587	0.750805	7
H	0.909133	-1.901292	-2.462485	1
Es	-0.506180	0.156939	0.847265	99
Es	-0.136603	-0.352923	1.574107	99
Es	-0.478791	-0.062919	0.852658	99
Es	0.161239	2.335716	0.507510	99
Es	-1.648013	0.261464	0.338774	99
Es	0.123573	-1.340073	-0.953064	99
Es	0.183556	-0.463262	2.108308	99
Es	0.157954	2.304231	1.037762	99
Es	0.126423	-0.804439	-0.637418	99
Es	-0.492490	0.023801	0.658362	99
Es	-1.899555	0.129286	0.523913	99
Es	-1.865990	-0.173356	0.440547	99
Es	0.497958	2.809131	0.750816	99
Es	0.099802	1.713709	0.777995	99
Es	0.120587	-0.864160	1.709687	99
Es	-2.021842	0.309819	0.705618	99
Es	-1.425987	0.092159	0.741147	99
Es	0.173227	-0.841963	-1.305980	99
Es	-0.115163	-0.388614	-0.032105	99
Es	-0.132576	1.005003	0.754172	99
Es	-0.476192	0.040588	0.786980	99
Es	0.775708	-1.719818	-2.154331	99
Es	0.543816	-1.382714	-1.607242	99
Es	0.352903	-0.430761	1.602319	99
Es	0.209711	-0.604061	1.868163	99
Es	0.591279	2.181673	0.746673	99
Es	-0.483526	0.040361	0.785840	99
Es	0.614461	3.149832	0.755729	99
Es	0.657134	-1.030209	-0.989637	99
37
Properties=species:S:1:pos:R:3:Z:I:1 energy=-715.8189355850316 field_type=dipole dipole="0.000000 0.000000 0.000000" charge=0
O	-1.899877	0.129297	0.523835	8
S	-0.487517	0.039667	0.786315	16
O	0.209842	-0.604192	1.868375	8
C	0.126583	-0.804643	-0.637765	6
C	0.543763	-1.382602	-1.607095	6
C	0.099953	1.714177	0.778015	6
N	0.498123	2.809587	0.750805	7
H	0.909133	-1.901292	-2.462485	1
Es	0.134313	-0.868906	1.714117	99
Es	0.126446	-0.804409	-0.637416	99
Es	0.613870	3.150115	0.755898	99
Es	0.497958	2.809131	0.750816	99
Es	-1.429761	0.093278	0.741853	99
Es	0.345399	-0.426464	1.605191	99
Es	-0.487517	0.039808	0.786127	99
Es	0.099788	1.713719	0.778014	99
Es	-0.398476	0.031981	0.708166	99
Es	0.543817	-1.382727	-1.607243	99
Es	0.200722	2.290824	1.057201	99
Es	-2.022792	0.309022	0.705439	99
Es	-0.498677	0.155876	0.841554	99
Es	0.147911	-0.862636	-1.309732	99
Es	0.209690	-0.604042	1.868137	99
Es	0.583266	2.178201	0.696988	99
Es	-1.863642	-0.175278	0.438957	99
Es	-0.136091	-0.363451	1.567832	99
Es	0.775675	-1.720001	-2.154330	99
Es	-0.115192	-0.388575	-0.032018	99
Es	0.653728	-0.999782	-1.003766	99
Es	0.176741	-0.452311	2.107375	99
Es	0.126866	2.352390	0.537865	99
Es	-1.899568	0.129299	0.523842	99
Es	-0.132364	1.004928	0.753837	99
Es	-1.645562	0.263092	0.339881	99
Es	-0.584019	0.006289	0.734098	99
Es	-0.468398	-0.035176	0.861146	99
Es	0.152289	-1.349754	-0.935259	99
37
Properties=species:S:1:pos:R:3:Z:I:1 energy=-715.8189355850316 field_type=dipole dipole="0.000000 0.000000 0.000000" charge=0
O	-1.899877	0.129297	0.523835	8
S	-0.487517	0.039667	0.786315	16
O	0.209842	-0.604192	1.868375	8
C	0.126583	-0.804643	-0.637765	6
C	0.543763	-1.382602	-1.607095	6
C	0.099953	1.714177	0.778015	6
N	0.498123	2.809587	0.750805	7
H	0.909133	-1.901292	-2.462485	1
Es	0.071457	2.338518	0.957505	99
Es	-0.479423	-0.065869	0.712182	99
Es	-2.018170	0.311346	0.709790	99
Es	0.131161	-1.343699	-0.947893	99
Es	-1.899573	0.129288	0.523900	99
Es	0.209688	-0.604044	1.868140	99
Es	0.775521	-1.720041	-2.154358	99
Es	-0.130695	1.004294	0.755314	99
Es	-0.569859	0.032443	0.868838	99
Es	-1.646880	0.262808	0.336259	99
Es	0.169028	-0.843675	-1.307899	99
Es	0.653424	-1.025005	-0.992947	99
Es	0.612927	3.150644	0.755817	99
Es	-1.428008	0.089753	0.737945	99
Es	-0.134875	-0.363670	1.562942	99
Es	-0.488057	0.039755	0.785854	99
Es	0.343359	-0.424431	1.612393	99
Es	0.570058	2.201070	0.870967	99
Es	0.170682	-0.454013	2.108800	99
Es	0.126430	-0.804415	-0.637423	99
Es	-0.394843	0.055024	0.838582	99
Es	0.099807	1.713706	0.778007	99
Es	-0.504972	0.137347	0.725596	99
Es	-1.868617	-0.173687	0.442130	99
Es	0.268586	2.281972	0.462181	99
Es	-0.114719	-0.388348	-0.032004	99
Es	0.141208	-0.869042	1.710375	99
Es	0.497956	2.809130	0.750816	99
Es	0.543820	-1.382719	-1.607241	99
37
Properties=species:S:1:pos:R:3:Z:I:1 energy=-715.8189355850316 field_type=dipole dipole="0.000000 0.000000 0.000000" charge=0
O	-1.899877	0.129297	0.523835	8
S	-0.487517	0.039667	0.786315	16
O	0.209842	-0.604192	1.868375	8
C	0.126583	-0.804643	-0.637765	6
C	0.543763	-1.382602	-1.607095	6
C	0.099953	1.714177	0.778015	6
N	0.498123	2.809587	0.750805	7
H	0.909133	-1.901292	-2.462485	1
Es	-1.643162	0.263815	0.339957	99
Es	-1.432219	0.090506	0.739990	99
Es	-0.507377	-0.032751	0.864367	99
Es	0.218270	2.306955	0.474856	99
Es	0.175946	-0.453023	2.108683	99
Es	0.653881	-1.034053	-0.988960	99
Es	0.127541	-0.869342	1.710622	99
Es	-0.487533	0.039686	0.786292	99
Es	-0.384578	0.007197	0.733899	99
Es	-0.114524	-0.388186	-0.031979	99
Es	-1.899535	0.129284	0.523908	99
Es	0.209659	-0.603987	1.868101	99
Es	0.497954	2.809125	0.750817	99
Es	-0.486140	0.158615	0.835609	99
Es	0.346318	-0.433141	1.611296	99
Es	-1.864811	-0.174832	0.438058	99
Es	0.126437	-0.804429	-0.637413	99
Es	0.123645	-1.339900	-0.953220	99
Es	0.543817	-1.382712	-1.607245	99
Es	0.583994	2.192393	0.814869	99
Es	-0.130377	1.004425	0.753891	99
Es	0.612519	3.150503	0.756447	99
Es	-0.571454	0.026036	0.710936	99
Es	0.176013	-0.838468	-1.306560	99
Es	-2.021500	0.310711	0.708006	99
Es	0.107913	2.322210	1.001781	99
Es	-0.129479	-0.355721	1.563949	99
Es	0.775418	-1.720180	-2.154397	99
Es	0.099786	1.713707	0.778009	99
37
Properties=species:S:1:pos:R:3:Z:I:1 energy=-715.8189355850316 field_type=dipole dipole="0.000000 0.000000 0.000000" charge=0
O	-1.899877	0.129297	0.523835	8
S	-0.487517	0.039667	0.786315	16
O	0.209842	-0.604192	1.868375	8
C	0.126583	-0.804643	-0.637765	6
C	0.543763	-1.382602	-1.607095	6
C	0.099953	1.714177	0.778015	6
N	0.498123	2.809587	0.750805	7
H	0.909133	-1.901292	-2.462485	1
Es	-0.487842	0.039683	0.786166	99
Es	-1.650405	0.260452	0.336458	99
Es	-0.114326	-0.388119	-0.031938	99
Es	0.543827	-1.382715	-1.607246	99
Es	-0.130114	1.004340	0.753842	99
Es	-1.899619	0.129284	0.523885	99
Es	0.173928	-0.449182	2.107024	99
Es	-0.576631	0.024746	0.741582	99
Es	-1.426763	0.094857	0.735272	99
Es	0.126453	-0.804405	-0.637426	99
Es	0.497957	2.809130	0.750816	99
Es	0.131988	-0.870056	1.715454	99
Es	-0.405196	0.027622	0.698436	99
Es	0.172871	-0.841478	-1.306696	99
Es	0.126084	-1.340898	-0.951528	99
Es	0.775383	-1.720389	-2.154246	99
Es	-0.478870	-0.047756	0.855891	99
Es	0.579704	2.195840	0.835066	99
Es	-0.131495	-0.359841	1.561325	99
Es	-2.019326	0.311756	0.709698	99
Es	0.654376	-1.029933	-0.990686	99
Es	-1.865112	-0.176825	0.444598	99
Es	0.209663	-0.604005	1.868117	99
Es	0.099806	1.713705	0.777996	99
Es	0.095278	2.327228	0.987998	99
Es	-0.488571	0.154465	0.849026	99
Es	0.345964	-0.432144	1.610695	99
Es	0.611734	3.150693	0.756697	99
Es	0.235675	2.298387	0.468293	99
37
Properties=species:S:1:pos:R:3:Z:I:1 energy=-715.8189355850316 field_type=dipole dipole="0.000000 0.000000 0.000000" charge=0
O	-1.899877	0.129297	0.523835	8
S	-0.487517	0.039667	0.786315	16
O	0.209842	-0.604192	1.868375	8
C	0.126583	-0.804643	-0.637765	6
C	0.543763	-1.382602	-1.607095	6
C	0.099953	1.714177	0.778015	6
N	0.498123	2.809587	0.750805	7
H	0.909133	-1.901292	-2.462485	1
Es	-0.487510	0.039663	0.786337	99
Es	0.135650	-1.345474	-0.945215	99
Es	-0.131120	1.004348	0.755790	99
Es	0.166542	-0.446605	2.106896	99
Es	0.209654	-0.604046	1.868100	99
Es	0.032429	2.362297	0.871163	99
Es	-0.582471	0.014002	0.814618	99
Es	-1.899619	0.129279	0.523886	99
Es	0.543814	-1.382718	-1.607244	99
Es	0.099791	1.713713	0.778006	99
Es	0.775597	-1.719952	-2.154493	99
Es	-0.425987	-0.067393	0.755567	99
Es	0.136086	-0.870160	1.717490	99
Es	0.126439	-0.804412	-0.637432	99
Es	-1.643342	0.260630	0.329744	99
Es	0.348162	-0.429127	1.611711	99
Es	-0.436959	0.114637	0.877771	99
Es	0.164625	-0.848046	-1.307924	99
Es	0.497963	2.809148	0.750816	99
Es	0.518471	2.218562	0.954544	99
Es	-0.504195	0.097833	0.696764	99
Es	-0.130464	-0.365270	1.558446	99
Es	0.612098	3.150723	0.755861	99
Es	0.360456	2.240559	0.464454	99
Es	-1.852147	-0.180871	0.452459	99
Es	-1.435469	0.103465	0.745762	99
Es	0.653267	-1.018748	-0.995718	99
Es	-0.114713	-0.388543	-0.031754	99
Es	-2.030623	0.306949	0.698163	99
37
Properties=species:S:1:pos:R:3:Z:I:1 energy=-715.8189355850316 field_type=dipole dipole="0.000000 0.000000 0.000000" charge=0
O	-1.899877	0.129297	0.523835	8
S	-0.487517	0.039667	0.786315	16
O	0.209842	-0.604192	1.868375	8
C	0.126583	-0.804643	-0.637765	6
C	0.543763	-1.382602	-1.607095	6
C	0.099953	1.714177	0.778015	6
N	0.498123	2.809587	0.750805	7
H	0.909133	-1.901292	-2.462485	1
Es	0.775746	-1.719926	-2.154408	99
Es	0.350076	-0.433127	1.605431	99
Es	0.099795	1.713709	0.778013	99
Es	0.156568	-1.352022	-0.932719	99
Es	0.177601	-0.452221	2.107990	99
Es	-0.367383	0.029050	0.767191	99
Es	0.124085	-0.867750	1.714513	99
Es	0.298607	2.265322	1.071503	99
Es	0.070207	2.375527	0.621166	99
Es	-0.115117	-0.388472	-0.032021	99
Es	-1.871041	-0.170316	0.431871	99
Es	0.651619	-0.995717	-1.005966	99
Es	0.543818	-1.382717	-1.607245	99
Es	-2.017417	0.309878	0.712021	99
Es	0.612710	3.150638	0.755588	99
Es	-0.564392	-0.042466	0.720173	99
Es	-0.487346	0.036100	0.791071	99
Es	0.209690	-0.604041	1.868137	99
Es	-0.132614	1.004859	0.754634	99
Es	-1.638661	0.268776	0.341616	99
Es	-0.530936	0.144575	0.854674	99
Es	0.145618	-0.864595	-1.309993	99
Es	-1.434571	0.081861	0.740616	99
Es	-0.487060	0.031453	0.797982	99
Es	0.497960	2.809137	0.750814	99
Es	0.126444	-0.804417	-0.637420	99
Es	0.543404	2.180162	0.598865	99
Es	-1.899549	0.129292	0.523904	99
Es	-0.131441	-0.358108	1.566570	99
37
Properties=species:S:1:pos:R:3:Z:I:1 energy=-715.8189355850316 field_type=dipole dipole="0.000000 0.000000 0.000000" charge=0
O	-1.899877	0.129297	0.523835	8
S	-0.487517	0.039667	0.786315	16
O	0.209842	-0.604192	1.868375	8
C	0.126583	-0.804643	-0.637765	6
C	0.543763	-1.382602	-1.607095	6
C	0.099953	1.714177	0.778015	6
N	0.498123	2.809587	0.750805	7
H	0.909133	-1.901292	-2.462485	1
Es	0.775392	-1.720182	-2.154397	99
Es	-1.658848	0.262411	0.331454	99
Es	-1.424109	0.102598	0.730326	99
Es	0.126451	-0.804419	-0.637422	99
Es	-0.114487	-0.388242	-0.031917	99
Es	0.179224	-0.457820	2.110199	99
Es	0.163583	-0.847384	-1.309205	99
Es	0.099816	1.713721	0.778002	99
Es	0.138158	-1.346018	-0.943557	99
Es	-0.531930	-0.023950	0.859651	99
Es	0.313441	2.261181	0.458464	99
Es	0.139648	-0.869162	1.704253	99
Es	-0.444621	0.146152	0.843043	99
Es	0.209620	-0.604009	1.868090	99
Es	0.547493	2.210257	0.911514	99
Es	-0.406120	-0.028548	0.713011	99
Es	0.497958	2.809128	0.750814	99
Es	-0.136003	-0.359492	1.568818	99
Es	-0.487568	0.039624	0.786305	99
Es	0.050287	2.349755	0.920445	99
Es	-0.130418	1.004203	0.755360	99
Es	-1.858760	-0.180810	0.450205	99
Es	0.651740	-1.018958	-0.996034	99
Es	-1.899591	0.129286	0.523886	99
Es	0.543820	-1.382714	-1.607244	99
Es	-0.566850	0.065451	0.729059	99
Es	0.337510	-0.424745	1.611278	99
Es	0.611466	3.151103	0.756083	99
Es	-2.019878	0.306024	0.714084	99
37
Properties=species:S:1:pos:R:3:Z:I:1 energy=-715.8189355850316 field_type=dipole dipole="0.000000 0.000000 0.000000" charge=0
O	-1.899877	0.129297	0.523835	8
S	-0.487517	0.039667	0.786315	16
O	0.209842	-0.604192	1.868375	8
C	0.126583	-0.804643	-0.637765	6
C	0.543763	-1.382602	-1.607095	6
C	0.099953	1.714177	0.778015	6
N	0.498123	2.809587	0.750805	7
H	0.909133	-1.901292	-2.462485	1
Es	0.168604	-0.449977	2.109149	99
Es	-0.123703	-0.354914	1.556839	99
Es	-1.899574	0.129285	0.523887	99
Es	0.125025	-0.869074	1.712078	99
Es	-0.536340	-0.006592	0.871769	99
Es	0.126440	-0.804418	-0.637419	99
Es	0.497957	2.809130	0.750816	99
Es	0.099797	1.713708	0.778018	99
Es	-1.432615	0.088655	0.738876	99
Es	0.363906	2.239357	0.464563	99
Es	0.515402	2.219249	0.957413	99
Es	-1.643135	0.266143	0.337034	99
Es	-1.867454	-0.174383	0.439305	99
Es	-0.485579	-0.040822	0.685455	99
Es	-0.487668	0.039603	0.786335	99
Es	0.612049	3.150777	0.756605	99
Es	0.350340	-0.437181	1.616455	99
Es	-0.387586	0.057265	0.820882	99
Es	-0.539966	0.149207	0.766620	99
Es	-2.018373	0.309831	0.710841	99
Es	0.032256	2.362719	0.867569	99
Es	0.200031	-0.821082	-1.301268	99
Es	0.543815	-1.382718	-1.607243	99
Es	0.209699	-0.604047	1.868140	99
Es	0.101662	-1.330522	-0.969825	99
Es	-0.114221	-0.388879	-0.031291	99
Es	-0.131294	1.004410	0.755698	99
Es	0.775125	-1.719909	-2.154729	99
Es	0.651819	-1.060377	-0.978003	99
37
Properties=species:S:1:pos:R:3:Z:I:1 energy=-715.8189355850316 field_type=dipole dipole="0.000000 0.000000 0.000000" charge=0
O	-1.899877	0.129297	0.523835	8
S	-0.487517	0.039667	0.786315	16
O	0.209842	-0.604192	1.868375	8
C	0.126583	-0.804643	-0.637765	6
C	0.543763	-1.382602	-1.607095	6
C	0.099953	1.714177	0.778015	6
N	0.498123	2.809587	0.750805	7
H	0.909133	-1.901292	-2.462485	1
Es	0.182530	-0.836296	-1.303190	99
Es	-0.124701	-0.364957	1.550354	99
Es	0.126462	-0.804409	-0.637422	99
Es	-1.879421	-0.168895	0.432652	99
Es	-0.386159	0.055372	0.833567	99
Es	0.543811	-1.382706	-1.607251	99
Es	-0.491076	-0.067259	0.712681	99
Es	-0.487523	0.039622	0.786265	99
Es	-0.114533	-0.388389	-0.031780	99
Es	-0.569684	0.043953	0.872933	99
Es	0.099797	1.713701	0.778018	99
Es	0.497957	2.809131	0.750815	99
Es	0.354012	-0.436844	1.614168	99
Es	0.513307	2.186738	0.558498	99
Es	0.115383	-1.337638	-0.958993	99
Es	0.161076	-0.438525	2.104275	99
Es	0.655659	-1.038381	-0.986648	99
Es	0.613094	3.150453	0.757187	99
Es	-2.009063	0.314555	0.718529	99
Es	0.350818	2.253184	1.063279	99
Es	0.775350	-1.720119	-2.154478	99
Es	0.048268	2.381096	0.668510	99
Es	-0.502710	0.127020	0.725600	99
Es	0.209826	-0.604069	1.868170	99
Es	-1.899614	0.129287	0.523883	99
Es	0.129853	-0.870705	1.725605	99
Es	-1.428483	0.078816	0.732483	99
Es	-0.133166	1.005053	0.754399	99
Es	-1.644651	0.265650	0.342461	99
37
Properties=species:S:1:pos:R:3:Z:I:1 energy=-715.8189355850316 field_type=dipole dipole="0.000000 0.000000 0.000000" charge=0
O	-1.899877	0.129297	0.523835	8
S	-0.487517	0.039667	0.786315	16
O	0.209842	-0.604192	1.868375	8
C	0.126583	-0.804643	-0.637765	6
C	0.543763	-1.382602	-1.607095	6
C	0.099953	1.714177	0.778015	6
N	0.498123	2.809587	0.750805	7
H	0.909133	-1.901292	-2.462485	1
Es	0.127670	-0.868827	1.709150	99
Es	0.178223	-0.838440	-1.304920	99
Es	-2.021175	0.303526	0.714469	99
Es	-0.513279	0.117286	0.885065	99
Es	-0.526115	0.082742	0.698301	99
Es	-0.530417	-0.078185	0.793621	99
Es	0.099792	1.713710	0.777999	99
Es	-1.419525	0.103394	0.729947	99
Es	0.209718	-0.604064	1.868169	99
Es	0.543811	-1.382719	-1.607247	99
Es	0.080562	2.372678	0.604212	99
Es	0.613721	3.150127	0.758334	99
Es	-1.662507	0.262559	0.341238	99
Es	-0.132603	1.005137	0.752904	99
Es	0.349088	-0.434580	1.617195	99
Es	-0.114360	-0.388034	-0.031966	99
Es	0.119976	-1.337891	-0.955965	99
Es	-1.899508	0.129324	0.523951	99
Es	0.552872	2.178816	0.615236	99
Es	-0.379845	0.037216	0.767821	99
Es	0.774915	-1.720242	-2.154595	99
Es	-0.487513	0.039667	0.786308	99
Es	0.167234	-0.451450	2.110487	99
Es	0.497962	2.809143	0.750815	99
Es	0.655640	-1.036195	-0.987676	99
Es	0.126439	-0.804418	-0.637419	99
Es	-0.123580	-0.356148	1.557545	99
Es	0.277739	2.269730	1.071246	99
Es	-1.858511	-0.179418	0.440344	99
37
Properties=species:S:1:pos:R:3:Z:I:1 energy=-715.8189355850316 field_type=dipole dipole="0.000000 0.000000 0.000000" charge=0
O	-1.899877	0.129297	0.523835	8
S	-0.487517	0.039667	0.786315	16
O	0.209842	-0.604192	1.868375	8
C	0.126583	-0.804643	-0.637765	6
C	0.543763	-1.382602	-1.607095	6
C	0.099953	1.714177	0.778015	6
N	0.498123	2.809587	0.750805	7
H	0.909133	-1.901292	-2.462485	1
Es	0.162112	-0.850401	-1.308331	99
Es	0.099811	1.713696	0.778000	99
Es	0.126439	-0.804411	-0.637417	99
Es	0.611260	3.150967	0.757679	99
Es	-0.133717	-0.369548	1.565244	99
Es	0.095632	2.326965	0.988859	99
Es	-0.519506	-0.068751	0.727078	99
Es	-1.899544	0.129279	0.523919	99
Es	0.497957	2.809130	0.750816	99
Es	-0.403681	0.021290	0.849670	99
Es	0.775459	-1.720644	-2.154188	99
Es	-1.855686	-0.178382	0.436524	99
Es	0.142402	-0.873407	1.716546	99
Es	0.209713	-0.604057	1.868164	99
Es	-0.576596	0.092835	0.855135	99
Es	0.578964	2.195975	0.832955	99
Es	0.543818	-1.382717	-1.607245	99
Es	0.235933	2.298340	0.469202	99
Es	-0.114671	-0.387850	-0.032110	99
Es	-1.641911	0.264462	0.342561	99
Es	0.651726	-1.015322	-0.997620	99
Es	-2.027703	0.307998	0.705318	99
Es	0.139750	-1.346661	-0.942842	99
Es	-1.436343	0.096224	0.741692	99
Es	-0.487614	0.039674	0.786216	99
Es	-0.449754	0.113643	0.712942	99
Es	0.336217	-0.425889	1.606451	99
Es	-0.129529	1.004259	0.753193	99
Es	0.175483	-0.442255	2.106159	99
37
Properties=species:S:1:pos:R:3:Z:I:1 energy=-715.8189355850316 field_type=dipole dipole="0.000000 0.000000 0.000000" charge=0
O	-1.899877	0.129297	0.523835	8
S	-0.487517	0.039667	0.786315	16
O	0.209842	-0.604192	1.868375	8
C	0.126583	-0.804643	-0.637765	6
C	0.543763	-1.382602	-1.607095	6
C	0.099953	1.714177	0.778015	6
N	0.498123	2.809587	0.750805	7
H	0.909133	-1.901292	-2.462485	1
Es	-0.461872	0.010908	0.890319	99
Es	-1.427356	0.100530	0.733266	99
Es	-0.592128	0.068255	0.790780	99
Es	-0.469542	-0.058917	0.702940	99
Es	0.545141	2.211067	0.912695	99
Es	-0.114915	-0.387933	-0.032212	99
Es	0.126438	-0.804413	-0.637422	99
Es	0.650613	-1.004938	-1.002256	99
Es	0.049480	2.349952	0.919854	99
Es	-0.129962	1.004205	0.754540	99
Es	0.169340	-0.444143	2.106498	99
Es	0.149998	-1.349985	-0.936601	99
Es	0.611499	3.150887	0.756828	99
Es	0.338053	-0.424445	1.611340	99
Es	-1.899516	0.129279	0.523929	99
Es	-0.426026	0.138850	0.760696	99
Es	-2.022206	0.310432	0.709847	99
Es	-0.487543	0.039589	0.786283	99
Es	0.497963	2.809143	0.750816	99
Es	0.147157	-0.872432	1.716344	99
Es	0.209708	-0.604059	1.868162	99
Es	-0.134222	-0.370112	1.560238	99
Es	0.316085	2.260384	0.457971	99
Es	0.543826	-1.382717	-1.607242	99
Es	-1.653012	0.259506	0.334704	99
Es	0.153020	-0.857465	-1.309880	99
Es	0.775684	-1.720501	-2.154159	99
Es	-1.859087	-0.180198	0.448279	99
Es	0.099806	1.713710	0.778010	99
37
Properties=species:S:1:pos:R:3:Z:I:1 energy=-715.8189355850316 field_type=dipole dipole="0.000000 0.000000 0.000000" charge=0
O	-1.899877	0.129297	0.523835	8
S	-0.487517	0.039667	0.786315	16
O	0.209842	-0.604192	1.868375	8
C	0.126583	-0.804643	-0.637765	6
C	0.543763	-1.382602	-1.607095	6
C	0.099953	1.714177	0.778015	6
N	0.498123	2.809587	0.750805	7
H	0.909133	-1.901292	-2.462485	1
Es	0.042812	-0.995847	-1.284071	99
Es	-1.899605	0.129286	0.523862	99
Es	-0.596153	0.051478	0.779464	99
Es	0.497956	2.809129	0.750816	99
Es	-0.487659	0.039775	0.786329	99
Es	0.777131	-1.720209	-2.153835	99
Es	-1.851147	-0.178242	0.440103	99
Es	-1.655693	0.262306	0.341185	99
Es	0.543824	-1.382718	-1.607245	99
Es	-1.425799	0.101853	0.733195	99
Es	0.613211	3.150074	0.757090	99
Es	-0.132786	1.005231	0.753187	99
Es	0.317658	-1.357795	-0.881995	99
Es	0.102926	2.364012	0.574738	99
Es	0.099796	1.713706	0.778000	99
Es	-0.130308	-0.364971	1.563449	99
Es	-0.453327	0.066480	0.900991	99
Es	0.209699	-0.604051	1.868154	99
Es	0.235543	2.280642	1.066359	99
Es	0.129950	-0.869724	1.718130	99
Es	-2.029102	0.304178	0.711879	99
Es	-0.448221	0.117184	0.721602	99
Es	0.165810	-0.448986	2.105440	99
Es	-0.451789	-0.076226	0.742647	99
Es	0.573408	2.176510	0.650501	99
Es	0.354942	-0.427303	1.607266	99
Es	0.126423	-0.804435	-0.637418	99
Es	0.594710	-0.857354	-1.083225	99
Es	-0.117789	-0.389543	-0.032029	99
