47
Properties=species:S:1:pos:R:3:Z:I:1 energy=-305.2754100018947 field_type=dipole dipole="0.000000 0.000000 0.000000" charge=0
C	-1.846066	0.396579	0.063734	6
C	-0.332796	0.296549	-0.129046	6
C	0.044294	0.375629	-1.610416	6
N	0.387524	1.357399	0.642464	7
C	1.368884	0.343909	1.104714	6
C	0.334724	-0.760281	0.810634	6
N	0.950764	-1.865471	0.072924	7
H	-2.124196	0.420289	1.123614	1
H	-2.347796	-0.465571	-0.389016	1
H	-2.247166	1.302639	-0.404556	1
H	1.128644	0.385859	-1.765816	1
H	-0.358536	1.286349	-2.070016	1
H	-0.363896	-0.479581	-2.160226	1
H	-0.158656	1.750859	1.409694	1
H	2.284083	0.333349	0.499894	1
H	1.658774	0.443819	2.156604	1
H	-0.257086	-1.064141	1.681034	1
H	1.603074	-1.578711	-0.656356	1
H	0.275434	-2.479471	-0.379856	1
Es	0.950447	-1.865138	0.072547	99
Es	-0.332766	0.296667	-0.128998	99
Es	0.524073	-2.213279	-0.211854	99
Es	-0.058630	-0.294172	0.296885	99
Es	0.839415	0.955447	0.882279	99
Es	-1.846074	0.396570	0.063732	99
Es	-0.234585	0.991240	-1.911019	99
Es	1.131982	-2.061136	0.294252	99
Es	-2.116370	1.014284	-0.256190	99
Es	-2.183627	-0.194971	-0.246481	99
Es	0.033615	0.938415	0.306484	99
Es	-0.076658	-0.966434	1.396936	99
Es	-1.106472	0.349719	-0.037874	99
Es	0.044290	0.375608	-1.610392	99
Es	-0.130070	0.316297	-0.873092	99
Es	0.907527	-0.273017	1.002181	99
Es	-0.237230	-0.212541	-1.981017	99
Es	0.784502	0.376063	-1.709047	99
Es	0.047461	1.555628	1.119073	99
Es	1.318854	-1.661814	-0.373058	99
Es	0.665993	-1.393242	0.364766	99
Es	1.986880	0.324473	0.678740	99
Es	1.368779	0.343997	1.104680	99
Es	1.569308	0.416025	1.828560	99
Es	0.387300	1.356918	0.642824	99
Es	0.334804	-0.760376	0.810534	99
Es	0.521683	1.631495	0.444711	99
Es	-2.026605	0.412126	0.792923	99
47
Properties=species:S:1:pos:R:3:Z:I:1 energy=-305.2754100018947 field_type=dipole dipole="0.000000 0.000000 0.000000" charge=0
C	-1.846066	0.396579	0.063734	6
C	-0.332796	0.296549	-0.129046	6
C	0.044294	0.375629	-1.610416	6
N	0.387524	1.357399	0.642464	7
C	1.368884	0.343909	1.104714	6
C	0.334724	-0.760281	0.810634	6
N	0.950764	-1.865471	0.072924	7
H	-2.124196	0.420289	1.123614	1
H	-2.347796	-0.465571	-0.389016	1
H	-2.247166	1.302639	-0.404556	1
H	1.128644	0.385859	-1.765816	1
H	-0.358536	1.286349	-2.070016	1
H	-0.363896	-0.479581	-2.160226	1
H	-0.158656	1.750859	1.409694	1
H	2.284083	0.333349	0.499894	1
H	1.658774	0.443819	2.156604	1
H	-0.257086	-1.064141	1.681034	1
H	1.603074	-1.578711	-0.656356	1
H	0.275434	-2.479471	-0.379856	1
Es	0.784681	0.376371	-1.709341	99
Es	-1.106522	0.349703	-0.037943	99
Es	-2.026852	0.412520	0.793447	99
Es	-0.076688	-0.966421	1.396871	99
Es	1.986758	0.324406	0.678463	99
Es	0.334802	-0.760377	0.810533	99
Es	-2.116024	1.013578	-0.256158	99
Es	0.387310	1.356954	0.642814	99
Es	1.320051	-1.662090	-0.372464	99
Es	0.044290	0.375608	-1.610392	99
Es	0.523629	-2.212484	-0.212590	99
Es	1.368774	0.343998	1.104678	99
Es	1.130630	-2.061574	0.293306	99
Es	-0.234338	0.990521	-1.910884	99
Es	-0.130251	0.316341	-0.872927	99
Es	0.950455	-1.865139	0.072550	99
Es	-1.846076	0.396570	0.063728	99
Es	0.840987	0.956033	0.881423	99
Es	1.569312	0.416051	1.829144	99
Es	0.666549	-1.393313	0.365805	99
Es	0.907616	-0.272622	1.002052	99
Es	-2.183782	-0.194776	-0.246713	99
Es	0.047252	1.557512	1.119558	99
Es	-0.058670	-0.293777	0.296865	99
Es	-0.237349	-0.212364	-1.981290	99
Es	0.520280	1.628658	0.446240	99
Es	0.033776	0.938293	0.305304	99
Es	-0.332770	0.296670	-0.128994	99
47
Properties=species:S:1:pos:R:3:Z:I:1 energy=-305.2754100018947 field_type=dipole dipole="0.000000 0.000000 0.000000" charge=0
C	-1.846066	0.396579	0.063734	6
C	-0.332796	0.296549	-0.129046	6
C	0.044294	0.375629	-1.610416	6
N	0.387524	1.357399	0.642464	7
C	1.368884	0.343909	1.104714	6
C	0.334724	-0.760281	0.810634	6
N	0.950764	-1.865471	0.072924	7
H	-2.124196	0.420289	1.123614	1
H	-2.347796	-0.465571	-0.389016	1
H	-2.247166	1.302639	-0.404556	1
H	1.128644	0.385859	-1.765816	1
H	-0.358536	1.286349	-2.070016	1
H	-0.363896	-0.479581	-2.160226	1
H	-0.158656	1.750859	1.409694	1
H	2.284083	0.333349	0.499894	1
H	1.658774	0.443819	2.156604	1
H	-0.257086	-1.064141	1.681034	1
H	1.603074	-1.578711	-0.656356	1
H	0.275434	-2.479471	-0.379856	1
Es	0.044290	0.375608	-1.610392	99
Es	0.033942	0.938850	0.303498	99
Es	-0.058844	-0.293373	0.296851	99
Es	0.950453	-1.865133	0.072537	99
Es	-2.027122	0.412584	0.793852	99
Es	-0.237463	-0.212160	-1.981434	99
Es	0.046966	1.557766	1.119726	99
Es	1.569325	0.416053	1.829488	99
Es	-1.106521	0.349697	-0.038006	99
Es	0.334804	-0.760375	0.810534	99
Es	-0.130170	0.316246	-0.872857	99
Es	-1.846075	0.396570	0.063732	99
Es	0.784769	0.376492	-1.709629	99
Es	1.319883	-1.662030	-0.372472	99
Es	-2.183801	-0.194511	-0.247052	99
Es	0.520279	1.627694	0.448175	99
Es	0.387352	1.356998	0.642754	99
Es	-0.234187	0.990103	-1.910767	99
Es	1.986687	0.324422	0.678223	99
Es	0.523505	-2.212143	-0.212719	99
Es	-2.115787	1.013118	-0.256022	99
Es	-0.076661	-0.966466	1.396876	99
Es	0.666937	-1.393309	0.366740	99
Es	1.368773	0.344002	1.104679	99
Es	0.840985	0.955790	0.881282	99
Es	-0.332771	0.296671	-0.128989	99
Es	0.907671	-0.272388	1.001999	99
Es	1.130609	-2.061926	0.292478	99
47
Properties=species:S:1:pos:R:3:Z:I:1 energy=-305.2754100018947 field_type=dipole dipole="0.000000 0.000000 0.000000" charge=0
C	-1.846066	0.396579	0.063734	6
C	-0.332796	0.296549	-0.129046	6
C	0.044294	0.375629	-1.610416	6
N	0.387524	1.357399	0.642464	7
C	1.368884	0.343909	1.104714	6
C	0.334724	-0.760281	0.810634	6
N	0.950764	-1.865471	0.072924	7
H	-2.124196	0.420289	1.123614	1
H	-2.347796	-0.465571	-0.389016	1
H	-2.247166	1.302639	-0.404556	1
H	1.128644	0.385859	-1.765816	1
H	-0.358536	1.286349	-2.070016	1
H	-0.363896	-0.479581	-2.160226	1
H	-0.158656	1.750859	1.409694	1
H	2.284083	0.333349	0.499894	1
H	1.658774	0.443819	2.156604	1
H	-0.257086	-1.064141	1.681034	1
H	1.603074	-1.578711	-0.656356	1
H	0.275434	-2.479471	-0.379856	1
Es	-2.115541	1.012805	-0.255895	99
Es	0.907681	-0.272152	1.001760	99
Es	-0.058905	-0.293180	0.296680	99
Es	0.784763	0.376652	-1.709697	99
Es	-0.076548	-0.966454	1.396994	99
Es	-0.130257	0.316314	-0.872780	99
Es	-0.237517	-0.212090	-1.981699	99
Es	0.950452	-1.865147	0.072551	99
Es	0.047054	1.558292	1.119955	99
Es	1.368774	0.344000	1.104676	99
Es	0.044291	0.375609	-1.610394	99
Es	0.334803	-0.760375	0.810533	99
Es	0.841623	0.955942	0.880773	99
Es	1.320005	-1.661955	-0.372187	99
Es	-1.846074	0.396570	0.063731	99
Es	1.130380	-2.062588	0.291969	99
Es	0.033905	0.938994	0.302587	99
Es	-0.332770	0.296669	-0.128994	99
Es	-0.234002	0.989840	-1.910613	99
Es	0.387297	1.356937	0.642826	99
Es	1.569337	0.415977	1.829857	99
Es	1.986570	0.324288	0.678086	99
Es	-2.027363	0.412648	0.794078	99
Es	-2.183845	-0.194350	-0.247350	99
Es	0.667319	-1.393411	0.367505	99
Es	-1.106596	0.349759	-0.037891	99
Es	0.519775	1.626661	0.449281	99
Es	0.523217	-2.211402	-0.213258	99
47
Properties=species:S:1:pos:R:3:Z:I:1 energy=-305.2754100018947 field_type=dipole dipole="0.000000 0.000000 0.000000" charge=0
C	-1.846066	0.396579	0.063734	6
C	-0.332796	0.296549	-0.129046	6
C	0.044294	0.375629	-1.610416	6
N	0.387524	1.357399	0.642464	7
C	1.368884	0.343909	1.104714	6
C	0.334724	-0.760281	0.810634	6
N	0.950764	-1.865471	0.072924	7
H	-2.124196	0.420289	1.123614	1
H	-2.347796	-0.465571	-0.389016	1
H	-2.247166	1.302639	-0.404556	1
H	1.128644	0.385859	-1.765816	1
H	-0.358536	1.286349	-2.070016	1
H	-0.363896	-0.479581	-2.160226	1
H	-0.158656	1.750859	1.409694	1
H	2.284083	0.333349	0.499894	1
H	1.658774	0.443819	2.156604	1
H	-0.257086	-1.064141	1.681034	1
H	1.603074	-1.578711	-0.656356	1
H	0.275434	-2.479471	-0.379856	1
Es	-0.076530	-0.966489	1.396879	99
Es	-1.106447	0.349762	-0.038128	99
Es	-2.027424	0.412786	0.794272	99
Es	-2.115490	1.012455	-0.255812	99
Es	1.986490	0.324265	0.677918	99
Es	-1.846072	0.396569	0.063729	99
Es	0.522931	-2.210438	-0.213718	99
Es	0.387303	1.356949	0.642798	99
Es	0.046990	1.558471	1.120188	99
Es	0.784835	0.376741	-1.709817	99
Es	1.569404	0.416032	1.830007	99
Es	1.319624	-1.661661	-0.372110	99
Es	0.907682	-0.271968	1.001892	99
Es	1.130609	-2.063593	0.291490	99
Es	-0.130274	0.316325	-0.872756	99
Es	0.667818	-1.393648	0.368379	99
Es	1.368774	0.343998	1.104678	99
Es	-0.059032	-0.293085	0.296750	99
Es	-2.183964	-0.194164	-0.247358	99
Es	-0.332769	0.296669	-0.128995	99
Es	0.842024	0.956111	0.880431	99
Es	0.033972	0.939203	0.301649	99
Es	0.519344	1.625935	0.450358	99
Es	0.334796	-0.760378	0.810532	99
Es	-0.237621	-0.212035	-1.981791	99
Es	0.044290	0.375608	-1.610393	99
Es	0.950445	-1.865145	0.072542	99
Es	-0.233879	0.989575	-1.910532	99
47
Properties=species:S:1:pos:R:3:Z:I:1 energy=-305.2754100018947 field_type=dipole dipole="0.000000 0.000000 0.000000" charge=0
C	-1.846066	0.396579	0.063734	6
C	-0.332796	0.296549	-0.129046	6
C	0.044294	0.375629	-1.610416	6
N	0.387524	1.357399	0.642464	7
C	1.368884	0.343909	1.104714	6
C	0.334724	-0.760281	0.810634	6
N	0.950764	-1.865471	0.072924	7
H	-2.124196	0.420289	1.123614	1
H	-2.347796	-0.465571	-0.389016	1
H	-2.247166	1.302639	-0.404556	1
H	1.128644	0.385859	-1.765816	1
H	-0.358536	1.286349	-2.070016	1
H	-0.363896	-0.479581	-2.160226	1
H	-0.158656	1.750859	1.409694	1
H	2.284083	0.333349	0.499894	1
H	1.658774	0.443819	2.156604	1
H	-0.257086	-1.064141	1.681034	1
H	1.603074	-1.578711	-0.656356	1
H	0.275434	-2.479471	-0.379856	1
Es	-0.237609	-0.211865	-1.981807	99
Es	0.668162	-1.393690	0.369076	99
Es	1.986339	0.324282	0.677898	99
Es	1.368774	0.343999	1.104678	99
Es	0.950455	-1.865128	0.072529	99
Es	0.842403	0.955880	0.880340	99
Es	-0.076521	-0.966492	1.396826	99
Es	-2.115437	1.012397	-0.255924	99
Es	0.387307	1.356943	0.642814	99
Es	0.784929	0.376740	-1.709900	99
Es	0.046974	1.559112	1.120085	99
Es	0.044290	0.375608	-1.610392	99
Es	-0.130338	0.316245	-0.872751	99
Es	-2.027417	0.412873	0.794406	99
Es	0.519087	1.625036	0.450958	99
Es	0.033921	0.939531	0.301232	99
Es	1.320450	-1.661921	-0.372026	99
Es	-1.846075	0.396570	0.063732	99
Es	-0.332770	0.296670	-0.128995	99
Es	-1.106588	0.349703	-0.038094	99
Es	0.522707	-2.210109	-0.213774	99
Es	1.569441	0.416043	1.830299	99
Es	1.129599	-2.063626	0.290803	99
Es	-2.183888	-0.194212	-0.247367	99
Es	-0.059098	-0.292890	0.296644	99
Es	0.907791	-0.271920	1.001787	99
Es	-0.233864	0.989446	-1.910525	99
Es	0.334804	-0.760374	0.810533	99
47
Properties=species:S:1:pos:R:3:Z:I:1 energy=-305.2754100018947 field_type=dipole dipole="0.000000 0.000000 0.000000" charge=0
C	-1.846066	0.396579	0.063734	6
C	-0.332796	0.296549	-0.129046	6
C	0.044294	0.375629	-1.610416	6
N	0.387524	1.357399	0.642464	7
C	1.368884	0.343909	1.104714	6
C	0.334724	-0.760281	0.810634	6
N	0.950764	-1.865471	0.072924	7
H	-2.124196	0.420289	1.123614	1
H	-2.347796	-0.465571	-0.389016	1
H	-2.247166	1.302639	-0.404556	1
H	1.128644	0.385859	-1.765816	1
H	-0.358536	1.286349	-2.070016	1
H	-0.363896	-0.479581	-2.160226	1
H	-0.158656	1.750859	1.409694	1
H	2.284083	0.333349	0.499894	1
H	1.658774	0.443819	2.156604	1
H	-0.257086	-1.064141	1.681034	1
H	1.603074	-1.578711	-0.656356	1
H	0.275434	-2.479471	-0.379856	1
Es	-1.106519	0.349727	-0.038111	99
Es	0.046891	1.559071	1.120359	99
Es	1.130407	-2.063639	0.291976	99
Es	-0.233827	0.989167	-1.910437	99
Es	0.034111	0.939680	0.300562	99
Es	1.986280	0.324236	0.677798	99
Es	-2.027573	0.412940	0.794586	99
Es	-1.846075	0.396570	0.063732	99
Es	0.044289	0.375608	-1.610390	99
Es	-2.115310	1.012092	-0.255806	99
Es	0.667608	-1.393618	0.367948	99
Es	0.518831	1.624660	0.451642	99
Es	1.569458	0.416048	1.830445	99
Es	0.907857	-0.271736	1.001695	99
Es	-0.130339	0.316307	-0.872691	99
Es	-0.332770	0.296668	-0.128993	99
Es	0.784890	0.376974	-1.710025	99
Es	0.387284	1.356937	0.642843	99
Es	0.842613	0.956020	0.879964	99
Es	0.950461	-1.865153	0.072547	99
Es	-0.237622	-0.211945	-1.981915	99
Es	-0.076474	-0.966522	1.396888	99
Es	1.368773	0.343999	1.104679	99
Es	-0.059164	-0.292836	0.296629	99
Es	0.522964	-2.210341	-0.214045	99
Es	1.319938	-1.661664	-0.371814	99
Es	-2.183958	-0.194028	-0.247512	99
Es	0.334800	-0.760374	0.810532	99
47
Properties=species:S:1:pos:R:3:Z:I:1 energy=-305.2754100018947 field_type=dipole dipole="0.000000 0.000000 0.000000" charge=0
C	-1.846066	0.396579	0.063734	6
C	-0.332796	0.296549	-0.129046	6
C	0.044294	0.375629	-1.610416	6
N	0.387524	1.357399	0.642464	7
C	1.368884	0.343909	1.104714	6
C	0.334724	-0.760281	0.810634	6
N	0.950764	-1.865471	0.072924	7
H	-2.124196	0.420289	1.123614	1
H	-2.347796	-0.465571	-0.389016	1
H	-2.247166	1.302639	-0.404556	1
H	1.128644	0.385859	-1.765816	1
H	-0.358536	1.286349	-2.070016	1
H	-0.363896	-0.479581	-2.160226	1
H	-0.158656	1.750859	1.409694	1
H	2.284083	0.333349	0.499894	1
H	1.658774	0.443819	2.156604	1
H	-0.257086	-1.064141	1.681034	1
H	1.603074	-1.578711	-0.656356	1
H	0.275434	-2.479471	-0.379856	1
Es	0.034213	0.939970	0.299826	99
Es	1.569445	0.415979	1.830579	99
Es	-2.115179	1.011966	-0.255766	99
Es	1.320217	-1.661775	-0.371571	99
Es	-1.106533	0.349708	-0.038107	99
Es	0.387306	1.356931	0.642811	99
Es	-0.059104	-0.292733	0.296632	99
Es	-0.237768	-0.211852	-1.982031	99
Es	1.368772	0.344001	1.104678	99
Es	1.986247	0.324204	0.677772	99
Es	0.843030	0.956064	0.879881	99
Es	-0.332769	0.296669	-0.128995	99
Es	-0.076501	-0.966462	1.396934	99
Es	0.044290	0.375608	-1.610392	99
Es	0.518466	1.624609	0.452535	99
Es	0.046757	1.558719	1.120346	99
Es	1.130125	-2.063946	0.291996	99
Es	-2.184000	-0.193948	-0.247624	99
Es	0.950454	-1.865142	0.072541	99
Es	0.522689	-2.209918	-0.214360	99
Es	0.784874	0.376930	-1.710114	99
Es	-2.027656	0.412991	0.794693	99
Es	-0.233634	0.989057	-1.910353	99
Es	-0.130331	0.316380	-0.872632	99
Es	0.334803	-0.760377	0.810534	99
Es	0.907843	-0.271679	1.001555	99
Es	-1.846073	0.396570	0.063731	99
Es	0.667845	-1.393672	0.367984	99
47
Properties=species:S:1:pos:R:3:Z:I:1 energy=-305.2754100018947 field_type=dipole dipole="0.000000 0.000000 0.000000" charge=0
C	-1.846066	0.396579	0.063734	6
C	-0.332796	0.296549	-0.129046	6
C	0.044294	0.375629	-1.610416	6
N	0.387524	1.357399	0.642464	7
C	1.368884	0.343909	1.104714	6
C	0.334724	-0.760281	0.810634	6
N	0.950764	-1.865471	0.072924	7
H	-2.124196	0.420289	1.123614	1
H	-2.347796	-0.465571	-0.389016	1
H	-2.247166	1.302639	-0.404556	1
H	1.128644	0.385859	-1.765816	1
H	-0.358536	1.286349	-2.070016	1
H	-0.363896	-0.479581	-2.160226	1
H	-0.158656	1.750859	1.409694	1
H	2.284083	0.333349	0.499894	1
H	1.658774	0.443819	2.156604	1
H	-0.257086	-1.064141	1.681034	1
H	1.603074	-1.578711	-0.656356	1
H	0.275434	-2.479471	-0.379856	1
Es	0.046919	1.559801	1.120236	99
Es	0.387301	1.356964	0.642820	99
Es	-0.233469	0.988938	-1.910258	99
Es	-2.184001	-0.193881	-0.247648	99
Es	-0.332770	0.296669	-0.128993	99
Es	0.668074	-1.393675	0.368470	99
Es	0.784989	0.376873	-1.710129	99
Es	-1.106489	0.349739	-0.038148	99
Es	-0.076478	-0.966539	1.396886	99
Es	0.034024	0.939790	0.299937	99
Es	1.368775	0.343999	1.104679	99
Es	-2.115157	1.011735	-0.255746	99
Es	1.130817	-2.064551	0.291764	99
Es	0.518959	1.623738	0.452304	99
Es	1.319402	-1.661509	-0.371720	99
Es	0.950464	-1.865154	0.072542	99
Es	1.986181	0.324252	0.677669	99
Es	1.569474	0.415959	1.830726	99
Es	0.044289	0.375606	-1.610392	99
Es	0.907960	-0.271557	1.001559	99
Es	-1.846075	0.396570	0.063732	99
Es	-2.027766	0.413081	0.794765	99
Es	0.334802	-0.760376	0.810533	99
Es	-0.059189	-0.292638	0.296580	99
Es	0.842496	0.955845	0.880135	99
Es	-0.237892	-0.211699	-1.982142	99
Es	0.522602	-2.209485	-0.214436	99
Es	-0.130412	0.316357	-0.872640	99
47
Properties=species:S:1:pos:R:3:Z:I:1 energy=-305.2754100018947 field_type=dipole dipole="0.000000 0.000000 0.000000" charge=0
C	-1.846066	0.396579	0.063734	6
C	-0.332796	0.296549	-0.129046	6
C	0.044294	0.375629	-1.610416	6
N	0.387524	1.357399	0.642464	7
C	1.368884	0.343909	1.104714	6
C	0.334724	-0.760281	0.810634	6
N	0.950764	-1.865471	0.072924	7
H	-2.124196	0.420289	1.123614	1
H	-2.347796	-0.465571	-0.389016	1
H	-2.247166	1.302639	-0.404556	1
H	1.128644	0.385859	-1.765816	1
H	-0.358536	1.286349	-2.070016	1
H	-0.363896	-0.479581	-2.160226	1
H	-0.158656	1.750859	1.409694	1
H	2.284083	0.333349	0.499894	1
H	1.658774	0.443819	2.156604	1
H	-0.257086	-1.064141	1.681034	1
H	1.603074	-1.578711	-0.656356	1
H	0.275434	-2.479471	-0.379856	1
Es	0.034099	0.940143	0.299346	99
Es	-0.130340	0.316332	-0.872574	99
Es	0.387308	1.356948	0.642809	99
Es	0.518515	1.624003	0.453081	99
Es	1.130690	-2.064515	0.291660	99
Es	0.046943	1.559085	1.120551	99
Es	-2.115144	1.011622	-0.255709	99
Es	-1.846073	0.396570	0.063733	99
Es	-0.076381	-0.966526	1.396845	99
Es	0.334803	-0.760376	0.810534	99
Es	0.908033	-0.271501	1.001602	99
Es	1.368774	0.343999	1.104679	99
Es	-1.106460	0.349886	-0.038190	99
Es	0.044289	0.375610	-1.610390	99
Es	-0.233540	0.988797	-1.910249	99
Es	1.986158	0.324199	0.677633	99
Es	-0.059377	-0.292597	0.296573	99
Es	-0.237844	-0.211737	-1.982131	99
Es	-2.183991	-0.193897	-0.247701	99
Es	0.842886	0.955848	0.879597	99
Es	0.522620	-2.209439	-0.214262	99
Es	1.319450	-1.661651	-0.371875	99
Es	0.668042	-1.393572	0.368473	99
Es	0.950516	-1.865209	0.072641	99
Es	-2.027815	0.413122	0.794799	99
Es	-0.332770	0.296670	-0.128996	99
Es	1.569455	0.416014	1.830832	99
Es	0.784982	0.377023	-1.710225	99
47
Properties=species:S:1:pos:R:3:Z:I:1 energy=-305.2754100018947 field_type=dipole dipole="0.000000 0.000000 0.000000" charge=0
C	-1.846066	0.396579	0.063734	6
C	-0.332796	0.296549	-0.129046	6
C	0.044294	0.375629	-1.610416	6
N	0.387524	1.357399	0.642464	7
C	1.368884	0.343909	1.104714	6
C	0.334724	-0.760281	0.810634	6
N	0.950764	-1.865471	0.072924	7
H	-2.124196	0.420289	1.123614	1
H	-2.347796	-0.465571	-0.389016	1
H	-2.247166	1.302639	-0.404556	1
H	1.128644	0.385859	-1.765816	1
H	-0.358536	1.286349	-2.070016	1
H	-0.363896	-0.479581	-2.160226	1
H	-0.158656	1.750859	1.409694	1
H	2.284083	0.333349	0.499894	1
H	1.658774	0.443819	2.156604	1
H	-0.257086	-1.064141	1.681034	1
H	1.603074	-1.578711	-0.656356	1
H	0.275434	-2.479471	-0.379856	1
Es	0.044290	0.375608	-1.610392	99
Es	0.518077	1.623495	0.453356	99
Es	0.843385	0.956070	0.879655	99
Es	1.319535	-1.661426	-0.371779	99
Es	-0.130490	0.316485	-0.872706	99
Es	0.034044	0.939954	0.299216	99
Es	0.334803	-0.760369	0.810534	99
Es	-2.027812	0.413145	0.794865	99
Es	-0.332767	0.296668	-0.128993	99
Es	0.046938	1.559440	1.120341	99
Es	0.908029	-0.271397	1.001477	99
Es	-1.106372	0.349842	-0.038118	99
Es	1.368774	0.343999	1.104679	99
Es	0.387319	1.356951	0.642797	99
Es	0.668219	-1.393791	0.368774	99
Es	-0.076448	-0.966580	1.396896	99
Es	1.569503	0.416026	1.830939	99
Es	1.130661	-2.064735	0.291530	99
Es	-2.184031	-0.193827	-0.247705	99
Es	-0.237930	-0.211669	-1.982112	99
Es	0.785071	0.376985	-1.710280	99
Es	-0.233506	0.988724	-1.910215	99
Es	1.986067	0.324184	0.677619	99
Es	-0.059299	-0.292725	0.296620	99
Es	0.522481	-2.209239	-0.214461	99
Es	-1.846075	0.396570	0.063732	99
Es	-2.115080	1.011600	-0.255716	99
Es	0.950442	-1.865136	0.072533	99
47
Properties=species:S:1:pos:R:3:Z:I:1 energy=-305.2754100018947 field_type=dipole dipole="0.000000 0.000000 0.000000" charge=0
C	-1.846066	0.396579	0.063734	6
C	-0.332796	0.296549	-0.129046	6
C	0.044294	0.375629	-1.610416	6
N	0.387524	1.357399	0.642464	7
C	1.368884	0.343909	1.104714	6
C	0.334724	-0.760281	0.810634	6
N	0.950764	-1.865471	0.072924	7
H	-2.124196	0.420289	1.123614	1
H	-2.347796	-0.465571	-0.389016	1
H	-2.247166	1.302639	-0.404556	1
H	1.128644	0.385859	-1.765816	1
H	-0.358536	1.286349	-2.070016	1
H	-0.363896	-0.479581	-2.160226	1
H	-0.158656	1.750859	1.409694	1
H	2.284083	0.333349	0.499894	1
H	1.658774	0.443819	2.156604	1
H	-0.257086	-1.064141	1.681034	1
H	1.603074	-1.578711	-0.656356	1
H	0.275434	-2.479471	-0.379856	1
Es	-1.846076	0.396571	0.063732	99
Es	0.950518	-1.865207	0.072628	99
Es	-0.237927	-0.211729	-1.982311	99
Es	0.522322	-2.208997	-0.214502	99
Es	0.387312	1.356959	0.642804	99
Es	-0.076376	-0.966548	1.396845	99
Es	-0.233392	0.988777	-1.910130	99
Es	0.784920	0.377041	-1.710210	99
Es	1.986130	0.324165	0.677552	99
Es	-2.115025	1.011548	-0.255694	99
Es	0.034209	0.940242	0.298946	99
Es	0.046791	1.559352	1.120467	99
Es	-0.059351	-0.292436	0.296577	99
Es	0.334804	-0.760374	0.810534	99
Es	-0.332770	0.296670	-0.128995	99
Es	0.668401	-1.393878	0.368777	99
Es	-1.106522	0.349704	-0.038227	99
Es	1.368774	0.343999	1.104679	99
Es	0.843501	0.956111	0.879528	99
Es	0.908023	-0.271381	1.001588	99
Es	-0.130352	0.316235	-0.872610	99
Es	1.319663	-1.661437	-0.371793	99
Es	-2.027822	0.413127	0.794979	99
Es	0.044290	0.375608	-1.610392	99
Es	1.130456	-2.064842	0.291528	99
Es	0.517904	1.623357	0.453617	99
Es	-2.184024	-0.193760	-0.247779	99
Es	1.569446	0.415976	1.830947	99
47
Properties=species:S:1:pos:R:3:Z:I:1 energy=-305.2754100018947 field_type=dipole dipole="0.000000 0.000000 0.000000" charge=0
C	-1.846066	0.396579	0.063734	6
C	-0.332796	0.296549	-0.129046	6
C	0.044294	0.375629	-1.610416	6
N	0.387524	1.357399	0.642464	7
C	1.368884	0.343909	1.104714	6
C	0.334724	-0.760281	0.810634	6
N	0.950764	-1.865471	0.072924	7
H	-2.124196	0.420289	1.123614	1
H	-2.347796	-0.465571	-0.389016	1
H	-2.247166	1.302639	-0.404556	1
H	1.128644	0.385859	-1.765816	1
H	-0.358536	1.286349	-2.070016	1
H	-0.363896	-0.479581	-2.160226	1
H	-0.158656	1.750859	1.409694	1
H	2.284083	0.333349	0.499894	1
H	1.658774	0.443819	2.156604	1
H	-0.257086	-1.064141	1.681034	1
H	1.603074	-1.578711	-0.656356	1
H	0.275434	-2.479471	-0.379856	1
Es	1.368777	0.343998	1.104679	99
Es	-0.059397	-0.292503	0.296495	99
Es	0.034210	0.940257	0.298547	99
Es	-0.076344	-0.966565	1.396904	99
Es	1.986018	0.324124	0.677604	99
Es	0.522321	-2.209001	-0.214533	99
Es	0.784927	0.377000	-1.710330	99
Es	0.387301	1.356940	0.642822	99
Es	-2.115044	1.011523	-0.255744	99
Es	-2.027852	0.413157	0.794978	99
Es	0.517662	1.622878	0.454118	99
Es	0.908028	-0.271384	1.001422	99
Es	-0.237891	-0.211671	-1.982185	99
Es	1.569517	0.415948	1.831023	99
Es	-2.183999	-0.193752	-0.247731	99
Es	0.668379	-1.393973	0.369212	99
Es	-0.332770	0.296670	-0.128994	99
Es	0.950478	-1.865204	0.072594	99
Es	0.046826	1.559593	1.120433	99
Es	0.334810	-0.760374	0.810536	99
Es	0.843843	0.956328	0.879439	99
Es	-1.846075	0.396570	0.063731	99
Es	0.044290	0.375608	-1.610392	99
Es	-1.106471	0.349737	-0.038159	99
Es	1.319865	-1.661354	-0.371777	99
Es	-0.233425	0.988696	-1.910243	99
Es	1.130243	-2.064772	0.291196	99
Es	-0.130398	0.316377	-0.872560	99
47
Properties=species:S:1:pos:R:3:Z:I:1 energy=-305.2754100018947 field_type=dipole dipole="0.000000 0.000000 0.000000" charge=0
C	-1.846066	0.396579	0.063734	6
C	-0.332796	0.296549	-0.129046	6
C	0.044294	0.375629	-1.610416	6
N	0.387524	1.357399	0.642464	7
C	1.368884	0.343909	1.104714	6
C	0.334724	-0.760281	0.810634	6
N	0.950764	-1.865471	0.072924	7
H	-2.124196	0.420289	1.123614	1
H	-2.347796	-0.465571	-0.389016	1
H	-2.247166	1.302639	-0.404556	1
H	1.128644	0.385859	-1.765816	1
H	-0.358536	1.286349	-2.070016	1
H	-0.363896	-0.479581	-2.160226	1
H	-0.158656	1.750859	1.409694	1
H	2.284083	0.333349	0.499894	1
H	1.658774	0.443819	2.156604	1
H	-0.257086	-1.064141	1.681034	1
H	1.603074	-1.578711	-0.656356	1
H	0.275434	-2.479471	-0.379856	1
Es	0.908180	-0.271362	1.001389	99
Es	0.044290	0.375608	-1.610392	99
Es	0.784936	0.376962	-1.710437	99
Es	-0.059438	-0.292392	0.296468	99
Es	1.368773	0.344000	1.104681	99
Es	-0.233348	0.988644	-1.910153	99
Es	0.668338	-1.393834	0.369142	99
Es	1.319356	-1.661398	-0.371667	99
Es	1.986039	0.324243	0.677580	99
Es	-0.237979	-0.211540	-1.982253	99
Es	0.950412	-1.865105	0.072498	99
Es	0.334804	-0.760373	0.810534	99
Es	0.034145	0.940215	0.298660	99
Es	-1.106451	0.349626	-0.038149	99
Es	1.569478	0.415932	1.831080	99
Es	-2.027935	0.413142	0.795054	99
Es	0.387307	1.356964	0.642815	99
Es	-0.332770	0.296669	-0.128995	99
Es	-2.184065	-0.193585	-0.247812	99
Es	0.522369	-2.209115	-0.214613	99
Es	0.046952	1.559290	1.120481	99
Es	-2.114949	1.011423	-0.255667	99
Es	1.130799	-2.064878	0.291302	99
Es	0.517644	1.623181	0.454068	99
Es	-0.130394	0.316291	-0.872529	99
Es	-1.846074	0.396570	0.063732	99
Es	0.843726	0.956215	0.879393	99
Es	-0.076318	-0.966542	1.396876	99
47
Properties=species:S:1:pos:R:3:Z:I:1 energy=-305.2754100018947 field_type=dipole dipole="0.000000 0.000000 0.000000" charge=0
C	-1.846066	0.396579	0.063734	6
C	-0.332796	0.296549	-0.129046	6
C	0.044294	0.375629	-1.610416	6
N	0.387524	1.357399	0.642464	7
C	1.368884	0.343909	1.104714	6
C	0.334724	-0.760281	0.810634	6
N	0.950764	-1.865471	0.072924	7
H	-2.124196	0.420289	1.123614	1
H	-2.347796	-0.465571	-0.389016	1
H	-2.247166	1.302639	-0.404556	1
H	1.128644	0.385859	-1.765816	1
H	-0.358536	1.286349	-2.070016	1
H	-0.363896	-0.479581	-2.160226	1
H	-0.158656	1.750859	1.409694	1
H	2.284083	0.333349	0.499894	1
H	1.658774	0.443819	2.156604	1
H	-0.257086	-1.064141	1.681034	1
H	1.603074	-1.578711	-0.656356	1
H	0.275434	-2.479471	-0.379856	1
Es	0.522305	-2.208939	-0.214703	99
Es	0.334803	-0.760374	0.810533	99
Es	-0.332770	0.296671	-0.128995	99
Es	1.368775	0.343998	1.104679	99
Es	1.569512	0.416065	1.831052	99
Es	-0.130420	0.316446	-0.872512	99
Es	-2.027940	0.413260	0.795053	99
Es	1.986055	0.324062	0.677434	99
Es	0.843867	0.956110	0.878952	99
Es	1.131785	-2.065344	0.291211	99
Es	-0.233427	0.988434	-1.910208	99
Es	0.044289	0.375608	-1.610391	99
Es	-1.846075	0.396570	0.063732	99
Es	-0.059396	-0.292391	0.296479	99
Es	-0.237919	-0.211622	-1.982177	99
Es	0.907982	-0.271271	1.001629	99
Es	0.047018	1.559207	1.120823	99
Es	0.387304	1.356943	0.642818	99
Es	-2.184082	-0.193701	-0.247845	99
Es	0.034068	0.940513	0.298397	99
Es	-2.114939	1.011284	-0.255635	99
Es	0.517539	1.623048	0.454390	99
Es	1.318301	-1.660763	-0.371826	99
Es	0.950451	-1.865125	0.072521	99
Es	0.668523	-1.394126	0.369447	99
Es	-0.076356	-0.966584	1.396868	99
Es	-1.106475	0.349753	-0.038211	99
Es	0.785050	0.377118	-1.710430	99
47
Properties=species:S:1:pos:R:3:Z:I:1 energy=-305.2754100018947 field_type=dipole dipole="0.000000 0.000000 0.000000" charge=0
C	-1.846066	0.396579	0.063734	6
C	-0.332796	0.296549	-0.129046	6
C	0.044294	0.375629	-1.610416	6
N	0.387524	1.357399	0.642464	7
C	1.368884	0.343909	1.104714	6
C	0.334724	-0.760281	0.810634	6
N	0.950764	-1.865471	0.072924	7
H	-2.124196	0.420289	1.123614	1
H	-2.347796	-0.465571	-0.389016	1
H	-2.247166	1.302639	-0.404556	1
H	1.128644	0.385859	-1.765816	1
H	-0.358536	1.286349	-2.070016	1
H	-0.363896	-0.479581	-2.160226	1
H	-0.158656	1.750859	1.409694	1
H	2.284083	0.333349	0.499894	1
H	1.658774	0.443819	2.156604	1
H	-0.257086	-1.064141	1.681034	1
H	1.603074	-1.578711	-0.656356	1
H	0.275434	-2.479471	-0.379856	1
Es	-0.237983	-0.211553	-1.982302	99
Es	1.319572	-1.661413	-0.371582	99
Es	0.785021	0.377096	-1.710451	99
Es	0.334804	-0.760375	0.810534	99
Es	1.569579	0.415954	1.831201	99
Es	0.668434	-1.393782	0.369282	99
Es	0.034311	0.940422	0.298183	99
Es	-0.233362	0.988484	-1.910082	99
Es	1.130532	-2.065081	0.291306	99
Es	-1.106469	0.349714	-0.038179	99
Es	-0.332768	0.296667	-0.128996	99
Es	0.517597	1.623016	0.454561	99
Es	-0.059593	-0.292498	0.296393	99
Es	0.950449	-1.865150	0.072527	99
Es	0.387300	1.356958	0.642815	99
Es	-0.130449	0.316377	-0.872543	99
Es	1.985916	0.324090	0.677448	99
Es	-2.114887	1.011342	-0.255642	99
Es	-0.076224	-0.966602	1.396907	99
Es	0.522298	-2.208814	-0.214783	99
Es	1.368777	0.343998	1.104681	99
Es	0.908211	-0.271157	1.001403	99
Es	0.843779	0.956190	0.879205	99
Es	-2.184115	-0.193636	-0.247851	99
Es	-2.027921	0.413235	0.795084	99
Es	0.044290	0.375608	-1.610392	99
Es	0.046802	1.559192	1.120624	99
Es	-1.846074	0.396570	0.063731	99
47
Properties=species:S:1:pos:R:3:Z:I:1 energy=-305.2754100018947 field_type=dipole dipole="0.000000 0.000000 0.000000" charge=0
C	-1.846066	0.396579	0.063734	6
C	-0.332796	0.296549	-0.129046	6
C	0.044294	0.375629	-1.610416	6
N	0.387524	1.357399	0.642464	7
C	1.368884	0.343909	1.104714	6
C	0.334724	-0.760281	0.810634	6
N	0.950764	-1.865471	0.072924	7
H	-2.124196	0.420289	1.123614	1
H	-2.347796	-0.465571	-0.389016	1
H	-2.247166	1.302639	-0.404556	1
H	1.128644	0.385859	-1.765816	1
H	-0.358536	1.286349	-2.070016	1
H	-0.363896	-0.479581	-2.160226	1
H	-0.158656	1.750859	1.409694	1
H	2.284083	0.333349	0.499894	1
H	1.658774	0.443819	2.156604	1
H	-0.257086	-1.064141	1.681034	1
H	1.603074	-1.578711	-0.656356	1
H	0.275434	-2.479471	-0.379856	1
Es	0.843861	0.956092	0.879486	99
Es	-1.106462	0.349778	-0.038190	99
Es	1.569559	0.415971	1.831214	99
Es	-0.332771	0.296672	-0.128997	99
Es	-1.846074	0.396570	0.063732	99
Es	0.950440	-1.865188	0.072557	99
Es	0.517580	1.622459	0.454694	99
Es	1.130372	-2.065019	0.291447	99
Es	0.034108	0.940447	0.298111	99
Es	0.334802	-0.760375	0.810533	99
Es	1.368774	0.343998	1.104680	99
Es	-0.233372	0.988440	-1.910144	99
Es	1.985933	0.324144	0.677433	99
Es	0.044291	0.375609	-1.610396	99
Es	0.046943	1.559802	1.120325	99
Es	0.522079	-2.208719	-0.214791	99
Es	-0.237953	-0.211535	-1.982249	99
Es	-0.130433	0.316367	-0.872530	99
Es	-2.183950	-0.193602	-0.247881	99
Es	-0.076255	-0.966576	1.396927	99
Es	-2.028047	0.413238	0.795195	99
Es	0.387303	1.356937	0.642818	99
Es	1.319794	-1.661531	-0.371548	99
Es	-2.114893	1.011236	-0.255734	99
Es	0.908142	-0.271237	1.001401	99
Es	-0.059578	-0.292404	0.296468	99
Es	0.668615	-1.393815	0.369015	99
Es	0.785022	0.377089	-1.710486	99
47
Properties=species:S:1:pos:R:3:Z:I:1 energy=-305.2754100018947 field_type=dipole dipole="0.000000 0.000000 0.000000" charge=0
C	-1.846066	0.396579	0.063734	6
C	-0.332796	0.296549	-0.129046	6
C	0.044294	0.375629	-1.610416	6
N	0.387524	1.357399	0.642464	7
C	1.368884	0.343909	1.104714	6
C	0.334724	-0.760281	0.810634	6
N	0.950764	-1.865471	0.072924	7
H	-2.124196	0.420289	1.123614	1
H	-2.347796	-0.465571	-0.389016	1
H	-2.247166	1.302639	-0.404556	1
H	1.128644	0.385859	-1.765816	1
H	-0.358536	1.286349	-2.070016	1
H	-0.363896	-0.479581	-2.160226	1
H	-0.158656	1.750859	1.409694	1
H	2.284083	0.333349	0.499894	1
H	1.658774	0.443819	2.156604	1
H	-0.257086	-1.064141	1.681034	1
H	1.603074	-1.578711	-0.656356	1
H	0.275434	-2.479471	-0.379856	1
Es	0.046885	1.560139	1.120507	99
Es	1.569517	0.415955	1.831219	99
Es	-2.028001	0.413269	0.795144	99
Es	-0.059477	-0.292306	0.296421	99
Es	-1.106450	0.349722	-0.038148	99
Es	1.130673	-2.065607	0.291793	99
Es	-0.237921	-0.211582	-1.982286	99
Es	-2.114881	1.011209	-0.255639	99
Es	0.034182	0.940540	0.297890	99
Es	0.044290	0.375608	-1.610392	99