38
Properties=species:S:1:pos:R:3:Z:I:1 energy=-301.80167097470877 field_type=dipole dipole="0.000000 0.000000 0.000000" charge=0
C	-2.145310	0.094313	-0.431663	6
C	-0.838081	0.109143	-0.174683	6
N	0.004529	-0.933407	0.074247	7
C	1.270599	-0.476467	0.289087	6
N	2.322799	-1.161817	0.552117	7
C	1.271469	1.000883	0.171717	6
C	-0.010571	1.303203	-0.105923	6
H	-2.699340	-0.837417	-0.467143	1
H	-2.697940	1.009233	-0.613163	1
H	-0.297820	-1.891457	0.091457	1
H	2.078059	-2.153877	0.582597	1
H	2.128899	1.634583	0.291167	1
H	-0.387290	2.303083	-0.259813	1
Es	-2.515001	0.710402	-0.553431	99
Es	-0.446440	0.723517	-0.145961	99
Es	-2.145365	0.094299	-0.431658	99
Es	0.557533	-0.760634	0.180531	99
Es	0.575993	1.165157	0.343041	99
Es	0.697848	1.116516	-0.272789	99
Es	1.271522	1.000789	0.171733	99
Es	2.156559	-1.765704	0.567438	99
Es	1.843496	1.419088	0.251692	99
Es	1.270394	-0.476449	0.289043	99
Es	-1.568032	0.139699	0.010502	99
Es	-0.279075	1.972525	-0.212208	99
Es	-2.519842	-0.539218	-0.455359	99
Es	2.656934	-1.038547	0.608136	99
Es	1.832820	-0.870556	0.720523	99
Es	-0.010678	1.303199	-0.105949	99
Es	-0.168110	-1.505032	0.089862	99
Es	0.043525	-0.860668	0.053273	99
Es	-1.442773	0.089411	-0.624427	99
Es	-0.391249	-0.498105	-0.030475	99
Es	1.301902	0.266332	0.236114	99
Es	0.004447	-0.933290	0.074738	99
Es	1.941577	-0.914686	0.168480	99
Es	2.322304	-1.161958	0.552029	99
Es	-0.837849	0.109052	-0.174639	99
38
Properties=species:S:1:pos:R:3:Z:I:1 energy=-301.80167097470877 field_type=dipole dipole="0.000000 0.000000 0.000000" charge=0
C	-2.145310	0.094313	-0.431663	6
C	-0.838081	0.109143	-0.174683	6
N	0.004529	-0.933407	0.074247	7
C	1.270599	-0.476467	0.289087	6
N	2.322799	-1.161817	0.552117	7
C	1.271469	1.000883	0.171717	6
C	-0.010571	1.303203	-0.105923	6
H	-2.699340	-0.837417	-0.467143	1
H	-2.697940	1.009233	-0.613163	1
H	-0.297820	-1.891457	0.091457	1
H	2.078059	-2.153877	0.582597	1
H	2.128899	1.634583	0.291167	1
H	-0.387290	2.303083	-0.259813	1
Es	1.270389	-0.476449	0.289042	99
Es	0.039690	-0.859987	0.070174	99
Es	2.149216	-1.749358	0.564371	99
Es	-0.837845	0.109048	-0.174630	99
Es	-0.393723	-0.500910	-0.038314	99
Es	-2.515742	-0.536196	-0.454872	99
Es	1.828190	-0.876788	0.715651	99
Es	1.845897	1.417204	0.252389	99
Es	2.322281	-1.161944	0.552026	99
Es	-0.281059	1.972013	-0.212495	99
Es	-2.518973	0.711637	-0.554438	99
Es	-2.145368	0.094299	-0.431674	99
Es	1.271524	1.000791	0.171735	99
Es	-0.010680	1.303198	-0.105944	99
Es	1.299845	0.266267	0.235675	99
Es	-1.442557	0.088710	-0.625683	99
Es	0.562123	-0.765611	0.171948	99
Es	-0.165389	-1.497533	0.087600	99
Es	0.575517	1.164396	0.345097	99
Es	-1.568919	0.139749	0.012087	99
Es	-0.446790	0.721425	-0.146003	99
Es	0.698177	1.114863	-0.274808	99
Es	0.004562	-0.932135	0.076533	99
Es	2.674781	-1.041040	0.612578	99
Es	1.937292	-0.920511	0.172196	99
38
Properties=species:S:1:pos:R:3:Z:I:1 energy=-301.80167097470877 field_type=dipole dipole="0.000000 0.000000 0.000000" charge=0
C	-2.145310	0.094313	-0.431663	6
C	-0.838081	0.109143	-0.174683	6
N	0.004529	-0.933407	0.074247	7
C	1.270599	-0.476467	0.289087	6
N	2.322799	-1.161817	0.552117	7
C	1.271469	1.000883	0.171717	6
C	-0.010571	1.303203	-0.105923	6
H	-2.699340	-0.837417	-0.467143	1
H	-2.697940	1.009233	-0.613163	1
H	-0.297820	-1.891457	0.091457	1
H	2.078059	-2.153877	0.582597	1
H	2.128899	1.634583	0.291167	1
H	-0.387290	2.303083	-0.259813	1
Es	-2.145366	0.094298	-0.431690	99
Es	0.036564	-0.861741	0.079749	99
Es	2.322290	-1.161953	0.552028	99
Es	1.933958	-0.923011	0.174406	99
Es	2.684981	-1.053319	0.614946	99
Es	-1.442886	0.088641	-0.625008	99
Es	1.297807	0.266203	0.235357	99
Es	0.007184	-0.929950	0.069706	99
Es	-0.395807	-0.503673	-0.039451	99
Es	1.271520	1.000789	0.171738	99
Es	-2.522982	0.711212	-0.555030	99
Es	-0.010680	1.303203	-0.105940	99
Es	-0.283235	1.972131	-0.212945	99
Es	2.142838	-1.730434	0.562052	99
Es	1.270384	-0.476449	0.289046	99
Es	-0.162431	-1.489619	0.085757	99
Es	-0.446537	0.720051	-0.145881	99
Es	-2.511525	-0.533981	-0.454134	99
Es	1.828239	-0.880091	0.713383	99
Es	0.562963	-0.769195	0.172297	99
Es	-0.837846	0.109048	-0.174629	99
Es	-1.568799	0.139413	0.011179	99
Es	1.848241	1.415487	0.252905	99
Es	0.575657	1.163755	0.344169	99
Es	0.697906	1.114326	-0.273771	99
38
Properties=species:S:1:pos:R:3:Z:I:1 energy=-301.80167097470877 field_type=dipole dipole="0.000000 0.000000 0.000000" charge=0
C	-2.145310	0.094313	-0.431663	6
C	-0.838081	0.109143	-0.174683	6
N	0.004529	-0.933407	0.074247	7
C	1.270599	-0.476467	0.289087	6
N	2.322799	-1.161817	0.552117	7
C	1.271469	1.000883	0.171717	6
C	-0.010571	1.303203	-0.105923	6
H	-2.699340	-0.837417	-0.467143	1
H	-2.697940	1.009233	-0.613163	1
H	-0.297820	-1.891457	0.091457	1
H	2.078059	-2.153877	0.582597	1
H	2.128899	1.634583	0.291167	1
H	-0.387290	2.303083	-0.259813	1
Es	0.039028	-0.858288	0.075925	99
Es	-0.446273	0.718820	-0.145581	99
Es	1.850305	1.413008	0.252985	99
Es	-1.568561	0.139157	0.011202	99
Es	1.296290	0.267644	0.234211	99
Es	1.270385	-0.476449	0.289040	99
Es	-0.837845	0.109057	-0.174630	99
Es	0.697870	1.112782	-0.273595	99
Es	1.892135	-0.910646	0.646856	99
Es	2.322325	-1.161993	0.552038	99
Es	-0.010679	1.303200	-0.105944	99
Es	2.690545	-1.066939	0.612803	99
Es	-0.285248	1.971688	-0.212715	99
Es	-0.160076	-1.483065	0.083566	99
Es	0.563974	-0.772313	0.168845	99
Es	0.575536	1.164522	0.344153	99
Es	1.271521	1.000790	0.171731	99
Es	-2.507835	-0.530959	-0.453116	99
Es	1.866862	-0.896742	0.245095	99
Es	-1.443066	0.088834	-0.625748	99
Es	-0.397669	-0.505257	-0.035377	99
Es	2.140667	-1.712116	0.559913	99
Es	0.004424	-0.933178	0.075051	99
Es	-2.526803	0.709281	-0.554796	99
Es	-2.145371	0.094301	-0.431672	99
38
Properties=species:S:1:pos:R:3:Z:I:1 energy=-301.80167097470877 field_type=dipole dipole="0.000000 0.000000 0.000000" charge=0
C	-2.145310	0.094313	-0.431663	6
C	-0.838081	0.109143	-0.174683	6
N	0.004529	-0.933407	0.074247	7
C	1.270599	-0.476467	0.289087	6
N	2.322799	-1.161817	0.552117	7
C	1.271469	1.000883	0.171717	6
C	-0.010571	1.303203	-0.105923	6
H	-2.699340	-0.837417	-0.467143	1
H	-2.697940	1.009233	-0.613163	1
H	-0.297820	-1.891457	0.091457	1
H	2.078059	-2.153877	0.582597	1
H	2.128899	1.634583	0.291167	1
H	-0.387290	2.303083	-0.259813	1
Es	-0.445828	0.718010	-0.145513	99
Es	-1.442625	0.088318	-0.625727	99
Es	-0.286691	1.971018	-0.213550	99
Es	0.008235	-0.928124	0.068831	99
Es	1.851616	1.410711	0.253979	99
Es	2.141076	-1.696329	0.558724	99
Es	1.271518	1.000789	0.171735	99
Es	0.575488	1.162738	0.344444	99
Es	0.035469	-0.863404	0.080862	99
Es	-2.145370	0.094300	-0.431677	99
Es	-0.010680	1.303204	-0.105938	99
Es	0.563366	-0.773298	0.172133	99
Es	1.294919	0.268941	0.234581	99
Es	1.270389	-0.476447	0.289044	99
Es	-1.569133	0.139695	0.011763	99
Es	0.697860	1.114099	-0.274098	99
Es	-0.158750	-1.478075	0.085099	99
Es	-0.837845	0.109046	-0.174633	99
Es	-0.397856	-0.507120	-0.038764	99
Es	-2.529261	0.707142	-0.556016	99
Es	1.949236	-0.935381	0.462878	99
Es	-2.505091	-0.528378	-0.453201	99
Es	2.322331	-1.161999	0.552043	99
Es	1.808465	-0.876066	0.424805	99
Es	2.691601	-1.078251	0.618434	99
38
Properties=species:S:1:pos:R:3:Z:I:1 energy=-301.80167097470877 field_type=dipole dipole="0.000000 0.000000 0.000000" charge=0
C	-2.145310	0.094313	-0.431663	6
C	-0.838081	0.109143	-0.174683	6
N	0.004529	-0.933407	0.074247	7
C	1.270599	-0.476467	0.289087	6
N	2.322799	-1.161817	0.552117	7
C	1.271469	1.000883	0.171717	6
C	-0.010571	1.303203	-0.105923	6
H	-2.699340	-0.837417	-0.467143	1
H	-2.697940	1.009233	-0.613163	1
H	-0.297820	-1.891457	0.091457	1
H	2.078059	-2.153877	0.582597	1
H	2.128899	1.634583	0.291167	1
H	-0.387290	2.303083	-0.259813	1
Es	0.578266	1.177375	0.332705	99
Es	2.692365	-1.087386	0.618667	99
Es	1.271518	1.000790	0.171735	99
Es	0.039425	-0.858298	0.074029	99
Es	1.270388	-0.476449	0.289041	99
Es	-2.531523	0.705170	-0.556030	99
Es	-0.837846	0.109047	-0.174630	99
Es	0.563624	-0.774622	0.170748	99
Es	-0.010681	1.303200	-0.105943	99
Es	-0.445544	0.717469	-0.145233	99
Es	-1.458952	0.102139	-0.599960	99
Es	1.806002	-0.877507	0.431908	99
Es	-0.158161	-1.473855	0.088088	99
Es	-1.552850	0.125687	-0.014068	99
Es	-2.145371	0.094301	-0.431675	99
Es	0.004634	-0.933364	0.073784	99
Es	2.141721	-1.684733	0.557980	99
Es	2.322329	-1.162024	0.552045	99
Es	-2.502837	-0.526057	-0.452876	99
Es	0.694983	1.098963	-0.262360	99
Es	-0.288027	1.970477	-0.213787	99
Es	1.293671	0.270331	0.234240	99
Es	-0.398144	-0.507970	-0.038464	99
Es	1.852870	1.408320	0.254099	99
Es	1.950580	-0.935862	0.456195	99
38
Properties=species:S:1:pos:R:3:Z:I:1 energy=-301.80167097470877 field_type=dipole dipole="0.000000 0.000000 0.000000" charge=0
C	-2.145310	0.094313	-0.431663	6
C	-0.838081	0.109143	-0.174683	6
N	0.004529	-0.933407	0.074247	7
C	1.270599	-0.476467	0.289087	6
N	2.322799	-1.161817	0.552117	7
C	1.271469	1.000883	0.171717	6
C	-0.010571	1.303203	-0.105923	6
H	-2.699340	-0.837417	-0.467143	1
H	-2.697940	1.009233	-0.613163	1
H	-0.297820	-1.891457	0.091457	1
H	2.078059	-2.153877	0.582597	1
H	2.128899	1.634583	0.291167	1
H	-0.387290	2.303083	-0.259813	1
Es	0.575307	1.164037	0.344874	99
Es	2.142720	-1.675532	0.556816	99
Es	0.697847	1.112137	-0.274241	99
Es	-0.156107	-1.471114	0.083165	99
Es	1.803939	-0.878931	0.437949	99
Es	-2.145370	0.094300	-0.431678	99
Es	1.271519	1.000790	0.171733	99
Es	-2.500789	-0.523524	-0.452973	99
Es	1.270388	-0.476448	0.289047	99
Es	-2.533583	0.702993	-0.555863	99
Es	1.292680	0.272254	0.233748	99
Es	-0.010680	1.303199	-0.105945	99
Es	0.004512	-0.933363	0.074310	99
Es	-0.289257	1.969757	-0.213544	99
Es	-0.837846	0.109045	-0.174630	99
Es	0.039120	-0.858105	0.075585	99
Es	-0.398958	-0.508875	-0.036370	99
Es	2.692610	-1.094398	0.619015	99
Es	-1.479309	0.115674	-0.536147	99
Es	2.322334	-1.162002	0.552041	99
Es	1.951678	-0.936235	0.450548	99
Es	-0.445189	0.717003	-0.145060	99
Es	1.853850	1.405581	0.254601	99
Es	-1.532435	0.112108	-0.078105	99
Es	0.563457	-0.775211	0.171364	99
38
Properties=species:S:1:pos:R:3:Z:I:1 energy=-301.80167097470877 field_type=dipole dipole="0.000000 0.000000 0.000000" charge=0
C	-2.145310	0.094313	-0.431663	6
C	-0.838081	0.109143	-0.174683	6
N	0.004529	-0.933407	0.074247	7
C	1.270599	-0.476467	0.289087	6
N	2.322799	-1.161817	0.552117	7
C	1.271469	1.000883	0.171717	6
C	-0.010571	1.303203	-0.105923	6
H	-2.699340	-0.837417	-0.467143	1
H	-2.697940	1.009233	-0.613163	1
H	-0.297820	-1.891457	0.091457	1
H	2.078059	-2.153877	0.582597	1
H	2.128899	1.634583	0.291167	1
H	-0.387290	2.303083	-0.259813	1
Es	-0.837846	0.109046	-0.174629	99
Es	1.854412	1.403368	0.255435	99
Es	-0.289670	1.969254	-0.214385	99
Es	1.271518	1.000787	0.171732	99
Es	-0.156838	-1.468100	0.090574	99
Es	-2.145371	0.094301	-0.431671	99
Es	-0.397936	-0.509514	-0.041147	99
Es	-0.445337	0.716331	-0.145477	99
Es	-0.010680	1.303196	-0.105944	99
Es	0.575199	1.162733	0.345542	99
Es	-2.499027	-0.521173	-0.452695	99
Es	-1.560067	0.150433	-0.145626	99
Es	2.143215	-1.668014	0.557184	99
Es	1.270387	-0.476450	0.289042	99
Es	1.807569	-0.881754	0.417016	99
Es	-1.451867	0.077329	-0.467731	99
Es	0.039726	-0.858659	0.071961	99
Es	0.562973	-0.775535	0.173562	99
Es	1.947957	-0.934703	0.469394	99
Es	2.322316	-1.161971	0.552033	99
Es	0.004777	-0.933283	0.073337	99
Es	0.697905	1.112967	-0.275251	99
Es	-2.535113	0.700756	-0.557295	99
Es	2.692176	-1.100295	0.621632	99
Es	1.292061	0.274089	0.233646	99
38
Properties=species:S:1:pos:R:3:Z:I:1 energy=-301.80167097470877 field_type=dipole dipole="0.000000 0.000000 0.000000" charge=0
C	-2.145310	0.094313	-0.431663	6
C	-0.838081	0.109143	-0.174683	6
N	0.004529	-0.933407	0.074247	7
C	1.270599	-0.476467	0.289087	6
N	2.322799	-1.161817	0.552117	7
C	1.271469	1.000883	0.171717	6
C	-0.010571	1.303203	-0.105923	6
H	-2.699340	-0.837417	-0.467143	1
H	-2.697940	1.009233	-0.613163	1
H	-0.297820	-1.891457	0.091457	1
H	2.078059	-2.153877	0.582597	1
H	2.128899	1.634583	0.291167	1
H	-0.387290	2.303083	-0.259813	1
Es	0.019535	-0.896343	0.083371	99
Es	-0.398430	-0.510318	-0.040292	99
Es	1.855072	1.401269	0.255180	99
Es	-1.567769	0.138271	0.013357	99
Es	2.692354	-1.103973	0.620665	99
Es	-2.536379	0.699205	-0.556938	99
Es	1.291410	0.275469	0.233521	99
Es	0.650181	1.074501	-0.042406	99
Es	-2.145371	0.094300	-0.431674	99
Es	-2.497937	-0.519607	-0.452343	99
Es	-0.837847	0.109048	-0.174630	99
Es	1.805552	-0.882949	0.423312	99
Es	0.024745	-0.895553	0.062840	99
Es	0.623035	1.201538	0.112602	99
Es	1.271518	1.000790	0.171737	99
Es	-0.291125	1.968252	-0.214548	99
Es	1.270388	-0.476449	0.289044	99
Es	-1.444019	0.089829	-0.627133	99
Es	-0.444495	0.715982	-0.145014	99
Es	2.322306	-1.161959	0.552031	99
Es	1.949060	-0.935088	0.464121	99
Es	0.563451	-0.776030	0.170987	99
Es	2.144129	-1.662448	0.556974	99
Es	-0.156246	-1.465788	0.091422	99
Es	-0.010680	1.303192	-0.105944	99
38
Properties=species:S:1:pos:R:3:Z:I:1 energy=-301.80167097470877 field_type=dipole dipole="0.000000 0.000000 0.000000" charge=0
C	-2.145310	0.094313	-0.431663	6
C	-0.838081	0.109143	-0.174683	6
N	0.004529	-0.933407	0.074247	7
C	1.270599	-0.476467	0.289087	6
N	2.322799	-1.161817	0.552117	7
C	1.271469	1.000883	0.171717	6
C	-0.010571	1.303203	-0.105923	6
H	-2.699340	-0.837417	-0.467143	1
H	-2.697940	1.009233	-0.613163	1
H	-0.297820	-1.891457	0.091457	1
H	2.078059	-2.153877	0.582597	1
H	2.128899	1.634583	0.291167	1
H	-0.387290	2.303083	-0.259813	1
Es	0.650408	1.191310	-0.025951	99
Es	0.004414	-0.933071	0.075307	99
Es	1.855684	1.398348	0.255689	99
Es	-0.152644	-1.464604	0.077273	99
Es	-1.506786	0.098042	-0.179732	99
Es	-2.495803	-0.516566	-0.452647	99
Es	0.038231	-0.858331	0.078764	99
Es	1.271515	1.000786	0.171734	99
Es	-0.010679	1.303199	-0.105944	99
Es	2.692397	-1.109929	0.619266	99
Es	0.563286	-0.776076	0.171659	99
Es	1.290713	0.277486	0.232757	99
Es	2.144289	-1.657287	0.556083	99
Es	-1.504888	0.129682	-0.434840	99
Es	-0.444868	0.715286	-0.144960	99
Es	1.270387	-0.476449	0.289046	99
Es	-0.291711	1.968020	-0.213516	99
Es	-0.399450	-0.510392	-0.035037	99
Es	2.322319	-1.161979	0.552040	99
Es	1.929653	-0.929388	0.171506	99
Es	-2.145372	0.094295	-0.431672	99
Es	-0.837847	0.109049	-0.174626	99
Es	-2.538594	0.696551	-0.556031	99
Es	1.825177	-0.887251	0.717316	99
Es	0.622608	1.084410	0.096755	99
38
Properties=species:S:1:pos:R:3:Z:I:1 energy=-301.80167097470877 field_type=dipole dipole="0.000000 0.000000 0.000000" charge=0
C	-2.145310	0.094313	-0.431663	6
C	-0.838081	0.109143	-0.174683	6
N	0.004529	-0.933407	0.074247	7
C	1.270599	-0.476467	0.289087	6
N	2.322799	-1.161817	0.552117	7
C	1.271469	1.000883	0.171717	6
C	-0.010571	1.303203	-0.105923	6
H	-2.699340	-0.837417	-0.467143	1
H	-2.697940	1.009233	-0.613163	1
H	-0.297820	-1.891457	0.091457	1
H	2.078059	-2.153877	0.582597	1
H	2.128899	1.634583	0.291167	1
H	-0.387290	2.303083	-0.259813	1
Es	2.322333	-1.162009	0.552040	99
Es	0.638708	1.077202	0.015409	99
Es	-0.399127	-0.510757	-0.037362	99
Es	-2.495792	-0.516478	-0.452361	99
Es	-0.010679	1.303202	-0.105944	99
Es	-1.457764	0.101656	-0.603842	99
Es	2.145345	-1.654565	0.555953	99
Es	1.855750	1.398089	0.255664	99
Es	1.270380	-0.476439	0.289038	99
Es	0.634367	1.198545	0.055125	99
Es	0.018277	-0.908258	0.065164	99
Es	2.692254	-1.109744	0.620315	99
Es	0.563312	-0.776230	0.171397	99
Es	-0.154154	-1.463942	0.084890	99
Es	-2.538594	0.696361	-0.556495	99
Es	-2.145368	0.094299	-0.431683	99
Es	1.290747	0.277907	0.232967	99
Es	1.271518	1.000789	0.171733	99
Es	-0.291954	1.967739	-0.214063	99
Es	1.801772	-0.883514	0.439034	99
Es	-0.837847	0.109047	-0.174628	99
Es	0.025459	-0.883203	0.084001	99
Es	-1.553942	0.126303	-0.010399	99
Es	-0.444527	0.715336	-0.144952	99
Es	1.951967	-0.936197	0.449241	99
38
Properties=species:S:1:pos:R:3:Z:I:1 energy=-301.80167097470877 field_type=dipole dipole="0.000000 0.000000 0.000000" charge=0
C	-2.145310	0.094313	-0.431663	6
C	-0.838081	0.109143	-0.174683	6
N	0.004529	-0.933407	0.074247	7
C	1.270599	-0.476467	0.289087	6
N	2.322799	-1.161817	0.552117	7
C	1.271469	1.000883	0.171717	6
C	-0.010571	1.303203	-0.105923	6
H	-2.699340	-0.837417	-0.467143	1
H	-2.697940	1.009233	-0.613163	1
H	-0.297820	-1.891457	0.091457	1
H	2.078059	-2.153877	0.582597	1
H	2.128899	1.634583	0.291167	1
H	-0.387290	2.303083	-0.259813	1
Es	-2.539069	0.695447	-0.557280	99
Es	-0.292045	1.967602	-0.214765	99
Es	2.692068	-1.110300	0.621120	99
Es	2.145348	-1.653598	0.556725	99
Es	1.290610	0.278719	0.232928	99
Es	-1.486652	0.088860	-0.272339	99
Es	1.271516	1.000788	0.171736	99
Es	0.563442	-0.776428	0.170677	99
Es	-0.155656	-1.462316	0.093925	99
Es	-0.444426	0.715462	-0.145184	99
Es	-0.837847	0.109049	-0.174630	99
Es	-2.145371	0.094300	-0.431673	99
Es	0.691387	1.090570	-0.246277	99
Es	0.034528	-0.874218	0.063284	99
Es	1.805922	-0.885489	0.417474	99
Es	0.581623	1.184679	0.316591	99
Es	1.270389	-0.476448	0.289042	99
Es	-0.398326	-0.511026	-0.040990	99
Es	-0.010678	1.303201	-0.105945	99
Es	0.009943	-0.917952	0.081579	99
Es	-2.495255	-0.515437	-0.451756	99
Es	2.322324	-1.161982	0.552036	99
Es	1.855957	1.397399	0.255501	99
Es	1.947910	-0.934553	0.469847	99
Es	-1.525203	0.138809	-0.341386	99
38
Properties=species:S:1:pos:R:3:Z:I:1 energy=-301.80167097470877 field_type=dipole dipole="0.000000 0.000000 0.000000" charge=0
C	-2.145310	0.094313	-0.431663	6
C	-0.838081	0.109143	-0.174683	6
N	0.004529	-0.933407	0.074247	7
C	1.270599	-0.476467	0.289087	6
N	2.322799	-1.161817	0.552117	7
C	1.271469	1.000883	0.171717	6
C	-0.010571	1.303203	-0.105923	6
H	-2.699340	-0.837417	-0.467143	1
H	-2.697940	1.009233	-0.613163	1
H	-0.297820	-1.891457	0.091457	1
H	2.078059	-2.153877	0.582597	1
H	2.128899	1.634583	0.291167	1
H	-0.387290	2.303083	-0.259813	1
Es	1.804156	-0.885828	0.424422	99
Es	-2.145384	0.094291	-0.431670	99
Es	-2.494629	-0.514432	-0.451818	99
Es	-2.539795	0.694622	-0.556598	99
Es	-1.536807	0.114939	-0.062320	99
Es	2.146064	-1.649678	0.556003	99
Es	1.290257	0.280191	0.232731	99
Es	-0.010678	1.303202	-0.105945	99
Es	2.322320	-1.161976	0.552034	99
Es	1.270388	-0.476447	0.289044	99
Es	1.271521	1.000791	0.171728	99
Es	-0.292746	1.967089	-0.214437	99
Es	2.692142	-1.113277	0.619995	99
Es	-0.398866	-0.511100	-0.038431	99
Es	0.039185	-0.858469	0.074368	99
Es	0.004872	-0.933226	0.073061	99
Es	0.563683	-0.776638	0.169282	99
Es	-0.837847	0.109048	-0.174630	99
Es	0.614566	1.201624	0.154271	99
Es	0.658451	1.073755	-0.083837	99
Es	-0.444306	0.715114	-0.144830	99
Es	-1.474939	0.112723	-0.551956	99
Es	-0.154533	-1.461573	0.090046	99
Es	1.856309	1.395401	0.255434	99
Es	1.949056	-0.935009	0.464292	99
38
Properties=species:S:1:pos:R:3:Z:I:1 energy=-301.80167097470877 field_type=dipole dipole="0.000000 0.000000 0.000000" charge=0
C	-2.145310	0.094313	-0.431663	6
C	-0.838081	0.109143	-0.174683	6
N	0.004529	-0.933407	0.074247	7
C	1.270599	-0.476467	0.289087	6
N	2.322799	-1.161817	0.552117	7
C	1.271469	1.000883	0.171717	6
C	-0.010571	1.303203	-0.105923	6
H	-2.699340	-0.837417	-0.467143	1
H	-2.697940	1.009233	-0.613163	1
H	-0.297820	-1.891457	0.091457	1
H	2.078059	-2.153877	0.582597	1
H	2.128899	1.634583	0.291167	1
H	-0.387290	2.303083	-0.259813	1
Es	1.270387	-0.476448	0.289048	99
Es	-0.153773	-1.461276	0.086865	99
Es	2.322321	-1.161978	0.552035	99
Es	-2.493698	-0.513374	-0.452409	99
Es	2.146310	-1.648045	0.556041	99
Es	1.856213	1.394879	0.256481	99
Es	-0.010679	1.303200	-0.105944	99
Es	-1.440531	0.077288	-0.557511	99
Es	0.626742	1.082153	0.076001	99
Es	-2.145370	0.094299	-0.431676	99
Es	-0.398345	-0.511417	-0.040910	99
Es	1.948041	-0.934568	0.469215	99
Es	-2.540432	0.693175	-0.557776	99
Es	0.012530	-0.919803	0.066857	99
Es	0.562720	-0.776461	0.174142	99
Es	0.031368	-0.871707	0.081343	99
Es	-0.837847	0.109047	-0.174629	99
Es	0.646308	1.193199	-0.005676	99
Es	1.290171	0.280790	0.232741	99
Es	1.271518	1.000788	0.171735	99
Es	1.805445	-0.886889	0.417271	99
Es	-1.571354	0.150798	-0.055790	99
Es	-0.292924	1.966790	-0.214897	99
Es	2.691551	-1.114142	0.622700	99
Es	-0.444231	0.714840	-0.145018	99
38
Properties=species:S:1:pos:R:3:Z:I:1 energy=-301.80167097470877 field_type=dipole dipole="0.000000 0.000000 0.000000" charge=0
C	-2.145310	0.094313	-0.431663	6
C	-0.838081	0.109143	-0.174683	6
N	0.004529	-0.933407	0.074247	7
C	1.270599	-0.476467	0.289087	6
N	2.322799	-1.161817	0.552117	7
C	1.271469	1.000883	0.171717	6
C	-0.010571	1.303203	-0.105923	6
H	-2.699340	-0.837417	-0.467143	1
H	-2.697940	1.009233	-0.613163	1
H	-0.297820	-1.891457	0.091457	1
H	2.078059	-2.153877	0.582597	1
H	2.128899	1.634583	0.291167	1
H	-0.387290	2.303083	-0.259813	1
Es	1.856440	1.394489	0.255802	99
Es	-2.493629	-0.512761	-0.451535	99
Es	-0.444349	0.714994	-0.145095	99
Es	1.270388	-0.476448	0.289043	99
Es	1.271518	1.000790	0.171735	99
Es	-0.010679	1.303200	-0.105944	99
Es	0.563377	-0.776542	0.170873	99
Es	0.033435	-0.871012	0.074439	99
Es	-1.522955	0.137838	-0.352329	99
Es	-2.145371	0.094301	-0.431674	99
Es	0.011866	-0.922505	0.064679	99
Es	0.589216	1.193095	0.279612	99
Es	-0.292712	1.967001	-0.215022	99
Es	2.691785	-1.114622	0.621422	99
Es	-1.488915	0.089764	-0.261366	99
Es	-0.155913	-1.458789	0.100148	99
Es	1.949251	-0.935063	0.463313	99
Es	1.290131	0.281145	0.232645	99
Es	1.803942	-0.886492	0.424305	99
Es	2.322330	-1.161976	0.552043	99
Es	-0.398266	-0.511608	-0.041636	99
Es	-0.837847	0.109051	-0.174630	99
Es	2.146358	-1.647400	0.556288	99
Es	0.683705	1.081765	-0.209294	99
Es	-2.540668	0.692925	-0.557583	99
38
Properties=species:S:1:pos:R:3:Z:I:1 energy=-301.80167097470877 field_type=dipole dipole="0.000000 0.000000 0.000000" charge=0
C	-2.145310	0.094313	-0.431663	6
C	-0.838081	0.109143	-0.174683	6
N	0.004529	-0.933407	0.074247	7
C	1.270599	-0.476467	0.289087	6
N	2.322799	-1.161817	0.552117	7
C	1.271469	1.000883	0.171717	6
C	-0.010571	1.303203	-0.105923	6
H	-2.699340	-0.837417	-0.467143	1
H	-2.697940	1.009233	-0.613163	1
H	-0.297820	-1.891457	0.091457	1
H	2.078059	-2.153877	0.582597	1
H	2.128899	1.634583	0.291167	1
H	-0.387290	2.303083	-0.259813	1
Es	0.026749	-0.882591	0.079853	99
Es	-0.293222	1.966635	-0.214798	99
Es	-0.155070	-1.458853	0.096361	99
Es	-2.493252	-0.512141	-0.451503	99
Es	-0.837847	0.109051	-0.174630	99
Es	2.146665	-1.646116	0.556178	99
Es	-0.010680	1.303199	-0.105944	99
Es	2.691914	-1.115490	0.620549	99
Es	0.598807	1.198574	0.232328	99
Es	0.018022	-0.910006	0.062961	99
Es	1.804524	-0.887207	0.420695	99
Es	-2.541154	0.692371	-0.557064	99
Es	-2.145370	0.094300	-0.431675	99
Es	1.856591	1.393717	0.255559	99
Es	1.290032	0.281843	0.232619	99
Es	-1.508999	0.099308	-0.170063	99
Es	1.948393	-0.934683	0.467619	99
Es	1.271515	1.000785	0.171735	99
Es	-0.398479	-0.511456	-0.040035	99
Es	-0.444316	0.714663	-0.144939	99
Es	2.322278	-1.161955	0.552025	99
Es	0.674132	1.076311	-0.162056	99
Es	0.563640	-0.776890	0.169349	99
Es	1.270388	-0.476448	0.289043	99
Es	-1.502823	0.128217	-0.443925	99
38
Properties=species:S:1:pos:R:3:Z:I:1 energy=-301.80167097470877 field_type=dipole dipole="0.000000 0.000000 0.000000" charge=0
C	-2.145310	0.094313	-0.431663	6
C	-0.838081	0.109143	-0.174683	6
N	0.004529	-0.933407	0.074247	7
C	1.270599	-0.476467	0.289087	6
N	2.322799	-1.161817	0.552117	7
C	1.271469	1.000883	0.171717	6
C	-0.010571	1.303203	-0.105923	6
H	-2.699340	-0.837417	-0.467143	1
H	-2.697940	1.009233	-0.613163	1
H	-0.297820	-1.891457	0.091457	1
H	2.078059	-2.153877	0.582597	1
H	2.128899	1.634583	0.291167	1
H	-0.387290	2.303083	-0.259813	1
Es	0.615215	1.201471	0.150884	99
Es	-2.541432	0.691316	-0.558413	99
Es	0.657846	1.073422	-0.081125	99
Es	1.856575	1.392891	0.256338	99
Es	0.563138	-0.776322	0.172161	99
Es	-0.010679	1.303201	-0.105946	99
Es	1.270389	-0.476447	0.289042	99
Es	-0.837847	0.109049	-0.174628	99
Es	1.947032	-0.934079	0.474135	99
Es	1.806296	-0.888246	0.411763	99
Es	-2.145372	0.094301	-0.431675	99
Es	0.033174	-0.871880	0.073776	99
Es	0.012128	-0.922050	0.064460	99
Es	-1.563981	0.151448	-0.118297	99
Es	2.146677	-1.644729	0.556588	99
Es	1.289782	0.282497	0.232950	99
Es	1.271521	1.000790	0.171726	99
Es	2.691296	-1.116175	0.623363	99
Es	-0.397739	-0.512263	-0.044230	99
Es	-1.447984	0.076804	-0.494496	99
Es	-2.492679	-0.511561	-0.451900	99
Es	2.322338	-1.162034	0.552044	99
Es	-0.293845	1.965944	-0.215753	99
Es	-0.443611	0.714818	-0.144986	99
Es	-0.155800	-1.457027	0.102461	99
38
Properties=species:S:1:pos:R:3:Z:I:1 energy=-301.80167097470877 field_type=dipole dipole="0.000000 0.000000 0.000000" charge=0
C	-2.145310	0.094313	-0.431663	6
C	-0.838081	0.109143	-0.174683	6
N	0.004529	-0.933407	0.074247	7
C	1.270599	-0.476467	0.289087	6
N	2.322799	-1.161817	0.552117	7
C	1.271469	1.000883	0.171717	6
C	-0.010571	1.303203	-0.105923	6
H	-2.699340	-0.837417	-0.467143	1
H	-2.697940	1.009233	-0.613163	1
H	-0.297820	-1.891457	0.091457	1
H	2.078059	-2.153877	0.582597	1
H	2.128899	1.634583	0.291167	1
H	-0.387290	2.303083	-0.259813	1
Es	0.591886	1.111777	0.253854	99
Es	-1.542064	0.145283	-0.254183	99
Es	1.270390	-0.476444	0.289047	99
Es	-2.145370	0.094299	-0.431675	99
Es	-1.469738	0.082328	-0.359844	99
Es	-0.149952	-1.459838	0.072220	99
Es	0.027720	-0.875875	0.089100	99
Es	1.856495	1.392675	0.256963	99
Es	0.014096	-0.915862	0.068052	99
Es	-0.293901	1.966335	-0.214032	99
Es	2.691628	-1.116364	0.621698	99
Es	-2.492074	-0.510820	-0.452868	99
Es	1.289897	0.282747	0.232419	99
Es	-2.542098	0.690931	-0.556909	99
Es	2.147101	-1.644444	0.555258	99
Es	0.680906	1.162976	-0.183079	99
Es	1.802462	-0.887085	0.429895	99
Es	-0.837847	0.109048	-0.174630	99
Es	1.271520	1.000791	0.171734	99
Es	1.950425	-0.935494	0.457441	99
Es	-0.010678	1.303201	-0.105946	99
Es	0.562609	-0.776203	0.174686	99
Es	2.322334	-1.162028	0.552042	99
Es	-0.399319	-0.511508	-0.036209	99
Es	-0.443991	0.714713	-0.144793	99
38
Properties=species:S:1:pos:R:3:Z:I:1 energy=-301.80167097470877 field_type=dipole dipole="0.000000 0.000000 0.000000" charge=0
C	-2.145310	0.094313	-0.431663	6
C	-0.838081	0.109143	-0.174683	6
N	0.004529	-0.933407	0.074247	7
C	1.270599	-0.476467	0.289087	6
N	2.322799	-1.161817	0.552117	7
C	1.271469	1.000883	0.171717	6
C	-0.010571	1.303203	-0.105923	6
H	-2.699340	-0.837417	-0.467143	1
H	-2.697940	1.009233	-0.613163	1
H	-0.297820	-1.891457	0.091457	1
H	2.078059	-2.153877	0.582597	1
H	2.128899	1.634583	0.291167	1
H	-0.387290	2.303083	-0.259813	1
Es	1.270387	-0.476448	0.289044	99
Es	1.271516	1.000787	0.171734	99
Es	-0.294231	1.966072	-0.214024	99
Es	0.006334	-0.926714	0.079656	99
Es	-0.443757	0.714865	-0.144776	99
Es	-2.491962	-0.510630	-0.452867	99
Es	0.592252	1.111168	0.251840	99
Es	1.801074	-0.887236	0.435955	99
Es	0.562522	-0.776353	0.175030	99
Es	2.322328	-1.161995	0.552038	99
Es	1.289884	0.283062	0.232289	99
Es	-0.149449	-1.459202	0.070898	99
Es	0.035278	-0.865211	0.078168	99
Es	1.951568	-0.935926	0.451578	99
Es	-0.010680	1.303198	-0.105942	99
Es	0.680491	1.163476	-0.180970	99
Es	-2.145370	0.094299	-0.431675	99
Es	-2.542225	0.690735	-0.556857	99
Es	-0.399429	-0.511669	-0.035912	99
Es	-1.473820	0.083730	-0.337797	99
Es	-1.537976	0.143869	-0.276266	99
Es	2.691483	-1.118025	0.621823	99
Es	-0.837846	0.109047	-0.174631	99
Es	1.856534	1.392388	0.256983	99
Es	2.147532	-1.642146	0.554920	99
38
Properties=species:S:1:pos:R:3:Z:I:1 energy=-301.80167097470877 field_type=dipole dipole="0.000000 0.000000 0.000000" charge=0
C	-2.145310	0.094313	-0.431663	6
C	-0.838081	0.109143	-0.174683	6
N	0.004529	-0.933407	0.074247	7
C	1.270599	-0.476467	0.289087	6
N	2.322799	-1.161817	0.552117	7
C	1.271469	1.000883	0.171717	6
C	-0.010571	1.303203	-0.105923	6
H	-2.699340	-0.837417	-0.467143	1
H	-2.697940	1.009233	-0.613163	1
H	-0.297820	-1.891457	0.091457	1
H	2.078059	-2.153877	0.582597	1
H	2.128899	1.634583	0.291167	1
H	-0.387290	2.303083	-0.259813	1
Es	2.322321	-1.161979	0.552027	99
Es	2.691194	-1.117928	0.623242	99
Es	2.147219	-1.641964	0.556534	99
Es	-0.397637	-0.512294	-0.044284	99
Es	-2.491790	-0.509892	-0.451544	99
Es	1.856794	1.391291	0.256349	99
Es	-1.458206	0.078711	-0.426716	99
Es	-1.553783	0.149372	-0.186100	99
Es	-0.010679	1.303200	-0.105946	99
Es	1.271514	1.000784	0.171735	99
Es	-0.443610	0.714572	-0.145026	99
Es	1.289638	0.283945	0.232785	99
Es	-0.155483	-1.456197	0.102165	99
Es	1.805530	-0.889012	0.413766	99
Es	1.947405	-0.934216	0.472425	99
Es	0.038548	-0.867349	0.060012	99
Es	-2.145369	0.094300	-0.431682	99
Es	-2.542354	0.689800	-0.558506	99
Es	0.666624	1.073941	-0.125195	99
Es	-0.294152	1.965665	-0.215869	99
Es	0.006633	-0.926408	0.078987	99
Es	0.606359	1.200627	0.194875	99
Es	1.270388	-0.476449	0.289041	99
Es	-0.837848	0.109050	-0.174631	99
Es	0.563182	-0.776430	0.171794	99
38
Properties=species:S:1:pos:R:3:Z:I:1 energy=-301.80167097470877 field_type=dipole dipole="0.000000 0.000000 0.000000" charge=0
C	-2.145310	0.094313	-0.431663	6
C	-0.838081	0.109143	-0.174683	6
N	0.004529	-0.933407	0.074247	7
C	1.270599	-0.476467	0.289087	6
N	2.322799	-1.161817	0.552117	7
C	1.271469	1.000883	0.171717	6
C	-0.010571	1.303203	-0.105923	6
H	-2.699340	-0.837417	-0.467143	1
H	-2.697940	1.009233	-0.613163	1
H	-0.297820	-1.891457	0.091457	1
H	2.078059	-2.153877	0.582597	1
H	2.128899	1.634583	0.291167	1
H	-0.387290	2.303083	-0.259813	1
Es	-1.560009	0.150327	-0.146417	99
Es	2.691232	-1.118945	0.622697	99
Es	-1.451885	0.077442	-0.467058	99
Es	1.289593	0.284206	0.232266	99
Es	0.562568	-0.776585	0.174638	99
Es	-2.491170	-0.509140	-0.452515	99
Es	1.270388	-0.476447	0.289046	99
Es	1.271523	1.000794	0.171735	99
Es	-0.010680	1.303203	-0.105941	99
Es	-0.443943	0.714253	-0.144961	99
Es	0.005921	-0.931808	0.071364	99
Es	0.610933	1.092259	0.156328	99
Es	-0.837847	0.109048	-0.174629	99
Es	1.856724	1.390715	0.257127	99
Es	0.036739	-0.859478	0.082652	99
Es	-0.294221	1.965832	-0.214647	99
Es	-0.398839	-0.512233	-0.039200	99
Es	2.147600	-1.640913	0.555489	99
Es	-0.150921	-1.458271	0.078621	99
Es	-2.542932	0.689222	-0.557678	99
Es	1.948925	-0.934885	0.464975	99
Es	0.661971	1.182681	-0.085768	99
Es	1.803823	-0.888470	0.421761	99
Es	-2.145370	0.094300	-0.431675	99
Es	2.322316	-1.161966	0.552033	99
38
Properties=species:S:1:pos:R:3:Z:I:1 energy=-301.80167097470877 field_type=dipole dipole="0.000000 0.000000 0.000000" charge=0
C	-2.145310	0.094313	-0.431663	6
C	-0.838081	0.109143	-0.174683	6
N	0.004529	-0.933407	0.074247	7
C	1.270599	-0.476467	0.289087	6
N	2.322799	-1.161817	0.552117	7
C	1.271469	1.000883	0.171717	6
C	-0.010571	1.303203	-0.105923	6