38
Properties=species:S:1:pos:R:3:Z:I:1 energy=-301.7959745529229 field_type=dipole dipole="0.000000 0.000000 0.000000" charge=0
C	-2.054594	-0.014898	0.002544	6
C	-0.562414	-0.018018	0.000174	6
N	0.162746	-1.093768	-0.000376	7
C	1.446796	-0.645258	-0.001916	6
N	2.426436	-1.461528	-0.003386	7
C	1.471437	0.816092	-0.001606	6
C	0.203076	1.226662	-0.000316	6
H	-2.434694	-1.039618	-0.010846	1
H	-2.421744	0.513622	-0.881166	1
H	-2.418303	0.489172	0.901834	1
H	1.997696	-2.394999	-0.003116	1
H	2.374936	1.397251	-0.002236	1
H	-0.191374	2.225291	0.000414	1
Es	-0.098488	-0.655390	-0.277202	99
Es	-2.280161	0.329257	0.604043	99
Es	1.446707	-0.645211	-0.001917	99
Es	-0.562466	-0.017961	0.000176	99
Es	2.172809	-2.015774	-0.003065	99
Es	1.972407	-1.075195	-0.281254	99
Es	1.504581	0.097984	-0.001683	99
Es	1.973308	-1.075205	0.275814	99
Es	1.471511	0.816031	-0.001608	99
Es	2.794988	-1.396581	-0.004009	99
Es	0.808247	1.026455	-0.313207	99
Es	-2.283077	0.345922	-0.588801	99
Es	0.729381	-0.890056	-0.001031	99
Es	-1.309522	-0.016533	0.001158	99
Es	-0.225385	0.642406	-0.000060	99
Es	0.068618	-1.452979	0.000310	99
Es	0.809010	1.026493	0.311286	99
Es	-0.073912	1.894501	0.000179	99
Es	0.162876	-1.093243	-0.000377	99
Es	2.425929	-1.461592	-0.003386	99
Es	-2.054534	-0.014867	0.002543	99
Es	0.202961	1.226657	-0.000324	99
Es	-0.097751	-0.654974	0.276168	99
Es	2.077536	1.204478	-0.002107	99
Es	-2.310909	-0.697983	-0.006297	99
38
Properties=species:S:1:pos:R:3:Z:I:1 energy=-301.7959745529229 field_type=dipole dipole="0.000000 0.000000 0.000000" charge=0
C	-2.054594	-0.014898	0.002544	6
C	-0.562414	-0.018018	0.000174	6
N	0.162746	-1.093768	-0.000376	7
C	1.446796	-0.645258	-0.001916	6
N	2.426436	-1.461528	-0.003386	7
C	1.471437	0.816092	-0.001606	6
C	0.203076	1.226662	-0.000316	6
H	-2.434694	-1.039618	-0.010846	1
H	-2.421744	0.513622	-0.881166	1
H	-2.418303	0.489172	0.901834	1
H	1.997696	-2.394999	-0.003116	1
H	2.374936	1.397251	-0.002236	1
H	-0.191374	2.225291	0.000414	1
Es	-0.077911	1.896750	0.000187	99
Es	0.806337	1.026308	-0.312306	99
Es	0.162884	-1.093228	-0.000377	99
Es	0.064617	-1.444480	-0.000357	99
Es	-2.281937	0.327992	0.601648	99
Es	-2.285142	0.344624	-0.586749	99
Es	-0.097330	-0.656162	-0.276815	99
Es	-0.097113	-0.656072	0.276339	99
Es	0.735727	-0.896454	-0.000854	99
Es	-0.562470	-0.017957	0.000169	99
Es	-2.054535	-0.014868	0.002544	99
Es	-0.219859	0.641619	-0.000087	99
Es	1.446701	-0.645206	-0.001922	99
Es	2.425894	-1.461580	-0.003384	99
Es	1.505821	0.095588	-0.001948	99
Es	0.807130	1.026164	0.310442	99
Es	-2.312131	-0.693760	-0.005988	99
Es	1.970823	-1.077876	0.273172	99
Es	1.970133	-1.077746	-0.278557	99
Es	2.074653	1.203130	-0.001863	99
Es	2.171708	-2.010239	-0.003289	99
Es	0.202956	1.226662	-0.000314	99
Es	-1.305982	-0.016018	0.001173	99
Es	1.471515	0.816027	-0.001608	99
Es	2.802174	-1.396577	-0.003906	99
38
Properties=species:S:1:pos:R:3:Z:I:1 energy=-301.7959745529229 field_type=dipole dipole="0.000000 0.000000 0.000000" charge=0
C	-2.054594	-0.014898	0.002544	6
C	-0.562414	-0.018018	0.000174	6
N	0.162746	-1.093768	-0.000376	7
C	1.446796	-0.645258	-0.001916	6
N	2.426436	-1.461528	-0.003386	7
C	1.471437	0.816092	-0.001606	6
C	0.203076	1.226662	-0.000316	6
H	-2.434694	-1.039618	-0.010846	1
H	-2.421744	0.513622	-0.881166	1
H	-2.418303	0.489172	0.901834	1
H	1.997696	-2.394999	-0.003116	1
H	2.374936	1.397251	-0.002236	1
H	-0.191374	2.225291	0.000414	1
Es	2.168244	-2.004234	-0.003204	99
Es	2.070978	1.202645	-0.002065	99
Es	-2.054534	-0.014868	0.002544	99
Es	-0.094380	-0.656343	-0.275048	99
Es	-1.303989	-0.016412	0.001185	99
Es	1.508394	0.094305	-0.001761	99
Es	-2.281513	0.326161	0.599552	99
Es	-0.095521	-0.655607	0.274708	99
Es	1.970049	-1.078896	0.271059	99
Es	0.805304	1.026318	0.309184	99
Es	-0.081037	1.896821	0.000210	99
Es	-2.313586	-0.689933	-0.006003	99
Es	0.162889	-1.093223	-0.000377	99
Es	1.969311	-1.078795	-0.276480	99
Es	0.202955	1.226664	-0.000313	99
Es	1.446701	-0.645206	-0.001914	99
Es	0.059306	-1.435502	-0.000545	99
Es	-0.215476	0.641433	0.000233	99
Es	-0.562471	-0.017958	0.000176	99
Es	2.807414	-1.400539	-0.003951	99
Es	2.425923	-1.461593	-0.003385	99
Es	0.740496	-0.906022	-0.001004	99
Es	1.471517	0.816027	-0.001605	99
Es	0.804378	1.026141	-0.311230	99
Es	-2.286687	0.345257	-0.584618	99
38
Properties=species:S:1:pos:R:3:Z:I:1 energy=-301.7959745529229 field_type=dipole dipole="0.000000 0.000000 0.000000" charge=0
C	-2.054594	-0.014898	0.002544	6
C	-0.562414	-0.018018	0.000174	6
N	0.162746	-1.093768	-0.000376	7
C	1.446796	-0.645258	-0.001916	6
N	2.426436	-1.461528	-0.003386	7
C	1.471437	0.816092	-0.001606	6
C	0.203076	1.226662	-0.000316	6
H	-2.434694	-1.039618	-0.010846	1
H	-2.421744	0.513622	-0.881166	1
H	-2.418303	0.489172	0.901834	1
H	1.997696	-2.394999	-0.003116	1
H	2.374936	1.397251	-0.002236	1
H	-0.191374	2.225291	0.000414	1
Es	-0.562469	-0.017958	0.000177	99
Es	-2.287837	0.345477	-0.585537	99
Es	0.743639	-0.916792	-0.000983	99
Es	1.446700	-0.645205	-0.001915	99
Es	0.162891	-1.093209	-0.000377	99
Es	1.969293	-1.078639	-0.278275	99
Es	0.802906	1.026409	0.311507	99
Es	-2.281680	0.325110	0.600426	99
Es	1.511234	0.094173	-0.001738	99
Es	1.970041	-1.078866	0.272727	99
Es	-0.083287	1.895800	0.000253	99
Es	0.202954	1.226664	-0.000311	99
Es	-0.212008	0.643498	0.000326	99
Es	2.810009	-1.407913	-0.003857	99
Es	-1.303926	-0.018224	0.001204	99
Es	0.800680	1.025050	-0.313662	99
Es	0.000872	-0.708248	-0.008966	99
Es	2.425907	-1.461577	-0.003385	99
Es	2.165778	-1.997130	-0.003244	99
Es	-2.312403	-0.685375	-0.005980	99
Es	0.057371	-1.424091	-0.000529	99
Es	2.066733	1.200937	-0.002074	99
Es	-0.185718	-0.604408	0.008619	99
Es	1.471516	0.816026	-0.001603	99
Es	-2.054533	-0.014867	0.002544	99
38
Properties=species:S:1:pos:R:3:Z:I:1 energy=-301.7959745529229 field_type=dipole dipole="0.000000 0.000000 0.000000" charge=0
C	-2.054594	-0.014898	0.002544	6
C	-0.562414	-0.018018	0.000174	6
N	0.162746	-1.093768	-0.000376	7
C	1.446796	-0.645258	-0.001916	6
N	2.426436	-1.461528	-0.003386	7
C	1.471437	0.816092	-0.001606	6
C	0.203076	1.226662	-0.000316	6
H	-2.434694	-1.039618	-0.010846	1
H	-2.421744	0.513622	-0.881166	1
H	-2.418303	0.489172	0.901834	1
H	1.997696	-2.394999	-0.003116	1
H	2.374936	1.397251	-0.002236	1
H	-0.191374	2.225291	0.000414	1
Es	2.063593	1.200210	-0.002566	99
Es	-0.084452	1.895333	0.001528	99
Es	1.446701	-0.645207	-0.001915	99
Es	-1.303317	-0.018794	0.000457	99
Es	-0.185494	-0.604613	0.025486	99
Es	-0.562470	-0.017958	0.000176	99
Es	0.802444	1.027395	0.310023	99
Es	1.969028	-1.078556	0.271571	99
Es	-0.210819	0.642912	0.001916	99
Es	2.163503	-1.992041	-0.003916	99
Es	-2.312920	-0.683072	-0.006646	99
Es	0.057360	-1.413730	-0.004206	99
Es	-2.054534	-0.014867	0.002544	99
Es	0.162894	-1.093218	-0.000378	99
Es	1.970153	-1.079265	-0.275841	99
Es	-2.304057	0.364833	-0.570069	99
Es	2.812288	-1.412835	-0.006045	99
Es	0.744391	-0.927145	-0.001802	99
Es	2.425915	-1.461582	-0.003386	99
Es	-2.265322	0.305622	0.586825	99
Es	0.003716	-0.707496	-0.021863	99
Es	0.202955	1.226665	-0.000314	99
Es	1.471515	0.816026	-0.001607	99
Es	1.513574	0.094435	-0.001645	99
Es	0.798017	1.023588	-0.312980	99
38
Properties=species:S:1:pos:R:3:Z:I:1 energy=-301.7959745529229 field_type=dipole dipole="0.000000 0.000000 0.000000" charge=0
C	-2.054594	-0.014898	0.002544	6
C	-0.562414	-0.018018	0.000174	6
N	0.162746	-1.093768	-0.000376	7
C	1.446796	-0.645258	-0.001916	6
N	2.426436	-1.461528	-0.003386	7
C	1.471437	0.816092	-0.001606	6
C	0.203076	1.226662	-0.000316	6
H	-2.434694	-1.039618	-0.010846	1
H	-2.421744	0.513622	-0.881166	1
H	-2.418303	0.489172	0.901834	1
H	1.997696	-2.394999	-0.003116	1
H	2.374936	1.397251	-0.002236	1
H	-0.191374	2.225291	0.000414	1
Es	1.515514	0.094985	-0.002193	99
Es	-1.303312	-0.019828	0.002880	99
Es	0.057775	-1.402601	0.006141	99
Es	1.970211	-1.079301	0.271329	99
Es	0.804726	1.030717	-0.310964	99
Es	-0.209872	0.643444	-0.003442	99
Es	1.446702	-0.645207	-0.001922	99
Es	-0.562470	-0.017958	0.000171	99
Es	-0.184276	-0.604828	-0.047943	99
Es	1.969225	-1.078263	-0.278913	99
Es	2.425880	-1.461574	-0.003385	99
Es	0.744215	-0.938572	0.001057	99
Es	-2.054534	-0.014867	0.002544	99
Es	0.005261	-0.706316	0.040134	99
Es	2.813300	-1.418012	0.000326	99
Es	0.793327	1.019079	0.310797	99
Es	-2.312241	-0.680432	-0.004224	99
Es	2.060623	1.198920	-0.000996	99
Es	1.471516	0.816028	-0.001607	99
Es	-2.252878	0.302605	-0.540829	99
Es	0.162890	-1.093211	-0.000381	99
Es	-0.085105	1.894915	-0.002337	99
Es	0.202954	1.226666	-0.000320	99
Es	2.162124	-1.987266	-0.001843	99
Es	-2.316893	0.367518	0.551267	99
38
Properties=species:S:1:pos:R:3:Z:I:1 energy=-301.7959745529229 field_type=dipole dipole="0.000000 0.000000 0.000000" charge=0
C	-2.054594	-0.014898	0.002544	6
C	-0.562414	-0.018018	0.000174	6
N	0.162746	-1.093768	-0.000376	7
C	1.446796	-0.645258	-0.001916	6
N	2.426436	-1.461528	-0.003386	7
C	1.471437	0.816092	-0.001606	6
C	0.203076	1.226662	-0.000316	6
H	-2.434694	-1.039618	-0.010846	1
H	-2.421744	0.513622	-0.881166	1
H	-2.418303	0.489172	0.901834	1
H	1.997696	-2.394999	-0.003116	1
H	2.374936	1.397251	-0.002236	1
H	-0.191374	2.225291	0.000414	1
Es	1.446703	-0.645207	-0.001906	99
Es	1.969488	-1.078047	0.273897	99
Es	2.058583	1.197651	-0.003321	99
Es	0.804321	1.030097	0.310113	99
Es	0.743545	-0.946830	-0.003512	99
Es	2.425841	-1.461575	-0.003386	99
Es	2.814111	-1.424344	-0.009245	99
Es	-2.311603	-0.678740	-0.007700	99
Es	0.006821	-0.705763	-0.040974	99
Es	0.058697	-1.394335	-0.008486	99
Es	2.160924	-1.981356	-0.004795	99
Es	0.202959	1.226656	-0.000312	99
Es	1.516644	0.095421	-0.001343	99
Es	-0.085600	1.894529	0.003340	99
Es	-2.054536	-0.014869	0.002544	99
Es	1.970245	-1.079195	-0.276593	99
Es	1.471516	0.816025	-0.001609	99
Es	-0.183935	-0.604776	0.049872	99
Es	0.792065	1.018904	-0.314496	99
Es	0.162895	-1.093204	-0.000378	99
Es	-0.209021	0.644256	0.004471	99
Es	-2.242390	0.278280	0.527864	99
Es	-0.562469	-0.017958	0.000177	99
Es	-2.327658	0.391619	-0.508079	99
Es	-1.303481	-0.020599	-0.000791	99
38
Properties=species:S:1:pos:R:3:Z:I:1 energy=-301.7959745529229 field_type=dipole dipole="0.000000 0.000000 0.000000" charge=0
C	-2.054594	-0.014898	0.002544	6
C	-0.562414	-0.018018	0.000174	6
N	0.162746	-1.093768	-0.000376	7
C	1.446796	-0.645258	-0.001916	6
N	2.426436	-1.461528	-0.003386	7
C	1.471437	0.816092	-0.001606	6
C	0.203076	1.226662	-0.000316	6
H	-2.434694	-1.039618	-0.010846	1
H	-2.421744	0.513622	-0.881166	1
H	-2.418303	0.489172	0.901834	1
H	1.997696	-2.394999	-0.003116	1
H	2.374936	1.397251	-0.002236	1
H	-0.191374	2.225291	0.000414	1
Es	-0.085936	1.894459	0.001365	99
Es	-2.311154	-0.676821	-0.006330	99
Es	-0.562469	-0.017958	0.000175	99
Es	1.446703	-0.645206	-0.001915	99
Es	-0.184698	-0.603492	0.018125	99
Es	-2.054534	-0.014868	0.002545	99
Es	0.742744	-0.954287	-0.001419	99
Es	0.202948	1.226665	-0.000312	99
Es	-0.208947	0.643588	-0.000314	99
Es	0.738950	0.975053	0.029060	99
Es	2.425845	-1.461583	-0.003385	99
Es	2.814564	-1.429976	-0.005406	99
Es	-2.273019	0.314303	0.596607	99
Es	2.055910	1.196302	-0.001727	99
Es	1.970034	-1.078343	-0.278943	99
Es	0.162857	-1.093268	-0.000376	99
Es	1.970118	-1.078319	0.274260	99
Es	-1.303695	-0.021791	0.000493	99
Es	-2.296984	0.355935	-0.580456	99
Es	0.010917	-0.705234	-0.015458	99
Es	1.518140	0.096043	-0.001729	99
Es	2.159978	-1.976583	-0.003742	99
Es	0.060053	-1.387494	-0.003783	99
Es	0.854823	1.073488	-0.030389	99
Es	1.471515	0.816026	-0.001599	99
38
Properties=species:S:1:pos:R:3:Z:I:1 energy=-301.7959745529229 field_type=dipole dipole="0.000000 0.000000 0.000000" charge=0
C	-2.054594	-0.014898	0.002544	6
C	-0.562414	-0.018018	0.000174	6
N	0.162746	-1.093768	-0.000376	7
C	1.446796	-0.645258	-0.001916	6
N	2.426436	-1.461528	-0.003386	7
C	1.471437	0.816092	-0.001606	6
C	0.203076	1.226662	-0.000316	6
H	-2.434694	-1.039618	-0.010846	1
H	-2.421744	0.513622	-0.881166	1
H	-2.418303	0.489172	0.901834	1
H	1.997696	-2.394999	-0.003116	1
H	2.374936	1.397251	-0.002236	1
H	-0.191374	2.225291	0.000414	1
Es	2.425853	-1.461577	-0.003385	99
Es	-0.182754	-0.605005	-0.064033	99
Es	1.471515	0.816027	-0.001600	99
Es	-2.333305	0.387474	0.488993	99
Es	2.055105	1.195850	-0.000484	99
Es	-0.085931	1.894294	-0.003878	99
Es	0.742434	-0.956392	0.002293	99
Es	1.518640	0.096321	-0.002364	99
Es	-2.054534	-0.014867	0.002544	99
Es	0.162899	-1.093187	-0.000382	99
Es	1.446703	-0.645207	-0.001931	99
Es	0.785487	1.012872	0.309403	99
Es	2.814788	-1.433921	0.002867	99
Es	0.808415	1.034513	-0.308246	99
Es	0.008359	-0.704346	0.052507	99
Es	-1.303671	-0.021855	0.003716	99
Es	1.968750	-1.077469	-0.279513	99
Es	0.202948	1.226665	-0.000324	99
Es	-0.562469	-0.017958	0.000168	99
Es	2.159286	-1.972680	-0.001366	99
Es	-0.207969	0.645129	-0.005617	99
Es	0.060240	-1.385057	0.009273	99
Es	1.971660	-1.079118	0.270915	99
Es	-2.311027	-0.676239	-0.003290	99
Es	-2.236759	0.282371	-0.480917	99
38
Properties=species:S:1:pos:R:3:Z:I:1 energy=-301.7959745529229 field_type=dipole dipole="0.000000 0.000000 0.000000" charge=0
C	-2.054594	-0.014898	0.002544	6
C	-0.562414	-0.018018	0.000174	6
N	0.162746	-1.093768	-0.000376	7
C	1.446796	-0.645258	-0.001916	6
N	2.426436	-1.461528	-0.003386	7
C	1.471437	0.816092	-0.001606	6
C	0.203076	1.226662	-0.000316	6
H	-2.434694	-1.039618	-0.010846	1
H	-2.421744	0.513622	-0.881166	1
H	-2.418303	0.489172	0.901834	1
H	1.997696	-2.394999	-0.003116	1
H	2.374936	1.397251	-0.002236	1
H	-0.191374	2.225291	0.000414	1
Es	-1.303772	-0.022284	0.003934	99
Es	2.814697	-1.434618	0.003277	99
Es	1.969156	-1.077429	-0.280372	99
Es	0.009074	-0.703979	0.053355	99
Es	-0.562469	-0.017959	0.000167	99
Es	-0.207595	0.645424	-0.005621	99
Es	0.805810	1.032238	-0.310930	99
Es	-0.086112	1.894148	-0.004096	99
Es	1.971369	-1.079024	0.271738	99
Es	2.159198	-1.972105	-0.001310	99
Es	0.061137	-1.379901	0.010347	99
Es	-2.233868	0.278494	-0.466259	99
Es	1.519155	0.096575	-0.002492	99
Es	-2.310608	-0.675203	-0.002974	99
Es	0.162901	-1.093185	-0.000376	99
Es	0.787239	1.014569	0.311861	99
Es	1.471523	0.816035	-0.001605	99
Es	2.054115	1.195241	-0.000627	99
Es	0.202914	1.226643	-0.000326	99
Es	1.446703	-0.645206	-0.001928	99
Es	-2.054535	-0.014868	0.002544	99
Es	2.425882	-1.461581	-0.003385	99
Es	-2.336399	0.391146	0.473778	99
Es	-0.182216	-0.604754	-0.066010	99
Es	0.741365	-0.961775	0.002655	99
38
Properties=species:S:1:pos:R:3:Z:I:1 energy=-301.7959745529229 field_type=dipole dipole="0.000000 0.000000 0.000000" charge=0
C	-2.054594	-0.014898	0.002544	6
C	-0.562414	-0.018018	0.000174	6
N	0.162746	-1.093768	-0.000376	7
C	1.446796	-0.645258	-0.001916	6
N	2.426436	-1.461528	-0.003386	7
C	1.471437	0.816092	-0.001606	6
C	0.203076	1.226662	-0.000316	6
H	-2.434694	-1.039618	-0.010846	1
H	-2.421744	0.513622	-0.881166	1
H	-2.418303	0.489172	0.901834	1
H	1.997696	-2.394999	-0.003116	1
H	2.374936	1.397251	-0.002236	1
H	-0.191374	2.225291	0.000414	1
Es	1.446700	-0.645210	-0.001909	99
Es	0.803139	1.029242	0.311653	99
Es	-0.562469	-0.017957	0.000180	99
Es	-0.182231	-0.604858	0.065675	99
Es	0.162898	-1.093185	-0.000376	99
Es	2.053670	1.194969	-0.003476	99
Es	-2.310437	-0.674832	-0.008530	99
Es	-2.054535	-0.014866	0.002541	99
Es	1.970383	-1.078835	-0.277698	99
Es	-2.340504	0.406135	-0.446778	99
Es	2.159198	-1.971217	-0.005029	99
Es	0.062783	-1.374238	-0.010485	99
Es	-0.086202	1.894074	0.004379	99
Es	0.739932	-0.967300	-0.004565	99
Es	0.009109	-0.703890	-0.054305	99
Es	0.789475	1.016988	-0.316563	99
Es	-0.207313	0.645850	0.005620	99
Es	1.519540	0.096756	-0.001228	99
Es	2.814672	-1.435549	-0.010908	99
Es	1.471516	0.816026	-0.001608	99
Es	0.202953	1.226666	-0.000309	99
Es	-2.229821	0.263456	0.468372	99
Es	2.425885	-1.461577	-0.003385	99
Es	1.970148	-1.077612	0.275525	99
Es	-1.303825	-0.022393	-0.001442	99
38
Properties=species:S:1:pos:R:3:Z:I:1 energy=-301.7959745529229 field_type=dipole dipole="0.000000 0.000000 0.000000" charge=0
C	-2.054594	-0.014898	0.002544	6
C	-0.562414	-0.018018	0.000174	6
N	0.162746	-1.093768	-0.000376	7
C	1.446796	-0.645258	-0.001916	6
N	2.426436	-1.461528	-0.003386	7
C	1.471437	0.816092	-0.001606	6
C	0.203076	1.226662	-0.000316	6
H	-2.434694	-1.039618	-0.010846	1
H	-2.421744	0.513622	-0.881166	1
H	-2.418303	0.489172	0.901834	1
H	1.997696	-2.394999	-0.003116	1
H	2.374936	1.397251	-0.002236	1
H	-0.191374	2.225291	0.000414	1
Es	0.801045	1.027339	0.312916	99
Es	0.202950	1.226666	-0.000309	99
Es	-2.228102	0.261501	0.458166	99
Es	1.471521	0.816025	-0.001608	99
Es	1.520080	0.097025	-0.001188	99
Es	0.162894	-1.093211	-0.000375	99
Es	2.425878	-1.461580	-0.003386	99
Es	0.009274	-0.703327	-0.059642	99
Es	1.970151	-1.078519	-0.278364	99
Es	1.446702	-0.645208	-0.001907	99
Es	-0.207020	0.646259	0.005203	99
Es	-1.303877	-0.022689	-0.001509	99
Es	-0.562470	-0.017959	0.000180	99
Es	0.739743	-0.968522	-0.004683	99
Es	0.790992	1.018489	-0.317213	99
Es	-2.310340	-0.674477	-0.008596	99
Es	2.814704	-1.439903	-0.010960	99
Es	2.158746	-1.967296	-0.005029	99
Es	-2.342232	0.408076	-0.436460	99
Es	-2.054536	-0.014868	0.002546	99
Es	1.970742	-1.077556	0.276135	99
Es	-0.181529	-0.604950	0.071399	99
Es	2.052796	1.194507	-0.003403	99
Es	-0.086296	1.894013	0.004455	99
Es	0.062849	-1.373196	-0.011020	99
38
Properties=species:S:1:pos:R:3:Z:I:1 energy=-301.7959745529229 field_type=dipole dipole="0.000000 0.000000 0.000000" charge=0
C	-2.054594	-0.014898	0.002544	6
C	-0.562414	-0.018018	0.000174	6
N	0.162746	-1.093768	-0.000376	7
C	1.446796	-0.645258	-0.001916	6
N	2.426436	-1.461528	-0.003386	7
C	1.471437	0.816092	-0.001606	6
C	0.203076	1.226662	-0.000316	6
H	-2.434694	-1.039618	-0.010846	1
H	-2.421744	0.513622	-0.881166	1
H	-2.418303	0.489172	0.901834	1
H	1.997696	-2.394999	-0.003116	1
H	2.374936	1.397251	-0.002236	1
H	-0.191374	2.225291	0.000414	1
Es	-0.562469	-0.017959	0.000181	99
Es	1.446703	-0.645207	-0.001905	99
Es	2.814642	-1.441412	-0.011385	99
Es	2.158692	-1.965898	-0.004914	99
Es	1.519837	0.097048	-0.001248	99
Es	0.009990	-0.703496	-0.054397	99
Es	-0.181918	-0.604672	0.066478	99
Es	-1.303903	-0.022724	-0.001627	99
Es	-2.343131	0.409131	-0.430675	99
Es	0.162901	-1.093178	-0.000375	99
Es	-0.206911	0.646257	0.005952	99
Es	1.970030	-1.078620	-0.278416	99
Es	1.970954	-1.077371	0.276293	99
Es	-0.086281	1.894005	0.004661	99
Es	0.787876	1.015755	-0.316415	99
Es	0.063978	-1.369674	-0.010743	99
Es	-2.310290	-0.674220	-0.008643	99
Es	2.425862	-1.461581	-0.003385	99
Es	0.202954	1.226666	-0.000306	99
Es	2.052607	1.194322	-0.003582	99
Es	-2.054535	-0.014867	0.002544	99
Es	0.803741	1.029865	0.311342	99
Es	-2.227132	0.260486	0.452701	99
Es	0.738952	-0.972045	-0.005177	99
Es	1.471516	0.816028	-0.001609	99
38
Properties=species:S:1:pos:R:3:Z:I:1 energy=-301.7959745529229 field_type=dipole dipole="0.000000 0.000000 0.000000" charge=0
C	-2.054594	-0.014898	0.002544	6
C	-0.562414	-0.018018	0.000174	6
N	0.162746	-1.093768	-0.000376	7
C	1.446796	-0.645258	-0.001916	6
N	2.426436	-1.461528	-0.003386	7
C	1.471437	0.816092	-0.001606	6
C	0.203076	1.226662	-0.000316	6
H	-2.434694	-1.039618	-0.010846	1
H	-2.421744	0.513622	-0.881166	1
H	-2.418303	0.489172	0.901834	1
H	1.997696	-2.394999	-0.003116	1
H	2.374936	1.397251	-0.002236	1
H	-0.191374	2.225291	0.000414	1
Es	2.051508	1.193587	-0.000635	99
Es	1.520380	0.097325	-0.002644	99
Es	1.446702	-0.645208	-0.001927	99
Es	-2.227914	0.270879	-0.432378	99
Es	2.425861	-1.461582	-0.003385	99
Es	0.063991	-1.368429	0.011333	99
Es	1.971598	-1.078588	0.272520	99
Es	2.814517	-1.443740	0.004120	99
Es	0.738722	-0.973501	0.003474	99
Es	2.158360	-1.963942	-0.001133	99
Es	0.162897	-1.093195	-0.000377	99
Es	-2.310217	-0.673675	-0.002465	99
Es	0.807088	1.033267	-0.310161	99
Es	-0.562469	-0.017959	0.000166	99
Es	-0.206751	0.646352	-0.006025	99
Es	-2.342273	0.398749	0.438909	99
Es	0.010002	-0.702733	0.062100	99
Es	0.784204	1.012294	0.311321	99
Es	1.969688	-1.077146	-0.281497	99
Es	-1.303955	-0.023059	0.004228	99
Es	-0.180938	-0.604888	-0.076082	99
Es	-0.086245	1.894021	-0.004730	99
Es	1.471516	0.816025	-0.001600	99
Es	-2.054534	-0.014867	0.002544	99
Es	0.202926	1.226653	-0.000326	99
38
Properties=species:S:1:pos:R:3:Z:I:1 energy=-301.7959745529229 field_type=dipole dipole="0.000000 0.000000 0.000000" charge=0
C	-2.054594	-0.014898	0.002544	6
C	-0.562414	-0.018018	0.000174	6
N	0.162746	-1.093768	-0.000376	7
C	1.446796	-0.645258	-0.001916	6
N	2.426436	-1.461528	-0.003386	7
C	1.471437	0.816092	-0.001606	6
C	0.203076	1.226662	-0.000316	6
H	-2.434694	-1.039618	-0.010846	1
H	-2.421744	0.513622	-0.881166	1
H	-2.418303	0.489172	0.901834	1
H	1.997696	-2.394999	-0.003116	1
H	2.374936	1.397251	-0.002236	1
H	-0.191374	2.225291	0.000414	1
Es	-0.562469	-0.017959	0.000181	99
Es	0.202951	1.226666	-0.000309	99
Es	0.064521	-1.367041	-0.010301	99
Es	2.158469	-1.960393	-0.004876	99
Es	-1.303946	-0.022905	-0.001723	99
Es	0.162882	-1.093217	-0.000376	99
Es	0.786139	1.014385	-0.315777	99
Es	0.738225	-0.975129	-0.005330	99
Es	0.009210	-0.702496	-0.068031	99
Es	1.520142	0.097263	-0.001170	99
Es	0.805098	1.030876	0.310848	99
Es	1.970634	-1.078466	-0.278440	99
Es	2.814462	-1.447333	-0.011451	99
Es	-2.224988	0.258221	0.439139	99
Es	1.471515	0.816026	-0.001609	99
Es	-0.206572	0.646715	0.005795	99
Es	1.446703	-0.645207	-0.001905	99
Es	-2.345181	0.411485	-0.417091	99
Es	-2.054534	-0.014866	0.002545	99
Es	2.425864	-1.461579	-0.003385	99
Es	1.970636	-1.077244	0.276390	99
Es	-0.086284	1.894019	0.004655	99
Es	-0.180313	-0.604998	0.079720	99
Es	2.051747	1.193708	-0.003553	99
Es	-2.310246	-0.673892	-0.008595	99
38
Properties=species:S:1:pos:R:3:Z:I:1 energy=-301.7959745529229 field_type=dipole dipole="0.000000 0.000000 0.000000" charge=0
C	-2.054594	-0.014898	0.002544	6
C	-0.562414	-0.018018	0.000174	6
N	0.162746	-1.093768	-0.000376	7
C	1.446796	-0.645258	-0.001916	6
N	2.426436	-1.461528	-0.003386	7
C	1.471437	0.816092	-0.001606	6
C	0.203076	1.226662	-0.000316	6
H	-2.434694	-1.039618	-0.010846	1
H	-2.421744	0.513622	-0.881166	1
H	-2.418303	0.489172	0.901834	1
H	1.997696	-2.394999	-0.003116	1
H	2.374936	1.397251	-0.002236	1
H	-0.191374	2.225291	0.000414	1
Es	2.158398	-1.960464	-0.004811	99
Es	-2.310054	-0.673337	-0.008777	99
Es	1.970461	-1.078459	-0.278629	99
Es	-2.054535	-0.014868	0.002544	99
Es	0.065319	-1.364523	-0.010848	99
Es	2.051481	1.193549	-0.003471	99
Es	0.737635	-0.977584	-0.005302	99
Es	1.520147	0.097336	-0.001106	99
Es	1.471515	0.816026	-0.001608	99
Es	0.202926	1.226653	-0.000306	99
Es	-0.562469	-0.017959	0.000180	99
Es	-2.224301	0.257295	0.434217	99
Es	0.787531	1.015558	-0.316980	99
Es	-0.180663	-0.604815	0.076218	99
Es	1.446702	-0.645208	-0.001907	99
Es	1.970918	-1.077144	0.276531	99
Es	-2.345924	0.412341	-0.411927	99
Es	0.803487	1.029452	0.312073	99
Es	0.162910	-1.093170	-0.000379	99
Es	2.814415	-1.447365	-0.011671	99
Es	-0.086237	1.894040	0.004779	99
Es	-1.304083	-0.023409	-0.001770	99
Es	-0.206466	0.646949	0.005820	99
Es	2.425849	-1.461584	-0.003385	99
Es	0.009703	-0.702672	-0.064137	99
38
Properties=species:S:1:pos:R:3:Z:I:1 energy=-301.7959745529229 field_type=dipole dipole="0.000000 0.000000 0.000000" charge=0
C	-2.054594	-0.014898	0.002544	6
C	-0.562414	-0.018018	0.000174	6
N	0.162746	-1.093768	-0.000376	7
C	1.446796	-0.645258	-0.001916	6
N	2.426436	-1.461528	-0.003386	7
C	1.471437	0.816092	-0.001606	6
C	0.203076	1.226662	-0.000316	6
H	-2.434694	-1.039618	-0.010846	1
H	-2.421744	0.513622	-0.881166	1
H	-2.418303	0.489172	0.901834	1
H	1.997696	-2.394999	-0.003116	1
H	2.374936	1.397251	-0.002236	1
H	-0.191374	2.225291	0.000414	1
Es	1.957780	-1.076865	-0.000996	99
Es	-0.207488	0.645107	-0.001632	99
Es	2.158024	-1.964996	-0.003734	99
Es	-2.281025	0.323953	0.601156	99
Es	1.471515	0.816025	-0.001605	99
Es	1.446702	-0.645208	-0.001915	99
Es	0.854054	1.071900	-0.043857	99
Es	1.983445	-1.078789	-0.004334	99
Es	2.814915	-1.443158	-0.003972	99
Es	0.735502	0.973533	0.043526	99
Es	0.014954	-0.703482	-0.001675	99
Es	1.521238	0.097945	-0.001599	99
Es	0.162903	-1.093212	-0.000377	99
Es	2.049845	1.192612	-0.001307	99
Es	-2.310019	-0.672671	-0.005992	99
Es	-2.054538	-0.014871	0.002544	99
Es	0.202941	1.226663	-0.000312	99
Es	0.069643	-1.353941	-0.002413	99
Es	0.733865	-0.988943	-0.001049	99
Es	2.425862	-1.461594	-0.003385	99
Es	-1.304237	-0.024089	0.000830	99
Es	-0.562470	-0.017959	0.000175	99
Es	-0.183702	-0.602226	0.002457	99
Es	-0.086209	1.894361	0.000789	99
Es	-2.288838	0.346543	-0.585974	99
38
Properties=species:S:1:pos:R:3:Z:I:1 energy=-301.7959745529229 field_type=dipole dipole="0.000000 0.000000 0.000000" charge=0
C	-2.054594	-0.014898	0.002544	6
C	-0.562414	-0.018018	0.000174	6
N	0.162746	-1.093768	-0.000376	7
C	1.446796	-0.645258	-0.001916	6
N	2.426436	-1.461528	-0.003386	7
C	1.471437	0.816092	-0.001606	6
C	0.203076	1.226662	-0.000316	6
H	-2.434694	-1.039618	-0.010846	1
H	-2.421744	0.513622	-0.881166	1
H	-2.418303	0.489172	0.901834	1
H	1.997696	-2.394999	-0.003116	1
H	2.374936	1.397251	-0.002236	1
H	-0.191374	2.225291	0.000414	1
Es	-0.086287	1.893964	-0.005050	99
Es	0.808219	1.034154	-0.309148	99
Es	-2.054535	-0.014864	0.002547	99
Es	0.735988	-0.982558	0.003849	99
Es	-1.304088	-0.023550	0.004388	99
Es	1.471514	0.816026	-0.001609	99
Es	2.050066	1.192748	-0.000548	99
Es	2.814335	-1.445464	0.004738	99
Es	2.158394	-1.962339	-0.001172	99
Es	2.425821	-1.461596	-0.003385	99
Es	1.969568	-1.076999	-0.281458	99
Es	0.202940	1.226662	-0.000324	99
Es	0.782109	1.010687	0.310227	99
Es	0.162896	-1.093189	-0.000374	99
Es	-0.206389	0.646694	-0.006232	99
Es	1.446702	-0.645208	-0.001928	99
Es	-0.180308	-0.604851	-0.079873	99
Es	-2.225164	0.267347	-0.414463	99
Es	0.010537	-0.702083	0.065745	99
Es	-2.309917	-0.672737	-0.002270	99
Es	1.971816	-1.078653	0.272274	99
Es	1.521175	0.097757	-0.002727	99
Es	-2.345039	0.402234	0.420590	99
Es	-0.562469	-0.017958	0.000166	99
Es	0.066780	-1.359584	0.011385	99
38
Properties=species:S:1:pos:R:3:Z:I:1 energy=-301.7959745529229 field_type=dipole dipole="0.000000 0.000000 0.000000" charge=0
C	-2.054594	-0.014898	0.002544	6
C	-0.562414	-0.018018	0.000174	6
N	0.162746	-1.093768	-0.000376	7
C	1.446796	-0.645258	-0.001916	6
N	2.426436	-1.461528	-0.003386	7
C	1.471437	0.816092	-0.001606	6
C	0.203076	1.226662	-0.000316	6
H	-2.434694	-1.039618	-0.010846	1
H	-2.421744	0.513622	-0.881166	1
H	-2.418303	0.489172	0.901834	1
H	1.997696	-2.394999	-0.003116	1
H	2.374936	1.397251	-0.002236	1
H	-0.191374	2.225291	0.000414	1
Es	0.067311	-1.358727	-0.010982	99
Es	2.814318	-1.446919	-0.011686	99
Es	-1.303933	-0.022897	-0.001716	99
Es	-0.086409	1.893897	0.004919	99
Es	1.446702	-0.645208	-0.001913	99
Es	-2.347702	0.414298	-0.399339	99
Es	0.803453	1.029346	0.312323	99
Es	1.971010	-1.077251	0.276866	99
Es	-2.054533	-0.014867	0.002544	99
Es	1.970283	-1.078442	-0.278864	99
Es	-2.222602	0.255264	0.421770	99
Es	1.521068	0.097679	-0.001126	99
Es	2.158561	-1.960878	-0.004912	99
Es	2.050470	1.192972	-0.003456	99
Es	0.009970	-0.702046	-0.068725	99
Es	0.202943	1.226664	-0.000309	99
Es	2.425807	-1.461598	-0.003385	99
Es	0.162898	-1.093188	-0.000377	99
Es	-2.309939	-0.673181	-0.008942	99
Es	0.735576	-0.983284	-0.005630	99
Es	-0.206216	0.646983	0.005641	99
Es	-0.180186	-0.605112	0.081153	99
Es	0.786763	1.015071	-0.317076	99
Es	-0.562469	-0.017959	0.000181	99
Es	1.471518	0.816025	-0.001608	99
38
Properties=species:S:1:pos:R:3:Z:I:1 energy=-301.7959745529229 field_type=dipole dipole="0.000000 0.000000 0.000000" charge=0
C	-2.054594	-0.014898	0.002544	6
C	-0.562414	-0.018018	0.000174	6
N	0.162746	-1.093768	-0.000376	7
C	1.446796	-0.645258	-0.001916	6
N	2.426436	-1.461528	-0.003386	7
C	1.471437	0.816092	-0.001606	6
C	0.203076	1.226662	-0.000316	6
H	-2.434694	-1.039618	-0.010846	1
H	-2.421744	0.513622	-0.881166	1
H	-2.418303	0.489172	0.901834	1
H	1.997696	-2.394999	-0.003116	1
H	2.374936	1.397251	-0.002236	1
H	-0.191374	2.225291	0.000414	1
Es	-0.086321	1.893940	-0.005029	99
Es	2.050010	1.192567	-0.000707	99
Es	1.471515	0.816026	-0.001605	99
Es	2.158151	-1.959692	-0.001189	99
Es	0.067395	-1.357248	0.011760	99
Es	2.814196	-1.448451	0.004784	99
Es	0.010439	-0.701676	0.069729	99
Es	1.971166	-1.078404	0.273173	99
Es	1.520733	0.097689	-0.002771	99
Es	2.425865	-1.461579	-0.003385	99
Es	1.970529	-1.076938	-0.282289	99
Es	0.202955	1.226665	-0.000317	99
Es	-2.223956	0.265765	-0.405973	99
Es	-0.179531	-0.604847	-0.084301	99
Es	-0.206187	0.647024	-0.006407	99
Es	-2.346154	0.403879	0.411935	99
Es	0.162909	-1.093177	-0.000373	99
Es	0.782310	1.010853	0.311048	99
Es	-2.054536	-0.014868	0.002542	99
Es	1.446703	-0.645208	-0.001928	99
Es	0.807692	1.033686	-0.309912	99
Es	0.735323	-0.985128	0.004093	99
Es	-0.562469	-0.017959	0.000166	99
Es	-2.310009	-0.672920	-0.002117	99
Es	-1.304064	-0.023361	0.004423	99
38
Properties=species:S:1:pos:R:3:Z:I:1 energy=-301.7959745529229 field_type=dipole dipole="0.000000 0.000000 0.000000" charge=0
C	-2.054594	-0.014898	0.002544	6
C	-0.562414	-0.018018	0.000174	6
N	0.162746	-1.093768	-0.000376	7
C	1.446796	-0.645258	-0.001916	6
N	2.426436	-1.461528	-0.003386	7
C	1.471437	0.816092	-0.001606	6
C	0.203076	1.226662	-0.000316	6
H	-2.434694	-1.039618	-0.010846	1
H	-2.421744	0.513622	-0.881166	1
H	-2.418303	0.489172	0.901834	1
H	1.997696	-2.394999	-0.003116	1
H	2.374936	1.397251	-0.002236	1
H	-0.191374	2.225291	0.000414	1
Es	-1.304181	-0.023920	-0.001863	99
Es	0.735036	-0.985346	-0.005576	99
Es	1.471517	0.816030	-0.001607	99
Es	0.802667	1.028657	0.312908	99
Es	-0.206024	0.647207	0.005676	99
Es	1.446702	-0.645209	-0.001905	99
Es	2.425880	-1.461589	-0.003386	99
Es	0.162904	-1.093189	-0.000378	99
Es	-0.562469	-0.017958	0.000181	99
Es	1.521050	0.097742	-0.001017	99
Es	-0.086493	1.893841	0.004891	99
Es	2.814326	-1.446300	-0.011733	99
Es	1.970007	-1.078355	-0.278916	99
Es	-2.348654	0.415242	-0.392577	99
Es	1.971330	-1.077284	0.276892	99
Es	2.158467	-1.961509	-0.004964	99
Es	-2.221719	0.254239	0.415159	99
Es	-2.309592	-0.672000	-0.008977	99
Es	2.050125	1.192725	-0.003348	99
Es	-0.179897	-0.605261	0.083827	99
Es	-2.054534	-0.014867	0.002544	99
Es	0.202954	1.226665	-0.000301	99
Es	0.010001	-0.701685	-0.071699	99
Es	0.068068	-1.356713	-0.010929	99
Es	0.787192	1.015476	-0.317555	99
38
Properties=species:S:1:pos:R:3:Z:I:1 energy=-301.7959745529229 field_type=dipole dipole="0.000000 0.000000 0.000000" charge=0
C	-2.054594	-0.014898	0.002544	6