45
Properties=species:S:1:pos:R:3:Z:I:1 energy=-288.0948134018891 field_type=dipole dipole="0.000000 0.000000 0.000000" charge=0
C	-2.962938	0.232839	0.425264	6
C	-1.478488	0.076739	0.385674	6
C	-0.771298	-0.085581	-0.744256	6
C	0.702842	-0.237821	-0.767606	6
C	1.555252	0.887069	-0.143806	6
C	2.413322	-0.268631	0.402604	6
N	1.218272	-1.135661	0.294064	7
H	-3.224628	1.191119	0.884204	1
H	-3.405958	-0.568401	1.024564	1
H	-3.409858	0.199099	-0.573416	1
H	-0.970288	0.090239	1.348064	1
H	-1.276638	-0.105231	-1.705756	1
H	1.053332	-0.525081	-1.768966	1
H	1.070722	1.484749	0.637314	1
H	2.055282	1.558149	-0.847256	1
H	3.236972	-0.567801	-0.256176	1
H	2.795092	-0.137271	1.418254	1
H	1.399012	-2.088521	-0.012766	1
Es	-2.222651	0.155415	0.399214	99
Es	2.413195	-0.268698	0.402571	99
Es	1.897310	1.350414	-0.628190	99
Es	2.978683	-0.473454	-0.060234	99
Es	-0.042648	-0.161577	-0.764362	99
Es	-3.132247	0.881159	0.737672	99
Es	0.968431	-0.800663	-0.199788	99
Es	1.340348	-1.711196	0.090964	99
Es	-0.771240	-0.085577	-0.744351	99
Es	-1.084173	0.320792	-0.219256	99
Es	1.555270	0.887010	-0.143817	99
Es	-1.478582	0.076755	0.385762	99
Es	1.218628	-1.135650	0.293586	99
Es	1.073616	0.392735	-0.502954	99
Es	1.782727	-0.820385	0.355012	99
Es	2.054497	0.372578	0.151289	99
Es	1.018132	-1.107857	0.586042	99
Es	-1.114940	-0.096733	-1.405401	99
Es	-3.255206	-0.309573	0.832449	99
Es	0.702883	-0.237881	-0.767495	99
Es	-1.150223	-0.332067	-0.175379	99
Es	-2.962904	0.232838	0.425269	99
Es	-1.143518	0.092507	1.040211	99
Es	2.684256	-0.182225	1.102570	99
Es	0.950119	-0.433454	-1.459722	99
Es	-3.263109	0.209510	-0.256329	99
Es	1.219911	1.281513	0.388153	99
45
Properties=species:S:1:pos:R:3:Z:I:1 energy=-288.0948134018891 field_type=dipole dipole="0.000000 0.000000 0.000000" charge=0
C	-2.962938	0.232839	0.425264	6
C	-1.478488	0.076739	0.385674	6
C	-0.771298	-0.085581	-0.744256	6
C	0.702842	-0.237821	-0.767606	6
C	1.555252	0.887069	-0.143806	6
C	2.413322	-0.268631	0.402604	6
N	1.218272	-1.135661	0.294064	7
H	-3.224628	1.191119	0.884204	1
H	-3.405958	-0.568401	1.024564	1
H	-3.409858	0.199099	-0.573416	1
H	-0.970288	0.090239	1.348064	1
H	-1.276638	-0.105231	-1.705756	1
H	1.053332	-0.525081	-1.768966	1
H	1.070722	1.484749	0.637314	1
H	2.055282	1.558149	-0.847256	1
H	3.236972	-0.567801	-0.256176	1
H	2.795092	-0.137271	1.418254	1
H	1.399012	-2.088521	-0.012766	1
Es	-1.478586	0.076751	0.385763	99
Es	1.555269	0.887013	-0.143817	99
Es	-2.222546	0.155249	0.399602	99
Es	1.219026	1.282017	0.390006	99
Es	1.218636	-1.135665	0.293574	99
Es	-3.132292	0.881357	0.737873	99
Es	1.012082	-1.107971	0.594940	99
Es	-2.962903	0.232837	0.425268	99
Es	1.898157	1.349695	-0.629133	99
Es	-3.255123	-0.309601	0.832326	99
Es	-1.143847	0.092636	1.040026	99
Es	1.074028	0.391205	-0.501987	99
Es	2.413193	-0.268697	0.402575	99
Es	0.702884	-0.237881	-0.767494	99
Es	-0.042434	-0.161286	-0.763631	99
Es	2.052837	0.371306	0.150691	99
Es	1.343044	-1.707213	0.087374	99
Es	-1.084103	0.322052	-0.219191	99
Es	-1.114830	-0.097078	-1.405259	99
Es	-3.262908	0.209443	-0.256318	99
Es	0.950943	-0.433368	-1.461571	99
Es	-1.150168	-0.332860	-0.175024	99
Es	2.979876	-0.473361	-0.061618	99
Es	2.683378	-0.181491	1.102913	99
Es	-0.771239	-0.085580	-0.744352	99
Es	1.781036	-0.821499	0.350360	99
Es	0.973154	-0.801773	-0.200413	99
45
Properties=species:S:1:pos:R:3:Z:I:1 energy=-288.0948134018891 field_type=dipole dipole="0.000000 0.000000 0.000000" charge=0
C	-2.962938	0.232839	0.425264	6
C	-1.478488	0.076739	0.385674	6
C	-0.771298	-0.085581	-0.744256	6
C	0.702842	-0.237821	-0.767606	6
C	1.555252	0.887069	-0.143806	6
C	2.413322	-0.268631	0.402604	6
N	1.218272	-1.135661	0.294064	7
H	-3.224628	1.191119	0.884204	1
H	-3.405958	-0.568401	1.024564	1
H	-3.409858	0.199099	-0.573416	1
H	-0.970288	0.090239	1.348064	1
H	-1.276638	-0.105231	-1.705756	1
H	1.053332	-0.525081	-1.768966	1
H	1.070722	1.484749	0.637314	1
H	2.055282	1.558149	-0.847256	1
H	3.236972	-0.567801	-0.256176	1
H	2.795092	-0.137271	1.418254	1
H	1.399012	-2.088521	-0.012766	1
Es	1.779465	-0.822307	0.347435	99
Es	-0.042463	-0.161238	-0.763288	99
Es	1.344639	-1.704754	0.085097	99
Es	-2.962905	0.232838	0.425270	99
Es	1.898775	1.349254	-0.629823	99
Es	0.951506	-0.433233	-1.462488	99
Es	-3.132287	0.881424	0.738043	99
Es	-2.222436	0.155326	0.399754	99
Es	-3.262941	0.209365	-0.256350	99
Es	0.976608	-0.802478	-0.200474	99
Es	1.008489	-1.107712	0.600000	99
Es	2.682900	-0.181101	1.103307	99
Es	-0.771239	-0.085586	-0.744354	99
Es	-3.254941	-0.309549	0.832298	99
Es	1.218612	-1.135653	0.293600	99
Es	0.702882	-0.237889	-0.767493	99
Es	2.051698	0.370312	0.150300	99
Es	-1.143999	0.092846	1.039934	99
Es	2.413194	-0.268696	0.402573	99
Es	-1.084046	0.322759	-0.219108	99
Es	2.980413	-0.473171	-0.062605	99
Es	1.074363	0.390365	-0.501347	99
Es	-1.478582	0.076766	0.385759	99
Es	1.218515	1.282138	0.391194	99
Es	-1.114705	-0.097255	-1.405132	99
Es	-1.150221	-0.333549	-0.174802	99
Es	1.555269	0.887012	-0.143817	99
45
Properties=species:S:1:pos:R:3:Z:I:1 energy=-288.0948134018891 field_type=dipole dipole="0.000000 0.000000 0.000000" charge=0
C	-2.962938	0.232839	0.425264	6
C	-1.478488	0.076739	0.385674	6
C	-0.771298	-0.085581	-0.744256	6
C	0.702842	-0.237821	-0.767606	6
C	1.555252	0.887069	-0.143806	6
C	2.413322	-0.268631	0.402604	6
N	1.218272	-1.135661	0.294064	7
H	-3.224628	1.191119	0.884204	1
H	-3.405958	-0.568401	1.024564	1
H	-3.409858	0.199099	-0.573416	1
H	-0.970288	0.090239	1.348064	1
H	-1.276638	-0.105231	-1.705756	1
H	1.053332	-0.525081	-1.768966	1
H	1.070722	1.484749	0.637314	1
H	2.055282	1.558149	-0.847256	1
H	3.236972	-0.567801	-0.256176	1
H	2.795092	-0.137271	1.418254	1
H	1.399012	-2.088521	-0.012766	1
Es	-0.771240	-0.085583	-0.744361	99
Es	0.702883	-0.237882	-0.767495	99
Es	1.006197	-1.107373	0.603378	99
Es	-3.254815	-0.309604	0.832121	99
Es	-0.042403	-0.160936	-0.762879	99
Es	-2.222483	0.155284	0.399991	99
Es	1.218609	-1.135654	0.293611	99
Es	2.413189	-0.268695	0.402571	99
Es	-3.262796	0.209354	-0.256431	99
Es	1.074712	0.389528	-0.500762	99
Es	2.050768	0.369583	0.150075	99
Es	2.682478	-0.180652	1.103575	99
Es	1.345705	-1.702909	0.083747	99
Es	-1.478584	0.076753	0.385761	99
Es	-2.962905	0.232838	0.425270	99
Es	2.980832	-0.472846	-0.063377	99
Es	0.951934	-0.433209	-1.463152	99
Es	-1.150120	-0.333819	-0.174627	99
Es	-1.084055	0.323205	-0.219066	99
Es	-1.114598	-0.097424	-1.405146	99
Es	1.218171	1.282145	0.392027	99
Es	-1.144133	0.092865	1.039832	99
Es	1.899203	1.348920	-0.630395	99
Es	1.778362	-0.822958	0.345204	99
Es	-3.132419	0.881468	0.738246	99
Es	1.555270	0.887010	-0.143817	99
Es	0.978802	-0.803172	-0.200416	99
45
Properties=species:S:1:pos:R:3:Z:I:1 energy=-288.0948134018891 field_type=dipole dipole="0.000000 0.000000 0.000000" charge=0
C	-2.962938	0.232839	0.425264	6
C	-1.478488	0.076739	0.385674	6
C	-0.771298	-0.085581	-0.744256	6
C	0.702842	-0.237821	-0.767606	6
C	1.555252	0.887069	-0.143806	6
C	2.413322	-0.268631	0.402604	6
N	1.218272	-1.135661	0.294064	7
H	-3.224628	1.191119	0.884204	1
H	-3.405958	-0.568401	1.024564	1
H	-3.409858	0.199099	-0.573416	1
H	-0.970288	0.090239	1.348064	1
H	-1.276638	-0.105231	-1.705756	1
H	1.053332	-0.525081	-1.768966	1
H	1.070722	1.484749	0.637314	1
H	2.055282	1.558149	-0.847256	1
H	3.236972	-0.567801	-0.256176	1
H	2.795092	-0.137271	1.418254	1
H	1.399012	-2.088521	-0.012766	1
Es	-1.150109	-0.334045	-0.174315	99
Es	-1.114582	-0.097660	-1.405142	99
Es	-3.254773	-0.309518	0.832041	99
Es	-1.083996	0.323593	-0.219175	99
Es	-0.771236	-0.085586	-0.744356	99
Es	2.981034	-0.472725	-0.063858	99
Es	0.952225	-0.433112	-1.463620	99
Es	2.413196	-0.268695	0.402573	99
Es	2.050275	0.368964	0.149719	99
Es	-2.222369	0.155244	0.400174	99
Es	1.074936	0.389010	-0.500352	99
Es	-1.478585	0.076757	0.385763	99
Es	-0.042417	-0.160850	-0.762658	99
Es	1.777160	-0.823244	0.344119	99
Es	1.555270	0.887011	-0.143817	99
Es	-2.962904	0.232837	0.425271	99
Es	1.004387	-1.107264	0.605291	99
Es	-3.262777	0.209368	-0.256571	99
Es	2.682159	-0.180308	1.103901	99
Es	-3.132407	0.881425	0.738376	99
Es	1.218609	-1.135659	0.293606	99
Es	0.980684	-0.803497	-0.200239	99
Es	1.899554	1.348615	-0.630843	99
Es	-1.144182	0.092986	1.039866	99
Es	1.217915	1.282122	0.392694	99
Es	0.702883	-0.237883	-0.767490	99
Es	1.346614	-1.701650	0.082529	99
45
Properties=species:S:1:pos:R:3:Z:I:1 energy=-288.0948134018891 field_type=dipole dipole="0.000000 0.000000 0.000000" charge=0
C	-2.962938	0.232839	0.425264	6
C	-1.478488	0.076739	0.385674	6
C	-0.771298	-0.085581	-0.744256	6
C	0.702842	-0.237821	-0.767606	6
C	1.555252	0.887069	-0.143806	6
C	2.413322	-0.268631	0.402604	6
N	1.218272	-1.135661	0.294064	7
H	-3.224628	1.191119	0.884204	1
H	-3.405958	-0.568401	1.024564	1
H	-3.409858	0.199099	-0.573416	1
H	-0.970288	0.090239	1.348064	1
H	-1.276638	-0.105231	-1.705756	1
H	1.053332	-0.525081	-1.768966	1
H	1.070722	1.484749	0.637314	1
H	2.055282	1.558149	-0.847256	1
H	3.236972	-0.567801	-0.256176	1
H	2.795092	-0.137271	1.418254	1
H	1.399012	-2.088521	-0.012766	1
Es	1.218627	-1.135642	0.293594	99
Es	2.413193	-0.268697	0.402572	99
Es	-2.962905	0.232838	0.425270	99
Es	2.681945	-0.180131	1.104060	99
Es	0.981456	-0.803789	-0.199854	99
Es	-3.132327	0.881539	0.738311	99
Es	-1.144229	0.093030	1.039826	99
Es	-0.042476	-0.160844	-0.762508	99
Es	-3.262777	0.209273	-0.256506	99
Es	-1.150133	-0.334256	-0.174343	99
Es	-0.771237	-0.085589	-0.744355	99
Es	1.555271	0.887011	-0.143817	99
Es	1.003831	-1.107056	0.607308	99
Es	1.075104	0.388535	-0.500056	99
Es	1.776707	-0.823669	0.342430	99
Es	1.899919	1.348370	-0.631184	99
Es	2.049489	0.368666	0.149449	99
Es	-3.254751	-0.309498	0.832161	99
Es	-1.478584	0.076755	0.385762	99
Es	-1.114560	-0.097595	-1.405144	99
Es	1.346886	-1.700563	0.081784	99
Es	0.952525	-0.433033	-1.463899	99
Es	1.217830	1.282038	0.393289	99
Es	0.702885	-0.237883	-0.767495	99
Es	-1.083952	0.323801	-0.219019	99
Es	-2.222356	0.155235	0.400181	99
Es	2.981181	-0.472609	-0.064331	99
45
Properties=species:S:1:pos:R:3:Z:I:1 energy=-288.0948134018891 field_type=dipole dipole="0.000000 0.000000 0.000000" charge=0
C	-2.962938	0.232839	0.425264	6
C	-1.478488	0.076739	0.385674	6
C	-0.771298	-0.085581	-0.744256	6
C	0.702842	-0.237821	-0.767606	6
C	1.555252	0.887069	-0.143806	6
C	2.413322	-0.268631	0.402604	6
N	1.218272	-1.135661	0.294064	7
H	-3.224628	1.191119	0.884204	1
H	-3.405958	-0.568401	1.024564	1
H	-3.409858	0.199099	-0.573416	1
H	-0.970288	0.090239	1.348064	1
H	-1.276638	-0.105231	-1.705756	1
H	1.053332	-0.525081	-1.768966	1
H	1.070722	1.484749	0.637314	1
H	2.055282	1.558149	-0.847256	1
H	3.236972	-0.567801	-0.256176	1
H	2.795092	-0.137271	1.418254	1
H	1.399012	-2.088521	-0.012766	1
Es	2.413195	-0.268697	0.402573	99
Es	1.775781	-0.824080	0.341585	99
Es	-3.262798	0.209271	-0.256591	99
Es	-1.114560	-0.097688	-1.405156	99
Es	2.681829	-0.179958	1.104223	99
Es	2.981225	-0.472440	-0.064744	99
Es	0.982823	-0.804190	-0.200114	99
Es	-0.042494	-0.160757	-0.762390	99
Es	1.347487	-1.699748	0.081419	99
Es	-0.771237	-0.085593	-0.744355	99
Es	-1.478582	0.076757	0.385763	99
Es	1.900191	1.348259	-0.631433	99
Es	1.075225	0.388214	-0.499792	99
Es	1.217676	1.281919	0.393610	99
Es	-1.084000	0.323831	-0.218887	99
Es	1.218603	-1.135665	0.293605	99
Es	0.952756	-0.432961	-1.464117	99
Es	1.555269	0.887012	-0.143817	99
Es	-3.132440	0.881508	0.738538	99
Es	2.049045	0.368318	0.149409	99
Es	-1.149968	-0.334436	-0.174251	99
Es	-1.144248	0.093159	1.039795	99
Es	-3.254579	-0.309472	0.831984	99
Es	1.002759	-1.106567	0.608603	99
Es	-2.222372	0.155281	0.400251	99
Es	-2.962904	0.232838	0.425271	99
Es	0.702884	-0.237880	-0.767496	99
45
Properties=species:S:1:pos:R:3:Z:I:1 energy=-288.0948134018891 field_type=dipole dipole="0.000000 0.000000 0.000000" charge=0
C	-2.962938	0.232839	0.425264	6
C	-1.478488	0.076739	0.385674	6
C	-0.771298	-0.085581	-0.744256	6
C	0.702842	-0.237821	-0.767606	6
C	1.555252	0.887069	-0.143806	6
C	2.413322	-0.268631	0.402604	6
N	1.218272	-1.135661	0.294064	7
H	-3.224628	1.191119	0.884204	1
H	-3.405958	-0.568401	1.024564	1
H	-3.409858	0.199099	-0.573416	1
H	-0.970288	0.090239	1.348064	1
H	-1.276638	-0.105231	-1.705756	1
H	1.053332	-0.525081	-1.768966	1
H	1.070722	1.484749	0.637314	1
H	2.055282	1.558149	-0.847256	1
H	3.236972	-0.567801	-0.256176	1
H	2.795092	-0.137271	1.418254	1
H	1.399012	-2.088521	-0.012766	1
Es	-1.114514	-0.097692	-1.405110	99
Es	2.048590	0.368017	0.149228	99
Es	1.217575	1.281883	0.393921	99
Es	-1.478585	0.076757	0.385762	99
Es	1.218604	-1.135686	0.293601	99
Es	0.952898	-0.432767	-1.464341	99
Es	1.002356	-1.106679	0.609751	99
Es	2.981322	-0.472361	-0.065001	99
Es	1.348250	-1.699019	0.080701	99
Es	1.555269	0.887011	-0.143816	99
Es	-1.144253	0.093089	1.039785	99
Es	2.681633	-0.179719	1.104362	99
Es	-1.150102	-0.334449	-0.174261	99
Es	-3.262901	0.209241	-0.256547	99
Es	-0.771235	-0.085583	-0.744358	99
Es	-2.222271	0.155263	0.400255	99
Es	-3.254532	-0.309396	0.832011	99
Es	0.983397	-0.804447	-0.199698	99
Es	1.075222	0.387917	-0.499652	99
Es	-1.083939	0.324051	-0.218882	99
Es	-0.042467	-0.160967	-0.762197	99
Es	-2.962904	0.232838	0.425270	99
Es	1.900493	1.348049	-0.631657	99
Es	1.774985	-0.824039	0.340717	99
Es	2.413194	-0.268699	0.402572	99
Es	0.702885	-0.237882	-0.767495	99
Es	-3.132406	0.881503	0.738561	99
45
Properties=species:S:1:pos:R:3:Z:I:1 energy=-288.0948134018891 field_type=dipole dipole="0.000000 0.000000 0.000000" charge=0
C	-2.962938	0.232839	0.425264	6
C	-1.478488	0.076739	0.385674	6
C	-0.771298	-0.085581	-0.744256	6
C	0.702842	-0.237821	-0.767606	6
C	1.555252	0.887069	-0.143806	6
C	2.413322	-0.268631	0.402604	6
N	1.218272	-1.135661	0.294064	7
H	-3.224628	1.191119	0.884204	1
H	-3.405958	-0.568401	1.024564	1
H	-3.409858	0.199099	-0.573416	1
H	-0.970288	0.090239	1.348064	1
H	-1.276638	-0.105231	-1.705756	1
H	1.053332	-0.525081	-1.768966	1
H	1.070722	1.484749	0.637314	1
H	2.055282	1.558149	-0.847256	1
H	3.236972	-0.567801	-0.256176	1
H	2.795092	-0.137271	1.418254	1
H	1.399012	-2.088521	-0.012766	1
Es	-0.042503	-0.160692	-0.762028	99
Es	1.348291	-1.698526	0.080539	99
Es	1.217445	1.281804	0.394167	99
Es	-1.144329	0.093159	1.039752	99
Es	0.984107	-0.804654	-0.199700	99
Es	2.048366	0.367669	0.149203	99
Es	-3.132531	0.881488	0.738634	99
Es	2.681477	-0.179590	1.104481	99
Es	-0.771236	-0.085593	-0.744355	99
Es	1.218602	-1.135622	0.293567	99
Es	1.075439	0.387608	-0.499480	99
Es	1.900616	1.347926	-0.631848	99
Es	-3.262775	0.209181	-0.256702	99
Es	0.953036	-0.432824	-1.464523	99
Es	-3.254487	-0.309328	0.831893	99
Es	-1.083884	0.324136	-0.218860	99
Es	1.774539	-0.824434	0.339883	99
Es	-2.962905	0.232838	0.425270	99
Es	-2.222311	0.155246	0.400464	99
Es	2.413196	-0.268696	0.402571	99
Es	2.981399	-0.472178	-0.065288	99
Es	-1.149986	-0.334574	-0.174090	99
Es	-1.114493	-0.097731	-1.405168	99
Es	0.702885	-0.237883	-0.767494	99
Es	-1.478586	0.076756	0.385763	99
Es	1.555270	0.887013	-0.143816	99
Es	1.001917	-1.106264	0.610649	99
45
Properties=species:S:1:pos:R:3:Z:I:1 energy=-288.0948134018891 field_type=dipole dipole="0.000000 0.000000 0.000000" charge=0
C	-2.962938	0.232839	0.425264	6
C	-1.478488	0.076739	0.385674	6
C	-0.771298	-0.085581	-0.744256	6
C	0.702842	-0.237821	-0.767606	6
C	1.555252	0.887069	-0.143806	6
C	2.413322	-0.268631	0.402604	6
N	1.218272	-1.135661	0.294064	7
H	-3.224628	1.191119	0.884204	1
H	-3.405958	-0.568401	1.024564	1
H	-3.409858	0.199099	-0.573416	1
H	-0.970288	0.090239	1.348064	1
H	-1.276638	-0.105231	-1.705756	1
H	1.053332	-0.525081	-1.768966	1
H	1.070722	1.484749	0.637314	1
H	2.055282	1.558149	-0.847256	1
H	3.236972	-0.567801	-0.256176	1
H	2.795092	-0.137271	1.418254	1
H	1.399012	-2.088521	-0.012766	1
Es	2.681295	-0.179444	1.104581	99
Es	-3.132578	0.881571	0.738678	99
Es	1.001677	-1.106376	0.611510	99
Es	1.900782	1.347803	-0.632033	99
Es	1.217449	1.281711	0.394483	99
Es	0.984527	-0.804637	-0.199533	99
Es	1.773989	-0.824686	0.339254	99
Es	-0.042552	-0.160665	-0.761990	99
Es	1.218593	-1.135649	0.293631	99
Es	-3.262772	0.209098	-0.256658	99
Es	-2.222255	0.155214	0.400467	99
Es	0.702884	-0.237884	-0.767495	99
Es	-1.478585	0.076756	0.385762	99
Es	-2.962904	0.232838	0.425270	99
Es	1.348712	-1.697867	0.079958	99
Es	0.953282	-0.432686	-1.464631	99
Es	-1.083924	0.324154	-0.218798	99
Es	-1.114487	-0.097738	-1.405189	99
Es	-3.254422	-0.309280	0.831845	99
Es	-1.149968	-0.334687	-0.174098	99
Es	2.413194	-0.268696	0.402572	99
Es	1.075392	0.387445	-0.499250	99
Es	1.555268	0.887013	-0.143817	99
Es	-1.144321	0.093155	1.039779	99
Es	2.048028	0.367405	0.149029	99
Es	-0.771236	-0.085585	-0.744356	99
Es	2.981495	-0.472045	-0.065490	99
45
Properties=species:S:1:pos:R:3:Z:I:1 energy=-288.0948134018891 field_type=dipole dipole="0.000000 0.000000 0.000000" charge=0
C	-2.962938	0.232839	0.425264	6
C	-1.478488	0.076739	0.385674	6
C	-0.771298	-0.085581	-0.744256	6
C	0.702842	-0.237821	-0.767606	6
C	1.555252	0.887069	-0.143806	6
C	2.413322	-0.268631	0.402604	6
N	1.218272	-1.135661	0.294064	7
H	-3.224628	1.191119	0.884204	1
H	-3.405958	-0.568401	1.024564	1
H	-3.409858	0.199099	-0.573416	1
H	-0.970288	0.090239	1.348064	1
H	-1.276638	-0.105231	-1.705756	1
H	1.053332	-0.525081	-1.768966	1
H	1.070722	1.484749	0.637314	1
H	2.055282	1.558149	-0.847256	1
H	3.236972	-0.567801	-0.256176	1
H	2.795092	-0.137271	1.418254	1
H	1.399012	-2.088521	-0.012766	1
Es	1.773704	-0.824861	0.338695	99
Es	-0.042510	-0.160593	-0.761917	99
Es	-1.149994	-0.334666	-0.174032	99
Es	0.953351	-0.432739	-1.464698	99
Es	1.217363	1.281665	0.394649	99
Es	0.702885	-0.237881	-0.767495	99
Es	-1.478585	0.076758	0.385762	99
Es	-3.254333	-0.309369	0.831917	99
Es	-1.083882	0.324202	-0.218797	99
Es	1.900848	1.347684	-0.632234	99
Es	0.984827	-0.804710	-0.199298	99
Es	1.001528	-1.106137	0.612139	99
Es	-3.132662	0.881493	0.738640	99
Es	1.218603	-1.135650	0.293616	99
Es	1.075625	0.387231	-0.499126	99
Es	-2.222276	0.155486	0.400495	99
Es	2.413195	-0.268695	0.402572	99
Es	1.348730	-1.697571	0.079657	99
Es	-1.114484	-0.097826	-1.405163	99
Es	-0.771236	-0.085586	-0.744356	99
Es	2.981465	-0.471995	-0.065720	99
Es	1.555269	0.887012	-0.143817	99
Es	-3.262743	0.209065	-0.256703	99
Es	2.047881	0.367161	0.148953	99
Es	-1.144332	0.093199	1.039764	99
Es	2.681230	-0.179279	1.104711	99
Es	-2.962902	0.232838	0.425270	99
45
Properties=species:S:1:pos:R:3:Z:I:1 energy=-288.0948134018891 field_type=dipole dipole="0.000000 0.000000 0.000000" charge=0
C	-2.962938	0.232839	0.425264	6
C	-1.478488	0.076739	0.385674	6
C	-0.771298	-0.085581	-0.744256	6
C	0.702842	-0.237821	-0.767606	6
C	1.555252	0.887069	-0.143806	6
C	2.413322	-0.268631	0.402604	6
N	1.218272	-1.135661	0.294064	7
H	-3.224628	1.191119	0.884204	1
H	-3.405958	-0.568401	1.024564	1
H	-3.409858	0.199099	-0.573416	1
H	-0.970288	0.090239	1.348064	1
H	-1.276638	-0.105231	-1.705756	1
H	1.053332	-0.525081	-1.768966	1
H	1.070722	1.484749	0.637314	1
H	2.055282	1.558149	-0.847256	1
H	3.236972	-0.567801	-0.256176	1
H	2.795092	-0.137271	1.418254	1
H	1.399012	-2.088521	-0.012766	1
Es	-0.042492	-0.160477	-0.761765	99
Es	1.555270	0.887012	-0.143816	99
Es	-2.222239	0.155350	0.400520	99
Es	1.217318	1.281633	0.394792	99
Es	-3.132502	0.881549	0.738613	99
Es	-1.478585	0.076756	0.385762	99
Es	-1.083889	0.324259	-0.218691	99
Es	1.218616	-1.135689	0.293639	99
Es	2.413195	-0.268697	0.402572	99
Es	-2.962904	0.232838	0.425270	99
Es	2.681051	-0.179249	1.104822	99
Es	1.349064	-1.697191	0.079435	99
Es	1.901004	1.347543	-0.632399	99
Es	0.985681	-0.804719	-0.199496	99
Es	1.075739	0.386957	-0.498991	99
Es	-3.262752	0.209122	-0.256664	99
Es	1.773333	-0.824899	0.338927	99
Es	2.981539	-0.471869	-0.065925	99
Es	-0.771236	-0.085586	-0.744356	99
Es	2.047639	0.366987	0.148978	99
Es	0.953400	-0.432714	-1.464839	99
Es	-1.149985	-0.334719	-0.174076	99
Es	-1.144322	0.093165	1.039747	99
Es	1.000707	-1.106119	0.612151	99
Es	-3.254490	-0.309273	0.831927	99
Es	0.702884	-0.237882	-0.767495	99
Es	-1.114479	-0.097853	-1.405159	99
45
Properties=species:S:1:pos:R:3:Z:I:1 energy=-288.0948134018891 field_type=dipole dipole="0.000000 0.000000 0.000000" charge=0
C	-2.962938	0.232839	0.425264	6
C	-1.478488	0.076739	0.385674	6
C	-0.771298	-0.085581	-0.744256	6
C	0.702842	-0.237821	-0.767606	6
C	1.555252	0.887069	-0.143806	6
C	2.413322	-0.268631	0.402604	6
N	1.218272	-1.135661	0.294064	7
H	-3.224628	1.191119	0.884204	1
H	-3.405958	-0.568401	1.024564	1
H	-3.409858	0.199099	-0.573416	1
H	-0.970288	0.090239	1.348064	1
H	-1.276638	-0.105231	-1.705756	1
H	1.053332	-0.525081	-1.768966	1
H	1.070722	1.484749	0.637314	1
H	2.055282	1.558149	-0.847256	1
H	3.236972	-0.567801	-0.256176	1
H	2.795092	-0.137271	1.418254	1
H	1.399012	-2.088521	-0.012766	1
Es	-2.222282	0.155171	0.400614	99
Es	2.413189	-0.268692	0.402571	99
Es	-3.262746	0.209241	-0.256750	99
Es	1.217386	1.281569	0.395095	99
Es	1.555267	0.887011	-0.143818	99
Es	-1.478585	0.076756	0.385762	99
Es	-1.144334	0.093158	1.039727	99
Es	2.681038	-0.179082	1.104930	99
Es	-2.962904	0.232838	0.425270	99
Es	1.075785	0.386794	-0.498880	99
Es	0.953531	-0.432593	-1.464860	99
Es	2.981487	-0.471879	-0.066021	99
Es	-0.771236	-0.085586	-0.744356	99
Es	1.901051	1.347421	-0.632526	99
Es	-1.149986	-0.334783	-0.173964	99
Es	-3.132502	0.881523	0.738862	99
Es	0.985831	-0.804807	-0.199150	99
Es	1.349172	-1.696931	0.079034	99
Es	1.218578	-1.135660	0.293674	99
Es	-1.114490	-0.097779	-1.405134	99
Es	-0.042655	-0.160515	-0.761756	99
Es	-1.083825	0.324366	-0.218736	99
Es	1.000966	-1.105907	0.612975	99
Es	1.772953	-0.825131	0.338054	99
Es	-3.254430	-0.309288	0.831724	99
Es	0.702884	-0.237882	-0.767495	99
Es	2.047421	0.366903	0.148638	99
45
Properties=species:S:1:pos:R:3:Z:I:1 energy=-288.0948134018891 field_type=dipole dipole="0.000000 0.000000 0.000000" charge=0
C	-2.962938	0.232839	0.425264	6
C	-1.478488	0.076739	0.385674	6
C	-0.771298	-0.085581	-0.744256	6
C	0.702842	-0.237821	-0.767606	6
C	1.555252	0.887069	-0.143806	6
C	2.413322	-0.268631	0.402604	6
N	1.218272	-1.135661	0.294064	7
H	-3.224628	1.191119	0.884204	1
H	-3.405958	-0.568401	1.024564	1
H	-3.409858	0.199099	-0.573416	1
H	-0.970288	0.090239	1.348064	1
H	-1.276638	-0.105231	-1.705756	1
H	1.053332	-0.525081	-1.768966	1
H	1.070722	1.484749	0.637314	1
H	2.055282	1.558149	-0.847256	1
H	3.236972	-0.567801	-0.256176	1
H	2.795092	-0.137271	1.418254	1
H	1.399012	-2.088521	-0.012766	1
Es	-1.149896	-0.334792	-0.173935	99
Es	-1.114508	-0.097865	-1.405141	99
Es	-2.962905	0.232838	0.425270	99
Es	1.075891	0.386685	-0.498818	99
Es	-3.254311	-0.309306	0.831779	99
Es	1.000521	-1.106007	0.613147	99
Es	-2.222316	0.155341	0.400641	99
Es	2.981527	-0.471753	-0.066212	99
Es	1.218578	-1.135634	0.293656	99
Es	-3.262751	0.209162	-0.256818	99
Es	0.986303	-0.804791	-0.199073	99
Es	1.349593	-1.696671	0.078717	99
Es	1.901275	1.347359	-0.632614	99
Es	-1.478585	0.076757	0.385762	99
Es	-1.083881	0.324324	-0.218707	99
Es	1.217168	1.281476	0.395115	99
Es	-0.771235	-0.085581	-0.744357	99
Es	1.772481	-0.825130	0.338187	99
Es	-0.042628	-0.160435	-0.761723	99
Es	2.047189	0.366678	0.148764	99
Es	0.702885	-0.237882	-0.767495	99
Es	0.953673	-0.432576	-1.464932	99
Es	2.413194	-0.268700	0.402574	99
Es	-1.144323	0.093237	1.039728	99
Es	2.680946	-0.178975	1.104943	99
Es	1.555270	0.887012	-0.143816	99
Es	-3.132590	0.881463	0.738842	99
