42
Properties=species:S:1:pos:R:3:Z:I:1 energy=-286.9159597892254 field_type=dipole dipole="0.000000 0.000000 0.000000" charge=0
C	-3.135246	-0.422573	-0.202481	6
C	-1.691246	-0.422573	-0.202481	6
C	-0.501086	-0.422573	-0.202481	6
C	0.904913	-0.422573	-0.202481	6
C	1.551824	-1.595283	-0.308011	6
C	1.648364	0.890647	-0.136961	6
N	1.604013	1.477367	1.199959	7
H	-3.529206	0.598307	-0.190461	1
H	-3.529246	-0.943383	0.675619	1
H	-3.529276	-0.922603	-1.092571	1
H	1.016354	-2.538023	-0.368451	1
H	2.635893	-1.641673	-0.317481	1
H	1.216114	1.593557	-0.859661	1
H	2.698304	0.757367	-0.422351	1
H	0.627854	1.604807	1.465059	1
H	2.011673	2.409197	1.165229	1
Es	1.011489	1.564869	1.340094	99
Es	-3.381177	-0.771256	0.384906	99
Es	-1.091582	-0.782328	-0.182798	99
Es	2.364857	0.791312	-0.331201	99
Es	-3.135135	-0.422572	-0.202481	99
Es	-2.391286	-0.422819	-0.202772	99
Es	-3.381353	-0.757235	-0.797957	99
Es	1.551869	-1.595358	-0.308021	99
Es	2.286833	-1.629271	-0.317580	99
Es	0.904784	-0.422457	-0.202477	99
Es	-0.500848	-0.422573	-0.202477	99
Es	-3.382447	0.261531	-0.194264	99
Es	-1.070666	-0.259635	-0.521247	99
Es	1.772064	1.275953	1.435492	99
Es	1.344983	1.364110	-0.640253	99
Es	1.606207	1.233109	0.607528	99
Es	1.603832	1.477574	1.199676	99
Es	1.255442	0.225191	-0.163172	99
Es	1.648315	0.890642	-0.136826	99
Es	-1.075780	-0.222772	0.097800	99
Es	1.211307	-1.026409	0.062097	99
Es	1.195196	-2.234777	-0.350056	99
Es	1.839013	2.045979	1.158189	99
Es	1.199201	-0.975695	-0.579024	99
Es	-1.691528	-0.422570	-0.202483	99
Es	0.180808	-0.408563	-0.196554	99
42
Properties=species:S:1:pos:R:3:Z:I:1 energy=-286.9159597892254 field_type=dipole dipole="0.000000 0.000000 0.000000" charge=0
C	-3.135246	-0.422573	-0.202481	6
C	-1.691246	-0.422573	-0.202481	6
C	-0.501086	-0.422573	-0.202481	6
C	0.904913	-0.422573	-0.202481	6
C	1.551824	-1.595283	-0.308011	6
C	1.648364	0.890647	-0.136961	6
N	1.604013	1.477367	1.199959	7
H	-3.529206	0.598307	-0.190461	1
H	-3.529246	-0.943383	0.675619	1
H	-3.529276	-0.922603	-1.092571	1
H	1.016354	-2.538023	-0.368451	1
H	2.635893	-1.641673	-0.317481	1
H	1.216114	1.593557	-0.859661	1
H	2.698304	0.757367	-0.422351	1
H	0.627854	1.604807	1.465059	1
H	2.011673	2.409197	1.165229	1
Es	2.369106	0.790568	-0.332181	99
Es	1.648316	0.890644	-0.136828	99
Es	1.254936	0.224851	-0.161475	99
Es	1.774161	1.275859	1.433152	99
Es	-1.076471	-0.188354	-0.462713	99
Es	0.178574	-0.411763	-0.197316	99
Es	1.551871	-1.595360	-0.308010	99
Es	1.342948	1.363298	-0.638115	99
Es	-1.691540	-0.422571	-0.202488	99
Es	-0.500831	-0.422572	-0.202478	99
Es	1.607980	1.234305	0.610683	99
Es	1.004117	1.566936	1.339032	99
Es	-3.380863	-0.769830	0.377821	99
Es	1.194517	-2.231550	-0.350307	99
Es	1.211111	-1.026025	0.056729	99
Es	-3.381576	-0.756459	-0.791319	99
Es	2.290828	-1.629731	-0.318009	99
Es	0.904780	-0.422451	-0.202480	99
Es	-1.092267	-0.779972	-0.263300	99
Es	1.603730	1.477700	1.199569	99
Es	-3.135134	-0.422571	-0.202481	99
Es	-1.069618	-0.297644	0.120019	99
Es	1.841418	2.041500	1.155794	99
Es	-2.387230	-0.421204	-0.201773	99
Es	-3.388230	0.262308	-0.193923	99
Es	1.199766	-0.975933	-0.573462	99
42
Properties=species:S:1:pos:R:3:Z:I:1 energy=-286.9159597892254 field_type=dipole dipole="0.000000 0.000000 0.000000" charge=0
C	-3.135246	-0.422573	-0.202481	6
C	-1.691246	-0.422573	-0.202481	6
C	-0.501086	-0.422573	-0.202481	6
C	0.904913	-0.422573	-0.202481	6
C	1.551824	-1.595283	-0.308011	6
C	1.648364	0.890647	-0.136961	6
N	1.604013	1.477367	1.199959	7
H	-3.529206	0.598307	-0.190461	1
H	-3.529246	-0.943383	0.675619	1
H	-3.529276	-0.922603	-1.092571	1
H	1.016354	-2.538023	-0.368451	1
H	2.635893	-1.641673	-0.317481	1
H	1.216114	1.593557	-0.859661	1
H	2.698304	0.757367	-0.422351	1
H	0.627854	1.604807	1.465059	1
H	2.011673	2.409197	1.165229	1
Es	1.603742	1.477698	1.199586	99
Es	1.842152	2.038472	1.154023	99
Es	-3.135133	-0.422568	-0.202481	99
Es	1.211093	-1.025617	0.054352	99
Es	-3.379743	-0.768778	0.372980	99
Es	-1.092299	-0.057078	-0.242909	99
Es	-1.066223	-0.537420	0.089744	99
Es	1.776758	1.273964	1.431436	99
Es	1.342179	1.363429	-0.636652	99
Es	-3.380903	-0.755438	-0.786625	99
Es	-3.392266	0.262157	-0.193500	99
Es	1.607503	1.236620	0.613071	99
Es	-1.691542	-0.422568	-0.202482	99
Es	-2.385529	-0.422635	-0.201489	99
Es	1.194585	-2.229446	-0.350331	99
Es	2.371001	0.790253	-0.331954	99
Es	1.551870	-1.595358	-0.308022	99
Es	2.292296	-1.630218	-0.318317	99
Es	-0.500829	-0.422577	-0.202492	99
Es	0.177579	-0.413345	-0.197253	99
Es	0.904780	-0.422452	-0.202467	99
Es	1.199998	-0.975877	-0.570927	99
Es	-1.079944	-0.670455	-0.453184	99
Es	1.254132	0.224398	-0.160776	99
Es	1.648314	0.890644	-0.136825	99
Es	1.000829	1.568173	1.337632	99
42
Properties=species:S:1:pos:R:3:Z:I:1 energy=-286.9159597892254 field_type=dipole dipole="0.000000 0.000000 0.000000" charge=0
C	-3.135246	-0.422573	-0.202481	6
C	-1.691246	-0.422573	-0.202481	6
C	-0.501086	-0.422573	-0.202481	6
C	0.904913	-0.422573	-0.202481	6
C	1.551824	-1.595283	-0.308011	6
C	1.648364	0.890647	-0.136961	6
N	1.604013	1.477367	1.199959	7
H	-3.529206	0.598307	-0.190461	1
H	-3.529246	-0.943383	0.675619	1
H	-3.529276	-0.922603	-1.092571	1
H	1.016354	-2.538023	-0.368451	1
H	2.635893	-1.641673	-0.317481	1
H	1.216114	1.593557	-0.859661	1
H	2.698304	0.757367	-0.422351	1
H	0.627854	1.604807	1.465059	1
H	2.011673	2.409197	1.165229	1
Es	1.253349	0.223636	-0.159131	99
Es	0.999099	1.569804	1.335817	99
Es	1.841619	2.035262	1.153739	99
Es	1.195402	-2.227196	-0.351236	99
Es	1.606167	1.240945	0.614640	99
Es	-1.691541	-0.422570	-0.202484	99
Es	1.780219	1.270122	1.430227	99
Es	1.603696	1.477723	1.199544	99
Es	0.176929	-0.413771	-0.197393	99
Es	2.293084	-1.630881	-0.318345	99
Es	-1.088844	-0.096152	-0.029168	99
Es	1.210322	-1.025964	0.053991	99
Es	-1.090287	-0.763783	-0.087197	99
Es	1.341114	1.363397	-0.635971	99
Es	-3.381302	-0.756274	-0.783651	99
Es	-0.500827	-0.422579	-0.202481	99
Es	-3.135133	-0.422575	-0.202474	99
Es	-3.376558	-0.766129	0.367556	99
Es	-3.396169	0.261584	-0.191530	99
Es	-2.384531	-0.422456	-0.201983	99
Es	2.372020	0.789802	-0.331620	99
Es	1.200994	-0.975514	-0.570410	99
Es	-1.059387	-0.405288	-0.488968	99
Es	1.551872	-1.595359	-0.308024	99
Es	1.648316	0.890643	-0.136828	99
Es	0.904778	-0.422449	-0.202478	99
42
Properties=species:S:1:pos:R:3:Z:I:1 energy=-286.9159597892254 field_type=dipole dipole="0.000000 0.000000 0.000000" charge=0
C	-3.135246	-0.422573	-0.202481	6
C	-1.691246	-0.422573	-0.202481	6
C	-0.501086	-0.422573	-0.202481	6
C	0.904913	-0.422573	-0.202481	6
C	1.551824	-1.595283	-0.308011	6
C	1.648364	0.890647	-0.136961	6
N	1.604013	1.477367	1.199959	7
H	-3.529206	0.598307	-0.190461	1
H	-3.529246	-0.943383	0.675619	1
H	-3.529276	-0.922603	-1.092571	1
H	1.016354	-2.538023	-0.368451	1
H	2.635893	-1.641673	-0.317481	1
H	1.216114	1.593557	-0.859661	1
H	2.698304	0.757367	-0.422351	1
H	0.627854	1.604807	1.465059	1
H	2.011673	2.409197	1.165229	1
Es	1.196232	-2.225513	-0.352071	99
Es	1.551872	-1.595359	-0.308021	99
Es	-2.384030	-0.422938	-0.201887	99
Es	-3.399606	0.260539	-0.189543	99
Es	-1.691544	-0.422566	-0.202485	99
Es	-1.090719	-0.767702	-0.097522	99
Es	1.340476	1.363465	-0.635045	99
Es	-3.135133	-0.422571	-0.202482	99
Es	-0.500824	-0.422578	-0.202479	99
Es	1.209981	-1.026278	0.053496	99
Es	0.176592	-0.413926	-0.197185	99
Es	1.201427	-0.974990	-0.570292	99
Es	-3.381055	-0.756238	-0.780966	99
Es	1.839972	2.032959	1.152331	99
Es	2.372651	0.789709	-0.331457	99
Es	2.293505	-1.631155	-0.318739	99
Es	1.603737	1.477687	1.199572	99
Es	-3.373979	-0.764394	0.363126	99
Es	0.998003	1.570209	1.335298	99
Es	-1.089739	-0.090586	-0.038511	99
Es	-1.058084	-0.406878	-0.469313	99
Es	1.252462	0.222882	-0.157642	99
Es	1.604425	1.244860	0.616921	99
Es	0.904777	-0.422451	-0.202475	99
Es	1.784683	1.267148	1.428338	99
Es	1.648316	0.890642	-0.136827	99
42
Properties=species:S:1:pos:R:3:Z:I:1 energy=-286.9159597892254 field_type=dipole dipole="0.000000 0.000000 0.000000" charge=0
C	-3.135246	-0.422573	-0.202481	6
C	-1.691246	-0.422573	-0.202481	6
C	-0.501086	-0.422573	-0.202481	6
C	0.904913	-0.422573	-0.202481	6
C	1.551824	-1.595283	-0.308011	6
C	1.648364	0.890647	-0.136961	6
N	1.604013	1.477367	1.199959	7
H	-3.529206	0.598307	-0.190461	1
H	-3.529246	-0.943383	0.675619	1
H	-3.529276	-0.922603	-1.092571	1
H	1.016354	-2.538023	-0.368451	1
H	2.635893	-1.641673	-0.317481	1
H	1.216114	1.593557	-0.859661	1
H	2.698304	0.757367	-0.422351	1
H	0.627854	1.604807	1.465059	1
H	2.011673	2.409197	1.165229	1
Es	0.997395	1.569946	1.335289	99
Es	-1.057294	-0.392843	-0.449307	99
Es	1.837448	2.031045	1.151437	99
Es	1.339942	1.363225	-0.634465	99
Es	-3.379899	-0.755256	-0.779008	99
Es	-1.691546	-0.422560	-0.202482	99
Es	1.551873	-1.595360	-0.308024	99
Es	-0.500827	-0.422588	-0.202486	99
Es	-3.372599	-0.763851	0.359775	99
Es	0.176410	-0.413659	-0.197295	99
Es	-2.383730	-0.423036	-0.201690	99
Es	2.293788	-1.631259	-0.319100	99
Es	-1.089522	-0.095777	-0.028550	99
Es	1.603658	1.477781	1.199495	99
Es	1.600548	1.253001	0.621133	99
Es	1.202107	-0.974972	-0.570339	99
Es	1.209225	-1.026405	0.053872	99
Es	1.197259	-2.224002	-0.352430	99
Es	-1.091762	-0.776720	-0.127481	99
Es	1.648317	0.890643	-0.136833	99
Es	-3.135132	-0.422573	-0.202478	99
Es	1.251693	0.222045	-0.157095	99
Es	2.373060	0.789870	-0.331291	99
Es	0.904776	-0.422448	-0.202478	99
Es	-3.402502	0.259242	-0.187986	99
Es	1.791716	1.260488	1.423955	99
42
Properties=species:S:1:pos:R:3:Z:I:1 energy=-286.9159597892254 field_type=dipole dipole="0.000000 0.000000 0.000000" charge=0
C	-3.135246	-0.422573	-0.202481	6
C	-1.691246	-0.422573	-0.202481	6
C	-0.501086	-0.422573	-0.202481	6
C	0.904913	-0.422573	-0.202481	6
C	1.551824	-1.595283	-0.308011	6
C	1.648364	0.890647	-0.136961	6
N	1.604013	1.477367	1.199959	7
H	-3.529206	0.598307	-0.190461	1
H	-3.529246	-0.943383	0.675619	1
H	-3.529276	-0.922603	-1.092571	1
H	1.016354	-2.538023	-0.368451	1
H	2.635893	-1.641673	-0.317481	1
H	1.216114	1.593557	-0.859661	1
H	2.698304	0.757367	-0.422351	1
H	0.627854	1.604807	1.465059	1
H	2.011673	2.409197	1.165229	1
Es	0.904776	-0.422448	-0.202478	99
Es	-2.383544	-0.423005	-0.201755	99
Es	2.293965	-1.631175	-0.319337	99
Es	-1.056840	-0.383918	-0.430426	99
Es	1.339880	1.363304	-0.633827	99
Es	-3.405145	0.257832	-0.187299	99
Es	0.176323	-0.413495	-0.197300	99
Es	1.202786	-0.974468	-0.570897	99
Es	-1.089417	-0.099462	-0.022012	99
Es	1.208673	-1.026805	0.054398	99
Es	1.551872	-1.595359	-0.308023	99
Es	1.250221	0.221141	-0.156295	99
Es	1.597410	1.260351	0.626529	99
Es	1.833555	2.028811	1.149815	99
Es	2.373300	0.789921	-0.331124	99
Es	-3.371412	-0.763355	0.357485	99
Es	-1.092363	-0.782137	-0.152973	99
Es	0.996916	1.569609	1.335079	99
Es	1.799311	1.255179	1.419383	99
Es	-1.691545	-0.422556	-0.202480	99
Es	-3.135133	-0.422565	-0.202482	99
Es	-3.378688	-0.754570	-0.776944	99
Es	-0.500824	-0.422582	-0.202484	99
Es	1.603672	1.477755	1.199515	99
Es	1.198333	-2.222671	-0.353099	99
Es	1.648319	0.890645	-0.136830	99
42
Properties=species:S:1:pos:R:3:Z:I:1 energy=-286.9159597892254 field_type=dipole dipole="0.000000 0.000000 0.000000" charge=0
C	-3.135246	-0.422573	-0.202481	6
C	-1.691246	-0.422573	-0.202481	6
C	-0.501086	-0.422573	-0.202481	6
C	0.904913	-0.422573	-0.202481	6
C	1.551824	-1.595283	-0.308011	6
C	1.648364	0.890647	-0.136961	6
N	1.604013	1.477367	1.199959	7
H	-3.529206	0.598307	-0.190461	1
H	-3.529246	-0.943383	0.675619	1
H	-3.529276	-0.922603	-1.092571	1
H	1.016354	-2.538023	-0.368451	1
H	2.635893	-1.641673	-0.317481	1
H	1.216114	1.593557	-0.859661	1
H	2.698304	0.757367	-0.422351	1
H	0.627854	1.604807	1.465059	1
H	2.011673	2.409197	1.165229	1
Es	1.249121	0.220611	-0.156350	99
Es	1.551872	-1.595358	-0.308027	99
Es	0.904776	-0.422451	-0.202475	99
Es	1.198775	-2.222244	-0.352848	99
Es	2.294045	-1.630895	-0.319994	99
Es	-2.383479	-0.423500	-0.202171	99
Es	-3.406475	0.257257	-0.189502	99
Es	1.340288	1.363746	-0.632493	99
Es	-1.084246	-0.705037	-0.425416	99
Es	2.373522	0.790435	-0.331134	99
Es	0.996551	1.567981	1.335853	99
Es	-3.373505	-0.766452	0.358247	99
Es	-1.060573	-0.507156	0.007200	99
Es	0.176258	-0.413357	-0.197584	99
Es	-0.500827	-0.422591	-0.202484	99
Es	-3.375362	-0.750852	-0.773930	99
Es	-1.093828	-0.053328	-0.187425	99
Es	1.834893	2.029711	1.149850	99
Es	1.592791	1.270772	0.637263	99
Es	-1.691546	-0.422563	-0.202479	99
Es	-3.135133	-0.422572	-0.202478	99
Es	1.208670	-1.026493	0.054021	99
Es	1.202553	-0.974809	-0.570565	99
Es	1.603663	1.477769	1.199484	99
Es	1.803282	1.244709	1.406401	99
Es	1.648315	0.890644	-0.136825	99
42
Properties=species:S:1:pos:R:3:Z:I:1 energy=-286.9159597892254 field_type=dipole dipole="0.000000 0.000000 0.000000" charge=0
C	-3.135246	-0.422573	-0.202481	6
C	-1.691246	-0.422573	-0.202481	6
C	-0.501086	-0.422573	-0.202481	6
C	0.904913	-0.422573	-0.202481	6
C	1.551824	-1.595283	-0.308011	6
C	1.648364	0.890647	-0.136961	6
N	1.604013	1.477367	1.199959	7
H	-3.529206	0.598307	-0.190461	1
H	-3.529246	-0.943383	0.675619	1
H	-3.529276	-0.922603	-1.092571	1
H	1.016354	-2.538023	-0.368451	1
H	2.635893	-1.641673	-0.317481	1
H	1.216114	1.593557	-0.859661	1
H	2.698304	0.757367	-0.422351	1
H	0.627854	1.604807	1.465059	1
H	2.011673	2.409197	1.165229	1
Es	1.551873	-1.595357	-0.308027	99
Es	-3.372701	-0.766426	0.356213	99
Es	-1.691546	-0.422562	-0.202481	99
Es	1.247985	0.220000	-0.155709	99
Es	2.294136	-1.630651	-0.320211	99
Es	-1.084102	-0.702789	-0.428686	99
Es	-2.383412	-0.423398	-0.202242	99
Es	1.603651	1.477797	1.199486	99
Es	1.207986	-1.026671	0.053798	99
Es	-3.135134	-0.422568	-0.202481	99
Es	1.589797	1.278839	0.647160	99
Es	1.340921	1.363284	-0.632152	99
Es	1.203439	-0.974470	-0.570083	99
Es	0.996342	1.567076	1.336281	99
Es	-3.408258	0.255943	-0.188091	99
Es	-0.500824	-0.422585	-0.202482	99
Es	1.813424	1.240836	1.398967	99
Es	1.827973	2.026625	1.146682	99
Es	0.176247	-0.413167	-0.197447	99
Es	-1.060688	-0.508702	-0.000294	99
Es	2.373622	0.790712	-0.331223	99
Es	-3.374511	-0.750056	-0.773188	99
Es	-1.093877	-0.054163	-0.176574	99
Es	1.198965	-2.221759	-0.353767	99
Es	0.904775	-0.422450	-0.202488	99
Es	1.648315	0.890641	-0.136823	99
42
Properties=species:S:1:pos:R:3:Z:I:1 energy=-286.9159597892254 field_type=dipole dipole="0.000000 0.000000 0.000000" charge=0
C	-3.135246	-0.422573	-0.202481	6
C	-1.691246	-0.422573	-0.202481	6
C	-0.501086	-0.422573	-0.202481	6
C	0.904913	-0.422573	-0.202481	6
C	1.551824	-1.595283	-0.308011	6
C	1.648364	0.890647	-0.136961	6
N	1.604013	1.477367	1.199959	7
H	-3.529206	0.598307	-0.190461	1
H	-3.529246	-0.943383	0.675619	1
H	-3.529276	-0.922603	-1.092571	1
H	1.016354	-2.538023	-0.368451	1
H	2.635893	-1.641673	-0.317481	1
H	1.216114	1.593557	-0.859661	1
H	2.698304	0.757367	-0.422351	1
H	0.627854	1.604807	1.465059	1
H	2.011673	2.409197	1.165229	1
Es	0.996113	1.566687	1.335623	99
Es	-1.093839	-0.055549	-0.159591	99
Es	-3.409780	0.254912	-0.187562	99
Es	-3.135132	-0.422573	-0.202480	99
Es	0.904775	-0.422448	-0.202466	99
Es	-2.383371	-0.423459	-0.202214	99
Es	1.587499	1.287279	0.657158	99
Es	-1.691547	-0.422561	-0.202473	99
Es	1.207344	-1.026984	0.054082	99
Es	-3.371819	-0.765768	0.354694	99
Es	-0.500824	-0.422585	-0.202486	99
Es	2.294204	-1.630461	-0.320173	99
Es	1.341153	1.363457	-0.631537	99
Es	0.176218	-0.413053	-0.197529	99
Es	-1.061997	-0.519850	-0.004180	99
Es	1.551871	-1.595356	-0.308036	99
Es	1.603677	1.477754	1.199509	99
Es	2.373719	0.790856	-0.331092	99
Es	1.815516	1.232675	1.386891	99
Es	1.648317	0.890643	-0.136832	99
Es	1.204057	-0.974222	-0.570244	99
Es	1.199609	-2.221111	-0.354113	99
Es	-3.373948	-0.749852	-0.772194	99
Es	1.246926	0.219377	-0.155493	99
Es	-1.082835	-0.690197	-0.441823	99
Es	1.828492	2.026365	1.148701	99
42
Properties=species:S:1:pos:R:3:Z:I:1 energy=-286.9159597892254 field_type=dipole dipole="0.000000 0.000000 0.000000" charge=0
C	-3.135246	-0.422573	-0.202481	6
C	-1.691246	-0.422573	-0.202481	6
C	-0.501086	-0.422573	-0.202481	6
C	0.904913	-0.422573	-0.202481	6
C	1.551824	-1.595283	-0.308011	6
C	1.648364	0.890647	-0.136961	6
N	1.604013	1.477367	1.199959	7
H	-3.529206	0.598307	-0.190461	1
H	-3.529246	-0.943383	0.675619	1
H	-3.529276	-0.922603	-1.092571	1
H	1.016354	-2.538023	-0.368451	1
H	2.635893	-1.641673	-0.317481	1
H	1.216114	1.593557	-0.859661	1
H	2.698304	0.757367	-0.422351	1
H	0.627854	1.604807	1.465059	1
H	2.011673	2.409197	1.165229	1
Es	1.204315	-0.973981	-0.569947	99
Es	0.995979	1.565826	1.335862	99
Es	-3.410976	0.253913	-0.186684	99
Es	1.586440	1.291092	0.663848	99
Es	1.341998	1.363336	-0.630722	99
Es	-0.500823	-0.422577	-0.202475	99
Es	-1.093844	-0.056035	-0.156877	99
Es	-1.082921	-0.690674	-0.441726	99
Es	2.373777	0.791108	-0.331255	99
Es	1.603652	1.477784	1.199473	99
Es	2.294258	-1.630258	-0.320278	99
Es	-1.061923	-0.519026	-0.007048	99
Es	-1.691547	-0.422569	-0.202484	99
Es	0.904775	-0.422454	-0.202470	99
Es	1.206686	-1.027309	0.053469	99
Es	1.823752	1.233238	1.382424	99
Es	-2.383343	-0.423439	-0.202212	99
Es	-3.371412	-0.765799	0.353289	99
Es	1.551873	-1.595358	-0.308026	99
Es	-3.135134	-0.422575	-0.202473	99
Es	1.246052	0.219189	-0.155024	99
Es	0.176205	-0.412979	-0.197335	99
Es	1.199848	-2.220692	-0.354681	99
Es	-3.373225	-0.749148	-0.771622	99
Es	1.821620	2.022726	1.145942	99
Es	1.648318	0.890642	-0.136828	99
42
Properties=species:S:1:pos:R:3:Z:I:1 energy=-286.9159597892254 field_type=dipole dipole="0.000000 0.000000 0.000000" charge=0
C	-3.135246	-0.422573	-0.202481	6
C	-1.691246	-0.422573	-0.202481	6
C	-0.501086	-0.422573	-0.202481	6
C	0.904913	-0.422573	-0.202481	6
C	1.551824	-1.595283	-0.308011	6
C	1.648364	0.890647	-0.136961	6
N	1.604013	1.477367	1.199959	7
H	-3.529206	0.598307	-0.190461	1
H	-3.529246	-0.943383	0.675619	1
H	-3.529276	-0.922603	-1.092571	1
H	1.016354	-2.538023	-0.368451	1
H	2.635893	-1.641673	-0.317481	1
H	1.216114	1.593557	-0.859661	1
H	2.698304	0.757367	-0.422351	1
H	0.627854	1.604807	1.465059	1
H	2.011673	2.409197	1.165229	1
Es	1.204874	-0.973877	-0.569373	99
Es	-2.383319	-0.423425	-0.202334	99
Es	2.294282	-1.630045	-0.320372	99
Es	1.245116	0.219062	-0.154946	99
Es	-1.061776	-0.517252	-0.013525	99
Es	1.585453	1.294440	0.669349	99
Es	0.995903	1.564897	1.336382	99
Es	-1.691547	-0.422562	-0.202476	99
Es	1.814151	2.017749	1.143596	99
Es	1.551873	-1.595358	-0.308026	99
Es	1.648317	0.890641	-0.136826	99
Es	-1.083045	-0.692137	-0.439914	99
Es	-3.410855	0.253736	-0.186818	99
Es	-3.371576	-0.765976	0.353524	99
Es	1.832295	1.235693	1.378207	99
Es	-1.093877	-0.056456	-0.152041	99
Es	1.199869	-2.220567	-0.355189	99
Es	-3.135133	-0.422579	-0.202471	99
Es	1.603713	1.477698	1.199511	99
Es	1.342768	1.363286	-0.630020	99
Es	2.373868	0.791381	-0.331158	99
Es	-3.373235	-0.749040	-0.771595	99
Es	1.206132	-1.027370	0.053050	99
Es	-0.500824	-0.422581	-0.202486	99
Es	0.176197	-0.412930	-0.197443	99
Es	0.904774	-0.422451	-0.202467	99
42
Properties=species:S:1:pos:R:3:Z:I:1 energy=-286.9159597892254 field_type=dipole dipole="0.000000 0.000000 0.000000" charge=0
C	-3.135246	-0.422573	-0.202481	6
C	-1.691246	-0.422573	-0.202481	6
C	-0.501086	-0.422573	-0.202481	6
C	0.904913	-0.422573	-0.202481	6
C	1.551824	-1.595283	-0.308011	6
C	1.648364	0.890647	-0.136961	6
N	1.604013	1.477367	1.199959	7
H	-3.529206	0.598307	-0.190461	1
H	-3.529246	-0.943383	0.675619	1
H	-3.529276	-0.922603	-1.092571	1
H	1.016354	-2.538023	-0.368451	1
H	2.635893	-1.641673	-0.317481	1
H	1.216114	1.593557	-0.859661	1
H	2.698304	0.757367	-0.422351	1
H	0.627854	1.604807	1.465059	1
H	2.011673	2.409197	1.165229	1
Es	-0.500824	-0.422583	-0.202484	99
Es	-3.135134	-0.422571	-0.202481	99
Es	-1.691547	-0.422562	-0.202475	99
Es	-3.374966	-0.751258	-0.772647	99
Es	1.551872	-1.595355	-0.308036	99
Es	2.373878	0.791398	-0.331099	99
Es	0.995891	1.564826	1.336507	99
Es	-3.368426	-0.762612	0.350378	99
Es	-1.057025	-0.369507	-0.392668	99
Es	1.244496	0.218701	-0.154249	99
Es	1.205713	-1.028164	0.053292	99
Es	1.205092	-0.973201	-0.569899	99
Es	1.603630	1.477802	1.199387	99
Es	1.200204	-2.220120	-0.355827	99
Es	1.846841	1.253604	1.387651	99
Es	-1.092732	-0.785953	-0.207778	99
Es	0.904774	-0.422449	-0.202474	99
Es	1.798681	2.003997	1.138341	99
Es	2.294311	-1.629943	-0.320198	99
Es	-1.088929	-0.110433	-0.004753	99
Es	1.343300	1.362978	-0.629974	99
Es	1.648319	0.890645	-0.136834	99
Es	-2.383308	-0.423166	-0.202359	99
Es	-3.412315	0.252249	-0.183001	99
Es	0.176198	-0.412848	-0.197509	99
Es	1.586406	1.290502	0.665329	99
42
Properties=species:S:1:pos:R:3:Z:I:1 energy=-286.9159597892254 field_type=dipole dipole="0.000000 0.000000 0.000000" charge=0
C	-3.135246	-0.422573	-0.202481	6
C	-1.691246	-0.422573	-0.202481	6
C	-0.501086	-0.422573	-0.202481	6
C	0.904913	-0.422573	-0.202481	6
C	1.551824	-1.595283	-0.308011	6
C	1.648364	0.890647	-0.136961	6
N	1.604013	1.477367	1.199959	7
H	-3.529206	0.598307	-0.190461	1
H	-3.529246	-0.943383	0.675619	1
H	-3.529276	-0.922603	-1.092571	1
H	1.016354	-2.538023	-0.368451	1
H	2.635893	-1.641673	-0.317481	1
H	1.216114	1.593557	-0.859661	1
H	2.698304	0.757367	-0.422351	1
H	0.627854	1.604807	1.465059	1
H	2.011673	2.409197	1.165229	1
Es	1.792840	1.997485	1.137679	99
Es	-1.089074	-0.108663	-0.007597	99
Es	1.343811	1.362840	-0.629649	99
Es	1.648318	0.890642	-0.136829	99
Es	0.176199	-0.412795	-0.197463	99
Es	-2.383305	-0.423224	-0.202378	99
Es	0.995834	1.564249	1.336643	99
Es	-1.691547	-0.422562	-0.202477	99
Es	1.205163	-1.027936	0.052577	99
Es	1.853318	1.258410	1.384626	99
Es	1.551873	-1.595359	-0.308021	99
Es	1.205545	-0.973489	-0.568834	99
Es	-3.135139	-0.422572	-0.202486	99
Es	1.199922	-2.220276	-0.356199	99
Es	-3.374132	-0.750235	-0.772387	99
Es	1.603663	1.477789	1.199470	99
Es	0.904774	-0.422449	-0.202477	99
Es	-0.500824	-0.422582	-0.202486	99
Es	2.373900	0.791522	-0.331082	99
Es	1.585775	1.292823	0.668740	99
Es	-1.092759	-0.786311	-0.210056	99
Es	-3.412580	0.251983	-0.183099	99
Es	2.294324	-1.629821	-0.320309	99
Es	-1.056851	-0.370890	-0.387539	99
Es	1.244368	0.218941	-0.154492	99
Es	-3.369015	-0.763544	0.350265	99
42
Properties=species:S:1:pos:R:3:Z:I:1 energy=-286.9159597892254 field_type=dipole dipole="0.000000 0.000000 0.000000" charge=0
C	-3.135246	-0.422573	-0.202481	6
C	-1.691246	-0.422573	-0.202481	6
C	-0.501086	-0.422573	-0.202481	6
C	0.904913	-0.422573	-0.202481	6
C	1.551824	-1.595283	-0.308011	6
C	1.648364	0.890647	-0.136961	6
N	1.604013	1.477367	1.199959	7
H	-3.529206	0.598307	-0.190461	1
H	-3.529246	-0.943383	0.675619	1
H	-3.529276	-0.922603	-1.092571	1
H	1.016354	-2.538023	-0.368451	1
H	2.635893	-1.641673	-0.317481	1
H	1.216114	1.593557	-0.859661	1
H	2.698304	0.757367	-0.422351	1
H	0.627854	1.604807	1.465059	1
H	2.011673	2.409197	1.165229	1
Es	2.294324	-1.629685	-0.320398	99
Es	-3.135132	-0.422571	-0.202481	99
Es	-3.374335	-0.750208	-0.772637	99
Es	1.551873	-1.595358	-0.308023	99
Es	1.344212	1.362627	-0.629402	99
Es	2.373933	0.791691	-0.331084	99
Es	-2.383315	-0.423315	-0.202426	99
Es	1.860868	1.265679	1.381603	99
Es	1.785858	1.989143	1.136037	99
Es	-1.056517	-0.373715	-0.377124	99
Es	0.904774	-0.422450	-0.202470	99
Es	1.648317	0.890640	-0.136835	99
Es	0.176199	-0.412818	-0.197441	99
Es	1.205229	-1.027721	0.052102	99
Es	1.205288	-0.973709	-0.568650	99
Es	-0.500824	-0.422580	-0.202487	99
Es	-1.089426	-0.105977	-0.011548	99
Es	1.603697	1.477780	1.199450	99
Es	1.585122	1.294467	0.673089	99
Es	0.995820	1.563785	1.336980	99
Es	1.199799	-2.220537	-0.355959	99
Es	-1.092748	-0.786240	-0.216568	99
Es	-1.691547	-0.422563	-0.202477	99
Es	-3.411059	0.253110	-0.185025	99
Es	-3.370333	-0.764707	0.352616	99
Es	1.244323	0.219211	-0.154703	99
42
Properties=species:S:1:pos:R:3:Z:I:1 energy=-286.9159597892254 field_type=dipole dipole="0.000000 0.000000 0.000000" charge=0
C	-3.135246	-0.422573	-0.202481	6
C	-1.691246	-0.422573	-0.202481	6
C	-0.501086	-0.422573	-0.202481	6
C	0.904913	-0.422573	-0.202481	6
C	1.551824	-1.595283	-0.308011	6
C	1.648364	0.890647	-0.136961	6
N	1.604013	1.477367	1.199959	7
H	-3.529206	0.598307	-0.190461	1
H	-3.529246	-0.943383	0.675619	1
H	-3.529276	-0.922603	-1.092571	1
H	1.016354	-2.538023	-0.368451	1
H	2.635893	-1.641673	-0.317481	1
H	1.216114	1.593557	-0.859661	1
H	2.698304	0.757367	-0.422351	1
H	0.627854	1.604807	1.465059	1
H	2.011673	2.409197	1.165229	1
Es	-3.135132	-0.422571	-0.202482	99
Es	1.583311	1.304701	0.689934	99
Es	1.795753	2.000681	1.139316	99
Es	1.853309	1.244066	1.360564	99
Es	0.904775	-0.422447	-0.202473	99
Es	-0.500824	-0.422583	-0.202473	99
Es	2.374021	0.792056	-0.331049	99
Es	0.176193	-0.412827	-0.197245	99
Es	-1.062142	-0.519652	-0.016616	99
Es	1.648318	0.890643	-0.136831	99
Es	2.294346	-1.629464	-0.320427	99
Es	1.603665	1.477775	1.199481	99
Es	-3.372038	-0.747668	-0.770854	99
Es	-1.691547	-0.422564	-0.202476	99
Es	1.205229	-1.027341	0.051169	99
Es	-3.412390	0.252223	-0.185478	99
Es	1.345234	1.362547	-0.628144	99
Es	-2.383300	-0.423475	-0.202464	99
Es	1.243242	0.219565	-0.154777	99
Es	-1.082750	-0.688606	-0.443953	99
Es	-1.093820	-0.057591	-0.145066	99
Es	1.205461	-0.973817	-0.567547	99
Es	1.199242	-2.220972	-0.356226	99
Es	1.551873	-1.595358	-0.308026	99
Es	0.995698	1.563209	1.336599	99
Es	-3.371329	-0.766552	0.351683	99
42
Properties=species:S:1:pos:R:3:Z:I:1 energy=-286.9159597892254 field_type=dipole dipole="0.000000 0.000000 0.000000" charge=0
C	-3.135246	-0.422573	-0.202481	6
C	-1.691246	-0.422573	-0.202481	6
C	-0.501086	-0.422573	-0.202481	6
C	0.904913	-0.422573	-0.202481	6
C	1.551824	-1.595283	-0.308011	6
C	1.648364	0.890647	-0.136961	6
N	1.604013	1.477367	1.199959	7
H	-3.529206	0.598307	-0.190461	1
H	-3.529246	-0.943383	0.675619	1
H	-3.529276	-0.922603	-1.092571	1
H	1.016354	-2.538023	-0.368451	1
H	2.635893	-1.641673	-0.317481	1
H	1.216114	1.593557	-0.859661	1
H	2.698304	0.757367	-0.422351	1
H	0.627854	1.604807	1.465059	1
H	2.011673	2.409197	1.165229	1
Es	-0.500824	-0.422581	-0.202484	99
Es	1.243860	0.219352	-0.154617	99
Es	1.205347	-1.027613	0.051685	99
Es	-3.372939	-0.748518	-0.771832	99
Es	-1.056353	-0.375287	-0.368999	99
Es	0.176187	-0.412792	-0.197527	99
Es	-1.691547	-0.422563	-0.202476	99
Es	-3.371175	-0.766072	0.352120	99
Es	-3.411635	0.252696	-0.185189	99
Es	1.199427	-2.220816	-0.356203	99
Es	1.648320	0.890642	-0.136827	99
Es	2.294348	-1.629554	-0.320374	99
Es	-1.089587	-0.104347	-0.014287	99
Es	0.995736	1.563170	1.337010	99
Es	1.205322	-0.973602	-0.568125	99
Es	-2.383306	-0.423411	-0.202485	99
Es	-3.135132	-0.422573	-0.202479	99
Es	1.779385	1.980542	1.135254	99
Es	1.867819	1.273177	1.378088	99
Es	0.904774	-0.422449	-0.202482	99
Es	2.373969	0.791872	-0.331097	99
Es	1.585037	1.295789	0.676665	99
Es	1.344611	1.362775	-0.628668	99
Es	1.551873	-1.595356	-0.308027	99
Es	-1.092754	-0.786290	-0.221928	99
Es	1.603637	1.477789	1.199426	99
42
Properties=species:S:1:pos:R:3:Z:I:1 energy=-286.9159597892254 field_type=dipole dipole="0.000000 0.000000 0.000000" charge=0
C	-3.135246	-0.422573	-0.202481	6
C	-1.691246	-0.422573	-0.202481	6
C	-0.501086	-0.422573	-0.202481	6
C	0.904913	-0.422573	-0.202481	6
C	1.551824	-1.595283	-0.308011	6
C	1.648364	0.890647	-0.136961	6
N	1.604013	1.477367	1.199959	7
H	-3.529206	0.598307	-0.190461	1
H	-3.529246	-0.943383	0.675619	1
H	-3.529276	-0.922603	-1.092571	1
H	1.016354	-2.538023	-0.368451	1
H	2.635893	-1.641673	-0.317481	1
H	1.216114	1.593557	-0.859661	1
H	2.698304	0.757367	-0.422351	1
H	0.627854	1.604807	1.465059	1
H	2.011673	2.409197	1.165229	1
Es	1.345175	1.362749	-0.628080	99
Es	2.294352	-1.629463	-0.320419	99
Es	-1.691547	-0.422563	-0.202477	99
Es	0.995704	1.563069	1.336812	99
Es	0.904774	-0.422451	-0.202466	99
Es	1.551873	-1.595358	-0.308023	99
Es	-3.372905	-0.748611	-0.771673	99
Es	1.603741	1.477680	1.199573	99
Es	-3.412395	0.252098	-0.184298	99
Es	1.205531	-1.027614	0.051630	99
Es	1.584498	1.298073	0.680600	99
Es	1.778279	1.978855	1.135449	99
Es	1.199421	-2.220873	-0.356115	99
Es	-2.383302	-0.423363	-0.202516	99
Es	1.648318	0.890642	-0.136830	99
Es	-1.089349	-0.106412	-0.011132	99
Es	-0.500825	-0.422583	-0.202488	99
Es	1.869440	1.272619	1.373781	99
Es	-3.370456	-0.765470	0.351100	99
Es	2.373999	0.791912	-0.331041	99
Es	-3.135132	-0.422572	-0.202481	99
Es	1.243140	0.219447	-0.154899	99
Es	-1.056584	-0.373165	-0.373228	99
Es	1.205230	-0.973470	-0.568293	99
Es	0.176184	-0.412795	-0.197515	99
Es	-1.092763	-0.786401	-0.220830	99
42
Properties=species:S:1:pos:R:3:Z:I:1 energy=-286.9159597892254 field_type=dipole dipole="0.000000 0.000000 0.000000" charge=0
C	-3.135246	-0.422573	-0.202481	6
C	-1.691246	-0.422573	-0.202481	6
C	-0.501086	-0.422573	-0.202481	6
C	0.904913	-0.422573	-0.202481	6
C	1.551824	-1.595283	-0.308011	6
C	1.648364	0.890647	-0.136961	6
N	1.604013	1.477367	1.199959	7
H	-3.529206	0.598307	-0.190461	1
H	-3.529246	-0.943383	0.675619	1
H	-3.529276	-0.922603	-1.092571	1
H	1.016354	-2.538023	-0.368451	1
H	2.635893	-1.641673	-0.317481	1
H	1.216114	1.593557	-0.859661	1
H	2.698304	0.757367	-0.422351	1
H	0.627854	1.604807	1.465059	1
H	2.011673	2.409197	1.165229	1
Es	-1.092765	-0.786429	-0.220611	99
Es	-1.056081	-0.377802	-0.365816	99
Es	1.551873	-1.595358	-0.308027	99
Es	1.243382	0.219645	-0.154750	99
Es	-1.691547	-0.422566	-0.202481	99
Es	0.176191	-0.412709	-0.197525	99
Es	2.373992	0.791965	-0.331056	99
Es	-1.089845	-0.101709	-0.018739	99
Es	2.294351	-1.629494	-0.320499	99
Es	0.904777	-0.422453	-0.202452	99
Es	-3.135133	-0.422572	-0.202479	99
Es	1.345298	1.362563	-0.628134	99
Es	-3.370972	-0.766114	0.351645	99
Es	1.648319	0.890643	-0.136829	99
Es	1.584626	1.297664	0.680287	99
Es	1.205335	-1.027488	0.051279	99
Es	-2.383306	-0.423344	-0.202589	99
Es	1.205262	-0.973719	-0.567698	99
Es	-3.372600	-0.748235	-0.771484	99
Es	1.199191	-2.220973	-0.356300	99
Es	-3.412189	0.252248	-0.184903	99
Es	-0.500824	-0.422578	-0.202487	99
Es	1.873404	1.279238	1.374120	99
Es	0.995728	1.562934	1.337204	99
Es	1.774294	1.972795	1.135024	99
Es	1.603637	1.477826	1.199441	99
