17
Properties=species:S:1:pos:R:3:Z:I:1 energy=-79.25981200173598 field_type=dipole dipole="0.000000 0.000000 0.000000" charge=0
C	1.004040	-0.002950	-0.006400	6
C	2.515960	-0.007020	0.000590	6
H	0.622350	1.022400	-0.001640	1
H	0.614110	-0.519740	0.875610	1
H	0.622370	-0.508420	-0.898570	1
H	2.897650	0.502100	0.890620	1
H	2.905890	0.506090	-0.883570	1
H	2.897630	-1.032430	0.000060	1
Es	2.775718	-0.708446	0.000175	99
Es	0.744341	-0.348795	-0.616667	99
Es	2.781379	0.344002	-0.604204	99
Es	2.775775	0.341206	0.609417	99
Es	0.738604	-0.356429	0.596971	99
Es	0.744179	0.698382	-0.003224	99
Es	2.515932	-0.007020	0.000590	99
Es	1.004068	-0.002950	-0.006400	99
Es	1.760004	-0.004865	-0.002836	99
