27
Properties=species:S:1:pos:R:3:Z:I:1 energy=-172.11277363917006 field_type=dipole dipole="0.000000 0.000000 0.000000" charge=0
C	-1.239611	-0.008605	0.579296	6
N	0.213849	-0.079675	0.698436	7
C	0.850879	-0.748455	-0.430544	6
C	0.920349	0.749585	-0.271084	6
H	-1.624341	0.749155	1.269866	1
H	-1.681221	-0.969605	0.862736	1
H	-1.599181	0.242405	-0.426174	1
H	0.223419	-1.160965	-1.210554	1
H	1.735969	-1.326505	-0.194884	1
H	1.853749	1.181394	0.069916	1
H	0.346139	1.371275	-0.947014	1
Es	-1.538008	-0.664935	0.768498	99
Es	-1.500610	0.510738	1.045055	99
Es	0.521172	1.171122	-0.727243	99
Es	-0.416022	-0.043418	0.608544	99
Es	1.449629	-1.145133	-0.272761	99
Es	0.850792	-0.748275	-0.430394	99
Es	0.357902	-0.121275	1.026098	99
Es	1.008822	0.013786	-0.536485	99
Es	1.552464	1.047328	-0.040489	99
Es	0.920244	0.749384	-0.270972	99
Es	-1.475877	0.163713	-0.120778	99
Es	-1.239475	-0.008610	0.579297	99
Es	0.416068	-1.027494	-0.958102	99
Es	0.213654	-0.079598	0.697789	99
Es	0.431811	-0.500814	0.237521	99
Es	0.470866	0.407997	0.335372	99
