27
Properties=species:S:1:pos:R:3:Z:I:1 energy=-172.1405836375973 field_type=dipole dipole="0.000000 0.000000 0.000000" charge=0
N	-1.425706	-0.857731	-0.424904	7
C	-0.012166	-0.746121	-0.104294	6
C	0.410474	0.685479	-0.157484	6
C	0.949874	1.355269	0.871456	6
H	-1.704706	-1.834271	-0.356194	1
H	-1.572816	-0.590591	-1.395864	1
H	0.576464	-1.327031	-0.823254	1
H	0.166064	-1.174331	0.888126	1
H	0.273704	1.205949	-1.101704	1
H	1.104254	0.886159	1.837656	1
H	1.234555	2.397219	0.766456	1
Es	1.057938	1.039885	1.528383	99
Es	-1.498520	-0.705426	-1.021038	99
Es	0.400898	-1.137473	-0.599825	99
Es	0.109325	-1.035543	0.574099	99
Es	0.949919	1.355315	0.871522	99
Es	0.985737	0.930028	0.268455	99
Es	-1.622886	-0.656138	-0.208714	99
Es	-0.012296	-0.746086	-0.104340	99
Es	-0.802446	-0.819780	-0.304411	99
Es	-1.578465	-1.455828	-0.394066	99
Es	0.394102	1.115393	0.459887	99
Es	0.201533	-0.024546	-0.130172	99
Es	-1.425366	-0.858084	-0.425280	99
Es	1.146626	2.061881	0.807190	99
Es	0.410437	0.685410	-0.157568	99
Es	0.310425	1.028053	-0.806457	99
