26
Properties=species:S:1:pos:R:3:Z:I:1 energy=-193.165304501085 field_type=dipole dipole="0.000000 0.000000 0.000000" charge=0
C	-1.161662	0.280251	0.325012	6
C	0.314898	0.142251	0.430662	6
C	1.117378	-0.486139	-0.675728	6
O	1.057118	0.938381	-0.498488	8
H	-1.516362	1.066781	0.998552	1
H	-1.648122	-0.657769	0.610312	1
H	-1.480122	0.534441	-0.691608	1
H	0.673058	0.069631	1.447752	1
H	0.597768	-0.907769	-1.526658	1
H	2.046048	-0.980059	-0.419808	1
Es	-1.476220	-0.347436	0.519975	99
Es	0.768235	-0.763458	-1.253865	99
Es	0.315026	0.142397	0.430435	99
Es	1.143986	0.395180	-0.655168	99
Es	-0.427929	0.208786	0.368964	99
Es	0.850818	1.046913	-0.700694	99
Es	0.745673	0.720154	-0.083555	99
Es	1.117353	-0.485833	-0.675671	99
Es	-1.161620	0.280237	0.325026	99
Es	1.057054	0.938212	-0.498415	99
Es	1.747721	-0.813049	-0.508264	99
Es	-1.364095	0.444199	-0.352997	99
Es	1.324381	1.030029	-0.368151	99
Es	0.563005	0.100067	1.116029	99
Es	0.650666	-0.385209	-0.059956	99
Es	-1.389973	0.804231	0.776063	99
