26
Properties=species:S:1:pos:R:3:Z:I:1 energy=-191.95725467597194 field_type=dipole dipole="0.000000 0.000000 0.000000" charge=0
C	-1.161662	0.280251	0.325012	6
C	0.314898	0.142251	0.430662	6
C	1.117378	-0.486139	-0.675728	6
O	1.057118	0.938381	-0.498488	8
H	-1.516362	1.066781	0.998552	1
H	-1.648122	-0.657769	0.610312	1
H	-1.480122	0.534441	-0.691608	1
H	0.673058	0.069631	1.447752	1
H	0.597768	-0.907769	-1.526658	1
H	2.046048	-0.980059	-0.419808	1
Es	0.648925	-0.395610	-0.056727	99
Es	0.855284	1.059503	-0.706059	99
Es	-1.483818	-0.357523	0.523359	99
Es	1.327355	1.038915	-0.370845	99
Es	1.145340	0.406055	-0.656332	99
Es	-1.369501	0.446495	-0.362011	99
Es	0.751270	0.729807	-0.089852	99
Es	0.766611	-0.766281	-1.260775	99
Es	1.057007	0.938109	-0.498391	99
Es	0.565585	0.100413	1.124132	99
Es	-1.161638	0.280237	0.325029	99
Es	1.117355	-0.485823	-0.675674	99
Es	0.315057	0.142409	0.430432	99
Es	-1.395641	0.812270	0.782908	99
Es	1.754811	-0.815900	-0.508376	99
Es	-0.425405	0.209575	0.369775	99
