FCHK generated by IOData                                                
NA        NA                                                           NA
Number of atoms                            I                3
Number of electrons                        I               22
Charge                                     I                0
Multiplicity                               I                1
Number of alpha electrons                  I               11
Number of beta electrons                   I               11
Atomic numbers                             I   N=           3
           8           8           6
Nuclear charges                            R   N=           3
  8.00000000E+00  8.00000000E+00  6.00000000E+00
Current cartesian coordinates              R   N=           9
 -2.18748838E+00  0.00000000E+00  0.00000000E+00  2.18748838E+00  0.00000000E+00
  0.00000000E+00  0.00000000E+00  0.00000000E+00  0.00000000E+00
Number of basis functions                  I               66
Number of independent functions            I               66
Number of contracted shells                I               30
Number of primitive shells                 I               57
Pure/Cartesian d shells                    I                0
Pure/Cartesian f shells                    I                0
Highest angular momentum                   I                2
Largest degree of contraction              I                6
Shell types                                I   N=          30
           0           0           1           0           1           0
           1          -2           0           1           0           0
           1           0           1           0           1          -2
           0           1           0           0           1           0
           1           0           1          -2           0           1
Number of primitives per shell             I   N=          30
           6           3           3           1           1           1
           1           1           1           1           6           3
           3           1           1           1           1           1
           1           1           6           3           3           1
           1           1           1           1           1           1
Shell to atom map                          I   N=          30
           1           1           1           1           1           1
           1           1           1           1           2           2
           2           2           2           2           2           2
           2           2           3           3           3           3
           3           3           3           3           3           3
Primitive exponents                        R   N=          57
  8.58850000E+03  1.29723000E+03  2.99296000E+02  8.73771000E+01  2.56789000E+01
  3.74004000E+00  4.21175000E+01  9.62837000E+00  2.85332000E+00  4.21175000E+01
  9.62837000E+00  2.85332000E+00  9.05661000E-01  9.05661000E-01  2.55611000E-01
  2.55611000E-01  1.29200000E+00  8.45000000E-02  8.45000000E-02  8.58850000E+03
  1.29723000E+03  2.99296000E+02  8.73771000E+01  2.56789000E+01  3.74004000E+00
  4.21175000E+01  9.62837000E+00  2.85332000E+00  4.21175000E+01  9.62837000E+00
  2.85332000E+00  9.05661000E-01  9.05661000E-01  2.55611000E-01  2.55611000E-01
  1.29200000E+00  8.45000000E-02  8.45000000E-02  4.56324000E+03  6.82024000E+02
  1.54973000E+02  4.44553000E+01  1.30290000E+01  1.82773000E+00  2.09642000E+01
  4.80331000E+00  1.45933000E+00  2.09642000E+01  4.80331000E+00  1.45933000E+00
  4.83456000E-01  4.83456000E-01  1.45585000E-01  1.45585000E-01  6.26000000E-01
  4.38000000E-02  4.38000000E-02
Contraction coefficients                   R   N=          57
  1.89515000E-03  1.43859000E-02  7.07320000E-02  2.40001000E-01  5.94797000E-01
  2.80802000E-01  1.13889000E-01  9.20811000E-01 -3.27447000E-03  3.65114000E-02
  2.37153000E-01  8.19702000E-01  1.00000000E+00  1.00000000E+00  1.00000000E+00
  1.00000000E+00  1.00000000E+00  1.00000000E+00  1.00000000E+00  1.89515000E-03
  1.43859000E-02  7.07320000E-02  2.40001000E-01  5.94797000E-01  2.80802000E-01
  1.13889000E-01  9.20811000E-01 -3.27447000E-03  3.65114000E-02  2.37153000E-01
  8.19702000E-01  1.00000000E+00  1.00000000E+00  1.00000000E+00  1.00000000E+00
  1.00000000E+00  1.00000000E+00  1.00000000E+00  1.96665000E-03  1.52306000E-02
  7.61269000E-02  2.60801000E-01  6.16462000E-01  2.21006000E-01  1.14660000E-01
  9.19999000E-01 -3.03068000E-03  4.02487000E-02  2.37594000E-01  8.15854000E-01
  1.00000000E+00  1.00000000E+00  1.00000000E+00  1.00000000E+00  1.00000000E+00
  1.00000000E+00  1.00000000E+00
Coordinates of each shell                  R   N=          90
 -2.18748838E+00  0.00000000E+00  0.00000000E+00 -2.18748838E+00  0.00000000E+00
  0.00000000E+00 -2.18748838E+00  0.00000000E+00  0.00000000E+00 -2.18748838E+00
  0.00000000E+00  0.00000000E+00 -2.18748838E+00  0.00000000E+00  0.00000000E+00
 -2.18748838E+00  0.00000000E+00  0.00000000E+00 -2.18748838E+00  0.00000000E+00
  0.00000000E+00 -2.18748838E+00  0.00000000E+00  0.00000000E+00 -2.18748838E+00
  0.00000000E+00  0.00000000E+00 -2.18748838E+00  0.00000000E+00  0.00000000E+00
  2.18748838E+00  0.00000000E+00  0.00000000E+00  2.18748838E+00  0.00000000E+00
  0.00000000E+00  2.18748838E+00  0.00000000E+00  0.00000000E+00  2.18748838E+00
  0.00000000E+00  0.00000000E+00  2.18748838E+00  0.00000000E+00  0.00000000E+00
  2.18748838E+00  0.00000000E+00  0.00000000E+00  2.18748838E+00  0.00000000E+00
  0.00000000E+00  2.18748838E+00  0.00000000E+00  0.00000000E+00  2.18748838E+00
  0.00000000E+00  0.00000000E+00  2.18748838E+00  0.00000000E+00  0.00000000E+00
  0.00000000E+00  0.00000000E+00  0.00000000E+00  0.00000000E+00  0.00000000E+00
  0.00000000E+00  0.00000000E+00  0.00000000E+00  0.00000000E+00  0.00000000E+00
  0.00000000E+00  0.00000000E+00  0.00000000E+00  0.00000000E+00  0.00000000E+00
  0.00000000E+00  0.00000000E+00  0.00000000E+00  0.00000000E+00  0.00000000E+00
  0.00000000E+00  0.00000000E+00  0.00000000E+00  0.00000000E+00  0.00000000E+00
  0.00000000E+00  0.00000000E+00  0.00000000E+00  0.00000000E+00  0.00000000E+00
Total Energy                               R       0.00000000E+00
Alpha Orbital Energies                     R   N=          66
 -2.06547934E+01 -2.06547478E+01 -1.14652161E+01 -1.53844209E+00 -1.48558749E+00
 -8.02186495E-01 -7.46374381E-01 -7.18876391E-01 -7.18876391E-01 -5.46468741E-01
 -5.46468741E-01  5.56781814E-02  9.50997215E-02  9.50997215E-02  9.94524500E-02
  2.05067989E-01  2.05067989E-01  2.36421925E-01  2.75257718E-01  2.75257718E-01
  2.83254174E-01  3.15882299E-01  3.43808749E-01  3.43808749E-01  3.76817378E-01
  5.05771000E-01  7.06479287E-01  7.06479287E-01  8.12539473E-01  1.00950515E+00
  1.11388043E+00  1.22231765E+00  1.22231765E+00  1.26063340E+00  1.33626525E+00
  1.33626525E+00  1.41384142E+00  1.41384142E+00  1.47343295E+00  1.60202586E+00
  1.66323044E+00  1.66323044E+00  2.12629081E+00  2.92581832E+00  2.92581832E+00
  3.07834651E+00  3.10200005E+00  3.10200005E+00  3.22304256E+00  3.22304256E+00
  3.48486137E+00  3.48486137E+00  3.58758812E+00  4.08269568E+00  4.08269568E+00
  4.19400771E+00  4.24418244E+00  5.50117314E+00  5.50117314E+00  5.57697210E+00
  5.57697210E+00  6.20751715E+00  6.21099624E+00  2.55207947E+01  5.16045958E+01
  5.17644835E+01
Alpha MO coefficients                      R   N=        4356
 -1.68163457E-03 -3.16057913E-03 -5.35467650E-08  7.47623172E-03  4.49036748E-06
  9.48520714E-03 -1.27674842E-07  1.11728799E-02  6.91201381E-06  1.92716260E-03
  4.17468651E-08  5.96564495E-03  6.22931808E-06 -5.01119440E-04 -6.15750326E-08
 -7.65595487E-17  8.67964331E-04  3.71571736E-07 -3.90542082E-03  1.67714894E-07
 -7.99618296E-04  6.20791759E-07 -1.68108439E-03 -3.15926698E-03 -1.17504953E-06
 -7.49063188E-03 -3.24091454E-06  9.47949566E-03 -1.84236726E-06 -1.11946964E-02
 -4.90852830E-06  1.91154673E-03 -1.54390496E-06 -5.97725038E-03 -4.70165937E-06
 -5.02118128E-04  1.39685211E-07 -1.97795338E-16  8.69694109E-04  1.66894900E-07
 -3.91001715E-03 -3.23579469E-08  8.00060744E-04 -7.58446521E-07 -5.69156279E-01
 -4.77033365E-01 -6.03207671E-07  8.04812503E-06  6.13447716E-07  2.73752889E-02
 -9.99676936E-07  1.13730739E-05  1.01664744E-06  1.29290741E-02 -4.80384501E-07
  2.81763364E-06  4.88539499E-07 -1.28025230E-03 -2.67172509E-07  2.41823249E-16
  2.21746203E-03 -1.84180198E-06  1.74761964E-03 -1.04380905E-07 -1.99811214E-07
  1.06152873E-07  3.10981541E-03  5.81831452E-03 -1.40605473E-06 -1.20924897E-02
  3.49097020E-06 -2.08098631E-02 -1.95153856E-06 -1.75161459E-02  5.24182149E-06
  1.14431712E-02 -2.49622146E-06 -4.98579875E-03  5.18090749E-06  9.39133038E-04
  1.52382007E-07 -5.39533043E-17 -1.62662614E-03  1.22402589E-07  2.92458091E-02
 -1.01791109E-06  8.70897272E-03  9.92772748E-07  6.44377806E-02  1.30526203E-01
  6.72245859E-06 -1.96015137E-01 -6.05530407E-06 -4.51276937E-01  1.04763400E-05
 -2.91464982E-01 -9.35370570E-06 -5.32496681E-01  8.99638684E-06 -1.64122295E-01
 -8.31622126E-06 -8.71507463E-03 -7.18514923E-07 -4.35393809E-16  1.50949520E-02
  5.42474230E-07 -8.35493507E-02  4.32192099E-07  1.64795260E-02 -7.10254885E-07
 -2.55868026E-02 -4.98197408E-02  2.61021102E-06  7.06266133E-02 -1.25901883E-06
  1.82267530E-01  4.32581992E-06  1.17769823E-01 -2.08653196E-06  1.53094475E-01
  2.07872840E-06  8.85099747E-02 -1.00266153E-06 -2.63979760E-03  1.93643329E-06
  2.20152232E-16  4.57226356E-03 -2.27418257E-06 -3.90775936E-03  4.51678914E-07
 -6.89513858E-03 -2.17864476E-07  5.58895871E-01  4.85299405E-01 -4.78124147E-05
  3.39731977E-03  4.86326387E-05 -3.67134976E-02 -7.46631808E-05  1.13629065E-03
  7.59842590E-05 -3.81085059E-02 -6.35959105E-05  2.14706407E-03  6.45837485E-05
  3.37097037E-04 -5.30212730E-06  6.21161943E-16 -5.83869195E-04  5.44388742E-06
 -1.68107943E-03 -2.48611390E-06 -1.04346859E-03  2.37308123E-06 -7.15810605E-05
 -1.46823286E-04  5.92656059E-06 -4.11940643E-04 -4.94923782E-06  4.39450678E-04
  7.49962470E-06 -1.29637630E-03 -5.93835436E-06  3.56284087E-03  1.23836652E-05
 -1.32255217E-03 -1.11737110E-05 -1.65485126E-04  1.55932692E-06  3.42713986E-16
  2.86628646E-04 -1.71202862E-06  4.28307946E-03  7.10076339E-06 -1.63843256E-03
 -7.18577009E-06  1.70773798E-03  3.02800905E-03 -2.05648256E-05  4.94774072E-03
  2.14473726E-05 -7.77383367E-03 -3.40814330E-05  4.48566119E-03  3.55440502E-05
  2.41058670E-04 -1.63774831E-05 -6.83538291E-03  1.70803288E-05  1.12164496E-03
  1.28020878E-05 -6.88696138E-17 -1.94274607E-03 -1.27646626E-05 -1.64169870E-03
 -3.55860044E-06  6.90888506E-04  3.71131908E-06  7.35610841E-05  1.50851316E-04
 -3.89380217E-06 -4.21660048E-04  4.73939628E-06 -4.53462058E-04 -6.13160583E-06
 -1.31103328E-03  7.40728330E-06 -3.56161547E-03 -5.04816631E-06 -1.32881553E-03
  6.28775206E-06  1.66326757E-04 -4.96332215E-07 -2.33715560E-16 -2.88086394E-04
  5.33540952E-07 -4.27306189E-03 -4.71067141E-09 -1.63596603E-03  2.22015783E-07
 -5.58875983E-01 -4.85259244E-01 -8.87945247E-07  3.32739069E-03 -4.18221870E-07
  3.65743341E-02 -1.53587924E-06  1.03197805E-03 -4.78322527E-07  3.79377687E-02
 -7.98294910E-07  2.08876485E-03 -1.00441599E-06 -3.40494013E-04  2.86980951E-07
 -7.52607710E-16  5.89752930E-04 -1.74324292E-07  1.65320461E-03  5.31525484E-07
 -1.03843327E-03 -6.98088331E-07 -1.71582987E-03 -3.04415635E-03 -2.34770912E-06
  4.97996913E-03  2.12158018E-06  7.83386845E-03 -3.89078384E-06  4.53603585E-03
  3.51602753E-06 -1.90901450E-04 -1.86967627E-06 -6.80694576E-03  1.68959097E-06
 -1.12255568E-03  7.16076999E-07  6.38237468E-16  1.94432347E-03 -1.22868514E-06
  1.64046525E-03 -4.06254783E-07  6.88705452E-04  3.67124737E-07 -1.94693881E-03
 -4.00452198E-03  2.57410609E-02  7.10225715E-03  3.43027401E-04  1.49470464E-02
  3.24138867E-02  1.76744962E-02  4.31883428E-04  2.64958750E-02  5.41955050E-02
  1.13419075E-02  7.22384263E-04 -1.92800228E-03 -6.97413972E-03  2.51126639E-16
  3.33939791E-03 -9.30220052E-05  2.55827276E-02  3.14583774E-02  1.08100938E-02
  4.19474446E-04  2.85822784E-02  6.16148146E-02 -2.11944257E-01  8.45387202E-02
 -2.82617144E-03 -2.08520321E-01 -3.30988885E-01  1.25830350E-01 -4.41358052E-03
 -1.11731674E-01 -2.81859091E-01  6.14581781E-02 -3.75843030E-03  7.99368398E-03
  2.35283947E-02  5.30582813E-16 -1.38454668E-02  3.13749671E-04  2.02088575E-02
 -1.09439937E-02  4.02035242E-04 -1.45901432E-04  2.68380466E-02  5.53792755E-02
 -9.14207512E-02 -8.53112405E-02 -1.21915680E-03 -1.81271633E-01 -1.51508711E-01
 -1.07147612E-01 -2.02046989E-03 -7.55380423E-02 -7.28059571E-02  1.77423678E-02
 -9.70916084E-04  1.42883959E-02 -5.66231173E-02 -1.16305938E-15 -2.47482276E-02
 -7.54989492E-04 -1.14875822E-02 -1.58197270E-02 -1.71859905E-03 -2.10966629E-04
  1.94476411E-03  4.00128168E-03  1.31665057E-02 -7.09764898E-03 -2.21239565E-02
 -1.49388857E-02  1.65790497E-02 -1.76650533E-02 -2.78585784E-02 -2.64846180E-02
  2.77224254E-02 -1.13360889E-02 -4.65814148E-02  1.92713333E-03 -3.56801008E-03
  2.25497188E-17 -3.33789284E-03  5.99483116E-03 -2.55728843E-02  1.60932021E-02
 -1.08058333E-02 -2.70399955E-02 -2.85650446E-02 -6.15830906E-02 -1.08425037E-01
 -8.45173810E-02  1.82176739E-01  2.08423694E-01 -1.69325171E-01 -1.25798376E-01
  2.84501644E-01  1.11665774E-01 -1.44191419E-01 -6.14435361E-02  2.42271881E-01
 -7.99117178E-03  1.20365912E-02 -1.17717258E-16  1.38411155E-02 -2.02239212E-02
 -2.02060704E-02 -5.59837645E-03 -4.00873427E-04  9.40665585E-03 -2.68312256E-02
 -5.53639516E-02 -4.67693719E-02  8.52816193E-02  7.85816027E-02  1.81220013E-01
 -7.75093963E-02  1.07111699E-01  1.30230797E-01  7.55203914E-02 -3.72463455E-02
 -1.77316314E-02  6.25810740E-02 -1.42837393E-02 -2.89664177E-02 -5.53846682E-16
  2.47401623E-02  4.86699908E-02  1.14835357E-02 -8.09311545E-03  1.71763239E-03
  1.35980014E-02 -2.87115882E-02 -6.17285401E-02 -1.46874862E-01  8.44637451E-02
  1.52883911E-01  2.08542866E-01 -2.29371285E-01  1.25719573E-01  2.38755751E-01
  1.11808817E-01 -1.95325257E-01  6.13990525E-02  2.03315867E-01 -7.98879137E-03
 -1.63047793E-02  1.56862847E-16  1.38369925E-02  1.69721854E-02 -2.01836441E-02
 -7.58442498E-03  4.05345947E-04  7.89370317E-03  1.94725294E-03  4.00213622E-03
  1.78407932E-02  7.09651986E-03 -1.85636307E-02 -1.49306067E-02  2.24664221E-02
  1.76634731E-02 -2.33744991E-02 -2.64838646E-02  3.75601954E-02  1.13364954E-02
 -3.90875545E-02  1.92699232E-03  4.83269949E-03 -5.59635714E-16 -3.33764860E-03
 -5.03124453E-03 -2.55798750E-02  2.18003700E-02  1.08080162E-02 -2.26920409E-02
 -2.68261825E-02 -5.53513868E-02 -6.33522503E-02 -8.52631761E-02  6.59476378E-02
  1.81167037E-01 -1.04991675E-01 -1.07080876E-01  1.09292928E-01  7.54769697E-02
 -5.04526724E-02  1.77549112E-02  5.25195957E-02 -1.42828014E-02  3.92397559E-02
  2.96319563E-16  2.47385377E-02 -4.08434747E-02  1.14845600E-02 -1.09626675E-02
 -1.71947605E-03  1.14117814E-02  2.85189980E-02  6.15493298E-02 -2.05793358E-01
 -8.45663991E-02 -5.07653545E-02 -2.08452936E-01 -3.21383344E-01 -1.25870810E-01
 -7.92793136E-02 -1.11652078E-01 -2.73678689E-01 -6.14810325E-02 -6.75111807E-02
  7.99479925E-03 -2.28458082E-02  1.28106887E-15 -1.38473985E-02 -5.63573463E-03
  2.02219602E-02 -1.06256546E-02 -3.99124959E-04 -2.62083359E-03 -1.93294961E-03
 -3.99134465E-03  2.49889615E-02 -7.09997751E-03  6.16211893E-03  1.49408315E-02
  3.14652679E-02 -1.76708799E-02  7.75846301E-03  2.64891522E-02  5.26160099E-02
 -1.13395692E-02  1.29764962E-02 -1.92775008E-03  6.77233178E-03 -7.50527592E-16
  3.33896109E-03  1.67086244E-03  2.55792305E-02  3.05452417E-02 -1.08087143E-02
  7.53486251E-03  2.68501250E-02  5.53947337E-02 -8.87700862E-02  8.53168672E-02
 -2.18989866E-02 -1.81305148E-01 -1.47115848E-01  1.07158922E-01 -3.62924958E-02
 -7.55632490E-02 -7.06950118E-02 -1.77285146E-02 -1.74399867E-02  1.42893219E-02
  5.49786351E-02  2.87873738E-16 -2.47498315E-02  1.35616749E-02 -1.14874247E-02
 -1.53610478E-02  1.71748664E-03 -3.78946776E-03 -2.85190862E-02 -6.15469825E-02
 -5.89780043E-02  8.45693409E-02 -2.03594974E-01  2.08438665E-01 -9.21046105E-02
  1.25875268E-01 -3.17949931E-01  1.11638087E-01 -7.84335452E-02  6.14837680E-02
 -2.70755738E-01 -7.99486313E-03 -6.54715429E-03 -3.10106010E-16  1.38475091E-02
 -2.26014542E-02 -2.02230740E-02 -3.04577545E-03  3.98898760E-04 -1.05130781E-02
  1.93263842E-03  3.99203703E-03  7.16560500E-03  7.09920843E-03  2.47284759E-02
 -1.49464868E-02  9.02393670E-03  1.76695813E-02  3.11392562E-02 -2.64937055E-02
  1.50844897E-02  1.13386189E-02  5.20624543E-02  1.92773081E-03  1.94039868E-03
 -3.45910257E-16 -3.33892770E-03  6.69923254E-03 -2.55786178E-02  8.75405255E-03
  1.08084561E-02  3.02191629E-02 -2.68586421E-02 -5.54018141E-02 -2.54384917E-02
 -8.53170671E-02 -8.78186303E-02  1.81306039E-01 -4.21584053E-02 -1.07159603E-01
 -1.45539030E-01  7.55660396E-02 -2.02587893E-02  1.77270269E-02 -6.99372882E-02
 -1.42890146E-02  1.57572095E-02  6.02886005E-16  2.47492993E-02  5.43928653E-02
  1.14870037E-02 -4.40195457E-03 -1.71736763E-03 -1.51964049E-02 -1.94672065E-03
 -4.00167073E-03 -1.25758202E-02  7.09551080E-03 -2.24618251E-02  1.49320922E-02
 -1.58352017E-02  1.76641190E-02 -2.82844837E-02  2.64871558E-02 -2.64788916E-02
  1.13366143E-02 -4.72916093E-02 -1.92731763E-03  3.40802317E-03 -5.15873892E-17
  3.33821206E-03  6.08580126E-03  2.55826546E-02 -1.53714737E-02  1.08094290E-02
 -2.74511605E-02  2.85764005E-02  6.16066241E-02  1.03562573E-01  8.45370442E-02
  1.84946539E-01 -2.08502031E-01  1.61731567E-01  1.25827298E-01  2.88827128E-01
 -1.11716053E-01  1.37724944E-01  6.14568271E-02  2.45955507E-01  7.99328173E-03
 -1.14968045E-02 -4.80464672E-16 -1.38447701E-02 -2.05313336E-02  2.02109723E-02
  5.34727866E-03  4.00981686E-04  9.54988999E-03  2.68316639E-02  5.53752886E-02
  4.46720436E-02 -8.53017270E-02  7.97756158E-02 -1.81279231E-01  7.40335607E-02
 -1.07136059E-01  1.32209597E-01 -7.55425311E-02  3.55760683E-02  1.77389888E-02
  6.35319660E-02  1.42888024E-02  2.76673289E-02  1.03225044E-16 -2.47489318E-02
  4.94103222E-02 -1.14877903E-02  7.73018733E-03 -1.71829418E-03  1.38046170E-02
 -6.42523085E-02 -1.30366210E-01  5.03222856E-05 -1.96011762E-01 -5.84711987E-05
  4.51270678E-01  7.85686547E-05 -2.91461250E-01 -9.13054904E-05  5.32487491E-01
  6.69699756E-05 -1.64119937E-01 -7.77791804E-05  8.71496234E-03  5.56289876E-06
 -1.51537763E-15 -1.50947576E-02 -6.48122870E-06  8.35485522E-02  2.67042992E-06
  1.64792970E-02 -3.04922117E-06 -3.10525144E-03 -5.81378870E-03 -6.61061136E-06
 -1.20930741E-02  7.30930817E-06  2.08061867E-02 -8.47741402E-06 -1.75169906E-02
  9.26790092E-06 -1.14461794E-02 -1.35253694E-05 -4.98646430E-03  1.52254773E-05
 -9.39142372E-04 -1.59764883E-06  2.13161539E-16  1.62664230E-03  1.89976237E-06
 -2.92454494E-02 -7.48623372E-06  8.70882517E-03  8.68583041E-06  2.56112294E-02
  4.98396191E-02  2.14612540E-05  7.06258649E-02 -2.51191095E-05 -1.82264954E-01
  3.55670555E-05  1.17768477E-01 -4.16291032E-05 -1.53091865E-01  1.70913837E-05
  8.85087983E-02 -2.00044386E-05  2.63979308E-03 -1.35629669E-05 -5.04280273E-16
 -4.57225573E-03  1.56707086E-05  3.90744707E-03  3.71372117E-06 -6.89500607E-03
 -4.34668768E-06  1.71113638E-02  3.00197938E-02 -1.97000970E-02 -1.17281549E-15
 -1.82525233E-16 -1.06976421E-01 -2.38712522E-02 -2.34729166E-15  2.74778712E-15
 -7.76797405E-02 -8.08101471E-02  6.02267547E-15 -8.21880856E-15  1.54211862E-03
  8.20254770E-16  3.36777206E-16 -2.67102780E-03  2.90618599E-16 -1.43140608E+00
 -3.17797359E-01 -1.97212823E-14  4.19536671E-14  1.71113638E-02  3.00197938E-02
  1.97000970E-02 -1.68915970E-15  1.23985090E-15 -1.06976421E-01  2.38712522E-02
  1.85449643E-15  4.37419634E-15 -7.76797406E-02  8.08101472E-02 -1.98076884E-14
 -5.92807408E-15  1.54211862E-03 -5.56217884E-16  5.15904435E-17 -2.67102780E-03
  6.70466889E-17 -1.43140608E+00  3.17797359E-01  3.33384695E-14  3.69120946E-14
 -2.60524913E-03 -1.93266464E-03  2.07694697E-12 -2.36626035E-16  1.70848971E-15
 -6.48693361E-02 -9.99314971E-12  1.26248118E-15 -3.96052483E-16  9.46347725E-01
  1.79136255E-10 -3.29595820E-15  7.63945612E-15  1.74775638E-02  4.02102802E-16
 -1.41224247E-17 -3.02720285E-02  6.61012897E-16  2.74493778E+00  5.28880701E-11
  1.29141991E-14 -1.06117445E-13 -9.21394090E-16 -1.43765253E-15 -2.12201162E-15
  3.36014628E-02 -1.93388047E-05  9.32690681E-17 -7.95441982E-15  7.09425851E-02
 -4.08299130E-05  1.02692835E-13  5.21917626E-14 -1.86689773E-02  1.07446426E-05
  8.32647451E-17 -2.06536782E-06  7.07360449E-18 -9.41115941E-18  3.58860751E-03
  6.40306533E-13  1.40899326E-13  5.38417459E-01 -3.09877882E-04  1.48482666E-15
  2.44571310E-15 -1.52532521E-15  3.36014628E-02 -1.93388047E-05 -5.94531283E-15
 -7.10466215E-15  7.09425851E-02 -4.08299130E-05 -9.85478126E-14  6.15399752E-14
 -1.86689773E-02  1.07446426E-05  1.58461627E-17  2.06536782E-06 -6.16415360E-17
 -1.77920312E-16 -3.58860751E-03 -7.52537075E-13  1.69942675E-13  5.38417459E-01
 -3.09877882E-04 -1.15275457E-16 -1.94247930E-17  2.76559103E-15  1.54824092E-02
 -8.91066231E-06 -3.79090613E-15  4.73909785E-15  1.67681428E-02 -9.65064651E-06
  5.44351224E-14  3.89529426E-13  3.20118816E-02 -1.84239458E-05 -6.33281253E-18
 -3.58754689E-16  2.04252875E-17 -5.63439055E-17  9.31181532E-13  7.21173236E-14
  4.03799930E-13 -1.73627287E+00  9.99285129E-04 -9.57585413E-16 -1.95839355E-15
  2.27221513E-15  1.93388047E-05  3.36014628E-02  8.49902693E-15  2.86922164E-15
  4.08299130E-05  7.09425851E-02 -3.68088459E-14 -1.95071959E-14 -1.07446426E-05
 -1.86689773E-02 -1.55481257E-16  3.58860751E-03 -9.65667059E-17 -3.57337783E-16
  2.06536782E-06 -1.79592267E-13 -6.38308361E-14  3.09877882E-04  5.38417459E-01
 -1.17097656E-15 -2.35743752E-15 -1.72996396E-15  1.93388047E-05  3.36014628E-02
  3.24749667E-15 -8.87743253E-16  4.08299130E-05  7.09425851E-02  6.62409251E-14
 -2.48551303E-14 -1.07446426E-05 -1.86689773E-02 -1.80393865E-16 -3.58860751E-03
  9.03028648E-17  3.97516001E-16 -2.06536782E-06  1.90229578E-13 -5.06700098E-14
  3.09877882E-04  5.38417459E-01 -2.19288987E-16  4.75064462E-16 -2.86754078E-16
  8.91066231E-06  1.54824092E-02  3.56617429E-16 -5.35777782E-15  9.65064651E-06
  1.67681428E-02  1.26539666E-14 -1.40928708E-13  1.84239458E-05  3.20118816E-02
 -1.82615374E-15  3.69650632E-13  8.42879319E-17  3.23179640E-15  9.22817821E-16
 -7.84589548E-14 -7.03623653E-14 -9.99285129E-04 -1.73627287E+00  9.55895741E-03
  1.61727161E-02  1.58667874E-02  5.12416708E-15 -5.79213673E-17 -4.01826188E-02
  4.30166648E-02  1.20722489E-14 -1.66891172E-15 -4.11045675E-01 -2.48718515E-01
 -5.68781948E-15  6.92473766E-15  1.25368930E-03  2.76847341E-16  1.47530857E-16
 -2.17145356E-03 -4.43267413E-18 -3.16948225E+00 -3.63023904E-01  1.00887631E-13
 -2.67471154E-14 -9.55895741E-03 -1.61727161E-02  1.58667874E-02  6.68556269E-15
 -1.63640169E-15  4.01826188E-02  4.30166648E-02  1.00648445E-14 -2.43741931E-15
  4.11045675E-01 -2.48718514E-01  1.12417368E-14 -3.12637929E-15 -1.25368929E-03
  5.07009139E-16  2.49086155E-17  2.17145355E-03 -4.82763013E-16  3.16948225E+00
 -3.63023904E-01  6.01179593E-14 -4.17271298E-15 -1.33482241E-12 -3.00443635E-12
 -1.10834782E-02  1.41680104E-16 -1.04618489E-15 -1.30947722E-11 -5.79103316E-02
  4.96950727E-18 -1.08700308E-15  5.80768196E-10 -1.47513949E+00 -1.04716035E-14
 -2.25848532E-15 -1.03651696E-11  6.40287261E-16  3.79940365E-16  1.81769008E-11
 -5.72184924E-16  2.95411796E-10 -2.69094274E+00 -2.45133371E-13  4.74236865E-14
 -7.87476226E-17 -1.70447843E-16  1.59909769E-15  1.34648508E-01  5.48891674E-05
 -4.85309868E-16 -2.22104095E-15  2.03154507E-01  8.28154869E-05 -1.37783255E-14
 -7.92070193E-15  3.65901003E-01  1.49158737E-04  5.09531827E-16 -7.78342310E-06
 -6.32042957E-17 -5.60480821E-16 -1.90934998E-02 -1.03538662E-13 -5.41371709E-14
  4.28475493E-01  1.74667090E-04 -1.13365057E-16  1.42212520E-17 -1.70266546E-15
  1.34648508E-01  5.48891674E-05 -3.01493172E-15  1.34535606E-15  2.03154507E-01
  8.28154869E-05  2.58525398E-14 -1.41101982E-14  3.65901003E-01  1.49158737E-04
 -2.47731456E-16  7.78342310E-06 -1.11046776E-16 -7.74187288E-16  1.90934998E-02
  1.49810324E-14  1.18061928E-15  4.28475493E-01  1.74667090E-04 -2.47042935E-16
 -9.56906452E-16 -1.49997957E-15 -2.43892106E-01 -9.94220796E-05  2.80377622E-15
 -2.67843109E-17 -3.89080919E-01 -1.58607979E-04  4.47033475E-14 -6.33958831E-14
 -1.03982670E+00 -4.23883064E-04 -2.31221034E-15 -6.66354410E-17  1.38869723E-15
  4.05989375E-15  3.48508502E-13  4.57395891E-14  1.22465284E-14 -1.27069408E-01
 -5.17995642E-05  1.75895891E-17 -9.87626387E-16  4.89410219E-15 -5.48891674E-05
  1.34648508E-01 -6.53421013E-16  1.59507613E-15 -8.28154870E-05  2.03154507E-01
  3.08844957E-14  2.27142480E-14 -1.49158737E-04  3.65901003E-01 -9.20853219E-16
 -1.90934998E-02 -2.61368906E-16  8.15530175E-17  7.78342310E-06  3.00850761E-14
 -1.59566356E-14 -1.74667090E-04  4.28475493E-01 -1.00782427E-15 -1.91354845E-15
 -3.58846885E-15 -5.48891674E-05  1.34648508E-01  6.94680582E-15 -3.98941316E-15
 -8.28154870E-05  2.03154507E-01 -2.89295734E-15  6.67871760E-15 -1.49158737E-04
  3.65901003E-01  1.11331282E-16  1.90934998E-02 -6.32741138E-17  8.88469025E-16
 -7.78342310E-06 -2.72621332E-13  1.17964934E-13 -1.74667090E-04  4.28475493E-01
 -1.10975823E-16  8.05284288E-16  1.49035086E-15  9.94220796E-05 -2.43892106E-01
 -1.23447583E-14 -7.37070229E-16  1.58607979E-04 -3.89080919E-01  1.27801989E-13
  8.93867675E-14  4.23883064E-04 -1.03982670E+00 -1.47015379E-15  1.73656123E-13
 -4.07454235E-16  3.92959881E-15 -8.16627664E-16  1.21294978E-13  3.22307513E-14
  5.17995642E-05 -1.27069408E-01  1.01446715E-02  1.63235972E-02 -6.79300201E-02
  7.26613740E-15  1.01431916E-14 -3.40774307E-02 -6.33892256E-02  5.35705420E-15
  1.26126090E-14 -1.30798929E-01 -1.15488585E-01  4.81412549E-14  3.86980355E-14
  2.75818884E-03  2.06878392E-16  3.58776687E-16 -4.77732321E-03  9.81990357E-16
  1.90719979E+00  1.33692634E+00 -1.10325944E-13 -4.44140426E-14  1.01446715E-02
  1.63235972E-02  6.79300201E-02  9.90340197E-16  6.04727312E-15 -3.40774306E-02
  6.33892256E-02  7.55225638E-15  1.28698240E-14 -1.30798930E-01  1.15488585E-01
 -1.94425094E-14  9.68407338E-15  2.75818884E-03  1.07230902E-15  2.65364849E-16
 -4.77732321E-03  9.00927898E-16  1.90719978E+00 -1.33692633E+00  6.28168956E-14
  2.93305660E-14  3.84816023E-03  1.13424473E-03 -1.66595780E-12 -5.19996815E-15
 -1.09730035E-14  1.28674049E-01  4.06975675E-11 -1.24125980E-14 -2.66596597E-14
 -2.41922832E+00  9.39892001E-10 -8.51137060E-15 -3.05415221E-14  5.29076636E-02
  8.32633925E-16  1.63516845E-16 -9.16387614E-02  2.55330266E-15 -1.81815252E+00
  1.95920143E-10  2.60460406E-14  2.68088601E-15 -7.11437693E-15 -1.15773882E-14
  1.35765073E-14  6.70034073E-02 -3.65778833E-05  3.15237046E-14  2.98735004E-14
  4.77252833E-02 -2.60537473E-05  1.51423058E-13 -9.26146161E-15  4.06627822E-01
 -2.21982517E-04 -2.17260951E-16 -6.48978427E-06  3.70119390E-18  1.04785073E-15
  1.18879940E-02 -5.47217194E-13 -4.19297755E-14 -1.20967484E+00  6.60374553E-04
 -7.71472477E-15 -1.26979782E-14 -1.22700300E-14 -6.70034073E-02  3.65778833E-05
  3.26976430E-14 -2.75407024E-14 -4.77252833E-02  2.60537473E-05  2.10413533E-13
 -1.76156274E-14 -4.06627822E-01  2.21982517E-04 -5.86570060E-16 -6.48978427E-06
  4.16107448E-17  1.47564782E-15  1.18879940E-02 -4.21100234E-13  1.43931010E-14
  1.20967484E+00 -6.60374553E-04  4.27367163E-15  8.91436125E-15 -1.79200462E-16
  4.51983444E-12 -4.93477004E-15 -5.57625510E-15 -5.35030268E-15  1.79268475E-11
 -7.68700513E-15 -1.67935639E-14 -6.33714829E-14 -1.31747780E-11 -2.52412739E-14
 -5.60209399E-15  2.46388127E-06  2.74969488E-16  1.09832161E-14 -4.51334045E-03
  5.48407541E-13 -3.31750125E-14 -5.69641736E-11 -4.29526952E-14 -1.18742498E-15
 -1.97250341E-15  7.74732622E-16  3.65778833E-05  6.70034073E-02  5.85810997E-15
  1.16121278E-15  2.60537473E-05  4.77252833E-02  7.85235524E-15 -2.81204696E-14
  2.21982517E-04  4.06627822E-01  6.06193752E-16  1.18879940E-02 -3.86752175E-16
 -8.93723238E-16  6.48978427E-06 -1.32093724E-13  3.89424675E-14 -6.60374553E-04
 -1.20967484E+00 -2.48166369E-16 -1.69591379E-16 -3.07245069E-15 -3.65778833E-05
 -6.70034073E-02  1.35265623E-15 -2.44687264E-15 -2.60537473E-05 -4.77252833E-02
 -2.96973150E-15 -1.27632954E-14 -2.21982517E-04 -4.06627822E-01 -5.24348945E-16
  1.18879940E-02 -1.22942825E-16  6.55505189E-16  6.48978427E-06 -7.93490647E-14
  1.24601594E-13  6.60374553E-04  1.20967484E+00  9.21833406E-17  2.83108067E-17
  2.35781299E-15 -9.23819711E-16  2.40243616E-12 -3.73111887E-15 -5.93938892E-15
  3.44258497E-15  5.67561586E-12  1.22341748E-13 -1.07574105E-14 -2.12179916E-14
  5.12564886E-12 -2.71484031E-15 -4.51334045E-03 -5.50940833E-16  4.84052511E-15
 -2.46388127E-06  9.88384271E-14 -7.78350293E-14 -5.28127808E-14  1.93602797E-11
  3.23133778E-02  5.38385077E-02 -3.40338269E-02  1.41552314E-14  3.58472294E-15
 -1.20923919E-01 -1.10634539E-01  1.12255815E-14  4.98253232E-15 -9.48580474E-01
  7.07875203E-02  8.93486900E-14  1.66479911E-14  1.77187947E-03  1.57498293E-15
  5.30918483E-16 -3.06898527E-03  2.73282401E-15  2.54875775E+00 -1.87218904E-01
 -2.81143172E-13 -4.73391279E-14  3.23133778E-02  5.38385077E-02  3.40338269E-02
 -7.59464441E-15  2.51052965E-15 -1.20923919E-01  1.10634539E-01 -1.34221324E-15
  5.95476194E-15 -9.48580474E-01 -7.07875202E-02 -6.52315297E-14  6.73826551E-15
  1.77187947E-03 -4.88501655E-16  5.95478520E-16 -3.06898527E-03  1.08843646E-15
  2.54875775E+00  1.87218903E-01  1.57144152E-13 -2.14796224E-14 -2.73831322E-02
 -5.14970238E-02 -8.85920131E-12 -8.32901063E-16  6.36492804E-16  9.74284127E-02
  3.42155069E-12 -1.93473454E-15 -7.23559442E-15  1.72958198E-01 -4.09924688E-10
  1.55423571E-14  3.52924437E-15  1.45631831E-02  1.40141279E-15  1.08705395E-15
 -2.52241731E-02  1.41946297E-15 -2.92381386E+00  3.34194397E-10  6.29738196E-14
  2.79927090E-14  1.56428410E-03  4.83255340E-03 -1.10163809E-02  5.59468034E-17