14
Properties=species:S:1:pos:R:3:Z:I:1 energy=-78.05594248631881 field_type=dipole dipole="0.000000 0.000000 0.000000" charge=0
C	-0.662428	0.000105	0.000000	6
C	0.662428	-0.000105	0.000000	6
H	-1.231463	0.920907	-0.000000	1
H	-1.231756	-0.920515	-0.000000	1
H	1.231757	0.920515	-0.000000	1
H	1.231463	-0.920907	-0.000000	1
Es	-1.051213	-0.624251	0.001114	99
Es	0.000122	-0.000482	-0.309659	99
Es	1.051511	0.623994	-0.000845	99
Es	0.662356	-0.000105	-0.000001	99
Es	-0.000160	0.000848	0.308497	99
Es	1.050864	-0.624610	0.000659	99
Es	-1.051126	0.624502	0.000239	99
Es	-0.662354	0.000104	-0.000004	99
