31
Properties=species:S:1:pos:R:3:Z:I:1 energy=-551.3501190495632 field_type=dipole dipole="0.000000 0.000000 0.000000" charge=0
S	-0.562156	-1.669827	0.023547	16
C	-1.352065	-0.135529	0.007030	6
C	-0.451572	0.888278	-0.009534	6
C	0.896834	0.434329	-0.009065	6
C	0.994826	-0.925617	0.007882	6
H	-2.427134	-0.079983	0.010532	1
H	-0.737651	1.929391	-0.021685	1
H	1.754292	1.090476	-0.020807	1
H	1.884626	-1.531514	0.012102	1
Es	-0.562194	-1.669944	0.023547	99
Es	0.233361	0.693155	-0.006825	99
Es	-0.598944	-1.764501	0.457290	99
Es	-0.880394	0.357554	-0.301301	99
Es	0.913443	-0.247054	-0.301259	99
Es	0.920294	-0.239002	0.297508	99
Es	-0.666596	-1.705611	-0.009144	99
Es	-0.503721	-1.758773	0.069305	99
Es	1.473833	0.879734	-0.018536	99
Es	0.994651	-0.925543	0.007882	99
Es	0.246649	-1.312365	0.019678	99
Es	-0.615101	-1.845861	-0.395374	99
Es	-0.502903	-1.625341	-0.071255	99
Es	-0.874599	0.363683	0.300117	99
Es	-0.992313	-0.897031	0.001007	99
Es	-0.572820	-1.582020	0.105195	99
Es	0.896654	0.434237	-0.009061	99
Es	-1.351888	-0.135561	0.007034	99
Es	-0.641048	1.591245	-0.018249	99
Es	-0.451472	0.888102	-0.009536	99
Es	-2.069558	-0.107761	0.009674	99
Es	1.582998	-1.337299	0.010757	99
