32
Properties=species:S:1:pos:R:3:Z:I:1 energy=-698.146986521537 field_type=dipole dipole="0.000000 0.000000 0.000000" charge=0
S	-0.007035	-0.007972	0.006533	16
O	1.257110	-0.004178	1.003448	8
O	-1.242462	0.026794	1.038254	8
O	-0.046202	1.246271	-0.689258	8
O	0.013171	-1.287795	-0.641871	8
H	1.467336	0.913111	1.234842	1
H	-1.445719	-0.880931	1.310054	1
Es	-0.806392	-0.020010	0.691076	99
Es	1.466234	-0.107591	0.817279	99
Es	-0.046197	1.246446	-0.689336	99
Es	-0.065418	0.095523	0.014453	99
Es	-0.305750	1.177211	-0.769311	99
Es	-0.007036	-0.007973	0.006476	99
Es	1.257088	-0.004253	1.003416	99
Es	0.810011	0.029576	0.668277	99
Es	-0.041894	-0.066489	-0.090471	99
Es	0.108803	0.013400	0.000032	99
Es	1.336239	0.476934	1.111019	99
Es	-0.001877	1.374315	-0.426691	99
Es	0.007148	-0.795513	-0.370211	99
Es	1.151986	-0.156829	1.236850	99
Es	-0.029651	-0.074276	0.102067	99
Es	0.013162	-1.287964	-0.641941	99
Es	-0.041441	-1.134770	-0.877395	99
Es	0.184585	1.147965	-0.841830	99
Es	-0.201142	-1.361102	-0.480629	99
Es	-0.037332	0.753993	-0.417342	99
Es	-1.454251	0.123850	0.855568	99
Es	0.271893	-1.317271	-0.557693	99
Es	-1.242450	0.026854	1.038228	99
Es	-1.320607	-0.450681	1.163634	99
Es	-1.129714	0.188549	1.264778	99
