14
Properties=species:S:1:pos:R:3:Z:I:1 energy=-78.05543859664056 field_type=dipole dipole="0.000000 0.000000 0.000000" charge=0
C	0.989160	0.000100	0.000000	6
C	2.324920	-0.000170	-0.000000	6
H	0.429410	0.930140	0.000000	1
H	0.429070	-0.929850	0.000000	1
H	2.885000	0.929800	-0.000000	1
H	2.884670	-0.930200	0.000000	1
Es	2.325018	-0.000170	-0.000000	99
Es	1.657040	-0.000034	-0.319776	99
Es	2.710815	0.625351	-0.000007	99
Es	1.657040	-0.000029	0.319784	99
Es	0.603493	0.625692	-0.000001	99
Es	0.989061	0.000100	-0.000000	99
Es	0.603265	-0.625416	-0.000003	99
Es	2.710582	-0.625760	0.000003	99
14
Properties=species:S:1:pos:R:3:Z:I:1 energy=-78.05543859664056 field_type=dipole dipole="0.000000 0.000000 0.000000" charge=0
C	0.989160	0.000100	0.000000	6
C	2.324920	-0.000170	-0.000000	6
H	0.429410	0.930140	0.000000	1
H	0.429070	-0.929850	0.000000	1
H	2.885000	0.929800	-0.000000	1
H	2.884670	-0.930200	0.000000	1
Es	2.710587	-0.625782	-0.000001	99
Es	0.603505	0.625727	0.000001	99
Es	2.710804	0.625383	0.000001	99
Es	2.325018	-0.000170	0.000000	99
Es	0.603259	-0.625432	-0.000004	99
Es	1.657040	-0.000043	-0.319695	99
Es	0.989062	0.000100	-0.000000	99
Es	1.657040	-0.000048	0.319698	99
14
Properties=species:S:1:pos:R:3:Z:I:1 energy=-78.05543859664056 field_type=dipole dipole="0.000000 0.000000 0.000000" charge=0
C	0.989160	0.000100	0.000000	6
C	2.324920	-0.000170	-0.000000	6
H	0.429410	0.930140	0.000000	1
H	0.429070	-0.929850	0.000000	1
H	2.885000	0.929800	-0.000000	1
H	2.884670	-0.930200	0.000000	1
Es	2.325017	-0.000170	-0.000000	99
Es	2.710575	-0.625805	-0.000002	99
Es	0.603498	0.625745	-0.000002	99
Es	2.710811	0.625409	-0.000002	99
Es	1.657040	-0.000036	0.319619	99
Es	0.603272	-0.625469	-0.000002	99
Es	1.657040	-0.000037	-0.319612	99
Es	0.989063	0.000100	0.000000	99
14
Properties=species:S:1:pos:R:3:Z:I:1 energy=-78.05543859664056 field_type=dipole dipole="0.000000 0.000000 0.000000" charge=0
C	0.989160	0.000100	0.000000	6
C	2.324920	-0.000170	-0.000000	6
H	0.429410	0.930140	0.000000	1
H	0.429070	-0.929850	0.000000	1
H	2.885000	0.929800	-0.000000	1
H	2.884670	-0.930200	0.000000	1
Es	2.710581	-0.625833	-0.000002	99
Es	0.603275	-0.625495	-0.000002	99
Es	0.989064	0.000100	-0.000000	99
Es	2.710799	0.625436	-0.000003	99
Es	1.657040	-0.000037	-0.319528	99
Es	2.325016	-0.000170	-0.000000	99
Es	1.657040	-0.000036	0.319539	99
Es	0.603502	0.625770	-0.000003	99
14
Properties=species:S:1:pos:R:3:Z:I:1 energy=-78.05543859664056 field_type=dipole dipole="0.000000 0.000000 0.000000" charge=0
C	0.989160	0.000100	0.000000	6
C	2.324920	-0.000170	-0.000000	6
H	0.429410	0.930140	0.000000	1
H	0.429070	-0.929850	0.000000	1
H	2.885000	0.929800	-0.000000	1
H	2.884670	-0.930200	0.000000	1
Es	0.603277	-0.625519	0.000002	99
Es	1.657040	-0.000032	-0.319462	99
Es	2.325016	-0.000170	0.000000	99
Es	2.710801	0.625457	0.000004	99
Es	1.657040	-0.000034	0.319451	99
Es	0.603505	0.625795	0.000003	99
Es	0.989065	0.000100	-0.000000	99
Es	2.710573	-0.625861	0.000002	99
14
Properties=species:S:1:pos:R:3:Z:I:1 energy=-78.05543859664056 field_type=dipole dipole="0.000000 0.000000 0.000000" charge=0
C	0.989160	0.000100	0.000000	6
C	2.324920	-0.000170	-0.000000	6
H	0.429410	0.930140	0.000000	1
H	0.429070	-0.929850	0.000000	1
H	2.885000	0.929800	-0.000000	1
H	2.884670	-0.930200	0.000000	1
Es	2.325015	-0.000170	0.000000	99
Es	1.657040	-0.000037	-0.319385	99
Es	1.657040	-0.000035	0.319377	99
Es	0.989065	0.000100	0.000000	99
Es	2.710572	-0.625884	0.000003	99
Es	0.603279	-0.625542	0.000003	99
Es	0.603509	0.625820	0.000001	99
Es	2.710796	0.625482	0.000000	99
14
Properties=species:S:1:pos:R:3:Z:I:1 energy=-78.05543859664056 field_type=dipole dipole="0.000000 0.000000 0.000000" charge=0
C	0.989160	0.000100	0.000000	6
C	2.324920	-0.000170	-0.000000	6
H	0.429410	0.930140	0.000000	1
H	0.429070	-0.929850	0.000000	1
H	2.885000	0.929800	-0.000000	1
H	2.884670	-0.930200	0.000000	1
Es	1.657040	-0.000033	-0.319309	99
Es	0.989066	0.000100	-0.000001	99
Es	1.657040	-0.000041	0.319306	99
Es	0.603512	0.625844	0.000005	99
Es	2.710791	0.625507	0.000003	99
Es	2.325014	-0.000170	0.000000	99
Es	2.710571	-0.625904	-0.000001	99
Es	0.603281	-0.625565	-0.000003	99
14
Properties=species:S:1:pos:R:3:Z:I:1 energy=-78.05543859664056 field_type=dipole dipole="0.000000 0.000000 0.000000" charge=0
C	0.989160	0.000100	0.000000	6
C	2.324920	-0.000170	-0.000000	6
H	0.429410	0.930140	0.000000	1
H	0.429070	-0.929850	0.000000	1
H	2.885000	0.929800	-0.000000	1
H	2.884670	-0.930200	0.000000	1
Es	1.657040	-0.000036	-0.319235	99
Es	1.657040	-0.000036	0.319238	99
Es	0.603285	-0.625588	-0.000001	99
Es	2.710790	0.625529	-0.000001	99
Es	2.710567	-0.625929	-0.000001	99
Es	2.325013	-0.000170	-0.000000	99
Es	0.603514	0.625865	-0.000001	99
Es	0.989067	0.000100	-0.000000	99
14
Properties=species:S:1:pos:R:3:Z:I:1 energy=-78.05543859664056 field_type=dipole dipole="0.000000 0.000000 0.000000" charge=0
C	0.989160	0.000100	0.000000	6
C	2.324920	-0.000170	-0.000000	6
H	0.429410	0.930140	0.000000	1
H	0.429070	-0.929850	0.000000	1
H	2.885000	0.929800	-0.000000	1
H	2.884670	-0.930200	0.000000	1
Es	2.710562	-0.625953	-0.000001	99
Es	1.657039	-0.000037	0.319163	99
Es	0.989067	0.000100	-0.000000	99
Es	2.325014	-0.000170	0.000000	99
Es	0.603517	0.625886	0.000004	99
Es	1.657040	-0.000036	-0.319169	99
Es	0.603288	-0.625608	0.000002	99
Es	2.710789	0.625553	-0.000000	99
14
Properties=species:S:1:pos:R:3:Z:I:1 energy=-78.05543859664056 field_type=dipole dipole="0.000000 0.000000 0.000000" charge=0
C	0.989160	0.000100	0.000000	6
C	2.324920	-0.000170	-0.000000	6
H	0.429410	0.930140	0.000000	1
H	0.429070	-0.929850	0.000000	1
H	2.885000	0.929800	-0.000000	1
H	2.884670	-0.930200	0.000000	1
Es	2.710561	-0.625977	0.000001	99
Es	1.657040	-0.000035	-0.319087	99
Es	0.603292	-0.625637	0.000002	99
Es	0.989068	0.000100	-0.000000	99
Es	1.657040	-0.000036	0.319079	99
Es	2.325012	-0.000170	-0.000000	99
Es	2.710783	0.625576	0.000002	99
Es	0.603519	0.625914	0.000002	99
