14
Properties=species:S:1:pos:R:3:Z:I:1 energy=-187.68919801895981 field_type=dipole dipole="0.000000 0.000000 0.000000" charge=0
O	-1.157569	0.000000	0.000000	8
O	1.157569	0.000000	0.000000	8
C	0.000000	0.000000	0.000000	6
Es	0.846398	0.004780	0.268889	99
Es	-0.846381	0.186310	-0.193944	99
Es	-0.000001	0.000000	0.000000	99
Es	0.846387	-0.235192	-0.130371	99
Es	-1.157098	-0.000000	-0.000000	99
Es	-1.433758	-0.000080	-0.000124	99
Es	-0.846578	0.074865	0.258318	99
Es	0.846534	0.230489	-0.138541	99
Es	1.433757	-0.000076	0.000022	99
Es	1.157099	-0.000000	0.000000	99
Es	-0.846360	-0.261095	-0.064251	99
14
Properties=species:S:1:pos:R:3:Z:I:1 energy=-187.68919801895981 field_type=dipole dipole="0.000000 0.000000 0.000000" charge=0
O	-1.157569	0.000000	0.000000	8
O	1.157569	0.000000	0.000000	8
C	0.000000	0.000000	0.000000	6
Es	0.848866	-0.185084	-0.201588	99
Es	-0.848875	0.264356	-0.070796	99
Es	-0.848867	-0.070866	0.264335	99
Es	0.848870	-0.082036	0.261084	99
Es	1.157083	0.000000	0.000000	99
Es	-0.000000	0.000000	0.000000	99
Es	-1.426530	-0.000004	0.000004	99
Es	0.848875	0.267125	-0.059495	99
Es	-1.157082	0.000000	-0.000000	99
Es	1.426530	-0.000005	-0.000002	99
Es	-0.848870	-0.193485	-0.193542	99
14
Properties=species:S:1:pos:R:3:Z:I:1 energy=-187.68919801895981 field_type=dipole dipole="0.000000 0.000000 0.000000" charge=0
O	-1.157569	0.000000	0.000000	8
O	1.157569	0.000000	0.000000	8
C	0.000000	0.000000	0.000000	6
Es	-0.850308	0.189318	0.201040	99
Es	1.422171	-0.000017	-0.000005	99
Es	-0.850347	0.079432	-0.264482	99
Es	-0.850355	-0.268771	0.063426	99
Es	1.157060	0.000000	0.000000	99
Es	-1.422177	0.000020	0.000016	99
Es	0.850320	-0.237280	-0.141276	99
Es	-1.157062	0.000000	0.000000	99
Es	0.850354	0.240993	-0.134850	99
Es	0.850345	-0.003696	0.276131	99
Es	-0.000000	0.000000	0.000000	99
14
Properties=species:S:1:pos:R:3:Z:I:1 energy=-187.68919801895981 field_type=dipole dipole="0.000000 0.000000 0.000000" charge=0
O	-1.157569	0.000000	0.000000	8
O	1.157569	0.000000	0.000000	8
C	0.000000	0.000000	0.000000	6
Es	1.419208	0.000009	0.000003	99
Es	1.157030	0.000000	0.000000	99
Es	-1.419206	0.000011	-0.000001	99
Es	-0.851337	0.019812	-0.276998	99
Es	-1.157036	0.000000	-0.000000	99
Es	-0.851351	-0.249798	0.121334	99
Es	0.851343	-0.153247	0.231596	99
Es	-0.000000	0.000000	0.000000	99
Es	0.851349	-0.123953	-0.248509	99
Es	0.851329	0.277191	0.016910	99
Es	-0.851329	0.229975	0.155666	99
14
Properties=species:S:1:pos:R:3:Z:I:1 energy=-187.68919801895981 field_type=dipole dipole="0.000000 0.000000 0.000000" charge=0
O	-1.157569	0.000000	0.000000	8
O	1.157569	0.000000	0.000000	8
C	0.000000	0.000000	0.000000	6
Es	-0.852066	0.275793	0.040612	99
Es	0.853020	-0.184713	0.208719	99
Es	0.851376	0.273122	0.055838	99
Es	1.417059	0.000545	-0.000327	99
Es	-1.157005	-0.000000	-0.000000	99
Es	0.851811	-0.088991	-0.264195	99
Es	-1.417020	0.000028	-0.000076	99
Es	1.156991	0.000037	-0.000035	99
Es	-0.852173	-0.173011	0.218592	99
Es	0.000001	-0.000001	0.000001	99
Es	-0.851993	-0.102808	-0.259129	99
14
Properties=species:S:1:pos:R:3:Z:I:1 energy=-187.68919801895981 field_type=dipole dipole="0.000000 0.000000 0.000000" charge=0
O	-1.157569	0.000000	0.000000	8
O	1.157569	0.000000	0.000000	8
C	0.000000	0.000000	0.000000	6
Es	1.156963	-0.000000	-0.000000	99
Es	-1.415471	-0.000003	0.000003	99
Es	0.852606	0.161016	-0.228402	99
Es	-0.852603	0.079929	0.267776	99
Es	0.000000	-0.000000	0.000000	99
Es	0.852606	-0.278310	-0.025243	99
Es	0.852606	0.117294	0.253645	99
Es	-0.852611	0.191939	-0.203107	99
Es	1.415469	0.000000	-0.000000	99
Es	-1.156964	-0.000000	0.000000	99
Es	-0.852602	-0.271864	-0.064673	99
14
Properties=species:S:1:pos:R:3:Z:I:1 energy=-187.68919801895981 field_type=dipole dipole="0.000000 0.000000 0.000000" charge=0
O	-1.157569	0.000000	0.000000	8
O	1.157569	0.000000	0.000000	8
C	0.000000	0.000000	0.000000	6
Es	1.156874	0.000000	0.000000	99
Es	-0.853429	0.271559	0.068325	99
Es	-1.156808	-0.000000	-0.000001	99
Es	1.414397	0.000115	0.000397	99
Es	-0.852400	-0.076901	-0.269247	99
Es	0.852756	-0.206268	0.189298	99
Es	0.852701	0.267209	0.083541	99
Es	-0.853431	-0.194511	0.201442	99
Es	-1.414171	-0.000146	-0.000513	99
Es	0.853511	-0.061056	-0.273242	99
Es	0.000000	0.000000	0.000000	99
14
Properties=species:S:1:pos:R:3:Z:I:1 energy=-187.68919801895981 field_type=dipole dipole="0.000000 0.000000 0.000000" charge=0
O	-1.157569	0.000000	0.000000	8
O	1.157569	0.000000	0.000000	8
C	0.000000	0.000000	0.000000	6
Es	1.157097	0.000000	0.000000	99
Es	-0.000015	0.000000	-0.000000	99
Es	-1.157460	0.000001	0.000003	99
Es	-1.416952	-0.000008	-0.000016	99
Es	0.850400	-0.116457	-0.250321	99
Es	1.417942	0.000016	-0.000003	99
Es	-0.850585	-0.148860	-0.231785	99
Es	0.850379	0.275007	0.024318	99
Es	0.850411	-0.158566	0.226006	99
Es	-0.850610	-0.126296	0.244811	99
Es	-0.850607	0.275163	-0.013013	99
14
Properties=species:S:1:pos:R:3:Z:I:1 energy=-187.68919801895981 field_type=dipole dipole="0.000000 0.000000 0.000000" charge=0
O	-1.157569	0.000000	0.000000	8
O	1.157569	0.000000	0.000000	8
C	0.000000	0.000000	0.000000	6
Es	1.411668	0.000002	0.000017	99
Es	-0.854145	0.276142	0.052576	99
Es	-0.000001	0.000000	0.000000	99
Es	0.853893	0.030769	0.279202	99
Es	-1.410515	0.000054	0.000013	99
Es	0.853926	-0.257177	-0.112963	99
Es	1.156799	0.000000	0.000000	99
Es	-0.854236	-0.183633	0.212837	99
Es	-0.854245	-0.092562	-0.265425	99
Es	-1.157069	-0.000002	-0.000001	99
Es	0.853924	0.226407	-0.166256	99
14
Properties=species:S:1:pos:R:3:Z:I:1 energy=-187.68919801895981 field_type=dipole dipole="0.000000 0.000000 0.000000" charge=0
O	-1.157569	0.000000	0.000000	8
O	1.157569	0.000000	0.000000	8
C	0.000000	0.000000	0.000000	6
Es	-1.146562	0.001186	0.000712	99
Es	1.156631	0.000002	0.000001	99
Es	-0.843991	0.241245	-0.151347	99
Es	0.857348	0.003109	0.284624	99
Es	-1.400210	0.012559	0.007976	99
Es	0.856368	0.245199	-0.144504	99
Es	-0.843096	-0.019786	0.284041	99
Es	-0.895148	-0.235187	-0.141367	99
Es	1.401983	0.000738	-0.000103	99
Es	0.856676	-0.249065	-0.140031	99
Es	0.000001	-0.000000	-0.000000	99
