10
Properties=species:S:1:pos:R:3:Z:I:1 energy=-40.20898433575479 field_type=dipole dipole="0.000000 0.000000 0.000000" charge=0
C	0.998260	-0.002460	-0.004360	6
H	2.090210	-0.002430	0.004140	1
H	0.633790	1.026860	0.004140	1
H	0.627040	-0.527730	0.878110	1
H	0.641360	-0.507470	-0.905400	1
Es	0.998260	-0.002460	-0.004361	99
Es	1.736621	-0.002408	0.001449	99
Es	0.751846	0.693564	0.001442	99
Es	0.756963	-0.343893	-0.613543	99
Es	0.747276	-0.357587	0.592393	99
10
Properties=species:S:1:pos:R:3:Z:I:1 energy=-40.20898433575479 field_type=dipole dipole="0.000000 0.000000 0.000000" charge=0
C	0.998260	-0.002460	-0.004360	6
H	2.090210	-0.002430	0.004140	1
H	0.633790	1.026860	0.004140	1
H	0.627040	-0.527730	0.878110	1
H	0.641360	-0.507470	-0.905400	1
Es	0.747293	-0.357581	0.592388	99
Es	0.751842	0.693561	0.001455	99
Es	0.998260	-0.002460	-0.004361	99
Es	0.756954	-0.343904	-0.613553	99
Es	1.736617	-0.002401	0.001450	99
10
Properties=species:S:1:pos:R:3:Z:I:1 energy=-40.20898433575479 field_type=dipole dipole="0.000000 0.000000 0.000000" charge=0
C	0.998260	-0.002460	-0.004360	6
H	2.090210	-0.002430	0.004140	1
H	0.633790	1.026860	0.004140	1
H	0.627040	-0.527730	0.878110	1
H	0.641360	-0.507470	-0.905400	1
Es	0.998259	-0.002461	-0.004360	99
Es	0.747284	-0.357583	0.592386	99
Es	0.751843	0.693561	0.001449	99
Es	1.736621	-0.002404	0.001452	99
Es	0.756959	-0.343899	-0.613547	99
10
Properties=species:S:1:pos:R:3:Z:I:1 energy=-40.20898433575479 field_type=dipole dipole="0.000000 0.000000 0.000000" charge=0
C	0.998260	-0.002460	-0.004360	6
H	2.090210	-0.002430	0.004140	1
H	0.633790	1.026860	0.004140	1
H	0.627040	-0.527730	0.878110	1
H	0.641360	-0.507470	-0.905400	1
Es	0.756963	-0.343899	-0.613557	99
Es	1.736609	-0.002401	0.001455	99
Es	0.747285	-0.357585	0.592391	99
Es	0.751849	0.693560	0.001451	99
Es	0.998260	-0.002460	-0.004361	99
10
Properties=species:S:1:pos:R:3:Z:I:1 energy=-40.20898433575479 field_type=dipole dipole="0.000000 0.000000 0.000000" charge=0
C	0.998260	-0.002460	-0.004360	6
H	2.090210	-0.002430	0.004140	1
H	0.633790	1.026860	0.004140	1
H	0.627040	-0.527730	0.878110	1
H	0.641360	-0.507470	-0.905400	1
Es	0.751855	0.693554	0.001459	99
Es	0.747281	-0.357584	0.592386	99
Es	0.998260	-0.002461	-0.004360	99
Es	0.756958	-0.343892	-0.613563	99
Es	1.736612	-0.002403	0.001458	99
10
Properties=species:S:1:pos:R:3:Z:I:1 energy=-40.20898433575479 field_type=dipole dipole="0.000000 0.000000 0.000000" charge=0
C	0.998260	-0.002460	-0.004360	6
H	2.090210	-0.002430	0.004140	1
H	0.633790	1.026860	0.004140	1
H	0.627040	-0.527730	0.878110	1
H	0.641360	-0.507470	-0.905400	1
Es	0.998260	-0.002461	-0.004360	99
Es	1.736609	-0.002386	0.001443	99
Es	0.751846	0.693543	0.001474	99
Es	0.756949	-0.343888	-0.613566	99
Es	0.747302	-0.357594	0.592390	99
10
Properties=species:S:1:pos:R:3:Z:I:1 energy=-40.20898433575479 field_type=dipole dipole="0.000000 0.000000 0.000000" charge=0
C	0.998260	-0.002460	-0.004360	6
H	2.090210	-0.002430	0.004140	1
H	0.633790	1.026860	0.004140	1
H	0.627040	-0.527730	0.878110	1
H	0.641360	-0.507470	-0.905400	1
Es	0.998260	-0.002460	-0.004360	99
Es	0.747290	-0.357583	0.592392	99
Es	0.756963	-0.343899	-0.613564	99
Es	1.736594	-0.002401	0.001456	99
Es	0.751858	0.693558	0.001456	99
10
Properties=species:S:1:pos:R:3:Z:I:1 energy=-40.20898433575479 field_type=dipole dipole="0.000000 0.000000 0.000000" charge=0
C	0.998260	-0.002460	-0.004360	6
H	2.090210	-0.002430	0.004140	1
H	0.633790	1.026860	0.004140	1
H	0.627040	-0.527730	0.878110	1
H	0.641360	-0.507470	-0.905400	1
Es	1.736602	-0.002395	0.001452	99
Es	0.756958	-0.343899	-0.613558	99
Es	0.751852	0.693549	0.001456	99
Es	0.747294	-0.357580	0.592390	99
Es	0.998259	-0.002461	-0.004360	99
10
Properties=species:S:1:pos:R:3:Z:I:1 energy=-40.20898433575479 field_type=dipole dipole="0.000000 0.000000 0.000000" charge=0
C	0.998260	-0.002460	-0.004360	6
H	2.090210	-0.002430	0.004140	1
H	0.633790	1.026860	0.004140	1
H	0.627040	-0.527730	0.878110	1
H	0.641360	-0.507470	-0.905400	1
Es	0.756958	-0.343889	-0.613550	99
Es	0.751857	0.693550	0.001455	99
Es	0.998260	-0.002459	-0.004362	99
Es	0.747284	-0.357581	0.592386	99
Es	1.736606	-0.002406	0.001451	99
10
Properties=species:S:1:pos:R:3:Z:I:1 energy=-40.20898433575479 field_type=dipole dipole="0.000000 0.000000 0.000000" charge=0
C	0.998260	-0.002460	-0.004360	6
H	2.090210	-0.002430	0.004140	1
H	0.633790	1.026860	0.004140	1
H	0.627040	-0.527730	0.878110	1
H	0.641360	-0.507470	-0.905400	1
Es	0.756969	-0.343918	-0.613551	99
Es	1.736597	-0.002394	0.001464	99
Es	0.747295	-0.357566	0.592386	99
Es	0.751846	0.693552	0.001442	99
Es	0.998259	-0.002460	-0.004360	99
