27
Properties=species:S:1:pos:R:3:Z:I:1 energy=-172.11277363916975 field_type=dipole dipole="0.000000 0.000000 0.000000" charge=0
C	-1.239611	-0.008605	0.579296	6
N	0.213849	-0.079675	0.698436	7
C	0.850879	-0.748455	-0.430544	6
C	0.920349	0.749585	-0.271084	6
H	-1.624341	0.749155	1.269866	1
H	-1.681221	-0.969605	0.862736	1
H	-1.599181	0.242405	-0.426174	1
H	0.223419	-1.160965	-1.210554	1
H	1.735969	-1.326505	-0.194884	1
H	1.853749	1.181394	0.069916	1
H	0.346139	1.371275	-0.947014	1
Es	0.521149	1.171063	-0.727186	99
Es	-1.239477	-0.008610	0.579297	99
Es	1.449609	-1.145167	-0.272717	99
Es	0.416088	-1.027466	-0.958145	99
Es	-1.475885	0.163678	-0.120738	99
Es	-1.500548	0.510807	1.045014	99
Es	0.357907	-0.121674	1.026139	99
Es	0.471078	0.408063	0.335409	99
Es	0.920242	0.749385	-0.270971	99
Es	0.431574	-0.500519	0.237481	99
Es	0.850792	-0.748276	-0.430395	99
Es	1.008879	0.013766	-0.536532	99
Es	-0.416031	-0.043406	0.608442	99
Es	0.213636	-0.079595	0.697763	99
Es	1.552465	1.047422	-0.040480	99
Es	-1.538048	-0.664952	0.768568	99
27
Properties=species:S:1:pos:R:3:Z:I:1 energy=-172.11277363916975 field_type=dipole dipole="0.000000 0.000000 0.000000" charge=0
C	-1.239611	-0.008605	0.579296	6
N	0.213849	-0.079675	0.698436	7
C	0.850879	-0.748455	-0.430544	6
C	0.920349	0.749585	-0.271084	6
H	-1.624341	0.749155	1.269866	1
H	-1.681221	-0.969605	0.862736	1
H	-1.599181	0.242405	-0.426174	1
H	0.223419	-1.160965	-1.210554	1
H	1.735969	-1.326505	-0.194884	1
H	1.853749	1.181394	0.069916	1
H	0.346139	1.371275	-0.947014	1
Es	-1.475898	0.163720	-0.120675	99
Es	-0.415908	-0.043563	0.609109	99
Es	0.431684	-0.501473	0.237940	99
Es	1.449256	-1.145131	-0.272878	99
Es	0.920246	0.749388	-0.270975	99
Es	0.416256	-1.027513	-0.957870	99
Es	0.213651	-0.079598	0.697791	99
Es	0.357324	-0.121592	1.024858	99
Es	0.521341	1.171102	-0.726873	99
Es	-1.500601	0.510735	1.045023	99
Es	0.471259	0.408895	0.336084	99
Es	1.552129	1.047408	-0.040583	99
Es	1.009476	0.013918	-0.537382	99
Es	-1.538088	-0.664901	0.768471	99
Es	0.850788	-0.748269	-0.430389	99
Es	-1.239485	-0.008610	0.579297	99
27
Properties=species:S:1:pos:R:3:Z:I:1 energy=-172.11277363916975 field_type=dipole dipole="0.000000 0.000000 0.000000" charge=0
C	-1.239611	-0.008605	0.579296	6
N	0.213849	-0.079675	0.698436	7
C	0.850879	-0.748455	-0.430544	6
C	0.920349	0.749585	-0.271084	6
H	-1.624341	0.749155	1.269866	1
H	-1.681221	-0.969605	0.862736	1
H	-1.599181	0.242405	-0.426174	1
H	0.223419	-1.160965	-1.210554	1
H	1.735969	-1.326505	-0.194884	1
H	1.853749	1.181394	0.069916	1
H	0.346139	1.371275	-0.947014	1
Es	0.213670	-0.079601	0.697785	99
Es	0.416431	-1.027608	-0.957517	99
Es	-1.239483	-0.008610	0.579298	99
Es	-1.538125	-0.664910	0.768435	99
Es	1.009969	0.013749	-0.538225	99
Es	-1.475873	0.163670	-0.120580	99
Es	0.431957	-0.502191	0.238191	99
Es	0.521535	1.171012	-0.726667	99
Es	1.448972	-1.145133	-0.272925	99
Es	1.551821	1.047439	-0.040730	99
Es	0.850793	-0.748270	-0.430395	99
Es	-0.415811	-0.043433	0.609523	99
Es	-1.500699	0.510732	1.044933	99
Es	0.471251	0.409532	0.336902	99
Es	0.356775	-0.121254	1.023898	99
Es	0.920248	0.749391	-0.270977	99
27
Properties=species:S:1:pos:R:3:Z:I:1 energy=-172.11277363916975 field_type=dipole dipole="0.000000 0.000000 0.000000" charge=0
C	-1.239611	-0.008605	0.579296	6
N	0.213849	-0.079675	0.698436	7
C	0.850879	-0.748455	-0.430544	6
C	0.920349	0.749585	-0.271084	6
H	-1.624341	0.749155	1.269866	1
H	-1.681221	-0.969605	0.862736	1
H	-1.599181	0.242405	-0.426174	1
H	0.223419	-1.160965	-1.210554	1
H	1.735969	-1.326505	-0.194884	1
H	1.853749	1.181394	0.069916	1
H	0.346139	1.371275	-0.947014	1
Es	0.471473	0.410023	0.337129	99
Es	-0.415840	-0.043609	0.610209	99
Es	-1.239485	-0.008610	0.579298	99
Es	0.431831	-0.502885	0.238839	99
Es	0.356504	-0.121239	1.022776	99
Es	0.920244	0.749381	-0.270972	99
Es	-1.538183	-0.664870	0.768387	99
Es	-1.475854	0.163682	-0.120528	99
Es	1.010546	0.013957	-0.539034	99
Es	0.521687	1.170981	-0.726320	99
Es	0.213657	-0.079597	0.697794	99
Es	1.551511	1.047537	-0.040753	99
Es	-1.500730	0.510711	1.044905	99
Es	0.416621	-1.027591	-0.957312	99
Es	1.448658	-1.145087	-0.273078	99
Es	0.850791	-0.748269	-0.430392	99
27
Properties=species:S:1:pos:R:3:Z:I:1 energy=-172.11277363916975 field_type=dipole dipole="0.000000 0.000000 0.000000" charge=0
C	-1.239611	-0.008605	0.579296	6
N	0.213849	-0.079675	0.698436	7
C	0.850879	-0.748455	-0.430544	6
C	0.920349	0.749585	-0.271084	6
H	-1.624341	0.749155	1.269866	1
H	-1.681221	-0.969605	0.862736	1
H	-1.599181	0.242405	-0.426174	1
H	0.223419	-1.160965	-1.210554	1
H	1.735969	-1.326505	-0.194884	1
H	1.853749	1.181394	0.069916	1
H	0.346139	1.371275	-0.947014	1
Es	-0.415779	-0.043639	0.610814	99
Es	0.471669	0.410542	0.337326	99
Es	0.416741	-1.027630	-0.956992	99
Es	0.356063	-0.120752	1.021658	99
Es	-1.239485	-0.008611	0.579298	99
Es	-1.538179	-0.664813	0.768333	99
Es	0.431955	-0.503928	0.239494	99
Es	-1.475857	0.163646	-0.120497	99
Es	0.213660	-0.079600	0.697800	99
Es	0.850789	-0.748266	-0.430390	99
Es	0.920246	0.749376	-0.270976	99
Es	1.448374	-1.145100	-0.273172	99
Es	0.521821	1.170961	-0.726099	99
Es	1.551250	1.047543	-0.040850	99
Es	1.010978	0.014110	-0.539691	99
Es	-1.500814	0.510676	1.044893	99
27
Properties=species:S:1:pos:R:3:Z:I:1 energy=-172.11277363916975 field_type=dipole dipole="0.000000 0.000000 0.000000" charge=0
C	-1.239611	-0.008605	0.579296	6
N	0.213849	-0.079675	0.698436	7
C	0.850879	-0.748455	-0.430544	6
C	0.920349	0.749585	-0.271084	6
H	-1.624341	0.749155	1.269866	1
H	-1.681221	-0.969605	0.862736	1
H	-1.599181	0.242405	-0.426174	1
H	0.223419	-1.160965	-1.210554	1
H	1.735969	-1.326505	-0.194884	1
H	1.853749	1.181394	0.069916	1
H	0.346139	1.371275	-0.947014	1
Es	-1.475834	0.163655	-0.120427	99
Es	1.011442	0.014033	-0.540458	99
Es	0.521939	1.170905	-0.725832	99
Es	-1.500818	0.510682	1.044835	99
Es	-1.538251	-0.664813	0.768315	99
Es	-1.239490	-0.008611	0.579299	99
Es	1.448161	-1.145099	-0.273258	99
Es	-0.415767	-0.043721	0.611201	99
Es	0.471680	0.410917	0.337968	99
Es	0.920243	0.749374	-0.270972	99
Es	1.550986	1.047612	-0.040905	99
Es	0.416901	-1.027607	-0.956773	99
Es	0.355850	-0.120917	1.020948	99
Es	0.431937	-0.504032	0.239601	99
Es	0.850790	-0.748262	-0.430389	99
Es	0.213663	-0.079601	0.697797	99
27
Properties=species:S:1:pos:R:3:Z:I:1 energy=-172.11277363916975 field_type=dipole dipole="0.000000 0.000000 0.000000" charge=0
C	-1.239611	-0.008605	0.579296	6
N	0.213849	-0.079675	0.698436	7
C	0.850879	-0.748455	-0.430544	6
C	0.920349	0.749585	-0.271084	6
H	-1.624341	0.749155	1.269866	1
H	-1.681221	-0.969605	0.862736	1
H	-1.599181	0.242405	-0.426174	1
H	0.223419	-1.160965	-1.210554	1
H	1.735969	-1.326505	-0.194884	1
H	1.853749	1.181394	0.069916	1
H	0.346139	1.371275	-0.947014	1
Es	1.011863	0.014060	-0.541098	99
Es	0.355585	-0.120787	1.020223	99
Es	0.522077	1.170866	-0.725623	99
Es	0.850790	-0.748261	-0.430389	99
Es	-1.475826	0.163638	-0.120368	99
Es	0.471714	0.411262	0.338305	99
Es	-1.500870	0.510666	1.044797	99
Es	-0.415697	-0.043752	0.611582	99
Es	0.213689	-0.079603	0.697825	99
Es	0.431951	-0.504479	0.239935	99
Es	-1.239489	-0.008610	0.579299	99
Es	1.550737	1.047630	-0.040969	99
Es	1.447917	-1.145083	-0.273321	99
Es	-1.538286	-0.664782	0.768276	99
Es	0.417033	-1.027621	-0.956553	99
Es	0.920243	0.749373	-0.270972	99
27
Properties=species:S:1:pos:R:3:Z:I:1 energy=-172.11277363916975 field_type=dipole dipole="0.000000 0.000000 0.000000" charge=0
C	-1.239611	-0.008605	0.579296	6
N	0.213849	-0.079675	0.698436	7
C	0.850879	-0.748455	-0.430544	6
C	0.920349	0.749585	-0.271084	6
H	-1.624341	0.749155	1.269866	1
H	-1.681221	-0.969605	0.862736	1
H	-1.599181	0.242405	-0.426174	1
H	0.223419	-1.160965	-1.210554	1
H	1.735969	-1.326505	-0.194884	1
H	1.853749	1.181394	0.069916	1
H	0.346139	1.371275	-0.947014	1
Es	0.850790	-0.748258	-0.430388	99
Es	-1.538317	-0.664757	0.768244	99
Es	0.522187	1.170823	-0.725409	99
Es	-1.475813	0.163624	-0.120318	99
Es	0.431995	-0.504912	0.240265	99
Es	0.920242	0.749370	-0.270971	99
Es	0.417151	-1.027632	-0.956352	99
Es	0.471775	0.411591	0.338627	99
Es	1.550516	1.047652	-0.041033	99
Es	1.447690	-1.145061	-0.273397	99
Es	-0.415669	-0.043803	0.612014	99
Es	-1.500908	0.510654	1.044764	99
Es	0.355368	-0.120650	1.019482	99
Es	1.012253	0.014086	-0.541690	99
Es	-1.239491	-0.008610	0.579299	99
Es	0.213663	-0.079601	0.697811	99
27
Properties=species:S:1:pos:R:3:Z:I:1 energy=-172.11277363916975 field_type=dipole dipole="0.000000 0.000000 0.000000" charge=0
C	-1.239611	-0.008605	0.579296	6
N	0.213849	-0.079675	0.698436	7
C	0.850879	-0.748455	-0.430544	6
C	0.920349	0.749585	-0.271084	6
H	-1.624341	0.749155	1.269866	1
H	-1.681221	-0.969605	0.862736	1
H	-1.599181	0.242405	-0.426174	1
H	0.223419	-1.160965	-1.210554	1
H	1.735969	-1.326505	-0.194884	1
H	1.853749	1.181394	0.069916	1
H	0.346139	1.371275	-0.947014	1
Es	0.471792	0.411853	0.338905	99
Es	-1.239492	-0.008610	0.579299	99
Es	-1.500949	0.510641	1.044730	99
Es	0.522283	1.170767	-0.725225	99
Es	0.355150	-0.120534	1.018829	99
Es	0.850790	-0.748256	-0.430387	99
Es	0.920242	0.749369	-0.270971	99
Es	0.213716	-0.079608	0.697860	99
Es	0.417262	-1.027637	-0.956154	99
Es	-1.538347	-0.664735	0.768209	99
Es	1.012623	0.014117	-0.542238	99
Es	-0.415608	-0.043835	0.612361	99
Es	-1.475800	0.163616	-0.120263	99
Es	1.550296	1.047691	-0.041088	99
Es	1.447485	-1.145048	-0.273460	99
Es	0.431988	-0.505273	0.240542	99
27
Properties=species:S:1:pos:R:3:Z:I:1 energy=-172.11277363916975 field_type=dipole dipole="0.000000 0.000000 0.000000" charge=0
C	-1.239611	-0.008605	0.579296	6
N	0.213849	-0.079675	0.698436	7
C	0.850879	-0.748455	-0.430544	6
C	0.920349	0.749585	-0.271084	6
H	-1.624341	0.749155	1.269866	1
H	-1.681221	-0.969605	0.862736	1
H	-1.599181	0.242405	-0.426174	1
H	0.223419	-1.160965	-1.210554	1
H	1.735969	-1.326505	-0.194884	1
H	1.853749	1.181394	0.069916	1
H	0.346139	1.371275	-0.947014	1
Es	0.432037	-0.505616	0.240839	99
Es	-1.500986	0.510633	1.044697	99
Es	0.417358	-1.027648	-0.955972	99
Es	0.850789	-0.748254	-0.430386	99
Es	-1.538374	-0.664713	0.768179	99
Es	1.550110	1.047686	-0.041148	99
Es	-1.239494	-0.008610	0.579300	99
Es	0.471837	0.412121	0.339167	99
Es	-1.475788	0.163597	-0.120224	99
Es	-0.415587	-0.043889	0.612749	99
Es	1.012956	0.014133	-0.542765	99
Es	1.447278	-1.145020	-0.273519	99
Es	0.213667	-0.079601	0.697809	99
Es	0.354999	-0.120411	1.018230	99
Es	0.920242	0.749366	-0.270971	99
Es	0.522386	1.170741	-0.725036	99
