26
Properties=species:S:1:pos:R:3:Z:I:1 energy=-191.9572546759723 field_type=dipole dipole="0.000000 0.000000 0.000000" charge=0
C	-1.161662	0.280251	0.325012	6
C	0.314898	0.142251	0.430662	6
C	1.117378	-0.486139	-0.675728	6
O	1.057118	0.938381	-0.498488	8
H	-1.516362	1.066781	0.998552	1
H	-1.648122	-0.657769	0.610312	1
H	-1.480122	0.534441	-0.691608	1
H	0.673058	0.069631	1.447752	1
H	0.597768	-0.907769	-1.526658	1
H	2.046048	-0.980059	-0.419808	1
Es	0.315050	0.142397	0.430436	99
Es	-1.483939	-0.357476	0.523294	99
Es	-1.369271	0.446444	-0.362052	99
Es	-1.395667	0.812410	0.782878	99
Es	0.854182	1.058047	-0.705687	99
Es	-1.161639	0.280236	0.325029	99
Es	0.766704	-0.766224	-1.260817	99
Es	1.117356	-0.485823	-0.675675	99
Es	1.754803	-0.815978	-0.508243	99
Es	1.145545	0.406088	-0.656148	99
Es	0.648794	-0.395607	-0.056911	99
Es	1.057006	0.938080	-0.498393	99
Es	-0.425506	0.209566	0.370024	99
Es	1.327639	1.040442	-0.371904	99
Es	0.565645	0.100427	1.124062	99
Es	0.751898	0.729619	-0.089301	99
26
Properties=species:S:1:pos:R:3:Z:I:1 energy=-191.9572546759723 field_type=dipole dipole="0.000000 0.000000 0.000000" charge=0
C	-1.161662	0.280251	0.325012	6
C	0.314898	0.142251	0.430662	6
C	1.117378	-0.486139	-0.675728	6
O	1.057118	0.938381	-0.498488	8
H	-1.516362	1.066781	0.998552	1
H	-1.648122	-0.657769	0.610312	1
H	-1.480122	0.534441	-0.691608	1
H	0.673058	0.069631	1.447752	1
H	0.597768	-0.907769	-1.526658	1
H	2.046048	-0.980059	-0.419808	1
Es	1.754658	-0.815876	-0.508537	99
Es	0.648694	-0.396241	-0.056514	99
Es	1.146389	0.405453	-0.656997	99
Es	1.057006	0.938105	-0.498415	99
Es	1.326073	1.039595	-0.372050	99
Es	-1.161639	0.280236	0.325029	99
Es	1.117354	-0.485831	-0.675676	99
Es	0.315052	0.142400	0.430435	99
Es	0.855979	1.058493	-0.705215	99
Es	-0.425370	0.209635	0.369961	99
Es	0.565472	0.100499	1.123894	99
Es	0.750981	0.731036	-0.088851	99
Es	-1.395639	0.812279	0.782885	99
Es	0.766895	-0.766115	-1.260684	99
Es	-1.369428	0.446524	-0.362003	99
Es	-1.483880	-0.357544	0.523331	99
26
Properties=species:S:1:pos:R:3:Z:I:1 energy=-191.9572546759723 field_type=dipole dipole="0.000000 0.000000 0.000000" charge=0
C	-1.161662	0.280251	0.325012	6
C	0.314898	0.142251	0.430662	6
C	1.117378	-0.486139	-0.675728	6
O	1.057118	0.938381	-0.498488	8
H	-1.516362	1.066781	0.998552	1
H	-1.648122	-0.657769	0.610312	1
H	-1.480122	0.534441	-0.691608	1
H	0.673058	0.069631	1.447752	1
H	0.597768	-0.907769	-1.526658	1
H	2.046048	-0.980059	-0.419808	1
Es	1.754476	-0.815732	-0.508796	99
Es	0.750720	0.731665	-0.087941	99
Es	-1.483837	-0.357610	0.523306	99
Es	1.324768	1.039650	-0.372938	99
Es	0.767176	-0.766035	-1.260542	99
Es	0.565401	0.100606	1.123610	99
Es	1.147241	0.405459	-0.658314	99
Es	1.117352	-0.485817	-0.675672	99
Es	0.856785	1.058174	-0.704074	99
Es	-1.161639	0.280236	0.325029	99
Es	1.057058	0.938134	-0.498397	99
Es	0.648467	-0.397079	-0.056196	99
Es	-0.425361	0.209762	0.370125	99
Es	0.315053	0.142402	0.430433	99
Es	-1.369422	0.446526	-0.361975	99
Es	-1.395641	0.812308	0.782933	99
26
Properties=species:S:1:pos:R:3:Z:I:1 energy=-191.9572546759723 field_type=dipole dipole="0.000000 0.000000 0.000000" charge=0
C	-1.161662	0.280251	0.325012	6
C	0.314898	0.142251	0.430662	6
C	1.117378	-0.486139	-0.675728	6
O	1.057118	0.938381	-0.498488	8
H	-1.516362	1.066781	0.998552	1
H	-1.648122	-0.657769	0.610312	1
H	-1.480122	0.534441	-0.691608	1
H	0.673058	0.069631	1.447752	1
H	0.597768	-0.907769	-1.526658	1
H	2.046048	-0.980059	-0.419808	1
Es	-1.395699	0.812339	0.782907	99
Es	-1.483808	-0.357656	0.523301	99
Es	1.057052	0.938155	-0.498410	99
Es	0.648333	-0.397665	-0.055906	99
Es	1.117348	-0.485814	-0.675667	99
Es	-1.369347	0.446488	-0.361994	99
Es	-0.425384	0.209828	0.370283	99
Es	0.857857	1.058285	-0.703447	99
Es	0.565303	0.100673	1.123396	99
Es	0.315055	0.142404	0.430431	99
Es	0.750239	0.732442	-0.087308	99
Es	0.767424	-0.765954	-1.260437	99
Es	1.323590	1.039172	-0.373351	99
Es	1.754322	-0.815610	-0.508994	99
Es	1.147950	0.405326	-0.659241	99
Es	-1.161640	0.280236	0.325029	99
26
Properties=species:S:1:pos:R:3:Z:I:1 energy=-191.9572546759723 field_type=dipole dipole="0.000000 0.000000 0.000000" charge=0
C	-1.161662	0.280251	0.325012	6
C	0.314898	0.142251	0.430662	6
C	1.117378	-0.486139	-0.675728	6
O	1.057118	0.938381	-0.498488	8
H	-1.516362	1.066781	0.998552	1
H	-1.648122	-0.657769	0.610312	1
H	-1.480122	0.534441	-0.691608	1
H	0.673058	0.069631	1.447752	1
H	0.597768	-0.907769	-1.526658	1
H	2.046048	-0.980059	-0.419808	1
Es	-1.395662	0.812381	0.782843	99
Es	-1.161640	0.280236	0.325029	99
Es	0.767601	-0.765857	-1.260343	99
Es	1.754210	-0.815493	-0.509228	99
Es	1.057033	0.938159	-0.498406	99
Es	0.315055	0.142401	0.430431	99
Es	0.565188	0.100806	1.123215	99
Es	1.322695	1.039592	-0.374613	99
Es	0.750571	0.733079	-0.086361	99
Es	1.117350	-0.485819	-0.675669	99
Es	-1.483887	-0.357690	0.523323	99
Es	0.858017	1.057556	-0.702416	99
Es	-0.425313	0.209872	0.370363	99
Es	0.648209	-0.398279	-0.055561	99
Es	1.148484	0.405220	-0.660073	99
Es	-1.369311	0.446486	-0.361942	99
26
Properties=species:S:1:pos:R:3:Z:I:1 energy=-191.9572546759723 field_type=dipole dipole="0.000000 0.000000 0.000000" charge=0
C	-1.161662	0.280251	0.325012	6
C	0.314898	0.142251	0.430662	6
C	1.117378	-0.486139	-0.675728	6
O	1.057118	0.938381	-0.498488	8
H	-1.516362	1.066781	0.998552	1
H	-1.648122	-0.657769	0.610312	1
H	-1.480122	0.534441	-0.691608	1
H	0.673058	0.069631	1.447752	1
H	0.597768	-0.907769	-1.526658	1
H	2.046048	-0.980059	-0.419808	1
Es	0.767826	-0.765772	-1.260245	99
Es	0.750043	0.733775	-0.085955	99
Es	-1.483812	-0.357705	0.523307	99
Es	0.648052	-0.398818	-0.055295	99
Es	-1.395675	0.812340	0.782900	99
Es	1.056850	0.938020	-0.498470	99
Es	0.859286	1.057638	-0.701819	99
Es	0.315056	0.142399	0.430427	99
Es	1.117349	-0.485826	-0.675668	99
Es	-1.369352	0.446506	-0.361965	99
Es	-0.425312	0.209929	0.370459	99
Es	1.754051	-0.815386	-0.509394	99
Es	-1.161642	0.280234	0.325030	99
Es	1.148897	0.405246	-0.660758	99
Es	0.565121	0.100861	1.123012	99
Es	1.321859	1.039206	-0.374973	99
26
Properties=species:S:1:pos:R:3:Z:I:1 energy=-191.9572546759723 field_type=dipole dipole="0.000000 0.000000 0.000000" charge=0
C	-1.161662	0.280251	0.325012	6
C	0.314898	0.142251	0.430662	6
C	1.117378	-0.486139	-0.675728	6
O	1.057118	0.938381	-0.498488	8
H	-1.516362	1.066781	0.998552	1
H	-1.648122	-0.657769	0.610312	1
H	-1.480122	0.534441	-0.691608	1
H	0.673058	0.069631	1.447752	1
H	0.597768	-0.907769	-1.526658	1
H	2.046048	-0.980059	-0.419808	1
Es	0.859846	1.057665	-0.701175	99
Es	-0.425334	0.209965	0.370543	99
Es	0.749930	0.734630	-0.085573	99
Es	1.148659	0.405040	-0.661484	99
Es	1.321511	1.038676	-0.375345	99
Es	0.647956	-0.399353	-0.055132	99
Es	-1.161641	0.280236	0.325029	99
Es	0.768016	-0.765656	-1.260110	99
Es	1.117348	-0.485818	-0.675665	99
Es	-1.483809	-0.357737	0.523295	99
Es	-1.395686	0.812372	0.782905	99
Es	0.565048	0.100914	1.122829	99
Es	-1.369315	0.446496	-0.361954	99
Es	0.315056	0.142400	0.430428	99
Es	1.753954	-0.815319	-0.509580	99
Es	1.057060	0.938137	-0.498417	99
26
Properties=species:S:1:pos:R:3:Z:I:1 energy=-191.9572546759723 field_type=dipole dipole="0.000000 0.000000 0.000000" charge=0
C	-1.161662	0.280251	0.325012	6
C	0.314898	0.142251	0.430662	6
C	1.117378	-0.486139	-0.675728	6
O	1.057118	0.938381	-0.498488	8
H	-1.516362	1.066781	0.998552	1
H	-1.648122	-0.657769	0.610312	1
H	-1.480122	0.534441	-0.691608	1
H	0.673058	0.069631	1.447752	1
H	0.597768	-0.907769	-1.526658	1
H	2.046048	-0.980059	-0.419808	1
Es	1.057063	0.938205	-0.498426	99
Es	1.320447	1.039554	-0.376097	99
Es	0.768209	-0.765567	-1.260077	99
Es	1.117346	-0.485818	-0.675663	99
Es	1.149899	0.405271	-0.661311	99
Es	0.564982	0.101032	1.122652	99
Es	1.753823	-0.815206	-0.509737	99
Es	-1.369299	0.446494	-0.361974	99
Es	-0.425311	0.210037	0.370666	99
Es	0.749749	0.734975	-0.085112	99
Es	-1.483776	-0.357775	0.523301	99
Es	0.647879	-0.399963	-0.054934	99
Es	-1.161642	0.280236	0.325029	99
Es	-1.395698	0.812370	0.782908	99
Es	0.315055	0.142400	0.430428	99
Es	0.859871	1.056405	-0.701063	99
