18
Properties=species:S:1:pos:R:3:Z:I:1 energy=-116.6922382526933 field_type=dipole dipole="0.000000 0.000000 0.000000" charge=0
C	-0.937096	-0.001873	-0.008259	6
C	0.506904	-0.001873	-0.008259	6
C	1.697064	-0.001873	-0.008259	6
H	-1.338716	1.016307	0.027041	1
H	-1.317546	-0.509873	0.884841	1
H	-1.374056	-0.498943	-0.878849	1
H	2.763444	-0.001873	-0.008259	1
Es	-0.936993	-0.001871	-0.008254	99
Es	-1.175808	0.669141	0.011999	99
Es	-1.197653	-0.329914	-0.583759	99
Es	1.111100	-0.072718	-0.352421	99
Es	1.697286	-0.001871	-0.008259	99
Es	1.110120	0.332331	0.102788	99
Es	1.112010	-0.265064	0.225972	99
Es	2.391170	-0.001810	-0.008085	99
Es	0.506625	-0.001873	-0.008257	99
Es	-0.201151	-0.002686	-0.013732	99
Es	-1.163284	-0.338231	0.577883	99
