14
Properties=species:S:1:pos:R:3:Z:I:1 energy=-187.68919801895993 field_type=dipole dipole="0.000000 0.000000 0.000000" charge=0
O	-1.157569	0.000000	0.000000	8
O	1.157569	0.000000	0.000000	8
C	0.000000	0.000000	0.000000	6
Es	-1.157097	-0.000000	-0.000000	99
Es	-0.846639	0.262477	0.058601	99
Es	0.000001	0.000000	0.000000	99
Es	1.157098	0.000000	0.000000	99
Es	0.846444	0.197184	-0.182862	99
Es	0.846449	-0.256926	-0.079348	99
Es	1.433757	-0.000015	-0.000007	99
Es	0.846425	0.059757	0.262217	99
Es	-1.433757	-0.000176	-0.000028	99
Es	-0.846348	-0.080392	-0.256621	99
Es	-0.846334	-0.181908	0.198048	99
14
Properties=species:S:1:pos:R:3:Z:I:1 energy=-187.68919801895993 field_type=dipole dipole="0.000000 0.000000 0.000000" charge=0
O	-1.157569	0.000000	0.000000	8
O	1.157569	0.000000	0.000000	8
C	0.000000	0.000000	0.000000	6
Es	-0.000000	0.000000	0.000000	99
Es	-1.157097	0.000000	0.000000	99
Es	0.846821	-0.232756	0.136392	99
Es	-0.846695	0.262238	0.063140	99
Es	0.846891	-0.001778	-0.269736	99
Es	-0.846708	-0.185961	0.195377	99
Es	-0.847127	-0.076372	-0.258827	99
Es	-1.432557	0.000096	0.000311	99
Es	0.846818	0.234551	0.133341	99
Es	1.157096	-0.000000	0.000000	99
Es	1.432556	-0.000018	0.000003	99
14
Properties=species:S:1:pos:R:3:Z:I:1 energy=-187.68919801895993 field_type=dipole dipole="0.000000 0.000000 0.000000" charge=0
O	-1.157569	0.000000	0.000000	8
O	1.157569	0.000000	0.000000	8
C	0.000000	0.000000	0.000000	6
Es	0.847330	-0.245014	-0.114784	99
Es	-0.847191	-0.270045	0.015624	99
Es	0.847204	0.023027	0.269570	99
Es	1.431439	0.000135	-0.000011	99
Es	1.157095	0.000000	0.000000	99
Es	0.847123	0.221852	-0.154775	99
Es	-1.431439	-0.000070	0.000051	99
Es	0.000000	0.000000	-0.000000	99
Es	-0.847178	0.148637	0.226083	99
Es	-1.157095	-0.000000	0.000000	99
Es	-0.847287	0.121477	-0.241759	99
14
Properties=species:S:1:pos:R:3:Z:I:1 energy=-187.68919801895993 field_type=dipole dipole="0.000000 0.000000 0.000000" charge=0
O	-1.157569	0.000000	0.000000	8
O	1.157569	0.000000	0.000000	8
C	0.000000	0.000000	0.000000	6
Es	-0.000000	-0.000000	0.000000	99
Es	-0.847992	-0.082845	0.258297	99
Es	-1.430397	-0.000081	-0.000404	99
Es	-0.847170	-0.182253	-0.200840	99
Es	-0.847548	0.265181	-0.057052	99
Es	-1.157091	0.000001	0.000000	99
Es	0.847637	-0.011282	-0.271010	99
Es	1.430398	-0.000072	0.000062	99
Es	0.847606	0.240382	0.125652	99
Es	0.847465	-0.229028	0.145292	99
Es	1.157092	-0.000001	0.000001	99
14
Properties=species:S:1:pos:R:3:Z:I:1 energy=-187.68919801895993 field_type=dipole dipole="0.000000 0.000000 0.000000" charge=0
O	-1.157569	0.000000	0.000000	8
O	1.157569	0.000000	0.000000	8
C	0.000000	0.000000	0.000000	6
Es	0.847891	-0.216954	0.163883	99
Es	-1.429431	0.000007	-0.000002	99
Es	-0.847908	0.184549	0.199615	99
Es	-0.000000	-0.000000	-0.000000	99
Es	-0.847892	-0.265164	0.060034	99
Es	-0.847883	0.080608	-0.259648	99
Es	0.847895	-0.033433	-0.269798	99
Es	1.429433	0.000029	-0.000009	99
Es	1.157089	-0.000000	0.000000	99
Es	-1.157090	-0.000000	0.000001	99
Es	0.847896	0.250358	0.105923	99
14
Properties=species:S:1:pos:R:3:Z:I:1 energy=-187.68919801895993 field_type=dipole dipole="0.000000 0.000000 0.000000" charge=0
O	-1.157569	0.000000	0.000000	8
O	1.157569	0.000000	0.000000	8
C	0.000000	0.000000	0.000000	6
Es	1.428530	0.000018	-0.000047	99
Es	0.848242	0.074439	0.262078	99
Es	0.848204	-0.264193	-0.066530	99
Es	0.000000	-0.000000	-0.000000	99
Es	0.848147	0.189736	-0.195502	99
Es	-0.848351	0.055301	0.266784	99
Es	-0.848125	0.203423	-0.181215	99
Es	-0.848114	-0.258690	-0.085434	99
Es	-1.157088	-0.000000	-0.000000	99
Es	1.157087	0.000000	-0.000000	99
Es	-1.428532	-0.000034	-0.000135	99
14
Properties=species:S:1:pos:R:3:Z:I:1 energy=-187.68919801895993 field_type=dipole dipole="0.000000 0.000000 0.000000" charge=0
O	-1.157569	0.000000	0.000000	8
O	1.157569	0.000000	0.000000	8
C	0.000000	0.000000	0.000000	6
Es	-1.157086	0.000001	-0.000000	99
Es	1.427690	-0.000003	0.000003	99
Es	0.000000	0.000000	-0.000000	99
Es	-0.848467	-0.248955	0.112129	99
Es	1.157089	-0.000000	0.000000	99
Es	0.848479	0.139334	-0.234729	99
Es	0.848479	0.133609	0.238026	99
Es	0.848479	-0.272940	-0.003301	99
Es	-0.848487	0.027384	-0.271550	99
Es	-1.427687	0.000062	-0.000030	99
Es	-0.848489	0.221507	0.159451	99
14
Properties=species:S:1:pos:R:3:Z:I:1 energy=-187.68919801895993 field_type=dipole dipole="0.000000 0.000000 0.000000" charge=0
O	-1.157569	0.000000	0.000000	8
O	1.157569	0.000000	0.000000	8
C	0.000000	0.000000	0.000000	6
Es	0.848736	-0.034245	0.271298	99
Es	0.848745	-0.217798	-0.165275	99
Es	0.848738	0.252059	-0.106006	99
Es	1.157081	0.000000	0.000000	99
Es	-0.848730	-0.187528	0.198988	99
Es	-1.157083	-0.000000	-0.000000	99
Es	0.000000	-0.000000	-0.000000	99
Es	1.426922	-0.000016	-0.000018	99
Es	-0.848733	0.266069	0.062908	99
Es	-1.426944	0.000015	0.000003	99
Es	-0.848731	-0.078556	-0.261898	99
14
Properties=species:S:1:pos:R:3:Z:I:1 energy=-187.68919801895993 field_type=dipole dipole="0.000000 0.000000 0.000000" charge=0
O	-1.157569	0.000000	0.000000	8
O	1.157569	0.000000	0.000000	8
C	0.000000	0.000000	0.000000	6
Es	1.426164	-0.000052	0.000046	99
Es	-0.849157	0.269121	0.050931	99
Es	0.849034	-0.049325	-0.269413	99
Es	0.848914	-0.208627	0.177444	99
Es	0.849033	0.258004	0.091923	99
Es	1.157081	0.000000	0.000000	99
Es	-1.157081	-0.000001	0.000000	99
Es	-0.849005	-0.090306	-0.258575	99
Es	-0.848820	-0.178661	0.207578	99
Es	0.000000	-0.000000	0.000000	99
Es	-1.426163	-0.000154	0.000066	99
14
Properties=species:S:1:pos:R:3:Z:I:1 energy=-187.68919801895993 field_type=dipole dipole="0.000000 0.000000 0.000000" charge=0
O	-1.157569	0.000000	0.000000	8
O	1.157569	0.000000	0.000000	8
C	0.000000	0.000000	0.000000	6
Es	1.157079	-0.000000	0.000000	99
Es	-0.000000	-0.000000	0.000000	99
Es	-0.849283	0.254891	-0.101329	99
Es	-0.849183	-0.215172	-0.170084	99
Es	-1.425496	-0.000058	0.000019	99
Es	-0.849190	-0.039660	0.271393	99
Es	-1.157079	-0.000002	0.000001	99
Es	0.849213	0.254199	0.103026	99
Es	1.425490	0.000009	-0.000002	99
Es	0.849230	-0.216322	0.168633	99
Es	0.849218	-0.037885	-0.271658	99
