FCHK generated by IOData                                                
NA        NA                                                           NA
Number of atoms                            I                7
Number of electrons                        I               50
Charge                                     I                0
Multiplicity                               I                1
Number of alpha electrons                  I               25
Number of beta electrons                   I               25
Atomic numbers                             I   N=           7
          16           8           8           8           8           1
           1
Nuclear charges                            R   N=           7
  1.60000000E+01  8.00000000E+00  8.00000000E+00  8.00000000E+00  8.00000000E+00
  1.00000000E+00  1.00000000E+00
Current cartesian coordinates              R   N=          21
  3.77945225E-04 -3.77945225E-04 -2.23176655E-01  2.40826697E+00  6.70852775E-02
  1.69602920E+00 -2.41223540E+00 -6.16050717E-02  1.69111591E+00 -6.34947978E-02
  2.37670855E+00 -1.58566919E+00  6.68963048E-02 -2.38181081E+00 -1.57811029E+00
  2.28864731E+00  1.30617870E+00  3.08252126E+00 -2.29563930E+00 -1.29616315E+00
  3.08157639E+00
Number of basis functions                  I              132
Number of independent functions            I              132
Number of contracted shells                I               64
Number of primitive shells                 I              115
Pure/Cartesian d shells                    I                0
Pure/Cartesian f shells                    I                0
Highest angular momentum                   I                2
Largest degree of contraction              I                6
Shell types                                I   N=          64
           0           0           0           0           0           0
           1           1           1           1           1          -2
           0           1           0           0           1           0
           1           0           1          -2           0           1
           0           0           1           0           1           0
           1          -2           0           1           0           0
           1           0           1           0           1          -2
           0           1           0           0           1           0
           1           0           1          -2           0           1
           0           0           0           1           0           0
           0           0           1           0
Number of primitives per shell             I   N=          64
           6           3           1           1           1           1
           4           2           1           1           1           1
           1           1           6           3           3           1
           1           1           1           1           1           1
           6           3           3           1           1           1
           1           1           1           1           6           3
           3           1           1           1           1           1
           1           1           6           3           3           1
           1           1           1           1           1           1
           3           1           1           1           1           3
           1           1           1           1
Shell to atom map                          I   N=          64
           1           1           1           1           1           1
           1           1           1           1           1           1
           1           1           2           2           2           2
           2           2           2           2           2           2
           3           3           3           3           3           3
           3           3           3           3           4           4
           4           4           4           4           4           4
           4           4           5           5           5           5
           5           5           5           5           5           5
           6           6           6           6           6           7
           7           7           7           7
Primitive exponents                        R   N=         115
  9.34134000E+04  1.39617000E+04  3.16991000E+03  9.02456000E+02  2.97158000E+02
  1.08702000E+02  1.08702000E+02  4.31553000E+01  1.81079000E+01  5.56009000E+00
  2.13183000E+00  4.20403000E-01  1.36045000E-01  4.95040000E+02  1.17221000E+02
  3.77749000E+01  1.40584000E+01  5.56574000E+00  2.26297000E+00  8.07994000E-01
  2.77460000E-01  7.71410000E-02  6.50000000E-01  4.05000000E-02  4.05000000E-02
  8.58850000E+03  1.29723000E+03  2.99296000E+02  8.73771000E+01  2.56789000E+01
  3.74004000E+00  4.21175000E+01  9.62837000E+00  2.85332000E+00  4.21175000E+01
  9.62837000E+00  2.85332000E+00  9.05661000E-01  9.05661000E-01  2.55611000E-01
  2.55611000E-01  1.29200000E+00  8.45000000E-02  8.45000000E-02  8.58850000E+03
  1.29723000E+03  2.99296000E+02  8.73771000E+01  2.56789000E+01  3.74004000E+00
  4.21175000E+01  9.62837000E+00  2.85332000E+00  4.21175000E+01  9.62837000E+00
  2.85332000E+00  9.05661000E-01  9.05661000E-01  2.55611000E-01  2.55611000E-01
  1.29200000E+00  8.45000000E-02  8.45000000E-02  8.58850000E+03  1.29723000E+03
  2.99296000E+02  8.73771000E+01  2.56789000E+01  3.74004000E+00  4.21175000E+01
  9.62837000E+00  2.85332000E+00  4.21175000E+01  9.62837000E+00  2.85332000E+00
  9.05661000E-01  9.05661000E-01  2.55611000E-01  2.55611000E-01  1.29200000E+00
  8.45000000E-02  8.45000000E-02  8.58850000E+03  1.29723000E+03  2.99296000E+02
  8.73771000E+01  2.56789000E+01  3.74004000E+00  4.21175000E+01  9.62837000E+00
  2.85332000E+00  4.21175000E+01  9.62837000E+00  2.85332000E+00  9.05661000E-01
  9.05661000E-01  2.55611000E-01  2.55611000E-01  1.29200000E+00  8.45000000E-02
  8.45000000E-02  3.38650000E+01  5.09479000E+00  1.15879000E+00  3.25840000E-01
  1.02741000E-01  7.50000000E-01  3.60000000E-02  3.38650000E+01  5.09479000E+00
  1.15879000E+00  3.25840000E-01  1.02741000E-01  7.50000000E-01  3.60000000E-02
Contraction coefficients                   R   N=         115
  7.43000000E-04  5.79300000E-03  2.99540000E-02  1.19028000E-01  3.68432000E-01
  5.77299000E-01  1.43186000E-01  6.24465000E-01  2.83366000E-01  1.00000000E+00
  1.00000000E+00  1.00000000E+00  1.00000000E+00  8.30900000E-03  6.40240000E-02
  2.77614000E-01  7.45076000E-01  6.13712000E-01  4.43818000E-01  1.00000000E+00
  1.00000000E+00  1.00000000E+00  1.00000000E+00  1.00000000E+00  1.00000000E+00
  1.89515000E-03  1.43859000E-02  7.07320000E-02  2.40001000E-01  5.94797000E-01
  2.80802000E-01  1.13889000E-01  9.20811000E-01 -3.27447000E-03  3.65114000E-02
  2.37153000E-01  8.19702000E-01  1.00000000E+00  1.00000000E+00  1.00000000E+00
  1.00000000E+00  1.00000000E+00  1.00000000E+00  1.00000000E+00  1.89515000E-03
  1.43859000E-02  7.07320000E-02  2.40001000E-01  5.94797000E-01  2.80802000E-01
  1.13889000E-01  9.20811000E-01 -3.27447000E-03  3.65114000E-02  2.37153000E-01
  8.19702000E-01  1.00000000E+00  1.00000000E+00  1.00000000E+00  1.00000000E+00
  1.00000000E+00  1.00000000E+00  1.00000000E+00  1.89515000E-03  1.43859000E-02
  7.07320000E-02  2.40001000E-01  5.94797000E-01  2.80802000E-01  1.13889000E-01
  9.20811000E-01 -3.27447000E-03  3.65114000E-02  2.37153000E-01  8.19702000E-01
  1.00000000E+00  1.00000000E+00  1.00000000E+00  1.00000000E+00  1.00000000E+00
  1.00000000E+00  1.00000000E+00  1.89515000E-03  1.43859000E-02  7.07320000E-02
  2.40001000E-01  5.94797000E-01  2.80802000E-01  1.13889000E-01  9.20811000E-01
 -3.27447000E-03  3.65114000E-02  2.37153000E-01  8.19702000E-01  1.00000000E+00
  1.00000000E+00  1.00000000E+00  1.00000000E+00  1.00000000E+00  1.00000000E+00
  1.00000000E+00  2.54938000E-02  1.90373000E-01  8.52161000E-01  1.00000000E+00
  1.00000000E+00  1.00000000E+00  1.00000000E+00  2.54938000E-02  1.90373000E-01
  8.52161000E-01  1.00000000E+00  1.00000000E+00  1.00000000E+00  1.00000000E+00
Coordinates of each shell                  R   N=         192
  3.77945225E-04 -3.77945225E-04 -2.23176655E-01  3.77945225E-04 -3.77945225E-04
 -2.23176655E-01  3.77945225E-04 -3.77945225E-04 -2.23176655E-01  3.77945225E-04
 -3.77945225E-04 -2.23176655E-01  3.77945225E-04 -3.77945225E-04 -2.23176655E-01
  3.77945225E-04 -3.77945225E-04 -2.23176655E-01  3.77945225E-04 -3.77945225E-04
 -2.23176655E-01  3.77945225E-04 -3.77945225E-04 -2.23176655E-01  3.77945225E-04
 -3.77945225E-04 -2.23176655E-01  3.77945225E-04 -3.77945225E-04 -2.23176655E-01
  3.77945225E-04 -3.77945225E-04 -2.23176655E-01  3.77945225E-04 -3.77945225E-04
 -2.23176655E-01  3.77945225E-04 -3.77945225E-04 -2.23176655E-01  3.77945225E-04
 -3.77945225E-04 -2.23176655E-01  2.40826697E+00  6.70852775E-02  1.69602920E+00
  2.40826697E+00  6.70852775E-02  1.69602920E+00  2.40826697E+00  6.70852775E-02
  1.69602920E+00  2.40826697E+00  6.70852775E-02  1.69602920E+00  2.40826697E+00
  6.70852775E-02  1.69602920E+00  2.40826697E+00  6.70852775E-02  1.69602920E+00
  2.40826697E+00  6.70852775E-02  1.69602920E+00  2.40826697E+00  6.70852775E-02
  1.69602920E+00  2.40826697E+00  6.70852775E-02  1.69602920E+00  2.40826697E+00
  6.70852775E-02  1.69602920E+00 -2.41223540E+00 -6.16050717E-02  1.69111591E+00
 -2.41223540E+00 -6.16050717E-02  1.69111591E+00 -2.41223540E+00 -6.16050717E-02
  1.69111591E+00 -2.41223540E+00 -6.16050717E-02  1.69111591E+00 -2.41223540E+00
 -6.16050717E-02  1.69111591E+00 -2.41223540E+00 -6.16050717E-02  1.69111591E+00
 -2.41223540E+00 -6.16050717E-02  1.69111591E+00 -2.41223540E+00 -6.16050717E-02
  1.69111591E+00 -2.41223540E+00 -6.16050717E-02  1.69111591E+00 -2.41223540E+00
 -6.16050717E-02  1.69111591E+00 -6.34947978E-02  2.37670855E+00 -1.58566919E+00
 -6.34947978E-02  2.37670855E+00 -1.58566919E+00 -6.34947978E-02  2.37670855E+00
 -1.58566919E+00 -6.34947978E-02  2.37670855E+00 -1.58566919E+00 -6.34947978E-02
  2.37670855E+00 -1.58566919E+00 -6.34947978E-02  2.37670855E+00 -1.58566919E+00
 -6.34947978E-02  2.37670855E+00 -1.58566919E+00 -6.34947978E-02  2.37670855E+00
 -1.58566919E+00 -6.34947978E-02  2.37670855E+00 -1.58566919E+00 -6.34947978E-02
  2.37670855E+00 -1.58566919E+00  6.68963048E-02 -2.38181081E+00 -1.57811029E+00
  6.68963048E-02 -2.38181081E+00 -1.57811029E+00  6.68963048E-02 -2.38181081E+00
 -1.57811029E+00  6.68963048E-02 -2.38181081E+00 -1.57811029E+00  6.68963048E-02
 -2.38181081E+00 -1.57811029E+00  6.68963048E-02 -2.38181081E+00 -1.57811029E+00
  6.68963048E-02 -2.38181081E+00 -1.57811029E+00  6.68963048E-02 -2.38181081E+00
 -1.57811029E+00  6.68963048E-02 -2.38181081E+00 -1.57811029E+00  6.68963048E-02
 -2.38181081E+00 -1.57811029E+00  2.28864731E+00  1.30617870E+00  3.08252126E+00
  2.28864731E+00  1.30617870E+00  3.08252126E+00  2.28864731E+00  1.30617870E+00
  3.08252126E+00  2.28864731E+00  1.30617870E+00  3.08252126E+00  2.28864731E+00
  1.30617870E+00  3.08252126E+00 -2.29563930E+00 -1.29616315E+00  3.08157639E+00
 -2.29563930E+00 -1.29616315E+00  3.08157639E+00 -2.29563930E+00 -1.29616315E+00
  3.08157639E+00 -2.29563930E+00 -1.29616315E+00  3.08157639E+00 -2.29563930E+00
 -1.29616315E+00  3.08157639E+00
Total Energy                               R       0.00000000E+00
Alpha Orbital Energies                     R   N=         132
 -9.23003558E+01 -2.06717781E+01 -2.06717100E+01 -2.05959542E+01 -2.05959262E+01
 -9.26672259E+00 -6.95262562E+00 -6.95200238E+00 -6.95164515E+00 -1.56498853E+00
 -1.43909616E+00 -1.41875602E+00 -1.39011907E+00 -9.46390440E-01 -8.55495840E-01
 -7.39755870E-01 -7.26049565E-01 -7.18756629E-01 -6.34282666E-01 -6.30065092E-01
 -5.87447927E-01 -5.65335994E-01 -5.51243532E-01 -5.18717079E-01 -5.03499165E-01
  1.69278588E-02  4.94726886E-02  1.00701960E-01  1.00975988E-01  1.23726308E-01
  1.27571484E-01  1.80853278E-01  1.82525278E-01  2.08308757E-01  2.08796998E-01
  2.44897242E-01  2.48089034E-01  2.48591342E-01  2.75585665E-01  2.86439186E-01
  3.11025048E-01  3.13387030E-01  3.24270881E-01  3.31560046E-01  3.40090119E-01
  3.73223017E-01  3.76850240E-01  3.78715999E-01  3.91670283E-01  3.93996875E-01
  4.01869221E-01  4.03550835E-01  4.63582085E-01  4.84186320E-01  5.07636053E-01
  5.45753106E-01  6.11055432E-01  6.79642344E-01  8.48780168E-01  8.74853683E-01
  9.96629037E-01  1.07456125E+00  1.14418146E+00  1.15959846E+00  1.22798611E+00
  1.23194681E+00  1.26481870E+00  1.28107945E+00  1.30811412E+00  1.34530885E+00
  1.34763936E+00  1.37599995E+00  1.38097357E+00  1.40808596E+00  1.41795178E+00
  1.45024360E+00  1.54768888E+00  1.60976814E+00  1.61688518E+00  1.71689391E+00
  1.79654060E+00  1.80648030E+00  1.93516281E+00  1.94793141E+00  2.03622128E+00
  2.04460501E+00  2.12447144E+00  2.25079203E+00  2.25251974E+00  2.74051177E+00
  2.81274414E+00  3.09691330E+00  3.12749890E+00  3.16353135E+00  3.16616904E+00
  3.18056083E+00  3.18348766E+00  3.21530761E+00  3.31696363E+00  3.34813164E+00
  3.38724471E+00  3.39250883E+00  3.40817910E+00  3.46319692E+00  3.46493522E+00
  3.56549622E+00  3.72517836E+00  3.91099503E+00  3.96970231E+00  4.11784200E+00
  4.16535457E+00  5.39746372E+00  5.43346139E+00  5.47853711E+00  5.51934594E+00
  5.52122524E+00  5.54266949E+00  5.54757739E+00  5.62685503E+00  5.69217089E+00
  5.84385920E+00  5.92943001E+00  5.93828015E+00  8.65901575E+00  1.82553494E+01
  1.83187360E+01  1.84455915E+01  5.14665641E+01  5.14861516E+01  5.15256910E+01
  5.15689518E+01  1.92404949E+02
Alpha MO coefficients                      R   N=       17424
  4.18830429E-01  6.78554807E-01 -3.26171362E-02 -5.00616924E-02 -3.38339915E-03
  1.66616645E-03  2.39329626E-02 -6.24173636E-05  3.38044680E-05  4.52814425E-02
 -1.18509253E-04  6.39354077E-05  2.54676786E-03 -6.90532205E-06  3.66093065E-06
 -7.92086363E-04  1.86156770E-06 -1.01160134E-06  5.46215262E-04 -1.03327767E-06
  1.00396282E-06 -5.74901811E-05  4.83398325E-09 -4.70196670E-07 -1.59384450E-04
 -2.51114032E-05  4.64835168E-04  8.03530072E-05 -3.01994256E-08  1.83018444E-07
  4.19154122E-05  6.34563293E-05  8.21784613E-05  2.20363439E-04  5.71347861E-06
 -1.53828504E-04  1.30424745E-04  3.39945007E-04  1.18767532E-05 -1.27760294E-04
  8.97562922E-05  2.90217721E-04 -1.14265320E-05  7.91183292E-06 -1.09889113E-05
  6.38164192E-06 -2.07114638E-05  5.38247125E-06 -5.33126772E-04  2.55889937E-05
  1.76131940E-04 -7.92844510E-06  4.20057718E-05  6.36109227E-05  8.19857849E-05
 -2.20708532E-04 -5.38332243E-06 -1.54250470E-04  1.30140949E-04 -3.40492891E-04
 -1.13422099E-05 -1.28242110E-04  8.93521862E-05 -2.90716246E-04  1.18616880E-05
  7.99164876E-06  1.09189304E-05 -6.39389669E-06 -2.07242877E-05  5.44623449E-06
 -5.32903730E-04  2.53524169E-05 -1.76046827E-04  7.89489385E-06 -7.45522268E-07
 -7.30031223E-06  6.39730714E-05 -1.42347806E-05 -3.63338631E-05  6.02383156E-05
  7.51006943E-05 -2.07689334E-05 -2.84756028E-05 -9.81488007E-05  1.16897963E-04
 -2.88466216E-05  4.28280796E-05  1.28609017E-05 -1.36222772E-06  1.65663371E-05
  2.45141007E-05  2.79001820E-06 -1.62803893E-04 -1.39840700E-04  5.41411148E-06
  2.08194090E-05 -7.22050926E-07 -7.25087296E-06  6.38132676E-05  1.43113094E-05
  3.64826669E-05  6.00555496E-05  7.49431143E-05  2.09366299E-05  2.86521509E-05
 -9.81772660E-05  1.17031775E-04  2.87765699E-05 -4.24678840E-05  1.29485939E-05
  1.36297760E-06 -1.64106489E-05  2.45542523E-05  2.82445059E-06 -1.62539398E-04
 -1.39765312E-04 -4.90880936E-06 -2.12350510E-05  2.51757255E-05  5.04608426E-05
  5.90273168E-05  7.26906616E-06  2.68325473E-05 -3.35853560E-06 -5.44192928E-05
  2.52164108E-05  5.06752951E-05  5.87438425E-05  7.19417850E-06 -2.68575049E-05
  3.41875476E-06 -5.42914972E-05 -1.54213272E-05 -1.13760028E-05 -1.14712612E-04
  2.05991080E-04 -7.51660952E-04  8.76622469E-03  7.24953445E-05  5.92976367E-04
 -1.38879657E-04  2.82133311E-04  1.31114071E-03 -2.50132710E-04 -6.76151925E-04
 -1.83738602E-03  5.20663026E-05  2.29530222E-03 -1.72911186E-03  1.66700622E-03
  1.49806252E-03 -1.14986898E-03  8.35342038E-03  1.50307804E-03 -1.79176599E-03
  6.58103955E-04 -2.66980682E-03  6.21385330E-04 -6.62492483E-03 -2.44980494E-03
 -1.38030618E-03  4.83963498E-04  5.61769328E-01  4.92386133E-01  3.06892372E-03
 -1.19581294E-02  5.41264139E-03 -6.47320562E-02  4.72599265E-03 -1.45081405E-02
  5.93487201E-03 -6.31335807E-02  7.15757244E-03 -1.35776218E-02  7.73451819E-03
 -8.26074798E-04 -8.76634017E-04 -4.81158676E-04  2.31702942E-04 -6.26497395E-04
  8.34977273E-03 -3.43354711E-03 -3.85291431E-03 -1.67275055E-03  2.20406264E-05
 -3.56397993E-05  3.24426903E-05 -3.16971684E-04 -1.23199811E-04  5.16647925E-04
  5.21076059E-05 -5.87562195E-04 -1.10100587E-04 -2.51363876E-03  1.36365669E-03
 -2.01451858E-03 -8.68366061E-04 -5.33234827E-05  6.06689856E-05 -9.59132863E-06
  4.37899523E-06  7.00588251E-06 -1.40586626E-04 -3.78023597E-06 -2.12450509E-04
 -8.77960855E-04 -1.19351619E-04 -3.12211981E-04 -4.35488980E-04  3.56693729E-04
 -2.86439497E-04  1.38264196E-03 -6.54078110E-04  4.82550758E-04 -3.21878317E-04
 -7.29423253E-04 -2.07352121E-03  6.93321974E-04  4.06456362E-04 -1.43143379E-05
  2.33614033E-05  7.94843789E-05 -2.29240586E-05 -3.30401696E-05 -8.63729000E-03
 -2.32747432E-03 -3.22874220E-04  2.00131634E-03 -1.08200542E-04 -1.70257046E-04
  3.22082906E-04  4.13434308E-04  4.71993831E-04  5.63647644E-04  4.40678010E-04
  6.11321667E-04  5.72006051E-04 -2.63746614E-04  2.43232986E-04  8.83053751E-04
  6.37645511E-04  2.19489404E-05 -1.15102395E-05  5.93942896E-06 -4.64378869E-05
  3.44752328E-05  5.55926046E-03  2.15548367E-04 -2.15978207E-04  7.61180781E-05
 -5.12016655E-03 -2.79826571E-03  3.07366575E-03  1.36276829E-03 -1.37555606E-03
  1.59754522E-03  8.81399493E-04  1.05427617E-04 -6.46301560E-04 -8.67295998E-05
 -6.18251726E-06 -1.95913114E-05 -1.01860894E-04  1.34932194E-03 -1.52090835E-05
 -1.07816319E-05 -1.15962101E-04  2.03720893E-04 -7.47452422E-04  8.76878003E-03
  7.02093746E-05 -5.92440557E-04  1.39088152E-04  2.77351970E-04 -1.31028944E-03
  2.50969235E-04 -6.70404630E-04  1.83618631E-03 -5.39817585E-05  2.30757217E-03
  1.72212629E-03 -1.65977995E-03  1.52800899E-03  1.14549327E-03 -8.35032344E-03
  1.51371178E-03  1.77763233E-03 -6.56695662E-04 -2.67140955E-03  6.28307858E-04
 -6.62721417E-03 -2.44546823E-03  1.38643767E-03 -4.92573473E-04  2.21475924E-05
 -3.54716437E-05  3.25247018E-05  3.16931230E-04  1.23464133E-04  5.16162746E-04
  5.28144628E-05  5.87820393E-04  1.10521192E-04 -2.51596388E-03  1.36556731E-03
  2.01215940E-03  8.73526809E-04 -5.36590670E-05 -6.05216995E-05  9.32240435E-06
  4.50653996E-06  6.78340850E-06 -1.37167269E-04 -5.81844079E-06  2.11858930E-04
  8.79657942E-04  5.61771843E-01  4.92393140E-01  3.11708280E-03  1.19566241E-02
 -5.40445045E-03 -6.47610926E-02  4.78267668E-03  1.45058827E-02 -5.92137745E-03
 -6.31603677E-02  7.21924875E-03  1.35683547E-02 -7.71377224E-03 -8.25299795E-04
  8.82519738E-04  4.75837686E-04  2.28381506E-04 -6.24855393E-04  8.34914046E-03
 -3.43159492E-03  3.86287946E-03  1.66218685E-03 -1.08174263E-04 -1.70215135E-04
  3.23004348E-04 -4.14841306E-04 -4.70864189E-04  5.63503065E-04  4.41742631E-04
 -6.13439013E-04 -5.70468243E-04 -2.63396956E-04  2.43723953E-04 -8.84634767E-04
 -6.37048554E-04  2.20984782E-05  1.11620397E-05 -5.98660176E-06 -4.64947094E-05
  3.46591389E-05  5.55989416E-03  2.15124529E-04  2.16085454E-04 -7.48492502E-05
 -1.19283831E-04 -3.12114477E-04 -4.36856764E-04 -3.55990121E-04  2.85013145E-04
  1.38243363E-03 -6.55557694E-04 -4.81536554E-04  3.19751828E-04 -7.29320560E-04
 -2.07357610E-03 -6.89257801E-04 -4.12977532E-04 -1.39017526E-05 -2.33042851E-05
 -7.96607908E-05 -2.26216087E-05 -3.30256527E-05 -8.63819212E-03 -2.32129636E-03
  3.27939347E-04 -2.00871892E-03  1.05302283E-04 -6.47062610E-04 -8.86668537E-05
 -6.37219180E-06  1.96298807E-05  1.01967469E-04  1.34976011E-03 -5.12213043E-03
 -2.79561568E-03  3.07629853E-03  1.37101089E-03  1.37360564E-03 -1.59333053E-03
  8.81553457E-04 -1.89133109E-05  4.72405391E-05 -2.70280053E-04  1.30653308E-04
 -1.29210643E-03  1.82243832E-02 -6.67950047E-04  6.77355676E-05 -8.88737663E-04
 -1.46521821E-03  1.41426933E-04 -2.03007980E-03  2.38301239E-03 -2.14418548E-04
  3.58874647E-03  3.67058360E-04 -3.49047710E-04 -1.96034710E-03  2.47623391E-03
  3.62191730E-04  1.63045990E-03  3.96220715E-04  1.23475463E-04 -3.91721643E-03
  2.73867849E-03  3.15222500E-04 -1.46212427E-03  1.08679019E-03  6.18739654E-04
  2.12023060E-03 -5.79918624E-05 -1.80882217E-04 -1.29771878E-04  6.78591062E-05
 -3.41490085E-04  9.99878054E-04 -1.56778094E-04  8.56769601E-05 -4.67865674E-04
 -2.03069978E-03  4.24058252E-04  1.43283652E-03 -6.66999749E-04  2.34207670E-05
  3.29174796E-05 -2.05682873E-05  3.18950914E-05  8.11853448E-05 -2.04281802E-03
  2.15671439E-03  1.10811802E-03  1.23505713E-03 -4.39845211E-05 -1.84704558E-04
 -1.35714609E-04  4.54755949E-05 -2.24185723E-04  9.86543453E-04 -2.02976046E-04
  9.54441230E-05 -3.02583690E-04 -1.21924443E-03  8.97751476E-04 -1.33169402E-03
 -3.87303858E-04  2.50951029E-05 -4.08327733E-05  1.04604208E-06  5.89003910E-06
 -6.35425853E-05 -7.16547446E-03 -4.40214308E-04 -2.17841591E-03  1.72888723E-03
 -5.78747385E-05 -1.89328119E-04 -5.45040589E-04  9.27633449E-05 -5.51500230E-04
  9.04420120E-04 -7.94091658E-04  1.32080594E-04 -8.24173635E-04 -7.77597990E-04
 -1.26359038E-03  1.65574040E-04  5.13751615E-04 -4.77682438E-05  4.52607246E-06
 -1.30836725E-05 -2.28821763E-05 -8.42758264E-06 -5.74011135E-03 -1.81491797E-03
 -1.43426999E-04  1.88166057E-03  5.63603844E-01  4.97114915E-01  6.36062117E-03
 -6.19984671E-04  8.48578630E-03 -8.31289789E-02  6.83276919E-03 -8.89180860E-04
  8.04667021E-03 -8.32460444E-02  5.34601923E-03 -6.86536430E-04  6.09748281E-03
  1.89523340E-04 -9.30394366E-06 -2.91203588E-04  3.79719837E-04 -2.65231232E-05
  9.72916246E-03  2.38615089E-03 -4.09056034E-04  3.85244720E-03  2.61950726E-06
  5.53919799E-04 -1.86168084E-03  2.62810439E-05  5.40722060E-05 -6.96332548E-05
 -6.32029524E-04  1.69838157E-04 -4.67497372E-05  3.38803681E-03  2.57871818E-05
  6.50564928E-05  4.16907767E-05  4.41402607E-04 -2.90722562E-03 -9.13594145E-03
  2.05062944E-02  3.17860398E-02 -5.39657905E-02 -1.44918726E-01  1.02697274E-03
  3.03317011E-04  5.49192569E-03  2.69957284E-03  6.90002526E-04  9.56568085E-03
 -3.06296538E-03 -1.27903092E-03 -1.17484511E-02  9.92909201E-03 -6.39547315E-04
 -7.79581566E-02 -3.24515224E-02  6.46224661E-03 -4.00671285E-02  5.10355255E-03
 -6.97556187E-04 -2.79036115E-02 -4.39176850E-03 -1.40212307E-03  3.54349672E-03
 -8.56918068E-03  3.35853957E-03  1.04353338E-02 -1.67049748E-03 -2.11451392E-03
 -1.07633864E-03 -2.10043097E-04 -3.19002171E-03  3.34088985E-03 -1.68071482E-03
 -2.41912983E-04 -4.93764641E-03  2.14542592E-02 -8.78071502E-03 -1.12856931E-02
  5.46497510E-04 -1.81264745E-04 -4.97809468E-04  5.30238166E-04 -2.14974968E-05
  1.08979204E-03  4.59187071E-02  3.64523062E-04 -1.55681173E-02  1.24505844E-02
 -7.40088012E-04 -7.00502528E-04 -1.94181298E-03  5.25044224E-03 -6.88398293E-03
 -1.25774041E-03 -3.54368992E-03  8.21565386E-03 -1.08175898E-02  2.14317022E-02
 -8.00257799E-03  1.84715026E-02 -6.83836391E-03 -4.79863017E-04  2.06399019E-04
  3.43584098E-04  9.19381652E-05 -1.52612695E-03  3.09602043E-02 -1.10582805E-02
  1.17865550E-02  9.20017411E-03 -3.58741799E-02 -1.26699075E-01 -8.08243329E-02
 -4.97362012E-03  5.44234800E-02  5.65703741E-01 -1.19945018E-01 -7.43661503E-03
  7.33831155E-02  5.54793547E-01 -9.06608377E-02 -5.42908654E-03  3.14057970E-02
 -3.80114152E-03 -1.61704653E-04  4.36527567E-03 -5.36330670E-04  2.69212390E-04
 -8.51278017E-03 -6.21846862E-03 -2.91438258E-03  1.91114239E-02 -1.23368616E-03
 -2.17873155E-03  1.81767095E-02  2.42630342E-03 -1.29741990E-02  6.04133238E-03
  2.91808936E-02  3.72089194E-03 -1.91867846E-02  4.44939010E-03  2.48280034E-02
  4.10802257E-03 -1.72330059E-02  2.26181456E-03  5.46278233E-05  1.45166414E-03
  8.67692720E-04  2.56513429E-04 -1.19315632E-02  6.30990810E-03 -9.75265180E-04
  3.99662989E-03 -1.29652283E-03 -3.05223901E-03 -1.45601672E-02  3.50073578E-04
  4.24702672E-04  4.66361067E-04 -2.15552057E-03  4.40963002E-04 -3.76957878E-03
  3.51095672E-03 -1.01860942E-03  1.06641842E-03 -6.30369945E-04  4.07578614E-03
  9.01604015E-02  2.78842282E-01 -5.41699025E-01 -6.02850059E-01  1.36531650E-02
  4.44417887E-02 -5.46938678E-02  9.70088240E-05 -7.49138016E-05 -1.04828499E-01
  1.84982791E-04 -1.43723385E-04 -8.96971292E-03  1.64442499E-05 -1.27989370E-05
  1.27752367E-04  1.00407839E-06 -1.07708855E-06 -2.41695900E-03  3.74700989E-06
 -3.64308477E-06  5.79033624E-04 -1.49970992E-06 -5.52533513E-07 -1.52577033E-03
  1.44716073E-04  1.63635189E-02  3.68769323E-03 -4.34621788E-06  6.12155083E-06
 -1.17004238E-03 -2.34996645E-03 -2.00973974E-03 -3.78764207E-03  2.02390156E-04
  6.98339048E-03 -3.87414087E-03 -7.09389735E-03  4.83197135E-04  6.85268474E-03
 -1.60022995E-03 -5.09456189E-03  9.20340565E-04 -2.07518817E-05  1.03195741E-03
  6.15386281E-05  7.84301445E-04 -1.46129433E-04 -1.00528536E-02  1.13348231E-03
  2.35183589E-03 -6.76392382E-04 -1.16899274E-03 -2.34789744E-03 -1.99840705E-03
  3.78874403E-03 -2.09225670E-04  6.97671042E-03 -3.85255968E-03  7.09642363E-03
 -4.96326974E-04  6.84947611E-03 -1.58453245E-03  5.09512073E-03 -9.25822227E-04
 -2.44507297E-05 -1.02896658E-03 -5.94897262E-05  7.86302990E-04 -1.49357791E-04
 -1.00467890E-02  1.12503874E-03 -2.35289141E-03  6.80054137E-04 -2.10201525E-03
 -4.15547934E-03  1.62517963E-03  2.84514086E-04 -5.43808697E-03  1.32018674E-02
  3.21588272E-03  5.11205282E-04 -9.86370773E-03  7.72111688E-03  6.96797061E-04
  2.41187726E-04 -4.91209405E-03 -3.51029605E-04  3.61465816E-05 -1.02276009E-03
 -1.06658377E-03 -6.75400729E-05 -1.23338647E-02 -2.29412774E-03  2.26005051E-04
  3.20396699E-03 -2.10185819E-03 -4.15522631E-03  1.60815439E-03 -2.86881609E-04
  5.44288743E-03  1.32010956E-02  3.18494867E-03 -5.16154000E-04  9.87342880E-03
  7.72057184E-03  6.81987489E-04 -2.41377572E-04  4.91393313E-03 -3.56623080E-04
 -3.66988109E-05  1.01747656E-03 -1.06973892E-03 -6.94278142E-05 -1.23333225E-02
 -2.28465985E-03 -2.21576305E-04 -3.21114557E-03  1.93970353E-04 -1.73647500E-03
  3.11169618E-03  1.70712447E-04 -1.02017482E-04  1.56120838E-04 -2.83321599E-03
  1.94701599E-04 -1.73592560E-03  3.11161701E-03  1.71434204E-04  1.01515316E-04
 -1.55533783E-04 -2.83276639E-03  2.80517653E-05  3.70362439E-05  3.13868630E-05
  3.44103994E-05  7.00076885E-08 -6.69911257E-07  4.87578306E-04  3.77395990E-01
  1.66291827E-02  9.27293465E-04  7.17847012E-01  3.16022937E-02  5.12667204E-05
  4.04884657E-02  1.62159385E-03 -1.58500794E-05 -1.25365584E-02 -9.56817137E-04
  8.62634645E-06  5.65291886E-03 -2.34736921E-04 -3.03127784E-06 -1.60295497E-03
 -1.31703836E-04  1.15435142E-06 -2.76477600E-06 -1.53928661E-06 -2.96550007E-07
 -6.01802401E-04 -5.76142396E-04  7.96579169E-04  1.39127505E-03  2.16805441E-03
  2.18512573E-03 -1.81573223E-04 -3.88518827E-03  3.59716462E-03  3.72068948E-03
 -3.29855783E-04 -3.61991461E-03  1.85975644E-03  3.02475698E-03 -7.52615860E-04
  5.28797081E-05 -3.75938385E-04  3.75929985E-05 -2.78791146E-04  8.23483172E-05
  6.57215323E-04  1.40206922E-03 -6.97816252E-04  9.48346532E-04 -7.95576687E-04
 -1.38943540E-03 -2.16086655E-03  2.18816721E-03 -1.88647361E-04  3.87976132E-03
 -3.58467954E-03  3.72531329E-03 -3.41570032E-04  3.61588925E-03 -1.84894278E-03
  3.02711572E-03 -7.58640751E-04 -5.45942095E-05 -3.74337590E-04  3.79922251E-05
  2.79191029E-04 -8.36248864E-05 -6.56629220E-04 -1.40709185E-03 -6.94346841E-04
  9.43593503E-04  1.37523635E-05  3.45848840E-05 -3.29360499E-05 -1.08894309E-03
 -5.56467750E-06 -1.47406500E-04 -5.52665458E-05 -1.72491697E-03 -9.55953996E-06
  2.32385562E-04  6.62690838E-05 -8.14982777E-04 -1.01799658E-04 -3.67675379E-06
 -4.79836951E-05  2.82629727E-06 -2.74602733E-06  3.34505878E-05 -2.40215237E-04
 -2.19800565E-04 -1.28491114E-03  2.51227783E-04 -1.40006529E-05 -3.50201884E-05
  3.12718263E-05 -1.08873719E-03 -4.28070185E-06  1.48687738E-04  5.26287886E-05
 -1.72461292E-03 -7.54064450E-06 -2.32576812E-04 -6.68195294E-05 -8.14514714E-04
 -1.01316518E-04  3.51524990E-06 -4.78671094E-05  2.88481382E-06  2.77435406E-06
 -3.35871018E-05  2.42020804E-04  2.15770294E-04 -1.28529191E-03  2.52679268E-04
  4.65982081E-04  1.71561603E-03 -2.07098292E-03 -3.56099075E-05  1.38234926E-04
 -2.37315510E-04  6.45429359E-04 -4.65590707E-04 -1.71473826E-03  2.07090206E-03
  3.65730475E-05  1.38112262E-04 -2.37134803E-04 -6.44686602E-04 -9.29288032E-03
 -8.67398816E-04 -5.68664486E-02 -6.18695502E-02  4.20548468E-03  3.25311601E-03
  2.63705503E-01 -1.21013780E-02  2.68231435E-01  5.01203203E-01 -2.30057618E-02
  5.09331361E-01  2.70526870E-02 -1.16918746E-03  2.62311708E-02 -1.01691237E-02
  5.68432160E-04 -1.16774853E-02  3.10774052E-03 -5.65512036E-04  6.15212421E-03
  3.06230463E-05  3.54541867E-05  3.01236011E-03 -1.93574261E-03 -1.40620245E-04
  4.23863947E-04 -3.95068437E-04 -1.68259129E-04 -2.56586706E-04  3.32941731E-04
  5.73919469E-04  5.09520062E-04  1.06090310E-03  2.55214048E-04 -1.73878547E-03
  7.98073920E-04  1.70137925E-03  3.41168881E-04 -6.08608806E-04  6.84452674E-04
  8.81226142E-04  9.95225146E-04  4.86753933E-05 -3.32605348E-05  5.40334918E-05
 -1.06438939E-04 -1.76765836E-05 -1.37155825E-03 -6.12196538E-04  5.21586895E-04
 -1.24941352E-03  3.17312900E-04  5.50946780E-04  4.72515455E-04 -1.47604577E-03
 -1.98575685E-04 -1.60078702E-03  7.78844319E-04 -2.35696366E-03 -3.33497821E-04
 -9.05865257E-04  2.30599533E-04 -1.52758803E-03  5.13332235E-04  4.49891622E-05
  4.95470842E-05 -3.32423780E-06 -1.03477406E-04  5.71341855E-05 -9.93218755E-04
  2.04084895E-04 -6.35818069E-04 -1.09775483E-03  1.60384508E-04  2.58834362E-04
 -7.51416937E-04 -1.26122193E-04  3.02453583E-04 -8.06693515E-04 -1.10303838E-03
 -1.79076421E-04  1.87980660E-04  6.68017424E-04  1.95344457E-04 -2.34616237E-04