30
Properties=species:S:1:pos:R:3:Z:I:1 energy=-173.31666377937822 field_type=dipole dipole="0.000000 0.000000 0.000000" charge=0
C	-1.300289	-0.239857	0.420012	6
N	0.161661	-0.232907	0.416952	7
C	0.673681	-0.956407	-0.745708	6
C	0.666212	1.139203	0.427842	6
H	-1.685889	0.265693	1.312772	1
H	-1.680459	-1.267307	0.453232	1
H	-1.719949	0.254393	-0.464148	1
H	0.330842	-1.997367	-0.733098	1
H	1.769141	-0.987287	-0.728378	1
H	0.356761	-0.500697	-1.691238	1
H	0.315932	1.671343	1.319712	1
H	0.350892	1.704843	-0.456908	1
H	1.761461	1.146353	0.468952	1
Es	0.673629	-0.956350	-0.745605	99
Es	-1.300155	-0.239831	0.420000	99
Es	0.666184	1.139093	0.427841	99
Es	0.418908	1.500146	1.034109	99
Es	0.276083	-0.395011	0.708632	99
Es	0.161557	-0.232760	0.416677	99
Es	-1.585868	0.103774	-0.194608	99
Es	0.371138	-0.527162	-0.116482	99
Es	-0.482300	-0.218352	0.386963	99
Es	1.412953	1.139246	0.448535	99
Es	-1.558415	0.112084	1.026804	99
Es	0.431661	-1.664072	-0.735938	99
Es	0.445024	1.526589	-0.187283	99
Es	0.366629	0.375812	0.388745	99
Es	1.419891	-0.968532	-0.733255	99
Es	-1.554698	-0.942518	0.435376	99
Es	0.451160	-0.635867	-1.398513	99
