32
Properties=species:S:1:pos:R:3:Z:I:1 energy=-247.0565291690113 field_type=dipole dipole="0.000000 0.000000 0.000000" charge=0
C	-1.361708	0.132376	-0.149840	6
N	0.069102	0.130326	0.076370	7
C	0.761962	-1.142754	0.028090	6
C	0.780572	1.307386	0.180420	6
O	1.996812	1.406946	0.277380	8
H	-1.774838	1.139816	-0.051480	1
H	-1.838948	-0.524974	0.582540	1
H	-1.559188	-0.237394	-1.159790	1
H	0.293602	-1.829194	0.738590	1
H	1.820102	-1.034034	0.282230	1
H	0.678842	-1.548654	-0.983560	1
H	0.133692	2.200156	0.179050	1
Es	1.996878	1.406952	0.277382	99
Es	0.323612	1.910876	0.176812	99
Es	0.435359	-1.607968	0.509565	99
Es	1.583092	1.377685	0.020910	99
Es	1.456973	-1.067005	0.197864	99
Es	0.362031	0.594966	-0.052092	99
Es	2.141409	1.131145	0.256961	99
Es	0.364075	-0.400834	0.018768	99
Es	-1.685407	-0.316277	0.346761	99
Es	0.069151	0.130369	0.076348	99
Es	-1.629491	0.817264	-0.082153	99
Es	0.780475	1.307341	0.180395	99
Es	-1.361668	0.132365	-0.149840	99
Es	1.597706	1.350267	0.490062	99
Es	0.762025	-1.142719	0.028085	99
Es	0.700296	-1.421286	-0.661006	99
Es	0.141399	0.289024	0.358601	99
Es	-1.497641	-0.120901	-0.836316	99
Es	2.070604	1.712861	0.296422	99
Es	-0.535252	0.140589	-0.051900	99
