29
Properties=species:S:1:pos:R:3:Z:I:1 energy=-192.793634819035 field_type=dipole dipole="0.000000 0.000000 0.000000" charge=0
C	-1.861959	-0.535585	0.005443	6
C	-0.369839	-0.500255	0.015153	6
C	0.333931	0.640924	-0.008037	6
C	1.739931	0.640924	-0.008037	6
C	2.930091	0.640924	-0.008037	6
H	-2.209119	-1.571025	-0.064937	1
H	-2.262309	0.008395	-0.856757	1
H	-2.267409	-0.106835	0.925713	1
H	0.146071	-1.457355	0.038663	1
H	-0.174489	1.600594	-0.031167	1
H	3.995100	0.639295	-0.007997	1
Es	2.333204	0.444126	0.265648	99
Es	2.341624	0.994407	0.035741	99
Es	0.028889	0.107804	0.312775	99
Es	3.627287	0.640487	-0.008218	99
Es	2.930316	0.640918	-0.008037	99
Es	0.029179	0.092072	-0.305317	99
Es	1.739585	0.640910	-0.008037	99
Es	1.058954	0.643735	-0.010270	99
Es	-2.094489	-1.238498	-0.041835	99
Es	-0.023190	-1.148669	0.031221	99
Es	-0.369933	-0.500201	0.015146	99
Es	2.332058	0.475385	-0.322907	99
Es	-2.121856	-0.240976	0.622829	99
Es	0.001853	1.288723	-0.024237	99
Es	-1.861835	-0.535573	0.005444	99
Es	-1.116440	-0.514840	0.010298	99
Es	0.333900	0.640850	-0.008037	99
Es	-2.119523	-0.163423	-0.571980	99
