31
Properties=species:S:1:pos:R:3:Z:I:1 energy=-209.9778141490942 field_type=dipole dipole="0.000000 0.000000 0.000000" charge=0
C	-1.240317	-0.378650	0.280690	6
C	0.287323	-0.337640	0.293990	6
N	0.819473	-1.042090	-0.869200	7
C	0.769343	1.023530	0.293990	6
C	1.166623	2.145430	0.293990	6
H	-1.649787	0.133270	1.158130	1
H	-1.605257	-1.410810	0.296980	1
H	-1.651547	0.112560	-0.608350	1
H	0.641373	-0.852160	1.194330	1
H	0.512653	-0.563360	-1.714680	1
H	0.419363	-1.976700	-0.910780	1
H	1.530753	3.146620	0.290910	1
Es	0.769184	1.023136	0.293965	99
Es	0.610752	-0.751690	-1.369664	99
Es	0.564135	-0.727447	-0.369536	99
Es	0.287225	-0.337644	0.293894	99
Es	1.403107	2.801318	0.291564	99
Es	-1.240103	-0.378610	0.280661	99
Es	0.527109	-0.672748	0.901455	99
Es	-0.479273	-0.339172	0.286190	99
Es	0.631931	1.717267	0.288983	99
Es	1.166690	2.145605	0.293979	99
Es	0.819259	-1.041955	-0.869097	99
Es	-1.477235	-1.087703	0.288627	99
Es	-1.509168	-0.046322	-0.326590	99
Es	0.554217	-1.599344	-0.886001	99
Es	1.120281	1.539029	0.593706	99
Es	1.148684	1.523107	0.000694	99
Es	-1.513360	-0.032193	0.879724	99
Es	1.178745	-1.059400	-0.857454	99
Es	0.535419	0.372129	0.288469	99
