29
Properties=species:S:1:pos:R:3:Z:I:1 energy=-192.7936348173464 field_type=dipole dipole="0.000000 0.000000 0.000000" charge=0
C	-1.861959	-0.535585	0.005443	6
C	-0.369839	-0.500255	0.015153	6
C	0.333931	0.640924	-0.008037	6
C	1.739931	0.640924	-0.008037	6
C	2.930091	0.640924	-0.008037	6
H	-2.209119	-1.571025	-0.064937	1
H	-2.262309	0.008395	-0.856757	1
H	-2.267409	-0.106835	0.925713	1
H	0.146071	-1.457355	0.038663	1
H	-0.174489	1.600594	-0.031167	1
H	3.995100	0.639295	-0.007997	1
Es	-2.095268	-1.237931	-0.041652	99
Es	-2.122541	-0.242594	0.622671	99
Es	2.334451	0.414038	0.268212	99
Es	-0.369921	-0.500323	0.015156	99
Es	0.003849	1.287657	-0.023797	99
Es	-1.861905	-0.535587	0.005443	99
Es	1.057826	0.647873	-0.007176	99
Es	-2.120888	-0.163960	-0.572111	99
Es	2.342551	0.995781	0.043255	99
Es	0.031551	0.093407	-0.316487	99
Es	2.331649	0.502455	-0.335554	99
Es	1.739686	0.640931	-0.008041	99
Es	-1.113940	-0.516365	0.010375	99
Es	3.626143	0.639794	-0.008025	99
Es	2.930338	0.640918	-0.008039	99
Es	0.334068	0.640996	-0.008041	99
Es	-0.026723	-1.148314	0.031627	99
Es	0.028654	0.108462	0.322411	99
29
Properties=species:S:1:pos:R:3:Z:I:1 energy=-192.7936348173464 field_type=dipole dipole="0.000000 0.000000 0.000000" charge=0
C	-1.861959	-0.535585	0.005443	6
C	-0.369839	-0.500255	0.015153	6
C	0.333931	0.640924	-0.008037	6
C	1.739931	0.640924	-0.008037	6
C	2.930091	0.640924	-0.008037	6
H	-2.209119	-1.571025	-0.064937	1
H	-2.262309	0.008395	-0.856757	1
H	-2.267409	-0.106835	0.925713	1
H	0.146071	-1.457355	0.038663	1
H	-0.174489	1.600594	-0.031167	1
H	3.995100	0.639295	-0.007997	1
Es	-2.095224	-1.237779	-0.041591	99
Es	2.930299	0.640921	-0.008037	99
Es	-2.120820	-0.163973	-0.572315	99
Es	1.057658	0.647918	-0.007100	99
Es	-2.122597	-0.242534	0.622723	99
Es	2.342521	0.994737	0.048481	99
Es	-1.113847	-0.516663	0.010431	99
Es	0.031535	0.093270	-0.317320	99
Es	1.739718	0.640932	-0.008038	99
Es	2.334573	0.410109	0.265783	99
Es	0.334050	0.640972	-0.008037	99
Es	3.625978	0.639800	-0.008061	99
Es	2.331551	0.507389	-0.338354	99
Es	0.028688	0.108513	0.323262	99
Es	-0.369902	-0.500296	0.015154	99
Es	0.004259	1.287685	-0.023844	99
Es	-0.026943	-1.148173	0.031642	99
Es	-1.861916	-0.535588	0.005448	99
29
Properties=species:S:1:pos:R:3:Z:I:1 energy=-192.7936348173464 field_type=dipole dipole="0.000000 0.000000 0.000000" charge=0
C	-1.861959	-0.535585	0.005443	6
C	-0.369839	-0.500255	0.015153	6
C	0.333931	0.640924	-0.008037	6
C	1.739931	0.640924	-0.008037	6
C	2.930091	0.640924	-0.008037	6
H	-2.209119	-1.571025	-0.064937	1
H	-2.262309	0.008395	-0.856757	1
H	-2.267409	-0.106835	0.925713	1
H	0.146071	-1.457355	0.038663	1
H	-0.174489	1.600594	-0.031167	1
H	3.995100	0.639295	-0.007997	1
Es	2.332759	0.452009	-0.311994	99
Es	0.004683	1.287537	-0.024108	99
Es	0.031511	0.093131	-0.318210	99
Es	-2.095125	-1.237778	-0.041782	99
Es	-2.122556	-0.242578	0.622923	99
Es	0.333993	0.640912	-0.008036	99
Es	0.028830	0.108607	0.324662	99
Es	-0.027303	-1.147995	0.031542	99
Es	2.342860	0.999153	-0.013491	99
Es	2.333039	0.461108	0.301504	99
Es	1.057430	0.648100	-0.007304	99
Es	-1.113721	-0.516787	0.010220	99
Es	-0.369867	-0.500278	0.015154	99
Es	-2.120814	-0.163903	-0.572174	99
Es	3.625734	0.639745	-0.008048	99
Es	-1.861942	-0.535598	0.005445	99
Es	2.930270	0.640918	-0.008040	99
Es	1.739798	0.640935	-0.008037	99
29
Properties=species:S:1:pos:R:3:Z:I:1 energy=-192.7936348173464 field_type=dipole dipole="0.000000 0.000000 0.000000" charge=0
C	-1.861959	-0.535585	0.005443	6
C	-0.369839	-0.500255	0.015153	6
C	0.333931	0.640924	-0.008037	6
C	1.739931	0.640924	-0.008037	6
C	2.930091	0.640924	-0.008037	6
H	-2.209119	-1.571025	-0.064937	1
H	-2.262309	0.008395	-0.856757	1
H	-2.267409	-0.106835	0.925713	1
H	0.146071	-1.457355	0.038663	1
H	-0.174489	1.600594	-0.031167	1
H	3.995100	0.639295	-0.007997	1
Es	-1.861991	-0.535577	0.005473	99
Es	2.331570	0.461752	-0.317450	99
Es	2.333193	0.451255	0.296097	99
Es	0.030130	0.110567	0.324382	99
Es	0.332604	0.638324	-0.007664	99
Es	-2.095037	-1.237746	-0.041742	99
Es	-0.027551	-1.147787	0.031594	99
Es	-1.113602	-0.516938	0.010329	99
Es	0.031686	0.093554	-0.318445	99
Es	1.057315	0.648227	-0.007258	99
Es	-0.369870	-0.500246	0.015121	99
Es	2.342909	0.999337	-0.002296	99
Es	0.005013	1.287527	-0.023997	99
Es	-2.122487	-0.242605	0.622911	99
Es	2.930089	0.640878	-0.008195	99
Es	-2.120821	-0.163874	-0.572242	99
Es	1.740963	0.640819	-0.008382	99
Es	3.625466	0.639769	-0.008009	99
29
Properties=species:S:1:pos:R:3:Z:I:1 energy=-192.7936348173464 field_type=dipole dipole="0.000000 0.000000 0.000000" charge=0
C	-1.861959	-0.535585	0.005443	6
C	-0.369839	-0.500255	0.015153	6
C	0.333931	0.640924	-0.008037	6
C	1.739931	0.640924	-0.008037	6
C	2.930091	0.640924	-0.008037	6
H	-2.209119	-1.571025	-0.064937	1
H	-2.262309	0.008395	-0.856757	1
H	-2.267409	-0.106835	0.925713	1
H	0.146071	-1.457355	0.038663	1
H	-0.174489	1.600594	-0.031167	1
H	3.995100	0.639295	-0.007997	1
Es	2.327756	0.457170	0.290628	99
Es	-2.122380	-0.242635	0.622926	99
Es	2.342750	1.001312	-0.010355	99
Es	-2.120875	-0.163911	-0.572299	99
Es	-0.369711	-0.500131	0.015016	99
Es	1.756063	0.640448	-0.006583	99
Es	-2.094876	-1.237611	-0.041643	99
Es	3.625590	0.639595	-0.007457	99
Es	0.005161	1.287648	-0.024245	99
Es	-0.027613	-1.147693	0.031604	99
Es	2.336376	0.454760	-0.304379	99
Es	0.325195	0.623744	-0.007013	99
Es	-1.862075	-0.535674	0.005464	99
Es	1.057107	0.647965	-0.008162	99
Es	2.915543	0.640519	-0.009428	99
Es	0.034812	0.119122	0.319780	99
Es	0.034391	0.099589	-0.313949	99
Es	-1.113634	-0.516980	0.010321	99
29
Properties=species:S:1:pos:R:3:Z:I:1 energy=-192.7936348173464 field_type=dipole dipole="0.000000 0.000000 0.000000" charge=0
C	-1.861959	-0.535585	0.005443	6
C	-0.369839	-0.500255	0.015153	6
C	0.333931	0.640924	-0.008037	6
C	1.739931	0.640924	-0.008037	6
C	2.930091	0.640924	-0.008037	6
H	-2.209119	-1.571025	-0.064937	1
H	-2.262309	0.008395	-0.856757	1
H	-2.267409	-0.106835	0.925713	1
H	0.146071	-1.457355	0.038663	1
H	-0.174489	1.600594	-0.031167	1
H	3.995100	0.639295	-0.007997	1
Es	2.351353	0.447346	0.273297	99
Es	-1.113728	-0.517058	0.010527	99
Es	0.034281	0.101340	-0.307327	99
Es	-0.365078	-0.493418	0.013976	99
Es	2.312248	0.466888	-0.301275	99
Es	-1.862258	-0.535559	0.005249	99
Es	2.896730	0.639156	-0.005216	99
Es	0.005128	1.287769	-0.024358	99
Es	3.625746	0.639462	-0.008868	99
Es	-0.027545	-1.147716	0.031831	99
Es	1.056946	0.647816	-0.006934	99
Es	0.317037	0.607847	-0.005533	99
Es	0.038621	0.126665	0.312519	99
Es	-2.122418	-0.242661	0.622943	99
Es	2.343125	1.001787	0.004499	99
Es	1.774842	0.639153	-0.011292	99
Es	-2.120572	-0.164047	-0.572059	99
Es	-2.094875	-1.237534	-0.041751	99
29
Properties=species:S:1:pos:R:3:Z:I:1 energy=-192.7936348173464 field_type=dipole dipole="0.000000 0.000000 0.000000" charge=0
C	-1.861959	-0.535585	0.005443	6
C	-0.369839	-0.500255	0.015153	6
C	0.333931	0.640924	-0.008037	6
C	1.739931	0.640924	-0.008037	6
C	2.930091	0.640924	-0.008037	6
H	-2.209119	-1.571025	-0.064937	1
H	-2.262309	0.008395	-0.856757	1
H	-2.267409	-0.106835	0.925713	1
H	0.146071	-1.457355	0.038663	1
H	-0.174489	1.600594	-0.031167	1
H	3.995100	0.639295	-0.007997	1
Es	0.005022	1.287906	-0.023471	99
Es	-0.027438	-1.147755	0.031214	99
Es	-2.120624	-0.164067	-0.572167	99
Es	0.044066	0.118139	-0.299913	99
Es	2.292220	0.487331	-0.307852	99
Es	2.383146	0.977445	0.011798	99
Es	2.325737	0.443988	0.277412	99
Es	-0.359174	-0.484892	0.016691	99
Es	0.030831	0.116506	0.306096	99
Es	-2.121978	-0.243040	0.622360	99
Es	0.309334	0.592562	-0.009780	99
Es	-1.113891	-0.517103	0.009921	99
Es	-1.862563	-0.535094	0.006024	99
Es	2.878466	0.646994	-0.008663	99
Es	1.798489	0.638818	-0.013004	99
Es	3.625970	0.638646	-0.008477	99
Es	-2.094848	-1.237632	-0.041760	99
Es	1.056815	0.648485	-0.006203	99
29
Properties=species:S:1:pos:R:3:Z:I:1 energy=-192.7936348173464 field_type=dipole dipole="0.000000 0.000000 0.000000" charge=0
C	-1.861959	-0.535585	0.005443	6
C	-0.369839	-0.500255	0.015153	6
C	0.333931	0.640924	-0.008037	6
C	1.739931	0.640924	-0.008037	6
C	2.930091	0.640924	-0.008037	6
H	-2.209119	-1.571025	-0.064937	1
H	-2.262309	0.008395	-0.856757	1
H	-2.267409	-0.106835	0.925713	1
H	0.146071	-1.457355	0.038663	1
H	-0.174489	1.600594	-0.031167	1
H	3.995100	0.639295	-0.007997	1
Es	0.004981	1.288079	-0.023532	99
Es	-0.353592	-0.477014	0.013126	99
Es	3.626038	0.639938	-0.008380	99
Es	0.041476	0.115862	-0.292827	99
Es	-2.094911	-1.237691	-0.041670	99
Es	0.034735	0.123585	0.299955	99
Es	2.353309	0.717489	0.296837	99
Es	2.299854	0.895920	-0.228577	99
Es	-2.122454	-0.242665	0.622132	99
Es	1.808900	0.640085	-0.009179	99
Es	-2.117939	-0.167410	-0.565850	99
Es	2.858920	0.642630	-0.003816	99
Es	-0.027391	-1.147721	0.031927	99
Es	2.356758	0.297677	-0.095061	99
Es	1.056781	0.648005	-0.006998	99
Es	-1.864713	-0.532103	-0.000146	99
Es	-1.113876	-0.517013	0.010541	99
Es	0.302703	0.579585	-0.008258	99
29
Properties=species:S:1:pos:R:3:Z:I:1 energy=-192.7936348173464 field_type=dipole dipole="0.000000 0.000000 0.000000" charge=0
C	-1.861959	-0.535585	0.005443	6
C	-0.369839	-0.500255	0.015153	6
C	0.333931	0.640924	-0.008037	6
C	1.739931	0.640924	-0.008037	6
C	2.930091	0.640924	-0.008037	6
H	-2.209119	-1.571025	-0.064937	1
H	-2.262309	0.008395	-0.856757	1
H	-2.267409	-0.106835	0.925713	1
H	0.146071	-1.457355	0.038663	1
H	-0.174489	1.600594	-0.031167	1
H	3.995100	0.639295	-0.007997	1
Es	-0.347727	-0.468464	0.016205	99
Es	0.296375	0.567879	-0.004644	99
Es	3.626283	0.639658	-0.009137	99
Es	-2.115666	-0.249768	0.606680	99
Es	0.004954	1.288192	-0.024289	99
Es	2.268137	0.520041	-0.299629	99
Es	-0.027295	-1.147762	0.031064	99
Es	0.039793	0.132367	0.291739	99
Es	-2.095167	-1.238021	-0.041353	99
Es	1.056552	0.646461	-0.007614	99
Es	-1.868130	-0.528430	0.019201	99
Es	2.334448	0.986596	0.055856	99
Es	2.835593	0.629458	0.002050	99
Es	2.405727	0.425120	0.220581	99
Es	-2.120991	-0.163798	-0.570474	99
Es	-1.113880	-0.516840	0.010256	99
Es	0.036681	0.110514	-0.288357	99
Es	1.833892	0.634037	-0.017910	99
29
Properties=species:S:1:pos:R:3:Z:I:1 energy=-192.7936348173464 field_type=dipole dipole="0.000000 0.000000 0.000000" charge=0
C	-1.861959	-0.535585	0.005443	6
C	-0.369839	-0.500255	0.015153	6
C	0.333931	0.640924	-0.008037	6
C	1.739931	0.640924	-0.008037	6
C	2.930091	0.640924	-0.008037	6
H	-2.209119	-1.571025	-0.064937	1
H	-2.262309	0.008395	-0.856757	1
H	-2.267409	-0.106835	0.925713	1
H	0.146071	-1.457355	0.038663	1
H	-0.174489	1.600594	-0.031167	1
H	3.995100	0.639295	-0.007997	1
Es	-2.110808	-0.177630	-0.548771	99
Es	-1.113948	-0.516634	0.008949	99
Es	2.345431	0.985060	-0.096681	99
Es	0.290772	0.557185	-0.003432	99
Es	-1.871315	-0.522133	-0.013008	99
Es	-2.095322	-1.238059	-0.042450	99
Es	1.865661	0.628700	0.019956	99
Es	0.040639	0.134938	0.285578	99
Es	2.816835	0.622179	-0.021129	99
Es	-0.027208	-1.147815	0.030989	99
Es	0.004878	1.288303	-0.024270	99
Es	1.056375	0.646590	-0.008630	99
Es	2.426378	0.412975	-0.211980	99
Es	3.626505	0.639212	-0.006245	99
Es	-0.342111	-0.460409	0.015962	99
Es	2.223436	0.546651	0.269123	99
Es	-2.122445	-0.242365	0.619393	99
Es	0.035827	0.110490	-0.283128	99
29
Properties=species:S:1:pos:R:3:Z:I:1 energy=-192.7936348173464 field_type=dipole dipole="0.000000 0.000000 0.000000" charge=0
C	-1.861959	-0.535585	0.005443	6
C	-0.369839	-0.500255	0.015153	6
C	0.333931	0.640924	-0.008037	6
C	1.739931	0.640924	-0.008037	6
C	2.930091	0.640924	-0.008037	6
H	-2.209119	-1.571025	-0.064937	1
H	-2.262309	0.008395	-0.856757	1
H	-2.267409	-0.106835	0.925713	1
H	0.146071	-1.457355	0.038663	1
H	-0.174489	1.600594	-0.031167	1
H	3.995100	0.639295	-0.007997	1
Es	3.626707	0.639685	-0.005992	99
Es	0.286406	0.548388	-0.009377	99
Es	2.205455	0.639027	0.274437	99
Es	0.004828	1.288438	-0.023667	99
Es	2.333963	0.337202	-0.198553	99
Es	-2.106835	-0.259802	0.585309	99
Es	1.056212	0.648804	-0.007851	99
Es	-1.875699	-0.519728	0.036709	99
Es	-1.114265	-0.516393	0.012320	99
Es	-0.336042	-0.451863	0.012837	99
Es	0.031936	0.122603	0.283624	99
Es	-2.121440	-0.163107	-0.568954	99
Es	1.883354	0.642233	0.030147	99
Es	-2.095655	-1.237723	-0.040062	99
Es	2.464674	0.899050	-0.125982	99
Es	0.043036	0.122640	-0.275490	99
Es	2.790102	0.675570	-0.021390	99
Es	-0.027156	-1.147787	0.032161	99
29
Properties=species:S:1:pos:R:3:Z:I:1 energy=-192.7936348173464 field_type=dipole dipole="0.000000 0.000000 0.000000" charge=0
C	-1.861959	-0.535585	0.005443	6
C	-0.369839	-0.500255	0.015153	6
C	0.333931	0.640924	-0.008037	6
C	1.739931	0.640924	-0.008037	6
C	2.930091	0.640924	-0.008037	6
H	-2.209119	-1.571025	-0.064937	1
H	-2.262309	0.008395	-0.856757	1
H	-2.267409	-0.106835	0.925713	1
H	0.146071	-1.457355	0.038663	1
H	-0.174489	1.600594	-0.031167	1
H	3.995100	0.639295	-0.007997	1
Es	-0.026844	-1.148051	0.031594	99
Es	2.767420	0.687836	-0.027915	99
Es	1.056195	0.648788	-0.008108	99
Es	-2.101854	-0.265519	0.573441	99
Es	2.490124	0.881861	-0.124153	99
Es	-2.095902	-1.237462	-0.039304	99
Es	-2.121851	-0.162617	-0.568527	99
Es	-1.114567	-0.516089	0.012441	99
Es	0.013554	0.077142	-0.274792	99
Es	0.004568	1.288590	-0.023805	99
Es	2.334934	0.328289	-0.192383	99
Es	0.061458	0.170051	0.268725	99
Es	3.626876	0.639957	-0.005704	99
Es	-0.328134	-0.440492	0.003666	99
Es	0.278544	0.535258	0.015180	99
Es	1.905078	0.644471	0.044326	99
Es	2.179974	0.650191	0.258566	99
Es	-1.879991	-0.514966	0.046978	99
29
Properties=species:S:1:pos:R:3:Z:I:1 energy=-192.7936348173464 field_type=dipole dipole="0.000000 0.000000 0.000000" charge=0
C	-1.861959	-0.535585	0.005443	6
C	-0.369839	-0.500255	0.015153	6
C	0.333931	0.640924	-0.008037	6
C	1.739931	0.640924	-0.008037	6
C	2.930091	0.640924	-0.008037	6
H	-2.209119	-1.571025	-0.064937	1
H	-2.262309	0.008395	-0.856757	1
H	-2.267409	-0.106835	0.925713	1
H	0.146071	-1.457355	0.038663	1
H	-0.174489	1.600594	-0.031167	1
H	3.995100	0.639295	-0.007997	1
Es	1.056125	0.648940	-0.006533	99
Es	-2.123735	-0.240515	0.618339	99
Es	2.741987	0.704384	0.017884	99
Es	3.627027	0.640079	-0.010614	99
Es	-0.322005	-0.430861	0.027534	99
Es	2.519804	0.866900	0.092762	99
Es	-0.026708	-1.148106	0.031727	99
Es	0.070637	0.169927	-0.257818	99
Es	1.923818	0.644374	-0.074108	99
Es	0.004424	1.288705	-0.024221	99
Es	-2.095791	-0.199238	-0.515446	99
Es	-1.114718	-0.515571	0.007817	99
Es	0.003823	0.079285	0.278170	99
Es	2.334383	0.329539	0.186514	99
Es	2.157513	0.647078	-0.261441	99
Es	-1.883960	-0.503832	-0.041859	99
Es	0.272999	0.523589	-0.033998	99
Es	-2.096039	-1.237440	-0.044482	99
29
Properties=species:S:1:pos:R:3:Z:I:1 energy=-192.7936348173464 field_type=dipole dipole="0.000000 0.000000 0.000000" charge=0
C	-1.861959	-0.535585	0.005443	6
C	-0.369839	-0.500255	0.015153	6
C	0.333931	0.640924	-0.008037	6
C	1.739931	0.640924	-0.008037	6
C	2.930091	0.640924	-0.008037	6
H	-2.209119	-1.571025	-0.064937	1
H	-2.262309	0.008395	-0.856757	1
H	-2.267409	-0.106835	0.925713	1
H	0.146071	-1.457355	0.038663	1
H	-0.174489	1.600594	-0.031167	1
H	3.995100	0.639295	-0.007997	1
Es	0.263688	0.507000	-0.047638	99
Es	2.727805	0.573572	-0.052235	99
Es	1.951707	0.613479	0.075481	99
Es	-1.889171	-0.496327	-0.054015	99
Es	3.627126	0.638525	-0.005406	99
Es	-2.124340	-0.239747	0.618366	99
Es	-2.089606	-0.208043	-0.502058	99
Es	-0.007958	0.061070	0.274906	99
Es	2.341450	0.989457	-0.130528	99
Es	-0.026424	-1.148142	0.031967	99
Es	-2.096353	-1.237240	-0.045229	99
Es	1.056095	0.644614	-0.009058	99
Es	0.004098	1.288861	-0.024674	99
Es	-0.315500	-0.421062	0.033548	99
Es	-1.114926	-0.515057	0.007462	99
Es	0.085162	0.195054	-0.246708	99
Es	2.125364	0.577465	0.214292	99
Es	2.531362	0.443762	-0.148250	99
29
Properties=species:S:1:pos:R:3:Z:I:1 energy=-192.7936348173464 field_type=dipole dipole="0.000000 0.000000 0.000000" charge=0
C	-1.861959	-0.535585	0.005443	6
C	-0.369839	-0.500255	0.015153	6
C	0.333931	0.640924	-0.008037	6
C	1.739931	0.640924	-0.008037	6
C	2.930091	0.640924	-0.008037	6
H	-2.209119	-1.571025	-0.064937	1
H	-2.262309	0.008395	-0.856757	1
H	-2.267409	-0.106835	0.925713	1
H	0.146071	-1.457355	0.038663	1
H	-0.174489	1.600594	-0.031167	1
H	3.995100	0.639295	-0.007997	1
Es	0.004669	1.288877	-0.024358	99
Es	2.573359	0.829993	-0.098595	99
Es	0.012585	0.094183	0.271424	99
Es	1.055695	0.649253	-0.008446	99
Es	-1.896429	-0.496294	0.087067	99
Es	-0.315861	-0.422515	0.020450	99
Es	-1.114378	-0.515067	0.015268	99
Es	0.269374	0.516531	-0.026779	99
Es	2.334721	0.316132	-0.194129	99
Es	2.109072	0.659421	0.212312	99
Es	-2.123379	-0.160584	-0.567803	99
Es	2.695260	0.735845	-0.052150	99
Es	-0.026825	-1.147810	0.032576	99
Es	1.964974	0.650402	0.090507	99
Es	0.059140	0.152926	-0.253451	99
Es	-2.082699	-0.286912	0.528585	99
Es	-2.096976	-1.237571	-0.037153	99
Es	3.627278	0.640431	-0.005097	99
29
Properties=species:S:1:pos:R:3:Z:I:1 energy=-192.7936348173464 field_type=dipole dipole="0.000000 0.000000 0.000000" charge=0
C	-1.861959	-0.535585	0.005443	6
C	-0.369839	-0.500255	0.015153	6
C	0.333931	0.640924	-0.008037	6
C	1.739931	0.640924	-0.008037	6
C	2.930091	0.640924	-0.008037	6
H	-2.209119	-1.571025	-0.064937	1
H	-2.262309	0.008395	-0.856757	1
H	-2.267409	-0.106835	0.925713	1
H	0.146071	-1.457355	0.038663	1
H	-0.174489	1.600594	-0.031167	1
H	3.995100	0.639295	-0.007997	1
Es	2.087300	0.581677	0.188368	99
Es	0.254890	0.494225	0.044022	99
Es	0.004148	1.289092	-0.022849	99
Es	-1.902090	-0.477535	-0.084084	99
Es	-2.097152	-1.237443	-0.046672	99
Es	1.984994	0.605945	0.101871	99
Es	-0.309905	-0.414336	-0.005572	99
Es	2.340475	0.993619	-0.133941	99
Es	2.576536	0.468766	-0.127589	99
Es	1.055812	0.644301	-0.008027	99
Es	0.086490	0.213598	0.238227	99
Es	-2.074776	-0.229036	-0.469692	99
Es	-2.125484	-0.238071	0.618896	99
Es	2.688333	0.548279	-0.070175	99
Es	-1.114312	-0.513985	0.004309	99
Es	-0.006585	0.047447	-0.261575	99
Es	3.627289	0.638354	-0.005165	99
Es	-0.026383	-1.147659	0.029872	99
29
Properties=species:S:1:pos:R:3:Z:I:1 energy=-192.7936348173464 field_type=dipole dipole="0.000000 0.000000 0.000000" charge=0
C	-1.861959	-0.535585	0.005443	6
C	-0.369839	-0.500255	0.015153	6
C	0.333931	0.640924	-0.008037	6
C	1.739931	0.640924	-0.008037	6
C	2.930091	0.640924	-0.008037	6
H	-2.209119	-1.571025	-0.064937	1
H	-2.262309	0.008395	-0.856757	1
H	-2.267409	-0.106835	0.925713	1
H	0.146071	-1.457355	0.038663	1
H	-0.174489	1.600594	-0.031167	1
H	3.995100	0.639295	-0.007997	1
Es	2.598349	0.811660	-0.093420	99
Es	1.056758	0.648180	-0.007466	99
Es	-1.116913	-0.513803	0.014474	99
Es	2.335725	0.309186	-0.187453	99
Es	-0.291824	-0.387538	-0.029833	99
Es	0.002809	1.289511	-0.022508	99
Es	3.627339	0.640571	-0.004922	99
Es	-2.096567	-1.234228	-0.034884	99
Es	-2.083248	-0.288032	0.525578	99
Es	2.079066	0.664487	0.189516	99
Es	0.227971	0.449591	0.086648	99
Es	2.672325	0.750966	-0.062699	99
Es	-0.042072	-0.007497	-0.249855	99
Es	-0.025348	-1.148336	0.030118	99
Es	0.131087	0.286730	0.205970	99
Es	1.992174	0.655234	0.111846	99
Es	-1.895672	-0.497628	0.079842	99
Es	-2.122378	-0.161817	-0.560726	99
29
Properties=species:S:1:pos:R:3:Z:I:1 energy=-192.7936348173464 field_type=dipole dipole="0.000000 0.000000 0.000000" charge=0
C	-1.861959	-0.535585	0.005443	6
C	-0.369839	-0.500255	0.015153	6
C	0.333931	0.640924	-0.008037	6
C	1.739931	0.640924	-0.008037	6
C	2.930091	0.640924	-0.008037	6
H	-2.209119	-1.571025	-0.064937	1
H	-2.262309	0.008395	-0.856757	1
H	-2.267409	-0.106835	0.925713	1
H	0.146071	-1.457355	0.038663	1
H	-0.174489	1.600594	-0.031167	1
H	3.995100	0.639295	-0.007997	1
Es	2.666676	0.538180	0.069529	99
Es	1.056841	0.643279	-0.006235	99
Es	0.219983	0.429986	-0.105997	99
Es	2.069046	0.574530	-0.188204	99
Es	-0.284164	-0.373203	0.062576	99
Es	-2.125411	-0.157931	-0.568309	99
Es	-1.114555	-0.513092	0.017496	99
Es	2.340213	1.001107	0.100687	99
Es	-2.056890	-0.315541	0.468697	99
Es	2.001763	0.595593	-0.128913	99
Es	-2.098451	-1.238767	-0.035126	99
Es	0.002573	1.289656	-0.025419	99
Es	0.143500	0.295536	-0.198050	99
Es	3.627322	0.638178	-0.010918	99
Es	-1.919742	-0.469890	0.143656	99
Es	-0.025038	-1.148335	0.033055	99
Es	2.600129	0.489018	0.107918	99
Es	-0.054214	-0.011064	0.253782	99
29
Properties=species:S:1:pos:R:3:Z:I:1 energy=-192.7936348173464 field_type=dipole dipole="0.000000 0.000000 0.000000" charge=0
C	-1.861959	-0.535585	0.005443	6
C	-0.369839	-0.500255	0.015153	6
C	0.333931	0.640924	-0.008037	6
C	1.739931	0.640924	-0.008037	6
C	2.930091	0.640924	-0.008037	6
H	-2.209119	-1.571025	-0.064937	1
H	-2.262309	0.008395	-0.856757	1
H	-2.267409	-0.106835	0.925713	1
H	0.146071	-1.457355	0.038663	1
H	-0.174489	1.600594	-0.031167	1
H	3.995100	0.639295	-0.007997	1
Es	2.661940	0.532000	-0.083324	99
Es	-0.276578	-0.361279	0.069671	99
Es	-0.063227	-0.024382	0.248486	99
Es	-2.090303	-1.239868	-0.041984	99
Es	3.627308	0.638308	-0.005109	99
Es	-1.732598	-0.531339	0.006525	99
Es	-2.116330	-0.242226	0.625235	99
Es	0.150453	0.308057	-0.192032	99
Es	2.605126	0.487293	-0.115067	99
Es	-1.259889	-0.518541	0.010332	99
Es	-2.114771	-0.163282	-0.574385	99
Es	-0.025690	-1.149374	0.033327	99
Es	2.064495	0.582773	0.170965	99
Es	0.002485	1.289761	-0.025468	99
Es	0.213990	0.419970	-0.113519	99
Es	1.056951	0.643026	-0.009531	99
Es	2.340020	0.996627	-0.131660	99
Es	2.006198	0.599715	0.117765	99
29
Properties=species:S:1:pos:R:3:Z:I:1 energy=-192.7936348173464 field_type=dipole dipole="0.000000 0.000000 0.000000" charge=0
C	-1.861959	-0.535585	0.005443	6
C	-0.369839	-0.500255	0.015153	6
C	0.333931	0.640924	-0.008037	6
C	1.739931	0.640924	-0.008037	6
C	2.930091	0.640924	-0.008037	6
H	-2.209119	-1.571025	-0.064937	1
H	-2.262309	0.008395	-0.856757	1
H	-2.267409	-0.106835	0.925713	1
H	0.146071	-1.457355	0.038663	1
H	-0.174489	1.600594	-0.031167	1
H	3.995100	0.639295	-0.007997	1
Es	0.002117	1.290088	-0.022534	99
Es	2.608636	0.493891	0.102987	99
Es	-1.114269	-0.511871	0.014430	99
Es	-2.037041	-0.337382	0.423028	99
Es	0.156246	0.328534	0.183984	99
Es	-0.248735	-0.322801	-0.074970	99
Es	3.627288	0.638229	-0.010952	99
Es	2.340139	1.001414	0.101352	99
Es	0.207926	0.416318	0.114485	99
Es	2.060584	0.576158	-0.181662	99
Es	1.057184	0.642974	-0.004986	99
Es	-2.099341	-1.239880	-0.033982	99
Es	-0.090819	-0.081611	-0.206565	99
Es	2.009733	0.593690	-0.134657	99
Es	2.658738	0.533294	0.072958	99
Es	-2.126800	-0.156159	-0.568809	99
Es	-0.023815	-1.148506	0.028204	99
Es	-1.938191	-0.449141	0.187915	99
29
Properties=species:S:1:pos:R:3:Z:I:1 energy=-192.7936348173464 field_type=dipole dipole="0.000000 0.000000 0.000000" charge=0
C	-1.861959	-0.535585	0.005443	6
C	-0.369839	-0.500255	0.015153	6
C	0.333931	0.640924	-0.008037	6
C	1.739931	0.640924	-0.008037	6
C	2.930091	0.640924	-0.008037	6
H	-2.209119	-1.571025	-0.064937	1
H	-2.262309	0.008395	-0.856757	1
H	-2.267409	-0.106835	0.925713	1
H	0.146071	-1.457355	0.038663	1
H	-0.174489	1.600594	-0.031167	1
H	3.995100	0.639295	-0.007997	1
Es	2.340150	1.002693	0.097645	99
Es	0.002193	1.290057	-0.025391	99
Es	-2.088314	-1.238105	-0.041898	99
Es	3.627269	0.638211	-0.010999	99
Es	2.012111	0.591280	-0.135851	99
Es	-0.025086	-1.149262	0.033757	99
Es	-0.259718	-0.334996	0.084292	99
Es	2.058235	0.574380	-0.179100	99
Es	2.612275	0.497814	0.102415	99
Es	0.206500	0.406742	-0.123618	99
Es	1.057095	0.642920	-0.005869	99
Es	-1.759102	-0.529217	0.007490	99
Es	-0.081851	-0.053809	0.235150	99
Es	-2.110663	-0.165713	-0.570959	99
Es	-2.111143	-0.244796	0.620198	99
Es	2.655076	0.532270	0.075818	99
Es	-1.245298	-0.517230	0.011361	99
Es	0.159851	0.324001	-0.184216	99
29
Properties=species:S:1:pos:R:3:Z:I:1 energy=-192.7936348173464 field_type=dipole dipole="0.000000 0.000000 0.000000" charge=0
C	-1.861959	-0.535585	0.005443	6
C	-0.369839	-0.500255	0.015153	6
C	0.333931	0.640924	-0.008037	6
C	1.739931	0.640924	-0.008037	6
C	2.930091	0.640924	-0.008037	6
H	-2.209119	-1.571025	-0.064937	1
H	-2.262309	0.008395	-0.856757	1
H	-2.267409	-0.106835	0.925713	1
H	0.146071	-1.457355	0.038663	1
H	-0.174489	1.600594	-0.031167	1
H	3.995100	0.639295	-0.007997	1
Es	-1.663254	-0.529749	0.006397	99
Es	-1.332805	-0.520628	0.007654	99
Es	-0.088729	-0.077812	-0.216180	99
Es	2.617647	0.796970	-0.085994	99
Es	2.335942	0.307121	-0.185895	99
Es	-2.113822	-0.162027	-0.576291	99
Es	2.056730	0.666201	0.171512	99
Es	0.161039	0.337253	0.179066	99
Es	-0.025217	-1.150038	0.029276	99
Es	1.057236	0.647446	-0.007996	99
Es	2.654064	0.762446	-0.069462	99
Es	0.002112	1.290208	-0.022623	99
Es	0.203317	0.409167	0.120420	99
Es	3.627269	0.640493	-0.004829	99
Es	2.013250	0.659091	0.127786	99
Es	-2.088817	-1.241263	-0.042085	99
Es	-2.115290	-0.241175	0.627500	99
Es	-0.251092	-0.326465	-0.068027	99
29
Properties=species:S:1:pos:R:3:Z:I:1 energy=-192.7936348173464 field_type=dipole dipole="0.000000 0.000000 0.000000" charge=0
C	-1.861959	-0.535585	0.005443	6
C	-0.369839	-0.500255	0.015153	6
C	0.333931	0.640924	-0.008037	6
C	1.739931	0.640924	-0.008037	6
C	2.930091	0.640924	-0.008037	6
H	-2.209119	-1.571025	-0.064937	1
H	-2.262309	0.008395	-0.856757	1
H	-2.267409	-0.106835	0.925713	1
H	0.146071	-1.457355	0.038663	1
H	-0.174489	1.600594	-0.031167	1
H	3.995100	0.639295	-0.007997	1
Es	3.627247	0.640484	-0.004829	99
Es	2.619194	0.794884	-0.086723	99
Es	1.057275	0.647370	-0.008199	99
Es	2.336007	0.305352	-0.182605	99
Es	0.001874	1.290395	-0.022698	99
Es	-0.023959	-1.148825	0.029264	99
Es	2.015012	0.660757	0.128818	99
Es	-0.099087	-0.094703	-0.206959	99
Es	-2.015054	-0.313659	-0.339393	99
Es	2.652493	0.762852	-0.071077	99
Es	-0.241248	-0.312245	-0.076460	99
Es	-1.957655	-0.397672	-0.209544	99
Es	-2.129494	-0.232965	0.621085	99
Es	2.054941	0.668045	0.169606	99
Es	0.163799	0.341240	0.177034	99
Es	-1.113772	-0.510718	0.000654	99
Es	0.201799	0.406207	0.123001	99
Es	-2.099794	-1.239560	-0.050750	99
29
Properties=species:S:1:pos:R:3:Z:I:1 energy=-192.7936348173464 field_type=dipole dipole="0.000000 0.000000 0.000000" charge=0
C	-1.861959	-0.535585	0.005443	6
C	-0.369839	-0.500255	0.015153	6
C	0.333931	0.640924	-0.008037	6
C	1.739931	0.640924	-0.008037	6
C	2.930091	0.640924	-0.008037	6
H	-2.209119	-1.571025	-0.064937	1
H	-2.262309	0.008395	-0.856757	1
H	-2.267409	-0.106835	0.925713	1
H	0.146071	-1.457355	0.038663	1
H	-0.174489	1.600594	-0.031167	1
H	3.995100	0.639295	-0.007997	1
Es	2.015791	0.662107	0.128992	99
Es	2.054176	0.669578	0.168756	99
Es	-2.009479	-0.367937	0.358705	99
Es	2.650842	0.763253	-0.072417	99
Es	0.166573	0.335000	-0.179925	99
Es	2.620765	0.792898	-0.086856	99
Es	-0.234067	-0.295641	0.106124	99
Es	3.627224	0.640493	-0.004864	99
Es	-0.023802	-1.148788	0.034014	99
Es	0.202207	0.398753	-0.130779	99
Es	-2.128065	-0.154242	-0.569146	99
Es	0.001861	1.290427	-0.025396	99
Es	2.336085	0.304152	-0.180373	99
Es	-2.100448	-1.240950	-0.032531	99
Es	-1.113670	-0.511237	0.020752	99
Es	-0.109454	-0.097909	0.214505	99
Es	-1.964270	-0.419946	0.249533	99
Es	1.057313	0.647227	-0.008866	99
29
Properties=species:S:1:pos:R:3:Z:I:1 energy=-192.7936348173464 field_type=dipole dipole="0.000000 0.000000 0.000000" charge=0
C	-1.861959	-0.535585	0.005443	6
C	-0.369839	-0.500255	0.015153	6
C	0.333931	0.640924	-0.008037	6
C	1.739931	0.640924	-0.008037	6
C	2.930091	0.640924	-0.008037	6
H	-2.209119	-1.571025	-0.064937	1
H	-2.262309	0.008395	-0.856757	1
H	-2.267409	-0.106835	0.925713	1
H	0.146071	-1.457355	0.038663	1
H	-0.174489	1.600594	-0.031167	1
H	3.995100	0.639295	-0.007997	1
Es	2.621358	0.793860	0.067994	99
Es	-0.116594	-0.109000	0.209345	99
Es	0.201356	0.397105	-0.132142	99
Es	1.057310	0.647240	-0.006015	99
Es	2.650259	0.764686	0.054499	99
Es	-1.113851	-0.510331	0.004477	99
Es	-2.100070	-1.239735	-0.051358	99
Es	3.627198	0.640422	-0.011292	99
Es	2.017673	0.660010	-0.146939	99
Es	-1.965911	-0.385909	-0.227972	99
Es	-0.023713	-1.148835	0.034437	99
Es	-2.130121	-0.232252	0.621029	99
Es	2.336291	0.306812	0.169633	99
Es	-0.227484	-0.285095	0.112179	99
Es	2.052043	0.666615	-0.183448	99
Es	0.001828	1.290539	-0.025265	99
Es	0.168112	0.337351	-0.178885	99
Es	-2.006104	-0.326244	-0.320052	99
29
Properties=species:S:1:pos:R:3:Z:I:1 energy=-192.7936348173464 field_type=dipole dipole="0.000000 0.000000 0.000000" charge=0
C	-1.861959	-0.535585	0.005443	6
C	-0.369839	-0.500255	0.015153	6
C	0.333931	0.640924	-0.008037	6
C	1.739931	0.640924	-0.008037	6
C	2.930091	0.640924	-0.008037	6
H	-2.209119	-1.571025	-0.064937	1
H	-2.262309	0.008395	-0.856757	1
H	-2.267409	-0.106835	0.925713	1
H	0.146071	-1.457355	0.038663	1
H	-0.174489	1.600594	-0.031167	1
H	3.995100	0.639295	-0.007997	1
Es	2.050993	0.583412	0.159275	99
Es	3.627151	0.638507	-0.004986	99
Es	-0.023566	-1.148910	0.034164	99
Es	0.169174	0.339416	-0.178520	99
Es	-1.113793	-0.510916	0.021314	99
Es	0.001764	1.290613	-0.025281	99
Es	-0.221065	-0.275370	0.117326	99
Es	-2.128427	-0.153706	-0.568996	99
Es	2.648877	0.524879	-0.088739	99
Es	2.618840	0.496988	-0.107371	99
Es	2.019163	0.595544	0.126246	99
Es	1.057232	0.642596	-0.009214	99
Es	-2.100686	-1.241111	-0.032047	99
Es	-0.123356	-0.119910	0.203954	99
Es	0.200612	0.396056	-0.133547	99
Es	-2.003558	-0.374479	0.344913	99
Es	-1.969659	-0.413887	0.262309	99
Es	2.339884	0.997515	-0.130573	99
29
Properties=species:S:1:pos:R:3:Z:I:1 energy=-192.7936348173464 field_type=dipole dipole="0.000000 0.000000 0.000000" charge=0
C	-1.861959	-0.535585	0.005443	6
C	-0.369839	-0.500255	0.015153	6
C	0.333931	0.640924	-0.008037	6
C	1.739931	0.640924	-0.008037	6
C	2.930091	0.640924	-0.008037	6
H	-2.209119	-1.571025	-0.064937	1
H	-2.262309	0.008395	-0.856757	1
H	-2.267409	-0.106835	0.925713	1
H	0.146071	-1.457355	0.038663	1
H	-0.174489	1.600594	-0.031167	1
H	3.995100	0.639295	-0.007997	1
Es	0.168690	0.349398	0.173928	99
Es	2.049898	0.576128	-0.171909	99
Es	-2.126456	-0.171383	-0.580506	99
Es	-1.114248	-0.523341	0.007284	99
Es	-0.023248	-1.148776	0.028820	99
Es	-1.957739	-0.825276	-0.014143	99
Es	-1.989257	-0.923787	-0.020688	99
Es	0.198712	0.401185	0.128492	99
Es	0.001715	1.290771	-0.022652	99
Es	2.647993	0.528129	0.078059	99
Es	-0.215839	-0.273406	-0.100221	99
Es	2.020025	0.589267	-0.140909	99
Es	-2.128516	-0.251533	0.630471	99
Es	3.627125	0.638398	-0.011062	99
Es	-0.126314	-0.136050	-0.185163	99
Es	2.619823	0.502265	0.096794	99
Es	1.057214	0.642688	-0.005044	99
Es	2.340005	1.002560	0.098673	99
29