29
Properties=species:S:1:pos:R:3:Z:I:1 energy=-192.7936348173464 field_type=dipole dipole="0.000000 0.000000 0.000000" charge=0
C	-1.861959	-0.535585	0.005443	6
C	-0.369839	-0.500255	0.015153	6
C	0.333931	0.640924	-0.008037	6
C	1.739931	0.640924	-0.008037	6
C	2.930091	0.640924	-0.008037	6
H	-2.209119	-1.571025	-0.064937	1
H	-2.262309	0.008395	-0.856757	1
H	-2.267409	-0.106835	0.925713	1
H	0.146071	-1.457355	0.038663	1
H	-0.174489	1.600594	-0.031167	1
H	3.995100	0.639295	-0.007997	1
Es	0.949006	0.175563	0.125221	99
Es	-0.233859	0.118206	0.160578	99
Es	0.447617	0.017863	-0.066331	99
Es	0.267521	0.027846	-0.040274	99
Es	0.326532	0.473718	0.045842	99
Es	-0.030285	0.088013	-0.072085	99
Es	1.246320	0.549971	0.033108	99
Es	-0.183042	-0.315861	0.003764	99
Es	1.021009	0.387403	-0.085067	99
Es	0.080149	-0.341812	0.038155	99
Es	0.485271	0.410822	0.058969	99
Es	1.381362	0.423334	-0.074539	99
Es	0.518415	0.290636	-0.083917	99
Es	0.077577	0.195418	-0.079674	99
Es	-0.763360	-0.005139	-0.037377	99
Es	0.863165	-0.020871	-0.083472	99
Es	-0.316896	-0.426251	0.110817	99
Es	0.913078	0.218379	0.036510	99
