29
Properties=species:S:1:pos:R:3:Z:I:1 energy=-192.7936348173464 field_type=dipole dipole="0.000000 0.000000 0.000000" charge=0
C	-1.861959	-0.535585	0.005443	6
C	-0.369839	-0.500255	0.015153	6
C	0.333931	0.640924	-0.008037	6
C	1.739931	0.640924	-0.008037	6
C	2.930091	0.640924	-0.008037	6
H	-2.209119	-1.571025	-0.064937	1
H	-2.262309	0.008395	-0.856757	1
H	-2.267409	-0.106835	0.925713	1
H	0.146071	-1.457355	0.038663	1
H	-0.174489	1.600594	-0.031167	1
H	3.995100	0.639295	-0.007997	1
Es	0.292961	0.154993	-0.021517	99
Es	-0.041723	-0.079690	0.213659	99
Es	-0.192379	-0.152825	-0.001487	99
Es	1.091496	0.384422	0.092052	99
Es	0.117202	0.300393	0.090991	99
Es	0.536106	0.230063	-0.039565	99
Es	0.419212	0.022647	-0.126792	99
Es	0.425164	0.376729	-0.107539	99
Es	0.010196	0.259719	0.158699	99
Es	0.567560	0.189393	-0.074274	99
Es	-0.588184	-0.412954	-0.031478	99
Es	0.165234	-0.026027	0.032873	99
Es	0.526444	-0.014614	-0.012908	99
Es	0.750213	0.344902	-0.092780	99
Es	0.299581	0.125057	-0.055769	99
Es	0.756844	0.130331	0.007800	99
Es	1.729063	0.367206	-0.012632	99
Es	0.184592	0.067493	-0.029106	99
