27
Properties=species:S:1:pos:R:3:Z:I:1 energy=-172.15869190080335 field_type=dipole dipole="0.000000 0.000000 0.000000" charge=0
N	-1.425706	-0.857731	-0.424904	7
C	-0.012166	-0.746121	-0.104294	6
C	0.410474	0.685479	-0.157484	6
C	0.949874	1.355269	0.871456	6
H	-1.704706	-1.834271	-0.356194	1
H	-1.572816	-0.590591	-1.395864	1
H	0.576464	-1.327031	-0.823254	1
H	0.166064	-1.174331	0.888126	1
H	0.273704	1.205949	-1.101704	1
H	1.104254	0.886159	1.837656	1
H	1.234555	2.397219	0.766456	1
Es	-1.426192	-0.857328	-0.424489	99
Es	-0.012334	-0.745436	-0.104429	99
Es	0.410462	0.685511	-0.157588	99
Es	0.949836	1.355317	0.871128	99
Es	-0.831184	-0.836335	-0.329000	99
Es	0.702356	1.029194	0.392244	99
Es	0.213948	-0.013858	-0.108117	99
Es	0.308706	1.023246	-0.813588	99
Es	-1.543057	-1.438576	-0.420454	99
Es	0.393032	-1.137559	-0.592815	99
Es	-1.472559	-0.734500	-1.001081	99
Es	1.056036	1.026358	1.523491	99
Es	1.129994	2.051253	0.776644	99
Es	0.103670	-1.034249	0.549390	99
Es	-1.638802	-0.631277	-0.178788	99
Es	0.691244	1.030838	0.369742	99
