26
Properties=species:S:1:pos:R:3:Z:I:1 energy=-191.97913078045264 field_type=dipole dipole="0.000000 0.000000 0.000000" charge=0
C	-1.161662	0.280251	0.325012	6
C	0.314898	0.142251	0.430662	6
C	1.117378	-0.486139	-0.675728	6
O	1.057118	0.938381	-0.498488	8
H	-1.516362	1.066781	0.998552	1
H	-1.648122	-0.657769	0.610312	1
H	-1.480122	0.534441	-0.691608	1
H	0.673058	0.069631	1.447752	1
H	0.597768	-0.907769	-1.526658	1
H	2.046048	-0.980059	-0.419808	1
Es	1.057073	0.937881	-0.498402	99
Es	0.315277	0.142589	0.430072	99
Es	1.117152	-0.485279	-0.675399	99
Es	-1.161127	0.280195	0.325029	99
Es	1.052622	0.359053	-0.533352	99
Es	0.563995	0.105000	1.121976	99
Es	1.750811	-0.811733	-0.498804	99
Es	0.860256	0.758994	-0.236109	99
Es	-0.403653	0.203662	0.356578	99
Es	-1.373065	0.441486	-0.348920	99
Es	-1.480952	-0.348922	0.519200	99
Es	-1.400551	0.811291	0.784061	99
Es	0.771655	-0.756402	-1.257525	99
Es	1.117777	1.196683	-0.552717	99
Es	1.034526	0.888339	-0.486733	99
Es	0.641341	-0.395627	-0.072331	99
