29
Properties=species:S:1:pos:R:3:Z:I:1 energy=-192.8147952435218 field_type=dipole dipole="0.000000 0.000000 0.000000" charge=0
C	-1.861959	-0.535585	0.005443	6
C	-0.369839	-0.500255	0.015153	6
C	0.333931	0.640924	-0.008037	6
C	1.739931	0.640924	-0.008037	6
C	2.930091	0.640924	-0.008037	6
H	-2.209119	-1.571025	-0.064937	1
H	-2.262309	0.008395	-0.856757	1
H	-2.267409	-0.106835	0.925713	1
H	0.146071	-1.457355	0.038663	1
H	-0.174489	1.600594	-0.031167	1
H	3.995100	0.639295	-0.007997	1
Es	-0.369359	-0.501738	0.015176	99
Es	0.334611	0.640970	-0.008045	99
Es	-1.861686	-0.535580	0.005474	99
Es	1.739687	0.640918	-0.008018	99
Es	2.932093	0.640543	-0.008030	99
Es	-1.010400	-0.486706	0.010370	99
Es	3.327814	0.632783	-0.002423	99
Es	0.000960	0.038114	0.019371	99
Es	-0.071325	-1.109627	0.030477	99
Es	1.011728	0.616634	-0.009477	99
Es	2.570707	0.593040	0.000442	99
Es	0.045544	1.286473	-0.022210	99
Es	-2.118140	-0.245727	0.605779	99
Es	-2.099531	-1.235791	-0.041118	99
Es	-2.116692	-0.170136	-0.555647	99
Es	2.327410	0.635986	-0.019477	99
Es	2.335236	0.703514	-0.009414	99
Es	0.069939	0.124059	-0.013002	99
