31
Properties=species:S:1:pos:R:3:Z:I:1 energy=-209.99567799656796 field_type=dipole dipole="0.000000 0.000000 0.000000" charge=0
C	-0.781357	-1.806843	-0.507954	6
C	-0.722337	-0.753833	0.318676	6
C	0.410463	0.156018	0.464576	6
C	0.595613	1.264767	-0.538624	6
N	0.101103	1.541378	0.804196	7
H	-1.668676	-2.429913	-0.549114	1
H	0.048363	-2.061603	-1.158674	1
H	-1.588937	-0.550163	0.946626	1
H	1.292953	-0.264403	0.935996	1
H	-0.124237	1.373637	-1.340434	1
H	1.601253	1.593807	-0.766424	1
H	0.835793	1.937148	1.391156	1
Es	0.101668	1.541239	0.804132	99
Es	0.410175	0.156362	0.464464	99
Es	0.595419	1.264487	-0.537861	99
Es	-0.722339	-0.753681	0.318731	99
Es	-0.781365	-1.806417	-0.507729	99
Es	0.347069	1.508120	0.212710	99
Es	-0.724312	-1.321815	-0.117641	99
Es	0.563530	1.735902	1.118119	99
Es	1.284894	1.486824	-0.692504	99
Es	-1.296083	-0.602115	0.756238	99
Es	1.011310	-0.118626	0.777294	99
Es	-0.163402	-0.320676	0.388406	99
Es	-1.386333	-2.205829	-0.538522	99
Es	0.110712	1.341020	-1.066659	99
Es	-0.205618	-1.952118	-0.927139	99
Es	0.551793	0.555439	-0.186694	99
Es	0.223008	0.948478	0.775502	99
Es	-0.272404	1.633054	0.857444	99
Es	-0.765671	-1.284731	-0.116648	99
