31
Properties=species:S:1:pos:R:3:Z:I:1 energy=-209.99963598432316 field_type=dipole dipole="0.000000 0.000000 0.000000" charge=0
C	-1.240317	-0.378650	0.280690	6
C	0.287323	-0.337640	0.293990	6
N	0.819473	-1.042090	-0.869200	7
C	0.769343	1.023530	0.293990	6
C	1.166623	2.145430	0.293990	6
H	-1.649787	0.133270	1.158130	1
H	-1.605257	-1.410810	0.296980	1
H	-1.651547	0.112560	-0.608350	1
H	0.641373	-0.852160	1.194330	1
H	0.512653	-0.563360	-1.714680	1
H	0.419363	-1.976700	-0.910780	1
H	1.530753	3.146620	0.290910	1
Es	0.819280	-1.041980	-0.869030	99
Es	0.287621	-0.337356	0.293709	99
Es	0.768848	1.022380	0.294127	99
Es	-1.239488	-0.378564	0.280711	99
Es	1.167219	2.146704	0.293935	99
Es	0.539236	-1.555167	-0.886635	99
Es	0.544554	0.390513	0.301324	99
Es	1.206048	2.395848	0.269830	99
Es	-1.511485	-0.032539	0.872396	99
Es	0.525859	-0.665603	0.894990	99
Es	1.076083	1.981276	0.263707	99
Es	0.545285	-0.746534	-0.415750	99
Es	-0.460459	-0.336978	0.286596	99
Es	0.594810	-0.779089	-1.323564	99
Es	-1.480073	-1.090087	0.290125	99
Es	-1.506918	-0.044788	-0.323080	99
Es	1.213611	-1.047966	-0.849347	99
Es	0.968504	1.587169	0.343384	99
Es	1.027620	1.583317	0.287881	99
