37
Properties=species:S:1:pos:R:3:Z:I:1 energy=-212.39231874584624 field_type=dipole dipole="0.000000 0.000000 0.000000" charge=0
C	-1.662444	-1.162657	-0.260702	6
N	-0.215734	-1.065468	-0.110872	7
C	0.278386	0.314842	-0.217022	6
C	-0.115534	1.160443	0.995888	6
C	1.804656	0.273452	-0.340522	6
H	-1.954224	-2.217328	-0.248942	1
H	-1.999004	-0.734148	-1.209522	1
H	-2.190964	-0.676608	0.564168	1
H	0.222236	-1.634078	-0.835892	1
H	-0.116394	0.782852	-1.128352	1
H	0.219506	0.698382	1.930448	1
H	-1.198534	1.302542	1.054668	1
H	0.337546	2.155813	0.934078	1
H	2.266386	-0.187918	0.539078	1
H	2.211026	1.285293	-0.442412	1
H	2.113096	-0.295418	-1.224092	1
Es	-0.215492	-1.065338	-0.111091	99
Es	0.278541	0.314802	-0.216990	99
Es	-1.662047	-1.162625	-0.260656	99
Es	1.803885	0.273422	-0.340522	99
Es	-0.115370	1.159952	0.995190	99
Es	-0.038061	-0.491211	-0.202752	99
Es	2.064087	0.967201	-0.408804	99
Es	0.199965	1.835143	0.945739	99
Es	-2.012841	-0.821295	0.294014	99
Es	0.072842	0.730213	0.391253	99
Es	0.016276	-1.363060	-0.570610	99
Es	0.000963	0.634369	-0.844182	99
Es	-0.831808	-1.078690	-0.218444	99
Es	-1.891533	-0.856389	-0.912984	99
Es	-1.866203	-1.887106	-0.256785	99
Es	0.110825	0.846595	1.621963	99
Es	2.009050	-0.121560	-0.948663	99
Es	2.109278	-0.035088	0.259352	99
Es	-0.855587	1.256290	1.032523	99
Es	1.057560	0.291944	-0.276002	99
Es	-0.097422	-1.193660	0.245431	99
