34
Properties=species:S:1:pos:R:3:Z:I:1 energy=-211.199811010267 field_type=dipole dipole="0.000000 0.000000 0.000000" charge=0
C	-1.928887	-1.080875	0.250435	6
N	-0.485207	-0.981475	0.090395	7
C	-0.025667	0.380175	0.343155	6
C	1.463263	0.429165	0.188265	6
C	2.114373	1.219025	-0.674995	6
H	-2.246987	-2.110295	0.057075	1
H	-2.457677	-0.428305	-0.451905	1
H	-2.233007	-0.829155	1.271795	1
H	-0.237257	-1.233605	-0.866005	1
H	-0.274387	0.681575	1.367615	1
H	-0.511597	1.085285	-0.343015	1
H	2.036143	-0.226775	0.840475	1
H	1.588023	1.892675	-1.343815	1
H	3.198873	1.202585	-0.729475	1
Es	-0.484565	-0.981788	0.090578	99
Es	-0.024973	0.379897	0.343023	99
Es	-1.928458	-1.080854	0.250390	99
Es	1.463399	0.429084	0.188346	99
Es	2.114415	1.218883	-0.674630	99
Es	-1.109640	-0.984913	0.126827	99
Es	1.838356	-0.024053	0.634158	99
Es	-0.353224	0.853449	-0.117051	99
Es	-2.288935	-0.626382	-0.232189	99
Es	1.750850	1.653675	-1.096270	99
Es	-0.372865	-1.087950	-0.478991	99
Es	-2.150382	-1.785950	0.116293	99
Es	1.807385	0.894197	-0.264431	99
Es	-0.320378	-0.381393	0.153131	99
Es	0.742637	0.430312	0.250466	99
Es	-0.203473	0.576479	1.023357	99
Es	-2.128631	-0.894095	0.943136	99
Es	2.821016	1.202681	-0.696531	99
Es	-0.294737	-1.221067	0.340159	99
Es	1.798054	0.803691	-0.295699	99
