27
Properties=species:S:1:pos:R:3:Z:I:1 energy=-228.70709881124412 field_type=dipole dipole="0.000000 0.000000 0.000000" charge=0
O	-0.433758	-1.314820	-0.003447	8
C	-1.215708	-0.204660	-0.001357	6
C	-0.438868	0.929760	0.001903	6
C	0.906122	0.487200	0.001803	6
C	0.855462	-0.888070	-0.001507	6
H	-2.281748	-0.384190	-0.002537	1
H	-0.798488	1.949500	0.004083	1
H	1.801702	1.091450	0.003883	1
H	1.605282	-1.666170	-0.002827	1
Es	-0.433658	-1.314519	-0.003446	99
Es	0.855484	-0.888563	-0.001508	99
Es	-1.216051	-0.205048	-0.001358	99
Es	0.906140	0.487256	0.001803	99
Es	-0.438847	0.929814	0.001903	99
Es	0.049766	-1.121424	-0.002640	99
Es	1.336487	-1.353950	-0.002274	99
Es	-0.707226	-0.871554	-0.002585	99
Es	0.902193	-0.249156	0.000056	99
Es	-1.879627	-0.293144	-0.002038	99
Es	-0.538363	-1.631720	-0.004277	99
Es	-0.387288	-1.174262	-0.003079	99
Es	-0.664176	1.613346	0.003375	99
Es	-0.873229	0.336183	0.000165	99
Es	0.240667	0.729078	0.001907	99
Es	1.493394	0.902070	0.003211	99
Es	-0.750242	0.380175	0.000382	99
Es	0.829374	-0.140094	0.000246	99
