35
Properties=species:S:1:pos:R:3:Z:I:1 energy=-247.83234818478323 field_type=dipole dipole="0.000000 0.000000 0.000000" charge=0
C	-2.697310	-0.013152	-0.536477	6
C	-1.497831	0.000768	-0.538277	6
C	-0.049941	0.017878	-0.545807	6
C	0.634299	1.028908	0.400353	6
N	1.651659	-0.005142	0.719383	7
C	0.658509	-1.038702	0.330173	6
H	-3.763641	-0.025542	-0.533087	1
H	0.364059	0.057248	-1.563427	1
H	0.045019	1.334558	1.273883	1
H	1.035339	1.927348	-0.078757	1
H	2.462500	0.025378	0.099963	1
H	1.080090	-1.892962	-0.208427	1
H	0.077250	-1.416592	1.180503	1
Es	1.651773	-0.005140	0.719352	99
Es	0.658424	-1.037914	0.329864	99
Es	0.634232	1.028141	0.399991	99
Es	-0.050766	0.017870	-0.545863	99
Es	-1.497638	0.000771	-0.538300	99
Es	-2.699956	-0.013194	-0.536157	99
Es	1.275344	-0.457803	0.530822	99
Es	-0.824619	0.008885	-0.547269	99
Es	0.195303	0.587158	-0.116945	99
Es	0.232493	1.215019	0.983662	99
Es	2.072012	0.013784	0.306815	99
Es	-3.035780	-0.017661	-0.517746	99
Es	0.261639	-1.273292	0.899203	99
Es	-2.392395	-0.010372	-0.514039	99
Es	0.203557	0.043863	-1.224144	99
Es	1.264714	0.450334	0.561647	99
Es	0.208878	-0.573286	-0.156326	99
Es	0.944462	-1.622167	-0.036398	99
Es	0.906225	1.642417	0.074413	99
Es	-2.109255	-0.005377	-0.565176	99
Es	-2.108736	-0.006300	-0.539361	99
Es	1.762452	-0.016811	1.101358	99
