41
Properties=species:S:1:pos:R:3:Z:I:1 energy=-250.2297163944218 field_type=dipole dipole="0.000000 0.000000 0.000000" charge=0
C	-2.337223	-0.804657	-0.574419	6
C	-0.826343	-0.764177	-0.747729	6
C	-0.222303	0.479863	-0.091189	6
N	1.228067	0.501123	-0.307319	7
C	1.939307	1.341103	0.649961	6
C	1.990267	-0.162267	0.746081	6
H	-2.747303	-1.705497	-1.040379	1
H	-2.808163	0.065433	-1.042759	1
H	-2.610263	-0.815307	0.485001	1
H	-0.588013	-0.779197	-1.817940	1
H	-0.394413	-1.670857	-0.306329	1
H	-0.499803	0.506553	0.971131	1
H	-0.653623	1.377033	-0.552549	1
H	1.368187	1.889673	1.389101	1
H	2.812997	1.855953	0.267311	1
H	2.895697	-0.662367	0.424531	1
H	1.452936	-0.652407	1.547501	1
Es	1.227641	0.501174	-0.306413	99
Es	1.989977	-0.161715	0.745677	99
Es	1.939028	1.340525	0.649617	99
Es	-0.222144	0.479123	-0.091635	99
Es	-0.826545	-0.763979	-0.747582	99
Es	-2.336541	-0.804595	-0.574465	99
Es	1.474480	0.962448	0.086047	99
Es	-1.588483	-0.779242	-0.652085	99
Es	-0.503973	1.089639	-0.392662	99
Es	2.599999	-0.507822	0.522663	99
Es	1.539495	1.714622	1.143929	99
Es	-0.529136	-1.375305	-0.444591	99
Es	2.528378	1.689620	0.388196	99
Es	-0.398037	0.495705	0.645283	99
Es	2.076441	0.603482	0.853168	99
Es	-2.619120	-1.422439	-0.893028	99
Es	-2.520732	-0.806266	0.143539	99
Es	1.610433	-0.492556	1.279144	99
Es	-0.531446	-0.139185	-0.419088	99
Es	-2.653686	-0.211423	-0.887999	99
Es	-0.661122	-0.768856	-1.471853	99
Es	1.506269	0.109426	0.144267	99
Es	0.632732	0.489937	-0.143784	99
Es	1.347520	0.485112	-0.671247	99
