40
Properties=species:S:1:pos:R:3:Z:I:1 energy=-266.27608543972974 field_type=dipole dipole="0.000000 0.000000 0.000000" charge=0
C	-1.509377	-1.266603	0.567660	6
C	-1.186197	-0.516073	-0.717110	6
C	-0.158747	0.595807	-0.502910	6
N	1.126212	0.037807	-0.134120	7
C	2.163193	0.748717	0.384470	6
N	2.151753	1.925527	0.894360	7
H	-2.281898	-2.019023	0.380260	1
H	-1.880477	-0.583463	1.337420	1
H	-0.628227	-1.781943	0.960850	1
H	-2.109687	-0.073403	-1.108030	1
H	-0.824627	-1.225863	-1.470800	1
H	-0.526608	1.279977	0.271050	1
H	-0.047277	1.170257	-1.429870	1
H	1.392953	-0.789193	-0.661490	1
H	3.113383	0.190787	0.348960	1
H	1.205632	2.306687	0.879300	1
Es	1.126213	0.037905	-0.134193	99
Es	2.152605	1.926406	0.894893	99
Es	2.163652	0.747905	0.384168	99
Es	-0.158775	0.595278	-0.502799	99
Es	-1.185929	-0.515969	-0.716835	99
Es	-1.509182	-1.266225	0.567050	99
Es	1.612204	0.408973	0.066694	99
Es	2.092883	1.362043	0.644398	99
Es	-2.036568	-1.781054	0.437351	99
Es	1.596989	2.093548	0.860385	99
Es	0.592086	0.278120	-0.307642	99
Es	1.295701	-0.424780	-0.462703	99
Es	2.761875	0.366357	0.342027	99
Es	-0.395305	1.052981	0.026191	99
Es	-0.080184	0.996276	-1.132112	99
Es	-1.344189	-0.890846	-0.077753	99
Es	-1.757219	-0.799136	1.087107	99
Es	-0.916432	-1.610416	0.829528	99
Es	-0.925225	-0.988807	-1.228482	99
Es	-1.801454	-0.206359	-0.989031	99
Es	-0.658966	0.037141	-0.596235	99
Es	1.147701	-0.018267	0.089288	99
Es	2.439488	2.123304	1.051675	99
Es	2.139288	1.556488	0.708023	99
