34
Properties=species:S:1:pos:R:3:Z:I:1 energy=-263.93116923044835 field_type=dipole dipole="0.000000 0.000000 0.000000" charge=0
N	-1.976724	-0.024790	-0.029131	7
C	-0.639774	0.063300	-0.012881	6
C	0.194736	1.155880	-0.004131	6
C	1.526906	0.671820	0.009839	6
C	1.463066	-0.704160	0.008959	6
N	0.138896	-1.062160	-0.005031	7
H	-2.559534	0.807560	0.003349	1
H	-2.491474	-0.897990	0.014969	1
H	-0.115634	2.191540	-0.008421	1
H	2.432526	1.263750	0.018379	1
H	2.239626	-1.456900	0.015809	1
H	-0.212614	-2.007850	-0.011711	1
Es	0.138878	-1.062021	-0.005035	99
Es	-1.976670	-0.024786	-0.029498	99
Es	-0.639829	0.063053	-0.012883	99
Es	1.467419	-0.708309	0.008986	99
Es	1.526971	0.671898	0.009842	99
Es	0.194567	1.156092	-0.004133	99
Es	-0.239359	-0.597359	-0.008688	99
Es	-1.387667	0.008162	-0.005474	99
Es	-0.239463	0.641010	-0.002227	99
Es	1.894195	-1.137467	0.013011	99
Es	0.892912	0.907601	-0.000159	99
Es	-0.026892	1.842970	-0.006530	99
Es	-2.259759	-0.555512	0.019097	99
Es	-2.305352	0.472276	0.009304	99
Es	0.790273	-0.916903	0.000833	99
Es	0.148089	-0.917317	-0.002604	99
Es	-0.077054	-1.625908	-0.009303	99
Es	2.111463	1.081709	0.014759	99
Es	1.509686	-0.087992	0.002833	99
Es	-1.913961	-0.021801	-0.108313	99
Es	0.038863	0.752463	-0.009307	99
Es	1.467304	-0.050288	0.016738	99
