39
Properties=species:S:1:pos:R:3:Z:I:1 energy=-233.0545727111277 field_type=dipole dipole="0.000000 0.000000 0.000000" charge=0
C	-2.527990	-1.322309	-0.070224	6
C	-1.571180	-0.503419	-0.526014	6
C	-0.605170	0.236151	0.355346	6
C	0.832280	-0.112329	0.093176	6
C	1.702560	0.782991	-0.752524	6
C	1.928130	0.701861	0.731786	6
H	-3.198080	-1.831239	-0.756214	1
H	-2.664970	-1.505329	0.991446	1
H	-1.471980	-0.348939	-1.598124	1
H	-0.820670	0.028811	1.410776	1
H	-0.769020	1.311581	0.212306	1
H	0.991260	-1.184529	0.039096	1
H	1.281670	1.699801	-1.149614	1
H	2.431970	0.314101	-1.402854	1
H	2.807680	0.174631	1.084576	1
H	1.653510	1.558171	1.337066	1
Es	-1.571198	-0.503432	-0.526139	99
Es	0.832369	-0.112106	0.093236	99
Es	-0.605301	0.235967	0.355032	99
Es	1.702510	0.782688	-0.751852	99
Es	1.927851	0.701699	0.731135	99
Es	-2.527862	-1.322095	-0.070358	99
Es	1.940521	0.856057	-0.024092	99
Es	-2.963288	-1.657517	-0.536305	99
Es	-0.706726	0.952190	0.256976	99
Es	1.735256	1.269160	1.137611	99
Es	0.940595	-0.819881	0.049119	99
Es	-1.498532	-0.387551	-1.257246	99
Es	2.186688	0.465861	-1.195397	99
Es	-2.070845	-0.956568	-0.263660	99
Es	1.412043	1.387274	-1.013363	99
Es	-2.592532	-1.421160	0.634782	99
Es	-0.747093	0.097907	1.057322	99
Es	2.511516	0.341548	0.971284	99
Es	0.121454	0.060414	0.212072	99
Es	-1.093447	-0.150492	-0.092575	99
Es	1.155958	0.294544	-0.525464	99
Es	1.347169	0.244232	0.622703	99
Es	-2.074454	-0.919671	-0.290280	99
