37
Properties=species:S:1:pos:R:3:Z:I:1 energy=-268.86687785282186 field_type=dipole dipole="0.000000 0.000000 0.000000" charge=0
C	-0.534436	1.533380	-0.699382	6
C	-1.258796	0.226090	-0.798212	6
C	0.247864	0.240490	-0.688692	6
C	0.994174	-0.237370	0.547708	6
C	0.606884	-1.455530	1.350348	6
O	1.658373	-1.504160	0.384298	8
H	-0.475406	2.151990	-1.587452	1
H	-0.620766	2.091780	0.225508	1
H	-1.690826	-0.048380	-1.753742	1
H	-1.839846	-0.094860	0.058238	1
H	0.781724	0.024790	-1.615762	1
H	1.563014	0.527050	1.070638	1
H	-0.316476	-1.966520	1.110318	1
H	0.884524	-1.488750	2.396188	1
Es	1.657958	-1.503998	0.384627	99
Es	0.994414	-0.238122	0.547679	99
Es	0.607532	-1.455279	1.349636	99
Es	0.247378	0.240733	-0.688389	99
Es	-0.534410	1.532644	-0.699489	99
Es	-1.258181	0.226463	-0.798116	99
Es	1.570619	-1.493728	0.351832	99
Es	-1.045501	0.965112	-0.752833	99
Es	1.386671	0.282947	0.889845	99
Es	0.804350	-1.466573	2.059260	99
Es	-1.635212	0.012087	-0.226724	99
Es	0.609122	0.094503	-1.304896	99
Es	-0.007207	-1.807748	1.182411	99
Es	1.228091	-1.398733	0.744013	99
Es	-0.491183	1.952522	-1.292137	99
Es	-0.585017	1.896632	-0.077343	99
Es	1.506523	-1.208409	0.425637	99
Es	-1.544831	0.029486	-1.442709	99
Es	0.593835	0.000590	-0.063677	99
Es	1.903403	-1.591088	0.296667	99
Es	0.608640	-0.732828	1.049892	99
Es	0.021752	1.015871	-0.659826	99
Es	-0.525098	0.017160	-0.729206	99
