37
Properties=species:S:1:pos:R:3:Z:I:1 energy=-268.8960110983073 field_type=dipole dipole="0.000000 0.000000 0.000000" charge=0
C	1.013805	1.181994	-0.618117	6
C	-0.149135	0.861114	0.283733	6
C	-1.177185	-0.132516	-0.147527	6
C	-0.509885	-1.485146	0.103803	6
O	0.909645	-1.253156	0.045793	8
C	1.145015	0.122344	0.430253	6
H	0.979565	0.868484	-1.654837	1
H	1.537215	2.116964	-0.457127	1
H	-0.454285	1.545104	1.059933	1
H	-2.117025	-0.042636	0.405803	1
H	-1.398175	-0.006536	-1.213747	1
H	-0.747595	-1.861466	1.104403	1
H	-0.797415	-2.234726	-0.638437	1
H	1.765455	0.320174	1.296073	1
Es	0.909302	-1.252760	0.045927	99
Es	1.144607	0.122459	0.429971	99
Es	-0.509640	-1.484421	0.103622	99
Es	1.013563	1.181701	-0.617529	99
Es	-0.149333	0.861728	0.284855	99
Es	-1.176756	-0.132441	-0.147243	99
Es	1.137319	-1.470864	-0.011308	99
Es	1.264622	0.608534	-0.172926	99
Es	-0.869360	-0.807464	-0.023117	99
Es	-0.678440	-1.738115	0.793625	99
Es	1.365069	1.805601	-0.503210	99
Es	-0.341139	1.319495	0.797843	99
Es	1.566646	0.243624	1.015872	99
Es	0.964873	-0.744421	0.204524	99
Es	0.382645	-1.292163	0.068050	99
Es	-1.803098	-0.066988	0.232588	99
Es	0.880503	-1.209853	0.019969	99
Es	0.987006	0.976982	-1.289566	99
Es	-0.650427	0.391178	0.062914	99
Es	-0.703114	-1.996530	-0.403857	99
Es	-1.330574	-0.057919	-0.868707	99
Es	0.295651	1.163733	-0.297191	99
Es	0.434895	0.428690	0.516739	99
