36
Properties=species:S:1:pos:R:3:Z:I:1 energy=-231.87925578052108 field_type=dipole dipole="0.000000 0.000000 0.000000" charge=0
C	-0.571107	-2.124362	-0.692650	6
C	-1.064407	-1.077931	-0.016970	6
C	-0.368217	0.191388	0.177780	6
C	-1.128137	1.269379	0.450720	6
C	1.088292	0.284819	0.281100	6
C	1.841233	1.344118	-0.044770	6
H	-1.154367	-3.032601	-0.801600	1
H	0.406193	-2.100711	-1.163460	1
H	-2.062727	-1.165151	0.409510	1
H	-2.213267	1.223559	0.442110	1
H	-0.698287	2.235359	0.692880	1
H	1.588993	-0.614071	0.638780	1
H	1.415293	2.262158	-0.434850	1
H	2.920513	1.304048	0.061420	1
Es	-0.368341	0.191248	0.177840	99
Es	1.088275	0.284519	0.281202	99
Es	-1.064670	-1.077854	-0.016844	99
Es	1.840514	1.343452	-0.043949	99
Es	-0.571119	-2.123992	-0.692035	99
Es	-1.126342	1.267621	0.450105	99
Es	-0.840545	0.860262	0.353518	99
Es	2.541017	1.295415	0.040095	99
Es	0.059727	-2.080151	-0.953284	99
Es	0.382457	0.237601	0.211152	99
Es	-0.722037	-0.508201	0.061271	99
Es	1.398552	-0.339283	0.508524	99
Es	-0.719772	-1.685647	-0.334958	99
Es	-0.802825	1.838321	0.595968	99
Es	1.472431	0.940418	0.204491	99
Es	1.522861	1.924754	-0.259775	99
Es	-1.716755	-1.068549	0.277989	99
Es	-0.953664	-2.695019	-0.743674	99
Es	-1.785557	1.178404	0.413528	99
Es	-0.725132	0.710252	0.296218	99
Es	1.437404	0.761830	-0.019518	99
Es	-0.846358	-1.540425	-0.427085	99
