40
Properties=species:S:1:pos:R:3:Z:I:1 energy=-270.0820224725894 field_type=dipole dipole="0.000000 0.000000 0.000000" charge=0
C	-0.025391	-2.415202	-0.635473	6
C	-0.737621	-1.170662	-0.131493	6
C	0.226068	-0.062322	0.144977	6
O	0.596469	0.709128	-1.006573	8
C	-0.188971	1.378328	-0.010103	6
C	0.526369	2.465648	0.706927	6
H	-0.745201	-3.217912	-0.821893	1
H	0.705109	-2.773022	0.097367	1
H	0.509449	-2.209672	-1.568433	1
H	-1.276151	-1.410462	0.792577	1
H	-1.487921	-0.861012	-0.868853	1
H	0.994299	-0.317422	0.863167	1
H	-1.215151	1.620808	-0.247273	1
H	1.576319	2.215378	0.894147	1
H	0.045829	2.659238	1.671247	1
H	0.496499	3.389158	0.119687	1
Es	0.596286	0.709128	-1.006444	99
Es	-0.188573	1.378062	-0.010412	99
Es	0.225965	-0.061738	0.144245	99
Es	-0.737279	-1.170423	-0.131471	99
Es	0.526006	2.465031	0.706543	99
Es	-0.025702	-2.414557	-0.635220	99
Es	0.885197	0.821049	-0.934659	99
Es	-1.102627	-1.332024	0.494158	99
Es	0.202480	2.589147	1.350278	99
Es	-0.519012	-2.966579	-0.762091	99
Es	-0.878967	1.539165	-0.191550	99
Es	0.757726	-0.239194	0.616366	99
Es	0.507958	0.578884	-0.758682	99
Es	0.308115	0.806238	-0.544460	99
Es	0.467251	-2.649838	-0.138008	99
Es	-0.375491	-1.774251	-0.383030	99
Es	0.502297	3.092636	0.312093	99
Es	1.220130	2.296939	0.834367	99
Es	0.335254	-2.278420	-1.253886	99
Es	0.173482	1.894422	0.350765	99
Es	-0.247795	-0.590679	0.008252	99
Es	-1.235137	-0.955570	-0.622863	99
Es	0.407809	0.600684	-1.272634	99
Es	-0.104918	0.645061	0.298163	99
