37
Properties=species:S:1:pos:R:3:Z:I:1 energy=-268.94413260707654 field_type=dipole dipole="0.000000 0.000000 0.000000" charge=0
C	-2.351849	-0.135140	0.268962	6
C	-0.867169	-0.239440	0.123372	6
C	-0.073449	0.819960	-0.090748	6
C	1.406891	0.758730	-0.241408	6
C	2.112341	-0.568840	-0.159818	6
O	2.023001	1.806730	-0.430528	8
H	-2.844439	-0.733920	-0.503358	1
H	-2.706469	0.896400	0.179072	1
H	-2.657579	-0.517140	1.247832	1
H	-0.459378	-1.243250	0.202772	1
H	-0.481789	1.823820	-0.169438	1
H	1.756052	-1.234310	-0.950418	1
H	1.957091	-1.018010	0.824452	1
H	3.186741	-0.415590	-0.300748	1
Es	2.022660	1.806415	-0.430454	99
Es	1.406949	0.758385	-0.241375	99
Es	-0.867236	-0.239517	0.123388	99
Es	-2.351215	-0.135143	0.268896	99
Es	-0.073301	0.820059	-0.090776	99
Es	2.111865	-0.568520	-0.159803	99
Es	2.202092	1.977518	-0.469861	99
Es	-0.467153	0.294463	0.017252	99
Es	1.863238	-1.003641	-0.672614	99
Es	-2.543729	-0.389061	0.922252	99
Es	0.654424	0.741144	-0.158928	99
Es	-0.567797	-0.911261	0.173805	99
Es	1.747707	0.094035	-0.199518	99
Es	1.775444	1.407318	-0.357775	99
Es	1.994163	-0.862443	0.483181	99
Es	-2.668800	-0.534059	-0.249153	99
Es	-2.582713	0.547032	0.209136	99
Es	-1.592758	-0.168435	0.191825	99
Es	2.814120	-0.480343	-0.250370	99
Es	-0.362386	1.486812	-0.141003	99
Es	1.830104	1.494035	-0.372271	99
Es	1.941892	1.791017	-0.420024	99
Es	-0.365330	0.345295	-0.003723	99
