43
Properties=species:S:1:pos:R:3:Z:I:1 energy=-271.29006081898325 field_type=dipole dipole="0.000000 0.000000 0.000000" charge=0
C	-2.286562	-1.282481	-0.114359	6
C	-0.767452	-1.214251	-0.107909	6
C	-0.272962	0.234769	-0.102809	6
C	1.256758	0.322599	-0.119509	6
C	1.732578	1.768199	-0.169679	6
O	1.795918	-0.295231	1.045841	8
H	-2.619152	-2.325311	-0.118729	1
H	-2.698202	-0.790971	-1.001809	1
H	-2.704792	-0.796461	0.773091	1
H	-0.380613	-1.735061	-0.991249	1
H	-0.391943	-1.745831	0.773511	1
H	-0.660462	0.733569	0.794851	1
H	-0.680052	0.763029	-0.973799	1
H	1.651498	-0.215421	-0.988239	1
H	1.386758	2.327079	0.706941	1
H	1.373898	2.273899	-1.071249	1
H	2.827038	1.809949	-0.157219	1
H	1.437748	0.167919	1.822321	1
Es	1.795693	-0.294826	1.046048	99
Es	1.256816	0.322527	-0.119246	99
Es	-0.272687	0.234471	-0.102635	99
Es	1.732316	1.767496	-0.169661	99
Es	-0.767553	-1.213960	-0.107904	99
Es	-2.285940	-1.282402	-0.114350	99
Es	2.021038	-0.517223	1.044528	99
Es	-0.541594	0.593080	-0.682578	99
Es	1.478953	2.105128	-0.779192	99
Es	-2.567433	-0.948876	0.483621	99
Es	1.518759	-0.049103	-0.706703	99
Es	-0.517239	-1.569068	0.484076	99
Es	1.584268	-0.034564	1.421254	99
Es	1.761041	-0.281321	1.046783	99
Es	1.575542	-0.056120	0.654292	99
Es	-2.564971	-0.944579	-0.712192	99
Es	-0.522957	-0.481846	-0.108579	99
Es	2.480497	1.795830	-0.165593	99
Es	1.482006	2.135853	0.429910	99
Es	-0.524442	0.578068	0.510041	99
Es	-1.528946	-1.238667	-0.114545	99
Es	-2.517253	-1.998802	-0.116926	99
Es	-0.500458	-1.563867	-0.710102	99
Es	1.494776	1.065999	-0.152316	99
Es	0.481868	0.288710	-0.115208	99
