37
Properties=species:S:1:pos:R:3:Z:I:1 energy=-268.8807872660419 field_type=dipole dipole="0.000000 0.000000 0.000000" charge=0
C	-2.686553	-0.653159	-0.557703	6
C	-1.494143	-0.573689	0.035267	6
O	-0.667393	0.503471	-0.150414	8
C	0.560037	0.385781	0.596357	6
C	1.706437	-0.298589	-0.097733	6
C	1.709076	1.193971	0.057186	6
H	-3.329073	-1.512869	-0.406294	1
H	-3.037643	0.142101	-1.206743	1
H	-1.111213	-1.348839	0.684757	1
H	0.493967	0.312801	1.678476	1
H	1.533057	-0.705139	-1.087233	1
H	2.391916	-0.876129	0.509916	1
H	2.397237	1.632161	0.769646	1
H	1.534297	1.798131	-0.825483	1
Es	-0.667257	0.502976	-0.150119	99
Es	0.560220	0.385865	0.595779	99
Es	-1.493620	-0.573790	0.035700	99
Es	1.706002	-0.297884	-0.097370	99
Es	1.708859	1.193407	0.057389	99
Es	-2.686447	-0.653197	-0.557816	99
Es	-0.756084	0.791937	-0.265992	99
Es	1.862163	0.459229	-0.105608	99
Es	-2.124496	-0.559246	-0.200637	99
Es	2.166471	-0.690079	0.317147	99
Es	0.497348	0.314773	1.321959	99
Es	-0.947504	0.076551	-0.068656	99
Es	-0.244180	0.415200	0.144144	99
Es	1.586587	1.592135	-0.527063	99
Es	-3.086429	-1.227109	-0.438127	99
Es	1.580602	-0.566526	-0.744405	99
Es	-0.651630	0.418855	-0.193127	99
Es	-2.924669	-0.131431	-1.009565	99
Es	2.162816	1.485380	0.540768	99
Es	-1.229643	-1.094571	0.484189	99
Es	1.066716	0.967067	0.381113	99
Es	1.047700	-0.150834	0.275694	99
Es	-2.132684	-0.685460	-0.341725	99
