34
Properties=species:S:1:pos:R:3:Z:I:1 energy=-267.7253157491752 field_type=dipole dipole="0.000000 0.000000 0.000000" charge=0
C	-1.417097	-0.698716	-0.325993	6
C	0.019183	-0.809746	-0.772173	6
O	0.428623	-1.827106	-1.335223	8
C	0.916283	0.392874	-0.565213	6
C	0.935033	0.853124	0.830187	6
C	0.953883	1.236374	1.968357	6
H	-1.855997	0.221284	-0.720313	1
H	-1.472657	-0.709226	0.764887	1
H	-1.986707	-1.547666	-0.715073	1
H	0.570813	1.189854	-1.231773	1
H	1.931323	0.121954	-0.876443	1
H	0.977313	1.576994	2.978776	1
Es	0.428480	-1.826697	-1.335011	99
Es	0.019213	-0.809711	-0.772146	99
Es	0.916013	0.392774	-0.565027	99
Es	0.934991	0.853093	0.830026	99
Es	0.953889	1.236888	1.970255	99
Es	-1.416535	-0.698523	-0.325944	99
Es	0.469291	-2.050206	-1.448534	99
Es	-0.689626	-0.740123	-0.542113	99
Es	0.921211	1.289367	2.201038	99
Es	0.466971	-0.197569	-0.646213	99
Es	1.578267	0.231704	-0.745443	99
Es	0.924602	1.159990	1.779649	99
Es	0.919996	0.628552	0.170254	99
Es	0.679278	0.915465	-0.970407	99
Es	0.270450	-1.415222	-1.128844	99
Es	-1.690825	-0.084334	-0.577197	99
Es	-1.439103	-0.698683	0.383397	99
Es	-1.801138	-1.252058	-0.581564	99
Es	0.315454	-1.525565	-1.140511	99
Es	0.452366	-1.758990	-1.311110	99
Es	0.940673	1.048843	1.409286	99
Es	0.993456	1.064001	1.389681	99
