40
Properties=species:S:1:pos:R:3:Z:I:1 energy=-270.08744731439276 field_type=dipole dipole="0.000000 0.000000 0.000000" charge=0
C	-2.439431	-1.243653	0.045302	6
C	-0.924341	-1.291323	0.033612	6
O	-0.434891	0.030337	-0.171138	8
C	0.988939	0.065597	-0.189148	6
C	1.398399	1.486097	-0.407768	6
C	2.207859	2.182027	0.401212	6
H	-2.860671	-2.241523	0.198982	1
H	-2.820561	-0.840803	-0.899428	1
H	-2.798651	-0.582203	0.841212	1
H	-0.579221	-1.943803	-0.775308	1
H	-0.558131	-1.679073	0.989992	1
H	1.363120	-0.550113	-1.014248	1
H	1.382949	-0.323993	0.756652	1
H	0.987869	1.971027	-1.291258	1
H	2.632149	1.745317	1.300062	1
H	2.454609	3.216087	0.181272	1
Es	-0.434566	0.029916	-0.171079	99
Es	0.988940	0.066194	-0.189252	99
Es	-0.924648	-1.290989	0.033574	99
Es	1.398373	1.486206	-0.407885	99
Es	2.207769	2.182023	0.400841	99
Es	-2.438978	-1.243615	0.045297	99
Es	-0.626165	0.296784	-0.180352	99
Es	1.862774	1.835670	0.017092	99
Es	-2.678641	-0.803519	0.584344	99
Es	1.252627	-0.204179	0.442862	99
Es	-0.679573	-1.739861	-0.520946	99
Es	2.485225	1.868500	0.993063	99
Es	-0.661724	-1.560551	0.689812	99
Es	0.107451	0.009262	-0.171152	99
Es	1.240660	-0.355339	-0.742545	99
Es	1.220097	0.796712	-0.281753	99
Es	2.363807	2.864428	0.235454	99
Es	1.111931	1.796195	-1.012395	99
Es	-2.714691	-1.926223	0.150894	99
Es	-2.694924	-0.978278	-0.593255	99
Es	-1.682641	-1.265787	0.038931	99
Es	-0.576853	-0.478687	-0.095090	99
Es	-0.414349	0.001699	-0.194428	99
Es	1.786778	1.847639	0.025448	99
