38
Properties=species:S:1:pos:R:3:Z:I:1 energy=-305.89857259116775 field_type=dipole dipole="0.000000 0.000000 0.000000" charge=0
C	-0.632712	-2.163288	-0.520139	6
O	-1.000012	-0.877938	-0.039049	8
C	0.141528	-0.083718	0.346331	6
C	0.587938	0.940922	-0.656229	6
C	-0.139152	1.376022	0.579721	6
O	0.673288	2.019352	1.573771	8
H	-1.540432	-2.693698	-0.819889	1
H	-0.134982	-2.734758	0.269111	1
H	0.025138	-2.070898	-1.389719	1
H	0.889878	-0.536478	0.990031	1
H	0.057068	0.995232	-1.599499	1
H	1.649388	1.144042	-0.726599	1
H	-1.170732	1.698402	0.480491	1
H	0.593798	2.986802	1.511671	1
Es	0.673176	2.019766	1.573452	99
Es	-0.999507	-0.878056	-0.039077	99
Es	-0.138583	1.375860	0.579762	99
Es	0.141195	-0.083185	0.346042	99
Es	-0.632820	-2.162920	-0.520012	99
Es	0.587612	0.940770	-0.655606	99
Es	-1.295910	-0.768686	0.031569	99
Es	0.612268	2.505119	1.496851	99
Es	0.235878	1.332645	-0.107773	99
Es	-1.252185	-2.524219	-0.730787	99
Es	0.234334	0.964246	-1.281619	99
Es	0.643417	-0.403558	0.766519	99
Es	0.355635	1.826637	1.216579	99
Es	-0.827008	1.598407	0.519761	99
Es	-0.551508	-0.628582	0.097323	99
Es	-0.816849	-1.342439	-0.215865	99
Es	-0.283867	-2.551270	0.019862	99
Es	0.830124	1.853882	1.790751	99
Es	1.286802	1.077033	-0.698237	99
Es	0.675385	2.030587	1.526988	99
Es	-0.965733	-0.864968	-0.087124	99
Es	-0.173813	-2.099016	-1.105781	99
Es	-0.095508	0.617242	0.641410	99
Es	0.459942	0.299080	-0.284053	99
