38
Properties=species:S:1:pos:R:3:Z:I:1 energy=-305.9469565031077 field_type=dipole dipole="0.000000 0.000000 0.000000" charge=0
C	-0.947922	-1.312649	1.153100	6
O	-1.076332	-0.846269	-0.184450	8
C	-0.894972	0.557701	-0.285320	6
C	0.552348	1.008571	-0.126300	6
C	1.560138	0.394331	-1.060080	6
O	0.877148	1.859511	0.702840	8
H	-1.157322	-2.386418	1.162780	1
H	-1.668022	-0.812339	1.809560	1
H	0.070668	-1.156499	1.521700	1
H	-1.526032	1.079511	0.444150	1
H	-1.226212	0.870541	-1.281510	1
H	1.563908	-0.691539	-0.941830	1
H	2.558528	0.774021	-0.823570	1
H	1.314078	0.661521	-2.091070	1
Es	-1.076193	-0.845949	-0.184173	99
Es	0.877048	1.859158	0.702483	99
Es	0.552341	1.008579	-0.126269	99
Es	-0.894649	0.557614	-0.285548	99
Es	-0.947961	-1.312479	1.152755	99
Es	1.559649	0.394409	-1.059821	99
Es	-1.242130	-1.008152	-0.417490	99
Es	1.076784	2.012593	0.798594	99
Es	1.044687	0.691096	-0.592927	99
Es	-0.254060	-1.195266	1.400704	99
Es	-1.313647	0.900260	0.209473	99
Es	0.744933	1.552336	0.376329	99
Es	-1.107981	0.765986	-0.951669	99
Es	-0.154789	0.778873	-0.197777	99
Es	-1.008355	-0.976820	0.326691	99
Es	2.219410	0.644934	-0.912018	99
Es	-1.087605	-2.045317	1.158767	99
Es	1.382715	0.567762	-1.729532	99
Es	1.554685	-0.314083	-0.981432	99
Es	-1.433413	-0.958656	1.601362	99
Es	-0.978907	-0.840849	-0.184630	99
Es	0.781396	1.585360	0.471443	99
Es	-0.986054	-0.318326	-0.176714	99
Es	0.725523	1.835999	0.725596	99
