32
Properties=species:S:1:pos:R:3:Z:I:1 energy=-303.5595273487632 field_type=dipole dipole="0.000000 0.000000 0.000000" charge=0
O	1.383970	-0.245737	0.006175	8
C	0.454000	-1.268487	0.003145	6
C	-0.862640	-1.034697	-0.002735	6
O	-1.384270	0.245583	-0.006195	8
C	-0.453840	1.268603	-0.003145	6
C	0.862500	1.034953	0.002735	6
H	0.919430	-2.241847	0.006075	1
H	-1.634510	-1.788817	-0.005315	1
H	-0.919720	2.242103	-0.006065	1
H	1.635080	1.788343	0.005325	1
Es	-1.383732	0.245487	-0.006193	99
Es	1.383432	-0.245642	0.006173	99
Es	-0.454122	1.268293	-0.003146	99
Es	-0.862798	-1.034310	-0.002736	99
Es	0.862658	1.034565	0.002736	99
Es	0.454281	-1.268177	0.003146	99
Es	-0.982940	0.599288	-0.004796	99
Es	0.982805	-0.599388	0.004785	99
Es	-0.197854	-1.115619	0.000198	99
Es	0.197966	1.115843	-0.000219	99
Es	-1.129166	-0.224489	-0.004649	99
Es	-0.747485	1.911781	-0.005017	99
Es	1.128861	0.224444	0.004638	99
Es	0.747391	-1.911620	0.005023	99
Es	-0.214660	-1.209761	0.000212	99
Es	1.359609	1.537632	0.004393	99
Es	-1.702304	0.302050	-0.007624	99
Es	-1.311719	0.232659	-0.005868	99
Es	-1.359476	-1.537795	-0.004384	99
Es	1.702060	-0.302121	0.007598	99
Es	0.214633	1.209868	-0.000191	99
Es	1.311395	-0.232914	0.005848	99
