33
Properties=species:S:1:pos:R:3:Z:I:1 energy=-283.7728829343788 field_type=dipole dipole="0.000000 0.000000 0.000000" charge=0
C	-1.680288	-0.087359	-0.007366	6
C	-0.205028	-0.042419	-0.000706	6
C	0.638402	1.045151	0.000074	6
O	1.921302	0.587781	0.007064	8
C	1.782122	-0.766019	0.010174	6
N	0.541522	-1.198749	0.005724	7
H	-2.109588	0.919291	0.002444	1
H	-2.048428	-0.623849	0.872454	1
H	-2.040818	-0.603599	-0.902316	1
H	0.507612	2.116921	-0.003456	1
H	2.693191	-1.347149	0.015914	1
Es	1.920813	0.587607	0.007062	99
Es	0.541549	-1.198475	0.005724	99
Es	1.783692	-0.766774	0.010187	99
Es	0.638161	1.048485	0.000063	99
Es	-0.205013	-0.042547	-0.000705	99
Es	-1.679816	-0.087433	-0.007364	99
Es	2.198678	0.767155	0.008157	99
Es	1.145863	-0.958484	0.008362	99
Es	0.257564	0.607014	-0.000060	99
Es	-0.927230	-0.067560	-0.003654	99
Es	0.233697	-0.687326	0.002890	99
Es	0.511766	1.666652	-0.002630	99
Es	2.334589	-1.131568	0.013835	99
Es	1.824897	0.474282	0.006732	99
Es	1.437340	0.739685	0.004466	99
Es	1.840321	0.062638	0.008052	99
Es	-1.915022	-0.425915	-0.601493	99
Es	-1.920637	-0.439573	0.576909	99
Es	-1.958351	0.589919	-0.001029	99
Es	0.399893	-1.560825	0.005878	99
Es	0.944339	-0.975348	0.006410	99
Es	0.282106	0.505742	-0.000055	99
