42
Properties=species:S:1:pos:R:3:Z:I:1 energy=-287.2922583064605 field_type=dipole dipole="0.000000 0.000000 0.000000" charge=0
C	-1.796992	-0.319050	-0.247007	6
C	-0.270242	-0.327390	-0.197277	6
C	0.214118	-1.161640	0.990103	6
O	0.206018	-0.954710	-1.394937	8
C	0.277838	1.120550	-0.161737	6
N	1.736208	1.148930	-0.359697	7
H	-2.156042	0.220560	-1.131057	1
H	-2.226692	0.150100	0.644383	1
H	-2.191822	-1.338390	-0.328477	1
H	-0.080902	-0.712000	1.944093	1
H	1.303158	-1.281100	0.981363	1
H	-0.199222	-2.176280	0.944843	1
H	1.096268	-0.568270	-1.538117	1
H	0.017548	1.617500	0.779463	1
H	-0.166212	1.697570	-0.981017	1
H	2.196758	0.761370	0.464213	1
H	2.040208	2.122250	-0.409137	1
Es	0.206470	-0.954309	-1.394715	99
Es	1.736208	1.148799	-0.359595	99
Es	-0.270336	-0.327552	-0.197552	99
Es	0.278543	1.119892	-0.161940	99
Es	0.213935	-1.161187	0.989450	99
Es	-1.796110	-0.318994	-0.246970	99
Es	0.033442	-1.149406	-1.569857	99
Es	1.816062	0.938606	-0.699083	99
Es	-2.051513	-1.017569	-0.292157	99
Es	0.963339	-1.222780	0.975251	99
Es	-0.028245	1.512096	-0.719172	99
Es	0.014587	0.408550	-0.165253	99
Es	0.649065	-0.748113	-1.433915	99
Es	0.095386	1.453334	0.486679	99
Es	1.879205	1.713041	-0.342820	99
Es	0.225120	-0.938640	-1.365108	99
Es	-0.074473	-1.841326	0.957946	99
Es	1.975297	0.954128	0.145819	99
Es	-2.072464	0.002884	0.366080	99
Es	-2.026713	0.063259	-0.847808	99
Es	0.062922	-0.717556	-0.963594	99
Es	0.012282	-0.844600	1.633590	99
Es	-1.055971	-0.318864	-0.213869	99
Es	-0.023408	-0.745703	0.421090	99
Es	1.172473	1.156172	-0.235084	99
