39
Properties=species:S:1:pos:R:3:Z:I:1 energy=-286.0497014432866 field_type=dipole dipole="0.000000 0.000000 0.000000" charge=0
C	-1.389142	-0.904735	0.129613	6
C	0.107218	-0.629105	0.058013	6
C	0.735178	-1.335565	-1.135957	6
O	0.324628	0.776805	-0.111497	8
N	0.346688	1.395065	1.148263	7
C	0.566238	2.655635	0.981423	6
H	-1.835982	-0.392585	0.988593	1
H	-1.591412	-1.976225	0.223153	1
H	-1.901402	-0.526765	-0.762387	1
H	0.600868	-0.979325	0.973203	1
H	0.294318	-0.987415	-2.076837	1
H	0.608468	-2.420754	-1.068817	1
H	1.806298	-1.112245	-1.189697	1
H	0.623648	3.322915	1.854463	1
H	0.704388	3.114295	-0.011537	1
Es	0.324699	0.776488	-0.111073	99
Es	0.346751	1.395174	1.147750	99
Es	0.566283	2.656056	0.981346	99
Es	0.107229	-0.629005	0.057929	99
Es	0.734910	-1.335243	-1.135462	99
Es	-1.388493	-0.904606	0.129601	99
Es	0.400658	0.931197	-0.378487	99
Es	0.423258	1.990554	1.031370	99
Es	-1.724862	-0.652725	-0.481407	99
Es	-1.689969	-0.556804	0.714458	99
Es	0.597502	3.079379	1.576845	99
Es	0.444107	-0.858653	0.676883	99
Es	0.252550	0.276754	-0.005209	99
Es	0.330703	1.047346	0.434179	99
Es	0.281511	0.786753	-0.075083	99
Es	0.655081	2.951860	0.313082	99
Es	1.464973	-1.185066	-1.166541	99
Es	0.423572	-1.096303	-1.762973	99
Es	0.636365	-2.067920	-1.077136	99
Es	-1.516246	-1.637276	0.191292	99
Es	0.425564	-0.983716	-0.549869	99
Es	-0.651076	-0.773955	0.099349	99
Es	0.292355	1.158797	1.456174	99
Es	0.472229	1.949334	1.090294	99
