39
Properties=species:S:1:pos:R:3:Z:I:1 energy=-286.077418052885 field_type=dipole dipole="0.000000 0.000000 0.000000" charge=0
N	-1.876531	0.174716	-0.428333	7
C	-0.426331	0.180616	-0.573893	6
C	0.185039	1.201896	0.405637	6
C	1.243799	0.126986	0.743837	6
C	0.200939	-0.937244	0.315057	6
O	0.704969	-2.099134	-0.373963	8
H	-2.314271	-0.670024	-0.796323	1
H	-2.340331	0.956506	-0.887403	1
H	-0.052661	0.225406	-1.601483	1
H	-0.438951	1.474456	1.266337	1
H	0.576499	2.116886	-0.047963	1
H	2.136019	0.163976	0.108797	1
H	1.553679	0.091066	1.791277	1
H	-0.428591	-1.252734	1.158547	1
H	1.276729	-1.753374	-1.080133	1
Es	0.705141	-2.098661	-0.374192	99
Es	-1.876384	0.174682	-0.428921	99
Es	0.201137	-0.937141	0.314720	99
Es	-0.426993	0.180591	-0.573408	99
Es	1.243049	0.126973	0.743790	99
Es	0.185375	1.201375	0.405269	99
Es	0.659313	-2.402066	-0.297241	99
Es	-2.110468	0.606899	-0.744427	99
Es	0.792502	-0.468129	0.559839	99
Es	-0.224254	-1.145845	0.877652	99
Es	1.836486	0.148564	0.301244	99
Es	-0.163702	0.207724	-1.268301	99
Es	0.538864	-1.669349	-0.149257	99
Es	-1.317581	0.174906	-0.568495	99
Es	-2.096407	-0.295379	-0.696426	99
Es	0.988703	-1.878754	-0.727009	99
Es	1.462644	0.102067	1.452457	99
Es	0.449502	1.828414	0.100828	99
Es	0.696945	-2.062823	-0.390480	99
Es	-0.231523	1.370959	0.973888	99
Es	0.765127	0.727835	0.615068	99
Es	-0.168913	-0.440562	-0.188242	99
Es	-0.176344	0.766802	-0.120055	99
Es	-1.916606	0.194314	-0.039476	99
