44
Properties=species:S:1:pos:R:3:Z:I:1 energy=-304.0889470442223 field_type=dipole dipole="0.000000 0.000000 0.000000" charge=0
C	-1.525855	-0.616874	0.669223	6
C	-0.029655	-0.588624	0.370873	6
C	0.411645	-1.294064	-0.889277	6
C	-0.361475	-1.737344	-1.889767	6
C	0.415585	0.852846	0.239803	6
N	1.333885	1.338906	1.015223	7
N	1.605265	2.639106	0.757353	7
H	-1.734825	-0.112584	1.619813	1
H	-1.893705	-1.645684	0.748443	1
H	-2.108235	-0.099404	-0.101767	1
H	0.497705	-1.047264	1.216353	1
H	1.488605	-1.450624	-0.971477	1
H	-1.439835	-1.619884	-1.894537	1
H	0.083125	-2.233384	-2.748437	1
H	-0.076675	1.460956	-0.543917	1
H	2.457315	2.909016	1.256513	1
H	0.877135	3.244906	1.145583	1
Es	1.334268	1.339112	1.015447	99
Es	1.605135	2.638840	0.757764	99
Es	0.415498	0.852771	0.239755	99
Es	-0.029652	-0.588548	0.370668	99
Es	0.411862	-1.294135	-0.889386	99
Es	-0.361324	-1.737237	-1.889537	99
Es	-1.525279	-0.616798	0.669084	99
Es	1.627967	2.693809	0.365539	99
Es	-0.760826	-0.599161	0.502490	99
Es	1.009593	1.126582	0.570568	99
Es	-1.006336	-1.633915	-1.832387	99
Es	0.313599	-0.894764	0.916125	99
Es	0.071755	1.249475	-0.283194	99
Es	1.142193	-1.394226	-0.921035	99
Es	1.432483	2.030898	0.885612	99
Es	2.060143	2.771006	1.094207	99
Es	0.163341	-0.963758	-0.290401	99
Es	0.204321	0.149530	0.312442	99
Es	-0.066976	-1.522491	-1.465995	99
Es	-1.663038	-0.270754	1.315924	99
Es	0.854536	1.179425	0.782481	99
Es	-1.771935	-1.309676	0.714749	99
Es	-1.909735	-0.266806	0.141309	99
Es	-0.068661	-2.052351	-2.438662	99
Es	1.533550	1.135065	1.280597	99
Es	0.013216	-1.527668	-1.399850	99
Es	1.198310	2.932412	1.016385	99
