47
Properties=species:S:1:pos:R:3:Z:I:1 energy=-305.32399757272196 field_type=dipole dipole="0.000000 0.000000 0.000000" charge=0
C	-0.530603	-2.136116	-0.713319	6
C	-1.105063	-0.989446	0.108881	6
C	-0.426993	0.355564	-0.193269	6
C	-1.139973	1.489184	0.541741	6
N	0.963727	0.313244	0.230431	7
C	1.930777	1.100774	-0.298279	6
N	3.117187	1.231214	0.174621	7
H	-1.076793	-3.060756	-0.501279	1
H	0.523787	-2.308676	-0.477429	1
H	-0.615833	-1.930736	-1.784969	1
H	-1.011423	-1.234086	1.174541	1
H	-2.177723	-0.913466	-0.108259	1
H	-0.482103	0.544674	-1.272599	1
H	-1.105643	1.344504	1.627320	1
H	-2.190223	1.550694	0.238461	1
H	-0.670243	2.454214	0.322441	1
H	1.142897	-0.104026	1.135521	1
H	1.630077	1.651754	-1.205679	1
H	3.224167	0.641484	1.001131	1
Es	0.963771	0.313252	0.230552	99
Es	3.118301	1.231800	0.174407	99
Es	1.930248	1.100966	-0.298892	99
Es	-0.426827	0.355335	-0.193313	99
Es	-1.104627	-0.989422	0.108661	99
Es	-1.139550	1.488589	0.541391	99
Es	-0.530830	-2.135552	-0.712946	99
Es	0.370813	0.364042	0.094228	99
Es	2.552300	1.122202	-0.009950	99
Es	-0.773960	-0.337221	-0.043577	99
Es	-0.805817	2.142954	0.383465	99
Es	-0.584719	-1.989349	-1.437164	99
Es	1.388490	0.717673	0.006334	99
Es	-1.024033	-1.126870	0.837994	99
Es	3.118251	0.874457	0.642634	99
Es	1.069387	0.099650	0.761808	99
Es	-1.825455	-0.914315	-0.037107	99
Es	-0.801117	0.938611	0.169075	99
Es	-0.905564	-2.770607	-0.567611	99
Es	1.704366	1.451925	-0.890773	99
Es	-1.852242	1.524955	0.339138	99
Es	-1.103995	1.369288	1.272083	99
Es	2.719986	1.198374	0.045747	99
Es	0.175384	-2.246032	-0.554238	99
Es	-0.447806	0.484355	-0.910904	99
Es	-0.804862	-1.554159	-0.306065	99
Es	3.408105	1.442314	0.042457	99
Es	1.089624	0.194454	0.080828	99
