41
Properties=species:S:1:pos:R:3:Z:I:1 energy=-302.8807999525214 field_type=dipole dipole="0.000000 0.000000 0.000000" charge=0
C	-0.475708	-1.464465	0.942984	6
C	-0.218688	-0.948255	-0.462066	6
C	0.324502	0.452885	-0.423346	6
N	-0.313928	1.582695	-0.405136	7
N	-1.666158	1.499005	-0.432116	7
C	1.751602	0.659365	-0.358936	6
C	2.939532	0.826915	-0.303916	6
H	-0.860758	-2.488115	0.907564	1
H	-1.207948	-0.841805	1.467004	1
H	0.444162	-1.465655	1.537144	1
H	-1.141388	-0.978135	-1.050006	1
H	0.505902	-1.598895	-0.965026	1
H	-2.045178	2.407475	-0.715256	1
H	-2.027588	1.369484	0.517094	1
H	3.991642	0.987505	-0.255986	1
Es	-0.313679	1.582553	-0.405197	99
Es	-1.665652	1.499356	-0.431718	99
Es	0.324852	0.453027	-0.423260	99
Es	-0.218331	-0.947704	-0.461922	99
Es	1.751170	0.659252	-0.358902	99
Es	2.942437	0.827312	-0.303893	99
Es	-0.475550	-1.464143	0.942317	99
Es	-1.017229	1.509738	-0.388193	99
Es	-0.045642	1.053692	-0.521629	99
Es	-0.340403	-1.182707	0.226416	99
Es	3.208982	0.846689	-0.261398	99
Es	-0.817777	-0.959649	-0.839469	99
Es	1.053033	0.548193	-0.393168	99
Es	2.691179	0.804858	-0.296892	99
Es	-1.808487	1.454817	0.106921	99
Es	0.068258	-0.209278	-0.458890	99
Es	0.272261	-1.374810	-0.797499	99
Es	-1.846226	2.035615	-0.545330	99
Es	-0.027018	1.103170	-0.302295	99
Es	0.145180	-1.456092	1.340646	99
Es	-0.743042	-2.159848	0.922184	99
Es	-0.962470	-1.039390	1.287664	99
Es	2.308383	0.737750	-0.371553	99
Es	2.368202	0.733917	-0.330074	99
Es	-0.122615	1.927747	-0.392111	99
Es	-1.776270	1.195962	-0.667291	99
