48
Properties=species:S:1:pos:R:3:Z:I:1 energy=-289.2734220385106 field_type=dipole dipole="0.000000 0.000000 0.000000" charge=0
C	-0.342215	-1.911343	-1.183323	6
C	-1.095195	-1.138473	-0.106443	6
N	-0.640955	0.257447	0.026467	7
C	-1.541715	0.977307	0.933097	6
C	0.761315	0.361877	0.480497	6
C	1.846505	0.540697	-0.549773	6
C	1.491125	1.674437	0.361527	6
H	-0.797846	-2.897713	-1.321593	1
H	0.705644	-2.069933	-0.910203	1
H	-0.377085	-1.388623	-2.144773	1
H	-1.012256	-1.670483	0.849767	1
H	-2.155675	-1.145853	-0.389053	1
H	-2.572445	0.946537	0.562867	1
H	-1.266175	2.035617	0.994937	1
H	-1.521686	0.559027	1.945977	1
H	1.010624	-0.239693	1.353677	1
H	1.559074	0.624627	-1.591823	1
H	2.787084	0.028887	-0.387923	1
H	2.190404	1.934667	1.146907	1
H	0.971464	2.520987	-0.070813	1
Es	-0.640699	0.257049	0.026977	99
Es	0.761872	0.362462	0.479892	99
Es	-1.094896	-1.138474	-0.106706	99
Es	-1.541521	0.977153	0.932924	99
Es	1.491193	1.673811	0.361258	99
Es	1.845950	0.541092	-0.549024	99
Es	-0.342488	-1.911026	-1.182899	99
Es	-0.060935	0.276739	0.267003	99
Es	1.946593	1.844165	0.895646	99
Es	-0.706109	-1.514513	-0.651951	99
Es	-1.345460	1.693094	0.981937	99
Es	0.361278	-2.011298	-0.997462	99
Es	1.646061	0.583968	-1.229706	99
Es	0.918431	-0.058669	1.071709	99
Es	2.475797	0.184251	-0.437496	99
Es	-1.017807	0.543695	0.456274	99
Es	-0.810506	-0.337728	0.024688	99
Es	-1.034551	-1.501494	0.561768	99
Es	-1.522900	0.677567	1.630172	99
Es	-2.247634	0.948488	0.676704	99
Es	-0.658106	-2.590002	-1.276868	99
Es	1.139948	2.226421	0.085553	99
Es	-0.361475	-1.559402	-1.821311	99
Es	1.767002	1.195742	-0.158909	99
Es	-1.812654	-1.134243	-0.289523	99
Es	1.315093	0.279430	-0.126769	99
Es	1.033210	1.141288	0.559107	99
Es	-0.633639	0.417216	-0.333324	99
