42
Properties=species:S:1:pos:R:3:Z:I:1 energy=-286.9033040920689 field_type=dipole dipole="0.000000 0.000000 0.000000" charge=0
C	-1.636078	-0.171061	0.512021	6
C	-0.109968	-0.154911	0.346131	6
N	0.483122	-0.861731	1.482991	7
C	0.263882	-0.925961	-0.901019	6
C	0.866322	-0.485001	-2.016989	6
C	0.372052	1.206259	0.346131	6
C	0.769332	2.328159	0.346131	6
H	-2.132658	0.335939	-0.325259	1
H	-1.949098	0.343649	1.429541	1
H	-2.030828	-1.193871	0.556681	1
H	0.244012	-0.359281	2.335781	1
H	1.496602	-0.793401	1.398311	1
H	-0.002048	-1.983281	-0.870989	1
H	1.168702	0.548869	-2.146799	1
H	1.071352	-1.166861	-2.836339	1
H	1.125302	3.332479	0.343681	1
Es	0.483183	-0.861307	1.482856	99
Es	-0.109753	-0.154847	0.346323	99
Es	0.264077	-0.926098	-0.901398	99
Es	0.372269	1.206711	0.345955	99
Es	0.866381	-0.484279	-2.016625	99
Es	-1.635150	-0.170993	0.511917	99
Es	0.769838	2.329449	0.345939	99
Es	0.268363	-0.500273	1.021462	99
Es	0.691813	-0.569034	-1.607123	99
Es	0.837921	2.568293	0.343929	99
Es	0.063666	-1.618906	-0.841641	99
Es	0.142228	0.565071	0.326402	99
Es	0.999088	0.051809	-1.957202	99
Es	0.703740	2.117117	0.338086	99
Es	1.034290	-0.769897	1.432946	99
Es	0.370401	-0.536565	1.926780	99
Es	0.985064	-0.890584	-2.506406	99
Es	-0.844408	-0.151080	0.417125	99
Es	-1.886694	-0.862171	0.534615	99
Es	-1.828342	0.179034	1.138940	99
Es	-1.954059	0.174963	-0.055368	99
Es	0.104752	-0.507730	-0.321397	99
Es	0.361075	-1.233418	1.493425	99
Es	0.583430	1.774628	0.345348	99
Es	0.580215	1.777245	0.355702	99
Es	0.526306	-0.693435	-1.479760	99
