50
Properties=species:S:1:pos:R:3:Z:I:1 energy=-306.4928949722111 field_type=dipole dipole="0.000000 0.000000 0.000000" charge=0
C	-2.492307	-0.149647	-0.325150	6
C	-0.993617	-0.446307	-0.402950	6
N	-0.688357	-1.097917	-1.679231	7
C	-0.179997	0.849083	-0.246810	6
C	1.344113	0.664183	-0.275320	6
C	1.904853	-0.261397	0.806190	6
N	1.595284	0.222783	2.147400	7
H	-2.744427	0.309343	0.636740	1
H	-3.079867	-1.069747	-0.416560	1
H	-2.809637	0.535283	-1.118981	1
H	-0.745707	-1.139987	0.407510	1
H	-0.944327	-0.478407	-2.447360	1
H	-1.270987	-1.927767	-1.783380	1
H	-0.464967	1.341553	0.691330	1
H	-0.451167	1.550413	-1.047150	1
H	1.811633	1.652603	-0.178390	1
H	1.650573	0.282093	-1.256970	1
H	2.993643	-0.321067	0.694100	1
H	1.517893	-1.278297	0.686730	1
H	2.004323	1.147063	2.275790	1
H	2.043043	-0.383857	2.832470	1
Es	1.595481	0.222773	2.147255	99
Es	-0.688806	-1.097728	-1.679116	99
Es	-0.993331	-0.446347	-0.403051	99
Es	1.904436	-0.260833	0.806208	99
Es	1.343763	0.663980	-0.275035	99
Es	-0.179554	0.848578	-0.246840	99
Es	-2.491587	-0.149744	-0.325196	99
Es	-0.296639	-1.187421	-1.695570	99
Es	1.762557	0.038338	1.621319	99
Es	-0.363493	1.321247	-0.799845	99
Es	-1.762311	-0.287865	-0.355541	99
Es	-0.822189	-0.923706	0.142219	99
Es	-0.585622	0.198706	-0.327418	99
Es	0.584028	0.731907	-0.244691	99
Es	-1.071037	-1.545800	-1.730043	99
Es	1.904725	-0.121202	2.514562	99
Es	2.656277	-0.299676	0.719595	99
Es	-0.859377	-0.820672	-1.178169	99
Es	1.880034	0.743470	2.202549	99
Es	-2.660641	0.161024	0.320189	99
Es	-2.889816	-0.791199	-0.391767	99
Es	-0.376335	1.174922	0.370678	99
Es	1.640006	-0.949365	0.732912	99
Es	-2.694087	0.322635	-0.871930	99
Es	1.552524	0.413294	-0.931107	99
Es	1.607101	0.193480	0.265508	99
Es	1.658596	1.344043	-0.194793	99
Es	1.196702	0.227023	2.195883	99
Es	-0.885073	-0.734605	-2.094020	99
