46
Properties=species:S:1:pos:R:3:Z:I:1 energy=-272.09979828977674 field_type=dipole dipole="0.000000 0.000000 0.000000" charge=0
C	-2.013058	-1.023823	0.488204	6
C	-1.023848	-1.307433	-0.630446	6
C	0.319692	-0.711793	-0.338456	6
C	1.179042	-0.201453	-1.463816	6
C	0.552202	0.772557	-0.498556	6
C	1.404952	1.449907	0.480654	6
C	1.006782	1.890167	1.682574	6
H	-2.969528	-1.514853	0.285014	1
H	-2.195788	0.051477	0.584774	1
H	-1.636448	-1.386853	1.449914	1
H	-1.427938	-0.923423	-1.574466	1
H	-0.910798	-2.391333	-0.748066	1
H	0.819132	-1.227743	0.475554	1
H	0.786282	-0.226543	-2.474456	1
H	2.245692	-0.388373	-1.407886	1
H	-0.265018	1.378537	-0.879196	1
H	2.443792	1.612327	0.199734	1
H	-0.016998	1.762408	2.016874	1
H	1.701862	2.386237	2.352044	1
Es	1.404862	1.449707	0.480370	99
Es	0.552564	0.772291	-0.498485	99
Es	0.319724	-0.711657	-0.338697	99
Es	1.178657	-0.201153	-1.463342	99
Es	-1.023671	-1.307166	-0.630234	99
Es	1.006867	1.889637	1.681675	99
Es	-2.012550	-1.023973	0.487641	99
Es	0.328358	0.117990	-0.253870	99
Es	1.493144	2.208061	2.125891	99
Es	-0.327582	-0.980588	-0.478935	99
Es	-2.672755	-1.359294	0.352048	99
Es	0.970464	1.124785	0.007124	99
Es	0.647155	-1.033152	0.199777	99
Es	2.109484	1.551633	0.270629	99
Es	1.883635	-0.318598	-1.420689	99
Es	0.916827	-0.222570	-2.125819	99
Es	1.157137	1.668151	1.164754	99
Es	-0.937924	-2.038184	-0.714541	99
Es	0.327278	1.770705	1.848389	99
Es	-1.750126	-1.265933	1.136981	99
Es	-1.501160	-1.152346	-0.074270	99
Es	0.009200	1.148758	-0.731500	99
Es	-2.129885	-0.299449	0.552541	99
Es	-1.288859	-1.037664	-1.269174	99
Es	0.773906	-0.659812	-0.983000	99
Es	0.942782	0.414223	-1.084084	99
Es	1.203325	1.706621	1.089637	99
