45
Properties=species:S:1:pos:R:3:Z:I:1 energy=-288.0865462018385 field_type=dipole dipole="0.000000 0.000000 0.000000" charge=0
C	-1.822631	-0.186993	-1.042278	6
N	-0.368461	-0.224163	-0.974138	7
C	0.150009	-1.297443	-0.118658	6
C	1.011959	-0.485583	0.835292	6
C	1.676439	0.583587	-0.084528	6
C	0.169439	0.974277	-0.286438	6
C	0.066449	0.673617	1.250942	6
H	-2.197341	-1.090123	-1.536668	1
H	-2.151141	0.666027	-1.646388	1
H	-2.305991	-0.113213	-0.062368	1
H	0.750139	-2.001373	-0.704298	1
H	-0.625891	-1.854733	0.419432	1
H	1.610219	-0.980843	1.597452	1
H	2.220399	0.216677	-0.961198	1
H	2.299929	1.329887	0.422412	1
H	-0.075711	1.961287	-0.676838	1
H	0.502989	1.432797	1.911802	1
H	-0.910801	0.396317	1.656462	1
Es	-0.368435	-0.224506	-0.973059	99
Es	0.169222	0.976513	-0.286755	99
Es	0.150355	-1.296618	-0.118344	99
Es	-1.822223	-0.187021	-1.042217	99
Es	1.012962	-0.486843	0.836989	99
Es	0.065556	0.672739	1.250644	99
Es	1.675998	0.583098	-0.084835	99
Es	-0.181948	0.288759	-0.631565	99
Es	0.513074	0.045876	1.138469	99
Es	-0.017887	1.639766	-0.563654	99
Es	-2.042645	0.402856	-1.444782	99
Es	2.041326	0.339265	-0.665877	99
Es	0.373996	1.186061	1.680283	99
Es	0.612969	-0.910069	0.390339	99
Es	1.415329	-0.838222	1.349840	99
Es	-0.596518	0.487459	1.532518	99
Es	-0.389797	-1.673161	0.237302	99
Es	-2.080199	-0.813179	-1.370347	99
Es	-2.140736	-0.135290	-0.364826	99
Es	-0.988948	-0.207885	-0.948759	99
Es	2.083811	1.094295	0.269970	99
Es	0.550748	-1.774934	-0.512871	99
Es	-0.201338	-0.666420	-0.591699	99
Es	0.019905	0.895288	0.503648	99
Es	1.441584	-0.008520	0.371794	99
Es	0.958067	0.836336	-0.277544	99
Es	-0.204657	-0.259664	-1.331618	99
