43
Properties=species:S:1:pos:R:3:Z:I:1 energy=-270.95769032403405 field_type=dipole dipole="0.000000 0.000000 0.000000" charge=0
C	-2.004853	-1.957680	-0.178504	6
C	-0.676753	-1.799360	-0.160524	6
C	0.008627	-0.543180	-0.016314	6
C	1.340357	-0.408380	0.038346	6
C	1.753847	1.013640	0.221756	6
C	0.469177	1.781200	-0.076134	6
C	-0.674873	0.785670	0.118026	6
H	-2.437203	-2.947390	-0.290524	1
H	-2.695113	-1.126260	-0.081924	1
H	-0.051683	-2.686240	-0.258834	1
H	2.051707	-1.221640	-0.011434	1
H	2.095607	1.180580	1.248356	1
H	2.552547	1.298300	-0.469344	1
H	0.480737	2.132170	-1.116534	1
H	0.359057	2.665050	0.560536	1
H	-1.448673	0.944870	-0.639694	1
H	-1.122513	0.888650	1.112746	1
Es	-0.675720	-1.800856	-0.160662	99
Es	0.008203	-0.543750	-0.016366	99
Es	-2.004430	-1.957459	-0.178528	99
Es	1.347629	-0.412198	0.038109	99
Es	-0.674295	0.785792	0.117899	99
Es	1.752968	1.012939	0.221498	99
Es	0.469290	1.780249	-0.075459	99
Es	1.458797	-0.589581	0.017473	99
Es	-1.367561	-1.817451	-0.141518	99
Es	-1.200637	0.882758	-0.394820	99
Es	-2.426708	-1.393394	-0.114460	99
Es	-0.192019	-2.225343	-0.205725	99
Es	1.158344	1.399221	0.087695	99
Es	0.982224	-0.513250	0.021574	99
Es	-0.383617	-1.354512	-0.112233	99
Es	1.967295	1.122065	0.904502	99
Es	1.548611	-0.075862	0.088681	99
Es	-0.973237	0.848812	0.789416	99
Es	-2.265621	-2.606650	-0.258740	99
Es	-0.362084	0.069148	0.043917	99
Es	0.473668	2.011106	-0.784488	99
Es	2.287934	1.206308	-0.238582	99
Es	-0.111328	1.293727	0.030785	99
Es	0.389230	2.380417	0.357260	99
Es	-1.335616	-1.856548	-0.180018	99
Es	0.634374	-0.505529	0.000081	99
