45
Properties=species:S:1:pos:R:3:Z:I:1 energy=-288.12342085574414 field_type=dipole dipole="0.000000 0.000000 0.000000" charge=0
C	-1.869746	-0.037908	0.479762	6
N	-0.519426	-0.066648	1.032682	7
C	0.255984	1.128922	0.664112	6
C	0.710734	1.184212	-0.806808	6
C	1.209994	-0.140238	-1.299399	6
C	0.974724	-1.262608	-0.607788	6
C	0.196664	-1.301388	0.679062	6
H	-2.397516	0.862752	0.813572	1
H	-2.451966	-0.886328	0.857842	1
H	-1.891146	-0.066648	-0.613848	1
H	1.144734	1.165332	1.308212	1
H	-0.309786	2.037932	0.903522	1
H	1.508774	1.929302	-0.902228	1
H	-0.115626	1.507372	-1.450208	1
H	1.778294	-0.167868	-2.224888	1
H	1.370964	-2.207348	-0.968188	1
H	-0.498526	-2.149968	0.647482	1
H	0.902874	-1.528868	1.487112	1
Es	-0.519043	-0.066878	1.032192	99
Es	0.197068	-1.301163	0.678461	99
Es	0.255960	1.128547	0.663509	99
Es	-1.869428	-0.037908	0.479841	99
Es	1.210607	-0.140093	-1.300377	99
Es	0.974860	-1.263221	-0.607911	99
Es	0.710805	1.183606	-0.806889	99
Es	-0.216586	-0.580538	0.809010	99
Es	1.025376	-0.665577	-0.949429	99
Es	0.968792	0.451723	-1.051467	99
Es	-1.871916	-0.058894	-0.273673	99
Es	-0.201485	0.418848	0.806268	99
Es	0.611583	-1.271189	-0.010480	99
Es	0.670975	-1.444627	1.207330	99
Es	1.242617	-1.885011	-0.868726	99
Es	1.568783	-0.161287	-1.876678	99
Es	-0.276985	-1.860860	0.657109	99
Es	-1.080142	-0.055157	0.747669	99
Es	0.500588	1.152894	-0.124755	99
Es	1.238867	1.680628	-0.869941	99
Es	0.160085	1.395380	-1.227581	99
Es	-2.218819	0.588373	0.699574	99
Es	-2.263215	-0.626870	0.734780	99
Es	0.863668	1.146601	1.100424	99
Es	-0.143247	1.742030	0.817695	99
Es	-0.541918	-0.059412	1.421979	99
Es	1.137888	-0.696617	-0.936918	99
