40
Properties=species:S:1:pos:R:3:Z:I:1 energy=-269.7716484617907 field_type=dipole dipole="0.000000 0.000000 0.000000" charge=0
C	-1.939848	-1.834798	-0.460189	6
C	-0.668648	-1.632148	-0.093849	6
C	-0.028168	-0.343328	0.010431	6
C	1.275762	-0.195028	0.320371	6
C	1.649072	1.256592	0.364971	6
C	0.348612	1.919262	0.038121	6
C	-0.593548	0.986322	-0.158399	6
H	-2.341108	-2.841878	-0.513069	1
H	-2.609908	-1.022048	-0.717429	1
H	-0.056668	-2.499848	0.145491	1
H	1.975592	-0.994578	0.513621	1
H	2.413302	1.491622	-0.381329	1
H	2.001612	1.543572	1.359871	1
H	0.200222	2.986312	-0.024519	1
H	-1.626278	1.179972	-0.404089	1
Es	-0.667954	-1.633122	-0.093592	99
Es	-0.028331	-0.343562	0.010415	99
Es	1.648724	1.256362	0.364890	99
Es	0.348691	1.920623	0.038086	99
Es	-0.594338	0.986439	-0.158538	99
Es	1.283626	-0.200829	0.322382	99
Es	-1.939390	-1.834368	-0.459982	99
Es	1.561473	-0.462922	0.403792	99
Es	-0.218882	-2.140671	0.066663	99
Es	-1.231339	1.082790	-0.322395	99
Es	-0.365200	0.371226	-0.090745	99
Es	-2.349035	-1.255194	-0.619028	99
Es	0.949524	1.650392	0.189854	99
Es	0.785154	-0.300601	0.220792	99
Es	-0.122400	1.400078	-0.157695	99
Es	-1.353592	-1.693517	-0.241540	99
Es	2.135696	1.402338	-0.121865	99
Es	-0.400422	-1.055418	-0.052284	99
Es	0.284395	2.590895	0.015109	99
Es	1.867479	1.435544	1.007187	99
Es	1.474717	0.260166	0.354127	99
Es	-2.191826	-2.511590	-0.487625	99
Es	-1.283292	-1.717296	-0.323358	99
Es	-0.139512	1.431663	0.037188	99
Es	0.593666	-0.280548	0.137136	99
