43
Properties=species:S:1:pos:R:3:Z:I:1 energy=-270.94399524612396 field_type=dipole dipole="0.000000 0.000000 0.000000" charge=0
C	-1.638201	-1.611799	-0.451494	6
C	-0.783901	-1.339719	0.543716	6
C	0.471999	-0.488479	0.492696	6
C	1.017119	-0.107479	-0.900564	6
C	0.598999	1.318061	-1.064704	6
C	0.181999	1.847291	0.089196	6
C	0.245519	0.859521	1.210546	6
H	-2.507231	-2.238939	-0.274244	1
H	-1.519921	-1.211929	-1.452464	1
H	-1.001771	-1.768799	1.521996	1
H	1.243879	-1.062789	1.022316	1
H	0.642709	-0.739559	-1.709334	1
H	2.112099	-0.163129	-0.914784	1
H	0.663619	1.855241	-2.000784	1
H	-0.140501	2.871581	0.215576	1
H	1.087879	1.102341	1.867926	1
H	-0.674291	0.878591	1.804406	1
Es	0.471712	-0.488392	0.492535	99
Es	-0.784057	-1.339886	0.543983	99
Es	0.245591	0.859288	1.209644	99
Es	1.016717	-0.106992	-0.900138	99
Es	0.181671	1.848038	0.089527	99
Es	0.599037	1.318163	-1.064969	99
Es	-1.638040	-1.611657	-0.451264	99
Es	0.199361	1.442187	0.587187	99
Es	-1.515662	-1.322325	-1.076026	99
Es	0.786931	0.695229	-1.016778	99
Es	-0.032600	2.466850	0.215015	99
Es	-0.896446	-1.618547	1.216311	99
Es	0.989090	-0.876403	0.859364	99
Es	0.391767	1.583709	-0.475012	99
Es	-0.360018	0.866436	1.608962	99
Es	-2.213970	-2.027896	-0.316251	99
Es	-1.281377	-1.426600	-0.018188	99
Es	0.806413	1.013993	1.643841	99
Es	1.742714	-0.149321	-0.901775	99
Es	0.656897	1.622006	-1.683337	99
Es	0.335570	0.168013	0.871773	99
Es	0.764429	-0.528666	-1.434178	99
Es	-0.199604	-0.933897	0.478761	99
Es	0.743725	-0.315699	-0.228942	99
Es	-1.197070	-1.538903	0.011383	99
Es	0.377777	1.581574	-0.490511	99
