48
Properties=species:S:1:pos:R:3:Z:I:1 energy=-289.28010737233683 field_type=dipole dipole="0.000000 0.000000 0.000000" charge=0
C	-2.944369	0.710367	-0.694137	6
N	-1.503119	0.669577	-0.900067	7
C	-0.882309	-0.355123	-0.058877	6
C	0.619211	-0.392903	-0.311677	6
C	1.471131	0.774737	0.261472	6
C	2.560991	-0.269953	0.573732	6
C	1.437091	-1.324523	0.622512	6
H	-3.384609	1.473207	-1.343507	1
H	-3.194789	0.964927	0.342253	1
H	-3.409349	-0.247513	-0.948967	1
H	-1.109459	1.581397	-0.668767	1
H	-1.306639	-1.337183	-0.299257	1
H	-1.085679	-0.152593	0.999693	1
H	0.845841	-0.589693	-1.370788	1
H	1.049321	1.248817	1.155652	1
H	1.752961	1.551797	-0.453737	1
H	3.273901	-0.422513	-0.244477	1
H	3.112471	-0.118683	1.504852	1
H	1.690551	-2.305013	0.211423	1
H	1.006851	-1.459133	1.622672	1
Es	-1.502688	0.669637	-0.899750	99
Es	-0.881856	-0.354718	-0.059276	99
Es	-2.943956	0.710357	-0.694196	99
Es	0.618654	-0.392918	-0.311422	99
Es	1.471281	0.774176	0.261179	99
Es	2.560121	-0.269938	0.573806	99
Es	1.437201	-1.324071	0.621966	99
Es	-1.268057	0.277588	-0.501661	99
Es	1.603279	-1.997542	0.348518	99
Es	-0.119020	-0.377825	-0.190589	99
Es	1.655024	1.310501	-0.221821	99
Es	-3.111961	0.879827	0.022585	99
Es	3.033986	-0.372047	0.020243	99
Es	0.767408	-0.520781	-1.004586	99
Es	-1.290976	1.195337	-0.716176	99
Es	0.959312	-0.951176	0.155609	99
Es	2.942679	-0.166705	1.209040	99
Es	-2.117532	0.693589	-0.762010	99
Es	-3.251593	1.237424	-1.137524	99
Es	-1.184720	-1.017438	-0.216121	99
Es	1.185941	1.084892	0.865959	99
Es	-3.250011	0.051476	-0.856265	99
Es	-1.014095	-0.215109	0.667324	99
Es	2.084824	0.324441	0.426157	99
Es	1.146937	-1.403410	1.298277	99
Es	0.969817	0.275706	-0.063736	99
Es	2.060813	-0.857789	0.621035	99
Es	-1.409143	0.575831	-1.272802	99
