37
Properties=species:S:1:pos:R:3:Z:I:1 energy=-268.5609536185232 field_type=dipole dipole="0.000000 0.000000 0.000000" charge=0
C	-3.180084	0.020782	-0.002912	6
C	-1.989924	0.020782	-0.002912	6
C	-0.583924	0.020782	-0.002912	6
C	0.195846	-1.071328	0.002148	6
C	1.637396	-0.656588	0.004208	6
C	1.532306	0.841462	-0.000502	6
C	0.240676	1.204312	-0.004602	6
H	-4.244964	0.020532	-0.002912	1
H	-0.147344	-2.094648	0.005688	1
H	2.154756	-1.020048	-0.888431	1
H	2.150296	-1.014578	0.901648	1
H	2.376116	1.514912	-0.000302	1
H	-0.141154	2.213622	-0.008212	1
Es	-0.584432	0.020835	-0.002913	99
Es	1.637104	-0.656387	0.004207	99
Es	0.195408	-1.077194	0.002172	99
Es	1.532224	0.841342	-0.000502	99
Es	0.240221	1.206301	-0.004608	99
Es	-1.989281	0.020736	-0.002913	99
Es	-3.182460	0.020837	-0.002909	99
Es	-0.183513	-0.634567	0.000465	99
Es	-3.361509	0.022181	-0.003090	99
Es	0.008223	1.792875	-0.006822	99
Es	0.739453	-0.971438	0.003056	99
Es	-1.308527	0.023206	-0.002975	99
Es	2.111816	1.261260	-0.000233	99
Es	0.070504	-1.556640	0.003972	99
Es	-2.996428	0.006772	-0.003039	99
Es	1.954413	-0.883141	0.581529	99
Es	0.780314	1.031948	-0.003578	99
Es	-0.181124	0.690053	-0.004071	99
Es	1.957443	-0.886654	-0.570080	99
Es	1.609425	0.139206	0.001797	99
Es	-2.565490	0.019251	-0.002543	99
Es	-2.591222	0.038895	-0.002984	99
Es	0.869563	0.999491	-0.001699	99
Es	-0.235615	-0.480808	-0.001580	99
