44
Properties=species:S:1:pos:R:3:Z:I:1 energy=-304.09299596080314 field_type=dipole dipole="0.000000 0.000000 0.000000" charge=0
C	-1.808396	-1.183349	0.812855	6
N	-0.422536	-0.813809	0.572655	7
C	-0.163006	0.223141	-0.161865	6
C	-1.259786	1.072111	-0.784375	6
N	1.124694	0.667021	-0.460105	7
C	2.167284	-0.359289	-0.622425	6
C	2.147034	0.511421	0.587185	6
H	-1.830666	-2.093709	1.420475	1
H	-2.338006	-1.405279	-0.118655	1
H	-2.340956	-0.408209	1.372295	1
H	-1.847316	0.465091	-1.479255	1
H	-0.831286	1.912301	-1.338825	1
H	-1.911276	1.472171	-0.003065	1
H	2.859644	-0.129859	-1.418915	1
H	1.832294	-1.384199	-0.541045	1
H	1.797124	0.103971	1.525675	1
H	2.825154	1.350481	0.637395	1
Es	1.124790	0.666669	-0.459849	99
Es	-0.422670	-0.813460	0.572411	99
Es	-0.162394	0.223103	-0.161819	99
Es	2.146512	0.511378	0.586532	99
Es	2.166745	-0.358694	-0.622189	99
Es	-1.808199	-1.183141	0.812718	99
Es	-1.259709	1.071777	-0.784127	99
Es	0.579951	0.419246	-0.290892	99
Es	-0.152008	-1.049678	0.744705	99
Es	1.941124	-1.039129	-0.575848	99
Es	-1.691693	1.324731	-0.263028	99
Es	-2.160301	-1.313965	0.174292	99
Es	1.910944	0.248271	1.211874	99
Es	1.469060	0.179337	-0.580818	99
Es	2.630417	-0.201675	-1.160529	99
Es	-1.833797	-1.808619	1.229283	99
Es	-1.648073	0.661895	-1.235168	99
Es	-0.667971	0.656885	-0.476549	99
Es	-0.337015	-0.343669	0.238679	99
Es	-2.162496	-0.643394	1.176787	99
Es	-0.984995	1.630741	-1.152425	99
Es	2.600694	1.078863	0.618966	99
Es	1.453013	0.634135	0.045029	99
Es	2.314809	-0.016182	0.051353	99
Es	1.164103	0.983425	-0.686061	99
Es	-1.009733	-0.902407	0.625262	99
Es	-0.349280	-0.442925	0.310167	99
