43
Properties=species:S:1:pos:R:3:Z:I:1 energy=-270.9520172478667 field_type=dipole dipole="0.000000 0.000000 0.000000" charge=0
C	-1.997691	-1.547190	0.350141	6
C	-0.577311	-1.409790	-0.088589	6
C	0.159089	-0.287910	-0.006529	6
C	1.574399	-0.153060	-0.513649	6
C	1.817709	1.325310	-0.512949	6
C	0.789149	1.995130	0.019771	6
C	-0.306281	1.071390	0.458991	6
H	-2.133101	-2.500540	0.871991	1
H	-2.661661	-1.536370	-0.519659	1
H	-2.305341	-0.750370	1.035521	1
H	-0.123711	-2.303850	-0.510819	1
H	1.679049	-0.559750	-1.523639	1
H	2.281459	-0.647950	0.161111	1
H	2.721829	1.779890	-0.893119	1
H	0.740939	3.069070	0.131561	1
H	-0.405031	1.101420	1.549501	1
H	-1.253491	1.354570	-0.009639	1
Es	0.159180	-0.287890	-0.006583	99
Es	-0.305884	1.071471	0.458851	99
Es	1.818256	1.325530	-0.513193	99
Es	1.574207	-0.152568	-0.513474	99
Es	0.788805	1.996958	0.020044	99
Es	-0.576658	-1.410345	-0.088979	99
Es	-1.997185	-1.547112	0.349915	99
Es	0.341243	1.637575	0.202697	99
Es	-1.252793	-1.411286	0.139722	99
Es	2.400211	1.579119	-0.763760	99
Es	1.296194	1.668360	-0.251573	99
Es	-0.300466	-0.949869	-0.071166	99
Es	1.630586	-0.437598	-1.177725	99
Es	-0.103597	0.416789	0.253161	99
Es	-0.213280	-1.901411	-0.379267	99
Es	-0.376861	1.082885	1.171507	99
Es	-2.093812	-2.190504	0.699166	99
Es	-2.429709	-1.527018	-0.224391	99
Es	2.021706	-0.490231	-0.060085	99
Es	0.687088	2.596261	0.119138	99
Es	-0.933572	1.252068	0.155857	99
Es	-2.193202	-1.025328	0.791930	99
Es	1.703218	0.661909	-0.515260	99
Es	0.908193	-0.261135	-0.282827	99
Es	1.302297	1.661413	-0.243487	99
Es	-0.198896	-0.880309	-0.003657	99
