42
Properties=species:S:1:pos:R:3:Z:I:1 energy=-286.8890621580493 field_type=dipole dipole="0.000000 0.000000 0.000000" charge=0
N	-1.967820	0.489302	-0.353461	7
C	-0.514080	0.482712	-0.495311	6
C	0.087390	1.520172	0.478019	6
C	1.155070	0.455122	0.818149	6
C	0.106690	-0.620198	0.414269	6
C	0.635880	-1.780848	-0.274421	6
C	1.073040	-2.745078	-0.838901	6
H	-2.417250	-0.312738	-0.795641	1
H	-2.412160	1.313682	-0.756091	1
H	-0.137360	0.537402	-1.522291	1
H	-0.536670	1.791392	1.338869	1
H	0.469380	2.435762	0.018189	1
H	2.041440	0.505012	0.173519	1
H	1.479320	0.433802	1.862289	1
H	-0.524980	-0.901698	1.269769	1
H	1.462110	-3.603798	-1.336961	1
Es	-1.967683	0.489312	-0.354070	99
Es	-0.514400	0.482124	-0.494632	99
Es	0.107221	-0.621203	0.413551	99
Es	1.154177	0.454518	0.817868	99
Es	0.635236	-1.779610	-0.273579	99
Es	0.087837	1.519554	0.477515	99
Es	1.073996	-2.746615	-0.840117	99
Es	-2.191731	0.046460	-0.662101	99
Es	0.692684	-0.187392	0.623437	99
Es	1.140036	-2.868631	-0.958504	99
Es	0.344795	2.148739	0.169712	99
Es	1.382063	0.434396	1.523096	99
Es	-0.308552	-0.816824	0.964970	99
Es	0.384866	-1.249752	0.056681	99
Es	1.029169	-2.613168	-0.794213	99
Es	-1.403640	0.486330	-0.485953	99
Es	-2.187712	0.948533	-0.638573	99
Es	-0.254465	0.514156	-1.182212	99
Es	-0.331621	1.688041	1.044730	99
Es	-0.234085	-0.177236	-0.091836	99
Es	0.672874	1.046360	0.690758	99
Es	1.732523	0.482249	0.378713	99
Es	-0.270482	1.073864	-0.050542	99
Es	-2.017398	0.477192	0.037021	99
Es	0.838934	-2.300198	-0.540523	99
Es	0.877706	-2.276558	-0.547900	99
