46
Properties=species:S:1:pos:R:3:Z:I:1 energy=-272.086500309737 field_type=dipole dipole="0.000000 0.000000 0.000000" charge=0
C	-1.244108	0.004744	-1.081664	6
C	0.181342	-0.004326	-0.572934	6
C	1.181712	-0.769016	-1.424094	6
C	1.194912	0.729944	-1.435564	6
C	0.370592	0.005314	0.967666	6
C	-0.520568	0.765834	1.919386	6
C	-0.527388	-0.734886	1.928856	6
H	-1.287048	-0.004046	-2.176834	1
H	-1.770658	0.902394	-0.743404	1
H	-1.787458	-0.877016	-0.728464	1
H	0.826742	-1.282046	-2.311044	1
H	1.995802	-1.280856	-0.923794	1
H	2.018012	1.234744	-0.942784	1
H	0.849212	1.235904	-2.329994	1
H	1.424512	0.002254	1.259176	1
H	-1.393008	1.275964	1.531726	1
H	-0.048218	1.278354	2.750316	1
H	-0.059888	-1.241296	2.766176	1
H	-1.404498	-1.241966	1.547266	1
Es	0.181620	-0.004330	-0.573169	99
Es	0.371031	0.005315	0.967938	99
Es	-0.520128	0.765003	1.919270	99
Es	-0.526939	-0.734060	1.928727	99
Es	1.181744	-0.767930	-1.424087	99
Es	1.194926	0.728859	-1.435545	99
Es	-1.243665	0.004740	-1.081545	99
Es	1.276116	-0.020653	-1.505709	99
Es	-0.036701	-0.583711	1.376304	99
Es	-1.584256	0.610297	-0.836661	99
Es	1.062668	0.003030	1.115184	99
Es	1.698899	-1.102530	-1.087568	99
Es	0.958460	1.061200	-2.005275	99
Es	-0.515499	0.000071	-0.820310	99
Es	1.717736	1.059195	-1.103887	99
Es	-0.218068	-1.083422	2.481172	99
Es	0.939341	-1.104572	-1.989152	99
Es	-1.094167	-1.059511	1.669061	99
Es	-1.595484	-0.590037	-0.826630	99
Es	-1.249161	-0.001591	-1.826405	99
Es	-1.084457	1.092455	1.655552	99
Es	-0.207819	1.118320	2.467236	99
Es	0.265363	0.000976	0.248402	99
Es	-0.031721	0.603047	1.369258	99
Es	-0.640249	0.016727	2.029128	99
Es	0.641630	-0.593992	-0.975205	99
Es	0.652614	0.571073	-0.984369	99
