42
Properties=species:S:1:pos:R:3:Z:I:1 energy=-286.91093901857414 field_type=dipole dipole="0.000000 0.000000 0.000000" charge=0
N	-2.850263	-1.065587	0.330229	7
C	-1.390363	-1.026777	0.382529	6
C	-0.871823	0.410683	0.261939	6
C	0.629647	0.460923	0.322699	6
C	1.402916	0.914463	-0.673751	6
C	2.818577	0.942793	-0.556721	6
C	4.013717	0.968483	-0.461821	6
H	-3.161553	-2.034967	0.383789	1
H	-3.169613	-0.715407	-0.572381	1
H	-0.985523	-1.645627	-0.426661	1
H	-1.060463	-1.467447	1.330219	1
H	-1.271303	1.020893	1.081459	1
H	-1.234123	0.858063	-0.672371	1
H	1.088227	0.113483	1.247099	1
H	0.966256	1.274333	-1.600611	1
H	5.075686	0.991693	-0.375641	1
Es	-2.850448	-1.065356	0.330513	99
Es	-1.390723	-1.026120	0.382416	99
Es	0.629885	0.460896	0.322829	99
Es	1.403534	0.914660	-0.673815	99
Es	-0.871238	0.410695	0.261949	99
Es	2.819135	0.942717	-0.556593	99
Es	4.015783	0.968383	-0.461381	99
Es	-2.991086	-1.636888	0.316813	99
Es	1.052497	0.590134	-0.223242	99
Es	-1.106228	-1.444715	-0.170240	99
Es	4.463880	0.964011	-0.426143	99
Es	-0.036334	0.446690	0.269286	99
Es	-1.110259	0.695246	-0.360493	99
Es	2.068553	0.922418	-0.598547	99
Es	3.539676	0.929098	-0.474425	99
Es	-2.996654	-0.897139	-0.216806	99
Es	-2.261415	-1.074534	0.308973	99
Es	1.198620	1.151800	-1.238776	99
Es	-1.164221	-1.329261	1.025967	99
Es	-1.103609	-0.281171	0.313369	99
Es	0.931135	0.232864	0.914355	99
Es	-1.129835	0.811559	0.798991	99
Es	3.405256	0.978172	-0.494845	99
Es	-2.998497	-0.847256	0.629563	99
Es	3.416620	0.973163	-0.548156	99
Es	1.088761	0.798040	-0.186374	99
