42
Properties=species:S:1:pos:R:3:Z:I:1 energy=-343.81605827954866 field_type=dipole dipole="0.000000 0.000000 0.000000" charge=0
C	-1.221236	-0.424581	-0.646697	6
O	-1.156706	1.016909	-0.669997	8
C	-0.003066	1.330079	0.129713	6
C	-0.013856	0.273919	1.213303	6
C	-0.001446	-0.825151	0.175403	6
C	1.236884	-0.422381	-0.619907	6
O	1.169294	1.019229	-0.643977	8
H	-1.206636	-0.809441	-1.671267	1
H	-2.160036	-0.716541	-0.163527	1
H	-0.007556	2.371649	0.458493	1
H	-0.921956	0.279659	1.824083	1
H	0.880374	0.281589	1.844283	1
H	-0.003986	-1.856161	0.528563	1
H	2.164634	-0.711941	-0.115197	1
H	1.245294	-0.806841	-1.643277	1
Es	-1.156417	1.016538	-0.669712	99
Es	1.169000	1.018857	-0.643699	99
Es	-0.003064	1.329371	0.129647	99
Es	-1.220532	-0.424210	-0.646290	99
Es	1.236167	-0.422010	-0.619512	99
Es	-0.001448	-0.826300	0.175769	99
Es	-0.013850	0.273459	1.212848	99
Es	-1.349382	1.212879	-0.829463	99
Es	1.365114	1.215694	-0.799019	99
Es	-0.601421	-0.669922	-0.247181	99
Es	0.585148	0.286969	1.634517	99
Es	-1.211276	-0.687919	-1.340287	99
Es	1.163453	0.497213	-0.618867	99
Es	1.242687	-0.685466	-1.312875	99
Es	-0.008899	0.821382	0.710583	99
Es	1.869651	-0.627141	-0.271409	99
Es	-1.861563	-0.630929	-0.312736	99
Es	-1.150145	0.494967	-0.644505	99
Es	-0.006046	2.032159	0.344208	99
Es	-1.133735	0.995533	-0.633870	99
Es	-0.622172	0.285720	1.620967	99
Es	-0.003232	-1.515527	0.407387	99
Es	-0.727796	1.103448	-0.364920	99
Es	-0.008112	-0.314109	0.744155	99
Es	0.608129	-0.668982	-0.233914	99
Es	0.733325	1.104806	-0.348599	99
Es	1.145593	0.997828	-0.608448	99
