39
Properties=species:S:1:pos:R:3:Z:I:1 energy=-342.599772586669 field_type=dipole dipole="0.000000 0.000000 0.000000" charge=0
C	1.598115	-0.167806	0.254197	6
O	0.822875	-1.382286	0.430377	8
C	-0.248865	-0.850196	-0.380483	6
C	-1.447995	-0.375376	0.322997	6
C	-1.369635	0.952264	0.441447	6
O	-0.246145	1.589504	-0.072363	8
C	0.513455	0.466994	-0.620213	6
H	2.546214	-0.368656	-0.253363	1
H	1.788625	0.327214	1.211167	1
H	-0.443575	-1.459766	-1.267653	1
H	-2.247135	-1.003126	0.683177	1
H	-2.076485	1.620634	0.908307	1
H	0.810555	0.650604	-1.657593	1
Es	-0.246162	1.588840	-0.072390	99
Es	0.822772	-1.381821	0.430070	99
Es	-1.369731	0.952915	0.441588	99
Es	0.513224	0.466691	-0.619954	99
Es	-0.248827	-0.850057	-0.380033	99
Es	1.597480	-0.168070	0.253916	99
Es	-1.448356	-0.375592	0.323170	99
Es	-0.680144	1.307316	0.126671	99
Es	1.107457	-0.939952	0.367948	99
Es	-1.391298	0.345742	0.412963	99
Es	1.094187	0.235966	-0.182607	99
Es	0.872357	-1.655858	0.562664	99
Es	-0.012460	1.186516	-0.260494	99
Es	2.243515	-0.301600	-0.096937	99
Es	-1.936400	-0.799807	0.514172	99
Es	0.712860	0.597688	-1.326897	99
Es	1.725338	0.170183	0.898899	99
Es	-0.930013	-0.610772	0.022213	99
Es	-0.378307	-1.264139	-0.975380	99
Es	-0.256404	1.518745	-0.010047	99
Es	-0.176390	1.892425	-0.125829	99
Es	-1.813902	1.341287	0.750710	99
Es	0.430667	-1.193824	0.140642	99
Es	0.077559	-0.181173	-0.561663	99
Es	0.804294	-1.332509	0.424386	99
Es	-1.437412	0.185023	0.343406	99
