44
Properties=species:S:1:pos:R:3:Z:I:1 energy=-307.9338440250293 field_type=dipole dipole="0.000000 0.000000 0.000000" charge=0
C	-2.073936	0.058444	-0.036534	6
C	-0.577696	0.127484	-0.000274	6
C	0.305164	-0.583626	-1.098343	6
C	1.380574	-0.274526	0.002326	6
C	0.262204	-0.779146	0.981526	6
C	1.350674	1.255424	0.145496	6
O	-0.068046	1.481944	0.138206	8
H	-2.508996	0.486134	0.872546	1
H	-2.421306	-0.976776	-0.117464	1
H	-2.471766	0.611894	-0.893314	1
H	0.418574	-0.048596	-2.045783	1
H	0.094734	-1.639466	-1.301374	1
H	2.333544	-0.799106	-0.027484	1
H	0.047804	-1.853476	0.974946	1
H	0.334824	-0.430846	2.015867	1
H	1.778554	1.597574	1.091916	1
H	1.815104	1.766664	-0.702264	1
Es	-0.067681	1.481469	0.138168	99
Es	-0.577983	0.127489	-0.000276	99
Es	1.350141	1.254558	0.145403	99
Es	1.381491	-0.274874	0.002312	99
Es	0.305342	-0.582873	-1.098138	99
Es	0.262392	-0.778370	0.981479	99
Es	-2.073452	0.058501	-0.036518	99
Es	-0.240811	1.738355	0.153858	99
Es	0.924516	-0.429380	-0.628357	99
Es	-2.331202	0.433033	-0.622000	99
Es	1.644468	1.490274	0.786653	99
Es	0.379080	-0.227826	-1.736285	99
Es	1.413455	0.450648	0.071072	99
Es	-0.222865	0.995607	0.089114	99
Es	0.453935	1.367247	0.137751	99
Es	1.669221	1.604738	-0.428114	99
Es	0.308563	-0.549112	1.677061	99
Es	-2.356161	0.346768	0.584306	99
Es	-1.321569	0.100761	-0.017517	99
Es	0.164436	-1.293743	-1.214393	99
Es	0.119562	-1.497991	0.956874	99
Es	-2.294454	-0.647459	-0.091429	99
Es	-0.052193	1.444104	0.140017	99
Es	2.035082	-0.616001	-0.016393	99
Es	0.899861	-0.542452	0.574203	99
Es	-0.225028	-0.232526	-0.652299	99
Es	-0.250053	-0.349030	0.587442	99
