47
Properties=species:S:1:pos:R:3:Z:I:1 energy=-309.1370574950566 field_type=dipole dipole="0.000000 0.000000 0.000000" charge=0
C	-1.752576	0.461666	-0.844152	6
C	-0.236806	0.428066	-0.791612	6
C	0.442104	1.457056	0.143788	6
C	1.510784	0.393266	0.456708	6
C	0.488054	-0.700414	0.027738	6
C	-0.267846	-1.319784	1.197578	6
O	1.035454	-1.770064	-0.775532	8
H	-2.135496	-0.399944	-1.398682	1
H	-2.096536	1.367886	-1.351782	1
H	-2.198236	0.450116	0.154438	1
H	0.158574	0.497036	-1.817032	1
H	-0.157556	1.744786	1.015028	1
H	0.810224	2.364676	-0.342052	1
H	2.393894	0.454656	-0.189922	1
H	1.845764	0.365226	1.497468	1
H	-0.690376	-0.560284	1.863578	1
H	0.398254	-1.949904	1.796798	1
H	-1.090036	-1.948574	0.839908	1
H	1.542354	-1.335474	-1.482262	1
Es	1.035641	-1.769573	-0.775813	99
Es	0.487869	-0.700969	0.027825	99
Es	-0.237345	0.427990	-0.791914	99
Es	0.442371	1.456640	0.143188	99
Es	1.509872	0.393122	0.456832	99
Es	-0.267180	-1.319358	1.196699	99
Es	-1.752038	0.461630	-0.844097	99
Es	1.030243	-2.076079	-0.696730	99
Es	0.042457	1.022039	-0.353979	99
Es	-2.005608	-0.125193	-1.213022	99
Es	0.193250	-1.738869	1.599315	99
Es	1.069041	-0.219840	0.268283	99
Es	-0.984457	0.441536	-0.821902	99
Es	1.005438	-1.734801	-0.799213	99
Es	0.857025	-1.378438	-0.514566	99
Es	1.738236	0.370958	1.156846	99
Es	2.094325	0.439234	0.012249	99
Es	1.277053	-1.498095	-1.122790	99
Es	-2.041826	0.449698	-0.168797	99
Es	0.103628	-1.006585	0.616654	99
Es	-1.989193	1.084162	-1.191236	99
Es	-0.545606	-0.783951	1.631756	99
Es	0.041105	1.640161	0.734162	99
Es	-0.824583	-1.734123	0.940019	99
Es	0.039316	0.466671	-1.456325	99
Es	1.029671	0.991337	0.342037	99
Es	0.685205	2.068138	-0.178912	99
Es	0.047515	-0.211377	-0.424253	99
