47
Properties=species:S:1:pos:R:3:Z:I:1 energy=-309.1329942156031 field_type=dipole dipole="0.000000 0.000000 0.000000" charge=0
C	-1.889546	0.088365	-0.014137	6
C	-0.370306	0.102395	-0.165207	6
C	0.035723	0.166265	-1.638797	6
C	0.338753	1.170925	0.719183	6
C	1.397274	0.108645	1.073553	6
C	0.358243	-0.975555	0.707803	6
O	0.849904	-2.150895	0.039033	8
H	-2.191396	0.066115	1.038543	1
H	-2.321006	-0.791965	-0.502087	1
H	-2.335356	0.980475	-0.466967	1
H	1.123183	0.201535	-1.764217	1
H	-0.378736	1.060005	-2.117847	1
H	-0.334356	-0.709605	-2.182767	1
H	-0.243947	1.501445	1.587823	1
H	0.718964	2.057045	0.202603	1
H	2.281054	0.125015	0.426333	1
H	1.727114	0.112095	2.116053	1
H	-0.229066	-1.280135	1.584673	1
H	1.463504	-1.832165	-0.643577	1
Es	0.850272	-2.150346	0.038997	99
Es	0.358234	-0.975940	0.707943	99
Es	-0.370502	0.102432	-0.165318	99
Es	0.035707	0.166224	-1.638182	99
Es	1.396401	0.108679	1.073558	99
Es	0.339074	1.170534	0.718907	99
Es	-1.888966	0.088359	-0.014060	99
Es	0.774452	-2.452509	0.100797	99
Es	-0.058229	-0.508833	0.225242	99
Es	-2.169062	-0.520032	-0.348612	99
Es	-0.247454	0.781693	-1.948141	99
Es	-0.055958	1.388716	1.310357	99
Es	1.620746	0.107705	1.779696	99
Es	-0.042732	-1.179211	1.300491	99
Es	1.158897	-1.947240	-0.298061	99
Es	-1.158681	0.096674	-0.094774	99
Es	-2.182515	0.708233	-0.325372	99
Es	0.678529	-1.709352	0.248345	99
Es	-2.064717	0.072148	0.709413	99
Es	0.590551	1.764347	0.366315	99
Es	0.784469	0.182656	-1.690204	99
Es	-0.218886	-0.437355	-1.993803	99
Es	0.859669	-2.106453	0.038955	99
Es	1.983255	0.117365	0.623299	99
Es	-0.152145	0.129581	-0.923921	99
Es	0.921120	0.696441	0.923642	99
Es	-0.067783	0.720932	0.245852	99
Es	0.950918	-0.487268	0.911497	99
