45
Properties=species:S:1:pos:R:3:Z:I:1 energy=-344.9726839159494 field_type=dipole dipole="0.000000 0.000000 0.000000" charge=0
C	-1.669975	0.791944	-0.698882	6
C	-0.172255	0.588234	-0.808222	6
O	0.551765	1.634574	-0.108272	8
C	1.443955	0.657384	0.481588	6
C	0.543485	-0.513006	0.029418	6
C	-0.232995	-1.148996	1.172678	6
O	1.191135	-1.564896	-0.732792	8
H	-2.205415	-0.067326	-1.113842	1
H	-1.977685	1.680154	-1.260442	1
H	-1.992015	0.928394	0.338478	1
H	0.126675	0.578104	-1.865792	1
H	2.434675	0.698794	0.017208	1
H	1.545825	0.802474	1.561158	1
H	-0.694875	-0.398306	1.822728	1
H	0.428515	-1.759596	1.796708	1
H	-1.026915	-1.799056	0.790098	1
H	1.706105	-1.108876	-1.421812	1
Es	1.191299	-1.564379	-0.733111	99
Es	0.551907	1.633958	-0.108512	99
Es	0.543507	-0.513290	0.029477	99
Es	-0.172194	0.588323	-0.807808	99
Es	1.443381	0.657454	0.481230	99
Es	-0.232510	-1.148488	1.171947	99
Es	-1.669274	0.791819	-0.698849	99
Es	0.620720	1.931743	-0.210045	99
Es	1.173454	-1.867276	-0.669405	99
Es	0.109427	-0.037650	-0.415466	99
Es	-0.921173	0.682683	-0.746950	99
Es	0.154855	-0.833811	0.600934	99
Es	1.053483	0.013594	0.289418	99
Es	0.046125	0.568908	-1.527067	99
Es	2.116112	0.679331	0.158496	99
Es	1.514762	0.755338	1.216451	99
Es	0.278669	1.255369	-0.357088	99
Es	-1.875925	0.871750	-0.007531	99
Es	1.434602	-1.286829	-1.068701	99
Es	-1.880310	1.395308	-1.084568	99
Es	0.224971	-1.549631	1.591367	99
Es	-0.537276	-0.620056	1.589606	99
Es	-0.766137	-1.575769	0.899023	99
Es	-2.013576	0.208291	-0.971940	99
Es	0.975664	-1.175332	-0.484325	99
Es	0.879988	1.285234	0.115200	99
Es	1.182796	-1.527619	-0.740862	99
Es	0.464846	1.592024	0.002091	99
