44
Properties=species:S:1:pos:R:3:Z:I:1 energy=-307.9799520698451 field_type=dipole dipole="0.000000 0.000000 0.000000" charge=0
C	-1.663020	0.001921	0.764096	6
C	-0.142470	-0.001479	0.636316	6
O	0.408160	-0.004579	1.954246	8
C	0.357860	-1.234089	-0.148444	6
C	0.832259	-0.666019	-1.447594	6
C	0.835099	0.668011	-1.444894	6
C	0.363760	1.233121	-0.144454	6
H	-2.154370	0.005171	-0.215084	1
H	-2.005130	0.879721	1.325156	1
H	-2.008660	-0.876689	1.321256	1
H	1.377430	-0.006099	1.869806	1
H	-0.439200	-1.965289	-0.322704	1
H	1.184099	-1.744699	0.360496	1
H	1.143600	-1.278309	-2.282894	1
H	1.149630	1.282191	-2.277824	1
H	1.192090	1.738611	0.367876	1
H	-0.431130	1.968501	-0.315354	1
Es	0.408655	-0.004580	1.953960	99
Es	-0.142524	-0.001478	0.636666	99
Es	0.832453	-0.666572	-1.448152	99
Es	0.835290	0.668547	-1.445435	99
Es	0.363794	1.232349	-0.144704	99
Es	0.357897	-1.233313	-0.148692	99
Es	-1.662094	0.001919	0.764082	99
Es	0.240367	-0.004612	2.218770	99
Es	-0.165547	1.721619	-0.249238	99
Es	-1.881077	-0.602789	1.136495	99
Es	1.015822	-1.087867	-1.947555	99
Es	0.624127	-0.926283	-0.889648	99
Es	0.113924	-0.668078	0.236571	99
Es	0.628295	0.927280	-0.885464	99
Es	0.819437	0.001007	-1.452428	99
Es	0.907647	-1.558643	0.198312	99
Es	0.895917	-0.005248	1.859861	99
Es	-1.878590	0.605988	1.139134	99
Es	0.117158	0.666025	0.238639	99
Es	-1.975234	0.004078	0.088064	99
Es	1.021011	1.090854	-1.944393	99
Es	0.243543	-0.003479	1.480135	99
Es	0.914959	1.554218	0.204269	99
Es	-0.172931	-1.719807	-0.255344	99
Es	-0.917238	0.000314	0.697293	99
Es	0.423747	-0.004780	1.926653	99
Es	0.844458	0.001012	-1.442252	99
