44
Properties=species:S:1:pos:R:3:Z:I:1 energy=-307.96605792222783 field_type=dipole dipole="0.000000 0.000000 0.000000" charge=0
C	-1.905606	-1.851735	-0.207612	6
C	-0.567745	-1.778075	-0.198732	6
C	0.283595	-0.565805	-0.433232	6
C	-0.400925	0.795955	-0.432992	6
C	0.731804	1.704675	-0.025922	6
C	1.441795	0.858575	1.008028	6
O	1.279855	-0.508165	0.605698	8
H	-2.403476	-2.799235	-0.020762	1
H	-2.536825	-0.991355	-0.398552	1
H	-0.007416	-2.692005	-0.006972	1
H	0.827464	-0.703695	-1.376242	1
H	-1.192005	0.851995	0.324948	1
H	-0.835456	1.054105	-1.403092	1
H	1.391404	1.884685	-0.882852	1
H	0.403034	2.670875	0.365118	1
H	2.506274	1.096525	1.086528	1
H	0.984225	0.972675	1.996648	1
Es	1.279605	-0.507723	0.605391	99
Es	0.283173	-0.566209	-0.432952	99
Es	1.441372	0.858560	1.007334	99
Es	-0.567716	-1.778529	-0.198643	99
Es	-0.400312	0.795760	-0.433120	99
Es	0.731485	1.704113	-0.025469	99
Es	-1.905457	-1.851750	-0.207554	99
Es	1.409020	-0.764149	0.758075	99
Es	1.098734	1.313109	0.495402	99
Es	-0.227134	-1.264448	-0.303697	99
Es	-2.214532	-2.454361	-0.085176	99
Es	0.152568	1.268148	-0.242977	99
Es	0.506993	2.353768	0.234728	99
Es	-0.137637	-2.297852	-0.097998	99
Es	0.893317	-0.497543	0.235517	99
Es	1.314653	0.008282	0.719077	99
Es	-1.316538	-1.789811	-0.197461	99
Es	2.171325	1.020897	1.062780	99
Es	0.638912	-0.641477	-1.076185	99
Es	1.175853	1.822651	-0.607032	99
Es	-2.275812	-1.294822	-0.319676	99
Es	-0.697148	0.967268	-1.081384	99
Es	1.120639	0.943518	1.683649	99
Es	-0.921004	0.831346	0.075943	99
Es	-0.079546	0.073805	-0.434737	99
Es	1.293648	-0.476008	0.555721	99
Es	-1.259005	-1.816955	-0.223419	99
