47
Properties=species:S:1:pos:R:3:Z:I:1 energy=-309.1568536395276 field_type=dipole dipole="0.000000 0.000000 0.000000" charge=0
C	-0.676108	-1.871852	-1.360034	6
C	-0.309708	-1.452162	0.055806	6
C	0.415391	-0.109862	0.101806	6
C	-0.400888	1.082658	-0.354584	6
C	0.361072	2.235438	0.265456	6
O	0.940912	1.744128	1.481206	8
C	0.796712	0.316918	1.510656	6
H	-1.144638	-2.860732	-1.349694	1
H	0.212961	-1.924432	-1.995564	1
H	-1.383668	-1.170922	-1.812434	1
H	0.332322	-2.223242	0.498426	1
H	-1.221918	-1.413222	0.663956	1
H	1.327002	-0.163882	-0.508504	1
H	-1.414738	1.038428	0.062766	1
H	-0.482558	1.173458	-1.441624	1
H	1.177962	2.565298	-0.384924	1
H	-0.280689	3.093828	0.482416	1
H	1.734682	-0.136762	1.843926	1
H	0.015902	0.076918	2.240946	1
Es	0.940662	1.743821	1.480817	99
Es	0.360884	2.234601	0.265614	99
Es	0.796562	0.317216	1.509790	99
Es	0.414929	-0.110243	0.102090	99
Es	-0.309692	-1.451961	0.055559	99
Es	-0.400192	1.082468	-0.354318	99
Es	-0.675932	-1.871664	-1.359420	99
Es	1.093344	1.913369	1.705881	99
Es	-0.006953	0.462697	-0.150566	99
Es	-0.032938	1.674121	-0.059401	99
Es	-0.493180	-1.653088	-0.650797	99
Es	-0.072505	-1.898638	-1.789186	99
Es	0.921620	2.459509	-0.190126	99
Es	-0.922828	-1.409632	0.475661	99
Es	-0.450119	1.143055	-1.085046	99
Es	-0.085285	2.820483	0.413371	99
Es	0.128811	-1.968813	0.360610	99
Es	0.248465	0.143670	1.997283	99
Es	0.869523	1.226425	1.450277	99
Es	-0.995594	-2.551581	-1.353069	99
Es	1.438412	0.005146	1.735142	99
Es	-1.151975	-1.391585	-1.663040	99
Es	-1.084622	1.049001	-0.077994	99
Es	0.713986	1.889019	1.028663	99
Es	1.018190	-0.151260	-0.304607	99
Es	0.052738	-0.770690	0.069689	99
Es	0.617055	0.079337	0.811908	99
Es	0.913451	1.720822	1.456469	99
