45
Properties=species:S:1:pos:R:3:Z:I:1 energy=-344.9608968557359 field_type=dipole dipole="0.000000 0.000000 0.000000" charge=0
C	-1.696875	-1.027255	0.160900	6
C	-0.511905	-0.778905	-0.759250	6
C	0.417335	0.293355	-0.252620	6
C	1.291815	-0.027855	0.926300	6
O	0.566045	0.159345	2.134890	8
C	0.818695	1.421035	-1.185240	6
O	-0.183085	1.601885	-0.180010	8
H	-2.355575	-1.788335	-0.268870	1
H	-2.282415	-0.113885	0.306440	1
H	-1.372625	-1.381055	1.143770	1
H	-0.894205	-0.509795	-1.751540	1
H	0.049555	-1.711575	-0.888970	1
H	2.173055	0.620995	0.961630	1
H	1.643855	-1.063225	0.887620	1
H	0.074205	0.994225	2.021120	1
H	0.491625	1.394145	-2.217780	1
H	1.770495	1.916895	-1.038390	1
Es	-0.182741	1.601559	-0.180213	99
Es	0.566079	0.159815	2.134614	99
Es	0.417179	0.294374	-0.252880	99
Es	0.818197	1.420210	-1.184287	99
Es	1.291342	-0.027615	0.926455	99
Es	-0.511916	-0.778675	-0.759065	99
Es	-1.696231	-1.027074	0.160474	99
Es	-0.429750	1.712421	-0.097519	99
Es	0.665745	0.020501	2.402042	99
Es	-0.110071	-1.398427	-0.839384	99
Es	0.854320	0.143047	0.332480	99
Es	1.465418	1.736194	-1.059245	99
Es	-1.078664	-0.875955	-0.289057	99
Es	0.503240	0.131271	2.079805	99
Es	1.510648	-0.735020	0.881006	99
Es	0.227519	1.481554	-0.564274	99
Es	0.582399	1.370071	-1.871575	99
Es	-1.475006	-1.263972	0.811288	99
Es	-0.759453	-0.582035	-1.434373	99
Es	-2.149311	-1.544123	-0.137420	99
Es	0.787107	0.111081	1.674937	99
Es	-0.057207	-0.237013	-0.503599	99
Es	-0.047495	1.249433	-0.167168	99
Es	0.327254	0.581144	2.046277	99
Es	-2.079649	-0.418701	0.261486	99
Es	-0.090062	1.596951	-0.137498	99
Es	1.893488	0.430556	0.931692	99
Es	0.771033	0.757196	-0.846261	99
