47
Properties=species:S:1:pos:R:3:Z:I:1 energy=-309.1216361807927 field_type=dipole dipole="0.000000 0.000000 0.000000" charge=0
C	-2.661425	-0.293910	-0.268149	6
C	-1.145995	-0.419980	-0.315019	6
C	-0.474765	0.954330	-0.332300	6
C	1.048945	0.873890	-0.440000	6
C	1.679785	0.251980	0.767511	6
C	2.283255	-1.127950	0.719110	6
O	3.094315	0.052010	0.640070	8
H	-3.124415	-1.285210	-0.248329	1
H	-3.038085	0.239610	-1.146519	1
H	-2.981935	0.248670	0.627071	1
H	-0.859245	-0.987510	-1.208159	1
H	-0.813095	-0.994570	0.556851	1
H	-0.752485	1.509320	0.571600	1
H	-0.851935	1.527610	-1.187649	1
H	1.442895	1.892280	-0.546180	1
H	1.328865	0.331180	-1.351589	1
H	1.321805	0.649690	1.707120	1
H	2.177006	-1.719560	-0.180829	1
H	2.326505	-1.701880	1.635390	1
Es	3.093797	0.051633	0.640154	99
Es	1.680451	0.251831	0.767544	99
Es	2.283522	-1.127140	0.719089	99
Es	-0.474338	0.953970	-0.332164	99
Es	1.048819	0.873677	-0.439538	99
Es	-1.146112	-0.419818	-0.314952	99
Es	-2.660771	-0.293933	-0.268145	99
Es	3.321083	0.183930	0.766457	99
Es	0.308679	0.899087	-0.379728	99
Es	-1.908871	-0.357719	-0.293428	99
Es	2.318138	-1.510493	1.347139	99
Es	1.765770	-0.543739	0.746645	99
Es	-2.912753	0.073918	-0.864244	99
Es	1.373132	0.525886	0.173160	99
Es	1.433277	0.525439	1.408479	99
Es	-0.656610	1.325651	0.282252	99
Es	-0.914230	-0.806347	0.278379	99
Es	1.308312	1.568647	-0.510444	99
Es	-2.873737	0.077111	0.337371	99
Es	2.220280	-1.523457	0.104130	99
Es	2.710132	-0.371748	0.677528	99
Es	-2.979424	-0.974982	-0.253716	99
Es	1.230383	0.509050	-1.042161	99
Es	-0.731571	1.346257	-0.909009	99
Es	-0.942873	-0.802279	-0.919744	99
Es	-0.810872	0.267743	-0.321241	99
Es	3.033527	0.045599	0.491535	99
Es	2.763777	0.104349	0.676335	99
