47
Properties=species:S:1:pos:R:3:Z:I:1 energy=-309.14625913849886 field_type=dipole dipole="0.000000 0.000000 0.000000" charge=0
C	-0.267787	-1.617873	1.260355	6
C	-0.282377	-0.851483	-0.042825	6
C	-0.851877	-1.415293	-1.124585	6
C	0.376603	0.529407	-0.027805	6
C	0.448223	1.231607	-1.392775	6
C	-0.307387	1.470547	0.971035	6
O	1.728073	0.352757	0.407915	8
H	0.752393	-1.714753	1.644565	1
H	-0.665158	-2.632513	1.144715	1
H	-0.881477	-1.114563	2.013355	1
H	-1.303677	-2.402663	-1.075525	1
H	-0.898627	-0.923713	-2.090305	1
H	0.992103	0.623347	-2.125235	1
H	1.005123	2.173337	-1.315265	1
H	-0.547037	1.457687	-1.790215	1
H	-0.219247	1.103877	1.999755	1
H	-1.368717	1.606007	0.736975	1
H	0.173533	2.456197	0.968725	1
H	2.117322	-0.331913	-0.162865	1
Es	1.728076	0.352323	0.407503	99
Es	0.376817	0.529367	-0.027734	99
Es	-0.282658	-0.851818	-0.043016	99
Es	-0.852389	-1.413863	-1.128713	99
Es	-0.267795	-1.617710	1.260121	99
Es	-0.307018	1.470032	0.970575	99
Es	0.448200	1.231204	-1.392028	99
Es	1.862499	0.514265	0.639090	99
Es	0.013516	-0.186579	-0.064577	99
Es	0.417869	-1.672807	1.505166	99
Es	0.810693	0.805378	-1.884494	99
Es	-0.725421	-1.089698	-1.176378	99
Es	0.023717	2.137533	0.952060	99
Es	1.887976	-0.002504	0.093778	99
Es	-0.756165	-1.182353	-1.158874	99
Es	0.397975	0.869501	-0.728547	99
Es	1.251001	0.383432	0.234189	99
Es	-1.116388	-1.990385	-1.089861	99
Es	-0.683241	-1.261224	1.753284	99
Es	-0.229552	1.372842	-1.654651	99
Es	-1.026025	1.548223	0.801125	99
Es	-0.247243	1.202230	1.661355	99
Es	0.819937	1.870883	-1.329694	99
Es	-0.541503	-2.304131	1.171486	99
Es	-0.263485	-1.230043	0.610478	99
Es	0.020782	0.992277	0.479283	99
Es	1.711146	0.335126	0.383364	99
Es	-0.559568	-1.151914	-0.624303	99
