41
Properties=species:S:1:pos:R:3:Z:I:1 energy=-306.7663868373608 field_type=dipole dipole="0.000000 0.000000 0.000000" charge=0
C	-1.136334	0.444184	0.890331	6
C	0.328886	0.314554	0.476491	6
C	0.495216	-0.188166	-0.961269	6
C	0.033006	-1.577786	-1.117969	6
C	-0.345184	-2.709466	-1.252810	6
C	0.990336	1.666874	0.649601	6
O	1.572086	2.277624	-0.241189	8
H	-1.221544	0.852124	1.903790	1
H	-1.642324	-0.526216	0.881471	1
H	-1.678634	1.120134	0.219721	1
H	0.834956	-0.369716	1.169341	1
H	1.551976	-0.138696	-1.252939	1
H	-0.047984	0.462764	-1.657529	1
H	-0.681724	-3.713046	-1.377970	1
H	0.947256	2.084834	1.670931	1
Es	1.571721	2.276830	-0.241410	99
Es	0.989862	1.665831	0.649640	99
Es	0.329126	0.314898	0.476510	99
Es	0.494908	-0.188663	-0.961160	99
Es	0.033222	-1.577044	-1.117816	99
Es	-1.135637	0.444131	0.890025	99
Es	-0.345625	-2.710744	-1.252855	99
Es	1.721368	2.530264	-0.281569	99
Es	0.121759	0.220840	-1.412635	99
Es	-0.451683	-2.977211	-1.237224	99
Es	-1.465695	-0.206436	0.880998	99
Es	0.696259	1.061229	0.582465	99
Es	0.925906	1.875759	1.329389	99
Es	-0.278498	-2.469493	-1.187681	99
Es	0.659738	-0.126904	0.934498	99
Es	1.366166	2.021896	0.113544	99
Es	1.182774	-0.184593	-1.147864	99
Es	0.242834	-0.938882	-1.049293	99
Es	-1.490794	0.893918	0.436607	99
Es	-0.369017	0.390131	0.668864	99
Es	-1.186242	0.727785	1.576610	99
Es	0.395402	0.040875	-0.248885	99
Es	1.363936	2.105759	0.019995	99
Es	1.507605	2.108974	-0.340340	99
Es	-0.122918	-2.170917	-1.206958	99
Es	-0.179413	-2.144320	-1.228193	99
