44
Properties=species:S:1:pos:R:3:Z:I:1 energy=-307.94980748810605 field_type=dipole dipole="0.000000 0.000000 0.000000" charge=0
C	0.083021	-2.031463	0.978036	6
C	-0.475119	-0.642773	1.089816	6
C	-1.465369	-0.345673	1.949326	6
C	0.148711	0.395477	0.191506	6
O	-0.212129	0.094067	-1.157224	8
C	0.252891	0.924417	-2.136914	6
C	1.057081	1.988637	-2.031364	6
H	-0.017769	-2.409743	-0.044194	1
H	-0.429719	-2.736073	1.643486	1
H	1.145291	-2.035673	1.247506	1
H	-1.906609	-1.101303	2.590186	1
H	-1.871349	0.657637	2.022466	1
H	1.239060	0.366077	0.308866	1
H	-0.208229	1.398757	0.453256	1
H	-0.136479	0.595807	-3.095044	1
H	1.463701	2.335337	-1.088984	1
H	1.333021	2.546487	-2.920724	1
Es	-0.211816	0.094471	-1.157096	99
Es	0.252708	0.924157	-2.136705	99
Es	0.148350	0.395151	0.191525	99
Es	-0.475265	-0.642730	1.089943	99
Es	-1.466982	-0.342797	1.949951	99
Es	0.082958	-2.031023	0.978007	99
Es	1.057106	1.988592	-2.031223	99
Es	-0.387422	-0.181609	-1.216583	99
Es	-0.198822	-1.327819	1.029213	99
Es	1.317778	2.200550	-1.387886	99
Es	-0.186302	0.165349	-1.179178	99
Es	-1.496977	0.041290	1.840498	99
Es	-0.013638	0.698126	-2.782877	99
Es	-0.061172	0.236194	-0.692014	99
Es	0.002007	0.456073	-1.479144	99
Es	0.887461	0.374999	0.265168	99
Es	0.632853	1.494992	-2.043168	99
Es	-1.251962	-0.309820	1.719040	99
Es	-0.263285	-2.501840	1.430751	99
Es	0.797741	-2.016134	1.158511	99
Es	1.233973	2.351618	-2.637084	99
Es	-0.089045	1.077167	0.360688	99
Es	0.011752	-2.272430	0.295071	99
Es	-1.713081	-0.753992	2.312074	99
Es	-0.183922	-0.129780	0.658117	99
Es	-0.968982	-0.469034	1.551901	99
Es	0.751030	1.516807	-2.097655	99
