44
Properties=species:S:1:pos:R:3:Z:I:1 energy=-307.93316327615685 field_type=dipole dipole="0.000000 0.000000 0.000000" charge=0
C	-0.955992	-0.308386	1.583064	6
C	0.413018	-0.216956	0.907034	6
C	0.409487	-0.812476	-0.509886	6
C	-0.554782	-0.147506	-1.489096	6
O	-0.445933	-0.777056	-2.761496	8
C	0.895037	1.144214	0.907034	6
C	1.292318	2.266114	0.907034	6
H	-0.888442	-0.001586	2.632704	1
H	-1.334422	-1.335066	1.558994	1
H	-1.695132	0.342464	1.104694	1
H	1.106807	-0.824686	1.503244	1
H	0.166588	-1.882306	-0.454006	1
H	1.424048	-0.771636	-0.930426	1
H	-0.341712	0.917814	-1.616786	1
H	-1.591812	-0.255346	-1.160256	1
H	0.453038	-0.608596	-3.092536	1
H	1.647887	3.270994	0.910684	1
Es	-0.445588	-0.776772	-2.761608	99
Es	-0.554341	-0.147795	-1.489078	99
Es	0.413008	-0.216694	0.906906	99
Es	0.409355	-0.811991	-0.509341	99
Es	0.895029	1.143958	0.907027	99
Es	-0.955168	-0.308211	1.582633	99
Es	1.292569	2.267192	0.906924	99
Es	-0.692625	-0.883426	-2.929242	99
Es	-0.903868	-0.098032	2.295913	99
Es	1.334615	2.478656	0.871218	99
Es	-0.446476	-0.553926	-2.305045	99
Es	-1.256674	-0.220635	-1.261323	99
Es	0.659914	0.517833	0.910164	99
Es	1.216440	2.125756	0.880645	99
Es	0.249782	-1.530769	-0.464520	99
Es	-1.444656	0.128967	1.248591	99
Es	0.394960	-0.473825	0.215118	99
Es	-0.070820	-0.481971	-0.976191	99
Es	-0.251144	-0.250824	1.221130	99
Es	-1.204626	-1.001888	1.556626	99
Es	0.029182	-0.671423	-2.894833	99
Es	0.890047	-0.602493	1.298609	99
Es	1.092931	-0.768328	-0.794505	99
Es	-0.399683	0.582047	-1.565637	99
Es	-0.406866	-0.803305	-2.722754	99
Es	1.097434	1.720972	0.908092	99
Es	1.140583	1.700758	0.954816	99
