44
Properties=species:S:1:pos:R:3:Z:I:1 energy=-307.9511251085039 field_type=dipole dipole="0.000000 0.000000 0.000000" charge=0
C	-0.566492	-2.207533	-0.335186	6
C	-0.758972	-1.292673	0.865454	6
C	-0.519712	0.154417	0.520834	6
C	-1.508652	1.063727	0.518664	6
O	0.817008	0.474457	0.331234	8
C	1.177378	1.392527	-0.622906	6
C	2.396168	1.936267	-0.657076	6
H	-0.776092	-3.244873	-0.054796	1
H	0.461018	-2.161863	-0.710346	1
H	-1.242072	-1.935433	-1.152926	1
H	-0.072892	-1.591093	1.667224	1
H	-1.773562	-1.433333	1.257994	1
H	-2.535982	0.779547	0.719004	1
H	-1.314782	2.115667	0.340874	1
H	0.411398	1.621307	-1.350476	1
H	3.141868	1.674277	0.085524	1
H	2.664368	2.654607	-1.423096	1
Es	0.816577	0.474682	0.330917	99
Es	-0.519388	0.154474	0.520848	99
Es	1.176106	1.392368	-0.623424	99
Es	-0.758776	-1.292393	0.865369	99
Es	-0.566570	-2.206994	-0.334661	99
Es	-1.510586	1.063321	0.519002	99
Es	2.395855	1.936046	-0.657040	99
Es	1.025064	0.380365	0.555859	99
Es	-0.626097	-0.559307	0.670429	99
Es	2.894253	1.755113	-0.154639	99
Es	-1.958769	0.898899	0.570926	99
Es	0.118750	-2.172166	-0.586648	99
Es	0.889542	0.807586	-0.021944	99
Es	0.653007	1.538936	-1.111536	99
Es	-1.186614	0.714844	0.459689	99
Es	0.794290	0.490016	0.275502	99
Es	1.819015	1.643913	-0.641212	99
Es	-0.658622	-1.713373	0.270210	99
Es	-1.425913	1.616851	0.417084	99
Es	-0.710477	-2.915910	-0.143479	99
Es	2.531641	2.404306	-1.174297	99
Es	-0.297704	-1.475210	1.402370	99
Es	0.320041	0.378322	0.320244	99
Es	-1.018566	-2.019567	-0.883383	99
Es	-1.443092	-1.374218	1.121156	99
Es	1.827410	1.729175	-0.649392	99
Es	-1.073480	0.666111	0.606466	99
