42
Properties=species:S:1:pos:R:3:Z:I:1 energy=-343.8415323270618 field_type=dipole dipole="0.000000 0.000000 0.000000" charge=0
C	-1.813004	-0.675696	0.176943	6
C	-0.359124	-0.954546	0.416823	6
C	0.124886	-2.172856	0.686823	6
O	0.508826	0.156724	0.483723	8
C	0.598966	0.931244	-0.645167	6
C	1.535576	2.072764	-0.380187	6
O	0.029106	0.752584	-1.712837	8
H	-2.131384	0.201974	0.748783	1
H	-2.439484	-1.517136	0.492153	1
H	-2.011884	-0.494106	-0.882767	1
H	-0.515314	-3.048726	0.692103	1
H	1.178036	-2.319966	0.902383	1
H	2.516586	1.688464	-0.089307	1
H	1.125076	2.714594	0.403203	1
H	1.653136	2.664684	-1.292667	1
Es	0.508646	0.156679	0.483224	99
Es	0.029017	0.752301	-1.712441	99
Es	0.599155	0.931279	-0.644711	99
Es	-0.358939	-0.954285	0.416837	99
Es	1.535435	2.072493	-0.380016	99
Es	-1.812597	-0.675625	0.176973	99
Es	0.123248	-2.175810	0.686936	99
Es	0.624368	0.233529	0.775838	99
Es	-0.040501	0.606515	-1.616029	99
Es	-0.067496	-1.778246	0.562232	99
Es	1.044190	1.465245	-0.501427	99
Es	-2.229033	-1.242456	0.387638	99
Es	0.243564	0.790494	-1.256141	99
Es	-0.167174	-2.508407	0.676721	99
Es	0.511466	0.421600	0.020528	99
Es	0.534507	0.156068	0.388465	99
Es	0.196452	-0.224017	0.405287	99
Es	0.650954	-2.273444	0.788011	99
Es	1.263952	2.487028	0.134045	99
Es	1.612083	2.458361	-0.974579	99
Es	-1.932842	-0.557493	-0.507739	99
Es	2.171158	1.816579	-0.187358	99
Es	-2.008381	-0.088805	0.558897	99
Es	-1.063770	-0.807473	0.288644	99
Es	0.174108	0.791536	-1.432149	99
Es	0.028365	0.893899	-1.975725	99
Es	-0.117981	-1.606650	0.591673	99
