48
Properties=species:S:1:pos:R:3:Z:I:1 energy=-346.1584119930105 field_type=dipole dipole="0.000000 0.000000 0.000000" charge=0
C	-1.808464	2.271906	-0.699716	6
C	-1.270704	1.317086	0.350804	6
C	-0.683694	0.056906	-0.274286	6
O	-0.175274	-0.761584	0.776844	8
C	0.405986	-1.961224	0.281234	6
O	1.594526	-1.734394	-0.469276	8
C	2.631216	-1.190814	0.338394	6
H	-2.227574	3.162716	-0.222446	1
H	-2.597944	1.799507	-1.292096	1
H	-1.013434	2.593176	-1.379526	1
H	-2.070294	1.041546	1.049114	1
H	-0.504474	1.819506	0.952804	1
H	-1.458854	-0.488954	-0.824296	1
H	0.123956	0.324176	-0.964976	1
H	-0.311994	-2.488533	-0.356566	1
H	0.626006	-2.617304	1.130704	1
H	3.533406	-1.111734	-0.273276	1
H	2.843866	-1.843014	1.189784	1
H	2.363736	-0.188973	0.686784	1
Es	1.594255	-1.733908	-0.468968	99
Es	-0.175198	-0.761696	0.776329	99
Es	0.406062	-1.961114	0.281141	99
Es	-0.683706	0.057063	-0.273994	99
Es	2.630856	-1.190882	0.338226	99
Es	-1.270642	1.317000	0.350586	99
Es	-1.808159	2.271348	-0.699229	99
Es	-0.267433	-0.730271	1.091906	99
Es	1.640213	-1.899843	-0.749351	99
Es	-2.338120	1.948896	-1.103319	99
Es	1.948553	-1.526108	-0.136821	99
Es	-1.208223	-0.323029	-0.658784	99
Es	-0.084713	-2.309350	-0.168658	99
Es	-1.810249	1.130398	0.817153	99
Es	-0.105138	-0.744903	0.748397	99
Es	0.565487	-2.397268	0.873129	99
Es	-0.336871	-0.487830	0.377189	99
Es	-0.137742	0.238922	-0.744529	99
Es	2.448387	-0.516589	0.579796	99
Es	2.767633	-1.638010	0.928073	99
Es	-1.271278	2.483691	-1.160930	99
Es	-2.095366	2.881539	-0.372594	99
Es	3.247748	-1.132321	-0.081204	99
Es	-1.537286	1.788954	-0.181952	99
Es	-0.983156	0.681941	0.029612	99
Es	-0.749516	1.654599	0.752822	99
Es	1.184902	-1.788149	-0.156867	99
Es	1.554151	-1.651723	-0.465206	99
Es	0.035514	-1.188399	0.534914	99
