47
Properties=species:S:1:pos:R:3:Z:I:1 energy=-309.12056499546105 field_type=dipole dipole="0.000000 0.000000 0.000000" charge=0
C	-2.675912	1.508807	-0.559042	6
C	-1.562783	0.834667	0.217318	6
O	-0.996662	-0.187943	-0.597502	8
C	0.074068	-0.891693	0.059598	6
C	1.049408	-1.568683	-0.866742	6
C	1.453748	-0.319283	-0.133182	6
C	2.445047	-0.377873	0.977098	6
H	-3.130572	2.311857	0.028208	1
H	-3.451882	0.784357	-0.827462	1
H	-2.293902	1.928307	-1.495852	1
H	-1.960083	0.393507	1.137508	1
H	-0.790883	1.568017	0.475968	1
H	-0.152092	-1.411383	0.985788	1
H	0.865767	-1.496313	-1.932202	1
H	1.465768	-2.518133	-0.552622	1
H	1.544998	0.595357	-0.708842	1
H	2.404808	-1.329583	1.515408	1
H	2.253668	0.427067	1.692828	1
H	3.457498	-0.251063	0.583728	1
Es	-0.996455	-0.187833	-0.597012	99
Es	0.074607	-0.891555	0.058978	99
Es	-1.562848	0.834499	0.216968	99
Es	1.453676	-0.319426	-0.133153	99
Es	1.049159	-1.568228	-0.866355	99
Es	2.444546	-0.377919	0.976638	99
Es	-2.675543	1.508578	-0.558854	99
Es	-1.169857	-0.363766	-0.818928	99
Es	1.431640	-0.965101	-0.585410	99
Es	-2.116711	1.166331	-0.175967	99
Es	2.313107	0.166042	1.460116	99
Es	-1.028948	1.338068	0.399444	99
Es	0.929461	-1.524302	-1.562930	99
Es	1.497752	0.274745	-0.501077	99
Es	-0.627645	-0.412773	-0.311126	99
Es	-1.831596	0.530512	0.856315	99
Es	-0.083466	-1.221652	0.691631	99
Es	1.919411	-0.360908	0.403522	99
Es	-1.168459	0.184101	-0.273833	99
Es	3.131180	-0.293846	0.708968	99
Es	2.411361	-1.024896	1.341358	99
Es	-2.976941	2.053437	-0.151944	99
Es	-2.418404	1.794879	-1.183698	99
Es	1.317022	-2.190812	-0.648400	99
Es	-3.200560	1.024516	-0.733810	99
Es	-0.881971	-0.095082	-0.643250	99
Es	0.443623	-1.371008	-0.458001	99
Es	0.736539	-0.444469	0.108472	99
