45
Properties=species:S:1:pos:R:3:Z:I:1 energy=-344.9479849866962 field_type=dipole dipole="0.000000 0.000000 0.000000" charge=0
C	-2.718394	0.629869	0.433549	6
C	-1.274664	0.322269	0.774029	6
O	-0.666835	-0.306451	-0.353351	8
C	0.700645	-0.686251	-0.103191	6
C	1.559596	-0.809831	-1.330851	6
C	1.750735	0.352439	-0.403331	6
O	2.923096	0.331649	0.426189	8
H	-3.221174	1.118999	1.273399	1
H	-3.259835	-0.288621	0.184219	1
H	-2.777725	1.283199	-0.443161	1
H	-1.227684	-0.348271	1.638469	1
H	-0.738884	1.248479	1.008809	1
H	0.889465	-1.393011	0.698069	1
H	1.097395	-0.616111	-2.292231	1
H	2.308206	-1.591521	-1.352571	1
H	1.407066	1.323019	-0.746611	1
H	3.248995	-0.569851	0.588569	1
Es	2.923068	0.331103	0.426119	99
Es	-0.666581	-0.306366	-0.352857	99
Es	1.750571	0.351968	-0.403331	99
Es	0.700732	-0.685896	-0.103708	99
Es	-1.274758	0.322131	0.773671	99
Es	1.559427	-0.809626	-1.330339	99
Es	-2.717969	0.629775	0.433602	99
Es	-0.828292	-0.465313	-0.591278	99
Es	3.076938	0.593297	0.528150	99
Es	1.048414	-0.911746	-0.785112	99
Es	-1.994328	0.471996	0.598063	99
Es	-0.902840	0.957763	0.937445	99
Es	1.254736	-0.687339	-1.957531	99
Es	0.825336	-1.153871	0.452527	99
Es	2.496560	0.293039	0.110361	99
Es	-0.851428	-0.074285	0.073998	99
Es	-1.235080	-0.139792	1.371614	99
Es	1.524318	1.005299	-0.610303	99
Es	3.041091	-0.147871	0.481013	99
Es	-0.171258	-0.432020	-0.206744	99
Es	2.891632	0.300436	0.436507	99
Es	2.054033	-1.323365	-1.328977	99
Es	-3.049731	0.962525	1.009271	99
Es	-2.757311	1.072782	-0.151646	99
Es	-3.083721	0.012923	0.272692	99
Es	-0.611633	-0.201261	-0.378380	99
Es	1.794158	-0.180773	-0.992900	99
Es	1.171573	-0.065137	-0.084245	99
