42
Properties=species:S:1:pos:R:3:Z:I:1 energy=-343.7734668946491 field_type=dipole dipole="0.000000 0.000000 0.000000" charge=0
C	-1.620592	-1.691848	0.190435	6
C	-0.099242	-1.632758	0.184555	6
O	0.379158	-2.306628	-0.976125	8
C	0.382778	-0.271588	0.184555	6
C	0.780058	0.850312	0.184555	6
C	1.262078	2.211482	0.184555	6
O	0.232278	3.076232	-0.272895	8
H	-2.036612	-1.205648	1.078085	1
H	-1.961412	-2.731968	0.168145	1
H	-2.039602	-1.204058	-0.696775	1
H	0.284948	-2.174268	1.055035	1
H	0.155738	-1.742178	-1.736205	1
H	2.125528	2.322572	-0.478505	1
H	1.555208	2.525412	1.191045	1
H	0.599688	3.974932	-0.260465	1
Es	0.232476	3.076571	-0.272920	99
Es	0.378979	-2.306256	-0.976365	99
Es	1.261656	2.210658	0.184507	99
Es	-0.098814	-1.631832	0.184200	99
Es	0.780638	0.852287	0.184579	99
Es	0.382135	-0.273218	0.184725	99
Es	-1.619634	-1.691715	0.190473	99
Es	-0.057738	2.980378	-0.352346	99
Es	0.551043	-2.566500	-0.971755	99
Es	0.979644	1.463744	0.164733	99
Es	0.165633	-0.869816	0.203942	99
Es	0.592093	0.286126	0.145751	99
Es	-1.885744	-1.353942	-0.408689	99
Es	0.245823	-1.999090	-1.335247	99
Es	0.617246	2.776626	-0.102517	99
Es	1.458386	2.400842	0.857252	99
Es	1.837057	2.266914	-0.254019	99
Es	0.200586	-2.017565	-0.580776	99
Es	-0.852028	-1.637994	0.194858	99
Es	-1.845157	-2.397205	0.182503	99
Es	0.463461	3.514753	-0.248840	99
Es	-1.891147	-1.358784	0.788314	99
Es	0.171440	-1.956638	0.760561	99
Es	0.267214	3.083553	-0.271808	99
Es	0.335134	-2.290704	-0.975661	99
Es	0.616599	0.320623	0.190012	99
Es	0.551275	0.259394	0.215784	99
