45
Properties=species:S:1:pos:R:3:Z:I:1 energy=-344.97771946160276 field_type=dipole dipole="0.000000 0.000000 0.000000" charge=0
C	-2.767905	1.102540	0.822902	6
C	-1.300785	0.765480	0.630162	6
O	-1.218835	-0.443290	-0.125758	8
C	0.027235	-0.927280	-0.407298	6
C	1.225805	-0.395880	-0.123468	6
C	2.518655	-1.048210	-0.482068	6
O	3.208965	-0.205700	-1.390218	8
H	-2.884135	2.003610	1.431212	1
H	-3.294215	0.275240	1.309952	1
H	-3.254665	1.264720	-0.144248	1
H	-0.829055	0.626210	1.610002	1
H	-0.808625	1.584500	0.093122	1
H	-0.080285	-1.869570	-0.935598	1
H	1.313995	0.550590	0.399182	1
H	2.384905	-2.030880	-0.944458	1
H	3.137214	-1.172140	0.412342	1
H	2.621725	-0.079940	-2.155758	1
Es	-1.218366	-0.443056	-0.125616	99
Es	3.208756	-0.205822	-1.390541	99
Es	0.026869	-0.928867	-0.408213	99
Es	-1.301249	0.765258	0.630009	99
Es	2.518518	-1.047740	-0.482330	99
Es	-2.767473	1.102338	0.822757	99
Es	1.225824	-0.395993	-0.123506	99
Es	-1.193511	-0.006511	0.145288	99
Es	3.518965	-0.147297	-1.363733	99
Es	0.541051	-0.714761	-0.288362	99
Es	1.277537	0.247752	0.235761	99
Es	1.832874	-0.734207	-0.287931	99
Es	-2.833560	1.713601	1.235822	99
Es	-0.967979	0.667110	1.297032	99
Es	0.022542	-1.491977	-0.731920	99
Es	-1.142897	-0.434126	-0.133916	99
Es	2.412824	-1.708026	-0.796763	99
Es	2.879856	-0.164161	-1.761651	99
Es	2.916534	-0.494607	-1.087739	99
Es	-1.495188	-0.601458	-0.215329	99
Es	-3.118893	0.549382	1.155337	99
Es	-3.093233	1.216824	0.171891	99
Es	-2.031915	0.926982	0.723286	99
Es	2.930476	-1.133532	0.109063	99
Es	-0.689262	-0.593601	-0.210052	99
Es	-0.956578	1.320904	0.260348	99
Es	3.159670	-0.179480	-1.369975	99
Es	0.725714	-0.639535	-0.269770	99
