45
Properties=species:S:1:pos:R:3:Z:I:1 energy=-344.9832401370579 field_type=dipole dipole="0.000000 0.000000 0.000000" charge=0
C	-1.628084	-0.167327	0.044650	6
C	-0.096293	-0.144287	-0.003030	6
O	0.378956	-0.985617	1.058840	8
C	0.428396	-0.747427	-1.325350	6
O	0.046336	-2.120577	-1.437220	8
C	0.414716	1.269083	0.178030	6
C	1.294076	1.699313	1.094760	6
H	-2.067804	0.399563	-0.782230	1
H	-1.997214	0.257493	0.985560	1
H	-2.009194	-1.193987	0.003520	1
H	0.038677	-0.604017	1.887160	1
H	1.523096	-0.720087	-1.357880	1
H	0.043247	-0.210067	-2.197610	1
H	0.259937	-2.506197	-0.563710	1
H	0.024126	2.000503	-0.528920	1
H	1.751506	1.031243	1.817840	1
H	1.595516	2.742393	1.125590	1
Es	0.378653	-0.985132	1.059108	99
Es	0.046760	-2.120570	-1.436836	99
Es	-0.096013	-0.144454	-0.002652	99
Es	0.428105	-0.747654	-1.324741	99
Es	0.414826	1.269507	0.177951	99
Es	1.293899	1.698905	1.094680	99
Es	-1.627259	-0.167258	0.044654	99
Es	0.569620	-1.228356	1.010359	99
Es	-0.053771	-2.259886	-1.700285	99
Es	0.989134	1.491094	0.776208	99
Es	1.176510	-0.714311	-1.334752	99
Es	-1.911295	0.222724	-0.518911	99
Es	1.488315	1.279226	1.442441	99
Es	0.195679	-0.680922	0.711035	99
Es	0.173600	0.603689	0.117739	99
Es	0.171743	-1.622993	-1.356346	99
Es	0.165864	-0.423763	-0.647977	99
Es	0.178702	-0.765660	1.454214	99
Es	0.166722	-2.285889	-0.987626	99
Es	0.155710	-0.372092	-1.910451	99
Es	0.358792	-0.960447	1.058589	99
Es	-1.868419	-0.852713	0.016772	99
Es	-1.859050	0.128509	0.688478	99
Es	0.122269	1.725006	-0.314751	99
Es	1.474342	2.336647	1.113174	99
Es	-0.856884	-0.148139	0.009130	99
Es	0.046565	-2.092852	-1.401657	99
Es	0.841455	1.491298	0.655023	99
