42
Properties=species:S:1:pos:R:3:Z:I:1 energy=-343.752198101644 field_type=dipole dipole="0.000000 0.000000 0.000000" charge=0
C	-0.417615	-2.636949	-0.217713	6
O	-1.420445	-1.628959	-0.283613	8
C	-0.998975	-0.329639	-0.320353	6
C	0.250285	0.161451	-0.309853	6
C	0.598505	1.585821	-0.350523	6
C	0.579945	2.372101	0.936697	6
O	1.803695	2.085661	0.250927	8
H	-0.918795	-3.609279	-0.190763	1
H	0.177045	-2.538059	0.696307	1
H	0.222345	-2.610929	-1.105423	1
H	-1.869035	0.317711	-0.361493	1
H	1.101165	-0.511649	-0.271363	1
H	0.273025	2.095001	-1.252643	1
H	0.401935	1.856311	1.871847	1
H	0.216925	3.391402	0.907957	1
Es	-1.419957	-1.628758	-0.283584	99
Es	1.803057	2.085688	0.250997	99
Es	-0.999094	-0.329483	-0.320416	99
Es	0.598968	1.586062	-0.350181	99
Es	-0.417813	-2.636551	-0.217737	99
Es	0.580590	2.371708	0.936017	99
Es	0.250326	0.161672	-0.309863	99
Es	2.058704	2.148203	0.175439	99
Es	-1.737129	-1.705028	-0.300250	99
Es	-1.525783	0.124086	-0.348116	99
Es	-0.007980	-2.557084	0.399174	99
Es	0.342484	3.069216	0.914881	99
Es	0.378873	1.930964	-0.962860	99
Es	0.468448	2.015979	1.562348	99
Es	-0.434544	-0.109035	-0.330065	99
Es	-1.195319	-1.149222	-0.300735	99
Es	0.366501	1.953824	0.303143	99
Es	-1.366120	-1.573827	-0.270049	99
Es	0.831925	-0.286778	-0.278125	99
Es	1.496548	1.924770	0.055430	99
Es	-0.760112	-3.297756	-0.198858	99
Es	0.412689	0.860369	-0.314669	99
Es	-1.015812	-1.949677	-0.257917	99
Es	0.022323	-2.606422	-0.817894	99
Es	1.756771	2.019951	0.287127	99
Es	1.297250	2.176501	0.499145	99
Es	-0.284568	-0.036269	-0.307835	99
