44
Properties=species:S:1:pos:R:3:Z:I:1 energy=-307.94509688486596 field_type=dipole dipole="0.000000 0.000000 0.000000" charge=0
C	0.684433	-2.888406	0.693446	6
O	-0.655747	-2.615096	0.301076	8
C	-0.929877	-1.353746	-0.147444	6
C	-0.099977	-0.311356	-0.305224	6
C	-0.549487	1.029054	-0.811034	6
C	-0.274907	2.107204	0.196936	6
C	0.510333	3.169414	-0.025954	6
H	0.731363	-3.928486	1.029456	1
H	0.984553	-2.249326	1.530356	1
H	1.371663	-2.775036	-0.151224	1
H	-1.988627	-1.292216	-0.380044	1
H	0.957663	-0.398206	-0.077454	1
H	-1.623537	1.026224	-1.032304	1
H	-0.032407	1.236324	-1.755584	1
H	-0.762527	2.007054	1.165096	1
H	1.013023	3.319474	-0.976164	1
H	0.664053	3.917124	0.746056	1
Es	-0.655421	-2.614686	0.301044	99
Es	-0.932069	-1.353807	-0.147825	99
Es	0.684078	-2.888176	0.693297	99
Es	-0.274935	2.107217	0.197012	99
Es	-0.549367	1.029069	-0.810718	99
Es	-0.100002	-0.311222	-0.305320	99
Es	0.510126	3.169234	-0.025735	99
Es	-0.882513	-2.852499	0.307021	99
Es	-0.567298	-0.891448	-0.208553	99
Es	0.604092	3.646945	0.498291	99
Es	1.150096	-2.796976	0.118179	99
Es	-0.407886	1.579610	-0.309598	99
Es	-1.575247	-1.253213	-0.302811	99
Es	-0.618006	2.032060	0.851238	99
Es	-0.702786	-2.108751	0.137467	99
Es	-0.340174	0.354066	-0.540304	99
Es	0.888170	-2.442526	1.255245	99
Es	0.167182	2.664882	0.066963	99
Es	0.833865	3.242375	-0.662253	99
Es	0.715697	-3.598293	0.921525	99
Es	-1.258118	1.021944	-0.949635	99
Es	0.622119	-0.376302	-0.151468	99
Es	-0.207799	1.158497	-1.435405	99
Es	-0.637199	-2.541968	0.294235	99
Es	-0.155042	-2.656324	0.430436	99
Es	0.123341	2.665766	0.080325	99
Es	-0.472231	-0.757250	-0.253837	99
