45
Properties=species:S:1:pos:R:3:Z:I:1 energy=-344.9647783818839 field_type=dipole dipole="0.000000 0.000000 0.000000" charge=0
C	-1.827724	-1.033989	-1.520124	6
O	-2.001524	0.058461	-0.628044	8
C	-1.588474	-0.269429	0.692916	6
O	-0.182804	-0.453449	0.806006	8
C	0.523705	0.767351	0.606486	6
C	1.967906	0.492271	0.881716	6
C	2.965326	0.706921	0.014536	6
H	-2.206294	-0.737659	-2.501664	1
H	-2.394554	-1.905769	-1.179934	1
H	-0.767834	-1.288069	-1.620894	1
H	-2.084954	-1.188959	1.021436	1
H	-1.915174	0.529571	1.367716	1
H	0.165926	1.527711	1.310076	1
H	0.372275	1.126241	-0.417144	1
H	2.199146	0.086591	1.863366	1
H	2.782676	1.103411	-0.979824	1
H	3.992386	0.478791	0.283376	1
Es	-0.183014	-0.453042	0.805767	99
Es	-2.001141	0.058151	-0.627894	99
Es	-1.588413	-0.269489	0.692761	99
Es	0.524074	0.767101	0.606572	99
Es	-1.827698	-1.033702	-1.519833	99
Es	1.967989	0.492223	0.881798	99
Es	2.965202	0.706912	0.014909	99
Es	-2.202657	0.312505	-0.675202	99
Es	-0.049577	-0.727965	0.923089	99
Es	1.270324	0.634820	0.726505	99
Es	-2.211000	-1.634489	-1.276835	99
Es	2.505538	0.625732	0.397091	99
Es	-1.917762	-0.909269	0.905921	99
Es	2.113573	0.220132	1.553872	99
Es	-1.803496	0.290393	1.146293	99
Es	-0.695067	-0.327063	0.745240	99
Es	0.045738	0.004256	0.723838	99
Es	0.275811	1.282559	1.077919	99
Es	-1.111445	-1.209813	-1.583954	99
Es	0.423564	1.008994	-0.071882	99
Es	-1.912374	-0.366987	-0.926933	99
Es	3.633702	0.556785	0.202461	99
Es	-2.084241	-0.830250	-2.191698	99
Es	2.815736	0.972409	-0.619434	99
Es	-1.832440	-0.106012	-0.167675	99
Es	-0.203175	-0.436972	0.757577	99
Es	-1.915365	0.064046	-0.625679	99
Es	2.469147	0.595226	0.434384	99
