42
Properties=species:S:1:pos:R:3:Z:I:1 energy=-343.76611375176816 field_type=dipole dipole="0.000000 0.000000 0.000000" charge=0
O	-2.074251	-0.111285	-0.144864	8
C	-0.656321	0.029385	-0.075714	6
C	0.251099	-0.655245	-1.146434	6
C	1.297210	-0.288805	-0.029394	6
C	0.173929	-0.829405	0.931116	6
O	1.307609	1.160915	0.096836	8
C	-0.100881	1.459585	0.053796	6
H	-2.405941	0.178445	0.722646	1
H	0.368850	-0.125585	-2.095964	1
H	0.077569	-1.718855	-1.340954	1
H	2.279860	-0.758895	-0.031614	1
H	-0.007201	-1.909285	0.933546	1
H	0.217059	-0.463925	1.960926	1
H	-0.323880	2.083155	-0.816594	1
H	-0.404711	1.949795	0.982666	1
Es	-2.074056	-0.111019	-0.144362	99
Es	1.307153	1.160579	0.096778	99
Es	-0.656562	0.029202	-0.075812	99
Es	1.296335	-0.288738	-0.029395	99
Es	-0.100602	1.458703	0.053773	99
Es	0.250815	-0.654367	-1.146113	99
Es	0.173918	-0.828657	0.931160	99
Es	1.553827	1.351602	0.122242	99
Es	-2.227301	-0.217920	-0.390214	99
Es	0.844758	-0.477098	-0.666258	99
Es	-0.315678	1.789524	0.685662	99
Es	0.190584	-0.590100	1.620275	99
Es	1.968000	-0.590768	-0.029454	99
Es	0.146784	-1.363493	-1.248031	99
Es	-2.198073	0.042557	0.310547	99
Es	-0.257694	1.883574	-0.532918	99
Es	1.274430	0.618578	0.049742	99
Es	-1.576411	-0.047694	-0.089406	99
Es	-0.418879	0.746571	-0.010779	99
Es	-2.052658	-0.089863	-0.120530	99
Es	0.062932	-1.551177	0.906934	99
Es	0.324508	-0.310252	-1.781907	99
Es	1.277778	1.132340	0.096550	99
Es	0.787470	1.247241	0.078067	99
Es	-0.296856	-0.307437	-0.697531	99
Es	-0.322002	-0.409932	0.515314	99
Es	0.808605	-0.580415	0.545642	99
