39
Properties=species:S:1:pos:R:3:Z:I:1 energy=-342.6676459664755 field_type=dipole dipole="0.000000 0.000000 0.000000" charge=0
O	-2.735644	-0.492192	0.235385	8
C	-1.515534	-0.443682	0.110405	6
C	-0.814114	0.878678	-0.107015	6
C	0.695276	0.908058	0.050065	6
C	1.337445	-0.426892	-0.019915	6
C	0.616296	-1.543882	-0.008915	6
O	-0.774395	-1.586662	0.082605	8
H	-1.249694	1.595828	0.601525	1
H	-1.082494	1.213268	-1.115795	1
H	0.960066	1.373978	1.005615	1
H	1.117425	1.550388	-0.730845	1
H	2.422385	-0.480382	-0.062805	1
H	1.022986	-2.546512	-0.040305	1
Es	-0.774126	-1.586232	0.082559	99
Es	-2.735274	-0.492511	0.235382	99
Es	-1.514878	-0.443510	0.110352	99
Es	0.615733	-1.543848	-0.008972	99
Es	-0.814022	0.877995	-0.106866	99
Es	0.695026	0.907513	0.049997	99
Es	1.337757	-0.426925	-0.019957	99
Es	-0.926915	-1.875185	0.120243	99
Es	-2.219984	-0.491573	0.200767	99
Es	2.035926	-0.461027	-0.042177	99
Es	0.884678	-2.202496	-0.041050	99
Es	-1.094268	1.344032	0.356467	99
Es	-0.993442	-1.124087	0.092250	99
Es	0.940747	-0.953843	-0.089366	99
Es	0.861217	1.208371	0.687817	99
Es	-0.983223	1.078991	-0.761426	99
Es	-0.251635	-1.498835	0.038299	99
Es	-3.005031	-0.487543	0.260931	99
Es	-0.768426	-1.494402	0.063579	99
Es	0.970776	1.334483	-0.474263	99
Es	-0.054060	0.863576	-0.025904	99
Es	-1.138646	0.182439	0.011993	99
Es	1.022054	0.182393	0.015231	99
Es	-2.415136	-0.472523	0.191239	99
Es	-2.651122	-0.488968	0.226821	99
Es	1.018969	-0.970226	0.050293	99
