39
Properties=species:S:1:pos:R:3:Z:I:1 energy=-342.64944504151026 field_type=dipole dipole="0.000000 0.000000 0.000000" charge=0
O	-2.642030	-0.043708	0.092456	8
C	-1.418380	0.000382	-0.001034	6
C	-0.621751	1.297101	0.023486	6
O	0.642550	1.179251	-0.618964	8
C	1.441169	0.133642	-0.069094	6
C	0.698539	-1.167189	-0.056044	6
C	-0.638000	-1.257708	-0.056514	6
H	-1.190610	2.060861	-0.514984	1
H	-0.485420	1.620071	1.061026	1
H	1.771889	0.404742	0.939466	1
H	2.329110	0.040932	-0.702214	1
H	1.294489	-2.075388	-0.046784	1
H	-1.181551	-2.192988	-0.050804	1
Es	0.642311	1.178826	-0.618668	99
Es	-2.641591	-0.043750	0.092410	99
Es	-1.418098	0.000638	-0.001083	99
Es	1.440854	0.133464	-0.069050	99
Es	-0.621635	1.296860	0.023449	99
Es	0.698395	-1.166953	-0.055990	99
Es	-0.638107	-1.257758	-0.056511	99
Es	0.740039	1.375787	-0.849677	99
Es	-2.163386	-0.014400	0.028223	99
Es	-0.994960	-0.650726	-0.045932	99
Es	-1.023745	0.638026	0.005345	99
Es	1.062593	-0.551260	-0.048202	99
Es	-0.006567	-1.166735	-0.013481	99
Es	-0.530616	1.486034	0.712660	99
Es	2.029930	0.071602	-0.483589	99
Es	0.900495	0.780937	-0.378463	99
Es	-0.991854	1.807771	-0.321519	99
Es	1.639225	0.302003	0.600524	99
Es	1.082954	-1.773031	-0.049314	99
Es	-2.889829	0.064030	0.121323	99
Es	0.625067	1.148466	-0.603135	99
Es	-2.271902	-0.038059	0.088921	99
Es	-2.578827	-0.165655	0.085528	99
Es	0.190920	1.176494	-0.350943	99
Es	-0.953472	-1.878627	-0.050528	99
Es	-0.072848	-1.167550	-0.098360	99
