39
Properties=species:S:1:pos:R:3:Z:I:1 energy=-342.63509698152114 field_type=dipole dipole="0.000000 0.000000 0.000000" charge=0
O	-1.991412	-1.465266	0.544133	8
C	-1.027122	-1.547836	-0.215767	6
C	0.087788	-0.495256	-0.376017	6
C	-0.357542	0.971464	-0.661347	6
C	0.733618	1.399833	0.339483	6
O	1.338938	2.429914	0.540113	8
C	0.810158	-0.024036	0.923273	6
H	-0.914552	-2.438616	-0.856067	1
H	0.817198	-0.835346	-1.126887	1
H	-1.366882	1.233914	-0.331757	1
H	-0.195012	1.315104	-1.685017	1
H	1.824028	-0.406736	1.055693	1
H	0.240788	-0.137136	1.850163	1
Es	-1.990755	-1.464511	0.544123	99
Es	1.338698	2.429489	0.540023	99
Es	-1.026606	-1.547652	-0.216030	99
Es	0.733601	1.399776	0.339459	99
Es	0.087357	-0.495333	-0.375747	99
Es	0.810037	-0.023823	0.922827	99
Es	-0.357155	0.971243	-0.661103	99
Es	1.467310	2.649584	0.583537	99
Es	-1.601216	-1.488798	0.243175	99
Es	-0.205952	0.184975	-0.573488	99
Es	-0.499914	-1.052760	-0.293210	99
Es	0.439580	-0.086165	1.503455	99
Es	-0.910828	-2.121997	-0.660574	99
Es	-0.991480	1.134083	-0.438646	99
Es	1.476894	-0.278570	1.012711	99
Es	1.139344	2.010057	0.423655	99
Es	-1.900815	-1.324590	0.565632	99
Es	0.822589	0.708200	0.706662	99
Es	-0.253782	1.197285	-1.336434	99
Es	0.576316	-0.724427	-0.879813	99
Es	-1.698155	-1.489095	0.313518	99
Es	0.162708	1.270663	-0.188724	99
Es	1.125820	2.138726	0.514374	99
Es	0.434005	-0.360612	0.295000	99
Es	-2.234505	-1.588121	0.645809	99
Es	1.296619	2.356833	0.525296	99
