42
Properties=species:S:1:pos:R:3:Z:I:1 energy=-343.7904295565835 field_type=dipole dipole="0.000000 0.000000 0.000000" charge=0
O	-0.142710	-1.134973	2.338453	8
C	-1.154460	-0.656143	1.836073	6
C	-1.354400	-0.430293	0.357663	6
C	-0.085140	-0.628043	-0.464417	6
C	0.927520	0.447577	-0.213567	6
C	1.635750	1.137537	-1.350057	6
O	0.533940	1.750147	-0.665227	8
H	-2.020730	-0.393193	2.467733	1
H	-1.748940	0.582967	0.225743	1
H	-2.123400	-1.137403	0.027923	1
H	-0.358170	-0.642593	-1.526667	1
H	0.369220	-1.601083	-0.243447	1
H	1.431330	0.365127	0.741263	1
H	1.466830	0.797807	-2.363827	1
H	2.623360	1.542567	-1.167647	1
Es	0.534362	1.749804	-0.665222	99
Es	-0.142562	-1.134874	2.337501	99
Es	-1.154654	-0.656010	1.835918	99
Es	0.927324	0.448261	-0.214163	99
Es	1.635219	1.137665	-1.349567	99
Es	-1.354011	-0.430278	0.357920	99
Es	-0.085251	-0.627801	-0.464165	99
Es	0.379702	1.970113	-0.601603	99
Es	-0.032654	-1.218764	2.602104	99
Es	-1.239407	-0.543566	1.138453	99
Es	1.418135	0.612843	-0.835438	99
Es	1.512209	0.915859	-2.041188	99
Es	-1.616807	0.226275	0.280080	99
Es	-1.753877	-0.465617	2.228323	99
Es	0.216069	-1.266278	-0.315765	99
Es	2.300890	1.410138	-1.207265	99
Es	1.251028	0.400644	0.432264	99
Es	-0.532932	-0.928149	2.132267	99
Es	-1.857882	-0.896911	0.153168	99
Es	0.606460	1.383351	-0.488052	99
Es	-0.722330	-0.520592	-0.033001	99
Es	0.430704	-0.069067	-0.349095	99
Es	-0.274082	-0.639642	-1.181732	99
Es	-0.448107	-1.004452	2.185794	99
Es	0.536304	1.686535	-0.698016	99
Es	-0.092869	-1.130434	2.156345	99
Es	0.973679	1.490796	-0.928347	99
