49
Properties=species:S:1:pos:R:3:Z:I:1 energy=-273.29227761609997 field_type=dipole dipole="0.000000 0.000000 0.000000" charge=0
C	-0.877637	-2.255087	-0.920390	6
C	-1.215197	-0.948467	-0.217980	6
C	0.009973	-0.093227	0.058220	6
C	0.912053	-0.619897	1.148459	6
C	0.648903	0.641973	-1.105700	6
C	-0.162047	1.414453	-0.101640	6
C	0.496673	2.406993	0.796760	6
H	-1.794207	-2.809677	-1.146801	1
H	-0.246237	-2.895627	-0.296900	1
H	-0.347817	-2.074307	-1.861550	1
H	-1.727737	-1.161847	0.726720	1
H	-1.930317	-0.399007	-0.842240	1
H	1.821823	-0.022947	1.265579	1
H	1.232233	-1.642477	0.929789	1
H	0.383353	-0.622747	2.106660	1
H	0.229023	0.511213	-2.097750	1
H	1.726923	0.764583	-1.111230	1
H	-1.136277	1.777973	-0.416220	1
H	1.561373	2.205313	0.942480	1
H	0.007303	2.412253	1.775039	1
H	0.407843	3.410563	0.368700	1
Es	0.009790	-0.093187	0.058225	99
Es	-0.162289	1.415326	-0.101826	99
Es	-1.214510	-0.947927	-0.218002	99
Es	0.648126	0.642240	-1.105520	99
Es	0.911839	-0.619636	1.148213	99
Es	0.496466	2.406518	0.796457	99
Es	-0.877786	-2.254410	-0.920019	99
Es	0.263760	1.161324	-0.682227	99
Es	-0.519512	-2.132060	-1.548637	99
Es	1.203761	2.259124	0.896320	99
Es	1.510903	-0.202442	1.210720	99
Es	-1.663778	-0.536073	-0.640901	99
Es	0.377503	0.548900	-1.750625	99
Es	0.455135	-0.340322	0.581175	99
Es	1.350188	0.714957	-1.098380	99
Es	-0.447123	-2.681397	-0.498234	99
Es	0.539637	-0.613641	1.794186	99
Es	0.161286	1.866142	0.335834	99
Es	0.168340	2.402382	1.457170	99
Es	0.443357	3.094047	0.506222	99
Es	1.125142	-1.314655	0.987031	99
Es	-1.507290	-2.636582	-1.076348	99
Es	-0.986987	-1.559137	-0.561494	99
Es	-1.535072	-1.068252	0.428280	99
Es	-0.794064	1.623143	-0.298211	99
Es	-0.622969	-0.537009	-0.087115	99
Es	0.406013	0.078749	-0.633625	99
Es	-0.198013	0.687220	0.157661	99
