43
Properties=species:S:1:pos:R:3:Z:I:1 energy=-323.9167107879969 field_type=dipole dipole="0.000000 0.000000 0.000000" charge=0
C	-0.394707	1.375638	-1.701999	6
N	-1.488348	0.676727	-1.034049	7
C	-0.221207	-0.032783	-1.205429	6
C	0.628763	-0.405883	-0.016169	6
C	0.369642	0.177847	1.381941	6
C	0.407353	-1.268913	1.851411	6
O	0.436433	-1.759962	0.492351	8
H	-0.502507	1.541918	-2.765569	1
H	0.060182	2.183958	-1.143659	1
H	-2.178147	0.331687	-1.704349	1
H	-0.198527	-0.834112	-1.935229	1
H	1.683923	-0.295243	-0.309079	1
H	-0.596467	0.666337	1.532611	1
H	1.166873	0.815617	1.771841	1
H	1.308702	-1.562133	2.397931	1
H	-0.481957	-1.610703	2.387441	1
Es	0.436556	-1.759460	0.492565	99
Es	-1.488233	0.676520	-1.034557	99
Es	0.628427	-0.405937	-0.015979	99
Es	0.407345	-1.268582	1.850652	99
Es	-0.221567	-0.032346	-1.205354	99
Es	-0.394931	1.375001	-1.701674	99
Es	0.369889	0.177219	1.381460	99
Es	0.400114	-1.712076	0.507341	99
Es	-1.054113	1.031972	-1.375212	99
Es	1.346503	-0.321331	-0.222496	99
Es	0.160130	-0.190276	-0.620204	99
Es	-1.836046	0.461643	-1.456469	99
Es	-0.202537	-1.498325	2.218749	99
Es	-0.261490	0.496231	1.481853	99
Es	-0.209798	-0.583971	-1.688158	99
Es	1.026537	-1.469074	2.232430	99
Es	0.389974	-0.520209	1.690055	99
Es	-0.101105	1.918315	-1.319869	99
Es	0.426004	-1.590410	0.992330	99
Es	-0.463606	1.481487	-2.427656	99
Es	0.912760	0.617390	1.639926	99
Es	-1.043743	0.311769	-1.071829	99
Es	-0.079289	0.694871	-1.502082	99
Es	0.478037	-0.017232	0.643582	99
Es	0.496180	-1.276521	0.298793	99
Es	0.452490	-2.039490	0.354129	99
Es	-1.595927	0.768690	-0.670702	99
