42
Properties=species:S:1:pos:R:3:Z:I:1 energy=-339.94576001719895 field_type=dipole dipole="0.000000 0.000000 0.000000" charge=0
C	1.297906	0.026729	0.060851	6
C	0.393956	-1.101931	0.536371	6
N	-0.768394	-1.233251	-0.340889	7
N	-1.852704	-0.451561	-0.096939	7
C	-1.707844	0.812659	0.154601	6
O	-0.592574	1.585769	0.157481	8
C	0.536166	1.158459	-0.610899	6
H	2.043146	-0.358921	-0.645709	1
H	1.847806	0.414989	0.926651	1
H	0.965666	-2.036681	0.532551	1
H	0.074596	-0.939731	1.573221	1
H	-1.071604	-2.211142	-0.348999	1
H	-2.575064	1.423809	0.448481	1
H	1.198226	2.023549	-0.724159	1
H	0.210716	0.887259	-1.622619	1
Es	-0.592646	1.585411	0.157082	99
Es	-1.851988	-0.451713	-0.097030	99
Es	-0.768893	-1.233134	-0.340832	99
Es	-1.708541	0.813280	0.154985	99
Es	0.535866	1.158182	-0.610659	99
Es	0.393881	-1.101566	0.535732	99
Es	1.297290	0.026631	0.060838	99
Es	-0.589679	1.903323	0.253369	99
Es	-0.629284	-1.125558	-0.686031	99
Es	-1.696853	0.144307	0.041159	99
Es	1.802411	-0.233509	-0.418775	99
Es	0.308962	0.968914	-1.285239	99
Es	-0.353251	-1.172148	0.075236	99
Es	-2.265809	1.181023	0.337846	99
Es	-1.003163	1.235499	0.120074	99
Es	0.985110	1.747908	-0.683030	99
Es	0.775636	-1.736958	0.525883	99
Es	-0.961006	-1.783505	-0.280560	99
Es	0.832744	-0.521822	0.295287	99
Es	-0.608955	1.494738	0.202805	99
Es	-1.809679	0.049740	-0.021214	99
Es	-0.234189	1.379073	-0.110224	99
Es	1.668709	0.296856	0.648230	99
Es	0.173331	-0.982427	1.236918	99
Es	0.906691	0.571617	-0.273277	99
Es	-2.181756	-0.642531	-0.109330	99
Es	-1.294344	-0.791320	-0.168527	99
