39
Properties=species:S:1:pos:R:3:Z:I:1 energy=-338.70879409699927 field_type=dipole dipole="0.000000 0.000000 0.000000" charge=0
C	0.582457	-0.967683	0.958408	6
C	0.825507	-0.254383	-0.334402	6
C	0.538967	1.205247	-0.484792	6
O	-0.587523	1.571327	0.326808	8
N	-1.752913	0.817407	0.022358	7
C	-1.520583	-0.444253	-0.172032	6
N	-0.330433	-1.153283	-0.181072	7
H	1.159677	-1.854773	1.178428	1
H	0.151907	-0.448783	1.804538	1
H	1.577097	-0.627533	-1.014572	1
H	1.398247	1.794667	-0.151902	1
H	0.327487	1.462697	-1.528512	1
H	-2.369893	-1.100653	-0.423262	1
Es	-0.587371	1.570998	0.326417	99
Es	-1.752500	0.817190	0.022306	99
Es	-0.330251	-1.152603	-0.181006	99
Es	-1.521032	-0.444876	-0.172330	99
Es	0.538654	1.204796	-0.484591	99
Es	0.825348	-0.254542	-0.334723	99
Es	0.582136	-0.967463	0.957483	99
Es	-0.547024	1.459401	0.406165	99
Es	0.084573	-0.722899	-0.321225	99
Es	-1.573566	0.218467	-0.106751	99
Es	0.691377	0.430453	-0.407767	99
Es	-0.066686	-1.080469	0.340043	99
Es	0.292968	-0.631372	1.516794	99
Es	-2.047395	-0.840939	-0.324746	99
Es	-0.633726	1.867016	0.437467	99
Es	-1.040370	1.200560	0.168097	99
Es	0.393300	1.362912	-1.188522	99
Es	1.321284	-0.512832	-0.786721	99
Es	0.967694	-1.561289	1.098599	99
Es	-0.864778	-0.772627	-0.134196	99
Es	0.876535	-0.488385	0.411489	99
Es	-0.198945	1.386983	0.006530	99
Es	1.105068	1.601395	-0.265240	99
Es	-2.082293	1.007349	0.021286	99
Es	-0.307882	-1.493286	-0.358281	99
Es	-1.667854	0.314033	-0.024990	99
