46
Properties=species:S:1:pos:R:3:Z:I:1 energy=-325.12520471582974 field_type=dipole dipole="0.000000 0.000000 0.000000" charge=0
C	-2.026965	-0.581465	0.836105	6
C	-0.535015	-0.574285	0.823065	6
C	0.215755	-1.237205	-0.297175	6
C	0.259015	0.271205	-0.153964	6
N	-0.478265	1.071775	-1.156775	7
C	1.548835	0.900165	0.352916	6
O	2.353144	1.274045	-0.764395	8
H	-2.403165	0.309385	1.348196	1
H	-2.389785	-1.461335	1.376765	1
H	-2.457495	-0.608495	-0.169835	1
H	-0.141365	-0.682045	1.828535	1
H	-0.355165	-1.673135	-1.109415	1
H	1.097685	-1.812735	-0.037205	1
H	-0.728205	0.507815	-1.966914	1
H	0.140835	1.803745	-1.517164	1
H	2.125825	0.216345	0.983965	1
H	1.328025	1.802115	0.932375	1
H	2.446315	0.474105	-1.309084	1
Es	2.353343	1.273589	-0.764389	99
Es	-0.478122	1.071564	-1.156944	99
Es	1.548624	0.899985	0.352289	99
Es	0.258864	0.271114	-0.153853	99
Es	-0.535374	-0.574390	0.823229	99
Es	0.215652	-1.236820	-0.296634	99
Es	-2.026303	-0.581378	0.835936	99
Es	2.546224	1.523244	-0.742265	99
Es	-0.222734	0.011433	0.460438	99
Es	-0.142622	0.725948	-0.782268	99
Es	-2.307041	-0.599251	0.160407	99
Es	1.920057	0.409781	0.777721	99
Es	0.796742	-1.612858	-0.129220	99
Es	-0.264397	-0.638471	1.470247	99
Es	2.378959	0.848034	-1.021845	99
Es	1.382070	1.504751	0.732945	99
Es	-0.157992	-1.506875	-0.838541	99
Es	2.041442	1.104117	-0.403445	99
Es	-0.087341	1.426834	-1.358162	99
Es	0.413662	-0.495751	-0.398401	99
Es	-2.273430	-1.182352	1.203227	99
Es	-2.271745	0.019502	1.177042	99
Es	0.876393	0.576070	0.103506	99
Es	-1.224779	-0.572278	0.810589	99
Es	-0.562708	0.728765	-1.614119	99
Es	2.272864	1.274067	-0.803020	99
Es	-0.218782	-1.060334	0.303648	99
Es	-0.801179	1.218791	-0.974067	99
