39
Properties=species:S:1:pos:R:3:Z:I:1 energy=-338.750601713586 field_type=dipole dipole="0.000000 0.000000 0.000000" charge=0
C	-1.744174	0.164542	0.093009	6
C	-0.268504	0.222962	0.080479	6
C	0.628886	1.263972	-0.037561	6
C	1.899746	0.649132	-0.036451	6
N	1.811285	-0.684918	0.058689	7
N	0.502226	-0.888668	0.195139	7
O	0.039226	-2.180038	0.265539	8
H	-2.177034	1.168062	0.103129	1
H	-2.104144	-0.372058	0.975419	1
H	-2.108864	-0.354888	-0.798861	1
H	0.400876	2.319652	-0.129211	1
H	2.878626	1.111102	-0.118531	1
H	0.241846	-2.418858	-0.650791	1
Es	0.039620	-2.179959	0.264998	99
Es	0.502356	-0.888964	0.195169	99
Es	1.810264	-0.684683	0.058839	99
Es	-0.268501	0.222724	0.080524	99
Es	1.899742	0.648975	-0.036432	99
Es	-1.743776	0.164390	0.093020	99
Es	0.628953	1.263965	-0.037576	99
Es	1.140433	-0.765807	0.109793	99
Es	0.241366	-1.627714	0.220728	99
Es	0.175922	-0.431777	0.147450	99
Es	1.306970	0.969348	-0.027294	99
Es	-2.026298	0.829544	0.098387	99
Es	-0.974291	0.200806	0.091265	99
Es	0.142489	-2.270683	-0.209434	99
Es	-0.036380	-2.293972	0.519070	99
Es	1.799125	-0.076610	0.038148	99
Es	2.516857	0.963841	-0.090338	99
Es	0.462302	1.965588	-0.099657	99
Es	-1.973368	-0.179702	-0.498546	99
Es	0.155152	0.755862	0.010868	99
Es	1.720319	-0.200889	-0.000573	99
Es	-1.974976	-0.191442	0.672858	99
Es	0.024912	-2.146267	0.229135	99
Es	2.020122	-0.995106	0.067077	99
Es	0.495879	-0.649392	0.199763	99
Es	0.521420	0.886324	-0.001588	99
