39
Properties=species:S:1:pos:R:3:Z:I:1 energy=-338.86183507797693 field_type=dipole dipole="0.000000 0.000000 0.000000" charge=0
C	-1.968951	-0.219748	0.478218	6
C	-0.677111	-0.106758	0.165878	6
C	0.159109	1.147302	0.092298	6
N	1.437439	0.616592	-0.307802	7
C	1.408639	-0.760618	-0.448532	6
O	2.343719	-1.469198	-0.770692	8
N	0.121169	-1.167938	-0.155512	7
H	-2.468731	-1.182688	0.495958	1
H	-2.562881	0.654852	0.723448	1
H	0.269109	1.637842	1.062868	1
H	-0.190661	1.845252	-0.672352	1
H	2.282849	1.142912	-0.471382	1
H	-0.153701	-2.137808	-0.192402	1
Es	2.343717	-1.469238	-0.770696	99
Es	0.121164	-1.167861	-0.155498	99
Es	1.437352	0.616669	-0.307769	99
Es	1.408377	-0.760474	-0.448448	99
Es	-0.676662	-0.106765	0.165762	99
Es	0.159569	1.146523	0.092089	99
Es	-1.968571	-0.219626	0.478140	99
Es	1.944177	-1.163176	-0.632739	99
Es	0.684109	-0.994677	-0.284519	99
Es	1.418732	0.013963	-0.366378	99
Es	-1.396520	-0.174288	0.337556	99
Es	-0.088102	1.609348	-0.415213	99
Es	-0.059852	-1.726666	-0.172093	99
Es	-0.232915	-0.726861	-0.016630	99
Es	2.547896	-1.645979	-0.843361	99
Es	0.218569	1.470659	0.743942	99
Es	1.927998	0.927538	-0.400577	99
Es	-2.301388	0.346162	0.625491	99
Es	0.909763	0.874429	-0.137103	99
Es	-0.290602	0.526808	0.137431	99
Es	1.430097	0.510496	-0.323524	99
Es	-2.253345	-0.837689	0.480429	99
Es	0.156338	-1.088611	-0.152274	99
Es	2.282890	-1.407214	-0.748041	99
Es	2.141901	-1.318983	-0.701456	99
Es	-1.432610	-0.158948	0.351681	99
