38
Properties=species:S:1:pos:R:3:Z:I:1 energy=-358.69455610767653 field_type=dipole dipole="0.000000 0.000000 0.000000" charge=0
C	-1.814144	-0.092142	0.285140	6
C	-0.499224	-0.003852	0.085210	6
C	0.384506	1.196318	0.141750	6
O	1.696186	0.684528	-0.173960	8
C	1.598696	-0.664562	-0.382590	6
O	2.531096	-1.395852	-0.666000	8
N	0.298726	-1.051342	-0.224360	7
H	-2.341894	-1.037452	0.211050	1
H	-2.402464	0.787277	0.528770	1
H	0.417126	1.641538	1.140060	1
H	0.114686	1.947577	-0.605500	1
H	0.016706	-2.012033	-0.339570	1
Es	1.695513	0.684333	-0.173874	99
Es	2.531008	-1.395875	-0.665989	99
Es	0.298761	-1.051279	-0.224351	99
Es	1.598413	-0.664331	-0.382502	99
Es	0.384901	1.195790	0.141593	99
Es	-0.498968	-0.003856	0.085166	99
Es	-1.813663	-0.092129	0.285068	99
Es	1.949950	0.877623	-0.184421	99
Es	2.135261	-1.070980	-0.543016	99
Es	0.869303	-0.881634	-0.294000	99
Es	-1.196819	-0.063126	0.187942	99
Es	-0.100947	0.602139	0.121278	99
Es	0.114819	-1.604297	-0.287919	99
Es	-0.060442	-0.616118	-0.091618	99
Es	1.618233	0.169027	-0.246438	99
Es	1.660794	0.602228	-0.183483	99
Es	-2.155148	0.492661	0.440268	99
Es	2.727997	-1.581423	-0.730901	99
Es	1.216462	0.820051	-0.067128	99
Es	-2.122471	-0.709892	0.230766	99
Es	0.198073	1.689037	-0.357958	99
Es	0.347741	-0.969003	-0.215913	99
Es	0.399815	1.484370	0.808352	99
Es	2.467294	-1.329644	-0.643906	99
Es	2.314744	-1.232505	-0.601667	99
Es	-1.262633	-0.042557	0.204549	99
