37
Properties=species:S:1:pos:R:3:Z:I:1 energy=-321.59454315408226 field_type=dipole dipole="0.000000 0.000000 0.000000" charge=0
C	-2.470727	-0.189929	0.182574	6
C	-1.026727	-0.189929	0.182574	6
C	0.163433	-0.189929	0.182574	6
C	1.607433	-0.189929	0.182574	6
O	2.075533	-0.910409	-0.963046	8
C	2.089453	1.171241	0.182574	6
N	2.473663	2.256231	0.182574	7
H	-2.864707	0.830961	0.194224	1
H	-2.864797	-0.710449	1.060824	1
H	-2.864747	-0.690229	-0.707376	1
H	1.984743	-0.720559	1.062664	1
H	1.697453	-0.467069	-1.742736	1
Es	2.075282	-0.909942	-0.963245	99
Es	2.474450	2.258505	0.182505	99
Es	1.607087	-0.189670	0.182467	99
Es	2.087931	1.169676	0.182664	99
Es	-2.469291	-0.189685	0.182603	99
Es	-1.030412	-0.189509	0.182480	99
Es	0.164963	-0.190013	0.182821	99
Es	2.227777	-1.172920	-0.938945	99
Es	2.016134	1.590888	0.155572	99
Es	-1.326041	-0.114901	0.167859	99
Es	1.833677	0.531587	0.194070	99
Es	-0.679601	-0.185126	0.170804	99
Es	1.829400	-0.509708	0.749338	99
Es	0.898577	-0.125670	0.188271	99
Es	1.866948	-0.603873	-0.562067	99
Es	-2.660710	0.487963	0.189655	99
Es	-2.668320	-0.507715	-0.397877	99
Es	-2.682158	-0.523753	0.754305	99
Es	1.869648	-0.661275	-1.325328	99
Es	2.588681	2.582686	0.167913	99
Es	2.084263	-0.856411	-0.957885	99
Es	2.345684	1.756586	0.186392	99
Es	2.288264	1.749888	0.210369	99
Es	-0.406047	-0.186019	0.175712	99
Es	-0.377562	-0.175018	0.200098	99
