45
Properties=species:S:1:pos:R:3:Z:I:1 energy=-341.10004918939035 field_type=dipole dipole="0.000000 0.000000 0.000000" charge=0
C	-1.002392	0.550296	1.717254	6
C	0.121648	-0.018444	0.856904	6
C	0.313748	-1.506034	1.134674	6
N	-0.258022	0.161186	-0.550907	7
C	0.734298	0.357276	-1.349256	6
N	0.606918	0.540666	-2.702306	7
O	-0.681602	0.946646	-3.074206	8
H	-1.136522	1.619116	1.518504	1
H	-0.780592	0.427856	2.782363	1
H	-1.956362	0.054116	1.506693	1
H	1.045958	0.521616	1.099983	1
H	-0.592762	-2.075054	0.900504	1
H	0.563618	-1.677744	2.186674	1
H	1.125608	-1.914394	0.523353	1
H	1.789098	0.380436	-1.022946	1
H	1.348838	1.051006	-3.175797	1
H	-1.241482	0.581456	-2.351487	1
Es	-0.681783	0.946344	-3.073804	99
Es	0.608487	0.536197	-2.703045	99
Es	-0.257478	0.161217	-0.550436	99
Es	0.734376	0.357274	-1.349456	99
Es	0.121377	-0.018531	0.856834	99
Es	0.313680	-1.505270	1.134516	99
Es	-1.001847	0.550052	1.716817	99
Es	-0.928433	0.754727	-2.712014	99
Es	0.241914	0.247718	-0.923695	99
Es	0.683044	0.184804	-2.761238	99
Es	-0.447112	0.273308	1.294522	99
Es	-0.300711	-1.879621	0.978559	99
Es	-0.040052	0.096128	-0.000955	99
Es	1.423704	0.374946	-1.121257	99
Es	0.998639	0.890091	-2.894681	99
Es	-0.677607	0.989344	-3.012546	99
Es	0.759813	0.350079	1.005523	99
Es	0.642224	0.550914	-2.097327	99
Es	0.871610	-1.781744	0.712621	99
Es	0.221932	-0.760233	0.992849	99
Es	-0.732079	1.050931	-3.359188	99
Es	0.483018	-1.619108	1.850667	99
Es	-0.838168	0.456162	2.442546	99
Es	-1.089392	1.279021	1.581461	99
Es	-1.639080	0.203350	1.568401	99
Es	-0.107027	0.775945	-2.868112	99
Es	-0.640731	0.138668	-0.644431	99
Es	0.086449	0.242345	-0.794949	99
