41
Properties=species:S:1:pos:R:3:Z:I:1 energy=-359.8517470916432 field_type=dipole dipole="0.000000 0.000000 0.000000" charge=0
C	-1.489197	0.507099	-0.078549	6
C	-0.018497	0.296469	0.093491	6
C	0.630143	-0.878851	0.058181	6
N	0.126603	-2.132041	-0.184539	7
C	0.756773	1.529909	0.368781	6
O	1.851234	1.648649	-0.412109	8
O	0.404384	2.379298	1.168151	8
H	-1.677607	1.259399	-0.852059	1
H	-1.938627	0.854899	0.857491	1
H	-2.012167	-0.404721	-0.380259	1
H	1.704503	-0.919251	0.244741	1
H	-0.879956	-2.221591	-0.062859	1
H	0.633173	-2.882111	0.284261	1
H	1.909233	0.962849	-1.104719	1
Es	1.851236	1.648360	-0.412368	99
Es	0.404467	2.378972	1.167894	99
Es	0.127007	-2.132519	-0.187686	99
Es	0.756787	1.529342	0.368452	99
Es	0.630490	-0.878819	0.058117	99
Es	-0.018440	0.296538	0.093485	99
Es	-1.488757	0.507089	-0.078500	99
Es	1.765858	1.613734	-0.377205	99
Es	0.377806	2.604592	1.326327	99
Es	0.191030	-2.165308	-0.542562	99
Es	1.309750	-0.842100	0.174302	99
Es	-1.605220	1.005148	-0.604770	99
Es	0.392010	0.900641	0.227128	99
Es	1.437612	1.565660	-0.145838	99
Es	0.340834	-0.373525	0.005633	99
Es	0.387426	-2.487229	0.145185	99
Es	-0.408052	-2.154512	-0.051224	99
Es	0.564004	2.031849	0.839063	99
Es	1.833504	1.293786	-0.738550	99
Es	2.085346	1.875008	-0.376028	99
Es	-1.782812	0.729121	0.543876	99
Es	-1.826595	-0.117790	-0.277835	99
Es	-0.738749	0.382168	0.017446	99
Es	0.303760	-1.583950	-0.018089	99
Es	0.484055	2.158166	0.963952	99
Es	0.368652	2.275223	1.134681	99
Es	0.285525	-0.145661	0.125069	99
