49
Properties=species:S:1:pos:R:3:Z:I:1 energy=-326.33847497008924 field_type=dipole dipole="0.000000 0.000000 0.000000" charge=0
C	-1.429739	-1.036881	0.173610	6
C	0.068011	-0.752082	0.297460	6
C	0.659241	-1.583622	1.439020	6
O	0.703721	-1.191452	-0.905170	8
C	0.370231	0.745189	0.534260	6
C	-0.143139	1.705288	-0.545870	6
N	0.426601	1.405048	-1.859360	7
H	-1.856909	-0.564932	-0.717410	1
H	-1.979519	-0.688802	1.054060	1
H	-1.611229	-2.111892	0.057140	1
H	0.216431	-1.317591	2.404350	1
H	1.744281	-1.441231	1.503230	1
H	0.499931	-2.654501	1.267150	1
H	0.534011	-0.490301	-1.573390	1
H	1.457901	0.879499	0.613680	1
H	-0.056679	1.054178	1.496980	1
H	0.123191	2.731828	-0.270080	1
H	-1.234999	1.665198	-0.607410	1
H	1.437121	1.563559	-1.826120	1
H	0.071551	2.083498	-2.536130	1
Es	0.703399	-1.190875	-0.905265	99
Es	0.426656	1.405213	-1.859239	99
Es	0.068297	-0.752246	0.297389	99
Es	-0.142561	1.704585	-0.546038	99
Es	0.369874	0.745396	0.533549	99
Es	-1.428990	-1.036763	0.173634	99
Es	0.658870	-1.583033	1.438342	99
Es	0.903546	-1.431384	-0.916462	99
Es	0.332340	1.016926	-1.977283	99
Es	0.532039	-2.308890	1.310429	99
Es	1.114281	0.830115	0.584512	99
Es	-1.545006	-1.768882	0.103917	99
Es	0.046445	2.407525	-0.345449	99
Es	0.468014	-1.006059	-0.493053	99
Es	-0.887310	1.678742	-0.593707	99
Es	0.237455	1.827234	-2.205603	99
Es	-1.704270	-0.698924	-0.435319	99
Es	0.098501	1.207671	-0.026870	99
Es	1.007543	1.536669	-1.818129	99
Es	0.586089	-0.840216	-1.198528	99
Es	-0.709450	-0.888960	0.240980	99
Es	-1.795961	-0.788413	0.777267	99
Es	0.345717	-1.385086	2.087908	99
Es	1.396044	-1.462416	1.476874	99
Es	0.077484	0.953139	1.179585	99
Es	0.209498	0.024892	0.417301	99
Es	0.374749	-1.179700	0.901214	99
Es	0.654696	-1.180867	-0.905457	99
Es	0.214809	1.556903	-1.331081	99
