46
Properties=species:S:1:pos:R:3:Z:I:1 energy=-325.1278116605428 field_type=dipole dipole="0.000000 0.000000 0.000000" charge=0
C	-1.959963	-0.633224	0.190349	6
C	-0.459813	-0.775874	-0.048451	6
N	-0.200073	-1.360624	-1.360491	7
C	0.226137	0.558166	-0.009101	6
C	0.721927	1.121226	1.300049	6
C	1.703377	0.640056	0.272739	6
O	2.407767	1.671756	-0.431521	8
H	-2.153263	-0.192194	1.174789	1
H	-2.459363	-1.607784	0.154359	1
H	-2.428793	0.017596	-0.556851	1
H	-0.042183	-1.441814	0.715689	1
H	-0.648733	-0.794784	-2.079091	1
H	-0.646403	-2.275114	-1.413131	1
H	-0.187823	1.264226	-0.721331	1
H	0.610577	0.531206	2.201489	1
H	0.640047	2.190606	1.457409	1
H	2.236657	-0.282704	0.480039	1
H	2.639917	1.369276	-1.326941	1
Es	2.407751	1.671322	-0.431872	99
Es	-0.200552	-1.360556	-1.360311	99
Es	1.703085	0.640614	0.272810	99
Es	-0.459599	-0.775786	-0.048757	99
Es	0.226208	0.557999	-0.009184	99
Es	0.722290	1.120922	1.299432	99
Es	-1.959146	-0.633257	0.190208	99
Es	2.501407	1.937815	-0.291882	99
Es	-0.506763	-1.862575	-1.375612	99
Es	0.641613	0.721702	1.890881	99
Es	-2.088276	-0.334789	0.847988	99
Es	-0.099711	-0.073254	-0.010574	99
Es	2.053899	0.022364	0.392440	99
Es	-0.173455	-1.228211	0.465827	99
Es	2.175346	1.265753	-0.212129	99
Es	1.344764	0.920352	0.891445	99
Es	2.494676	1.484833	-0.879831	99
Es	-0.359565	-1.117043	-0.830807	99
Es	-0.498393	-1.039872	-1.740352	99
Es	-1.204624	-0.689851	0.083697	99
Es	-2.299952	-1.308299	0.163197	99
Es	0.659139	1.819733	1.403722	99
Es	-2.263425	-0.188536	-0.323511	99
Es	2.352492	1.653535	-0.452684	99
Es	-0.039774	1.009021	-0.474921	99
Es	0.272135	0.878724	0.741841	99
Es	0.192794	-1.388386	-1.428216	99
Es	1.005578	0.492119	-0.059206	99
