43
Properties=species:S:1:pos:R:3:Z:I:1 energy=-323.9937041547738 field_type=dipole dipole="0.000000 0.000000 0.000000" charge=0
C	-0.163743	-1.575234	0.988882	6
C	-0.428313	-0.927864	-0.362657	6
N	0.385037	0.271246	-0.568507	7
C	-0.014293	1.526646	-0.136277	6
C	-1.149673	1.820846	0.505723	6
C	1.629007	0.099906	-1.174808	6
O	2.110057	-0.959774	-1.560777	8
H	-0.771473	-2.478264	1.102342	1
H	-0.407083	-0.895034	1.811132	1
H	0.889467	-1.857184	1.090253	1
H	-1.490123	-0.687214	-0.480907	1
H	-0.197673	-1.655454	-1.150247	1
H	0.679047	2.340506	-0.345577	1
H	-1.899113	1.084635	0.768832	1
H	-1.356533	2.846216	0.798523	1
H	2.185407	1.046026	-1.285928	1
Es	2.109582	-0.959761	-1.560529	99
Es	0.384837	0.271111	-0.568345	99
Es	1.628992	0.101067	-1.174531	99
Es	-0.014011	1.526402	-0.136451	99
Es	-0.428124	-0.927517	-0.362583	99
Es	-1.149617	1.820555	0.505597	99
Es	-0.163848	-1.574873	0.988282	99
Es	2.328352	-1.093528	-1.698477	99
Es	0.949367	0.200835	-0.827536	99
Es	-0.289724	-1.236436	0.313617	99
Es	0.475998	2.051473	-0.291656	99
Es	0.546099	-1.760084	1.057206	99
Es	-1.265641	2.519435	0.682774	99
Es	1.979335	0.753065	-1.230512	99
Es	0.192547	0.821968	-0.361955	99
Es	-1.138760	-0.739719	-0.428697	99
Es	1.895374	-0.535870	-1.378127	99
Es	0.049075	-0.230277	-0.460493	99
Es	-0.277179	-1.400801	-0.895262	99
Es	-0.614407	1.645802	0.174783	99
Es	-1.634115	1.299315	0.678268	99
Es	1.983815	-0.688958	-1.469402	99
Es	-0.579330	-2.183896	1.061082	99
Es	-0.333427	-1.112727	1.538797	99
Es	0.450304	0.326087	-0.647038	99
Es	1.963294	-0.981509	-1.495000	99
Es	-0.637192	1.703889	0.236525	99
