45
Properties=species:S:1:pos:R:3:Z:I:1 energy=-341.10313648677595 field_type=dipole dipole="0.000000 0.000000 0.000000" charge=0
C	-2.310864	-0.642042	0.909478	6
C	-0.937174	-0.844642	0.292268	6
N	-0.260834	0.448298	0.251268	7
C	0.944016	0.504518	-0.230252	6
C	1.698626	-0.697622	-0.755392	6
N	1.601366	1.720008	-0.274072	7
O	0.728936	2.815538	-0.217312	8
H	-2.854894	-1.590632	0.953648	1
H	-2.903174	0.067828	0.322088	1
H	-2.227484	-0.245292	1.927058	1
H	-1.059994	-1.252942	-0.716672	1
H	-0.378384	-1.560962	0.903998	1
H	1.152366	-1.141512	-1.591872	1
H	1.815716	-1.438412	0.039978	1
H	2.693646	-0.409082	-1.106212	1
H	2.355026	1.830988	-0.947692	1
H	-0.056894	2.435958	0.239698	1
Es	0.728647	2.815198	-0.216945	99
Es	1.603659	1.718906	-0.270885	99
Es	-0.261201	0.448598	0.251424	99
Es	0.943700	0.504581	-0.230093	99
Es	1.698380	-0.697410	-0.755201	99
Es	-0.937568	-0.844169	0.292469	99
Es	-2.310478	-0.642012	0.909334	99
Es	0.837753	3.099668	-0.267985	99
Es	0.300588	0.431837	0.023154	99
Es	1.280186	1.207609	-0.341161	99
Es	-2.253397	-0.378588	1.598066	99
Es	1.333064	-0.981147	-1.292188	99
Es	-0.475384	-0.102050	0.245730	99
Es	-1.005180	-1.121528	-0.401788	99
Es	1.096181	2.292425	-0.257583	99
Es	1.335191	-0.063980	-0.496469	99
Es	-0.541166	-1.331296	0.702839	99
Es	1.953080	1.749857	-0.713058	99
Es	0.684618	2.775020	-0.271416	99
Es	2.366098	-0.500323	-0.995698	99
Es	1.766707	-1.181345	-0.228679	99
Es	0.369533	2.608278	0.006471	99
Es	-2.675757	-1.294978	0.935772	99
Es	-1.624661	-0.743635	0.600145	99
Es	-2.711856	-0.165970	0.510291	99
Es	0.104364	0.446483	0.088977	99
Es	-0.472381	0.765144	0.391065	99
Es	1.766690	1.638335	0.041758	99
