49
Properties=species:S:1:pos:R:3:Z:I:1 energy=-326.33320840088385 field_type=dipole dipole="0.000000 0.000000 0.000000" charge=0
C	-0.389454	-2.001484	-0.905580	6
C	-0.905854	-0.878064	-0.014691	6
O	-0.556824	-1.179104	1.334700	8
C	-0.389934	0.521066	-0.427220	6
C	-1.057014	1.608326	0.426849	6
C	1.147235	0.659576	-0.392420	6
N	1.728106	0.380396	0.922369	7
H	-0.609104	-1.807714	-1.959930	1
H	-0.860054	-2.950264	-0.623330	1
H	0.688776	-2.150534	-0.786560	1
H	-2.000794	-0.881324	-0.066481	1
H	0.384356	-0.912284	1.433900	1
H	-0.701904	0.695596	-1.466120	1
H	-0.833904	1.493396	1.492319	1
H	-2.145644	1.573406	0.309229	1
H	-0.723284	2.604326	0.116159	1
H	1.434096	1.672746	-0.698510	1
H	1.595086	-0.022434	-1.122940	1
H	1.450976	1.118766	1.573680	1
H	2.745145	0.455606	0.854580	1
Es	-0.556315	-1.178962	1.334304	99
Es	1.728124	0.380759	0.922231	99
Es	-0.905442	-0.878031	-0.014436	99
Es	1.146715	0.659262	-0.391636	99
Es	-0.389777	0.521133	-0.427002	99
Es	-1.056679	1.607784	0.426420	99
Es	-0.389730	-2.000996	-0.905161	99
Es	-0.760423	-1.270745	1.554816	99
Es	1.578658	0.841149	1.264737	99
Es	-0.817087	2.285819	0.209095	99
Es	-0.533136	-1.853844	-1.622454	99
Es	1.453965	0.189820	-0.891161	99
Es	-0.895240	1.525696	1.143652	99
Es	0.391915	0.584637	-0.395626	99
Es	2.294102	0.468419	0.856784	99
Es	-0.105738	-1.052114	1.344482	99
Es	-1.651922	-0.864741	-0.053685	99
Es	-0.632411	-1.449146	-0.490707	99
Es	1.508644	0.527526	0.405125	99
Es	1.333699	1.352938	-0.601255	99
Es	-1.796606	1.579670	0.342980	99
Es	-0.720500	-2.647806	-0.717739	99
Es	-0.644464	-1.047333	0.844445	99
Es	0.345014	-2.078782	-0.818601	99
Es	-0.590905	0.633529	-1.115429	99
Es	-0.728712	1.075614	0.007068	99
Es	-0.628782	-0.173102	-0.228026	99
Es	-0.529818	-1.192706	1.298698	99
Es	1.609385	0.003120	1.051791	99
