41
Properties=species:S:1:pos:R:3:Z:I:1 energy=-359.86417803834706 field_type=dipole dipole="0.000000 0.000000 0.000000" charge=0
C	-2.107287	-0.446574	0.102566	6
C	-0.687357	-0.687114	-0.335204	6
O	-0.263627	-1.826674	-0.543334	8
C	0.161803	0.550386	-0.598034	6
N	1.555733	0.242576	-0.350374	7
C	2.117473	0.475046	0.877286	6
O	1.574673	1.064666	1.799426	8
H	-2.652657	0.064006	-0.694834	1
H	-2.114307	0.159216	1.012476	1
H	-2.594727	-1.401794	0.315756	1
H	-0.164117	1.371756	0.045956	1
H	0.050383	0.835316	-1.647204	1
H	1.986193	-0.466314	-0.934054	1
H	3.137823	0.065506	0.949576	1
Es	-0.263810	-1.826228	-0.543248	99
Es	1.574449	1.064563	1.799048	99
Es	1.555891	0.242885	-0.350357	99
Es	2.118065	0.474622	0.877020	99
Es	-0.687233	-0.687021	-0.335214	99
Es	0.161923	0.549860	-0.597748	99
Es	-2.106924	-0.446485	0.102439	99
Es	-0.372963	-2.093819	-0.525404	99
Es	1.585260	1.187345	2.068273	99
Es	1.782637	-0.187481	-0.638844	99
Es	-1.391309	-0.566012	-0.112339	99
Es	-0.269944	-0.061857	-0.447534	99
Es	2.792023	0.185914	0.898048	99
Es	0.959615	0.309291	-0.420291	99
Es	1.767339	0.289936	0.231889	99
Es	-0.413239	-1.387922	-0.456894	99
Es	-0.048135	1.089716	-0.188656	99
Es	-2.448202	-0.102655	-0.425607	99
Es	1.782883	0.822877	1.394412	99
Es	-2.104228	-0.039068	0.695556	99
Es	-2.436869	-1.070533	0.239760	99
Es	0.084130	0.720333	-1.288875	99
Es	1.703915	0.911373	1.581069	99
Es	-0.386733	-1.497425	-0.491739	99
Es	-0.092014	-1.725404	-0.593807	99
Es	1.485661	1.048669	1.679051	99
Es	1.711726	0.496027	-0.398515	99
