44
Properties=species:S:1:pos:R:3:Z:I:1 energy=-304.1265011758483 field_type=dipole dipole="0.000000 0.000000 0.000000" charge=0
C	-1.205649	-0.707359	-0.687381	6
N	-1.260969	0.779531	-0.583931	7
C	-0.021209	1.092091	0.182579	6
C	1.216861	0.711121	-0.662461	6
N	1.270361	-0.777149	-0.565641	7
C	0.019131	-1.093169	0.176579	6
C	-0.010469	-0.002819	1.232549	6
H	-1.104999	-1.028029	-1.729031	1
H	-2.124709	-1.135990	-0.272901	1
H	-2.069349	1.033141	-0.016461	1
H	-0.004979	2.115471	0.562779	1
H	2.129101	1.137380	-0.230381	1
H	1.134561	1.037060	-1.704731	1
H	2.069231	-1.033019	0.013649	1
H	-0.004599	-2.118519	0.551819	1
H	-0.909809	-0.023629	1.858829	1
H	0.877491	0.013891	1.874129	1
Es	1.270370	-0.776597	-0.565121	99
Es	-1.260987	0.778975	-0.583412	99
Es	-0.021158	1.092778	0.182861	99
Es	0.019074	-1.093852	0.176856	99
Es	1.216199	0.710615	-0.661924	99
Es	-1.204994	-0.706855	-0.686828	99
Es	-0.010467	-0.002817	1.232006	99
Es	1.258063	-0.170413	-0.567386	99
Es	-1.263582	0.952292	-0.943868	99
Es	-0.011626	0.573899	0.755937	99
Es	-0.579193	-0.929500	-0.272946	99
Es	-1.831951	-1.002917	-0.397457	99
Es	-0.759658	0.882986	-0.234973	99
Es	1.161275	0.930813	-1.357035	99
Es	-1.248655	0.173179	-0.588468	99
Es	0.763811	-0.882256	-0.226327	99
Es	0.597222	0.010811	1.663859	99
Es	1.713147	-0.896464	-0.182133	99
Es	-1.137968	-0.923538	-1.381715	99
Es	1.279090	-0.948033	-0.926312	99
Es	-0.018829	1.787517	0.438794	99
Es	-0.625733	-0.019012	1.653393	99
Es	0.011864	-1.789964	0.429600	99
Es	-0.000833	-0.577323	0.752801	99
Es	0.584113	0.930864	-0.257614	99
Es	1.838348	1.004990	-0.360444	99
Es	-1.710201	0.897187	-0.207203	99
