42
Properties=species:S:1:pos:R:3:Z:I:1 energy=-339.88486464318044 field_type=dipole dipole="0.000000 0.000000 0.000000" charge=0
C	-2.300728	-0.350537	0.291911	6
N	-0.884908	-0.515637	0.608791	7
C	-0.159279	-1.298957	-0.383269	6
C	0.000841	0.202693	-0.314179	6
C	1.199192	0.777593	0.322511	6
N	2.263881	0.893343	-0.400489	7
O	3.278412	1.463023	0.378821	8
H	-2.680728	0.555483	0.775051	1
H	-2.866108	-1.200077	0.688571	1
H	-2.518619	-0.274867	-0.780479	1
H	-0.702538	-1.720437	-1.219979	1
H	0.646461	-1.917697	-0.005709	1
H	-0.448598	0.801713	-1.097619	1
H	1.142802	1.094343	1.378631	1
H	4.029922	1.490013	-0.242559	1
Es	3.278730	1.462973	0.378382	99
Es	2.263998	0.893403	-0.400327	99
Es	-0.885038	-0.515625	0.608050	99
Es	1.198962	0.777442	0.322475	99
Es	0.001228	0.202597	-0.313828	99
Es	-0.159408	-1.298146	-0.382966	99
Es	-2.300291	-0.350548	0.291976	99
Es	3.232164	1.536404	0.677395	99
Es	-0.766325	-0.529180	0.976807	99
Es	1.801108	0.793907	-0.028735	99
Es	-1.471647	-0.440810	0.416920	99
Es	0.672323	0.528185	0.041481	99
Es	-0.542442	-1.584663	-0.939925	99
Es	0.366217	-1.707779	-0.120090	99
Es	3.650041	1.464462	0.032967	99
Es	-2.429700	-0.300769	-0.451856	99
Es	2.854420	1.230115	0.069667	99
Es	1.124949	0.953031	0.972523	99
Es	-2.681436	-0.932944	0.560147	99
Es	3.258286	1.454614	0.342691	99
Es	-2.551671	0.271182	0.614498	99
Es	-0.307327	0.599672	-0.832175	99
Es	0.074871	-0.535406	-0.486328	99
Es	-0.563445	-0.104473	0.245462	99
Es	2.330442	0.805617	-0.777338	99
Es	-0.638108	-0.949406	0.170321	99
Es	1.789340	0.895329	-0.118501	99
