45
Properties=species:S:1:pos:R:3:Z:I:1 energy=-288.1143523217748 field_type=dipole dipole="0.000000 0.000000 0.000000" charge=0
C	-1.944729	0.819199	-0.223868	6
C	-0.596659	0.458229	0.309282	6
C	-0.336219	-0.987981	0.657082	6
C	0.815531	-1.391571	-0.272418	6
C	1.649021	-0.116461	-0.448028	6
C	0.642681	0.992009	-0.355288	6
N	0.209511	1.508429	0.933022	7
H	-1.999789	1.869789	-0.529918	1
H	-2.711369	0.651069	0.540092	1
H	-2.190859	0.203499	-1.095938	1
H	-1.210169	-1.626971	0.492842	1
H	-0.038389	-1.085521	1.708122	1
H	1.401121	-2.228070	0.118962	1
H	0.405711	-1.690751	-1.244988	1
H	2.399791	-0.029351	0.346162	1
H	2.167661	-0.116651	-1.411988	1
H	0.561911	1.630669	-1.221718	1
H	0.775241	1.140429	1.698582	1
Es	0.210073	1.508043	0.933080	99
Es	-0.597292	0.459007	0.308678	99
Es	0.642268	0.991846	-0.355631	99
Es	-0.336043	-0.987682	0.656575	99
Es	0.815558	-1.391082	-0.271801	99
Es	1.648302	-0.116448	-0.448239	99
Es	-1.944034	0.819070	-0.223665	99
Es	0.051934	1.861113	0.956882	99
Es	0.240627	-1.194887	0.199449	99
Es	-1.956643	1.527991	-0.426429	99
Es	1.142690	0.467892	-0.386254	99
Es	0.528500	1.240661	1.341699	99
Es	-0.130390	-1.050130	1.380545	99
Es	0.604104	1.447820	-0.931636	99
Es	-0.510786	-0.270604	0.509798	99
Es	1.994826	-0.111457	-1.095185	99
Es	1.252720	-0.765429	-0.367086	99
Es	-1.260042	0.645397	0.056354	99
Es	-2.454369	0.697914	0.299041	99
Es	-2.086951	0.389040	-0.807757	99
Es	1.211189	-1.957564	-0.003132	99
Es	2.151667	-0.060736	0.097775	99
Es	0.531436	-1.596162	-0.935207	99
Es	-0.914745	-1.403765	0.544773	99
Es	0.498085	1.272724	0.389850	99
Es	-0.171479	1.078156	0.794188	99
Es	-0.005214	0.649698	-0.198655	99
