45
Properties=species:S:1:pos:R:3:Z:I:1 energy=-341.149658730037 field_type=dipole dipole="0.000000 0.000000 0.000000" charge=0
C	-1.529767	-0.807826	-0.166508	6
N	-0.126777	-0.641296	0.205582	7
C	0.626703	-1.884416	0.325852	6
C	0.505603	0.586064	0.054652	6
N	1.789063	0.769974	0.098602	7
C	-0.325497	1.871744	-0.171508	6
O	0.516843	3.005774	-0.321568	8
H	-2.152357	-0.021136	0.270242	1
H	-1.934697	-1.759936	0.193062	1
H	-1.636167	-0.781736	-1.255638	1
H	-0.018987	-2.730126	0.585872	1
H	1.375043	-1.809386	1.121492	1
H	1.129993	-2.117806	-0.618108	1
H	2.269123	-0.115786	0.253572	1
H	-0.978147	2.033164	0.691342	1
H	-0.929207	1.765594	-1.076998	1
H	1.419233	2.637134	-0.189938	1
Es	0.517176	3.005309	-0.321421	99
Es	-0.126706	-0.641318	0.205530	99
Es	1.789620	0.770576	0.098501	99
Es	0.505339	0.585916	0.054643	99
Es	-0.325664	1.871726	-0.171542	99
Es	0.626573	-1.884076	0.325797	99
Es	-1.529377	-0.807785	-0.166429	99
Es	0.414165	3.297057	-0.367998	99
Es	0.163826	-0.091287	0.080139	99
Es	1.196554	0.632522	0.104030	99
Es	1.139162	-1.819062	0.860637	99
Es	-1.596779	-0.780469	-0.907231	99
Es	-0.734524	1.785569	-0.775456	99
Es	0.083613	1.173018	-0.052726	99
Es	-0.726164	-0.707501	0.019917	99
Es	0.969941	-2.032358	-0.318740	99
Es	0.928244	2.809336	-0.254054	99
Es	-0.766748	1.963386	0.404597	99
Es	0.215886	-1.173801	0.227540	99
Es	-1.792949	-1.462205	0.076216	99
Es	-1.937411	-0.266048	0.125302	99
Es	2.005272	0.246536	0.187244	99
Es	0.175244	-2.445709	0.494991	99
Es	0.234325	2.553398	-0.259058	99
Es	1.408936	0.693503	0.055032	99
Es	1.977736	1.116132	0.073831	99
Es	0.525161	2.965084	-0.329141	99
Es	-0.106749	-0.527675	0.389321	99
