45
Properties=species:S:1:pos:R:3:Z:I:1 energy=-341.17588432278825 field_type=dipole dipole="0.000000 0.000000 0.000000" charge=0
C	-1.669130	0.954108	-0.212644	6
N	-0.424860	0.703078	0.488936	7
C	0.820400	0.689618	-0.276983	6
C	1.070520	-0.637442	-1.016653	6
N	1.167680	-1.781712	-0.108093	7
C	-0.441940	0.292208	1.807307	6
O	-1.442800	0.134748	2.494906	8
H	-2.516350	0.999548	0.477567	1
H	-1.842720	0.149988	-0.933003	1
H	-1.591740	1.909408	-0.740263	1
H	1.654140	0.881808	0.409046	1
H	0.790660	1.518238	-0.993213	1
H	2.005270	-0.558002	-1.581424	1
H	0.266490	-0.824812	-1.736513	1
H	0.267940	-1.909712	0.359077	1
H	1.318470	-2.632142	-0.650553	1
H	0.567970	0.111078	2.212507	1
Es	-1.442958	0.134902	2.494346	99
Es	-0.424821	0.702931	0.488737	99
Es	1.167582	-1.781675	-0.108124	99
Es	-0.440651	0.292242	1.807102	99
Es	0.820112	0.689347	-0.276872	99
Es	1.070396	-0.637368	-1.015979	99
Es	-1.668750	0.954023	-0.212411	99
Es	-1.038622	0.235445	2.195532	99
Es	-0.968041	0.784378	0.184525	99
Es	1.207054	-2.252563	-0.454637	99
Es	0.934303	0.020251	-0.635551	99
Es	-2.228876	0.983736	0.247992	99
Es	0.515906	-0.752613	-1.504243	99
Es	0.244893	0.184233	2.043598	99
Es	-0.436653	0.477984	1.075464	99
Es	0.632829	-1.850851	0.107795	99
Es	0.103160	0.643595	0.160153	99
Es	1.087555	-1.343569	-0.490723	99
Es	-1.198928	0.127529	2.313665	99
Es	1.703493	-0.584464	-1.407920	99
Es	-1.598483	1.601007	-0.577512	99
Es	-1.773754	0.404643	-0.703917	99
Es	1.375402	0.815253	0.196386	99
Es	-1.457575	0.171375	2.365117	99
Es	0.784884	1.247656	-0.766589	99
Es	-1.584507	0.086905	2.741745	99
Es	1.457791	-1.711526	0.157482	99
Es	-0.393586	0.804768	0.652947	99
