43
Properties=species:S:1:pos:R:3:Z:I:1 energy=-323.98726430014233 field_type=dipole dipole="0.000000 0.000000 0.000000" charge=0
C	-1.279542	-0.756193	-0.855809	6
N	-0.145952	-0.780333	0.057071	7
C	0.357228	-2.097833	0.411811	6
C	0.592908	0.328767	0.447761	6
O	1.548098	0.258897	1.218801	8
C	0.200818	1.647177	-0.127899	6
C	0.674508	2.784387	0.399001	6
H	-1.889962	0.135637	-0.699969	1
H	-1.912562	-1.631683	-0.684219	1
H	-0.901712	-0.772363	-1.881979	1
H	-0.464312	-2.698753	0.812961	1
H	1.152348	-2.052573	1.160481	1
H	0.750928	-2.573493	-0.491549	1
H	-0.433152	1.683687	-1.001309	1
H	1.335168	2.777607	1.261841	1
H	0.415188	3.747067	-0.026999	1
Es	1.548051	0.258401	1.218857	99
Es	-0.145924	-0.780426	0.056982	99
Es	0.592680	0.328663	0.447591	99
Es	-1.279140	-0.756116	-0.855579	99
Es	0.357068	-2.097278	0.411685	99
Es	0.674637	2.783610	0.398633	99
Es	0.200842	1.647131	-0.127879	99
Es	1.753551	0.390323	1.377933	99
Es	-0.628432	-0.747643	-0.347430	99
Es	1.057421	2.757391	0.812173	99
Es	0.618248	-2.416853	-0.214291	99
Es	0.170234	-0.291864	0.195784	99
Es	-0.254034	1.644935	-0.693513	99
Es	-1.682103	-0.145644	-0.747129	99
Es	0.362832	0.994980	0.155634	99
Es	-1.020742	-0.759527	-1.550752	99
Es	1.140104	0.266523	0.906790	99
Es	0.533516	3.325855	0.153860	99
Es	0.082281	-1.351251	0.211510	99
Es	-0.215236	-2.499845	0.676929	99
Es	-1.697497	-1.357395	-0.740836	99
Es	0.880023	-2.063508	0.903652	99
Es	1.347549	0.278433	1.022853	99
Es	0.581269	2.328883	0.165154	99
Es	1.487966	0.142894	1.196543	99
Es	0.308395	2.119700	0.181778	99
Es	-0.122386	-0.654889	0.157224	99
