42
Properties=species:S:1:pos:R:3:Z:I:1 energy=-339.9710525551836 field_type=dipole dipole="0.000000 0.000000 0.000000" charge=0
C	-1.711480	0.100047	-0.322274	6
N	-0.272609	0.345847	-0.410774	7
C	0.561400	-0.861743	-0.441344	6
C	0.904591	-1.313513	0.960816	6
O	0.567370	-2.400603	1.424566	8
C	0.223460	1.553387	0.005306	6
N	1.446701	1.938477	0.065716	7
H	-2.274420	0.981817	-0.646464	1
H	-1.996840	-0.138003	0.707656	1
H	-2.011029	-0.729473	-0.971094	1
H	1.493011	-0.680623	-0.988934	1
H	0.046170	-1.679793	-0.958274	1
H	1.507821	-0.608133	1.557616	1
H	-0.562180	2.259757	0.327096	1
H	2.078030	1.232547	-0.309614	1
Es	0.567424	-2.400254	1.424313	99
Es	-0.272490	0.345807	-0.410712	99
Es	1.447277	1.939331	0.065871	99
Es	0.904785	-1.312870	0.960563	99
Es	0.222428	1.553712	0.005530	99
Es	0.561532	-0.861540	-0.440935	99
Es	-1.711044	0.100151	-0.322265	99
Es	0.554433	-2.601263	1.619333	99
Es	-0.040105	0.885983	-0.168757	99
Es	0.889135	1.683741	0.023490	99
Es	1.296921	-0.820837	1.319376	99
Es	-1.895914	-0.471818	-0.752996	99
Es	0.212859	-1.384249	-0.792343	99
Es	1.758689	1.500939	-0.149211	99
Es	-0.883354	0.239992	-0.329134	99
Es	0.748135	-1.103769	0.302122	99
Es	0.096815	-0.171903	-0.350452	99
Es	0.697492	-1.958397	1.243912	99
Es	-1.896342	-0.055028	0.378157	99
Es	1.175162	-0.720818	-0.785092	99
Es	-0.307786	1.987559	0.210900	99
Es	-2.084081	0.706140	-0.541070	99
Es	0.673909	-2.063153	1.276194	99
Es	1.056592	1.791979	0.049286	99
Es	0.521684	-2.380321	1.293769	99
Es	1.577071	2.280266	0.168492	99
Es	-0.216310	0.457688	-0.624823	99
