45
Properties=species:S:1:pos:R:3:Z:I:1 energy=-341.14459501083337 field_type=dipole dipole="0.000000 0.000000 0.000000" charge=0
C	-1.954316	0.127392	0.371719	6
N	-0.510986	0.330062	0.377269	7
C	0.302604	-0.890818	0.438509	6
C	0.942384	-1.206688	-0.918691	6
O	1.964584	-0.271218	-1.249691	8
C	0.017984	1.590452	0.444549	6
N	1.252344	1.940022	0.497679	7
H	-2.504126	1.070812	0.288679	1
H	-2.270886	-0.363008	1.298249	1
H	-2.246316	-0.501798	-0.475351	1
H	-0.322456	-1.741138	0.736729	1
H	1.074114	-0.780538	1.209069	1
H	0.200244	-1.210338	-1.723511	1
H	1.409424	-2.195768	-0.881121	1
H	1.526304	0.595832	-1.365911	1
H	-0.745276	2.388072	0.426169	1
H	1.864374	1.118672	0.525649	1
Es	1.964041	-0.271083	-1.250211	99
Es	-0.510936	0.329819	0.377311	99
Es	1.252906	1.940789	0.497783	99
Es	0.016584	1.590642	0.444357	99
Es	0.942414	-1.206196	-0.918287	99
Es	0.302459	-0.890623	0.438367	99
Es	-1.953857	0.127520	0.371729	99
Es	2.270210	-0.331848	-1.252315	99
Es	-0.269772	0.941732	0.414544	99
Es	0.679905	1.711975	0.447747	99
Es	0.613843	-1.034584	-0.234118	99
Es	-2.315104	0.775733	0.317253	99
Es	0.422670	-1.204257	-1.456085	99
Es	-0.495501	2.054314	0.421272	99
Es	-1.143530	0.250554	0.374388	99
Es	1.705013	0.139168	-1.314672	99
Es	1.537571	1.450909	0.514178	99
Es	-0.136816	-1.460095	0.641915	99
Es	1.575173	-0.575220	-1.117418	99
Es	-2.154790	-0.212320	1.002526	99
Es	-2.136956	-0.307307	-0.205696	99
Es	0.824137	-0.804748	0.947362	99
Es	-0.149754	-0.185141	0.393686	99
Es	1.256750	-1.887027	-0.890937	99
Es	-0.461272	0.439711	0.354864	99
Es	1.926010	-0.272225	-1.261031	99
Es	1.396115	2.291410	0.525435	99
Es	0.865976	1.811477	0.479624	99
