46
Properties=species:S:1:pos:R:3:Z:I:1 energy=-325.1114453157055 field_type=dipole dipole="0.000000 0.000000 0.000000" charge=0
C	-1.207580	-2.674438	-0.986077	6
O	-1.355980	-1.371318	-0.441217	8
C	-0.096050	-0.715958	-0.197527	6
C	0.239930	0.421772	-1.122007	6
C	-0.215340	0.706832	0.286173	6
C	0.733320	1.216392	1.318263	6
N	0.650480	2.667652	1.336283	7
H	-2.202020	-3.080348	-1.189367	1
H	-0.701940	-3.326548	-0.267597	1
H	-0.642880	-2.635538	-1.922257	1
H	0.723570	-1.306288	0.201873	1
H	-0.450790	0.644272	-1.927237	1
H	1.281720	0.575232	-1.375327	1
H	-1.221820	1.084492	0.435033	1
H	1.763450	0.906472	1.109653	1
H	0.455640	0.820832	2.300743	1
H	0.929890	3.032222	0.427583	1
H	1.316400	3.034262	2.013003	1
Es	-1.355482	-1.371452	-0.441321	99
Es	0.650108	2.667780	1.336308	99
Es	-0.096413	-0.715298	-0.197703	99
Es	-1.207646	-2.674101	-0.985929	99
Es	0.732895	1.216623	1.317691	99
Es	-0.214775	0.706452	0.286324	99
Es	0.239835	0.421539	-1.121465	99
Es	-1.621546	-1.249236	-0.296226	99
Es	0.734244	2.083883	1.310633	99
Es	0.122487	-0.261122	-0.811805	99
Es	-1.886626	-2.950453	-1.128294	99
Es	1.433930	0.993393	1.162583	99
Es	-0.213076	0.567701	-1.657918	99
Es	0.454135	-1.129220	0.066994	99
Es	0.857006	2.846827	0.815347	99
Es	-0.874220	0.946041	0.379170	99
Es	-1.329478	-1.340189	-0.531041	99
Es	-1.249620	-1.851593	-0.646811	99
Es	-0.851222	-3.118532	-0.495102	99
Es	1.078725	2.846660	1.701421	99
Es	0.932145	0.523593	-1.280594	99
Es	0.552364	0.944972	1.982612	99
Es	0.240225	0.929921	0.759298	99
Es	-0.810259	-2.647288	-1.620242	99
Es	-0.872055	-1.179435	-0.356784	99
Es	0.061372	0.785744	-0.451440	99
Es	0.277018	2.772252	1.427341	99
Es	-0.198445	-0.082670	0.243266	99
