45
Properties=species:S:1:pos:R:3:Z:I:1 energy=-341.1089840555504 field_type=dipole dipole="0.000000 0.000000 0.000000" charge=0
C	-0.917610	-2.021281	-0.675857	6
O	-1.218360	-1.127041	0.390173	8
C	-0.770460	0.200469	0.131233	6
C	-1.327661	1.098349	1.226583	6
C	0.745669	0.292289	0.157413	6
N	1.400079	0.728639	-0.872997	7
N	2.738949	0.733299	-0.689397	7
H	-1.397810	-2.980541	-0.461897	1
H	0.161549	-2.187571	-0.746857	1
H	-1.306311	-1.642501	-1.626327	1
H	-1.149151	0.541919	-0.839467	1
H	-1.010431	0.753709	2.217993	1
H	-2.422730	1.076569	1.219693	1
H	-0.995701	2.134369	1.102863	1
H	1.247300	-0.039321	1.086193	1
H	3.201149	0.962009	-1.573577	1
H	3.021529	1.476639	-0.045767	1
Es	-1.218071	-1.126801	0.389769	99
Es	1.400335	0.728766	-0.873401	99
Es	2.738663	0.733555	-0.689445	99
Es	-0.770150	0.200432	0.131186	99
Es	0.745408	0.292251	0.157485	99
Es	-0.917630	-2.021004	-0.675652	99
Es	-1.327353	1.097908	1.226054	99
Es	-1.464916	-1.175236	0.604578	99
Es	1.237832	0.825102	-1.213542	99
Es	1.155853	0.399299	-0.444902	99
Es	-1.089672	1.793622	1.132387	99
Es	-1.247689	-2.680191	-0.530349	99
Es	1.038400	0.071517	0.777996	99
Es	-1.024198	0.422942	-0.522200	99
Es	2.849028	1.177894	-0.355659	99
Es	2.963600	0.917205	-1.192394	99
Es	-0.185449	-2.122659	-0.727436	99
Es	0.058709	0.257570	0.133354	99
Es	-1.078328	-1.428395	-0.038611	99
Es	-1.172772	-1.750321	-1.323014	99
Es	2.844348	0.382948	-0.544079	99
Es	-2.071608	1.086470	1.216912	99
Es	-1.039683	0.640111	0.671475	99
Es	-1.100326	0.863155	1.887170	99
Es	-1.032797	-0.653826	0.261212	99
Es	1.113793	0.698648	-0.371734	99
Es	-1.108482	-1.137367	0.425974	99
Es	2.094604	0.759456	-0.737567	99
