46
Properties=species:S:1:pos:R:3:Z:I:1 energy=-325.1276877210381 field_type=dipole dipole="0.000000 0.000000 0.000000" charge=0
C	0.179260	-2.247800	0.397409	6
O	-0.236089	-0.968890	0.860239	8
C	-0.356209	-0.000570	-0.196241	6
C	-1.196189	1.186520	0.350079	6
N	-0.623249	1.817620	1.550939	7
C	1.014371	0.443440	-0.639391	6
C	1.484820	0.335070	-1.890471	6
H	0.141491	-2.943570	1.240319	1
H	1.208691	-2.215020	0.029059	1
H	-0.491489	-2.616330	-0.384771	1
H	-0.916429	-0.445710	-1.028771	1
H	-2.188509	0.807130	0.621879	1
H	-1.328679	1.948770	-0.425391	1
H	-0.370729	1.062450	2.193539	1
H	-1.342709	2.365670	2.017269	1
H	1.645541	0.883930	0.129659	1
H	0.891661	-0.093790	-2.691191	1
H	2.484451	0.681080	-2.134161	1
Es	-0.235971	-0.968894	0.859671	99
Es	-0.623334	1.817471	1.550839	99
Es	-0.356024	-0.000379	-0.196041	99
Es	0.179256	-2.247498	0.397460	99
Es	-1.195455	1.186279	0.350472	99
Es	1.014544	0.443426	-0.639555	99
Es	1.484535	0.335064	-1.890149	99
Es	-0.468999	-0.947898	1.105921	99
Es	-0.879525	1.541496	1.097378	99
Es	1.422927	0.724873	-0.101837	99
Es	1.069356	0.068233	-2.323991	99
Es	-0.275003	-2.488092	-0.149278	99
Es	-1.280215	1.698193	-0.186308	99
Es	-0.748229	0.593202	0.069824	99
Es	-0.729603	-0.304063	-0.757393	99
Es	0.870941	-2.219857	0.139450	99
Es	-0.072187	-1.434457	0.632644	99
Es	-1.877060	0.912222	0.521623	99
Es	-1.076752	2.085140	1.815173	99
Es	2.127156	0.559252	-2.047687	99
Es	1.256789	0.378528	-1.381449	99
Es	-0.530290	1.377864	1.908592	99
Es	0.358578	0.229511	-0.449893	99
Es	0.152798	-2.724872	0.975490	99
Es	-0.256126	-0.639975	0.446949	99
Es	-0.071636	-0.914953	0.888669	99
Es	-0.303072	2.036815	1.448452	99
Es	1.254122	0.374708	-1.281839	99
