39
Properties=species:S:1:pos:R:3:Z:I:1 energy=-338.73650187505035 field_type=dipole dipole="0.000000 0.000000 0.000000" charge=0
C	-0.394259	-2.141734	0.469732	6
O	-0.736219	-1.311594	-0.632258	8
N	-0.153579	-0.067124	-0.437478	7
C	-0.818759	1.072196	-0.110888	6
C	0.134711	2.063676	-0.090718	6
C	1.333261	1.406996	-0.441108	6
N	1.154591	0.100766	-0.660708	7
H	-0.926909	-3.090534	0.356992	1
H	-0.703859	-1.688064	1.417522	1
H	0.679621	-2.355264	0.482602	1
H	-1.882999	1.072616	0.067032	1
H	-0.011319	3.110936	0.129642	1
H	2.325721	1.827126	-0.550368	1
Es	-0.736005	-1.311454	-0.631736	99
Es	-0.153396	-0.067486	-0.437570	99
Es	1.153353	0.101008	-0.660527	99
Es	-0.394277	-2.141322	0.469371	99
Es	-0.818652	1.071900	-0.110962	99
Es	1.333434	1.406931	-0.441145	99
Es	0.134689	2.063502	-0.090743	99
Es	-0.921977	-1.328582	-0.866328	99
Es	0.500126	0.031323	-0.532309	99
Es	-0.396573	1.536249	-0.078322	99
Es	0.750518	1.759258	-0.273533	99
Es	-0.598336	-1.822262	1.104269	99
Es	-0.471048	0.434655	-0.344892	99
Es	-0.472829	-0.785368	-0.534084	99
Es	-1.483585	1.083294	0.000382	99
Es	-0.126072	0.159667	-0.322962	99
Es	0.327355	-2.271829	0.480862	99
Es	1.188540	0.690479	-0.552924	99
Es	0.043934	2.769219	0.054004	99
Es	-0.584130	-1.560992	-0.200520	99
Es	1.976655	1.693931	-0.502519	99
Es	-0.762650	-2.780880	0.387704	99
Es	-0.685602	-1.308386	-0.624378	99
Es	1.341349	-0.211564	-0.747381	99
Es	1.099648	0.601484	-0.556897	99
Es	-0.035991	1.671340	-0.131561	99
