41
Properties=species:S:1:pos:R:3:Z:I:1 energy=-359.71559471914475 field_type=dipole dipole="0.000000 0.000000 0.000000" charge=0
C	-1.569903	-2.414318	-0.362537	6
O	-0.268143	-1.840148	-0.381577	8
N	-0.397163	-0.444638	-0.315467	7
C	0.782217	0.077802	-0.344857	6
C	0.881896	1.542642	-0.291817	6
C	0.842297	2.259302	1.031093	6
O	2.077256	2.027852	0.342773	8
H	-1.469053	-3.501198	-0.421037	1
H	-2.149893	-2.066998	-1.223057	1
H	-2.083833	-2.156858	0.568553	1
H	1.711806	-0.512828	-0.412617	1
H	0.534457	2.073412	-1.169077	1
H	0.647216	1.683792	1.927663	1
H	0.460846	3.272182	1.051963	1
Es	-0.268596	-1.839945	-0.381576	99
Es	2.076704	2.027896	0.342805	99
Es	-0.397090	-0.444960	-0.315464	99
Es	0.882229	1.542547	-0.291496	99
Es	0.842937	2.258881	1.030321	99
Es	0.782255	0.077846	-0.344838	99
Es	-1.569571	-2.414086	-0.362539	99
Es	0.028572	-1.963223	-0.419288	99
Es	2.336304	2.076821	0.285178	99
Es	-0.757875	-0.289465	-0.299791	99
Es	0.822349	0.759159	-0.311762	99
Es	0.594350	2.946197	1.037852	99
Es	-1.965624	-2.174042	-0.947285	99
Es	-0.318807	-1.249288	-0.353920	99
Es	0.655559	1.891523	-0.880959	99
Es	1.378531	-0.284676	-0.375278	99
Es	1.589369	2.126175	0.630003	99
Es	-0.285300	-1.807721	-0.358675	99
Es	-0.781305	-2.014262	-0.370959	99
Es	1.749316	1.858158	0.104170	99
Es	0.729939	1.871478	1.629096	99
Es	-1.493577	-3.153400	-0.401296	99
Es	-1.920863	-2.234212	0.269795	99
Es	2.027873	1.981174	0.364623	99
Es	0.640847	1.841450	0.365559	99
Es	0.166206	-0.209559	-0.320589	99
Es	0.101919	-0.207772	-0.340537	99
