42
Properties=species:S:1:pos:R:3:Z:I:1 energy=-339.8735163336439 field_type=dipole dipole="0.000000 0.000000 0.000000" charge=0
C	-2.486228	-1.501564	-0.546853	6
O	-1.853688	-0.264134	-0.849063	8
N	-0.609148	-0.232605	-0.201023	7
C	-0.032698	0.895696	-0.460083	6
N	1.203272	1.366426	-0.042173	7
C	1.646592	0.955056	1.299757	6
C	2.278792	0.369356	0.084497	6
H	-3.440168	-1.541634	-1.079273	1
H	-2.678248	-1.574775	0.528027	1
H	-1.862948	-2.338574	-0.877063	1
H	-0.526058	1.650596	-1.098593	1
H	0.939202	0.364356	1.865567	1
H	2.163742	1.742795	1.828887	1
H	3.238032	0.746546	-0.238653	1
H	2.019552	-0.637534	-0.213953	1
Es	-1.853533	-0.264533	-0.848777	99
Es	-0.609438	-0.232407	-0.201278	99
Es	1.203382	1.366331	-0.042061	99
Es	-0.033061	0.897048	-0.460952	99
Es	2.278139	0.369866	0.084560	99
Es	1.646385	0.955148	1.298960	99
Es	-2.485983	-1.501235	-0.546881	99
Es	-1.939097	-0.005040	-1.020969	99
Es	1.169065	0.563753	1.674260	99
Es	-0.345840	0.313500	-0.335669	99
Es	0.620923	1.076968	-0.205929	99
Es	-2.059685	-2.071654	-0.768214	99
Es	2.924790	0.625116	-0.133592	99
Es	1.277923	1.211851	0.547281	99
Es	-0.331459	1.372240	-0.857152	99
Es	-1.324345	-0.243588	-0.576300	99
Es	-1.829661	-0.282090	-0.833872	99
Es	2.079001	0.552600	0.805393	99
Es	-2.053845	-0.749199	-0.706251	99
Es	1.994862	1.487195	1.655030	99
Es	1.603517	0.909430	-0.088938	99
Es	-3.135001	-1.521310	-0.911577	99
Es	2.101449	-0.300574	-0.119533	99
Es	-2.612146	-1.553886	0.186293	99
Es	-0.508268	-0.551687	0.013833	99
Es	1.320295	1.719367	-0.152062	99
Es	-0.378917	0.201330	-0.295452	99
