45
Properties=species:S:1:pos:R:3:Z:I:1 energy=-341.1252657936041 field_type=dipole dipole="0.000000 0.000000 0.000000" charge=0
N	-2.109351	-0.485509	0.559162	7
C	-0.658271	-0.590909	0.778472	6
C	0.165299	-1.349609	-0.217898	6
C	0.280549	0.156361	-0.156978	6
N	-0.346151	0.935721	-1.268318	7
C	1.538299	0.764531	0.433732	6
O	2.312109	1.337420	-0.617418	8
H	-2.478861	0.325021	1.057782	1
H	-2.586931	-1.296429	0.953372	1
H	-0.358921	-0.672649	1.820952	1
H	-0.337461	-1.800109	-1.065718	1
H	0.990309	-1.945879	0.154752	1
H	-1.360551	0.803541	-1.173668	1
H	-0.121761	0.480611	-2.154928	1
H	2.154229	0.026471	0.956672	1
H	1.277328	1.561901	1.137122	1
H	1.640139	1.749521	-1.197088	1
Es	2.311606	1.337696	-0.617329	99
Es	-2.109120	-0.485509	0.559602	99
Es	-0.346153	0.935531	-1.268340	99
Es	1.538006	0.764512	0.433266	99
Es	0.280341	0.156181	-0.156888	99
Es	-0.658410	-0.590907	0.777840	99
Es	0.165074	-1.349195	-0.217397	99
Es	2.624282	1.342153	-0.630612	99
Es	-0.885009	0.815578	-1.216021	99
Es	-1.510242	-0.528265	0.697859	99
Es	-0.324890	-1.107826	0.315350	99
Es	1.335651	1.305751	0.916405	99
Es	-0.161935	-1.632563	-0.774108	99
Es	-0.097284	0.572340	-0.809483	99
Es	-0.458693	-0.635248	1.476456	99
Es	-2.293247	-0.042763	0.885397	99
Es	1.958645	1.537118	-0.882364	99
Es	-2.346006	-0.928066	0.832160	99
Es	-0.228464	0.631778	-1.741458	99
Es	0.897713	0.452470	0.139198	99
Es	1.999797	1.120044	-0.264177	99
Es	0.715028	-1.748129	0.041018	99
Es	1.942535	0.241624	0.790705	99
Es	-0.230851	1.327271	-1.263458	99
Es	2.273200	1.323633	-0.618712	99
Es	-2.177532	-0.458259	0.163995	99
Es	-0.272117	-0.044254	0.422722	99
Es	0.377477	-0.637708	-0.342632	99
