48
Properties=species:S:1:pos:R:3:Z:I:1 energy=-289.29198518380446 field_type=dipole dipole="0.000000 0.000000 0.000000" charge=0
C	-2.245450	-0.456472	0.063220	6
C	-0.756830	-0.442432	0.305080	6
C	-0.378740	-0.525503	1.761871	6
C	0.132241	-1.139863	-0.703040	6
C	0.094450	0.368208	-0.664009	6
C	1.290980	1.152358	-0.233049	6
N	2.118761	1.376477	-1.410179	7
H	-2.488950	-0.398542	-1.003209	1
H	-2.718930	0.395238	0.562810	1
H	-2.687600	-1.377582	0.457140	1
H	0.689920	-0.707902	1.908900	1
H	-0.916189	-1.346102	2.248620	1
H	-0.640740	0.406078	2.273690	1
H	-0.328630	-1.630352	-1.554039	1
H	1.024160	-1.645562	-0.348720	1
H	-0.431190	0.879318	-1.466760	1
H	1.881270	0.632448	0.527231	1
H	0.973140	2.114177	0.180750	1
H	2.424040	0.474387	-1.774059	1
H	2.964280	1.871627	-1.132249	1
Es	2.118736	1.376346	-1.410188	99
Es	1.290950	1.152125	-0.233815	99
Es	-0.756802	-0.442638	0.305155	99
Es	0.095081	0.368651	-0.663558	99
Es	0.132019	-1.139422	-0.703195	99
Es	-0.378687	-0.525462	1.761351	99
Es	-2.244941	-0.456470	0.063180	99
Es	1.838321	1.259914	-0.929590	99
Es	-0.379324	-1.002845	-0.152323	99
Es	-0.557367	0.109647	2.098283	99
Es	-2.532319	-1.089076	0.337815	99
Es	0.649102	0.727425	-0.442969	99
Es	-0.163681	-1.462178	-1.256570	99
Es	-0.258203	0.696320	-1.179489	99
Es	2.308970	0.842191	-1.569109	99
Es	2.614467	1.621138	-1.204543	99
Es	0.717157	-1.464638	-0.459580	99
Es	0.345831	-0.640696	1.839085	99
Es	-1.492495	-0.444001	0.180346	99
Es	1.080036	1.798338	0.059981	99
Es	-2.384067	-0.416183	-0.666113	99
Es	-0.745193	-1.090521	2.085583	99
Es	-2.549414	0.127165	0.404111	99
Es	1.677545	0.783796	0.281410	99
Es	-0.566474	-0.477876	1.012846	99
Es	0.267220	-0.373751	-0.825724	99
Es	1.896050	1.583843	-1.668486	99
Es	-0.388167	0.168420	-0.076274	99
