44
Properties=species:S:1:pos:R:3:Z:I:1 energy=-360.96024536305515 field_type=dipole dipole="0.000000 0.000000 0.000000" charge=0
N	-2.032871	-0.195282	0.731389	7
C	-1.001521	-0.893362	-0.027441	6
C	0.215369	-0.022892	-0.172951	6
C	1.037839	0.190198	1.068559	6
O	2.241909	0.901338	0.786679	8
C	0.811369	0.171648	-1.555531	6
O	-0.000051	1.180878	-0.940011	8
H	-2.889220	-0.747692	0.718699	1
H	-2.252970	0.674178	0.241409	1
H	-1.404641	-1.169342	-1.008371	1
H	-0.735871	-1.823892	0.485939	1
H	1.318979	-0.771802	1.510399	1
H	0.478250	0.760168	1.818950	1
H	1.953479	1.747128	0.391649	1
H	0.387039	-0.365642	-2.395111	1
H	1.872910	0.364368	-1.654261	1
Es	0.000132	1.180501	-0.940041	99
Es	2.241473	0.901742	0.786741	99
Es	-2.032628	-0.195330	0.731429	99
Es	0.214896	-0.022493	-0.173783	99
Es	0.810886	0.171944	-1.554814	99
Es	1.037936	0.190410	1.068010	99
Es	-1.001422	-0.892702	-0.027237	99
Es	-0.130645	1.424132	-0.919393	99
Es	2.517610	0.805811	0.886366	99
Es	-1.639866	-0.475908	0.386028	99
Es	0.618409	0.079704	0.431845	99
Es	1.519382	0.310712	-1.603106	99
Es	-0.806177	-1.515016	0.318051	99
Es	0.036191	0.897000	-0.738784	99
Es	1.806258	0.674572	0.854584	99
Es	-0.373008	-0.433698	-0.102454	99
Es	0.642209	0.571092	1.562434	99
Es	-2.520819	-0.521861	0.662984	99
Es	-2.163828	0.270491	0.410235	99
Es	1.217015	-0.468031	1.350068	99
Es	0.316330	0.730756	-1.128263	99
Es	-1.265389	-1.078282	-0.705114	99
Es	0.503410	-0.195274	-2.107827	99
Es	2.057229	1.321507	0.591392	99
Es	2.211886	0.894836	0.745122	99
Es	0.027053	1.136275	-0.931522	99
Es	0.610770	-0.136289	-0.869431	99
Es	-1.897589	-0.129533	1.102959	99
