45
Properties=species:S:1:pos:R:3:Z:I:1 energy=-341.12057476085266 field_type=dipole dipole="0.000000 0.000000 0.000000" charge=0
N	-0.903154	-1.723887	-1.060408	7
C	-0.616134	-1.134407	0.254472	6
C	0.200546	0.139532	0.119992	6
N	1.424586	-0.007707	-0.710358	7
C	-0.521464	1.449012	-0.265558	6
O	0.191376	2.177123	0.777432	8
C	0.554476	0.913803	1.406582	6
H	-1.450544	-2.574127	-0.925258	1
H	-0.014244	-2.037218	-1.455138	1
H	-0.073764	-1.871167	0.858232	1
H	-1.563314	-0.932717	0.766502	1
H	1.982986	0.849163	-0.735048	1
H	1.192026	-0.194268	-1.686968	1
H	-1.600954	1.473032	-0.081538	1
H	-0.317344	1.856043	-1.260598	1
H	1.601556	0.900393	1.724652	1
H	-0.086634	0.717402	2.273012	1
Es	0.190912	2.176506	0.777603	99
Es	-0.902989	-1.723949	-1.060230	99
Es	1.424573	-0.007536	-0.710589	99
Es	0.554235	0.914164	1.405985	99
Es	0.200498	0.138841	0.120156	99
Es	-0.520971	1.448983	-0.264994	99
Es	-0.615818	-1.134111	0.253829	99
Es	0.172256	2.462138	0.883716	99
Es	-0.382931	-1.923523	-1.244242	99
Es	1.248221	-0.067019	-1.263459	99
Es	0.392638	0.421014	0.809991	99
Es	-0.380109	1.724740	-0.948890	99
Es	-0.196717	-0.485295	0.169053	99
Es	1.265070	0.905885	1.623430	99
Es	-1.180013	-2.228020	-0.939472	99
Es	-1.256091	1.459500	-0.132481	99
Es	-0.228244	-1.621604	0.674932	99
Es	0.919329	0.084880	-0.413420	99
Es	1.679396	0.508011	-0.732494	99
Es	-0.766258	-1.520161	-0.522490	99
Es	0.326281	1.708684	0.996275	99
Es	0.113301	0.775710	1.985023	99
Es	-1.253025	-0.984632	0.602424	99
Es	-0.220764	0.734060	-0.146553	99
Es	-0.055291	1.938123	0.406428	99
Es	0.245381	2.136020	0.730147	99
Es	-1.088547	-1.451705	-1.292640	99
Es	1.636912	-0.315999	-0.551361	99
