43
Properties=species:S:1:pos:R:3:Z:I:1 energy=-323.94655823129426 field_type=dipole dipole="0.000000 0.000000 0.000000" charge=0
N	0.531170	-3.180593	0.320493	7
C	0.287630	-2.010113	1.147613	6
C	-0.426770	-0.971662	0.351793	6
C	0.024540	0.273347	0.161303	6
O	-0.683650	1.193938	-0.569017	8
C	-0.167950	2.452497	-0.742817	6
C	-0.827840	3.394757	-1.417847	6
H	1.036520	-3.875592	0.866743	1
H	1.148980	-2.920863	-0.447377	1
H	1.238020	-1.633632	1.541773	1
H	-0.334070	-2.295832	2.002593	1
H	-1.382100	-1.257903	-0.082217	1
H	0.961580	0.627007	0.567833	1
H	0.802609	2.628457	-0.301117	1
H	-1.801090	3.189948	-1.851377	1
H	-0.407580	4.386237	-1.548377	1
Es	-0.683170	1.194044	-0.568792	99
Es	0.530737	-3.180714	0.320327	99
Es	-0.167825	2.452065	-0.742597	99
Es	0.024362	0.273792	0.161038	99
Es	0.287277	-2.009812	1.146838	99
Es	-0.426655	-0.971552	0.351769	99
Es	-0.827566	3.394632	-1.417693	99
Es	-0.972439	1.118876	-0.708968	99
Es	0.918782	-3.009801	-0.083888	99
Es	-0.202197	-0.297900	0.283652	99
Es	-1.458194	3.264460	-1.703158	99
Es	-0.056673	-1.440572	0.736780	99
Es	0.496010	2.559481	-0.434524	99
Es	0.650007	0.488403	0.434458	99
Es	-0.394546	0.872418	-0.288806	99
Es	0.859157	-3.540838	0.649442	99
Es	0.916759	-1.750251	1.405754	99
Es	-0.633571	1.212842	-0.544345	99
Es	-0.514686	2.931298	-1.100439	99
Es	0.488191	-2.691329	0.662741	99
Es	-0.542335	4.010647	-1.486527	99
Es	-1.068530	-1.159596	0.064632	99
Es	-0.117447	-2.200782	1.724556	99
Es	-0.440853	1.641017	-0.597030	99
Es	0.181555	-3.316280	0.189383	99
Es	-0.507724	2.994653	-1.099790	99
Es	-0.162619	-0.405130	0.246304	99
