42
Properties=species:S:1:pos:R:3:Z:I:1 energy=-339.9512952230672 field_type=dipole dipole="0.000000 0.000000 0.000000" charge=0
N	-0.441741	0.717506	2.815599	7
C	-0.866951	0.452446	1.632739	6
N	-0.275402	-0.469974	0.835309	7
C	-0.305261	-0.218334	-0.575281	6
C	0.809669	0.711096	-1.071361	6
O	1.305509	-0.301514	-1.981531	8
C	0.419029	-1.288774	-1.400451	6
H	-1.040271	1.433146	3.243778	1
H	-1.746261	0.958476	1.196179	1
H	0.613789	-0.785624	1.216199	1
H	-1.305311	0.019116	-0.953411	1
H	1.577689	0.993516	-0.344101	1
H	0.465809	1.601046	-1.606491	1
H	-0.193892	-1.778234	-2.162721	1
H	0.983599	-2.043894	-0.844451	1
Es	1.305164	-0.301532	-1.981150	99
Es	-0.275807	-0.470586	0.835554	99
Es	-0.441374	0.717452	2.815908	99
Es	-0.868019	0.452835	1.631811	99
Es	0.419169	-1.288149	-1.400478	99
Es	-0.305419	-0.218475	-0.575180	99
Es	0.809456	0.710429	-1.071585	99
Es	1.533589	-0.319870	-2.183278	99
Es	-0.505329	-0.730942	0.886758	99
Es	-0.817177	1.117980	3.006428	99
Es	0.207770	0.316721	-0.768632	99
Es	0.798285	-1.791732	-1.010009	99
Es	-1.439106	0.779334	1.314613	99
Es	-0.256253	-0.298741	0.286983	99
Es	1.321666	0.891008	-0.565409	99
Es	0.582478	1.326200	-1.431712	99
Es	-0.663291	0.588946	2.278925	99
Es	-0.512963	0.002969	1.178949	99
Es	0.982940	-0.659411	-1.769518	99
Es	-0.979357	-0.044136	-0.808054	99
Es	-0.000376	-1.625916	-1.917513	99
Es	-0.590025	0.686042	2.400939	99
Es	1.136081	0.067968	-1.663306	99
Es	0.001848	-0.816971	-0.950891	99
Es	1.251265	-0.293623	-1.965776	99
Es	-0.144027	0.555353	3.006498	99
Es	0.238642	-0.580448	1.027611	99
