39
Properties=species:S:1:pos:R:3:Z:I:1 energy=-338.77050721632764 field_type=dipole dipole="0.000000 0.000000 0.000000" charge=0
N	-2.026542	-1.455810	0.722375	7
N	-0.748042	-1.532410	0.281995	7
C	-0.140432	-0.395450	0.111345	6
C	1.291388	-0.303630	-0.348425	6
C	1.432447	1.164880	-0.380355	6
C	0.282547	1.704710	-0.003955	6
O	-0.733702	0.828400	0.312915	8
H	-2.547802	-2.295900	0.472185	1
H	-2.527202	-0.643540	0.357365	1
H	1.406837	-0.752890	-1.337275	1
H	1.959177	-0.769070	0.379535	1
H	2.325078	1.703730	-0.659695	1
H	0.026248	2.746980	0.091995	1
Es	-0.733231	0.828253	0.312701	99
Es	-0.748051	-1.532923	0.282023	99
Es	-2.026338	-1.455713	0.722526	99
Es	-0.140376	-0.395177	0.111337	99
Es	0.281081	1.710577	-0.003407	99
Es	1.291130	-0.303598	-0.348308	99
Es	1.432696	1.164929	-0.380433	99
Es	-0.495700	0.391274	0.227458	99
Es	-1.428195	-1.444585	0.462288	99
Es	0.565139	-0.369799	-0.118018	99
Es	-0.524723	-0.976850	0.228469	99
Es	0.162722	2.321794	0.041173	99
Es	-2.281178	-1.026129	0.460694	99
Es	2.027271	1.479410	-0.567468	99
Es	0.777057	1.485413	-0.170782	99
Es	-0.662670	0.792089	0.282399	99
Es	-2.294421	-1.909578	0.507527	99
Es	-0.313513	1.154889	0.179610	99
Es	-1.033503	0.887197	0.418121	99
Es	1.362987	-0.594132	-0.988777	99
Es	1.721277	-0.606607	0.126026	99
Es	1.400038	0.494275	-0.376087	99
Es	-0.491745	-1.076080	0.196937	99
Es	-0.586018	-1.879653	0.220982	99
Es	0.913931	1.441401	-0.206481	99
Es	-1.994522	-1.411994	1.099931	99
