39
Properties=species:S:1:pos:R:3:Z:I:1 energy=-338.7124578093745 field_type=dipole dipole="0.000000 0.000000 0.000000" charge=0
N	-2.494666	-0.620292	-0.313313	7
N	-1.170816	-0.657792	-0.588623	7
C	-0.432436	-0.449362	0.461307	6
C	1.085334	-0.425362	0.360267	6
O	1.530354	-1.089822	-0.812733	8
C	1.567344	0.935808	0.360267	6
C	1.964634	2.057709	0.360267	6
H	-3.013356	-1.036992	-1.092743	1
H	-2.829296	0.347368	-0.281613	1
H	-0.864146	-0.249642	1.459627	1
H	1.478854	-0.973062	1.222377	1
H	0.849274	-0.897902	-1.486383	1
H	2.328914	3.059338	0.351297	1
Es	1.529902	-1.089383	-0.812846	99
Es	-1.171067	-0.657836	-0.588864	99
Es	-2.494340	-0.620037	-0.313678	99
Es	1.085422	-0.425445	0.360158	99
Es	-0.432208	-0.449245	0.461259	99
Es	1.567184	0.935482	0.360410	99
Es	1.965224	2.059482	0.360155	99
Es	1.802715	-1.231894	-0.834570	99
Es	-1.856063	-0.598873	-0.433260	99
Es	-0.665826	-0.312559	1.111109	99
Es	2.016941	2.329779	0.373183	99
Es	1.187459	-0.968091	-1.122255	99
Es	-2.755523	-0.812946	-0.789624	99
Es	1.859559	1.853848	0.359810	99
Es	-0.870783	-0.462382	-0.176143	99
Es	-2.631344	-0.079189	-0.337560	99
Es	1.334153	0.295931	0.366381	99
Es	1.351845	-0.759489	0.934667	99
Es	0.263387	-0.425831	0.407825	99
Es	-0.858792	-0.651063	-0.069498	99
Es	1.339693	-0.813529	-0.400887	99
Es	1.478811	-1.102006	-0.792508	99
Es	-1.030782	-0.741907	-0.951594	99
Es	1.766560	1.478435	0.336089	99
Es	1.804977	1.497530	0.381046	99
Es	-2.557264	-0.795792	0.033849	99
