39
Properties=species:S:1:pos:R:3:Z:I:1 energy=-338.77921641330147 field_type=dipole dipole="0.000000 0.000000 0.000000" charge=0
O	-1.955295	0.538438	1.719551	8
C	-1.144725	0.321468	0.835391	6
C	-0.594744	-1.014292	0.424471	6
C	0.325765	-0.658642	-0.700689	6
C	1.502045	0.262088	-0.484059	6
N	0.246535	0.774628	-1.024239	7
N	-0.535335	1.268468	0.027141	7
H	-1.410625	-1.656302	0.082351	1
H	-0.056835	-1.477462	1.255191	1
H	0.334645	-1.351422	-1.529199	1
H	1.791245	0.546668	0.520971	1
H	2.323816	0.208158	-1.188609	1
H	-0.826495	2.238208	0.061731	1
Es	-1.955121	0.538299	1.719385	99
Es	0.246413	0.774354	-1.023139	99
Es	-0.535143	1.268407	0.027031	99
Es	-1.144571	0.321589	0.835217	99
Es	0.325574	-0.658369	-0.701041	99
Es	1.501275	0.261963	-0.484293	99
Es	-0.594648	-1.013771	0.424333	99
Es	1.024169	-0.365591	-0.489195	99
Es	-1.617869	0.485005	1.342085	99
Es	-0.817612	0.847350	0.352410	99
Es	-0.878631	-0.364956	0.641130	99
Es	2.045393	0.221997	-0.968080	99
Es	0.321110	-1.121928	-1.258672	99
Es	-0.721338	1.830852	0.023799	99
Es	0.208026	0.926767	-1.376194	99
Es	-0.147425	1.001217	-0.485354	99
Es	-2.138259	0.617092	1.911437	99
Es	-0.252230	-1.305286	0.958168	99
Es	-1.119513	-1.436616	0.196665	99
Es	-0.478103	1.195116	0.197928	99
Es	-0.096819	-0.832206	-0.144481	99
Es	1.681585	0.463680	0.184126	99
Es	-1.758719	0.483321	1.515565	99
Es	0.172967	0.186997	-0.909566	99
Es	-1.900841	0.472094	1.668547	99
Es	0.825455	0.629938	-0.747569	99
