42
Properties=species:S:1:pos:R:3:Z:I:1 energy=-339.9993387506112 field_type=dipole dipole="0.000000 0.000000 0.000000" charge=0
O	-2.063294	0.131523	-0.589857	8
C	-0.659314	0.113433	-0.670767	6
C	-0.054104	1.237073	0.179173	6
C	1.347636	0.747823	0.557823	6
N	1.237365	-0.694167	0.500993	7
C	0.048666	-1.084197	-0.035587	6
N	-0.419574	-2.280587	0.018873	7
H	-2.396144	-0.553057	-1.192567	1
H	-0.343954	0.198213	-1.717047	1
H	-0.655644	1.397003	1.082623	1
H	-0.027594	2.191543	-0.356747	1
H	2.091086	1.088553	-0.170107	1
H	1.639306	1.094533	1.553523	1
H	1.599216	-1.267397	1.255163	1
H	-1.343644	-2.320297	-0.415497	1
Es	-2.063084	0.131142	-0.590301	99
Es	1.238496	-0.694320	0.499999	99
Es	-0.419470	-2.281242	0.019141	99
Es	0.048682	-1.083827	-0.035685	99
Es	-0.659421	0.113256	-0.670569	99
Es	1.346702	0.747300	0.557569	99
Es	-0.053712	1.236434	0.178792	99
Es	-2.215050	0.339124	-0.418078	99
Es	0.675251	-0.844045	0.321824	99
Es	-0.209038	-1.741771	-0.045091	99
Es	-0.384683	0.675954	-0.269122	99
Es	1.546580	0.977990	1.236914	99
Es	1.238806	-0.119333	0.592184	99
Es	1.362185	-0.984333	0.943474	99
Es	-2.192003	-0.234861	-0.909682	99
Es	-0.300016	-0.509561	-0.349054	99
Es	-0.441240	0.170448	-1.372071	99
Es	1.853221	0.980787	0.054997	99
Es	-0.942769	-2.233511	-0.250223	99
Es	-0.450727	1.334294	0.779154	99
Es	-1.564410	0.098742	-0.642965	99
Es	-0.029748	1.875643	-0.180384	99
Es	0.655241	1.003879	0.369024	99
Es	-2.036768	0.096952	-0.594755	99
Es	1.414625	-0.784767	0.220062	99
Es	-0.256707	-2.592345	0.184620	99
Es	-0.317466	-1.881391	0.005435	99
