38
Properties=species:S:1:pos:R:3:Z:I:1 energy=-358.65311994794786 field_type=dipole dipole="0.000000 0.000000 0.000000" charge=0
O	-2.219187	-0.433975	0.007783	8
C	-0.899757	-0.312525	0.002903	6
C	-0.083307	0.788645	0.001783	6
O	-0.559127	2.042285	0.005943	8
C	1.257602	0.358285	-0.004217	6
C	1.224522	-1.022025	-0.006627	6
N	-0.092157	-1.417305	-0.002257	7
H	-2.550367	0.485785	0.010743	1
H	0.183153	2.670795	0.004233	1
H	2.151773	0.965925	-0.006557	1
H	2.018703	-1.757105	-0.011037	1
H	-0.431847	-2.368785	-0.002697	1
Es	-2.219054	-0.433466	0.007783	99
Es	-0.558558	2.042338	0.005941	99
Es	-0.092166	-1.417173	-0.002257	99
Es	-0.899845	-0.312817	0.002903	99
Es	-0.083346	0.788809	0.001783	99
Es	1.228284	-1.025535	-0.006648	99
Es	1.261107	0.360757	-0.004226	99
Es	-2.412932	-0.685552	0.008069	99
Es	-0.865711	2.124468	0.007283	99
Es	-0.465235	-0.948985	0.000047	99
Es	0.696739	0.552293	-0.001680	99
Es	0.545578	-1.255358	-0.004427	99
Es	-0.529373	0.287058	0.002547	99
Es	-0.295014	-1.980344	-0.002510	99
Es	-1.695968	-0.373328	0.005870	99
Es	-0.343574	1.602570	0.004296	99
Es	-0.161939	2.309572	0.004900	99
Es	-0.283279	0.232224	0.001562	99
Es	1.681666	-1.461647	-0.009203	99
Es	-2.328188	0.024186	0.009040	99
Es	-0.523817	2.006236	0.005737	99
Es	1.757275	0.779653	-0.005373	99
Es	-2.157687	-0.398318	0.007615	99
Es	1.229392	-0.363422	-0.005436	99
Es	1.203311	-0.272319	-0.005167	99
Es	-0.034471	-1.274393	-0.002214	99
