41
Properties=species:S:1:pos:R:3:Z:I:1 energy=-359.86742072342224 field_type=dipole dipole="0.000000 0.000000 0.000000" charge=0
O	-2.045716	0.139619	-0.592055	8
C	-0.628496	0.107389	-0.668895	6
C	-0.011066	1.251769	0.128375	6
N	1.222114	0.711319	0.611515	7
C	1.215414	-0.664471	0.624345	6
O	2.090864	-1.363672	1.103305	8
C	-0.061596	-1.148981	-0.009735	6
H	-2.384976	-0.631691	-1.079585	1
H	-0.322486	0.164869	-1.720055	1
H	-0.627956	1.548309	0.983305	1
H	0.186694	2.132088	-0.489365	1
H	1.943094	1.226639	1.099445	1
H	0.150264	-1.923052	-0.752115	1
H	-0.726156	-1.550131	0.761515	1
Es	-2.045544	0.139200	-0.592370	99
Es	2.090734	-1.363605	1.103245	99
Es	1.222170	0.711244	0.611362	99
Es	1.215304	-0.664248	0.624258	99
Es	-0.628599	0.107395	-0.668382	99
Es	-0.010601	1.250592	0.128116	99
Es	-0.061199	-1.148463	-0.009699	99
Es	-2.204539	0.378128	-0.464730	99
Es	1.743371	-1.042041	0.898910	99
Es	1.198918	0.108767	0.660205	99
Es	0.585894	-0.917405	0.307815	99
Es	-0.439585	1.440800	0.704393	99
Es	-0.413354	0.142395	-1.385792	99
Es	1.620334	1.008212	0.925288	99
Es	-2.179135	-0.273452	-0.849100	99
Es	0.120444	1.850123	-0.295572	99
Es	0.696839	0.967999	0.439594	99
Es	1.875709	-1.201631	0.996837	99
Es	-0.351140	-0.549161	-0.333700	99
Es	-0.490272	-1.391902	0.487924	99
Es	0.068808	-1.656125	-0.501983	99
Es	-1.546967	0.105599	-0.645683	99
Es	2.296100	-1.515510	1.217941	99
Es	-0.325988	0.696475	-0.270514	99
Es	-2.023024	0.099670	-0.577975	99
Es	2.017819	-1.344300	1.064468	99
Es	1.296338	0.592456	0.449099	99
