37
Properties=species:S:1:pos:R:3:Z:I:1 energy=-321.5927078413141 field_type=dipole dipole="0.000000 0.000000 0.000000" charge=0
O	-2.122521	0.094423	0.612814	8
C	-0.687461	0.180763	0.560424	6
C	-0.209082	-0.528827	-0.709456	6
C	1.242259	-0.779707	-0.699216	6
C	2.425569	-0.982367	-0.695076	6
C	-0.248372	1.591422	0.587984	6
N	0.068849	2.707002	0.641594	7
H	-2.418111	0.649622	1.356954	1
H	-0.308331	-0.338928	1.448304	1
H	-0.484421	0.052433	-1.598786	1
H	-0.735742	-1.486697	-0.807746	1
H	3.477369	-1.159137	-0.697796	1
Es	-2.122445	0.094739	0.613235	99
Es	0.069380	2.708975	0.641670	99
Es	-0.687352	0.181005	0.560810	99
Es	-0.208757	-0.528678	-0.709227	99
Es	-0.248423	1.590936	0.587962	99
Es	1.241457	-0.779569	-0.699237	99
Es	2.427397	-0.982628	-0.694993	99
Es	-2.278896	-0.091150	0.422191	99
Es	-0.151001	2.208580	0.598632	99
Es	-0.426156	-0.147540	1.140998	99
Es	2.703988	-1.004385	-0.660032	99
Es	-0.537727	-1.156536	-0.759518	99
Es	-2.230056	0.389903	1.002254	99
Es	-0.435027	0.938381	0.576355	99
Es	2.183437	-0.923619	-0.670257	99
Es	-0.432601	-0.147993	-0.054469	99
Es	0.566892	-0.661492	-0.705543	99
Es	-0.369794	-0.142133	-1.282239	99
Es	-1.595158	0.164847	0.610568	99
Es	0.157325	3.034830	0.646691	99
Es	-2.093951	0.118958	0.624775	99
Es	0.005448	2.165173	0.635202	99
Es	-0.075571	2.208420	0.617153	99
Es	1.841605	-0.871788	-0.715313	99
Es	1.822188	-0.919225	-0.717576	99
