42
Properties=species:S:1:pos:R:3:Z:I:1 energy=-339.97233535784795 field_type=dipole dipole="0.000000 0.000000 0.000000" charge=0
O	0.030061	-2.530168	-0.239057	8
C	-1.024249	-1.966278	0.522073	6
C	-0.894039	-0.476918	0.608573	6
C	0.044652	0.267392	0.006263	6
N	0.179852	1.630312	0.084443	7
C	1.086291	2.455152	-0.519317	6
N	2.022411	2.178832	-1.354847	7
H	-0.096869	-3.493498	-0.225117	1
H	-0.996759	-2.396358	1.528123	1
H	-1.976449	-2.227728	0.050253	1
H	-1.644749	0.011702	1.223013	1
H	0.795771	-0.218288	-0.612477	1
H	-0.496849	2.084122	0.689163	1
H	0.949961	3.506792	-0.213007	1
H	2.020961	1.174932	-1.548077	1
Es	0.029871	-2.530608	-0.238915	99
Es	0.179838	1.630273	0.084424	99
Es	2.023229	2.179305	-1.355432	99
Es	1.085744	2.456108	-0.518677	99
Es	-1.023988	-1.965786	0.521957	99
Es	0.044596	0.267615	0.006332	99
Es	-0.893444	-0.476615	0.608081	99
Es	0.255463	-2.366653	-0.393736	99
Es	0.606881	1.974122	-0.205759	99
Es	1.562390	2.245114	-0.948680	99
Es	-0.932229	-1.196000	0.546786	99
Es	-1.398708	-0.123217	1.023979	99
Es	1.972605	1.610096	-1.425118	99
Es	0.553053	-0.041744	-0.410475	99
Es	-0.215592	1.894986	0.440945	99
Es	-0.071285	-3.016294	-0.204611	99
Es	-0.380158	-0.086977	0.334084	99
Es	-1.663191	-2.139267	0.210534	99
Es	-0.362728	-2.348865	0.041334	99
Es	0.977903	3.136246	-0.306239	99
Es	0.231497	1.636170	0.041879	99
Es	0.075169	1.007874	0.078259	99
Es	-1.010642	-2.252447	1.196684	99
Es	0.011183	-2.546068	-0.215490	99
Es	2.275004	2.405808	-1.517448	99
Es	1.702949	2.252598	-1.082167	99
Es	-0.496928	-0.144478	0.297731	99
