43
Properties=species:S:1:pos:R:3:Z:I:1 energy=-323.9236516947389 field_type=dipole dipole="0.000000 0.000000 0.000000" charge=0
O	-0.877566	-2.264251	-1.026245	8
C	-1.687896	-1.417521	-0.211125	6
C	-1.164286	0.021209	-0.281515	6
N	0.179414	0.095659	0.304175	7
C	0.778594	1.406529	0.086045	6
C	2.123614	1.436809	0.674355	6
C	3.224484	1.461599	1.154915	6
H	-1.176816	-3.175381	-0.864225	1
H	-1.670366	-1.793701	0.817405	1
H	-2.715116	-1.463141	-0.586195	1
H	-1.846026	0.683809	0.262405	1
H	-1.130726	0.332319	-1.332745	1
H	0.756174	-0.615311	-0.152835	1
H	0.163154	2.184789	0.553535	1
H	0.845443	1.628809	-0.984955	1
H	4.197924	1.477779	1.587005	1
Es	-0.877767	-2.264616	-1.026103	99
Es	0.179446	0.095494	0.304179	99
Es	-1.687392	-1.417293	-0.211414	99
Es	0.779407	1.406181	0.086520	99
Es	-1.164083	0.020581	-0.281257	99
Es	2.122891	1.436825	0.673978	99
Es	3.225627	1.461527	1.155567	99
Es	-0.664655	-2.156130	-1.239085	99
Es	0.448750	0.664883	0.161704	99
Es	3.466985	1.440667	1.245988	99
Es	-1.626912	0.479022	0.086625	99
Es	1.500897	1.435825	0.406280	99
Es	-2.395371	-1.440233	-0.465643	99
Es	3.015036	1.414889	1.068421	99
Es	-1.057113	-2.725194	-0.911534	99
Es	0.378806	1.920246	0.401991	99
Es	0.498850	-0.277069	0.004297	99
Es	0.842493	1.554570	-0.630043	99
Es	-1.678939	-1.672544	0.488260	99
Es	-1.168736	-1.988141	-0.719499	99
Es	-0.365340	0.081003	0.009693	99
Es	-1.416192	-0.696670	-0.238207	99
Es	-1.140616	0.234550	-0.997369	99
Es	-0.891483	-2.273736	-0.996316	99
Es	2.696099	1.450173	0.924173	99
Es	2.674438	1.501692	0.916346	99
Es	0.151727	0.013931	0.689773	99
