41
Properties=species:S:1:pos:R:3:Z:I:1 energy=-359.7907070525768 field_type=dipole dipole="0.000000 0.000000 0.000000" charge=0
O	-1.270234	-0.249724	1.548126	8
C	-0.529754	-0.584404	0.376776	6
C	-1.464234	-0.985654	-0.755503	6
O	-2.688904	-1.003624	-0.628314	8
C	0.305616	0.600736	-0.002564	6
C	1.770236	0.638006	0.353936	6
N	1.340666	0.477626	-1.033123	7
H	-2.213494	-0.380414	1.317876	1
H	0.086846	-1.458384	0.612696	1
H	-0.975504	-1.298484	-1.694664	1
H	-0.253824	1.528806	0.009276	1
H	2.224206	-0.231934	0.813446	1
H	2.212866	1.589486	0.623976	1
H	1.455516	1.357966	-1.541944	1
Es	-2.688398	-1.003472	-0.627982	99
Es	-1.270600	-0.249826	1.547638	99
Es	1.340644	0.478156	-1.032911	99
Es	-1.463786	-0.985709	-0.755619	99
Es	-0.529814	-0.584590	0.376827	99
Es	0.305990	0.600026	-0.002752	99
Es	1.769733	0.637930	0.353392	99
Es	-2.944549	-1.056683	-0.738212	99
Es	-1.135239	-0.129704	1.807634	99
Es	1.589444	0.587815	-0.447825	99
Es	-1.096738	-1.172902	-1.324972	99
Es	0.989843	0.623643	0.401576	99
Es	-0.076990	1.213685	-0.013822	99
Es	-1.030518	-0.804041	-0.259332	99
Es	2.061097	1.288470	0.533470	99
Es	-2.624631	-0.947893	-0.477804	99
Es	-2.200046	-1.009580	-0.671700	99
Es	-0.113415	-0.006274	0.152024	99
Es	-0.109286	-1.157500	0.514627	99
Es	2.074113	0.047021	0.652509	99
Es	-1.280066	-0.290590	1.520814	99
Es	-2.325103	-0.970443	-0.669737	99
Es	1.374679	0.131753	-1.213919	99
Es	1.381421	1.009501	-1.279406	99
Es	-1.724281	-0.318663	1.403257	99
Es	-1.023870	-0.371641	1.092895	99
Es	0.858181	0.534738	-0.707633	99
