52
Properties=species:S:1:pos:R:3:Z:I:1 energy=-274.49444095360866 field_type=dipole dipole="0.000000 0.000000 0.000000" charge=0
C	-2.690484	-1.526170	-0.038401	6
C	-1.168864	-1.503870	-0.051421	6
C	-0.633154	-0.069730	-0.077701	6
C	0.904836	0.024280	0.018519	6
C	1.592866	-0.721390	-1.131171	6
C	1.385476	1.491340	0.020919	6
C	0.941956	2.284270	1.241559	6
H	-3.054164	-2.558800	-0.019821	1
H	-3.096464	-1.039310	-0.930531	1
H	-3.084354	-1.011900	0.844099	1
H	-0.824534	-2.058720	-0.930051	1
H	-0.793394	-2.025660	0.836429	1
H	-1.081834	0.473560	0.761809	1
H	-0.975394	0.428390	-0.993971	1
H	1.224696	-0.443430	0.958649	1
H	1.243286	-0.358900	-2.103801	1
H	1.405676	-1.797850	-1.077881	1
H	2.678986	-0.585310	-1.090091	1
H	1.038596	2.001490	-0.886011	1
H	2.482346	1.509610	-0.008561	1
H	-0.141764	2.433030	1.257169	1
H	1.407666	3.275040	1.233029	1
H	1.238026	1.780039	2.167229	1
Es	0.904953	0.024374	0.018497	99
Es	-1.169227	-1.503697	-0.051386	99
Es	1.385109	1.491316	0.021277	99
Es	-0.632950	-0.070182	-0.077914	99
Es	-2.689747	-1.526088	-0.038433	99
Es	0.942108	2.283906	1.241062	99
Es	1.592597	-0.721065	-1.130665	99
Es	2.131172	1.488489	-0.001068	99
Es	-2.963242	-1.193000	-0.638211	99
Es	1.136784	1.935962	1.866552	99
Es	-0.910467	-0.783680	-0.072750	99
Es	1.452223	-1.451537	-1.085180	99
Es	-0.930409	-1.876507	-0.652542	99
Es	0.141443	-0.026455	-0.036474	99
Es	-0.932165	0.298033	0.486812	99
Es	-2.954483	-1.172993	0.557285	99
Es	-0.859335	0.266865	-0.688638	99
Es	1.261451	-0.365294	-0.567645	99
Es	0.211958	2.373897	1.251320	99
Es	2.336278	-0.624492	-1.102037	99
Es	1.342345	-0.465436	-1.785888	99
Es	-1.930370	-1.510236	-0.038242	99
Es	1.144029	1.884061	0.637153	99
Es	-2.941739	-2.233965	-0.025540	99
Es	1.259851	2.969471	1.235544	99
Es	-0.906032	-1.855003	0.549533	99
Es	1.113275	-0.287604	0.647720	99
Es	1.146984	1.821727	-0.601086	99
Es	1.142638	0.781069	0.032834	99
