37
Properties=species:S:1:pos:R:3:Z:I:1 energy=-321.6580117443016 field_type=dipole dipole="0.000000 0.000000 0.000000" charge=0
O	-0.465054	-2.789453	0.006100	8
C	-1.050034	-1.713363	-0.007020	6
N	-0.314194	-0.524663	-0.002050	7
C	-0.853634	0.747058	-0.015410	6
C	0.173646	1.665467	-0.005110	6
C	1.385976	0.940037	0.015260	6
C	1.060896	-0.398083	0.016750	6
H	-2.148144	-1.624653	-0.022890	1
H	-1.925784	0.891777	-0.031170	1
H	0.061086	2.742447	-0.011580	1
H	2.389676	1.346147	0.027560	1
H	1.685566	-1.282723	0.029560	1
Es	-0.464725	-2.789053	0.006103	99
Es	-0.314147	-0.524548	-0.002050	99
Es	-1.050729	-1.712656	-0.007033	99
Es	-0.855971	0.747716	-0.015446	99
Es	1.062042	-0.399137	0.016771	99
Es	0.173608	1.666086	-0.005113	99
Es	1.386557	0.940347	0.015267	99
Es	-0.499447	-3.085102	0.006957	99
Es	-0.622116	0.088705	-0.009166	99
Es	0.085110	2.358216	-0.009500	99
Es	0.324071	-0.497448	0.006820	99
Es	-1.770523	-1.613426	-0.017622	99
Es	1.238477	0.317327	0.015999	99
Es	1.420014	-0.956570	0.024345	99
Es	-0.648986	-1.050764	-0.004377	99
Es	-0.686421	-2.331542	0.000905	99
Es	2.029388	1.169656	0.023280	99
Es	-0.295585	-0.478344	-0.002002	99
Es	-1.483833	0.771261	-0.024395	99
Es	-0.343044	1.218677	-0.010385	99
Es	0.778526	1.299567	0.005071	99
Es	-0.625993	-2.487353	0.002463	99
Es	-0.347868	-2.665053	0.007186	99
Es	1.152286	0.340710	0.014695	99
Es	-0.270556	1.183223	-0.009152	99
