42
Properties=species:S:1:pos:R:3:Z:I:1 energy=-339.9776260781187 field_type=dipole dipole="0.000000 0.000000 0.000000" charge=0
O	-1.423666	-2.898073	0.876271	8
C	-1.921716	-1.823793	0.571221	6
N	-1.231446	-0.689163	0.247241	7
C	0.205524	-0.689773	0.108211	6
C	0.711464	0.712007	0.254151	6
C	1.671264	1.295267	-0.748739	6
N	0.279194	1.739037	-0.701359	7
H	-3.011186	-1.666283	0.533591	1
H	-1.729226	0.093297	-0.159719	1
H	0.438284	-1.110243	-0.876569	1
H	0.652934	-1.340633	0.866991	1
H	0.778114	1.021927	1.290441	1
H	1.950984	0.707167	-1.614019	1
H	2.418664	1.997387	-0.401949	1
H	0.210804	2.651867	-0.245769	1
Es	-1.423472	-2.897815	0.876183	99
Es	-1.231317	-0.689247	0.247137	99
Es	0.279365	1.739208	-0.701036	99
Es	-1.922645	-1.823204	0.571033	99
Es	0.711381	0.712210	0.253695	99
Es	1.670561	1.295253	-0.748439	99
Es	0.205105	-0.689033	0.108260	99
Es	-1.449064	-3.180659	0.962767	99
Es	0.024847	1.633222	-0.983378	99
Es	-1.527305	-0.258415	-0.005279	99
Es	0.448734	0.034267	0.156397	99
Es	0.274138	2.245261	-0.395805	99
Es	0.369917	-0.974242	-0.556295	99
Es	-1.538887	-1.226679	0.355741	99
Es	-2.642357	-1.689991	0.534435	99
Es	2.173168	1.772210	-0.500898	99
Es	-1.607728	-2.425510	0.751239	99
Es	1.849604	0.906081	-1.331830	99
Es	-0.624022	-0.674589	0.177018	99
Es	0.504391	-1.099080	0.623933	99
Es	-1.544723	-2.642464	0.795491	99
Es	0.746441	0.931981	0.951340	99
Es	0.912203	1.614983	-0.745199	99
Es	1.364274	0.857879	-0.187352	99
Es	-1.326505	-2.793624	0.841901	99
Es	0.354263	1.344264	-0.273523	99
Es	-1.316771	-0.735939	0.420999	99
