41
Properties=species:S:1:pos:R:3:Z:I:1 energy=-359.7320985325912 field_type=dipole dipole="0.000000 0.000000 0.000000" charge=0
O	-2.955461	-0.822420	1.470849	8
N	-1.569101	-0.995740	1.402389	7
C	-1.161251	-0.616550	0.234359	6
C	0.296409	-0.659550	-0.126771	6
C	0.886119	0.711970	-0.119271	6
C	1.928079	1.126270	-1.123441	6
O	0.550919	1.508950	-1.262881	8
H	-3.158031	-1.096380	2.384619	1
H	-1.855001	-0.218440	-0.527221	1
H	0.380669	-1.125310	-1.114861	1
H	0.831949	-1.289990	0.590799	1
H	0.877509	1.183900	0.855229	1
H	2.314659	0.392910	-1.820131	1
H	2.632539	1.900380	-0.843671	1
Es	-2.955432	-0.822549	1.471352	99
Es	0.551342	1.508815	-1.262626	99
Es	-1.372955	-1.145508	1.704602	99
Es	0.886003	0.712220	-0.119995	99
Es	1.927174	1.126349	-1.123308	99
Es	-1.161296	-0.616424	0.234003	99
Es	0.296076	-0.659396	-0.126634	99
Es	-3.119746	-0.710569	1.231600	99
Es	0.597159	1.297541	-0.927539	99
Es	-1.420477	-0.849683	0.854385	99
Es	0.352528	-0.965779	-0.778781	99
Es	2.179219	0.636612	-1.605447	99
Es	0.864370	1.033726	0.535261	99
Es	-1.576040	-0.358549	-0.274643	99
Es	-3.027599	-0.971240	1.949345	99
Es	1.094015	1.341523	-1.179484	99
Es	2.393816	1.655091	-0.926774	99
Es	-2.380874	-0.886987	1.430726	99
Es	-2.917078	-0.839865	1.480064	99
Es	0.345931	1.640192	-1.384622	99
Es	-0.491264	-0.635820	0.089776	99
Es	0.582139	0.016361	-0.140028	99
Es	0.654461	-1.059872	0.343767	99
Es	0.585449	1.465196	-1.242003	99
Es	-1.569164	-0.995715	1.402535	99
Es	1.581345	0.784342	-0.513096	99
Es	-1.375833	-0.795054	0.930051	99
