42
Properties=species:S:1:pos:R:3:Z:I:1 energy=-628.2439598927963 field_type=dipole dipole="0.000000 0.000000 0.000000" charge=0
C	-0.065269	-0.993970	1.106488	6
C	-0.443409	-1.376100	-0.355482	6
C	-0.134529	0.019730	-0.697912	6
C	-0.048819	1.013140	-1.606922	6
S	0.524071	2.441010	-0.773692	16
C	0.614761	1.624140	0.770918	6
C	0.214281	0.350530	0.580598	6
H	0.802691	-1.473730	1.571748	1
H	-0.853009	-1.006910	1.868378	1
H	-1.476409	-1.665300	-0.576692	1
H	0.185591	-2.101950	-0.882952	1
H	-0.263589	1.028560	-2.665632	1
H	0.943641	2.140850	1.661158	1
Es	0.524095	2.441110	-0.773725	99
Es	-0.048935	1.013692	-1.608237	99
Es	0.615238	1.625247	0.771728	99
Es	-0.065228	-0.993563	1.106097	99
Es	-0.443248	-1.375566	-0.355389	99
Es	-0.134550	0.019895	-0.698231	99
Es	0.214399	0.350821	0.580772	99
Es	0.483366	2.374555	-0.880902	99
Es	0.549341	2.435754	-0.643691	99
Es	0.539808	2.514462	-0.796989	99
Es	0.524119	2.440896	-0.773676	99
Es	-0.312646	-0.656251	-0.668490	99
Es	0.050891	0.236168	-0.074745	99
Es	0.799083	1.873446	1.334584	99
Es	0.611139	2.847076	-0.902281	99
Es	-0.011683	-1.853126	-0.699418	99
Es	0.241717	1.718205	-1.152183	99
Es	0.447720	1.069339	0.720876	99
Es	-0.097468	0.564788	-1.238536	99
Es	-1.137042	-1.558273	-0.491652	99
Es	-0.269275	-1.254614	0.397567	99
Es	-0.192106	0.956301	-2.231848	99
Es	0.520562	-1.314111	1.402021	99
Es	-0.060065	0.570768	-1.069644	99
Es	0.121393	-0.235842	0.951276	99
Es	-0.600185	-0.997174	1.602730	99
Es	0.557761	2.006516	-0.028490	99
Es	0.482072	2.244713	-0.711590	99
Es	0.396687	0.993799	0.573595	99
