45
Properties=species:S:1:pos:R:3:Z:I:1 energy=-629.4790676527838 field_type=dipole dipole="0.000000 0.000000 0.000000" charge=0
C	-2.694809	0.371529	-0.013369	6
C	-1.207299	0.294259	-0.005969	6
C	-0.293259	1.326649	-0.001039	6
C	1.051180	0.855349	0.005631	6
C	1.122481	-0.522381	0.005491	6
C	2.344541	-1.375631	0.011371	6
S	-0.433569	-1.231281	-0.003259	16
H	-3.032419	1.413319	-0.004639	1
H	-3.114429	-0.123281	0.868771	1
H	-3.104089	-0.105331	-0.910109	1
H	-0.572629	2.373379	-0.002019	1
H	1.923241	1.498219	0.010401	1
H	2.109181	-2.444681	0.021451	1
H	2.952231	-1.157221	0.895661	1
H	2.949650	-1.172891	-0.878379	1
Es	-0.433561	-1.231288	-0.003259	99
Es	1.122115	-0.522647	0.005489	99
Es	-1.207295	0.293842	-0.005969	99
Es	2.344170	-1.375434	0.011366	99
Es	-2.694469	0.371421	-0.013368	99
Es	-0.293780	1.328858	-0.001039	99
Es	1.052835	0.856743	0.005641	99
Es	-0.486216	-1.362418	-0.002426	99
Es	-0.492436	-1.133455	-0.003599	99
Es	-0.322317	-1.205459	-0.002057	99
Es	-0.433536	-1.231227	-0.004893	99
Es	-0.521457	-1.588946	-0.005947	99
Es	2.741562	-1.216263	0.600900	99
Es	1.599665	1.189321	0.008886	99
Es	-2.968452	0.036640	0.579803	99
Es	1.698224	-0.942040	0.008370	99
Es	-0.783778	-0.499784	-0.004385	99
Es	-0.688524	0.886161	-0.005134	99
Es	-1.923028	0.335532	-0.009317	99
Es	-2.961245	0.048918	-0.616181	99
Es	2.171974	-2.093922	0.018093	99
Es	2.739576	-1.226853	-0.582095	99
Es	-2.907721	1.062147	-0.007665	99
Es	1.094710	0.274274	0.006404	99
Es	0.354043	1.067335	0.002208	99
Es	-0.664272	0.776626	-0.001155	99
Es	-0.484326	1.922769	-0.001779	99
Es	0.246713	-0.904621	0.000593	99
Es	-0.355591	-1.030363	-0.000916	99
Es	0.990206	0.209661	0.004203	99
