44
Properties=species:S:1:pos:R:3:Z:I:1 energy=-645.4748815646299 field_type=dipole dipole="0.000000 0.000000 0.000000" charge=0
C	-2.496918	0.240575	-0.009980	6
C	-1.009418	0.169425	-0.007230	6
C	-0.098248	1.204235	0.003950	6
C	1.248102	0.733695	-0.007460	6
C	1.324352	-0.639675	-0.031310	6
N	2.441312	-1.389775	-0.061400	7
S	-0.228008	-1.352315	-0.023670	16
H	-2.838638	1.281055	-0.001250	1
H	-2.912138	-0.255575	0.873310	1
H	-2.906908	-0.238065	-0.905540	1
H	-0.378608	2.250375	0.014630	1
H	2.116692	1.379425	-0.007210	1
H	2.379112	-2.394245	0.068360	1
H	3.359312	-0.989135	0.094800	1
Es	-0.228036	-1.352561	-0.023605	99
Es	2.439586	-1.388140	-0.076546	99
Es	1.324060	-0.639823	-0.031325	99
Es	-1.009357	0.168981	-0.007234	99
Es	-0.098485	1.205677	0.003945	99
Es	-2.496527	0.240446	-0.009972	99
Es	1.248673	0.733938	-0.007437	99
Es	-0.259704	-1.488005	-0.003947	99
Es	-0.132786	-1.307816	-0.030670	99
Es	-0.295853	-1.267661	-0.020739	99
Es	-0.229322	-1.353519	-0.040354	99
Es	1.966537	-1.073997	0.013710	99
Es	-0.495281	0.772101	0.005151	99
Es	-1.725304	0.201897	-0.008396	99
Es	-0.568177	-0.667127	-0.017282	99
Es	1.802457	1.088407	-0.014940	99
Es	2.380760	-1.948788	0.085624	99
Es	-0.319522	1.823656	0.011471	99
Es	1.194596	0.220876	-0.201584	99
Es	2.935914	-1.133365	0.110046	99
Es	-2.765426	-0.084048	-0.611827	99
Es	-2.769760	-0.096547	0.584571	99
Es	-2.714463	0.934217	-0.004282	99
Es	2.410493	-1.362284	-0.331600	99
Es	0.580267	0.934304	-0.010783	99
Es	0.527918	-1.011904	-0.024351	99
Es	-0.364604	-1.709500	-0.037502	99
Es	-0.549828	0.610726	-0.008704	99
Es	-0.138862	-1.193808	-0.009183	99
Es	1.253964	0.141901	0.182385	99
