43
Properties=species:S:1:pos:R:3:Z:I:1 energy=-665.308372085807 field_type=dipole dipole="0.000000 0.000000 0.000000" charge=0
C	-1.797719	-0.183191	-0.003544	6
C	-0.307930	-0.109491	-0.000164	6
C	0.431290	1.056799	-0.001324	6
O	-0.021950	2.305559	-0.005074	8
S	2.111681	0.765249	0.002946	16
C	1.883111	-0.925961	0.005986	6
C	0.548560	-1.261521	0.003876	6
H	-2.255899	0.810359	0.007756	1
H	-2.151780	-0.728231	0.877876	1
H	-2.148600	-0.707371	-0.898174	1
H	0.779530	2.856799	-0.004524	1
H	2.734060	-1.593691	0.009126	1
H	0.195640	-2.285311	0.005236	1
Es	2.111652	0.765227	0.002946	99
Es	-0.021293	2.305499	-0.005073	99
Es	0.430874	1.056081	-0.001333	99
Es	1.883124	-0.925402	0.005986	99
Es	0.547108	-1.266251	0.003884	99
Es	-0.307825	-0.109532	-0.000163	99
Es	-1.797293	-0.183257	-0.003547	99
Es	2.393146	1.058139	0.004639	99
Es	2.027727	0.810352	0.002497	99
Es	2.199615	0.863152	0.003623	99
Es	2.111596	0.765180	0.002298	99
Es	-0.314549	2.391513	-0.006120	99
Es	1.981472	-0.085910	0.004412	99
Es	-2.099392	0.481552	0.003865	99
Es	1.360116	0.873220	0.000975	99
Es	0.025052	0.490374	-0.003078	99
Es	0.399134	2.542161	-0.004632	99
Es	0.178878	1.852978	-0.003501	99
Es	1.186488	-1.085472	0.001973	99
Es	2.432710	-1.365460	0.008148	99
Es	0.023475	2.244722	-0.004860	99
Es	0.188436	-0.798408	0.002416	99
Es	-2.022313	-0.536407	-0.600872	99
Es	-2.024726	-0.550743	0.584960	99
Es	-1.030074	-0.139980	-0.001420	99
Es	0.316655	-1.769447	0.004562	99
Es	1.250878	-1.033072	0.007400	99
Es	2.110460	0.642741	0.003282	99
Es	1.944274	0.666484	0.001294	99
Es	0.120752	0.303510	0.001805	99
