45
Properties=species:S:1:pos:R:3:Z:I:1 energy=-739.2859373674266 field_type=dipole dipole="0.000000 0.000000 0.000000" charge=0
C	-1.456546	0.096824	-0.506902	6
C	0.055994	0.060584	-0.506822	6
C	0.765624	1.024244	0.443128	6
O	1.786783	0.072664	0.820248	8
S	0.855144	-1.208956	0.411158	16
O	0.096143	-1.634286	1.564228	8
O	1.612514	-2.101686	-0.436062	8
H	-1.861636	-0.748456	-1.072292	1
H	-1.818156	1.017484	-0.976102	1
H	-1.867706	0.053804	0.506838	1
H	0.451324	0.110704	-1.528992	1
H	0.186684	1.346794	1.316888	1
H	1.193834	1.910284	-0.035312	1
Es	0.855079	-1.209186	0.411127	99
Es	1.786166	0.072828	0.820274	99
Es	0.096375	-1.634122	1.563779	99
Es	1.612233	-2.101378	-0.435818	99
Es	0.765710	1.023307	0.442813	99
Es	0.056075	0.060344	-0.506689	99
Es	-1.455741	0.096775	-0.506788	99
Es	0.843063	-1.132426	0.424198	99
Es	0.842897	-1.212255	0.404041	99
Es	0.879038	-1.222733	0.377443	99
Es	0.855973	-1.265880	0.438969	99
Es	1.425999	0.391166	0.678502	99
Es	0.014555	-1.668089	1.787611	99
Es	1.782893	-2.222346	-0.547675	99
Es	-0.666759	0.056560	-0.488679	99
Es	1.053520	1.619139	0.128913	99
Es	-1.719850	-0.469687	-0.883057	99
Es	0.375409	-1.482558	1.134729	99
Es	1.333697	-1.786063	-0.104216	99
Es	1.486558	-0.332011	0.687841	99
Es	1.781580	0.048209	0.689699	99
Es	0.379871	1.220028	1.012463	99
Es	0.315626	0.084061	-1.155469	99
Es	1.998480	0.078594	1.046887	99
Es	-1.680420	0.719144	-0.824882	99
Es	-1.718991	0.074895	0.164043	99
Es	0.135392	-1.605092	1.388976	99
Es	1.457093	-2.018318	-0.358977	99
Es	0.178011	-1.593161	1.443255	99
Es	0.360458	0.584288	-0.046531	99
Es	1.538103	-1.995871	-0.362402	99
Es	0.366471	-0.604039	-0.131920	99
