44
Properties=species:S:1:pos:R:3:Z:I:1 energy=-645.4805250291728 field_type=dipole dipole="0.000000 0.000000 0.000000" charge=0
C	-1.548138	0.684481	-0.003386	6
C	-0.059088	0.687801	0.003444	6
C	0.730402	1.824451	0.012754	6
S	2.375202	1.370421	0.017724	16
N	2.100182	-0.258829	0.008094	7
C	0.785302	-0.483639	0.001244	6
C	0.333632	-1.903538	-0.008316	6
H	-1.949868	1.703001	0.002854	1
H	-1.933038	0.164931	0.879894	1
H	-1.924748	0.178881	-0.898246	1
H	0.431732	2.862861	0.016694	1
H	-0.757698	-1.985368	-0.003316	1
H	0.712542	-2.430408	0.873704	1
H	0.703582	-2.415049	-0.903136	1
Es	2.375065	1.370335	0.017723	99
Es	2.100320	-0.258654	0.008096	99
Es	0.785086	-0.483180	0.001245	99
Es	0.730189	1.824100	0.012751	99
Es	-0.059269	0.688077	0.003445	99
Es	-1.547574	0.684503	-0.003384	99
Es	0.333833	-1.903195	-0.008312	99
Es	2.383900	1.241507	0.017053	99
Es	2.273049	1.447037	0.017689	99
Es	2.468554	1.428660	0.018099	99
Es	2.375109	1.370346	0.018088	99
Es	1.520778	-0.300963	0.005958	99
Es	0.458541	2.363945	0.014257	99
Es	0.572710	-2.236026	-0.604776	99
Es	-0.769188	0.673339	0.000189	99
Es	2.154968	0.513766	0.012259	99
Es	0.328592	0.082571	0.002196	99
Es	0.423023	1.429879	0.009257	99
Es	1.568846	1.597625	0.015381	99
Es	-1.795333	0.336817	0.583081	99
Es	-0.387696	-1.943885	-0.004939	99
Es	0.578959	-2.246787	0.579541	99
Es	-1.810478	1.370950	0.000872	99
Es	-1.789909	0.346095	-0.597580	99
Es	0.550296	-1.164271	-0.003057	99
Es	0.363300	1.078606	0.007364	99
Es	2.716587	1.562911	0.020330	99
Es	2.388644	-0.499366	0.008027	99
Es	1.616315	-0.226291	0.005678	99
Es	2.132447	1.308767	0.016180	99
