45
Properties=species:S:1:pos:R:3:Z:I:1 energy=-739.2634254194287 field_type=dipole dipole="0.000000 0.000000 0.000000" charge=0
C	-1.678107	0.391223	-0.484088	6
C	-0.176907	0.230263	-0.577118	6
O	0.506753	1.212943	0.235022	8
C	1.542593	0.327863	0.706902	6
S	0.572913	-1.081037	0.326602	16
O	-0.220487	-1.529087	1.455252	8
O	1.274053	-2.007867	-0.541658	8
H	-2.184857	-0.430817	-1.000758	1
H	-1.994047	1.327183	-0.955448	1
H	-2.023597	0.405123	0.553712	1
H	0.174983	0.272793	-1.614018	1
H	2.463033	0.422463	0.123472	1
H	1.743673	0.458953	1.772122	1
Es	0.572909	-1.081045	0.326601	99
Es	0.506909	1.212418	0.234843	99
Es	-0.220246	-1.528875	1.454819	99
Es	1.273791	-2.007558	-0.541387	99
Es	-0.176789	0.230209	-0.576703	99
Es	1.542056	0.327816	0.706678	99
Es	-1.677278	0.391042	-0.484070	99
Es	0.612752	-0.975933	0.369169	99
Es	0.501346	-1.112399	0.265334	99
Es	0.598074	-1.152527	0.353538	99
Es	0.579989	-1.081158	0.318721	99
Es	1.002270	-1.681452	-0.219041	99
Es	0.459844	1.506588	0.257034	99
Es	-0.295467	-1.594578	1.666520	99
Es	-0.906064	0.290671	-0.513304	99
Es	1.160914	-0.372305	0.581736	99
Es	0.096501	-0.440804	-0.197411	99
Es	0.071881	0.242628	-1.262636	99
Es	1.440262	-2.094042	-0.690394	99
Es	0.891419	0.865983	0.405618	99
Es	1.678781	0.410903	1.414169	99
Es	2.143356	0.369488	0.303725	99
Es	0.061366	-1.361122	1.033494	99
Es	0.270455	0.841164	-0.049013	99
Es	-1.871330	1.017211	-0.807818	99
Es	-1.995075	-0.164727	-0.827655	99
Es	-1.895255	0.398508	0.192834	99
Es	-0.155577	-1.451494	1.330543	99
Es	-0.159631	-1.502755	1.309211	99
Es	1.144646	-1.954706	-0.460119	99
Es	0.497690	1.158468	0.250690	99
Es	1.209499	-1.909178	-0.437730	99
