43
Properties=species:S:1:pos:R:3:Z:I:1 energy=-661.4593372843789 field_type=dipole dipole="0.000000 0.000000 0.000000" charge=0
C	-1.450454	-1.327596	0.114760	6
C	0.065716	-1.223166	0.064670	6
C	0.517015	0.199074	0.061330	6
N	0.702215	0.928434	1.143360	7
N	1.120265	2.210094	0.845410	7
C	1.235565	2.397984	-0.450730	6
S	0.844915	1.031484	-1.408620	16
H	-1.757575	-2.377966	0.137480	1
H	-1.910554	-0.858306	-0.761390	1
H	-1.852005	-0.836716	1.007910	1
H	0.442356	-1.753816	-0.817690	1
H	0.490766	-1.729046	0.939680	1
H	1.551775	3.339544	-0.876170	1
Es	0.845464	1.030957	-1.410110	99
Es	1.120056	2.209366	0.845136	99
Es	0.702328	0.928847	1.142991	99
Es	0.517073	0.199227	0.061048	99
Es	1.235710	2.398346	-0.451120	99
Es	0.065877	-1.222793	0.064655	99
Es	-1.449696	-1.327470	0.114722	99
Es	0.877953	1.045363	-1.537606	99
Es	0.820462	0.950907	-1.317197	99
Es	0.860460	1.081257	-1.375308	99
Es	0.819240	1.039681	-1.411292	99
Es	1.180931	2.454102	1.119216	99
Es	0.637536	0.643239	0.605961	99
Es	1.052043	1.750189	-0.919567	99
Es	-0.661383	-1.248930	0.087302	99
Es	-1.752956	-1.006731	-0.477300	99
Es	1.156363	2.233187	0.221549	99
Es	0.768393	0.892620	-1.812572	99
Es	1.438708	2.989269	-0.740935	99
Es	0.320935	-1.567895	-0.538061	99
Es	-1.655097	-2.042587	0.127183	99
Es	0.648968	0.726662	0.670797	99
Es	0.698695	0.636756	-0.745582	99
Es	0.303949	-0.466449	0.066181	99
Es	0.348044	-1.542513	0.638089	99
Es	-1.712381	-0.997691	0.708695	99
Es	0.915196	1.574854	0.912171	99
Es	0.651037	0.796953	1.495568	99
Es	0.879998	1.063608	-1.195233	99
Es	1.143845	2.212257	0.280061	99
