49
Properties=species:S:1:pos:R:3:Z:I:1 energy=-663.8546082551828 field_type=dipole dipole="0.000000 0.000000 0.000000" charge=0
C	-0.752851	-1.494376	1.425639	6
C	-1.197461	-0.585676	0.287839	6
C	-0.574181	0.806284	0.371049	6
N	0.868199	0.778984	0.202969	7
C	1.589269	0.774144	-0.937381	6
N	0.932639	0.835184	-2.108561	7
S	3.246839	0.722184	-0.894391	16
H	-1.262111	-2.460726	1.357259	1
H	-0.993871	-1.052316	2.397519	1
H	0.325009	-1.680086	1.389439	1
H	-2.288721	-0.486496	0.324159	1
H	-0.947751	-1.059776	-0.668361	1
H	-0.777891	1.260844	1.346419	1
H	-1.010021	1.455834	-0.394911	1
H	1.429059	0.716024	1.045249	1
H	-0.060941	0.684774	-2.181641	1
H	1.474789	0.785194	-2.962291	1
Es	3.247899	0.724173	-0.893318	99
Es	0.932669	0.835732	-2.108373	99
Es	0.868081	0.778954	0.202981	99
Es	1.588866	0.774127	-0.937140	99
Es	-0.573836	0.805935	0.370869	99
Es	-1.197164	-0.585455	0.287895	99
Es	-0.753038	-1.493918	1.425097	99
Es	3.244589	0.796899	-0.872600	99
Es	3.284440	0.718449	-0.976045	99
Es	3.241332	0.712452	-0.880827	99
Es	3.233717	0.667961	-0.944449	99
Es	1.163222	0.751443	-0.322841	99
Es	1.202667	0.761458	-1.585693	99
Es	-0.870550	0.114906	0.339169	99
Es	0.258089	0.739704	0.267382	99
Es	-0.033663	-1.609069	1.401102	99
Es	3.502985	0.681472	-0.933000	99
Es	1.185605	0.714380	0.672755	99
Es	0.359246	0.701892	-2.132417	99
Es	-0.702321	1.104510	1.026012	99
Es	1.248041	0.762488	-2.594876	99
Es	-1.099002	-2.153904	1.378735	99
Es	-0.864021	1.243494	-0.166228	99
Es	-0.913228	-1.183742	2.081216	99
Es	0.970680	1.025982	-2.002457	99
Es	-1.023928	-0.890399	-0.362556	99
Es	-1.936409	-0.513881	0.306893	99
Es	-0.965837	-1.036949	0.849501	99
Es	2.377358	0.749725	-0.907670	99
Es	0.949343	0.887565	0.090453	99
Es	3.186829	0.725078	-0.756484	99
Es	2.957997	0.748691	-0.903291	99
