50
Properties=species:S:1:pos:R:3:Z:I:1 energy=-704.6453315024488 field_type=dipole dipole="0.000000 0.000000 0.000000" charge=0
C	-2.279668	-1.303090	0.136516	6
C	-0.761688	-1.249340	0.178716	6
C	-0.250878	0.171320	-0.022204	6
S	1.533562	0.240450	0.036586	16
C	1.871933	1.953880	-0.284364	6
O	1.951962	-0.041290	1.396096	8
O	2.053473	-0.522280	-1.082524	8
H	-2.626368	-2.332450	0.269996	1
H	-2.658698	-0.938750	-0.823534	1
H	-2.715758	-0.691650	0.932966	1
H	-0.355508	-1.907100	-0.598274	1
H	-0.411438	-1.642730	1.139886	1
H	-0.626288	0.836560	0.761316	1
H	-0.557548	0.559140	-0.999134	1
H	1.473463	2.213800	-1.266663	1
H	2.954153	2.095420	-0.270984	1
H	1.405292	2.558110	0.495596	1
Es	1.533650	0.240147	0.036656	99
Es	1.951872	-0.041282	1.395645	99
Es	2.053331	-0.522136	-1.082115	99
Es	-0.250496	0.171195	-0.022167	99
Es	1.871774	1.953259	-0.284248	99
Es	-0.761623	-1.249000	0.178663	99
Es	-2.278948	-1.302972	0.136522	99
Es	1.571232	0.219508	0.042843	99
Es	1.493057	0.178340	0.042988	99
Es	1.536185	0.326089	0.020343	99
Es	1.533214	0.241047	0.039520	99
Es	2.110651	-0.533880	-1.326312	99
Es	1.981096	0.025655	1.633225	99
Es	-0.434629	0.435829	-0.659550	99
Es	2.591591	2.029115	-0.271543	99
Es	-1.511701	-1.260842	0.155777	99
Es	-0.528415	-1.502672	0.815158	99
Es	1.867277	-0.258678	-0.664165	99
Es	1.957814	-0.500224	-0.963375	99
Es	-2.570823	-0.883289	0.671678	99
Es	2.058387	-0.483468	-0.928087	99
Es	1.804001	0.045192	0.896756	99
Es	1.592213	2.106300	-0.925309	99
Es	1.547539	2.332394	0.229328	99
Es	-2.513796	-2.004440	0.227469	99
Es	-0.478775	0.615863	0.486497	99
Es	-2.531960	-1.049968	-0.510871	99
Es	-0.484314	-0.505296	0.075307	99
Es	-0.490717	-1.678549	-0.338257	99
Es	1.876266	-0.054328	1.266715	99
Es	1.701387	1.183001	-0.140156	99
Es	1.968043	-0.062437	1.239355	99
Es	0.584135	0.211572	0.003091	99
