45
Properties=species:S:1:pos:R:3:Z:I:1 energy=-739.2940932049956 field_type=dipole dipole="0.000000 0.000000 0.000000" charge=0
C	-1.667399	-0.248639	-0.253973	6
C	-0.232689	-0.328489	0.149167	6
C	0.378521	-1.465409	0.525637	6
S	0.686221	1.153971	0.130027	16
O	1.717711	0.816171	-1.063523	8
O	-0.130739	2.258992	-0.319823	8
O	1.507571	1.261861	1.316807	8
H	-2.213929	0.432851	0.405877	1
H	-2.159599	-1.225579	-0.201593	1
H	-1.757779	0.113311	-1.283113	1
H	-0.155719	-2.409778	0.553597	1
H	1.424891	-1.483459	0.818607	1
H	2.602941	1.124192	-0.777693	1
Es	0.685906	1.153564	0.130285	99
Es	1.718077	0.815878	-1.063518	99
Es	-0.130459	2.258571	-0.319644	99
Es	1.507377	1.261779	1.316425	99
Es	-0.232541	-0.328365	0.149162	99
Es	0.378193	-1.463941	0.525324	99
Es	-1.667028	-0.248400	-0.253926	99
Es	0.696788	1.097121	0.119932	99
Es	0.653633	1.181906	0.123802	99
Es	0.684238	1.153700	0.139310	99
Es	0.711226	1.182676	0.135573	99
Es	1.422309	0.922850	-0.671659	99
Es	1.692419	1.252045	1.483117	99
Es	-0.265881	2.421942	-0.410764	99
Es	-0.918343	-0.270810	-0.050068	99
Es	0.130712	-0.992470	0.372586	99
Es	0.198650	0.357238	0.131670	99
Es	2.131234	0.980263	-0.870909	99
Es	1.610783	0.715155	-1.337809	99
Es	1.020066	-1.441088	0.695643	99
Es	0.170103	1.854446	-0.152401	99
Es	1.373360	1.252014	1.227891	99
Es	0.016696	-2.003037	0.530308	99
Es	-2.014461	0.201551	0.191158	99
Es	1.708071	0.809473	-0.993033	99
Es	-1.978591	-0.909182	-0.211881	99
Es	-1.711103	-0.011506	-0.935420	99
Es	1.195777	1.218101	0.880299	99
Es	-0.039952	2.145414	-0.273148	99
Es	1.430001	1.269658	1.185643	99
Es	-0.059059	2.129189	-0.243919	99
Es	0.056967	-0.806872	0.321631	99
