45
Properties=species:S:1:pos:R:3:Z:I:1 energy=-739.2730979463427 field_type=dipole dipole="0.000000 0.000000 0.000000" charge=0
O	-2.020713	0.238225	-0.799034	8
C	-0.574863	0.158615	-0.742294	6
C	0.110997	1.145905	0.234506	6
C	1.211797	0.130725	0.605316	6
S	0.130157	-1.205015	0.204136	16
O	-0.724523	-1.582865	1.311346	8
O	0.759567	-2.175154	-0.666244	8
H	-2.322503	-0.688055	-0.854124	1
H	-0.152363	0.170765	-1.753344	1
H	-0.522043	1.433005	1.083536	1
H	0.481687	2.065245	-0.229034	1
H	2.092017	0.158745	-0.045044	1
H	1.530787	0.149855	1.650276	1
Es	0.130073	-1.205317	0.204251	99
Es	-2.020520	0.237645	-0.799086	99
Es	-0.724271	-1.582751	1.310924	99
Es	0.759325	-2.174857	-0.665936	99
Es	-0.575235	0.158559	-0.741860	99
Es	1.211152	0.130664	0.605262	99
Es	0.111389	1.145294	0.233858	99
Es	0.076722	-1.241871	0.172156	99
Es	0.165922	-1.272596	0.243884	99
Es	0.140881	-1.096600	0.205856	99
Es	0.137495	-1.206537	0.194220	99
Es	-0.412116	-1.449393	0.902373	99
Es	-2.166716	0.501988	-0.776000	99
Es	0.910762	-2.250838	-0.834550	99
Es	0.694394	0.661000	0.444702	99
Es	1.773247	0.136270	0.163219	99
Es	-0.298629	1.310383	0.787087	99
Es	-0.275652	0.155466	-1.407274	99
Es	-2.133666	-0.242011	-0.824694	99
Es	-0.274570	0.691574	-0.272816	99
Es	0.778605	-0.545554	0.469723	99
Es	1.419003	0.132136	1.290690	99
Es	0.523011	-1.836078	-0.342777	99
Es	0.357708	1.751839	-0.070806	99
Es	0.683029	-2.068388	-0.574752	99
Es	-1.995493	0.207952	-0.810900	99
Es	-0.824616	-1.565597	1.527094	99
Es	-0.678810	-1.546484	1.155214	99
Es	-0.622041	-1.593172	1.189361	99
Es	-1.499933	0.169796	-0.783340	99
Es	0.658408	-2.137613	-0.550465	99
Es	-0.322307	-0.539078	-0.346683	99
