37
Properties=species:S:1:pos:R:3:Z:I:1 energy=-715.8189355850316 field_type=dipole dipole="0.000000 0.000000 0.000000" charge=0
O	-1.899877	0.129297	0.523835	8
S	-0.487517	0.039667	0.786315	16
O	0.209842	-0.604192	1.868375	8
C	0.126583	-0.804643	-0.637765	6
C	0.543763	-1.382602	-1.607095	6
C	0.099953	1.714177	0.778015	6
N	0.498123	2.809587	0.750805	7
H	0.909133	-1.901292	-2.462485	1
Es	-0.488348	0.039431	0.787491	99
Es	-1.899431	0.129164	0.524020	99
Es	0.209489	-0.604048	1.868051	99
Es	0.499021	2.811898	0.750656	99
Es	0.099729	1.713303	0.777889	99
Es	0.544985	-1.384279	-1.609926	99
Es	0.126618	-0.804570	-0.637780	99
Es	-0.434444	0.099598	0.735737	99
Es	-0.486207	0.024149	0.775801	99
Es	-0.539556	-0.002355	0.845073	99
Es	-0.487415	0.039766	0.786169	99
Es	0.401460	-0.674223	1.994464	99
Es	-1.744754	0.088792	0.616288	99
Es	0.287382	2.227403	0.763905	99
Es	0.680224	-1.497769	-1.883620	99
Es	-0.131375	1.003199	0.753134	99
Es	-0.108625	-0.398772	-0.047436	99
Es	0.438399	-1.169302	-1.325442	99
Es	-1.369458	0.092568	0.651928	99
Es	-2.096369	0.194217	0.402612	99
Es	0.617599	3.136374	0.741603	99
Es	-1.738954	0.110338	0.551757	99
Es	0.066172	-0.540822	1.770425	99
Es	-0.078093	-0.356401	1.474924	99
Es	0.128064	-0.538754	1.741619	99
Es	0.309095	2.237024	0.735071	99
Es	0.313585	2.295287	0.759805	99
Es	0.257153	-1.100647	-1.003913	99
Es	0.330478	-1.076126	-1.105740	99
