41
Properties=species:S:1:pos:R:3:Z:I:1 energy=-302.9786963483927 field_type=dipole dipole="0.000000 0.000000 0.000000" charge=0
C	-2.378092	-0.248747	-0.012543	6
C	-0.897772	-0.166817	-0.005343	6
C	-0.051642	0.926413	-0.002193	6
C	1.266168	0.432403	0.003667	6
N	2.386958	1.158363	0.007457	7
C	1.213727	-0.935167	0.004317	6
N	-0.110092	-1.295167	-0.001393	7
H	-2.826562	0.749773	-0.003693	1
H	-2.737842	-0.789817	0.868377	1
H	-2.729762	-0.770637	-0.908173	1
H	-0.361232	1.962663	-0.004473	1
H	2.380178	2.172153	0.022197	1
H	3.309298	0.738113	0.026887	1
H	1.989678	-1.686987	0.007727	1
H	-0.453012	-2.246547	-0.002823	1
Es	-0.110109	-1.295097	-0.001392	99
Es	2.386864	1.158321	0.007235	99
Es	-0.897771	-0.167096	-0.005343	99
Es	1.266353	0.432486	0.003665	99
Es	-2.377711	-0.248805	-0.012542	99
Es	1.222073	-0.943321	0.004359	99
Es	-0.052275	0.928136	-0.002192	99
Es	0.535148	-1.126908	0.001168	99
Es	1.901773	0.837140	0.013726	99
Es	-1.624346	-0.213114	-0.008635	99
Es	1.668972	-1.377322	0.006969	99
Es	-0.461339	0.411570	-0.005232	99
Es	-0.323894	-1.863919	-0.002264	99
Es	-0.478066	-0.826796	-0.002917	99
Es	-2.611962	-0.611942	0.570820	99
Es	1.274578	-0.311383	0.004559	99
Es	2.367121	1.768543	0.025082	99
Es	-2.606403	-0.598958	-0.605547	99
Es	-0.251871	1.586930	-0.004077	99
Es	2.930413	0.891316	0.027143	99
Es	-0.138357	-1.124391	-0.001735	99
Es	-2.675912	0.415113	-0.006752	99
Es	0.584959	0.721431	0.001305	99
Es	2.347019	1.126048	-0.025516	99
Es	-0.271083	0.508068	-0.001174	99
Es	1.128855	-0.401800	0.002713	99
