41
Properties=species:S:1:pos:R:3:Z:I:1 energy=-302.9348963288324 field_type=dipole dipole="0.000000 0.000000 0.000000" charge=0
C	-2.224246	-0.419646	-0.142451	6
C	-0.906555	-0.280206	0.046709	6
C	-0.193745	1.021304	0.263909	6
C	1.262525	0.915604	-0.187181	6
N	1.853314	-0.296896	0.381559	7
N	1.261584	-1.497396	0.139309	7
C	-0.029866	-1.484556	0.008049	6
H	-2.883525	0.444204	-0.128481	1
H	-2.686646	-1.388256	-0.305481	1
H	-0.686956	1.834164	-0.282101	1
H	-0.230335	1.269664	1.332279	1
H	1.820525	1.793434	0.155249	1
H	1.329995	0.884434	-1.280791	1
H	2.851435	-0.348036	0.170999	1
H	-0.537506	-2.447816	-0.171571	1
Es	1.261891	-1.497007	0.139416	99
Es	1.853081	-0.297440	0.382318	99
Es	1.262125	0.915079	-0.186714	99
Es	-0.030324	-1.484068	0.008050	99
Es	-0.906567	-0.280441	0.046642	99
Es	-0.193658	1.021043	0.263887	99
Es	-2.228241	-0.425248	-0.143702	99
Es	1.514969	-0.866941	0.203660	99
Es	0.641751	-1.407607	0.079688	99
Es	-0.578742	0.354628	0.145455	99
Es	-1.903714	-0.478685	-0.112981	99
Es	1.603235	0.153220	0.082224	99
Es	-2.572740	-0.015728	-0.140591	99
Es	2.402185	-0.338015	0.189898	99
Es	1.302238	0.892201	-0.933858	99
Es	-0.405957	-2.020361	-0.095690	99
Es	1.642975	1.506517	0.049049	99
Es	-0.401761	-0.972655	0.030059	99
Es	-2.226089	-0.767705	-0.202385	99
Es	-0.528340	1.559091	-0.103308	99
Es	-0.223443	1.179153	0.974103	99
Es	0.639172	-1.472321	0.063402	99
Es	0.523460	0.963932	0.030533	99
Es	1.503241	-1.797956	0.125013	99
Es	-1.549888	-0.386184	-0.021986	99
Es	1.781492	-0.265013	0.749255	99
