41
Properties=species:S:1:pos:R:3:Z:I:1 energy=-302.94407363180477 field_type=dipole dipole="0.000000 0.000000 0.000000" charge=0
C	-1.420784	0.660145	0.349327	6
C	0.089606	0.603365	0.420327	6
C	0.708706	1.690985	-0.390453	6
N	1.432576	1.258855	-1.368963	7
N	1.410486	-0.167985	-1.342593	7
C	0.671726	-0.541925	-0.343543	6
C	0.429836	-1.963655	0.025867	6
H	-1.795484	1.597425	0.774067	1
H	-1.868724	-0.170315	0.904507	1
H	-1.780264	0.598405	-0.684423	1
H	0.463916	0.630865	1.445947	1
H	0.553146	2.751995	-0.152063	1
H	0.996306	-2.628875	-0.631033	1
H	-0.634724	-2.191995	-0.066983	1
H	0.743676	-2.127295	1.060017	1
Es	1.432555	1.258450	-1.368966	99
Es	1.410415	-0.167578	-1.342491	99
Es	0.671737	-0.541814	-0.343591	99
Es	0.708731	1.690920	-0.390465	99
Es	0.089814	0.603452	0.419982	99
Es	-1.420022	0.660080	0.349266	99
Es	0.429847	-1.963248	0.025819	99
Es	1.375061	0.561730	-1.297470	99
Es	1.105399	-0.292734	-0.858382	99
Es	0.588518	2.342359	-0.213167	99
Es	0.797778	-2.402463	-0.396538	99
Es	-1.669741	1.293909	0.633739	99
Es	0.412924	1.234275	0.007895	99
Es	0.347934	-0.011062	0.075015	99
Es	0.321425	0.618077	1.078954	99
Es	1.071921	1.420044	-0.910463	99
Es	0.634529	-2.060419	0.716117	99
Es	-1.714595	0.102121	0.723401	99
Es	-0.281834	-2.103651	-0.035267	99
Es	-0.596847	0.624437	0.375039	99
Es	-1.651342	0.613196	-0.336862	99
Es	0.571290	-1.236646	-0.185002	99
Es	1.119695	1.417995	-0.935298	99
Es	1.596444	-0.390573	-1.600210	99
Es	1.638245	1.449429	-1.636803	99
Es	1.073230	-0.278515	-0.960582	99
