45
Properties=species:S:1:pos:R:3:Z:I:1 energy=-288.0859429563069 field_type=dipole dipole="0.000000 0.000000 0.000000" charge=0
C	-2.872622	0.370581	0.455684	6
C	-1.387311	0.209301	0.407464	6
C	-0.702372	-0.038809	-0.718896	6
C	0.776398	-0.197639	-0.754276	6
C	1.655518	0.871971	-0.072406	6
N	2.573488	-0.212839	0.362104	7
C	1.442798	-1.169659	0.242164	6
H	-3.126902	1.361791	0.843164	1
H	-3.307082	-0.381369	1.121374	1
H	-3.333852	0.260741	-0.530746	1
H	-0.872632	0.305931	1.361224	1
H	-1.224762	-0.133979	-1.667706	1
H	1.104889	-0.390899	-1.786806	1
H	1.206198	1.411560	0.769194	1
H	2.109358	1.605491	-0.746066	1
H	3.320308	-0.394109	-0.309376	1
H	1.718478	-2.146209	-0.167946	1
H	0.920098	-1.331849	1.191844	1
Es	2.573479	-0.212868	0.361908	99
Es	1.655575	0.871341	-0.072468	99
Es	1.442977	-1.169100	0.241917	99
Es	0.776088	-0.197684	-0.754773	99
Es	-1.387314	0.209327	0.407631	99
Es	-2.872230	0.370541	0.455687	99
Es	-0.703083	-0.039067	-0.721005	99
Es	2.225864	0.252871	0.149732	99
Es	-0.858592	-0.114515	-1.302918	99
Es	0.988748	-0.323722	-1.428935	99
Es	1.967220	1.377979	-0.528730	99
Es	-1.026447	0.083171	-0.158301	99
Es	-3.172452	0.295594	-0.208408	99
Es	-1.018731	0.272532	1.052832	99
Es	1.631897	-1.840504	-0.032756	99
Es	1.344195	1.214658	0.496844	99
Es	-0.185999	-0.098585	-0.759190	99
Es	-3.035332	1.040777	0.715389	99
Es	1.086493	-1.257113	0.877612	99
Es	-3.157557	-0.140357	0.903939	99
Es	2.132798	-0.640705	0.287459	99
Es	2.954911	-0.319950	-0.075142	99
Es	-2.123089	0.286042	0.412354	99
Es	1.145477	0.399489	-0.466639	99
Es	1.026210	-0.743424	-0.290593	99
Es	2.712723	-0.170237	0.732335	99
Es	-1.037581	0.081619	-0.173305	99
