42
Properties=species:S:1:pos:R:3:Z:I:1 energy=-286.9159597892254 field_type=dipole dipole="0.000000 0.000000 0.000000" charge=0
C	-3.135246	-0.422573	-0.202481	6
C	-1.691246	-0.422573	-0.202481	6
C	-0.501086	-0.422573	-0.202481	6
C	0.904913	-0.422573	-0.202481	6
C	1.551824	-1.595283	-0.308011	6
C	1.648364	0.890647	-0.136961	6
N	1.604013	1.477367	1.199959	7
H	-3.529206	0.598307	-0.190461	1
H	-3.529246	-0.943383	0.675619	1
H	-3.529276	-0.922603	-1.092571	1
H	1.016354	-2.538023	-0.368451	1
H	2.635893	-1.641673	-0.317481	1
H	1.216114	1.593557	-0.859661	1
H	2.698304	0.757367	-0.422351	1
H	0.627854	1.604807	1.465059	1
H	2.011673	2.409197	1.165229	1
Es	1.604094	1.477122	1.200112	99
Es	1.646511	0.889514	-0.136548	99
Es	0.904635	-0.422537	-0.202494	99
Es	-3.135242	-0.422585	-0.202470	99
Es	1.549245	-1.603090	-0.308585	99
Es	-1.692206	-0.422718	-0.202480	99
Es	-0.500463	-0.422624	-0.202492	99
Es	1.032424	1.564417	1.298986	99
Es	-1.787711	-0.478086	-0.202160	99
Es	0.065241	-0.409225	-0.195959	99
Es	-1.484213	-0.467459	-0.203997	99
Es	1.231648	-1.823019	-0.323474	99
Es	1.172651	-1.208797	-0.268521	99
Es	1.804848	2.028170	1.129108	99
Es	2.351193	0.796140	-0.329716	99
Es	-3.329931	-0.750391	-0.780865	99
Es	1.590055	1.267424	0.644129	99
Es	-3.309531	0.233776	-0.196607	99
Es	-3.308348	-0.764712	0.365412	99
Es	2.066458	-1.656583	-0.314142	99
Es	1.336445	1.347960	-0.633774	99
Es	1.213680	0.179728	-0.167549	99
Es	-1.051004	-0.424530	-0.201429	99
Es	1.795606	1.236308	1.452340	99
Es	-1.078123	-0.398082	-0.199005	99
Es	1.186437	-0.992142	-0.263680	99
