30
Properties=species:S:1:pos:R:3:Z:I:1 energy=-174.5271112072592 field_type=dipole dipole="0.000000 0.000000 0.000000" charge=0
C	-1.300289	-0.239857	0.420012	6
N	0.161661	-0.232907	0.416952	7
C	0.673681	-0.956407	-0.745708	6
C	0.666212	1.139203	0.427842	6
H	-1.685889	0.265693	1.312772	1
H	-1.680459	-1.267307	0.453232	1
H	-1.719949	0.254393	-0.464148	1
H	0.330842	-1.997367	-0.733098	1
H	1.769141	-0.987287	-0.728378	1
H	0.356761	-0.500697	-1.691238	1
H	0.315932	1.671343	1.319712	1
H	0.350892	1.704843	-0.456908	1
H	1.761461	1.146353	0.468952	1
Es	0.161517	-0.232699	0.416580	99
Es	0.673521	-0.956179	-0.745649	99
Es	0.666053	1.139032	0.427678	99
Es	-1.300074	-0.239765	0.419850	99
Es	0.387183	0.387568	0.417418	99
Es	-1.543398	-0.933115	0.436697	99
Es	1.400694	1.131492	0.449743	99
Es	0.433086	-1.650557	-0.729579	99
Es	0.449729	-0.634461	-1.388519	99
Es	-0.498522	-0.233559	0.413895	99
Es	0.390542	-0.556281	-0.111155	99
Es	-1.576665	0.101941	-0.191374	99
Es	0.443398	1.517373	-0.184006	99
Es	-1.547105	0.106231	1.019428	99
Es	0.420668	1.487352	1.026585	99
Es	1.408202	-0.965749	-0.726317	99
Es	0.238275	-0.343275	0.614519	99
