26
Properties=species:S:1:pos:R:3:Z:I:1 energy=-191.95725467597197 field_type=dipole dipole="0.000000 0.000000 0.000000" charge=0
C	-1.161662	0.280251	0.325012	6
C	0.314898	0.142251	0.430662	6
C	1.117378	-0.486139	-0.675728	6
O	1.057118	0.938381	-0.498488	8
H	-1.516362	1.066781	0.998552	1
H	-1.648122	-0.657769	0.610312	1
H	-1.480122	0.534441	-0.691608	1
H	0.673058	0.069631	1.447752	1
H	0.597768	-0.907769	-1.526658	1
H	2.046048	-0.980059	-0.419808	1
Es	1.056976	0.937875	-0.498341	99
Es	0.315217	0.142436	0.430248	99
Es	1.117273	-0.485744	-0.675594	99
Es	-1.161613	0.280230	0.325036	99
Es	1.127540	0.391922	-0.635858	99
Es	-1.471083	-0.363817	0.525988	99
Es	1.073443	0.897090	-0.464701	99
Es	0.565870	0.109098	1.101528	99
Es	1.754809	-0.810582	-0.502036	99
Es	-0.442823	0.225400	0.372989	99
Es	0.757998	0.710600	-0.095912	99
Es	-1.391135	0.812875	0.784819	99
Es	0.760473	-0.760664	-1.256620	99
Es	-1.359615	0.447315	-0.367302	99
Es	1.104518	1.202194	-0.605206	99
Es	0.660750	-0.393581	-0.068445	99
