FCHK generated by IOData                                                
NA        NA                                                           NA
Number of atoms                            I                5
Number of electrons                        I               10
Charge                                     I                0
Multiplicity                               I                1
Number of alpha electrons                  I                5
Number of beta electrons                   I                5
Atomic numbers                             I   N=           5
           6           1           1           1           1
Nuclear charges                            R   N=           5
  6.00000000E+00  1.00000000E+00  1.00000000E+00  1.00000000E+00  1.00000000E+00
Current cartesian coordinates              R   N=          15
  1.88643800E+00 -4.64872627E-03 -8.23920591E-03  3.94992444E+00 -4.59203449E-03
  7.82346616E-03  1.19768952E+00  1.94048417E+00  7.82346616E-03  1.18493387E+00
 -9.97265168E-01  1.65938741E+00  1.21199475E+00 -9.58979317E-01 -1.71095803E+00
Number of basis functions                  I               50
Number of independent functions            I               50
Number of contracted shells                I               30
Number of primitive shells                 I               47
Pure/Cartesian d shells                    I                0
Pure/Cartesian f shells                    I                0
Highest angular momentum                   I                2
Largest degree of contraction              I                6
Shell types                                I   N=          30
           0           0           1           0           1           0
           1          -2           0           1           0           0
           0           1           0           0           0           0
           1           0           0           0           0           1
           0           0           0           0           1           0
Number of primitives per shell             I   N=          30
           6           3           3           1           1           1
           1           1           1           1           3           1
           1           1           1           3           1           1
           1           1           3           1           1           1
           1           3           1           1           1           1
Shell to atom map                          I   N=          30
           1           1           1           1           1           1
           1           1           1           1           2           2
           2           2           2           3           3           3
           3           3           4           4           4           4
           4           5           5           5           5           5
Primitive exponents                        R   N=          47
  4.56324000E+03  6.82024000E+02  1.54973000E+02  4.44553000E+01  1.30290000E+01
  1.82773000E+00  2.09642000E+01  4.80331000E+00  1.45933000E+00  2.09642000E+01
  4.80331000E+00  1.45933000E+00  4.83456000E-01  4.83456000E-01  1.45585000E-01
  1.45585000E-01  6.26000000E-01  4.38000000E-02  4.38000000E-02  3.38650000E+01
  5.09479000E+00  1.15879000E+00  3.25840000E-01  1.02741000E-01  7.50000000E-01
  3.60000000E-02  3.38650000E+01  5.09479000E+00  1.15879000E+00  3.25840000E-01
  1.02741000E-01  7.50000000E-01  3.60000000E-02  3.38650000E+01  5.09479000E+00
  1.15879000E+00  3.25840000E-01  1.02741000E-01  7.50000000E-01  3.60000000E-02
  3.38650000E+01  5.09479000E+00  1.15879000E+00  3.25840000E-01  1.02741000E-01
  7.50000000E-01  3.60000000E-02
Contraction coefficients                   R   N=          47
  1.96665000E-03  1.52306000E-02  7.61269000E-02  2.60801000E-01  6.16462000E-01
  2.21006000E-01  1.14660000E-01  9.19999000E-01 -3.03068000E-03  4.02487000E-02
  2.37594000E-01  8.15854000E-01  1.00000000E+00  1.00000000E+00  1.00000000E+00
  1.00000000E+00  1.00000000E+00  1.00000000E+00  1.00000000E+00  2.54938000E-02
  1.90373000E-01  8.52161000E-01  1.00000000E+00  1.00000000E+00  1.00000000E+00
  1.00000000E+00  2.54938000E-02  1.90373000E-01  8.52161000E-01  1.00000000E+00
  1.00000000E+00  1.00000000E+00  1.00000000E+00  2.54938000E-02  1.90373000E-01
  8.52161000E-01  1.00000000E+00  1.00000000E+00  1.00000000E+00  1.00000000E+00
  2.54938000E-02  1.90373000E-01  8.52161000E-01  1.00000000E+00  1.00000000E+00
  1.00000000E+00  1.00000000E+00
Coordinates of each shell                  R   N=          90
  1.88643800E+00 -4.64872627E-03 -8.23920591E-03  1.88643800E+00 -4.64872627E-03
 -8.23920591E-03  1.88643800E+00 -4.64872627E-03 -8.23920591E-03  1.88643800E+00
 -4.64872627E-03 -8.23920591E-03  1.88643800E+00 -4.64872627E-03 -8.23920591E-03
  1.88643800E+00 -4.64872627E-03 -8.23920591E-03  1.88643800E+00 -4.64872627E-03
 -8.23920591E-03  1.88643800E+00 -4.64872627E-03 -8.23920591E-03  1.88643800E+00
 -4.64872627E-03 -8.23920591E-03  1.88643800E+00 -4.64872627E-03 -8.23920591E-03
  3.94992444E+00 -4.59203449E-03  7.82346616E-03  3.94992444E+00 -4.59203449E-03
  7.82346616E-03  3.94992444E+00 -4.59203449E-03  7.82346616E-03  3.94992444E+00
 -4.59203449E-03  7.82346616E-03  3.94992444E+00 -4.59203449E-03  7.82346616E-03
  1.19768952E+00  1.94048417E+00  7.82346616E-03  1.19768952E+00  1.94048417E+00
  7.82346616E-03  1.19768952E+00  1.94048417E+00  7.82346616E-03  1.19768952E+00
  1.94048417E+00  7.82346616E-03  1.19768952E+00  1.94048417E+00  7.82346616E-03
  1.18493387E+00 -9.97265168E-01  1.65938741E+00  1.18493387E+00 -9.97265168E-01
  1.65938741E+00  1.18493387E+00 -9.97265168E-01  1.65938741E+00  1.18493387E+00
 -9.97265168E-01  1.65938741E+00  1.18493387E+00 -9.97265168E-01  1.65938741E+00
  1.21199475E+00 -9.58979317E-01 -1.71095803E+00  1.21199475E+00 -9.58979317E-01
 -1.71095803E+00  1.21199475E+00 -9.58979317E-01 -1.71095803E+00  1.21199475E+00
 -9.58979317E-01 -1.71095803E+00  1.21199475E+00 -9.58979317E-01 -1.71095803E+00
Total Energy                               R       0.00000000E+00
Alpha Orbital Energies                     R   N=          50
 -1.12091764E+01 -9.41832127E-01 -5.44210693E-01 -5.44203190E-01 -5.43877223E-01
  4.19010160E-02  7.84383239E-02  7.84387816E-02  7.84592833E-02  1.52662257E-01
  1.52690218E-01  1.52690858E-01  1.89754061E-01  3.08415628E-01  3.08498558E-01
  3.08500563E-01  3.79845574E-01  5.50639240E-01  5.50730332E-01  5.50732321E-01
  8.63308837E-01  8.72713324E-01  8.72959944E-01  8.72965883E-01  1.03330477E+00
  1.20185000E+00  1.20185037E+00  1.72168295E+00  1.72168442E+00  1.72170836E+00
  1.80536302E+00  1.80548754E+00  1.80549114E+00  2.20183995E+00  2.20184466E+00
  2.20198290E+00  2.61758594E+00  2.61758661E+00  2.67950792E+00  2.80031571E+00
  2.80032158E+00  2.80055916E+00  2.92797899E+00  2.92891862E+00  2.92894090E+00
  3.27306130E+00  4.19635153E+00  4.19769387E+00  4.19772563E+00  2.51916890E+01
Alpha MO coefficients                      R   N=        2500
  3.52661681E-02  7.12070674E-02 -1.32255984E-01  5.56136840E-02  7.86976400E-02
 -2.10498852E-01 -2.07626667E-01  8.73032438E-02  1.23540739E-01 -1.41671223E-01
 -1.40403067E-01  5.90121182E-02  8.35062354E-02 -1.35674902E-02  1.34544410E-02
  1.90377923E-02  2.83569891E-03 -8.00924017E-03 -3.37113854E-02  7.27864388E-03
 -3.06229092E-03 -4.33338446E-03  8.45362798E-03  2.13977877E-02  3.66868455E-02
 -7.72368019E-03  4.32529425E-03  4.59907403E-03  1.31752047E-02  8.45834396E-03
  2.14052663E-02  3.66896634E-02 -7.72376192E-03  2.89146897E-03  5.61186498E-03
  1.31761675E-02 -1.90677677E-01 -2.95070318E-01 -8.83428600E-02  2.07865507E-02
 -8.74719143E-03 -1.23768591E-02 -2.46519086E-02  8.45281933E-03  2.14028876E-02
  3.67110089E-02 -8.61507259E-03  2.89339212E-03  4.09437784E-03  1.31677824E-02
 -3.52075393E-02 -7.11172984E-02 -1.34875042E-01 -5.34250254E-02 -7.55854682E-02
  2.10269948E-01 -2.11817108E-01 -8.39023276E-02 -1.18704540E-01  1.41802464E-01
 -1.43326356E-01 -5.67723299E-02 -8.03206552E-02  1.46929150E-02  1.31862729E-02
  1.86584223E-02 -2.61799956E-03  7.38978208E-03  3.39011956E-02  7.40170465E-03
  2.93190426E-03  4.14810331E-03 -8.43904853E-03 -2.14074663E-02 -3.67560518E-02
 -7.89824757E-03 -4.20613091E-03 -4.42153591E-03 -1.31982568E-02 -8.43049646E-03
 -2.13937810E-02 -3.67503968E-02 -7.89833766E-03 -2.76397599E-03 -5.44181176E-03
 -1.31967067E-02 -8.44083674E-03 -2.14103377E-02 -3.67574375E-02 -8.76302917E-03
 -2.75773845E-03 -3.90154436E-03 -1.31983530E-02  1.90582229E-01  2.95121654E-01
  8.85115315E-02  2.12012488E-02  8.39772318E-03  1.18833389E-02  2.46292134E-02
  5.68282823E-01  4.75427688E-01  1.02799470E-06 -1.20270741E-05  4.64999003E-06
 -1.95551220E-02  7.08198808E-06 -1.66386962E-05  1.05586240E-05 -1.76711102E-02
  4.12777837E-06 -1.15182386E-05  6.74685248E-06 -2.46280133E-07 -7.38916406E-07
 -9.95268104E-07 -2.01042818E-06 -8.25098851E-07 -4.76363444E-03  4.31508412E-07
  8.56935474E-07  2.66501191E-08 -4.34920923E-03 -6.59387230E-03  1.16087171E-03
  8.61134684E-06  1.08997669E-03  3.38115817E-07  4.90228246E-04 -4.33059370E-03
 -6.56427016E-03  1.17263962E-03  8.58641371E-06 -3.63654554E-04  1.02541067E-03
  4.93769447E-04 -4.33574858E-03 -6.57252293E-03  1.16913219E-03  8.79637335E-04
 -3.70655355E-04 -5.23203842E-04  4.92763959E-04 -4.33498367E-03 -6.57326599E-03
  1.16091840E-03 -8.96038416E-04 -3.55644370E-04 -5.01967006E-04  4.92438796E-04
 -3.52282096E-02 -7.11751959E-02  1.29540173E-03  1.63636786E-01  1.99580247E-05
  2.10497409E-01  2.03822668E-03  2.56884797E-01  3.40649719E-05  1.41663746E-01
  1.40797984E-03  1.73684252E-01  4.08207637E-05 -1.41363936E-02  3.85651563E-04
  2.23432834E-06  2.44900252E-02  3.68592445E-06  3.37064571E-02 -6.93879088E-05
 -9.00783059E-03  1.00241604E-07  1.90679635E-01  2.95069306E-01  8.83403253E-02
 -1.96722599E-04 -2.57243896E-02  1.54497287E-06  2.46526335E-02 -8.45603271E-03
 -2.14007399E-02 -3.66856896E-02  6.89012582E-05  9.92397939E-03 -1.01093401E-03
 -1.31748977E-02 -8.45949907E-03 -2.14063988E-02 -3.66884634E-02 -7.90861246E-04
  9.93014940E-03  5.18810217E-04 -1.31752367E-02 -8.45499117E-03 -2.14055921E-02
 -3.67100441E-02  9.68240381E-04  9.90768693E-03  5.01492259E-04 -1.31673554E-02
 -3.52809472E-02 -7.12185719E-02  1.30423131E-03 -5.46049891E-02  1.54259282E-01
  2.10495693E-01  2.05207755E-03 -8.57186643E-02  2.42163580E-01  1.41660366E-01
  1.41726820E-03 -5.79389833E-02  1.63735665E-01 -1.41366463E-02 -1.27510587E-04
  3.63015343E-04 -1.90347754E-02 -1.54094141E-02  3.37042554E-02 -6.99061386E-05
  3.00707046E-03 -8.49145711E-03 -8.45705232E-03 -2.14019346E-02 -3.66853553E-02
  6.94194866E-05 -4.26545760E-03  9.01724851E-03 -1.31745988E-02  1.90681148E-01
  2.95070025E-01  8.83396612E-02 -1.96208729E-04  8.58845145E-03 -2.42484500E-02
  2.46531454E-02 -8.45430036E-03 -2.13976951E-02 -3.66840818E-02 -7.91020954E-04
 -2.82545573E-03  9.53419876E-03 -1.31738236E-02 -8.46309702E-03 -2.14179644E-02
 -3.67138862E-02  9.67548941E-04 -2.83504887E-03  9.50616778E-03 -1.31684777E-02
  1.90492992E-02  3.27268067E-02  9.37371261E-06  1.36227013E-05  2.29481642E-05
 -1.07144604E-01  2.55328056E-05  3.71171915E-05  6.22754423E-05 -1.34685163E-01
  3.13347919E-05  4.55231877E-05  7.71322209E-05 -6.68446801E-06 -5.72543569E-06
 -8.08204285E-06  1.11204146E-06 -3.41623027E-06 -6.13234670E+00  2.24016980E-04
  3.25334607E-04  5.54488775E-04  1.10226845E-03 -4.49252779E-02  3.99477965E-01
  9.28465911E-03  2.01826975E-06  7.52354180E-05  1.56276935E+00  1.10217273E-03
 -4.49260210E-02  3.99478808E-01 -3.09745230E-03  8.75287766E-03  7.52295029E-05
  1.56278207E+00  1.10249711E-03 -4.49234466E-02  3.99474970E-01 -3.15467575E-03
 -4.46377247E-03  7.50519186E-03  1.56273487E+00  1.11286138E-03 -4.48436729E-02
  3.99391419E-01 -3.02809986E-03 -4.28467930E-03 -7.64490486E-03  1.56139008E+00
  5.06771080E-09  4.18132366E-08  2.40974345E-02 -2.17621039E-02  2.50080598E-03
 -6.74694762E-07  7.10822585E-02 -6.41935325E-02  7.37687000E-03  4.27085577E-06
 -9.11544634E-02  8.23204979E-02 -9.46000198E-03  6.49533524E-04 -2.29957994E-04
 -4.75190423E-04  5.93932029E-03  2.51704320E-03 -2.46457256E-05  9.36343479E-01
 -8.45600552E-01  9.71731507E-02  1.70679863E-02 -2.15319679E-02  4.19633557E-01
 -3.66095676E-03 -2.30579519E-03  2.16927373E-04 -3.47731847E+00 -2.01974967E-02
  2.54797113E-02 -4.96576063E-01  9.86617824E-05  4.62577988E-03  3.21838992E-04
  4.11490713E+00  3.04122018E-03 -3.83672420E-03  7.47713842E-02  2.92960902E-03
 -1.77300037E-03 -6.29879892E-04 -6.19597984E-01  8.82213668E-05 -1.11412935E-04
  2.16876518E-03  2.55746558E-03 -2.28523052E-03  2.90884728E-04 -1.79712071E-02
 -2.44773457E-09  6.05460089E-08 -1.91668296E-02 -1.91468623E-02  1.80722286E-02
 -1.27222370E-06 -5.65367613E-02 -5.64779000E-02  5.33078702E-02  8.47023115E-06
  7.24972450E-02  7.24218301E-02 -6.83566426E-02  4.48168602E-03 -2.17800701E-03
 -3.06046359E-03 -1.76635393E-03  2.23470583E-03 -5.09579354E-05 -7.44723150E-01
 -7.43947842E-01  7.02191156E-01 -1.34661173E-02  1.69891475E-02 -3.31076625E-01
  2.87203096E-03 -2.02865548E-03  1.95268891E-03  2.74342317E+00 -8.14669019E-03
  1.02779185E-02 -2.00293847E-01 -3.02087137E-03  7.67179383E-04  1.93775220E-03
  1.65971073E+00  2.14663356E-02 -2.70832131E-02  5.27768822E-01  6.26660101E-04
  1.73152331E-03 -4.40151283E-03 -4.37327764E+00  1.46353155E-04 -1.84978853E-04
  3.59858936E-03 -2.00828933E-03 -1.99894635E-03  1.95407784E-03 -2.98170135E-02
 -6.15105294E-07 -3.36222431E-06  1.06160413E-02  1.48580974E-02  2.70007550E-02
  4.80014245E-05  3.12845086E-02  4.37853907E-02  7.95684763E-02 -2.94958384E-04
 -4.00104467E-02 -5.59979827E-02 -1.01761422E-01 -3.34724165E-03 -3.04623378E-03
 -4.31082754E-03  6.13236449E-04 -1.67534692E-03  1.65984627E-03  4.11661440E-01
  5.76155975E-01  1.04701276E+00  7.66977330E-03 -9.70838320E-03  1.88552487E-01
 -1.66803717E-03  1.57125042E-03  2.83375008E-03 -1.56066111E+00  7.56083487E-03
 -9.57038934E-03  1.85874390E-01  2.04097980E-03 -1.02191579E-03  2.83412247E-03
 -1.53849235E+00  7.83799612E-03 -9.92144162E-03  1.92687000E-01  2.09226651E-03
  2.94323981E-03  5.50371433E-04 -1.59488211E+00 -2.30634678E-02  2.92202151E-02
 -5.66917885E-01 -1.62865671E-03 -2.32178599E-03 -4.09071600E-03  4.69270335E+00
 -1.40425150E-05 -2.88869635E-05  3.59889833E-03  5.03369532E-03  9.14920709E-03
  1.39497615E-04  9.78468773E-03  1.36854962E-02  2.48745365E-02  1.10470854E-04
  4.11760603E-02  5.75924379E-02  1.04679818E-01 -2.32701464E-02 -2.11772468E-02
 -2.99687649E-02  4.27043275E-03 -1.16444266E-02 -7.49866906E-03 -1.21196637E+00
 -1.69515748E+00 -3.08111709E+00  1.70403187E-02 -4.09461610E-02  3.97978169E-01
  5.64694818E-03 -5.94748840E-03 -1.07335965E-02  1.70707883E+00  1.67840756E-02
 -4.03311804E-02  3.91996284E-01 -7.50693403E-03  3.24359789E-03 -1.07347332E-02
  1.68142259E+00  1.74062589E-02 -4.18236946E-02  4.06517940E-01 -7.68991378E-03
 -1.08117900E-02 -2.63901737E-03  1.74368661E+00 -5.12287855E-02  1.22842832E-01
 -1.19546702E+00  5.45644069E-03  7.79015132E-03  1.37005476E-02 -5.12595513E+00
  4.61396260E-07  9.40131932E-07 -6.45210360E-03 -6.58024827E-03  6.15820967E-03
 -4.42801710E-06 -1.76569898E-02 -1.80077604E-02  1.68526205E-02 -2.94629567E-06
 -7.34769636E-02 -7.49359467E-02  7.01302688E-02  3.12146468E-02 -1.51649531E-02
 -2.13170270E-02 -1.19271352E-02  1.56899798E-02  2.36892162E-04  2.16762884E+00
  2.21067464E+00 -2.06890200E+00 -2.95777630E-02  7.12150076E-02 -6.91505703E-01
 -9.62207662E-03  7.74850995E-03 -7.38674796E-03 -2.96719563E+00 -1.84797870E-02
  4.44951635E-02 -4.32047790E-01  1.11894111E-02 -2.39300836E-03 -7.33627637E-03
 -1.85388794E+00  4.77323817E-02 -1.14920326E-01  1.11592195E+00 -1.84845168E-03
 -5.61783430E-03  1.52062151E-02  4.78830728E+00  3.25158496E-04 -7.80862145E-04
  7.59308806E-03  7.53851183E-03  7.66379431E-03 -7.41010301E-03  3.25812675E-02
  2.12230239E-07  4.35102531E-07  8.25782704E-03 -7.35165164E-03  7.96482660E-04
 -2.08341617E-06  2.26019667E-02 -2.01217482E-02  2.18007597E-03 -1.54185657E-06
  9.40306872E-02 -8.37121274E-02  9.06913177E-03  4.25276529E-03 -1.46012469E-03
 -3.11957426E-03  4.14182275E-02  1.73748613E-02  1.11667380E-04 -2.77411852E+00
  2.46969918E+00 -2.67564227E-01  3.81609747E-02 -9.18845900E-02  8.92191717E-01
  1.24946634E-02  8.65796654E-03 -7.64377008E-04  3.82836765E+00 -4.47016916E-02
  1.07635597E-01 -1.04512045E+00 -1.03702656E-03 -1.58777319E-02 -1.14113297E-03
 -4.48459229E+00  6.33891876E-03 -1.52622438E-02  1.48199301E-01 -1.09787846E-02
  6.88180669E-03  2.04479768E-03  6.35915931E-01  2.01779474E-04 -4.84766603E-04
  4.71306630E-03 -9.76493184E-03  8.60501637E-03 -1.03488537E-03  2.02162286E-02
  3.74863149E-02  6.54083018E-02  2.79517875E-05  4.06261579E-05  6.83198496E-05
 -1.50984378E-01  1.52887111E-05  2.21962381E-05  3.79310802E-05 -5.29784316E-01
  1.44834938E-04  2.10594657E-04  3.51728463E-04  2.20119183E-05  1.89655775E-05
  2.67462954E-05 -3.66966078E-06  1.12593524E-05  1.45857617E+01 -1.06574653E-03
 -1.54863574E-03 -2.61535473E-03 -1.68165836E-02  1.66206025E-01 -1.39437434E+00
  3.06248755E-03  2.77130513E-07  2.41769549E-05 -2.64413994E+00 -1.68167255E-02
  1.66206224E-01 -1.39437790E+00 -1.02187749E-03  2.88650967E-03  2.41790932E-05
 -2.64413053E+00 -1.68163044E-02  1.66205700E-01 -1.39436481E+00 -1.04126567E-03
 -1.47336388E-03  2.47597479E-03 -2.64415732E+00 -1.68004123E-02  1.66183600E-01
 -1.39398700E+00 -1.01588667E-03 -1.43746962E-03 -2.56474601E-03 -2.64521085E+00
  1.64987413E-05  3.16038720E-05  4.95860606E-02  6.95033313E-02  1.26581142E-01
 -1.17961657E-04  3.29274954E-02  4.61535140E-02  8.40557611E-02  4.34668115E-05
  4.98826036E-01  6.99190220E-01  1.27338365E+00  1.47159955E-02  1.34275761E-02
  1.90016102E-02 -2.68488936E-03  7.36790884E-03 -1.07776396E-02 -3.62553417E-01
 -5.08179486E-01 -9.25506884E-01 -1.22583185E-02  4.27704584E-03 -9.68290220E-01
 -1.00923315E-02  2.42343928E-03  4.32221148E-03  1.14245428E+00 -1.21070911E-02
  4.22450574E-03 -9.56380072E-01  5.62668587E-03 -8.58303638E-03  4.32351207E-03
  1.12844157E+00 -1.26065944E-02  4.39828086E-03 -9.95737055E-01  5.86143287E-03
  8.27079525E-03 -5.40965119E-03  1.17473342E+00  3.71826025E-02 -1.29145196E-02
  2.92635580E+00 -9.89982185E-03 -1.40310708E-02 -2.49449757E-02 -3.43893399E+00
 -6.63551615E-07 -1.22442520E-06 -9.03597785E-02 -8.93762873E-02  8.44717191E-02
  3.93521828E-06 -5.97958733E-02 -5.91450195E-02  5.58993329E-02  6.52523009E-06
 -9.09979416E-01 -9.00074980E-01  8.50684174E-01 -1.97519281E-02  9.57491439E-03
  1.34531663E-02  7.90064545E-03 -9.81554500E-03  3.47299320E-04  6.59865151E-01
  6.52683614E-01 -6.16865321E-01  2.17275939E-02 -7.88279173E-03  1.72122956E+00
  1.78464565E-02 -3.10917160E-03  3.10352015E-03 -2.02182562E+00  1.29414464E-02
 -4.69530282E-03  1.02523908E+00 -7.31770353E-03  8.67627154E-03  3.03728777E-03
 -1.20433411E+00 -3.43923534E-02  1.24766617E-02 -2.72428921E+00  8.14878591E-03
  1.28693557E-02 -2.39085028E-02  3.19976438E+00 -2.83804159E-04  1.02499608E-04
 -2.23840336E-02 -3.04257709E-03 -2.97165909E-03  3.15143563E-03  2.61830458E-02
 -2.70409472E-07 -5.09037393E-07  1.12547879E-01 -1.02344180E-01  1.21065070E-02
  1.77825199E-06  7.44727572E-02 -6.77209680E-02  8.01083069E-03  8.92752937E-07
  1.13345595E+00 -1.03069585E+00  1.21923139E-01 -2.94272593E-03  1.06277202E-03
  2.15141213E-03 -2.61393385E-02 -1.11328407E-02  1.59661699E-04 -8.21873376E-01
  7.47361530E-01 -8.84074354E-02 -2.72825719E-02  9.90739595E-03 -2.16141928E+00
 -2.24419682E-02 -3.56243639E-03  2.15253617E-04  2.53860810E+00  3.24420550E-02
 -1.17814702E-02  2.57026061E+00 -6.54546759E-03  2.59863731E-02  6.66266683E-04
 -3.01890831E+00 -5.02724510E-03  1.82541358E-03 -3.98242916E-01  5.56672793E-03
 -1.22510353E-03 -3.50332417E-03  4.67699127E-01 -1.35424600E-04  4.89874005E-05
 -1.06890652E-02  3.94246276E-03 -3.48649070E-03  5.26564265E-04  1.25025680E-02
  5.04489490E-02  8.06525668E-02  1.80668632E-06  2.59654134E-06  5.18693095E-06
 -1.92277230E-02  2.83777319E-05  4.12427641E-05  6.95992282E-05 -4.02209433E+00
 -1.57592719E-04 -2.29542092E-04 -3.72919227E-04 -4.41448228E-06 -3.79360767E-06
 -5.27827267E-06  7.49119119E-07 -2.30327019E-06 -1.47405399E+01  8.51375804E-04
  1.23656262E-03  2.10408084E-03  4.14157248E-02 -2.88703222E-02  3.46678754E+00
 -3.07162715E-03  8.81896799E-07 -2.23037698E-05  2.00469332E+00  4.14155112E-02
 -2.88711808E-02  3.46682742E+00  1.02602573E-03 -2.89482032E-03 -2.22147170E-05
  2.00468192E+00  4.14162617E-02 -2.88674438E-02  3.46667902E+00  1.04541564E-03
  1.47934852E-03 -2.48189323E-03  2.00471013E+00  4.14389930E-02 -2.87811290E-02
  3.46247087E+00  1.01580170E-03  1.43730238E-03  2.56426996E-03  2.00601965E+00
 -1.10624149E-05  2.38454609E-07  2.90463867E-03  4.06096286E-03  7.37298171E-03
 -9.67811136E-05 -1.78848107E-02 -2.50049393E-02 -4.53987444E-02 -3.16652607E-03
 -4.87347108E-01 -6.81379115E-01 -1.23713475E+00  1.71621565E-02  1.56000232E-02
  2.20763442E-02 -3.15322639E-03  8.58769781E-03  2.14451245E-03  5.90564324E-01
  8.25691808E-01  1.49915546E+00  2.25772406E-02  5.53114221E-01 -5.32595033E-01
 -2.64229706E-02 -6.33227528E-03 -1.16665528E-02 -5.14248825E-01  2.22266581E-02
  5.44524738E-01 -5.24312024E-01  2.66568094E-03 -2.66504454E-02 -1.16643583E-02
 -5.06260583E-01  2.30015702E-02  5.63510153E-01 -5.42633136E-01  3.05398794E-03
  4.39768207E-03 -2.95207297E-02 -5.23894930E-01 -6.77405638E-02 -1.65966691E+00
  1.60210064E+00 -2.59188315E-02 -3.65988970E-02 -6.54982335E-02  1.54213146E+00
  3.11738767E-07 -2.04784697E-08 -5.27038799E-03 -5.35900218E-03  5.02748316E-03
  2.62563366E-06  3.23040962E-02  3.28470864E-02 -3.08155554E-02  9.70095771E-05
  8.72918902E-01  8.87583347E-01 -8.32717387E-01 -2.31675822E-02  1.12701862E-02
  1.58429045E-02  8.89580371E-03 -1.16384744E-02 -3.76424890E-05 -1.05743692E+00
 -1.07520084E+00  1.00873892E+00 -3.91673098E-02 -9.60922625E-01  9.24329833E-01
  4.62192973E-02  8.25154677E-03 -7.44302474E-03  8.97090650E-01 -2.43575846E-02
 -5.97584896E-01  5.74813412E-01  2.04365173E-04  3.05892473E-02 -7.55559017E-03
  5.57893514E-01  6.31326447E-02  1.54887805E+00 -1.48998830E+00  2.89920004E-02
  3.77925558E-02 -5.73746745E-02 -1.44597461E+00  3.90907584E-04  9.58840950E-03
 -9.25248232E-03  8.20529102E-03  8.39260085E-03 -7.39637062E-03 -8.95673061E-03
  1.59994139E-07 -6.11227952E-09  6.73255760E-03 -6.00606645E-03  6.55877467E-04
  1.39012178E-06 -4.12620421E-02  3.68095617E-02 -4.01956046E-03  4.71751029E-05
 -1.11476308E+00  9.94471569E-01 -1.08588526E-01 -3.18726537E-03  1.10303366E-03
  2.33230103E-03 -3.07575970E-02 -1.29223358E-02 -2.68998413E-05  1.35039118E+00
 -1.20467363E+00  1.31540703E-01  5.04231550E-02  1.23710540E+00 -1.18997734E+00
 -5.94212823E-02  9.24184393E-03 -1.39202353E-03 -1.15503943E+00 -5.91520445E-02
 -1.45126438E+00  1.39594407E+00 -2.95719218E-02  6.34970273E-02 -5.60480955E-04
  1.35499780E+00  8.45891204E-03  2.07535044E-01 -1.99640427E-01 -7.56341515E-03
  1.32016748E-02 -7.66024014E-03 -1.93768052E-01  2.69126154E-04  6.60262295E-03
 -6.36788219E-03 -1.02348850E-02  9.32737614E-03 -7.89955771E-04 -6.15947848E-03
  1.88991756E-02  3.27977592E-02  1.08037834E-03  1.56953813E-03  2.62655272E-03
  2.45811333E-01  4.18312272E-03  6.07694419E-03  1.01683181E-02 -2.40415798E+00
 -8.66865668E-03 -1.25936228E-02 -2.10602232E-02  5.53411586E-04  4.70778651E-04
  6.66280041E-04 -9.18700671E-05  2.81873042E-04  8.73044647E+00  3.99565866E-03
  5.80475540E-03  9.69183239E-03  5.26473716E-02  1.49007799E+00 -1.66174530E+00
 -2.45120204E-02  2.80201731E-04  2.77748369E-04 -1.28362131E+00  5.26372666E-02
  1.49000291E+00 -1.66140271E+00  8.44600595E-03 -2.30259603E-02  2.77958694E-04
 -1.28398397E+00  5.26738555E-02  1.49027015E+00 -1.66263960E+00  8.57488402E-03
  1.21409453E-02 -1.94543441E-02 -1.28266332E+00  5.37884500E-02  1.49855594E+00
 -1.70037859E+00  7.54624696E-03  1.06848650E-02  1.90327067E-02 -1.24274931E+00
 -1.60480085E-04 -2.58439947E-04  8.37659894E-02  1.17396824E-01  2.13867514E-01
 -4.39021964E-03  3.43885864E-01  4.81950986E-01  8.77992798E-01  3.49434306E-02
 -6.97455255E-01 -9.77473611E-01 -1.78071038E+00  3.74078548E-02  3.41407466E-02
  4.83130987E-02 -6.82704515E-03  1.87276054E-02 -1.03288366E-01  3.46330565E-01
  4.85377126E-01  8.84232484E-01 -2.28910063E-02 -1.93512255E-01  7.80928398E-01
 -2.40738530E-02  2.12250832E-02  3.83631833E-02 -7.76517617E-01 -2.26131676E-02
 -1.91339184E-01  7.71438616E-01  2.80714768E-02 -1.52780473E-02  3.83676311E-02
 -7.66656466E-01 -2.35313787E-02 -1.98520342E-01  8.02798895E-01  2.88646850E-02
  4.06387025E-02  6.05188871E-03 -7.99237792E-01  6.67222099E-02  5.07312839E-01
 -2.27963447E+00 -2.41066086E-02 -3.43148745E-02 -6.04285644E-02  2.40348192E+00
  5.26966596E-06  8.50153198E-06 -1.53162634E-01 -1.50709427E-01  1.42719145E-01
  1.41269907E-04 -6.29122607E-01 -6.19046105E-01  5.86224998E-01 -1.12607428E-03
  1.27509299E+00  1.25466998E+00 -1.18814941E+00 -5.00997149E-02  2.42812381E-02
  3.41079574E-02  2.01816362E-02 -2.48241786E-02  3.38041378E-03 -6.32458470E-01
 -6.22328809E-01  5.89332085E-01  3.96665841E-02  3.11901600E-01 -1.35695680E+00
  4.27279198E-02 -2.72916442E-02  2.63871813E-02  1.40695824E+00  2.34424422E-02
  1.84521414E-01 -8.01932053E-01 -4.16298553E-02  1.19442160E-02  2.61651759E-02
  8.31015309E-01 -6.25328403E-02 -4.90494473E-01  2.13926727E+00  1.00754913E-02
  2.62100072E-02 -6.40221004E-02 -2.22103660E+00 -5.00264544E-04 -3.45931969E-03
  1.71437040E-02 -2.73774637E-02 -2.68070238E-02  2.65685621E-02 -1.89345260E-02
  2.35916267E-06  3.79501471E-06  1.89907555E-01 -1.73333692E-01  2.07660388E-02
  6.48367380E-05  7.80064446E-01 -7.11985723E-01  8.52986260E-02 -5.14989821E-04
 -1.58099260E+00  1.44301432E+00 -1.72878509E-01 -7.57680828E-03  2.73325260E-03
  5.53912711E-03 -6.62586361E-02 -2.82915510E-02  1.52746117E-03  7.84167129E-01
 -7.15730538E-01  8.57471844E-02 -4.95477562E-02 -3.88836464E-01  1.69510094E+00
 -5.37068992E-02 -3.13872182E-02  3.08095965E-03 -1.75945171E+00  5.90964018E-02
  4.64239353E-01 -2.02174484E+00 -6.69629042E-04  6.76128383E-02  4.57061161E-03
  2.09736548E+00 -9.27360977E-03 -7.26032240E-02  3.17274762E-01  4.00005568E-02
 -2.34463430E-02 -9.57839028E-03 -3.29738842E-01 -2.40833708E-04 -1.67746897E-03
  8.25196476E-03  3.44732781E-02 -3.11226309E-02  4.12447570E-03 -9.07804212E-03
  1.18157469E-01  2.50166200E-01 -6.13527079E-05 -8.92084676E-05 -1.49296678E-04
 -2.11105020E+00 -1.27637407E-04 -1.85574727E-04 -3.11640203E-04  6.22869308E+00
  3.46562474E-04  5.04152854E-04  8.37724588E-04 -2.41258145E-04 -2.05963816E-04
 -2.91827433E-04  3.99157108E-05 -1.22659519E-04  3.09448359E+00 -4.38742416E-04
 -6.37401925E-04 -1.08055850E-03  5.57837287E-02 -2.07405535E-01 -1.94045923E+00
  1.59779550E-01 -2.67509176E-05  1.19165622E-03 -1.96275210E-01  5.57840404E-02
 -2.07399741E-01 -1.94050036E+00 -5.33612400E-02  1.50608869E-01  1.19091971E-03
 -1.96249759E-01  5.57829371E-02 -2.07418182E-01 -1.94035918E+00 -5.43436119E-02
 -7.68968077E-02  1.29082454E-01 -1.96328332E-01  5.57494451E-02 -2.08048577E-01
 -1.93594133E+00 -5.20769072E-02 -7.36884899E-02 -1.31471389E-01 -1.99129167E-01
  1.77418058E-07  4.13036000E-07  7.39903635E-06 -1.93501704E-06 -1.80640439E-06
 -4.23014974E-06  1.15790432E-04 -2.99416880E-05 -2.82444191E-05  1.52060992E-05
 -2.81080652E-04  7.42595740E-05  6.86920582E-05  9.20406252E-02 -3.51361593E-01
  2.42756680E-01  5.85254142E-02 -1.48234127E-01  9.00668054E-06  9.22403756E-05
 -2.44663940E-05 -2.25521913E-05 -1.54891857E-05  7.90622433E-05  1.12000256E-04
  2.14131186E-03 -1.18822050E-01 -2.84623495E-01 -1.55946479E-04  9.14495700E-06
 -4.96672527E-05 -7.14977151E-05 -1.17200228E-01 -4.37771054E-02  2.81739894E-01
  8.97713721E-05  6.28748975E-06 -3.47477611E-05 -5.19168596E-05 -1.74220061E-01
  2.43875967E-01  7.19136258E-02  6.28095826E-05 -3.79560621E-08 -1.69063807E-06
 -4.62092014E-06  2.89554234E-01 -8.13501680E-02 -6.90973454E-02 -4.43360397E-07
  6.44047413E-08  1.50645232E-07  1.12070547E-06  6.85037033E-06 -4.00753431E-06
 -1.54902524E-06  1.79947037E-05  1.07666803E-04 -6.25766101E-05  5.54179313E-06
 -4.15725008E-05 -2.59203700E-04  1.52543679E-04  2.13628134E-01  1.44175867E-01
 -1.14789447E-01  1.21085758E-01 -3.49276585E-01  3.24035010E-06  1.35143448E-05
  8.49298576E-05 -5.00980611E-05 -2.08139850E-06  1.02010072E-05  1.59296355E-05
 -9.26658277E-04 -2.84413000E-01  1.18666445E-01 -2.27717965E-05 -1.25505423E-05
  6.49080707E-05  9.37878161E-05 -2.65859190E-01 -9.31694743E-02 -1.25349764E-01
 -1.27083702E-04  1.43495615E-05 -7.56894316E-05 -1.10229395E-04  2.31678587E-01
  1.16532792E-01  1.66910957E-01  1.44524715E-04  2.48349729E-07 -2.00362817E-06
 -5.29282258E-06  3.51471217E-02  2.61302648E-01 -1.60377281E-01  3.96679859E-06
  5.68312820E-10  1.27592752E-09 -2.85586985E-05 -3.71508950E-05  3.28562888E-05
 -6.80390382E-09 -1.89056710E-04 -2.47610130E-04  2.26166981E-04 -2.85833290E-08
 -7.16859530E-04 -9.33882489E-04  8.31937480E-04  8.42507706E-04 -4.29747754E-04
 -6.07269835E-04 -2.07137394E-04  4.68125951E-04  2.56267455E-08  5.32720563E-04
  6.94638696E-04 -6.21577919E-04 -1.75863124E-04  1.18356921E-03 -5.79050050E-04
  3.14995097E-03 -3.10862332E-03 -3.82472157E-01 -4.32762026E-04 -1.57521217E-04
  1.05941419E-03 -5.19002162E-04  1.03869661E-02  6.75104654E-03 -3.52325280E-01
 -3.86666946E-04  3.40212944E-04 -2.28579499E-03  1.12199327E-03  3.05412400E-01
  4.13907018E-01  3.74432108E-01  8.32057463E-04 -6.82976706E-06  4.28497907E-05
 -2.39417616E-05 -3.18518233E-01 -4.16988688E-01  3.59869224E-01 -1.26472795E-05
 -9.37425753E-11 -2.03007916E-10  4.63089454E-05 -3.39575695E-05  1.41532030E-06
  1.08096557E-09  3.08935882E-04 -2.28508466E-04  9.21600338E-06  4.43894394E-09
  1.16440882E-03 -8.55421009E-04  3.54208361E-05  1.94198904E-05 -6.04859285E-06