14
Properties=species:S:1:pos:R:3:Z:I:1 energy=-78.0649069439315 field_type=dipole dipole="0.000000 0.000000 0.000000" charge=0
C	-0.662428	0.000105	0.000000	6
C	0.662428	-0.000105	0.000000	6
H	-1.231463	0.920907	-0.000000	1
H	-1.231756	-0.920515	-0.000000	1
H	1.231757	0.920515	-0.000000	1
H	1.231463	-0.920907	-0.000000	1
Es	-0.662715	0.000105	0.000000	99
Es	0.662715	-0.000105	-0.000000	99
Es	-1.049478	-0.629598	-0.000000	99
Es	1.049479	0.629598	-0.000000	99
Es	-1.049278	0.629932	0.000000	99
Es	0.000000	0.000000	0.000000	99
Es	1.049278	-0.629932	0.000000	99
Es	-0.000000	-0.000000	-0.000000	99
