32
Properties=species:S:1:pos:R:3:Z:I:1 energy=-698.1469865215365 field_type=dipole dipole="0.000000 0.000000 0.000000" charge=0
S	-0.007035	-0.007972	0.006533	16
O	1.257110	-0.004178	1.003448	8
O	-1.242462	0.026794	1.038254	8
O	-0.046202	1.246271	-0.689258	8
O	0.013171	-1.287795	-0.641871	8
H	1.467336	0.913111	1.234842	1
H	-1.445719	-0.880931	1.310054	1
Es	-0.007018	-0.007950	0.007697	99
Es	-1.242282	0.026416	1.038073	99
Es	1.256924	-0.003807	1.003258	99
Es	-0.046133	1.246681	-0.689587	99
Es	0.013092	-1.288217	-0.642182	99
Es	-0.006458	-0.007196	0.047380	99
Es	-0.005171	-0.029572	-0.014161	99
Es	-0.009494	0.012828	-0.014907	99
Es	-0.007036	-0.007973	0.006493	99
Es	-0.839150	-0.032179	0.729944	99
Es	-1.430425	0.267065	0.953178	99
Es	-0.037131	0.811705	-0.400040	99
Es	0.012016	-0.842535	-0.369257	99
Es	1.317957	0.469725	1.102212	99
Es	-1.300308	-0.442986	1.156565	99
Es	-0.040224	1.149218	-0.543362	99
Es	-1.130442	0.049241	1.120152	99
Es	1.147471	-0.023461	1.089269	99
Es	-0.018806	-1.379940	-0.822913	99
Es	1.442749	-0.247569	0.922254	99
Es	0.845197	0.043252	0.704666	99
Es	-0.019432	1.331450	-0.874490	99
Es	0.031785	-1.148015	-0.579335	99
Es	-0.062943	1.108983	-0.620950	99
Es	0.011260	-1.185270	-0.499653	99
