26
Properties=species:S:1:pos:R:3:Z:I:1 energy=-191.97913078045264 field_type=dipole dipole="0.000000 0.000000 0.000000" charge=0
C	-1.161662	0.280251	0.325012	6
C	0.314898	0.142251	0.430662	6
C	1.117378	-0.486139	-0.675728	6
O	1.057118	0.938381	-0.498488	8
H	-1.516362	1.066781	0.998552	1
H	-1.648122	-0.657769	0.610312	1
H	-1.480122	0.534441	-0.691608	1
H	0.673058	0.069631	1.447752	1
H	0.597768	-0.907769	-1.526658	1
H	2.046048	-0.980059	-0.419808	1
Es	1.117353	-0.485836	-0.675677	99
Es	-0.426167	0.208968	0.370726	99
Es	-1.369634	0.446405	-0.363429	99
Es	0.315052	0.142407	0.430439	99
Es	0.856415	1.054245	-0.702331	99
Es	1.145278	0.407283	-0.654843	99
Es	-1.395811	0.813142	0.783841	99
Es	-1.484243	-0.358077	0.524011	99
Es	-1.161645	0.280238	0.325028	99
Es	0.752405	0.730018	-0.090799	99
Es	0.766415	-0.767741	-1.261098	99
Es	0.647887	-0.398813	-0.056061	99
Es	1.057060	0.938213	-0.498444	99
Es	1.322368	1.034568	-0.371598	99
Es	1.755018	-0.817491	-0.508163	99
Es	0.565384	0.099680	1.125021	99
