29
Properties=species:S:1:pos:R:3:Z:I:1 energy=-192.8147952435218 field_type=dipole dipole="0.000000 0.000000 0.000000" charge=0
C	-1.861959	-0.535585	0.005443	6
C	-0.369839	-0.500255	0.015153	6
C	0.333931	0.640924	-0.008037	6
C	1.739931	0.640924	-0.008037	6
C	2.930091	0.640924	-0.008037	6
H	-2.209119	-1.571025	-0.064937	1
H	-2.262309	0.008395	-0.856757	1
H	-2.267409	-0.106835	0.925713	1
H	0.146071	-1.457355	0.038663	1
H	-0.174489	1.600594	-0.031167	1
H	3.995100	0.639295	-0.007997	1
Es	0.030929	0.092635	-0.317961	99
Es	-0.026828	-1.148953	0.031587	99
Es	1.058052	0.647742	-0.007303	99
Es	0.334078	0.641013	-0.008039	99
Es	-2.122940	-0.242409	0.623639	99
Es	-0.369922	-0.500327	0.015157	99
Es	1.739664	0.640925	-0.008035	99
Es	2.334454	0.825334	-0.310507	99
Es	-2.095232	-1.238775	-0.041860	99
Es	2.333725	0.808590	0.303587	99
Es	-1.861908	-0.535587	0.005443	99
Es	-1.113984	-0.516697	0.010282	99
Es	0.028418	0.107987	0.324244	99
Es	0.003948	1.288299	-0.023932	99
Es	-2.121143	-0.163456	-0.572847	99
Es	2.340603	0.280810	-0.017172	99
Es	3.626329	0.639675	-0.008017	99
Es	2.930355	0.640922	-0.008036	99
