34
Properties=species:S:1:pos:R:3:Z:I:1 energy=-211.19728785381676 field_type=dipole dipole="0.000000 0.000000 0.000000" charge=0
C	-1.541908	0.110104	-0.046296	6
C	-0.060078	0.052804	0.222304	6
N	0.312782	0.019394	1.642794	7
C	0.806752	-0.703606	-0.753576	6
C	0.850682	0.797854	-0.721506	6
H	-1.763798	0.142734	-1.118586	1
H	-1.978788	1.002834	0.413784	1
H	-2.039218	-0.771786	0.371554	1
H	1.323502	-0.026726	1.761264	1
H	-0.059728	-0.818586	2.089004	1
H	0.335562	-1.176776	-1.607966	1
H	1.670682	-1.242336	-0.382486	1
H	1.736412	1.276194	-0.319656	1
H	0.407142	1.337894	-1.550626	1
Es	-1.836576	0.714845	0.264970	99
Es	0.806732	-0.703445	-0.753549	99
Es	0.312991	0.018924	1.642532	99
Es	1.453372	1.115914	-0.442456	99
Es	-0.059933	0.052799	0.222326	99
Es	1.394271	-1.066349	-0.492080	99
Es	0.850633	0.797694	-0.721461	99
Es	0.312633	-0.508846	-0.220586	99
Es	0.482952	-1.022613	-1.336207	99
Es	0.344687	0.601185	-0.183053	99
Es	-1.541879	0.110090	-0.046298	99
Es	-1.681618	0.129751	-0.778207	99
Es	0.095889	-0.502779	1.890025	99
Es	0.170211	0.007692	1.019713	99
Es	0.544082	1.160978	-1.283764	99
Es	-1.876834	-0.494139	0.241328	99
Es	-0.799251	0.078256	0.085304	99
Es	0.186179	0.302591	1.806657	99
Es	0.953829	0.046224	-0.873729	99
Es	0.925404	-0.025006	1.692998	99
