31
Properties=species:S:1:pos:R:3:Z:I:1 energy=-209.99567799656796 field_type=dipole dipole="0.000000 0.000000 0.000000" charge=0
C	-0.781357	-1.806843	-0.507954	6
C	-0.722337	-0.753833	0.318676	6
C	0.410463	0.156018	0.464576	6
C	0.595613	1.264767	-0.538624	6
N	0.101103	1.541378	0.804196	7
H	-1.668676	-2.429913	-0.549114	1
H	0.048363	-2.061603	-1.158674	1
H	-1.588937	-0.550163	0.946626	1
H	1.292953	-0.264403	0.935996	1
H	-0.124237	1.373637	-1.340434	1
H	1.601253	1.593807	-0.766424	1
H	0.835793	1.937148	1.391156	1
Es	-0.220063	-1.985202	-0.952741	99
Es	1.008283	-0.130896	0.781296	99
Es	0.570422	0.548983	-0.190983	99
Es	-0.241332	1.634380	0.851122	99
Es	-1.302019	-0.610026	0.745765	99
Es	-0.623419	-1.478638	0.132611	99
Es	-0.873870	-1.099114	-0.334867	99
Es	-0.156707	-0.298297	0.392784	99
Es	0.595556	1.264752	-0.538374	99
Es	0.559598	1.768636	1.145384	99
Es	0.326543	1.561530	0.194599	99
Es	-0.781350	-1.806925	-0.508011	99
Es	0.110038	1.338053	-1.082198	99
Es	0.410410	0.156256	0.464573	99
Es	1.283119	1.488741	-0.692851	99
Es	0.215430	0.899287	0.791175	99
Es	-1.377932	-2.234008	-0.540420	99
Es	-0.722313	-0.753749	0.318733	99
Es	0.101659	1.541154	0.804046	99
