34
Properties=species:S:1:pos:R:3:Z:I:1 energy=-211.199811010267 field_type=dipole dipole="0.000000 0.000000 0.000000" charge=0
C	-1.928887	-1.080875	0.250435	6
N	-0.485207	-0.981475	0.090395	7
C	-0.025667	0.380175	0.343155	6
C	1.463263	0.429165	0.188265	6
C	2.114373	1.219025	-0.674995	6
H	-2.246987	-2.110295	0.057075	1
H	-2.457677	-0.428305	-0.451905	1
H	-2.233007	-0.829155	1.271795	1
H	-0.237257	-1.233605	-0.866005	1
H	-0.274387	0.681575	1.367615	1
H	-0.511597	1.085285	-0.343015	1
H	2.036143	-0.226775	0.840475	1
H	1.588023	1.892675	-1.343815	1
H	3.198873	1.202585	-0.729475	1
Es	1.844392	-0.016918	0.633039	99
Es	1.777067	0.596367	-0.482765	99
Es	-0.300679	-0.373821	0.182943	99
Es	1.760277	1.678440	-1.131769	99
Es	1.463193	0.429117	0.188329	99
Es	-0.025656	0.380050	0.343134	99
Es	-2.132168	-0.900967	0.947067	99
Es	2.114422	1.219089	-0.675061	99
Es	0.724211	0.410146	0.258525	99
Es	-0.323049	-1.200657	0.315270	99
Es	1.806959	1.068161	-0.029849	99
Es	-2.147371	-1.782436	0.113893	99
Es	-0.194306	0.581796	1.039776	99
Es	2.850168	1.214376	-0.718117	99
Es	-1.121123	-1.001617	0.143326	99
Es	-2.296285	-0.623993	-0.233743	99
Es	-1.928762	-1.080866	0.250419	99
Es	-0.359064	0.872063	-0.132872	99
Es	-0.485503	-0.981063	0.089999	99
Es	-0.350873	-1.113367	-0.497474	99
