38
Properties=species:S:1:pos:R:3:Z:I:1 energy=-196.40193774007383 field_type=dipole dipole="0.000000 0.000000 0.000000" charge=0
C	-1.729139	-1.113072	-0.273524	6
C	-0.211139	-1.018732	-0.213534	6
C	0.318261	0.424278	-0.270774	6
C	-0.130629	1.257778	0.930316	6
C	1.846721	0.413988	-0.350404	6
H	-2.037509	-2.162112	-0.334314	1
H	-2.121289	-0.593812	-1.153903	1
H	-2.194659	-0.684672	0.619046	1
H	0.198701	-1.584893	-1.059134	1
H	0.142681	-1.514722	0.698466	1
H	-0.062059	0.903297	-1.181834	1
H	0.171491	0.790097	1.873576	1
H	-1.217479	1.383398	0.944166	1
H	0.310581	2.260007	0.894146	1
H	2.288391	-0.050542	0.538046	1
H	2.239801	1.433278	-0.430784	1
H	2.187281	-0.143562	-1.229563	1
Es	2.144100	0.095275	0.259983	99
Es	0.173893	1.941364	0.902443	99
Es	0.088394	0.840517	0.340548	99
Es	2.077574	0.030433	-0.952374	99
Es	-0.873554	1.340485	0.939262	99
Es	2.113609	1.113046	-0.403978	99
Es	0.071665	-1.404734	-0.797320	99
Es	-0.130627	1.257774	0.930309	99
Es	-2.045048	-0.817488	0.336170	99
Es	1.092875	0.417435	-0.307332	99
Es	0.318284	0.424269	-0.270734	99
Es	0.078391	0.933050	1.573221	99
Es	0.053884	0.752431	-0.898577	99
Es	1.846715	0.413988	-0.350402	99
Es	-1.994247	-0.755155	-0.876266	99
Es	-0.211176	-1.018715	-0.213536	99
Es	-1.729121	-1.113073	-0.273524	99
Es	-1.938458	-1.830355	-0.315400	99
Es	-0.977982	-1.057587	-0.240440	99
Es	0.046144	-0.297090	-0.234684	99
Es	0.033062	-1.354265	0.416513	99
