33
Properties=species:S:1:pos:R:3:Z:I:1 energy=-231.04988719497874 field_type=dipole dipole="0.000000 0.000000 0.000000" charge=0
C	-1.449721	-0.243355	-0.112335	6
C	0.051899	-0.296485	-0.131485	6
C	0.719949	-1.458135	-0.020365	6
C	0.758008	1.018865	-0.303145	6
O	0.505779	1.835325	0.829655	8
H	-1.802501	0.354685	0.733925	1
H	-1.894791	-1.240025	-0.022745	1
H	-1.825391	0.205795	-1.037465	1
H	0.198399	-2.403745	0.094815	1
H	1.804929	-1.496295	-0.043405	1
H	0.397779	1.537595	-1.197205	1
H	1.841798	0.897085	-0.401815	1
H	0.693869	1.288685	1.611565	1
Es	-0.696685	-0.269152	-0.119005	99
Es	1.458255	-1.487325	-0.035521	99
Es	0.720002	-1.458220	-0.020350	99
Es	0.411926	-0.850808	0.259469	99
Es	0.716070	2.056230	0.822894	99
Es	0.369294	-2.103074	0.059156	99
Es	0.403837	0.349069	-0.222247	99
Es	0.504911	1.366011	-0.910752	99
Es	0.612475	1.524862	1.237701	99
Es	0.204676	1.891072	0.834008	99
Es	-1.677813	0.157942	0.456077	99
Es	0.051827	-0.296380	-0.131491	99
Es	0.392511	-0.927502	-0.396044	99
Es	0.602134	1.503674	0.412137	99
Es	0.757934	1.018956	-0.302952	99
Es	1.504162	0.920995	-0.374348	99
Es	-1.691750	0.063108	-0.739311	99
Es	-1.744952	-0.923885	-0.051744	99
Es	0.505897	1.834988	0.829662	99
Es	-1.449673	-0.243355	-0.112340	99
