39
Properties=species:S:1:pos:R:3:Z:I:1 energy=-233.05273574015092 field_type=dipole dipole="0.000000 0.000000 0.000000" charge=0
C	-2.138431	-1.263482	0.003234	6
C	-0.618951	-1.210852	0.009534	6
C	-0.107681	0.229708	-0.006146	6
C	1.420189	0.278048	-0.004516	6
C	1.906950	1.665088	-0.004386	6
C	2.308440	2.797908	-0.003446	6
H	-2.481700	-2.302662	0.018144	1
H	-2.543791	-0.784712	-0.893866	1
H	-2.552381	-0.756392	0.880624	1
H	-0.236930	-1.751532	-0.864196	1
H	-0.245321	-1.728542	0.900684	1
H	-0.497340	0.767608	0.867764	1
H	-0.494170	0.748278	-0.893056	1
H	1.809239	-0.245662	-0.885576	1
H	1.807960	-0.244762	0.877614	1
H	2.663919	3.801958	-0.002416	1
Es	-0.107618	0.229681	-0.006145	99
Es	2.540366	3.454141	-0.002792	99
Es	-0.353822	-1.578486	-0.592470	99
Es	-2.417325	-0.914857	0.603409	99
Es	1.903576	2.318910	-0.289372	99
Es	2.308513	2.798147	-0.003449	99
Es	-0.356392	-0.490354	0.001493	99
Es	-2.411477	-0.934158	-0.610434	99
Es	-0.370477	0.592641	0.594273	99
Es	-1.382224	-1.233240	0.006240	99
Es	2.448510	2.128422	-0.051960	99
Es	1.683597	-0.059995	0.590936	99
Es	-2.138407	-1.263482	0.003235	99
Es	1.981298	2.291600	0.329427	99
Es	-0.368248	0.579416	-0.615337	99
Es	-0.618976	-1.210822	0.009533	99
Es	1.684501	-0.060769	-0.599173	99
Es	-2.371969	-1.973394	0.013394	99
Es	1.675891	1.002272	-0.004644	99
Es	0.678331	0.270240	-0.005141	99
Es	1.420218	0.278183	-0.004519	99
Es	-0.359744	-1.562702	0.623383	99
Es	1.906857	1.664842	-0.004386	99
