40
Properties=species:S:1:pos:R:3:Z:I:1 energy=-266.2357840345104 field_type=dipole dipole="0.000000 0.000000 0.000000" charge=0
C	-1.640401	0.008508	0.623455	6
C	-0.150431	-0.022992	0.666175	6
C	0.674979	-0.760803	-0.356835	6
N	0.044629	-1.509302	-1.443805	7
C	0.647619	0.751107	-0.347765	6
N	1.819859	1.509748	0.090905	7
H	-2.018131	0.764247	1.320245	1
H	-2.048831	-0.962302	0.924115	1
H	-2.028611	0.251018	-0.371885	1
H	0.204589	-0.063412	1.690525	1
H	1.586509	-1.229442	0.010175	1
H	-0.735181	-0.999912	-1.853815	1
H	-0.333561	-2.390832	-1.101855	1
H	0.104279	1.228997	-1.160525	1
H	2.332429	1.019637	0.822485	1
H	1.540259	2.405737	0.488405	1
Es	-0.150373	-0.022995	0.666051	99
Es	0.784491	-0.001598	-0.504089	99
Es	-1.899239	0.172224	-0.061488	99
Es	1.302583	1.172010	-0.071588	99
Es	0.278783	-1.573648	-1.688275	99
Es	0.283582	-1.174321	-0.955078	99
Es	0.674834	-0.760729	-0.356896	99
Es	2.102902	1.205053	0.545648	99
Es	1.819475	1.509636	0.091379	99
Es	0.174865	0.520512	0.243055	99
Es	-1.893241	0.523951	1.097056	99
Es	0.647714	0.751030	-0.347645	99
Es	0.044236	-1.509176	-1.443366	99
Es	-0.896784	-0.015466	0.623292	99
Es	0.105558	-0.042033	1.363204	99
Es	-0.434369	-1.194103	-1.664139	99
Es	-1.919709	-0.654597	0.828312	99
Es	-1.640388	0.008507	0.623448	99
Es	2.034882	1.569310	-0.176563	99
Es	-0.195222	-2.027634	-1.214843	99
Es	0.193388	-0.551822	0.236528	99
Es	1.293129	-1.077512	-0.100350	99
Es	0.268360	1.073951	-0.894641	99
Es	1.629017	2.036499	0.346457	99
