34
Properties=species:S:1:pos:R:3:Z:I:1 energy=-263.9009788822856 field_type=dipole dipole="0.000000 0.000000 0.000000" charge=0
C	-1.506626	-0.327971	0.398046	6
C	-0.019146	-0.307241	0.471306	6
N	0.769574	-0.999951	-0.538864	7
C	0.795804	0.472919	-0.535894	6
C	1.961824	1.180409	-0.076654	6
N	2.882994	1.780969	0.290796	7
H	-1.923676	0.455329	1.038756	1
H	-1.889696	-1.291941	0.747626	1
H	-1.875066	-0.163271	-0.620094	1
H	0.344114	-0.395591	1.489756	1
H	0.185914	-1.345591	-1.301904	1
H	0.273984	0.941929	-1.362874	1
Es	-1.744883	-0.217721	-0.300308	99
Es	0.404846	-1.180039	-0.993670	99
Es	0.369709	-0.827444	-0.066784	99
Es	0.769083	-0.999544	-0.538970	99
Es	0.233094	-0.361290	1.154003	99
Es	-0.019016	-0.307269	0.471071	99
Es	1.961534	1.180223	-0.076764	99
Es	3.174387	1.971174	0.408237	99
Es	-1.506591	-0.327969	0.398040	99
Es	2.467819	1.660411	-0.143974	99
Es	1.060708	-1.173442	-0.445032	99
Es	2.299100	1.619231	0.361272	99
Es	-1.780869	0.201112	0.831008	99
Es	-1.755004	-0.980829	0.633579	99
Es	0.454849	0.795954	-1.082707	99
Es	0.363318	0.308204	0.041161	99
Es	-0.758573	-0.312299	0.414182	99
Es	2.611091	1.240552	0.153861	99
Es	2.882632	1.780736	0.290654	99
Es	0.795938	0.472736	-0.535809	99
Es	0.871777	-0.325145	-0.647452	99
Es	1.422482	0.830352	-0.303820	99
