38
Properties=species:S:1:pos:R:3:Z:I:1 energy=-249.04661225586733 field_type=dipole dipole="0.000000 0.000000 0.000000" charge=0
C	-1.723009	-0.931795	-0.268191	6
C	-0.209198	-0.834085	-0.134841	6
C	0.328182	0.606225	-0.230861	6
N	-0.140229	1.439305	0.873599	7
C	1.772181	0.606225	-0.230861	6
C	2.962342	0.606225	-0.230861	6
H	-2.029228	-1.982535	-0.290911	1
H	-2.067599	-0.459545	-1.193961	1
H	-2.234689	-0.457785	0.574939	1
H	0.242722	-1.440325	-0.930431	1
H	0.097862	-1.295725	0.812379	1
H	-0.028789	1.053885	-1.165921	1
H	0.158231	1.021845	1.753439	1
H	-1.156389	1.452395	0.890429	1
H	4.027612	0.615685	-0.227941	1
Es	0.059407	1.052472	0.399168	99
Es	3.658898	0.610678	-0.229139	99
Es	2.372790	0.501309	0.117088	99
Es	0.328250	0.606270	-0.230737	99
Es	-0.754765	1.420461	0.877949	99
Es	-0.140426	1.438784	0.873627	99
Es	-1.927564	-1.645657	-0.282674	99
Es	0.096896	0.903678	-0.863332	99
Es	0.000293	-1.138843	0.518432	99
Es	-2.069501	-0.601740	0.308478	99
Es	0.072263	-0.112241	-0.181944	99
Es	2.962605	0.606214	-0.230840	99
Es	0.030362	1.163388	1.396677	99
Es	-0.017968	1.765002	0.846572	99
Es	-0.972255	-0.865871	-0.198673	99
Es	-0.209232	-0.834051	-0.134848	99
Es	1.080998	0.603541	-0.229137	99
Es	0.097390	-1.242968	-0.682085	99
Es	1.771924	0.606216	-0.230866	99
Es	-1.722984	-0.931786	-0.268186	99
Es	2.375605	0.352300	-0.490573	99
Es	2.383982	0.950266	-0.316628	99
Es	-1.953986	-0.604809	-0.900039	99
