39
Properties=species:S:1:pos:R:3:Z:I:1 energy=-233.09144520034334 field_type=dipole dipole="0.000000 0.000000 0.000000" charge=0
C	-1.559233	0.002685	0.837600	6
C	-0.028243	-0.005215	0.795310	6
C	0.503267	-1.224155	0.023080	6
C	0.799097	-0.663805	-1.329810	6
C	0.806127	0.672585	-1.322650	6
C	0.515547	1.218255	0.039310	6
H	-1.924393	0.883405	1.376250	1
H	-1.934333	-0.886045	1.355920	1
H	-1.994243	0.016775	-0.167340	1
H	0.338027	-0.013735	1.828920	1
H	-0.226003	-2.038365	-0.026970	1
H	1.425797	-1.606895	0.472950	1
H	1.014007	-1.275465	-2.195670	1
H	1.027717	1.293395	-2.179510	1
H	1.442267	1.586015	0.493520	1
H	-0.205403	2.040565	-0.000910	1
Es	0.799093	-0.663934	-1.329800	99
Es	0.944154	-1.090101	-1.914413	99
Es	1.115520	0.002465	-1.273162	99
Es	0.022323	1.778858	0.012982	99
Es	0.481148	0.006705	-1.423493	99
Es	0.806121	0.672720	-1.322638	99
Es	0.659600	0.980787	-0.660091	99
Es	-1.850804	0.012258	0.150621	99
Es	-0.801527	-0.001245	0.806617	99
Es	0.222644	-0.011155	1.508661	99
Es	0.242573	0.623069	0.428457	99
Es	0.503275	-1.224131	0.023054	99
Es	-1.806214	0.607566	1.205989	99
Es	-0.028266	-0.005214	0.795272	99
Es	-1.813094	-0.607700	1.192142	99
Es	0.004480	-1.779257	-0.010174	99
Es	1.134251	-1.481478	0.324133	99
Es	0.955810	1.104808	-1.901196	99
Es	1.149296	1.465475	0.343554	99
Es	-1.559220	0.002685	0.837603	99
Es	0.649545	-0.978939	-0.672199	99
Es	0.236172	-0.631342	0.420181	99
Es	0.515559	1.218234	0.039284	99
