34
Properties=species:S:1:pos:R:3:Z:I:1 energy=-263.93116923044835 field_type=dipole dipole="0.000000 0.000000 0.000000" charge=0
N	-1.976724	-0.024790	-0.029131	7
C	-0.639774	0.063300	-0.012881	6
C	0.194736	1.155880	-0.004131	6
C	1.526906	0.671820	0.009839	6
C	1.463066	-0.704160	0.008959	6
N	0.138896	-1.062160	-0.005031	7
H	-2.559534	0.807560	0.003349	1
H	-2.491474	-0.897990	0.014969	1
H	-0.115634	2.191540	-0.008421	1
H	2.432526	1.263750	0.018379	1
H	2.239626	-1.456900	0.015809	1
H	-0.212614	-2.007850	-0.011711	1
Es	-2.312922	0.469498	0.023208	99
Es	-1.976347	-0.024778	-0.028013	99
Es	0.138898	-1.061916	-0.004323	99
Es	1.981882	-1.222160	0.013875	99
Es	-1.891904	-0.024256	-0.224365	99
Es	-0.229055	-0.609606	0.070855	99
Es	0.194702	1.155891	-0.004137	99
Es	-0.020364	1.861626	-0.006473	99
Es	-2.266167	-0.549473	0.032921	99
Es	2.137724	1.078333	0.015926	99
Es	1.462895	-0.704318	0.008942	99
Es	-0.126408	0.683206	0.298706	99
Es	0.153572	-0.920646	-0.149271	99
Es	-1.418125	0.004745	0.081144	99
Es	-0.639922	0.063031	-0.012883	99
Es	1.506467	-0.025843	-0.310913	99
Es	-0.075737	-1.626156	0.007484	99
Es	1.526931	0.671851	0.009839	99
Es	1.502770	-0.028111	0.327314	99
Es	0.878299	0.966738	0.003772	99
Es	0.703554	-0.950214	0.053502	99
Es	-0.116131	0.684126	-0.315860	99
