37
Properties=species:S:1:pos:R:3:Z:I:1 energy=-268.8960110983073 field_type=dipole dipole="0.000000 0.000000 0.000000" charge=0
C	1.013805	1.181994	-0.618117	6
C	-0.149135	0.861114	0.283733	6
C	-1.177185	-0.132516	-0.147527	6
C	-0.509885	-1.485146	0.103803	6
O	0.909645	-1.253156	0.045793	8
C	1.145015	0.122344	0.430253	6
H	0.979565	0.868484	-1.654837	1
H	1.537215	2.116964	-0.457127	1
H	-0.454285	1.545104	1.059933	1
H	-2.117025	-0.042636	0.405803	1
H	-1.398175	-0.006536	-1.213747	1
H	-0.747595	-1.861466	1.104403	1
H	-0.797415	-2.234726	-0.638437	1
H	1.765455	0.320174	1.296073	1
Es	0.370528	-1.314128	0.076762	99
Es	1.144908	0.122230	0.430076	99
Es	-0.863285	-0.813160	-0.027152	99
Es	1.041212	-1.429352	0.257543	99
Es	-1.177158	-0.132521	-0.147511	99
Es	-0.705741	-1.999389	-0.403943	99
Es	-1.327866	-0.050525	-0.876954	99
Es	0.439744	0.439062	0.509976	99
Es	-0.148988	0.861086	0.283660	99
Es	-0.670732	0.385606	0.053235	99
Es	0.981681	-0.723149	0.194010	99
Es	1.013724	1.181916	-0.617973	99
Es	0.982442	-1.266546	-0.250039	99
Es	-0.509680	-1.485084	0.103784	99
Es	-0.351418	1.337717	0.804889	99
Es	1.366160	1.813895	-0.500157	99
Es	0.310783	1.154292	-0.263361	99
Es	0.909461	-1.252982	0.045879	99
Es	1.574616	0.248406	1.013909	99
Es	-0.683561	-1.741581	0.795791	99
Es	0.981536	0.968541	-1.315169	99
Es	-1.814478	-0.070486	0.234263	99
Es	1.270932	0.615938	-0.159670	99
