35
Properties=species:S:1:pos:R:3:Z:I:1 energy=-304.7519356424962 field_type=dipole dipole="0.000000 0.000000 0.000000" charge=0
C	-1.373682	-0.000998	0.966272	6
C	0.117058	-0.007938	0.668172	6
O	0.449808	-1.203828	-0.079618	8
C	1.039528	-0.652618	-1.190789	6
C	1.048218	0.663822	-1.176978	6
O	0.465888	1.198932	-0.054228	8
H	-1.652572	0.887362	1.541192	1
H	-1.665662	-0.899358	1.518692	1
H	-1.953142	0.014932	0.036412	1
H	0.689648	-0.021588	1.604012	1
H	1.408398	-1.339438	-1.930658	1
H	1.426508	1.360722	-1.902478	1
Es	0.686377	1.327819	0.093998	99
Es	0.339800	0.732008	0.201792	99
Es	-1.755961	0.009663	0.333684	99
Es	0.690165	0.987370	-0.483115	99
Es	0.678264	-0.986391	-0.502933	99
Es	-1.560650	-0.608618	1.345134	99
Es	1.287461	-1.113574	-1.687385	99
Es	-1.373653	-0.000998	0.966275	99
Es	0.449839	-1.203520	-0.079726	99
Es	0.465895	1.198594	-0.054357	99
Es	0.212916	1.323151	-0.149403	99
Es	0.766009	0.009538	-1.383228	99
Es	0.666113	-1.343805	0.066487	99
Es	0.193726	-1.317338	-0.179708	99
Es	-0.635293	-0.004465	0.816325	99
Es	1.302423	1.131607	-1.663871	99
Es	0.332526	-0.740679	0.186948	99
Es	1.371671	0.002171	-1.068293	99
Es	0.512494	-0.017357	1.310539	99
Es	1.039426	-0.652843	-1.190596	99
Es	1.048119	0.664055	-1.176778	99
Es	0.117153	-0.007935	0.667850	99
Es	-1.551811	0.599710	1.360181	99
