31
Properties=species:S:1:pos:R:3:Z:I:1 energy=-266.5282102605148 field_type=dipole dipole="0.000000 0.000000 0.000000" charge=0
C	-0.987833	-1.326803	-0.118433	6
C	0.336597	-1.173323	-0.241673	6
C	1.053127	0.122127	-0.097983	6
O	2.272487	0.151077	-0.230953	8
C	0.356717	1.358717	0.195387	6
C	-0.211183	2.389467	0.438507	6
H	-1.436973	-2.308463	-0.237943	1
H	-1.658273	-0.501953	0.100547	1
H	0.978637	-2.020253	-0.461273	1
H	-0.703303	3.309407	0.653817	1
Es	0.668242	-0.508172	-0.163673	99
Es	0.768466	-1.733908	-0.387814	99
Es	1.053033	0.122214	-0.097955	99
Es	0.370804	2.057905	0.284007	99
Es	2.397715	0.437240	-0.195886	99
Es	0.666195	0.757773	0.055605	99
Es	2.272142	0.151006	-0.230923	99
Es	1.783983	0.187174	-0.423962	99
Es	0.336681	-1.173235	-0.241672	99
Es	-1.294250	-1.983637	-0.197716	99
Es	-1.437113	-0.777752	0.027710	99
Es	2.386117	-0.135272	-0.292661	99
Es	-0.987920	-1.326815	-0.118432	99
Es	-0.318433	-1.160691	-0.491245	99
Es	-0.006708	1.706072	0.621279	99
Es	0.356828	1.358493	0.195336	99
Es	-0.532165	2.984237	0.578168	99
Es	-0.211297	2.389664	0.438554	99
Es	-0.129685	1.791680	0.032582	99
Es	1.838522	0.103661	0.063982	99
Es	-0.248029	-1.269324	0.133575	99
