36
Properties=species:S:1:pos:R:3:Z:I:1 energy=-231.86440576467606 field_type=dipole dipole="0.000000 0.000000 0.000000" charge=0
C	-1.700639	-1.184447	-0.001104	6
C	-0.217019	-1.001627	-0.001824	6
C	0.429411	0.179623	-0.000824	6
C	-0.265399	1.515473	0.002146	6
C	1.835411	0.179623	-0.000824	6
C	3.025571	0.179623	-0.000824	6
H	-1.943189	-2.251137	-0.012414	1
H	-2.153399	-0.733317	-0.889924	1
H	-2.149079	-0.752847	0.900076	1
H	0.363241	-1.922787	-0.002854	1
H	-1.355509	1.432843	-0.000744	1
H	0.022171	2.093613	-0.882734	1
H	0.017931	2.087143	0.892686	1
H	4.090501	0.178223	-0.000834	1
Es	-0.069940	1.891540	0.602323	99
Es	1.835171	0.179624	-0.000812	99
Es	-1.861440	-1.909136	-0.008814	99
Es	-1.700591	-1.184441	-0.001104	99
Es	0.429535	0.179747	-0.000825	99
Es	0.172370	-1.627427	-0.002422	99
Es	0.142548	-0.391410	0.323105	99
Es	-1.002736	1.447182	0.000147	99
Es	2.438490	-0.162858	0.104291	99
Es	2.434554	0.444146	0.239864	99
Es	0.089193	0.839357	0.000469	99
Es	-1.997074	-0.872982	-0.598296	99
Es	-0.217100	-1.001699	-0.001815	99
Es	3.721962	0.178583	-0.000828	99
Es	1.155558	0.189534	-0.000609	99
Es	-1.993977	-0.886268	0.604522	99
Es	-0.067063	1.896003	-0.594265	99
Es	3.025841	0.179622	-0.000828	99
Es	2.427278	0.255682	-0.347020	99
Es	-0.265372	1.515413	0.002145	99
Es	-0.960464	-1.083531	-0.001594	99
Es	0.142139	-0.390796	-0.326010	99
