42
Properties=species:S:1:pos:R:3:Z:I:1 energy=-287.2922583064605 field_type=dipole dipole="0.000000 0.000000 0.000000" charge=0
C	-1.796992	-0.319050	-0.247007	6
C	-0.270242	-0.327390	-0.197277	6
C	0.214118	-1.161640	0.990103	6
O	0.206018	-0.954710	-1.394937	8
C	0.277838	1.120550	-0.161737	6
N	1.736208	1.148930	-0.359697	7
H	-2.156042	0.220560	-1.131057	1
H	-2.226692	0.150100	0.644383	1
H	-2.191822	-1.338390	-0.328477	1
H	-0.080902	-0.712000	1.944093	1
H	1.303158	-1.281100	0.981363	1
H	-0.199222	-2.176280	0.944843	1
H	1.096268	-0.568270	-1.538117	1
H	0.017548	1.617500	0.779463	1
H	-0.166212	1.697570	-0.981017	1
H	2.196758	0.761370	0.464213	1
H	2.040208	2.122250	-0.409137	1
Es	-1.796980	-0.319039	-0.246988	99
Es	0.960573	-1.228799	0.983426	99
Es	-2.036348	0.056445	-0.843684	99
Es	0.042102	-0.707678	-0.937701	99
Es	2.002504	0.925580	0.149860	99
Es	0.673756	-0.751124	-1.456428	99
Es	0.091344	1.457384	0.493092	99
Es	0.011149	-0.846702	1.641771	99
Es	0.206108	-0.954553	-1.394785	99
Es	-0.027175	1.514413	-0.720320	99
Es	1.827694	0.960050	-0.657313	99
Es	-0.270167	-0.327460	-0.197433	99
Es	-0.020526	-0.739528	0.417712	99
Es	0.214126	-1.161624	0.990118	99
Es	0.278004	1.120535	-0.161744	99
Es	1.908266	1.738127	-0.376537	99
Es	-0.072331	-1.844133	0.958501	99
Es	0.027680	-0.846262	-1.622188	99
Es	0.013233	0.405737	-0.167432	99
Es	1.736059	1.149197	-0.359240	99
Es	-1.041628	-0.316825	-0.216063	99
Es	1.113168	1.143837	-0.249381	99
Es	-2.081413	0.003495	0.366232	99
Es	0.234590	-1.255406	-1.332439	99
Es	-2.058683	-1.011503	-0.293625	99
