42
Properties=species:S:1:pos:R:3:Z:I:1 energy=-287.2775227340165 field_type=dipole dipole="0.000000 0.000000 0.000000" charge=0
C	-2.280843	-0.670896	0.442111	6
C	-0.759444	-0.690006	0.417131	6
N	-0.250423	0.674263	0.259031	7
C	1.219126	0.736214	0.368141	6
C	1.923557	0.142684	-0.859339	6
O	1.362087	0.697464	-2.047239	8
H	-2.668933	-1.690386	0.536751	1
H	-2.687583	-0.239486	-0.479029	1
H	-2.656843	-0.087956	1.289941	1
H	-0.433113	-1.322096	-0.414979	1
H	-0.394233	-1.133776	1.350281	1
H	-0.649624	1.260224	0.994591	1
H	1.575186	0.264744	1.291351	1
H	1.483696	1.798814	0.424711	1
H	1.810457	-0.944876	-0.900919	1
H	2.991357	0.375394	-0.840279	1
H	0.415576	0.829683	-1.832259	1
Es	-1.523843	-0.676037	0.431445	99
Es	1.218989	0.736185	0.368112	99
Es	1.843336	-0.611070	-0.873836	99
Es	-0.482774	1.014491	0.719018	99
Es	0.386907	0.677250	0.328932	99
Es	1.559993	0.483416	-1.584948	99
Es	0.866393	0.753304	-1.925222	99
Es	1.361942	0.697405	-2.046964	99
Es	1.387949	0.485778	-2.269486	99
Es	-0.344914	0.800271	-0.069323	99
Es	1.466593	0.400014	1.003325	99
Es	-0.759436	-0.689867	0.417114	99
Es	-0.453605	0.078745	0.350659	99
Es	-2.541053	-1.366831	0.509099	99
Es	-0.250228	0.674035	0.259549	99
Es	-2.530377	-0.268320	1.024020	99
Es	1.562268	0.428058	-0.235394	99
Es	1.400372	1.461670	0.409268	99
Es	-2.280819	-0.670902	0.442123	99
Es	-0.503142	-0.999050	1.064488	99
Es	-2.553485	-0.377579	-0.183712	99
Es	-0.529563	-1.118324	-0.152545	99
Es	2.653966	0.302720	-0.835446	99
Es	1.923438	0.142792	-0.859478	99
Es	1.480452	0.977994	-2.068463	99
