36
Properties=species:S:1:pos:R:3:Z:I:1 energy=-284.9494448095179 field_type=dipole dipole="0.000000 0.000000 0.000000" charge=0
N	-1.665741	-1.027855	0.446333	7
C	-0.385981	-1.207844	0.022473	6
O	-0.014321	-2.211545	-0.566607	8
C	0.550179	-0.112255	0.360503	6
C	1.266429	0.621825	-0.748867	6
C	0.222589	1.332096	0.060683	6
H	-1.958411	-0.208504	0.956273	1
H	-2.335431	-1.759274	0.252283	1
H	1.142629	-0.316035	1.247313	1
H	1.028909	0.354136	-1.773117	1
H	2.306619	0.881855	-0.590617	1
H	0.554559	2.083436	0.768033	1
H	-0.712031	1.569965	-0.434687	1
Es	-0.198390	-1.769001	-0.588693	99
Es	-1.841714	-0.543661	0.746510	99
Es	0.550165	-0.112121	0.360401	99
Es	0.770158	1.135121	-0.438314	99
Es	0.286230	-2.198333	-0.641917	99
Es	-1.391605	-0.947147	0.108242	99
Es	-1.665704	-1.027848	0.446308	99
Es	-0.014433	-2.211246	-0.566417	99
Es	0.222670	1.331934	0.060663	99
Es	-0.250637	-2.418701	-0.601929	99
Es	-0.080631	-1.977613	-0.151656	99
Es	1.097890	0.444164	-1.434742	99
Es	-0.414352	1.483176	-0.270455	99
Es	1.266291	0.621830	-0.748712	99
Es	0.447812	1.838163	0.543095	99
Es	0.241664	0.603262	0.359625	99
Es	-1.269289	-1.182814	0.566308	99
Es	-2.069082	-1.451462	0.337975	99
Es	-0.386127	-1.207775	0.022553	99
Es	1.968146	0.799629	-0.634917	99
Es	0.933260	-0.252453	0.956486	99
Es	0.993865	0.092050	-0.225632	99
Es	0.066229	-0.635728	0.189015	99
