42
Properties=species:S:1:pos:R:3:Z:I:1 energy=-286.9068548627308 field_type=dipole dipole="0.000000 0.000000 0.000000" charge=0
C	-1.554925	-1.511261	-0.321117	6
C	-0.083015	-1.250360	-0.311857	6
C	0.542745	-0.060271	-0.203447	6
C	-0.168335	1.273240	-0.137897	6
N	-0.298555	1.750040	1.236153	7
C	1.948745	-0.060271	-0.203447	6
C	3.138905	-0.060271	-0.203447	6
H	-1.793785	-2.280251	0.421423	1
H	-1.861215	-1.882020	-1.304417	1
H	-2.156075	-0.631341	-0.080647	1
H	0.525515	-2.152340	-0.382657	1
H	-1.159315	1.222879	-0.600507	1
H	0.390315	2.016539	-0.719917	1
H	-0.836655	1.069739	1.769643	1
H	-0.837985	2.612619	1.239012	1
H	4.203635	-0.056671	-0.196867	1
Es	-0.261763	1.534012	0.634880	99
Es	-0.822859	-1.360469	-0.316525	99
Es	-1.554877	-1.511253	-0.321116	99
Es	-0.083098	-1.250435	-0.311858	99
Es	0.214872	1.772912	-0.532487	99
Es	0.322938	-1.863436	-0.360696	99
Es	-0.168316	1.273211	-0.137756	99
Es	0.012453	1.798946	1.385305	99
Es	-1.748171	-1.758532	-0.982940	99
Es	3.139173	-0.060275	-0.203453	99
Es	-1.703592	-2.028821	0.179376	99
Es	-0.851522	1.222710	-0.460468	99
Es	0.255692	-0.651333	0.071368	99
Es	3.835488	-0.058999	-0.200414	99
Es	2.541590	0.034568	0.132398	99
Es	-0.641634	2.262501	1.222031	99
Es	1.267303	-0.050131	-0.200448	99
Es	2.545994	0.185958	-0.462932	99
Es	1.948491	-0.060270	-0.203450	99
Es	0.198277	0.592276	-0.164805	99
Es	-1.956411	-0.909228	-0.158828	99
Es	-0.642325	1.337943	1.541254	99
Es	0.263471	-0.601200	-0.578615	99
Es	-0.299079	1.749951	1.235887	99
Es	0.542857	-0.060168	-0.203438	99
Es	2.551578	-0.412321	-0.289312	99
