44
Properties=species:S:1:pos:R:3:Z:I:1 energy=-304.1340338822738 field_type=dipole dipole="0.000000 0.000000 0.000000" charge=0
C	-2.657602	0.087084	0.745267	6
C	-1.871812	0.082454	-0.338853	6
C	-0.775432	-0.922156	-0.583913	6
C	0.610617	-0.279406	-0.724393	6
N	1.054378	0.278384	0.540627	7
C	2.304748	0.766524	0.769907	6
N	3.373688	0.574324	0.088337	7
H	-3.443622	0.828344	0.859687	1
H	-2.546582	-0.648196	1.537137	1
H	-2.034682	0.833434	-1.111143	1
H	-1.011832	-1.456286	-1.511913	1
H	-0.753682	-1.670956	0.217477	1
H	0.593787	0.506104	-1.488683	1
H	1.313127	-1.053286	-1.054593	1
H	0.313698	0.722074	1.078567	1
H	2.352038	1.393304	1.677037	1
H	3.179168	-0.041746	-0.700553	1
Es	-0.935852	-1.272972	-1.214823	99
Es	-0.760284	-1.424359	-0.036024	99
Es	3.235859	0.201046	-0.389367	99
Es	0.595362	0.258747	-1.249926	99
Es	3.701159	0.702154	0.159640	99
Es	1.208913	0.084427	0.723437	99
Es	-2.583678	-0.409278	1.284372	99
Es	-0.090615	-0.583341	-0.643209	99
Es	1.054490	0.278950	0.540341	99
Es	3.373192	0.574150	0.088267	99
Es	2.886817	0.872581	0.184755	99
Es	-2.657658	0.087086	0.745350	99
Es	2.304555	0.766485	0.769940	99
Es	2.999559	0.415543	0.501669	99
Es	-1.319423	-0.409672	-0.454148	99
Es	-1.971060	0.589721	-0.868190	99
Es	-3.191211	0.586432	0.829303	99
Es	1.545879	0.569773	0.552782	99
Es	-2.473888	-0.109495	0.064254	99
Es	2.321834	1.191094	1.388597	99
Es	0.877311	0.059769	-0.008622	99
Es	-0.775427	-0.922087	-0.583921	99
Es	-1.871722	0.082438	-0.338944	99
Es	1.092829	-0.803984	-0.945770	99
Es	0.617282	0.560413	0.844715	99
Es	-2.052626	0.287538	0.369844	99
Es	0.610631	-0.279355	-0.724213	99
