38
Properties=species:S:1:pos:R:3:Z:I:1 energy=-301.82379229515425 field_type=dipole dipole="0.000000 0.000000 0.000000" charge=0
C	-1.525852	0.121405	0.536402	6
C	0.002328	0.129695	0.449422	6
C	0.462298	-0.610985	-0.812278	6
C	1.899107	-0.915165	-0.764328	6
N	3.028068	-1.173295	-0.712018	7
C	0.484348	1.490865	0.449422	6
N	0.868558	2.575855	0.449422	7
H	-1.870852	0.642475	1.436942	1
H	-1.908522	-0.904095	0.577342	1
H	-1.980502	0.618635	-0.328478	1
H	0.387658	-0.389685	1.336712	1
H	0.236917	-0.027265	-1.713898	1
H	-0.083552	-1.558445	-0.904668	1
Es	1.898712	-0.915122	-0.764327	99
Es	-1.769420	-0.577665	0.560481	99
Es	0.261555	0.846221	0.444865	99
Es	3.384278	-1.255578	-0.694894	99
Es	1.223964	-0.764012	-0.786801	99
Es	0.399914	2.181405	0.432423	99
Es	0.261146	-0.226683	-0.186334	99
Es	0.002371	0.129814	0.449341	99
Es	-1.747015	0.471930	1.143298	99
Es	0.328754	-0.222861	-1.402576	99
Es	2.460006	-1.303357	-0.912363	99
Es	0.115494	-1.241392	-0.862142	99
Es	0.484225	1.490516	0.449421	99
Es	-1.525769	0.121401	0.536392	99
Es	0.989696	2.923002	0.448458	99
Es	0.868403	2.575430	0.449422	99
Es	3.027621	-1.173194	-0.712037	99
Es	-0.736947	0.143899	0.480989	99
Es	0.268457	-0.200092	1.033805	99
Es	0.462462	-0.610990	-0.812215	99
Es	0.847578	2.020335	0.188968	99
Es	0.822729	2.033060	0.721449	99
Es	-1.820793	0.455284	-0.053911	99
Es	2.580724	-0.784265	-0.864474	99
Es	2.488770	-1.078370	-0.426960	99
