47
Properties=species:S:1:pos:R:3:Z:I:1 energy=-305.32399757272196 field_type=dipole dipole="0.000000 0.000000 0.000000" charge=0
C	-0.530603	-2.136116	-0.713319	6
C	-1.105063	-0.989446	0.108881	6
C	-0.426993	0.355564	-0.193269	6
C	-1.139973	1.489184	0.541741	6
N	0.963727	0.313244	0.230431	7
C	1.930777	1.100774	-0.298279	6
N	3.117187	1.231214	0.174621	7
H	-1.076793	-3.060756	-0.501279	1
H	0.523787	-2.308676	-0.477429	1
H	-0.615833	-1.930736	-1.784969	1
H	-1.011423	-1.234086	1.174541	1
H	-2.177723	-0.913466	-0.108259	1
H	-0.482103	0.544674	-1.272599	1
H	-1.105643	1.344504	1.627320	1
H	-2.190223	1.550694	0.238461	1
H	-0.670243	2.454214	0.322441	1
H	1.142897	-0.104026	1.135521	1
H	1.630077	1.651754	-1.205679	1
H	3.224167	0.641484	1.001131	1
Es	-0.455284	0.486552	-0.931445	99
Es	-0.426832	0.355560	-0.193181	99
Es	-0.906089	-2.764580	-0.566653	99
Es	-1.837466	-0.929722	-0.040977	99
Es	0.184437	-2.251219	-0.550576	99
Es	-0.758084	-0.317221	-0.039268	99
Es	-0.810415	-1.558851	-0.303933	99
Es	-0.590853	-1.989667	-1.444237	99
Es	0.376464	0.350098	0.056097	99
Es	3.159831	0.864837	0.681826	99
Es	1.930593	1.100697	-0.298276	99
Es	3.116776	1.230942	0.174766	99
Es	3.387789	1.431898	0.045572	99
Es	1.062294	0.084509	0.782276	99
Es	-1.105034	-0.989441	0.108862	99
Es	-1.032113	-1.147885	0.842827	99
Es	-0.791166	0.929634	0.179581	99
Es	-0.815786	2.143299	0.387719	99
Es	1.153581	0.185249	0.021474	99
Es	-1.112592	1.380903	1.280892	99
Es	1.712021	1.467491	-0.911631	99
Es	2.565637	1.393899	0.158463	99
Es	1.298677	0.742016	0.100104	99
Es	-1.857473	1.526564	0.331636	99
Es	-0.530623	-2.136092	-0.713303	99
Es	-1.139977	1.489179	0.541736	99
Es	2.735643	0.959372	-0.162702	99
Es	0.963669	0.313647	0.230614	99
