47
Properties=species:S:1:pos:R:3:Z:I:1 energy=-305.3236668345006 field_type=dipole dipole="0.000000 0.000000 0.000000" charge=0
C	-2.271140	-1.458291	-0.067806	6
C	-0.963950	-0.955641	0.526324	6
C	-0.670620	0.483979	0.095724	6
C	0.601980	1.048389	0.726904	6
N	1.785240	0.343149	0.285624	7
C	2.436930	0.513509	-0.895926	6
N	2.223690	1.385089	-1.809316	7
H	-2.457710	-2.490131	0.245304	1
H	-2.239450	-1.435811	-1.161686	1
H	-3.114850	-0.845321	0.264514	1
H	-0.152030	-1.619231	0.207344	1
H	-1.021340	-1.013321	1.619204	1
H	-1.512760	1.121969	0.391534	1
H	-0.603170	0.533909	-0.997936	1
H	0.536749	0.976419	1.818624	1
H	0.689579	2.115839	0.493734	1
H	2.031139	-0.477791	0.829094	1
H	3.253580	-0.217641	-1.032576	1
H	1.448140	1.990929	-1.538676	1
Es	0.666202	1.773538	0.558474	99
Es	-2.397513	-2.162848	0.146999	99
Es	-0.028536	0.762813	0.408460	99
Es	1.784921	0.342808	0.285186	99
Es	2.474301	1.225520	-1.315265	99
Es	0.560422	0.988440	1.470942	99
Es	-0.619360	0.517106	-0.647884	99
Es	-0.670597	0.483970	0.095754	99
Es	1.747714	1.743284	-1.627928	99
Es	-2.271117	-1.458283	-0.067793	99
Es	-0.963972	-0.955620	0.526304	99
Es	-2.844944	-1.035679	0.160897	99
Es	2.404368	1.424935	-2.115350	99
Es	-0.808925	-0.234244	0.313838	99
Es	-1.247313	0.921797	0.304143	99
Es	2.436892	0.513433	-0.895734	99
Es	1.916687	0.317887	-0.248686	99
Es	2.044509	0.520601	0.259993	99
Es	-1.001215	-0.990126	1.280200	99
Es	-1.619826	-1.203719	0.227050	99
Es	2.987221	0.008723	-0.975793	99
Es	1.916162	-0.160037	0.596699	99
Es	0.602123	1.048288	0.726834	99
Es	-0.404451	-1.408184	0.308034	99
Es	2.113366	0.873363	-1.572885	99
Es	2.223450	1.385012	-1.808845	99
Es	-2.245903	-1.439923	-0.813693	99
Es	1.273934	0.635253	0.450637	99
