40
Properties=species:S:1:pos:R:3:Z:I:1 energy=-318.9971102144874 field_type=dipole dipole="0.000000 0.000000 0.000000" charge=0
C	-1.425059	-0.728852	0.227165	6
C	0.095061	-0.641362	0.307135	6
C	0.725241	-1.424342	-0.763155	6
N	1.215041	-2.032442	-1.623605	7
C	0.528251	0.820318	0.226385	6
N	0.435371	1.528508	-0.936455	7
N	0.968151	1.459338	1.265065	7
H	-1.891709	-0.132972	1.019295	1
H	-1.764499	-1.764922	0.336395	1
H	-1.803059	-0.355882	-0.732035	1
H	0.416201	-1.044822	1.274945	1
H	0.578031	1.039208	-1.814415	1
H	0.935571	2.412218	-0.887515	1
H	0.987401	0.866008	2.100795	1
Es	-0.628460	-0.685996	0.245879	99
Es	0.967983	1.458856	1.265017	99
Es	-1.424955	-0.728851	0.227170	99
Es	0.865851	-1.557946	-1.438652	99
Es	0.725094	-1.424153	-0.762893	99
Es	0.970141	1.083909	1.763606	99
Es	0.320102	-0.913976	0.936325	99
Es	1.214863	-2.032230	-1.623300	99
Es	0.534491	1.224990	-1.443591	99
Es	0.435942	1.528215	-0.936255	99
Es	0.742325	2.034124	-0.910126	99
Es	0.523476	1.254689	0.924811	99
Es	0.528180	0.820266	0.226216	99
Es	-1.723179	-0.326820	0.764701	99
Es	1.273039	-1.696220	-1.117109	99
Es	0.833353	-2.004624	-1.140609	99
Es	0.430994	-1.052964	-0.264174	99
Es	-1.640631	-1.429640	0.303491	99
Es	0.095121	-0.641398	0.306969	99
Es	1.057919	1.105064	0.813627	99
Es	1.070104	1.813933	1.265345	99
Es	-1.666503	-0.477742	-0.420271	99
Es	1.368777	-2.223422	-1.894903	99
Es	0.321219	0.068261	0.229666	99
Es	0.548129	1.189086	-0.464373	99
Es	0.142342	1.547060	-0.853221	99
