48
Properties=species:S:1:pos:R:3:Z:I:1 energy=-289.2861700262709 field_type=dipole dipole="0.000000 0.000000 0.000000" charge=0
C	-2.822789	0.368994	-0.405906	6
C	-1.513729	0.047784	0.298484	6
N	-0.391439	0.325404	-0.595066	7
C	0.926102	-0.036986	-0.032586	6
C	1.382452	0.740994	1.178604	6
C	1.371421	-1.474736	-0.153856	6
C	1.985822	-0.429696	-1.036596	6
H	-3.668118	0.174394	0.262404	1
H	-2.952379	-0.247796	-1.302046	1
H	-2.866259	1.422034	-0.704546	1
H	-1.516049	-1.007166	0.593674	1
H	-1.443139	0.654614	1.207114	1
H	-0.405029	1.305354	-0.876406	1
H	2.436091	0.551494	1.412734	1
H	0.795061	0.461594	2.059124	1
H	1.266161	1.816824	1.010654	1
H	0.694841	-2.186856	-0.613076	1
H	1.982621	-1.897296	0.634754	1
H	3.015731	-0.147686	-0.848966	1
H	1.722621	-0.441276	-2.088496	1
Es	1.299823	1.475400	1.058949	99
Es	-1.510396	-0.674757	0.500216	99
Es	0.178819	0.182556	-0.321791	99
Es	1.805494	-0.436949	-1.746313	99
Es	-3.397888	0.237161	0.054561	99
Es	1.985729	-0.429758	-1.036466	99
Es	1.160806	0.351188	0.580816	99
Es	0.912253	-1.953804	-0.463937	99
Es	2.686537	-0.235251	-0.900538	99
Es	-1.513656	0.047824	0.298377	99
Es	-0.391351	0.325744	-0.594531	99
Es	1.020269	-0.814719	0.050491	99
Es	1.786683	-1.080189	-0.670379	99
Es	-2.822779	0.369002	-0.405886	99
Es	0.979066	0.551661	1.777412	99
Es	1.371446	-1.474569	-0.153906	99
Es	1.382448	0.740989	1.178597	99
Es	-2.171449	0.212948	-0.058849	99
Es	0.926067	-0.037072	-0.032690	99
Es	-2.845357	1.091689	-0.608284	99
Es	-2.909885	-0.050861	-1.013933	99
Es	-0.440205	0.133837	-0.884425	99
Es	-0.393146	0.928981	-0.732950	99
Es	-0.859367	0.223564	-0.179253	99
Es	2.099712	0.605766	1.332655	99
Es	1.787676	-1.754597	0.387128	99
Es	1.481229	-0.049078	-0.598037	99
Es	-1.468169	0.468096	0.932551	99
