48
Properties=species:S:1:pos:R:3:Z:I:1 energy=-289.2734220385106 field_type=dipole dipole="0.000000 0.000000 0.000000" charge=0
C	-0.342215	-1.911343	-1.183323	6
C	-1.095195	-1.138473	-0.106443	6
N	-0.640955	0.257447	0.026467	7
C	-1.541715	0.977307	0.933097	6
C	0.761315	0.361877	0.480497	6
C	1.846505	0.540697	-0.549773	6
C	1.491125	1.674437	0.361527	6
H	-0.797846	-2.897713	-1.321593	1
H	0.705644	-2.069933	-0.910203	1
H	-0.377085	-1.388623	-2.144773	1
H	-1.012256	-1.670483	0.849767	1
H	-2.155675	-1.145853	-0.389053	1
H	-2.572445	0.946537	0.562867	1
H	-1.266175	2.035617	0.994937	1
H	-1.521686	0.559027	1.945977	1
H	1.010624	-0.239693	1.353677	1
H	1.559074	0.624627	-1.591823	1
H	2.787084	0.028887	-0.387923	1
H	2.190404	1.934667	1.146907	1
H	0.971464	2.520987	-0.070813	1
Es	0.761303	0.361985	0.480355	99
Es	-2.245808	0.946173	0.679687	99
Es	0.933195	-0.053580	1.080778	99
Es	-0.640908	0.257176	0.027071	99
Es	-1.025030	0.554400	0.449292	99
Es	-0.032418	0.288204	0.251946	99
Es	-0.704913	-1.521315	-0.644595	99
Es	1.846421	0.540763	-0.549632	99
Es	-1.095127	-1.138365	-0.106461	99
Es	-0.342233	-1.911343	-1.183301	99
Es	-1.541642	0.977245	0.933022	99
Es	-1.823518	-1.135952	-0.295432	99
Es	1.282446	0.266266	-0.095129	99
Es	-0.658391	0.408174	-0.287314	99
Es	1.013777	1.095864	0.563594	99
Es	0.370664	-2.018828	-0.994864	99
Es	1.649456	0.597451	-1.250247	99
Es	2.487244	0.192885	-0.434461	99
Es	-1.033908	-1.507325	0.560653	99
Es	1.803407	1.215303	-0.171085	99
Es	-1.349053	1.697720	0.978130	99
Es	-1.527894	0.683894	1.635535	99
Es	-0.821666	-0.354922	0.000930	99
Es	1.135728	2.243434	0.070086	99
Es	1.965564	1.846158	0.897201	99
Es	1.491101	1.674256	0.361476	99
Es	-0.368168	-1.554633	-1.835896	99
Es	-0.658581	-2.584303	-1.271675	99
