45
Properties=species:S:1:pos:R:3:Z:I:1 energy=-288.07699163704604 field_type=dipole dipole="0.000000 0.000000 0.000000" charge=0
C	-0.249756	-2.186123	-0.089959	6
C	-0.876656	-0.817893	0.157381	6
N	-0.378816	0.228757	-0.745829	7
C	-1.148746	1.462507	-0.581129	6
C	1.067874	0.478547	-0.652909	6
C	1.533854	0.907237	0.676681	6
C	1.921004	1.256217	1.760011	6
H	-0.767196	-2.945513	0.505801	1
H	0.805804	-2.209053	0.197121	1
H	-0.331826	-2.474453	-1.143149	1
H	-0.746386	-0.540293	1.210491	1
H	-1.956726	-0.931913	-0.002269	1
H	-2.207566	1.283517	-0.800229	1
H	-0.813196	2.228367	-1.289429	1
H	-1.077816	1.872457	0.432451	1
H	1.345524	1.240347	-1.392879	1
H	1.618183	-0.417273	-0.962699	1
H	2.262444	1.564567	2.720551	1
Es	2.068383	1.052678	1.109665	99
Es	-1.098588	1.742142	0.116812	99
Es	1.252407	1.002083	-1.131207	99
Es	1.533771	0.907162	0.676463	99
Es	1.067786	0.478571	-0.652770	99
Es	0.471493	-2.196545	0.103829	99
Es	-0.426287	0.117688	-1.069359	99
Es	-0.909407	1.983995	-1.062558	99
Es	1.557517	1.398319	1.196692	99
Es	0.261596	0.351594	-0.646948	99
Es	1.307678	0.704305	0.051927	99
Es	1.439815	-0.123296	-0.837232	99
Es	-0.876578	-0.817830	0.157270	99
Es	-1.870575	1.332890	-0.725623	99
Es	-0.378692	0.228996	-0.745167	99
Es	-0.305917	-2.379422	-0.806319	99
Es	1.921081	1.256290	1.760230	99
Es	-1.148676	1.462394	-0.581154	99
Es	-0.782903	-0.625418	0.882964	99
Es	-0.699696	0.771784	-0.640489	99
Es	-0.546217	-1.499047	0.028195	99
Es	1.565637	0.803084	1.379675	99
Es	-0.605332	-2.697442	0.319434	99
Es	-1.616208	-0.887383	0.043904	99
Es	-0.571358	-0.206637	-0.325413	99
Es	-0.249766	-2.186100	-0.089944	99
Es	2.143799	1.457395	2.387153	99
