48
Properties=species:S:1:pos:R:3:Z:I:1 energy=-289.2975337297573 field_type=dipole dipole="0.000000 0.000000 0.000000" charge=0
C	-2.825525	-0.074224	0.647761	6
C	-1.325905	0.136367	0.795561	6
N	-0.626215	-0.545503	-0.290928	7
C	0.831205	-0.474913	-0.168339	6
C	1.445555	-1.400303	-1.221828	6
C	1.345585	0.927157	-0.370288	6
C	2.055235	1.608297	0.539791	6
H	-3.358915	0.441846	1.452561	1
H	-3.082825	-1.137414	0.700232	1
H	-3.190835	0.321717	-0.305779	1
H	-1.007615	-0.261754	1.765801	1
H	-1.121145	1.212567	0.784052	1
H	-0.918895	-0.168743	-1.190258	1
H	1.130105	-0.857574	0.816082	1
H	1.175745	-1.096413	-2.240579	1
H	1.108335	-2.433513	-1.079558	1
H	2.539575	-1.398504	-1.152878	1
H	1.123905	1.404137	-1.322489	1
H	2.303565	1.179337	1.505912	1
H	2.399065	2.617436	0.335172	1
Es	1.985838	1.154560	-0.030892	99
Es	1.445552	-1.400275	-1.221822	99
Es	0.009014	-0.471815	-0.237589	99
Es	-1.325882	0.136286	0.795451	99
Es	1.032887	-0.726355	0.509694	99
Es	-2.999704	-0.796877	0.684072	99
Es	-3.187186	0.281837	1.198073	99
Es	1.095232	0.243213	-0.268791	99
Es	-0.626049	-0.544867	-0.290932	99
Es	1.345528	0.927113	-0.370360	99
Es	-2.825513	-0.074205	0.647763	99
Es	0.831100	-0.474887	-0.168403	99
Es	-3.068828	0.198793	-0.008070	99
Es	1.255205	-1.182770	-1.915512	99
Es	-1.100015	-0.139276	1.458522	99
Es	-0.910860	-0.219525	0.172864	99
Es	2.292866	2.294068	0.408389	99
Es	1.215781	-2.098889	-1.121945	99
Es	-0.715632	-0.883950	-0.282034	99
Es	2.055284	1.608352	0.539866	99
Es	1.143941	-0.928605	-0.704302	99
Es	1.432898	1.396304	0.219954	99
Es	-0.791322	-0.287606	-0.829849	99
Es	2.226463	1.320318	1.197516	99
Es	1.184732	1.240867	-1.023737	99
Es	-1.186012	0.880925	0.790099	99
Es	2.191387	-1.393354	-1.172857	99
Es	-2.081913	0.029500	0.717445	99
