50
Properties=species:S:1:pos:R:3:Z:I:1 energy=-306.4866672471222 field_type=dipole dipole="0.000000 0.000000 0.000000" charge=0
C	-3.117188	-1.765067	-0.031327	6
C	-1.597788	-1.739977	0.035323	6
N	-1.118478	-0.360797	-0.042567	7
C	0.342642	-0.305537	0.018643	6
C	0.814562	1.150243	-0.010617	6
C	2.341033	1.223823	0.013463	6
N	2.789412	2.612023	0.023563	7
H	-3.478548	-2.796717	0.021473	1
H	-3.478878	-1.328297	-0.967557	1
H	-3.560228	-1.209757	0.801553	1
H	-1.195538	-2.329067	-0.797407	1
H	-1.272078	-2.207907	0.972413	1
H	-1.515148	0.183523	0.723593	1
H	0.769063	-0.843417	-0.836197	1
H	0.702512	-0.785467	0.936443	1
H	0.404263	1.689953	0.852493	1
H	0.434552	1.646143	-0.913257	1
H	2.757622	0.715533	-0.863807	1
H	2.729102	0.719793	0.905393	1
H	2.442802	3.090223	-0.807587	1
H	3.806302	2.640753	-0.034037	1
Es	-3.361216	-2.471272	0.007563	99
Es	0.814592	1.150205	-0.010618	99
Es	-0.482311	-0.351370	0.010924	99
Es	0.598119	-0.639670	0.657457	99
Es	-2.364096	-1.751385	0.004432	99
Es	-1.597787	-1.739850	0.035313	99
Es	-1.345821	-0.048987	0.443174	99
Es	-1.369999	-2.068663	0.687332	99
Es	2.789600	2.611745	0.023076	99
Es	0.581071	0.422835	0.003706	99
Es	2.341048	1.223963	0.013461	99
Es	2.607166	2.008230	-0.003827	99
Es	1.578404	1.186821	0.002508	99
Es	-1.315944	-2.141293	-0.535894	99
Es	0.633800	-0.678447	-0.568042	99
Es	0.342515	-0.305506	0.018637	99
Es	2.677838	2.781408	0.312895	99
Es	2.623399	0.861398	-0.596697	99
Es	-1.118276	-0.361062	-0.042031	99
Es	-3.361186	-1.469018	-0.667504	99
Es	-3.413966	-1.382082	0.541628	99
Es	-1.226929	-0.218733	-0.347839	99
Es	3.406181	2.615827	-0.028830	99
Es	-1.312356	-0.964921	0.017576	99
Es	2.586864	2.882292	-0.494878	99
Es	-3.117169	-1.765075	-0.031311	99
Es	0.562545	1.489331	-0.631027	99
Es	0.532585	1.512720	0.582927	99
Es	2.607566	0.876122	0.626024	99
