38
Properties=species:S:1:pos:R:3:Z:I:1 energy=-301.7017664784578 field_type=dipole dipole="0.000000 0.000000 0.000000" charge=0
C	-1.455142	0.827766	-0.225174	6
C	0.003808	0.551436	-0.064624	6
N	0.584098	-0.590794	0.122066	7
N	-0.312682	-1.656144	0.171306	7
C	0.317298	-2.766344	0.359926	6
C	0.955738	1.631476	-0.112854	6
C	1.747468	2.534816	-0.153824	6
H	-1.638452	1.897876	-0.355344	1
H	-1.994162	0.483416	0.662016	1
H	-1.834432	0.295786	-1.102294	1
H	-0.244092	-3.710854	0.424106	1
H	1.414248	-2.827154	0.463516	1
H	2.456298	3.328716	-0.188824	1
Es	-0.003069	-2.145075	-0.027697	99
Es	-0.312062	-1.656210	0.171367	99
Es	-0.056879	-3.405910	0.403949	99
Es	-1.568355	1.550109	-0.312257	99
Es	1.521385	1.895955	-0.379092	99
Es	0.483794	1.125289	-0.092818	99
Es	-0.051449	-2.078173	0.529193	99
Es	-0.684414	-1.598251	0.132373	99
Es	0.317287	-2.766393	0.359932	99
Es	-0.707097	0.694232	-0.143690	99
Es	2.208188	3.051660	-0.176489	99
Es	0.955559	1.631288	-0.112852	99
Es	-1.692719	0.473415	-0.808521	99
Es	0.957508	-0.656877	0.162297	99
Es	1.095054	2.326923	-0.227528	99
Es	-1.799482	0.598700	0.367542	99
Es	0.129799	-1.123572	0.146171	99
Es	0.299024	-0.075927	0.320619	99
Es	0.003871	0.551574	-0.064626	99
Es	-1.455042	0.827756	-0.225166	99
Es	0.347261	-0.142432	-0.236365	99
Es	1.051576	-2.814637	0.430167	99
Es	1.747623	2.534990	-0.153829	99
Es	1.406972	2.007168	0.206615	99
Es	0.583477	-0.590720	0.122004	99
