47
Properties=species:S:1:pos:R:3:Z:I:1 energy=-305.28139405268354 field_type=dipole dipole="0.000000 0.000000 0.000000" charge=0
C	-1.336036	-2.595567	-0.845310	6
N	-1.396346	-1.299037	-0.185260	7
C	-0.108727	-0.597507	-0.203990	6
C	0.077024	0.551673	-1.157800	6
C	-0.055506	0.816633	0.320260	6
C	1.118803	1.258103	1.129600	6
N	1.112804	2.710763	1.189250	7
H	-2.330467	-3.051887	-0.848980	1
H	-0.653466	-3.273887	-0.322960	1
H	-1.011036	-2.495127	-1.885550	1
H	-1.719576	-1.426117	0.773860	1
H	0.762954	-1.217267	-0.002650	1
H	-0.756016	0.830773	-1.793430	1
H	1.046874	0.667463	-1.625700	1
H	-0.984226	1.248663	0.677890	1
H	2.062703	0.907923	0.697580	1
H	1.040474	0.850443	2.142340	1
H	1.193514	3.084444	0.244990	1
H	1.936254	3.029513	1.695860	1
Es	1.626171	2.892720	1.484295	99
Es	-0.103947	0.040809	0.233365	99
Es	-0.818387	-1.015469	-0.180800	99
Es	-0.684616	1.101633	0.555738	99
Es	1.066546	0.979174	1.825552	99
Es	-0.005345	-0.145329	-0.835510	99
Es	-1.344110	-1.871983	-0.459292	99
Es	-0.484846	0.736905	-1.585534	99
Es	1.770445	1.003728	0.824932	99
Es	0.493523	-1.022256	-0.067846	99
Es	1.118790	1.258240	1.129590	99
Es	1.180503	2.921952	0.613689	99
Es	-1.627468	-1.095371	-0.347395	99
Es	-0.859065	-3.067147	-0.486522	99
Es	0.038104	0.877035	-0.454545	99
Es	0.077022	0.551620	-1.157635	99
Es	1.140705	2.081821	1.153059	99
Es	-0.055465	0.816508	0.320116	99
Es	0.540437	1.024460	0.710405	99
Es	-1.564696	-1.393721	0.402119	99
Es	-2.014528	-2.908917	-0.843073	99
Es	1.113294	2.710556	1.188997	99
Es	-1.336042	-2.595451	-0.845246	99
Es	-1.395907	-1.299393	-0.184975	99
Es	-0.108851	-0.597388	-0.204018	99
Es	0.818125	2.830705	1.342780	99
Es	-1.109200	-2.524359	-1.552555	99
Es	0.743002	0.633687	-1.468176	99
