41
Properties=species:S:1:pos:R:3:Z:I:1 energy=-302.950761068114 field_type=dipole dipole="0.000000 0.000000 0.000000" charge=0
C	-0.200113	-2.200888	-0.405694	6
N	-0.760553	-1.016328	0.235386	7
C	0.196917	0.100102	0.272026	6
C	0.319277	0.995032	-0.928604	6
C	-0.326973	1.517482	0.328736	6
C	0.372427	2.481232	1.127356	6
N	0.945247	3.256662	1.774286	7
H	-0.950403	-2.997208	-0.423644	1
H	0.675637	-2.569968	0.137866	1
H	0.086307	-1.991208	-1.441254	1
H	-1.056043	-1.266158	1.180846	1
H	1.115627	-0.107368	0.820156	1
H	-0.322913	0.805022	-1.781314	1
H	1.309506	1.346822	-1.195934	1
H	-1.403943	1.646772	0.299786	1
Es	-0.908984	-1.168552	0.813174	99
Es	-0.118921	0.829321	0.497589	99
Es	1.125984	3.501765	1.979814	99
Es	-0.760027	-1.016494	0.235689	99
Es	0.417251	2.981838	1.612293	99
Es	-0.001888	-2.051892	-1.108333	99
Es	0.319207	0.995047	-0.928402	99
Es	-1.030533	1.612177	0.319082	99
Es	-0.117469	0.869684	-1.492200	99
Es	-0.326781	1.517460	0.328727	99
Es	-0.322406	-0.533209	0.267548	99
Es	0.340277	0.407758	-0.430240	99
Es	0.408271	-2.454097	-0.032004	99
Es	0.858148	2.676664	1.599265	99
Es	-0.200166	-2.200769	-0.405627	99
Es	0.372255	2.481006	1.127158	99
Es	0.044979	2.022669	0.746829	99
Es	-0.487838	-1.522983	-0.026619	99
Es	0.983557	1.236150	-1.097907	99
Es	0.945043	3.256377	1.774059	99
Es	-0.710897	-2.741297	-0.411542	99
Es	0.196745	0.100199	0.271959	99
Es	-0.023007	1.446875	-0.341412	99
Es	0.822561	-0.031653	0.644691	99
Es	-1.040622	-0.904886	0.054934	99
Es	0.784774	3.053420	1.229389	99
