43
Properties=species:S:1:pos:R:3:Z:I:1 energy=-270.94399524612396 field_type=dipole dipole="0.000000 0.000000 0.000000" charge=0
C	-1.638201	-1.611799	-0.451494	6
C	-0.783901	-1.339719	0.543716	6
C	0.471999	-0.488479	0.492696	6
C	1.017119	-0.107479	-0.900564	6
C	0.598999	1.318061	-1.064704	6
C	0.181999	1.847291	0.089196	6
C	0.245519	0.859521	1.210546	6
H	-2.507231	-2.238939	-0.274244	1
H	-1.519921	-1.211929	-1.452464	1
H	-1.001771	-1.768799	1.521996	1
H	1.243879	-1.062789	1.022316	1
H	0.642709	-0.739559	-1.709334	1
H	2.112099	-0.163129	-0.914784	1
H	0.663619	1.855241	-2.000784	1
H	-0.140501	2.871581	0.215576	1
H	1.087879	1.102341	1.867926	1
H	-0.674291	0.878591	1.804406	1
Es	0.809339	0.604678	-1.021188	99
Es	0.196558	1.377015	0.669431	99
Es	-0.167990	-0.910741	0.491871	99
Es	0.759496	-0.536448	-1.448275	99
Es	0.647364	1.674742	-1.707697	99
Es	-1.558377	-1.344919	-1.133099	99
Es	-0.783811	-1.339683	0.543797	99
Es	0.735129	-0.318534	-0.215021	99
Es	-0.038890	2.543091	0.187053	99
Es	0.075545	1.507780	-0.567196	99
Es	-1.393897	-1.215185	0.109652	99
Es	0.181961	1.847328	0.089319	99
Es	0.685747	1.688404	-0.429376	99
Es	0.821003	1.026949	1.652121	99
Es	1.017102	-0.107451	-0.900538	99
Es	-0.379072	0.868575	1.614936	99
Es	-2.229590	-2.036341	-0.336936	99
Es	0.471947	-0.488473	0.492679	99
Es	-1.042069	-1.746218	-0.048767	99
Es	0.599049	1.318002	-1.064800	99
Es	1.760513	-0.139249	-0.905300	99
Es	0.245526	0.859519	1.210508	99
Es	-0.923378	-1.624957	1.215689	99
Es	0.346694	0.169904	0.866436	99
Es	0.992923	-0.885673	0.857190	99
Es	-1.638263	-1.611816	-0.451570	99
