42
Properties=species:S:1:pos:R:3:Z:I:1 energy=-286.9028592755577 field_type=dipole dipole="0.000000 0.000000 0.000000" charge=0
C	-3.025748	-1.125439	0.038116	6
N	-1.570748	-1.095039	0.081286	7
C	-1.073338	0.278271	0.069526	6
C	0.370662	0.278271	0.069526	6
C	1.560822	0.278271	0.069526	6
C	2.966822	0.278271	0.069526	6
C	3.669562	1.414281	0.011726	6
H	-3.369018	-2.164569	0.054676	1
H	-3.410998	-0.658769	-0.874294	1
H	-3.458308	-0.622239	0.908296	1
H	-1.196328	-1.585099	-0.730574	1
H	-1.441028	0.815251	0.951566	1
H	-1.441138	0.807731	-0.817414	1
H	3.480032	-0.677439	0.120856	1
H	3.184522	2.384400	-0.037444	1
H	4.754232	1.393851	0.015096	1
Es	2.966681	0.278188	0.069523	99
Es	3.295824	-0.366070	0.103570	99
Es	-1.358776	-1.371495	-0.426766	99
Es	-0.323913	0.278644	0.067428	99
Es	-1.310759	0.638579	0.662953	99
Es	-3.025618	-1.125434	0.038118	99
Es	-3.315357	-0.773931	0.629905	99
Es	-3.258898	-1.833250	0.044500	99
Es	0.961315	0.642520	0.060676	99
Es	3.669611	1.414351	0.011724	99
Es	-1.310281	0.643460	-0.535998	99
Es	3.294445	0.820512	-0.279156	99
Es	2.244188	0.271615	0.069518	99
Es	-1.073252	0.278154	0.069524	99
Es	-2.207189	-1.085861	0.037640	99
Es	0.988727	0.096488	-0.241314	99
Es	3.348409	2.070752	-0.021684	99
Es	1.561071	0.278268	0.069526	99
Es	-3.293340	-0.796080	-0.592573	99
Es	-1.357595	-0.480432	0.052258	99
Es	4.404127	1.405880	0.013789	99
Es	0.370404	0.278279	0.069527	99
Es	-1.570973	-1.094708	0.080738	99
Es	0.993598	0.105987	0.379165	99
Es	3.292840	0.852930	0.359606	99
Es	-1.460100	-1.252404	0.372944	99
