40
Properties=species:S:1:pos:R:3:Z:I:1 energy=-269.7394535694882 field_type=dipole dipole="0.000000 0.000000 0.000000" charge=0
C	-2.654627	-0.000265	0.860210	6
C	-1.464467	-0.000265	0.860210	6
C	-0.020468	-0.000265	0.860210	6
C	0.537193	-1.219855	0.098810	6
C	0.859323	-0.668085	-1.254880	6
C	0.860173	0.668975	-1.254830	6
C	0.537343	1.219045	0.101020	6
H	-3.720307	-0.000265	0.856070	1
H	0.338003	-0.000955	1.896310	1
H	-0.177697	-2.046415	0.034760	1
H	1.457093	-1.587995	0.565570	1
H	1.082552	-1.285025	-2.114790	1
H	1.083903	1.287215	-2.113280	1
H	1.458573	1.586975	0.567630	1
H	-0.176587	2.047185	0.036980	1
Es	0.695875	-0.975233	-0.592828	99
Es	0.204025	-0.000719	1.560875	99
Es	0.053832	-1.777811	0.058308	99
Es	1.164612	-1.462399	0.414960	99
Es	0.696321	0.975359	-0.591728	99
Es	0.234496	-0.614884	0.498735	99
Es	1.165525	1.461244	0.417289	99
Es	-3.351926	-0.000219	0.857915	99
Es	1.012242	1.099372	-1.830798	99
Es	-0.020567	-0.000265	0.860171	99
Es	0.537192	-1.219799	0.098804	99
Es	1.174981	0.000283	-1.194724	99
Es	0.859326	-0.668217	-1.254855	99
Es	-2.075495	0.337358	0.987557	99
Es	0.537343	1.218990	0.101013	99
Es	0.234559	0.614254	0.499776	99
Es	-2.071059	-0.058467	0.505893	99
Es	0.054569	1.777953	0.060771	99
Es	-2.654884	-0.000258	0.860208	99
Es	1.011006	-1.097742	-1.831795	99
Es	-0.771441	-0.000051	0.855756	99
Es	-2.074544	-0.279873	1.088366	99
Es	0.860157	0.669094	-1.254812	99
Es	0.544138	0.000614	-1.354978	99
Es	-1.464208	-0.000266	0.860215	99
