44
Properties=species:S:1:pos:R:3:Z:I:1 energy=-304.09299596080314 field_type=dipole dipole="0.000000 0.000000 0.000000" charge=0
C	-1.808396	-1.183349	0.812855	6
N	-0.422536	-0.813809	0.572655	7
C	-0.163006	0.223141	-0.161865	6
C	-1.259786	1.072111	-0.784375	6
N	1.124694	0.667021	-0.460105	7
C	2.167284	-0.359289	-0.622425	6
C	2.147034	0.511421	0.587185	6
H	-1.830666	-2.093709	1.420475	1
H	-2.338006	-1.405279	-0.118655	1
H	-2.340956	-0.408209	1.372295	1
H	-1.847316	0.465091	-1.479255	1
H	-0.831286	1.912301	-1.338825	1
H	-1.911276	1.472171	-0.003065	1
H	2.859644	-0.129859	-1.418915	1
H	1.832294	-1.384199	-0.541045	1
H	1.797124	0.103971	1.525675	1
H	2.825154	1.350481	0.637395	1
Es	2.610618	1.079030	0.624820	99
Es	-0.153263	-1.020060	0.724212	99
Es	-1.039609	-0.945456	0.656009	99
Es	-2.169396	-0.645287	1.186225	99
Es	-1.694448	1.329317	-0.252414	99
Es	1.457674	0.677763	0.067147	99
Es	-0.422902	-0.813483	0.572417	99
Es	-0.973727	1.636646	-1.156811	99
Es	1.949090	-1.046061	-0.570044	99
Es	1.918632	0.240542	1.217002	99
Es	-0.162901	0.223225	-0.161923	99
Es	-0.339113	-0.218672	0.506922	99
Es	2.640499	-0.207313	-1.162350	99
Es	1.124719	0.666474	-0.459712	99
Es	2.349932	-0.024951	0.058470	99
Es	-1.259767	1.072065	-0.784344	99
Es	1.149941	0.960430	-0.671062	99
Es	0.577446	0.439626	-0.305651	99
Es	-0.331399	-0.556021	0.033678	99
Es	-2.167726	-1.324010	0.171499	99
Es	-0.710051	0.655721	-0.478093	99
Es	2.167120	-0.359079	-0.622361	99
Es	-1.827351	-1.804366	1.227542	99
Es	2.146875	0.511418	0.586956	99
Es	1.470014	0.175670	-0.629945	99
Es	-1.808266	-1.183305	0.812827	99
Es	-1.650811	0.653656	-1.242260	99
