44
Properties=species:S:1:pos:R:3:Z:I:1 energy=-304.1219250186634 field_type=dipole dipole="0.000000 0.000000 0.000000" charge=0
C	-2.427419	-0.281313	-0.664499	6
N	-1.005979	-0.506733	-0.756579	7
C	-0.072889	0.466547	-0.561009	6
N	-0.216419	1.735357	-0.671159	7
C	1.273341	-0.031603	-0.195179	6
C	2.009301	0.558867	0.985141	6
C	1.471031	-0.836973	1.069860	6
H	-2.964019	-1.206513	-0.895469	1
H	-2.755859	0.481877	-1.377499	1
H	-2.702559	0.031087	0.347081	1
H	-0.717999	-1.439533	-0.478929	1
H	-1.172239	1.945887	-0.956849	1
H	1.885671	-0.295203	-1.052399	1
H	1.513221	1.339367	1.551430	1
H	3.079961	0.695667	0.889731	1
H	2.180311	-1.655853	1.042641	1
H	0.622541	-1.000933	1.723691	1
Es	-2.427246	-0.281345	-0.664518	99
Es	2.736455	0.643200	0.918758	99
Es	1.807099	-0.164058	1.200494	99
Es	-1.005946	-0.506589	-0.756033	99
Es	0.594518	0.199683	-0.365907	99
Es	0.033255	1.989260	-0.618678	99
Es	1.273361	-0.031639	-0.195013	99
Es	-1.610802	-0.393851	-0.702513	99
Es	-0.072943	0.466354	-0.561030	99
Es	-0.105133	1.218162	-0.899984	99
Es	-0.254192	1.250953	-0.353266	99
Es	1.675935	-0.215426	-0.772045	99
Es	1.471040	-0.836834	1.069756	99
Es	-0.656141	-0.093686	-0.565062	99
Es	-2.645732	0.240974	-1.146144	99
Es	0.887684	-0.947345	1.505055	99
Es	2.009214	0.558712	0.985041	99
Es	1.266572	-0.590724	0.353372	99
Es	-2.783424	-0.913234	-0.819689	99
Es	-0.879942	-0.442996	-1.025252	99
Es	-0.806747	1.850438	-0.843701	99
Es	1.672445	1.074508	1.369860	99
Es	-0.216764	1.734975	-0.671231	99
Es	-0.839898	-1.054661	-0.565001	99
Es	1.656221	0.418467	0.292093	99
Es	1.951394	-1.394440	1.048504	99
Es	-2.615350	-0.064119	0.026810	99
