44
Properties=species:S:1:pos:R:3:Z:I:1 energy=-304.0826573291969 field_type=dipole dipole="0.000000 0.000000 0.000000" charge=0
N	-2.053053	-0.158056	-0.842703	7
C	-0.596003	-0.172316	-0.812183	6
C	-0.028303	-1.294706	0.065747	6
C	0.801817	-0.437536	1.022007	6
C	1.509787	0.636314	0.147657	6
C	0.013677	1.018723	-0.051173	6
N	-0.115013	0.705474	1.444077	7
H	-2.399783	-1.002396	-1.291693	1
H	-2.382963	0.633464	-1.390293	1
H	-0.205683	-0.229286	-1.834463	1
H	0.590936	-1.988387	-0.512583	1
H	-0.794724	-1.869437	0.597647	1
H	1.370397	-0.923826	1.815317	1
H	2.057977	0.282614	-0.730253	1
H	2.129057	1.365263	0.683507	1
H	-0.221213	2.038203	-0.362773	1
H	0.323087	1.395893	2.052157	1
Es	-0.547585	-1.682272	0.420946	99
Es	1.509740	0.636301	0.147665	99
Es	-2.236742	0.314998	-1.196246	99
Es	-0.453714	0.614375	1.576255	99
Es	-0.114453	0.705607	1.443841	99
Es	0.402785	-1.765687	-0.328289	99
Es	0.801724	-0.437389	1.022010	99
Es	0.802453	0.890053	-0.044579	99
Es	1.188881	-0.781249	1.568144	99
Es	-1.420441	-0.164321	-0.854759	99
Es	1.893973	0.390389	-0.466911	99
Es	0.399163	-0.895675	0.561645	99
Es	-0.315256	0.455853	-0.446335	99
Es	0.288623	0.193614	1.330803	99
Es	0.189580	1.121820	1.780002	99
Es	-2.052832	-0.158100	-0.843269	99
Es	-0.099993	0.900740	0.805821	99
Es	-0.596119	-0.172301	-0.812130	99
Es	-0.160552	1.716872	-0.272891	99
Es	-2.181465	-0.139896	-0.524778	99
Es	-0.331693	-0.764386	-0.394278	99
Es	-0.313271	-0.204730	-1.517893	99
Es	0.013704	1.018662	-0.051013	99
Es	1.260963	0.044597	0.576779	99
Es	1.920714	1.135773	0.524166	99
Es	-0.028267	-1.294653	0.065744	99
Es	-2.244338	-0.665969	-1.136845	99
