44
Properties=species:S:1:pos:R:3:Z:I:1 energy=-304.0926748263024 field_type=dipole dipole="0.000000 0.000000 0.000000" charge=0
N	-1.003082	-1.726055	1.182880	7
C	-1.112572	-1.007135	-0.083130	6
C	-0.481622	0.363845	0.014060	6
C	-1.247122	1.468615	-0.071610	6
C	0.981068	0.382925	0.206920	6
C	1.877068	0.148295	-0.983680	6
N	1.762548	1.471005	-0.386740	7
H	-1.488232	-2.617315	1.096880	1
H	-1.508882	-1.199685	1.894730	1
H	-2.170982	-0.938155	-0.361010	1
H	-0.617162	-1.584875	-0.871510	1
H	-2.320662	1.418135	-0.213590	1
H	-0.800302	2.456615	-0.007090	1
H	1.319668	0.024615	1.174370	1
H	1.433118	0.037135	-1.965140	1
H	2.809918	-0.378845	-0.831050	1
H	2.567228	1.680885	0.204710	1
Es	-1.112535	-1.007169	-0.082996	99
Es	-1.312731	-2.256395	1.120869	99
Es	-0.917784	0.917468	0.300112	99
Es	-1.326252	-1.406357	1.599551	99
Es	-0.790629	-0.319627	-0.029269	99
Es	-0.664994	-1.773451	1.281274	99
Es	-1.844534	-0.948274	-0.279673	99
Es	1.918554	0.939572	-0.727826	99
Es	0.981185	0.383075	0.206762	99
Es	1.574857	0.069777	-1.649252	99
Es	-0.826124	0.921875	-0.353152	99
Es	1.597539	1.732351	-0.564393	99
Es	-0.481558	0.363721	0.014078	99
Es	2.251128	1.574712	-0.027012	99
Es	1.208191	0.144110	0.857708	99
Es	-1.247179	1.468679	-0.071620	99
Es	1.877018	0.148489	-0.983525	99
Es	1.378187	1.086553	-0.022240	99
Es	-0.770066	-1.398556	-0.619586	99
Es	0.248363	0.385743	0.110009	99
Es	1.359329	0.046202	-0.394279	99
Es	-1.068380	-1.410908	0.634305	99
Es	2.514185	-0.211448	-0.879337	99
Es	-0.957749	2.138619	-0.025818	99
Es	1.762766	1.470483	-0.386462	99
Es	-1.978166	1.434429	-0.168105	99
Es	-1.003645	-1.725967	1.182719	99
