45
Properties=species:S:1:pos:R:3:Z:I:1 energy=-288.11850269204507 field_type=dipole dipole="0.000000 0.000000 0.000000" charge=0
N	-2.752478	-0.363297	-0.146322	7
C	-1.321068	-0.674197	-0.175672	6
C	-0.480938	0.597273	-0.355062	6
C	1.007672	0.306483	-0.385322	6
C	1.655332	0.221853	-1.560482	6
C	1.758571	0.151613	0.853378	6
C	1.271631	0.223303	2.099178	6
H	-3.280578	-1.233907	-0.089022	1
H	-3.023498	0.076063	-1.025672	1
H	-1.127588	-1.372047	-0.998962	1
H	-1.058048	-1.186177	0.755858	1
H	-0.711788	1.329193	0.428878	1
H	-0.777208	1.085513	-1.294262	1
H	1.132242	0.342463	-2.503802	1
H	2.722131	0.027943	-1.621752	1
H	2.827082	-0.036797	0.749598	1
H	0.226072	0.408973	2.318248	1
H	1.932462	0.095753	2.951198	1
Es	1.758593	0.151612	0.853271	99
Es	-1.140644	-1.022100	0.461699	99
Es	-2.136328	-0.506662	-0.180551	99
Es	1.368405	0.226956	0.243123	99
Es	1.271593	0.223308	2.099272	99
Es	-0.480891	0.597228	-0.355066	99
Es	-2.834807	-0.149368	0.125037	99
Es	1.007604	0.306495	-0.385203	99
Es	-0.886955	-0.034386	-0.261992	99
Es	-3.059802	-0.898787	-0.128850	99
Es	2.380458	0.088528	-1.604105	99
Es	1.714849	0.137393	2.680167	99
Es	-2.904405	-0.114060	-0.692669	99
Es	0.564140	0.348192	2.249074	99
Es	-1.321192	-0.674114	-0.175676	99
Es	-1.176660	-1.153058	-0.747795	99
Es	1.445365	-0.127937	1.460246	99
Es	1.302175	0.304140	-2.205177	99
Es	1.406621	0.575902	-0.953998	99
Es	1.559035	0.507585	1.467506	99
Es	-2.752363	-0.363637	-0.146773	99
Es	2.482999	0.023134	0.771229	99
Es	1.285836	-0.056924	-0.971525	99
Es	-0.681631	0.921015	-1.002705	99
Es	0.269955	0.444509	-0.359881	99
Es	-0.629295	1.084413	0.182231	99
Es	1.655380	0.221834	-1.560580	99
