38
Properties=species:S:1:pos:R:3:Z:I:1 energy=-301.80079715992474 field_type=dipole dipole="0.000000 0.000000 0.000000" charge=0
N	-1.613431	0.517817	0.082657	7
C	-0.231681	0.407447	0.061277	6
C	0.328219	-0.930763	-0.125473	6
C	-0.336791	-2.001953	-0.582463	6
C	0.551489	1.491387	0.231857	6
C	1.957489	1.491387	0.231857	6
N	3.108499	1.491387	0.231857	7
H	-1.963591	1.367427	0.516177	1
H	-2.068411	-0.309893	0.462057	1
H	1.383539	-1.071983	0.106847	1
H	-1.377871	-1.961613	-0.883613	1
H	0.172749	-2.953753	-0.698523	1
H	0.089789	2.463107	0.365487	1
Es	0.033397	-0.258524	-0.031528	99
Es	3.478692	1.489938	0.232711	99
Es	1.030206	-1.008183	0.035403	99
Es	-1.041508	-1.978112	-0.779163	99
Es	0.000087	-2.643249	-0.660650	99
Es	3.108059	1.491386	0.231859	99
Es	1.285696	1.482161	0.226469	99
Es	-1.606303	0.525938	-0.220902	99
Es	-0.096688	-1.512555	-0.038095	99
Es	-0.336846	-2.002014	-0.582480	99
Es	0.551635	1.491414	0.231857	99
Es	-1.613115	0.517784	0.083185	99
Es	0.254889	1.049081	-0.155158	99
Es	0.249717	2.142647	0.324415	99
Es	-1.807730	1.019749	0.355119	99
Es	2.589152	1.661823	-0.020299	99
Es	0.272353	0.970923	0.472937	99
Es	1.957117	1.491396	0.231860	99
Es	-0.231859	0.407358	0.061250	99
Es	-1.870714	0.030418	0.321799	99
Es	-1.012171	0.469821	0.138393	99
Es	2.574576	1.182625	0.206767	99
Es	0.328225	-0.930628	-0.125460	99
Es	2.586207	1.620833	0.509901	99
Es	0.069822	-1.348779	-0.637434	99
