44
Properties=species:S:1:pos:R:3:Z:I:1 energy=-307.9073629641579 field_type=dipole dipole="0.000000 0.000000 0.000000" charge=0
C	-2.466951	0.544595	0.283994	6
C	-1.593611	0.960485	-0.863546	6
C	-0.978271	0.652245	0.472804	6
O	-0.286911	-0.607465	0.569044	8
C	1.130839	-0.388795	0.683504	6
C	1.987379	-1.533975	0.217004	6
C	1.902129	-0.279325	-0.601366	6
H	-3.090071	1.296865	0.750694	1
H	-2.903311	-0.446755	0.260084	1
H	-1.623961	1.996105	-1.178886	1
H	-1.443011	0.250675	-1.668236	1
H	-0.631701	1.483435	1.079854	1
H	1.491349	0.163455	1.546094	1
H	1.488148	-2.420265	-0.156886	1
H	2.904409	-1.731245	0.757534	1
H	2.763238	0.378175	-0.618406	1
H	1.350308	-0.318205	-1.533286	1
Es	-1.750182	0.548360	0.560349	99
Es	-2.466790	0.544649	0.283918	99
Es	1.130698	-0.388908	0.683353	99
Es	1.526616	-0.307463	-1.225577	99
Es	1.456677	-0.143568	0.008551	99
Es	-0.286717	-0.607090	0.568968	99
Es	-0.522828	-0.109365	0.535612	99
Es	-2.756095	-0.122628	0.265101	99
Es	0.249364	-0.490917	0.610182	99
Es	-0.729424	1.213349	0.885552	99
Es	2.065162	-0.979975	-0.316024	99
Es	-2.885187	1.060123	0.599612	99
Es	-0.978303	0.652031	0.472714	99
Es	-1.593649	0.960450	-0.863378	99
Es	-1.617208	1.666402	-1.073827	99
Es	-1.490141	0.479217	-1.401913	99
Es	1.515271	-1.065124	0.604635	99
Es	-0.375278	-0.736744	0.834869	99
Es	-0.326255	-0.739861	0.297299	99
Es	2.611062	-1.661087	0.584850	99
Es	1.648946	-2.126077	-0.036118	99
Es	-2.183474	0.770563	-0.398527	99
Es	2.489591	0.165377	-0.608523	99
Es	1.367923	-0.003425	1.269955	99
Es	-1.110199	0.861254	-0.277115	99
Es	1.987327	-1.533796	0.216979	99
Es	1.902099	-0.279421	-0.601220	99
