44
Properties=species:S:1:pos:R:3:Z:I:1 energy=-307.9387453629945 field_type=dipole dipole="0.000000 0.000000 0.000000" charge=0
C	-0.901080	-0.172773	-1.114548	6
C	-0.574810	0.850157	0.016392	6
C	-1.155690	-0.232083	0.975552	6
C	-0.516550	-1.231813	-0.030988	6
O	0.910380	-1.409763	0.173712	8
C	1.696590	-0.238733	-0.075528	6
C	0.927750	1.047337	0.258372	6
H	-1.952910	-0.198313	-1.424238	1
H	-0.276450	-0.130903	-2.010018	1
H	-1.135510	1.788907	-0.009848	1
H	-0.755400	-0.247433	1.992912	1
H	-2.250220	-0.268583	1.025912	1
H	-1.021770	-2.197523	-0.113218	1
H	1.976250	-0.248983	-1.134868	1
H	2.620530	-0.301003	0.507772	1
H	1.316820	1.874237	-0.346128	1
H	1.092070	1.317267	1.308762	1
Es	1.194273	1.607517	-0.159802	99
Es	-0.851018	-1.903332	-0.087387	99
Es	2.326126	-0.280941	0.325675	99
Es	0.931697	-1.466048	0.473556	99
Es	1.696423	-0.238888	-0.075464	99
Es	-0.854253	-0.793846	0.546335	99
Es	-0.470181	-0.144604	-1.731228	99
Es	-0.700032	-0.762020	-0.654932	99
Es	-1.619087	-0.193119	-1.306952	99
Es	-0.516328	-1.231737	-0.030966	99
Es	0.999065	-1.613084	-0.036269	99
Es	-0.880513	-0.241238	1.676337	99
Es	1.034510	1.229290	0.977485	99
Es	1.171087	-0.944694	0.075707	99
Es	0.910276	-1.409527	0.173624	99
Es	-1.155671	-0.232072	0.975491	99
Es	-0.882882	0.372748	0.566833	99
Es	0.377547	-1.294175	0.079202	99
Es	-0.951028	1.506059	-0.002546	99
Es	1.306852	0.407371	0.095460	99
Es	-1.902111	-0.258240	0.991307	99
Es	-0.901061	-0.172771	-1.114481	99
Es	-0.732806	0.409119	-0.623386	99
Es	1.887023	-0.235015	-0.809030	99
Es	-0.574793	0.850078	0.016386	99
Es	0.927728	1.047301	0.258347	99
Es	0.179610	0.940192	0.125974	99
