42
Properties=species:S:1:pos:R:3:Z:I:1 energy=-343.81605827954866 field_type=dipole dipole="0.000000 0.000000 0.000000" charge=0
C	-1.221236	-0.424581	-0.646697	6
O	-1.156706	1.016909	-0.669997	8
C	-0.003066	1.330079	0.129713	6
C	-0.013856	0.273919	1.213303	6
C	-0.001446	-0.825151	0.175403	6
C	1.236884	-0.422381	-0.619907	6
O	1.169294	1.019229	-0.643977	8
H	-1.206636	-0.809441	-1.671267	1
H	-2.160036	-0.716541	-0.163527	1
H	-0.007556	2.371649	0.458493	1
H	-0.921956	0.279659	1.824083	1
H	0.880374	0.281589	1.844283	1
H	-0.003986	-1.856161	0.528563	1
H	2.164634	-0.711941	-0.115197	1
H	1.245294	-0.806841	-1.643277	1
Es	-0.003062	1.329941	0.129443	99
Es	-1.221199	-0.424366	-0.646680	99
Es	-1.399932	1.115507	-0.510172	99
Es	-0.720850	1.120620	-0.364148	99
Es	-1.206513	-0.694419	-1.347254	99
Es	-0.006035	2.039764	0.345419	99
Es	1.109271	1.106552	-0.928249	99
Es	-1.156513	1.016708	-0.669807	99
Es	1.238062	-0.691961	-1.319885	99
Es	-1.163432	0.467742	-0.653437	99
Es	0.726500	1.122011	-0.347709	99
Es	-0.001446	-0.825109	0.175383	99
Es	-0.633366	0.281038	1.625974	99
Es	-0.003233	-1.529231	0.411297	99
Es	1.176997	0.469852	-0.627747	99
Es	1.871939	-0.630305	-0.269194	99
Es	0.618243	-0.658016	-0.229971	99
Es	-0.013855	0.273896	1.213269	99
Es	1.236842	-0.422156	-0.619888	99
Es	-1.091303	1.104811	-0.953602	99
Es	1.169047	1.019012	-0.643860	99
Es	-0.611694	-0.659040	-0.243448	99
Es	1.409397	1.118983	-0.479482	99
Es	-0.008048	-0.314193	0.737277	99
Es	-1.863846	-0.634075	-0.310553	99
Es	-0.009050	0.828402	0.722052	99
Es	0.596255	0.282342	1.639744	99
