47
Properties=species:S:1:pos:R:3:Z:I:1 energy=-309.1370574950566 field_type=dipole dipole="0.000000 0.000000 0.000000" charge=0
C	-1.752576	0.461666	-0.844152	6
C	-0.236806	0.428066	-0.791612	6
C	0.442104	1.457056	0.143788	6
C	1.510784	0.393266	0.456708	6
C	0.488054	-0.700414	0.027738	6
C	-0.267846	-1.319784	1.197578	6
O	1.035454	-1.770064	-0.775532	8
H	-2.135496	-0.399944	-1.398682	1
H	-2.096536	1.367886	-1.351782	1
H	-2.198236	0.450116	0.154438	1
H	0.158574	0.497036	-1.817032	1
H	-0.157556	1.744786	1.015028	1
H	0.810224	2.364676	-0.342052	1
H	2.393894	0.454656	-0.189922	1
H	1.845764	0.365226	1.497468	1
H	-0.690376	-0.560284	1.863578	1
H	0.398254	-1.949904	1.796798	1
H	-1.090036	-1.948574	0.839908	1
H	1.542354	-1.335474	-1.482262	1
Es	0.027392	1.641353	0.739438	99
Es	0.840663	-1.357570	-0.488633	99
Es	0.049437	0.469123	-1.489865	99
Es	1.035567	-1.769712	-0.775575	99
Es	-1.004248	0.438876	-0.814168	99
Es	0.488142	-0.700551	0.027618	99
Es	-1.981544	1.081787	-1.190339	99
Es	0.188931	-1.739720	1.599074	99
Es	0.693050	2.082303	-0.189082	99
Es	0.442126	1.456999	0.143779	99
Es	2.104491	0.431539	-0.000305	99
Es	0.099145	-1.000699	0.614015	99
Es	-0.825821	-1.740654	0.951411	99
Es	-0.267835	-1.319749	1.197556	99
Es	1.306492	-1.518042	-1.151612	99
Es	1.743385	0.369907	1.171576	99
Es	-2.050059	0.454045	-0.159443	99
Es	0.795439	-1.909387	-0.910787	99
Es	-2.012382	-0.126059	-1.222117	99
Es	1.510746	0.393291	0.456689	99
Es	0.059947	-0.192454	-0.418013	99
Es	1.237842	-1.918693	-0.597967	99
Es	-0.550799	-0.793088	1.643136	99
Es	0.051629	1.010016	-0.348653	99
Es	-1.752560	0.461667	-0.844155	99
Es	1.063148	-0.204097	0.279461	99
Es	1.025915	0.987558	0.340851	99
Es	-0.236810	0.428078	-0.791574	99
