39
Properties=species:S:1:pos:R:3:Z:I:1 energy=-342.6481753591959 field_type=dipole dipole="0.000000 0.000000 0.000000" charge=0
C	-1.848308	-0.202315	-0.002891	6
C	-0.368908	-0.157005	-0.000081	6
C	0.437162	0.957945	-0.001041	6
O	0.215542	2.255685	-0.004311	8
O	1.748432	0.628425	0.001939	8
C	1.802252	-0.729605	0.004799	6
C	0.532092	-1.259575	0.003749	6
H	-2.281188	0.803425	0.006969	1
H	-2.215618	-0.737045	0.878379	1
H	-2.212388	-0.718535	-0.896491	1
H	1.113692	2.630075	-0.003641	1
H	2.794342	-1.159455	0.007299	1
H	0.282892	-2.312024	0.005319	1
Es	-1.848246	-0.202315	-0.002891	99
Es	1.763547	0.125365	0.038526	99
Es	0.215894	2.255445	-0.004342	99
Es	1.929937	0.794628	0.174160	99
Es	0.690120	2.440243	-0.005833	99
Es	-0.368917	-0.156984	-0.000060	99
Es	0.089008	2.297082	-0.259128	99
Es	1.802321	-0.729295	0.004800	99
Es	1.177581	-1.009779	0.329450	99
Es	-1.101507	-0.178200	-0.001304	99
Es	0.532072	-1.259602	0.003751	99
Es	0.012107	0.324930	-0.327413	99
Es	-2.088208	-0.554066	-0.607542	99
Es	1.177505	-1.010370	-0.321997	99
Es	-2.090427	-0.566796	0.593404	99
Es	1.718803	0.620638	-0.245621	99
Es	0.356077	-1.966072	0.004939	99
Es	0.039145	-0.745800	0.002523	99
Es	-2.134556	0.478015	0.003749	99
Es	1.253431	0.743438	0.041414	99
Es	0.010602	0.327550	0.325665	99
Es	0.437469	0.958225	-0.001028	99
Es	0.314762	1.749670	-0.004562	99
Es	2.470170	-1.017087	0.006850	99
Es	0.090820	2.296670	0.253469	99
Es	1.748103	0.628186	0.001983	99
