43
Properties=species:S:1:pos:R:3:Z:I:1 energy=-270.90940144749425 field_type=dipole dipole="0.000000 0.000000 0.000000" charge=0
C	-2.136741	-1.245207	0.512037	6
C	-0.652651	-1.060497	0.533636	6
C	0.048229	0.074893	0.332946	6
C	-0.567370	1.430203	0.099206	6
C	1.564540	0.061673	0.376586	6
C	2.126789	0.277523	-0.965043	6
C	2.591919	0.452943	-2.059034	6
H	-2.388981	-2.084027	-0.145024	1
H	-2.682311	-0.373617	0.145756	1
H	-2.496171	-1.482307	1.517926	1
H	-0.101531	-1.983117	0.716326	1
H	-1.642691	1.454783	0.288946	1
H	-0.401251	1.753823	-0.933113	1
H	-0.116550	2.170173	0.769557	1
H	1.936549	-0.890997	0.773066	1
H	1.917939	0.836673	1.066987	1
H	3.000279	0.607083	-3.030763	1
Es	-0.652736	-1.060584	0.533647	99
Es	-0.264713	0.749690	0.213290	99
Es	-1.398226	-1.133759	0.520547	99
Es	-0.567348	1.430162	0.099219	99
Es	-0.310622	-0.432902	0.766500	99
Es	1.564561	0.061704	0.376452	99
Es	2.592007	0.452974	-2.059257	99
Es	2.858536	0.553687	-2.693870	99
Es	-2.298376	-1.813307	0.068907	99
Es	1.815969	-0.577634	0.625247	99
Es	-0.252860	1.922828	0.555441	99
Es	2.471360	0.025816	-1.533284	99
Es	0.048339	0.075020	0.332928	99
Es	2.038481	0.456924	-1.643933	99
Es	-0.296608	-0.553865	0.108907	99
Es	-2.136699	-1.245205	0.512040	99
Es	0.824478	0.069171	0.340994	99
Es	-1.296605	1.437453	0.227538	99
Es	-2.370698	-1.404450	1.192976	99
Es	1.801327	0.588435	0.821994	99
Es	-0.450691	1.639888	-0.592600	99
Es	1.852726	0.179395	-0.320737	99
Es	-0.278049	-1.692776	0.660448	99
Es	2.126675	0.277482	-0.964793	99
Es	-2.501567	-0.649034	0.265947	99
Es	2.582657	0.620700	-1.395644	99
