44
Properties=species:S:1:pos:R:3:Z:I:1 energy=-307.96725108159114 field_type=dipole dipole="0.000000 0.000000 0.000000" charge=0
C	-1.718583	0.504604	-0.633061	6
C	-0.200053	0.427964	-0.596781	6
C	0.412757	1.516764	0.272069	6
O	1.736067	1.056244	0.576629	8
C	1.637287	-0.364136	0.772969	6
C	0.407187	-0.791886	0.032059	6
C	-0.064273	-2.046066	-0.007721	6
H	-2.136323	-0.262646	-1.293071	1
H	-2.045433	1.480184	-1.008051	1
H	-2.152563	0.364134	0.363129	1
H	0.200457	0.518304	-1.614881	1
H	-0.130283	1.665154	1.213269	1
H	0.476197	2.477194	-0.248981	1
H	2.544657	-0.830936	0.380549	1
H	1.548067	-0.558456	1.846529	1
H	-0.966613	-2.300346	-0.554171	1
H	0.451447	-2.856076	0.499519	1
Es	0.074390	0.483229	-1.281602	99
Es	1.023174	-0.598244	0.402331	99
Es	1.891186	1.088782	0.313886	99
Es	-1.933182	1.171860	-0.889235	99
Es	1.637262	-0.363920	0.772915	99
Es	0.453264	2.174442	-0.083918	99
Es	-2.006978	0.410980	0.046742	99
Es	1.827133	1.183564	0.841798	99
Es	1.566810	-0.509590	1.502799	99
Es	0.407239	-0.791763	0.032069	99
Es	2.247080	-0.689185	0.506837	99
Es	-0.958646	0.454208	-0.609400	99
Es	1.735728	1.056038	0.576709	99
Es	-0.064296	-2.046144	-0.007726	99
Es	-1.999280	-0.018390	-1.082968	99
Es	1.673880	0.516836	0.652282	99
Es	0.080224	-0.203862	-0.287688	99
Es	-0.020130	-1.384834	0.283623	99
Es	0.284390	-2.598024	0.336061	99
Es	-0.200066	0.427941	-0.596742	99
Es	0.083273	0.981918	-0.167744	99
Es	-1.718543	0.504606	-0.633069	99
Es	0.412960	1.516677	0.272111	99
Es	-0.675966	-2.221868	-0.376565	99
Es	0.025094	1.609610	0.918577	99
Es	0.338266	-1.498669	-0.260130	99
Es	1.225211	1.212985	0.471001	99
