45
Properties=species:S:1:pos:R:3:Z:I:1 energy=-345.00273725736565 field_type=dipole dipole="0.000000 0.000000 0.000000" charge=0
C	-2.237442	0.250225	-0.652861	6
C	-0.725822	0.254125	-0.565401	6
C	-0.165842	1.390025	0.257149	6
O	1.132968	0.912475	0.609679	8
C	0.946048	-0.499085	0.774989	6
C	2.134718	-1.240665	0.196249	6
O	-0.260712	-0.912715	0.120059	8
H	-2.582201	-0.615135	-1.228651	1
H	-2.610142	1.161055	-1.130821	1
H	-2.689042	0.163105	0.341219	1
H	-0.282122	0.246535	-1.566531	1
H	-0.729312	1.558155	1.181869	1
H	-0.091482	2.329785	-0.296731	1
H	0.845878	-0.716785	1.844099	1
H	2.242678	-1.024265	-0.872661	1
H	2.008758	-2.322665	0.300579	1
H	3.063069	-0.934165	0.687759	1
Es	-0.260561	-0.912445	0.120059	99
Es	-0.180945	-1.119422	-0.088200	99
Es	1.036763	0.380829	0.668916	99
Es	-2.536756	0.199950	0.024276	99
Es	-0.566670	1.500338	0.888029	99
Es	0.634630	1.083840	0.486280	99
Es	-1.485826	0.254871	-0.607727	99
Es	2.044656	-1.972311	0.276888	99
Es	0.875583	-0.651626	1.515299	99
Es	2.759469	-1.032443	0.537782	99
Es	-0.165629	1.389951	0.257198	99
Es	-0.421617	0.261503	-1.256759	99
Es	1.549883	-0.872115	0.481419	99
Es	-2.479904	0.874465	-0.978906	99
Es	-0.117592	2.029132	-0.123089	99
Es	-0.469005	0.844120	-0.161400	99
Es	0.945884	-0.498910	0.774798	99
Es	0.194768	-0.733076	0.356352	99
Es	1.300086	0.939414	0.353112	99
Es	1.132696	0.912318	0.609616	99
Es	2.134709	-1.240661	0.196261	99
Es	2.200314	-1.089845	-0.527858	99
Es	-0.464594	-0.964979	0.343796	99
Es	-0.419440	-0.465172	-0.133482	99
Es	1.216270	1.024727	0.880927	99
Es	-2.237414	0.250241	-0.652869	99
Es	-0.725786	0.253946	-0.565262	99
Es	-2.467150	-0.331823	-1.048304	99
