45
Properties=species:S:1:pos:R:3:Z:I:1 energy=-344.97132116807626 field_type=dipole dipole="0.000000 0.000000 0.000000" charge=0
C	-1.848036	0.071222	-0.347159	6
C	-0.330056	0.130712	-0.409419	6
O	0.072984	0.139022	-1.801829	8
C	0.313944	1.217782	0.489991	6
C	1.370324	0.182382	0.912701	6
C	0.403044	-0.938188	0.469721	6
O	1.011544	-2.026778	-0.257549	8
H	-2.210676	0.056012	0.686141	1
H	-2.221646	-0.829518	-0.844829	1
H	-2.290986	0.940282	-0.843879	1
H	1.034044	0.310202	-1.792399	1
H	-0.319716	1.559922	1.315821	1
H	0.710304	2.092672	-0.032399	1
H	2.294384	0.227272	0.323541	1
H	1.630054	0.188182	1.973680	1
H	-0.207776	-1.326168	1.294281	1
H	0.588264	-1.995018	-1.136409	1
Es	-0.050463	0.743789	0.006439	99
Es	1.551075	0.187387	1.639203	99
Es	1.987707	0.214222	0.496762	99
Es	-1.098712	0.099175	-0.382317	99
Es	0.884557	0.763098	0.740939	99
Es	-2.081797	0.060646	0.361730	99
Es	-0.062396	0.380841	-1.924441	99
Es	-2.143689	0.663366	-0.681719	99
Es	-0.022623	-1.191389	1.034774	99
Es	-2.095951	-0.543835	-0.683892	99
Es	-0.123478	1.436502	1.050004	99
Es	1.370272	0.182403	0.912681	99
Es	0.767286	-1.614243	0.005850	99
Es	0.774818	-2.003049	-0.716746	99
Es	0.589266	0.231020	-1.781805	99
Es	0.403164	-0.938310	0.469589	99
Es	-1.848021	0.071218	-0.347150	99
Es	-0.049176	0.139063	-1.269303	99
Es	1.011376	-2.026490	-0.257702	99
Es	0.073203	0.139012	-1.801559	99
Es	1.299615	-1.940750	-0.301622	99
Es	0.313961	1.217729	0.489990	99
Es	0.582475	1.812972	0.129009	99
Es	-0.329970	0.130719	-0.409622	99
Es	0.945379	-0.430381	0.733148	99
Es	-0.005785	-0.471998	-0.009104	99
Es	0.931935	-2.287097	-0.121136	99
Es	0.033822	-0.153709	-1.899591	99
