44
Properties=species:S:1:pos:R:3:Z:I:1 energy=-307.9799520698451 field_type=dipole dipole="0.000000 0.000000 0.000000" charge=0
C	-1.663020	0.001921	0.764096	6
C	-0.142470	-0.001479	0.636316	6
O	0.408160	-0.004579	1.954246	8
C	0.357860	-1.234089	-0.148444	6
C	0.832259	-0.666019	-1.447594	6
C	0.835099	0.668011	-1.444894	6
C	0.363760	1.233121	-0.144454	6
H	-2.154370	0.005171	-0.215084	1
H	-2.005130	0.879721	1.325156	1
H	-2.008660	-0.876689	1.321256	1
H	1.377430	-0.006099	1.869806	1
H	-0.439200	-1.965289	-0.322704	1
H	1.184099	-1.744699	0.360496	1
H	1.143600	-1.278309	-2.282894	1
H	1.149630	1.282191	-2.277824	1
H	1.192090	1.738611	0.367876	1
H	-0.431130	1.968501	-0.315354	1
Es	0.357875	-1.234071	-0.148488	99
Es	0.329930	-0.274568	2.084291	99
Es	0.333593	0.268208	2.081180	99
Es	-1.986093	0.004098	0.092068	99
Es	0.224381	-0.004809	1.449894	99
Es	0.923567	-1.569841	0.197119	99
Es	0.108218	-0.637253	0.245355	99
Es	0.111354	0.635275	0.247343	99
Es	0.930856	1.565399	0.203160	99
Es	0.363773	1.233105	-0.144498	99
Es	1.048197	1.095696	-2.006593	99
Es	-0.907978	0.000228	0.696864	99
Es	0.598478	-0.981942	-0.815041	99
Es	-1.892858	-0.600417	1.135966	99
Es	-0.176859	1.730488	-0.260545	99
Es	0.603078	0.982703	-0.811634	99
Es	-0.184313	-1.728740	-0.266784	99
Es	-1.663004	0.001921	0.764080	99
Es	0.931570	-0.007034	1.884418	99
Es	0.530625	0.001981	-1.577864	99
Es	-0.142387	-0.001477	0.636502	99
Es	1.142780	0.000123	-1.350461	99
Es	0.835094	0.668144	-1.444879	99
Es	0.408326	-0.004569	1.953950	99
Es	-1.890329	0.603730	1.138686	99
Es	1.043142	-1.092543	-2.010914	99
Es	0.832252	-0.666154	-1.447578	99
