41
Properties=species:S:1:pos:R:3:Z:I:1 energy=-306.78703161679533 field_type=dipole dipole="0.000000 0.000000 0.000000" charge=0
C	-2.085790	-1.300587	0.443881	6
C	-0.632110	-1.261667	0.105041	6
C	0.078270	-0.131147	0.002481	6
C	1.539680	0.001343	-0.342109	6
C	1.714280	1.487453	-0.368339	6
C	0.542690	2.046683	-0.068859	6
O	-0.470891	1.136413	0.170921	8
H	-2.375070	-2.319046	0.722241	1
H	-2.690290	-1.002567	-0.418089	1
H	-2.317270	-0.648987	1.292571	1
H	-0.141170	-2.214787	-0.065599	1
H	1.763420	-0.434997	-1.319819	1
H	2.174060	-0.447817	0.428171	1
H	2.631820	2.006563	-0.592279	1
H	0.268370	3.083143	0.009791	1
Es	0.542380	2.046581	-0.068779	99
Es	-0.205402	-0.739806	0.385231	99
Es	0.078277	-0.130788	0.002503	99
Es	-2.237658	-0.857982	1.014189	99
Es	1.958946	-0.302886	0.175108	99
Es	-0.652890	1.165993	-0.047702	99
Es	1.714348	1.487378	-0.368347	99
Es	-2.279492	-1.996382	0.631244	99
Es	1.663803	0.743321	-0.364858	99
Es	-2.085737	-1.300596	0.443867	99
Es	-2.488007	-1.096404	-0.140046	99
Es	-0.244636	0.664866	0.106372	99
Es	-0.294631	-1.906029	-0.011821	99
Es	-0.470493	1.136325	0.170774	99
Es	0.811748	-0.079580	-0.169791	99
Es	2.335213	1.830168	-0.519643	99
Es	1.683844	-0.294804	-0.995711	99
Es	-0.535510	1.157583	0.449895	99
Es	1.247934	1.785038	0.094482	99
Es	1.086919	1.792757	-0.550797	99
Es	-1.354006	-1.277662	0.273952	99
Es	-0.359328	-0.706088	-0.270764	99
Es	-0.072686	1.470495	0.078167	99
Es	-0.632159	-1.261712	0.105050	99
Es	1.539632	0.001390	-0.342097	99
Es	0.351354	2.743403	-0.013735	99
