45
Properties=species:S:1:pos:R:3:Z:I:1 energy=-344.9608968557359 field_type=dipole dipole="0.000000 0.000000 0.000000" charge=0
C	-1.696875	-1.027255	0.160900	6
C	-0.511905	-0.778905	-0.759250	6
C	0.417335	0.293355	-0.252620	6
C	1.291815	-0.027855	0.926300	6
O	0.566045	0.159345	2.134890	8
C	0.818695	1.421035	-1.185240	6
O	-0.183085	1.601885	-0.180010	8
H	-2.355575	-1.788335	-0.268870	1
H	-2.282415	-0.113885	0.306440	1
H	-1.372625	-1.381055	1.143770	1
H	-0.894205	-0.509795	-1.751540	1
H	0.049555	-1.711575	-0.888970	1
H	2.173055	0.620995	0.961630	1
H	1.643855	-1.063225	0.887620	1
H	0.074205	0.994225	2.021120	1
H	0.491625	1.394145	-2.217780	1
H	1.770495	1.916895	-1.038390	1
Es	0.314110	0.604743	2.059294	99
Es	0.776970	0.204608	2.351065	99
Es	1.291666	-0.027823	0.926451	99
Es	-0.044368	-0.237956	-0.499537	99
Es	0.417221	0.293644	-0.252618	99
Es	1.897669	0.423174	0.934337	99
Es	0.830904	0.102382	1.660135	99
Es	0.185020	1.639202	-0.590979	99
Es	1.463934	1.766016	-1.081491	99
Es	-0.511891	-0.778883	-0.759217	99
Es	0.854423	0.132954	0.325915	99
Es	0.818480	1.421060	-1.185016	99
Es	-1.696839	-1.027252	0.160856	99
Es	0.357460	-0.065648	2.149125	99
Es	-0.182834	1.601638	-0.180195	99
Es	-1.091601	-0.895291	-0.293309	99
Es	-0.118898	-1.410984	-0.842229	99
Es	-0.768466	-0.585983	-1.436060	99
Es	-0.461734	1.590542	-0.311060	99
Es	-0.017392	1.083608	-0.122670	99
Es	-2.091527	-0.406922	0.255712	99
Es	-2.142697	-1.546965	-0.139677	99
Es	1.525482	-0.735362	0.890032	99
Es	0.787949	0.709443	-0.832427	99
Es	-1.474258	-1.270016	0.821244	99
Es	0.590310	1.408472	-1.887130	99
Es	0.566037	0.159549	2.134623	99
Es	-0.061718	1.756820	0.063568	99
