39
Properties=species:S:1:pos:R:3:Z:I:1 energy=-342.60290498083003 field_type=dipole dipole="0.000000 0.000000 0.000000" charge=0
C	-1.052770	-1.865404	-0.530911	6
C	-0.573710	-1.218254	0.541919	6
C	0.515220	-0.175204	0.563279	6
O	1.009670	0.116716	-0.767091	8
C	0.830920	1.478805	-0.816141	6
C	0.277900	1.968786	0.273579	6
O	0.001940	1.011896	1.219599	8
H	-1.846130	-2.599204	-0.429811	1
H	-0.670990	-1.674374	-1.529601	1
H	-0.998350	-1.448434	1.516089	1
H	1.357870	-0.548584	1.159149	1
H	1.141570	1.973006	-1.717641	1
H	0.006860	2.980255	0.517579	1
Es	1.040016	1.809806	-1.420877	99
Es	0.831004	1.478516	-0.816240	99
Es	0.515149	-0.174929	0.563119	99
Es	0.251737	1.721368	-0.424922	99
Es	0.813778	0.007399	-0.961069	99
Es	0.002065	1.011881	1.219323	99
Es	0.113502	1.374084	0.852615	99
Es	-0.578941	-1.771609	0.049307	99
Es	-0.848851	-1.365264	1.206756	99
Es	-1.029613	-1.301314	-0.035678	99
Es	-0.293049	0.991125	1.221684	99
Es	1.087590	-0.432872	0.970257	99
Es	1.009601	0.117002	-0.766780	99
Es	0.940408	0.639517	-0.777782	99
Es	0.197594	0.570103	0.953083	99
Es	0.870322	1.815885	-0.153492	99
Es	0.096627	2.646647	0.437848	99
Es	-1.052797	-1.865446	-0.530966	99
Es	1.302168	0.073823	-0.761645	99
Es	-1.588201	-2.362341	-0.465581	99
Es	-0.802938	-1.744565	-1.203591	99
Es	-0.035220	-0.699417	0.534446	99
Es	-0.573638	-1.218183	0.542001	99
Es	0.181119	1.068980	1.447745	99
Es	0.277799	1.968664	0.273851	99
Es	0.813176	0.024119	-0.261605	99
