44
Properties=species:S:1:pos:R:3:Z:I:1 energy=-307.9854502831576 field_type=dipole dipole="0.000000 0.000000 0.000000" charge=0
C	-2.320534	0.296278	-0.084044	6
C	-0.845804	0.045038	0.102956	6
C	-0.491564	-1.399602	0.314546	6
C	0.014846	1.081158	0.112226	6
C	1.497976	1.052498	0.241106	6
C	2.294906	-0.023492	-0.445814	6
O	2.051326	1.961408	0.859746	8
H	-2.546074	1.355738	-0.245614	1
H	-2.877714	-0.031072	0.799826	1
H	-2.689594	-0.257012	-0.953904	1
H	-1.214974	-1.873232	0.987436	1
H	0.487266	-1.532942	0.779746	1
H	-0.507844	-1.937662	-0.638194	1
H	-0.361044	2.099957	0.037536	1
H	1.713466	-0.510732	-1.232234	1
H	2.628746	-0.760962	0.287456	1
H	3.166616	0.434638	-0.922774	1
Es	1.497956	1.052469	0.241085	99
Es	1.863933	1.772059	0.427947	99
Es	2.051252	1.961091	0.859541	99
Es	-0.379197	0.621663	0.430062	99
Es	0.173664	-1.482289	0.623480	99
Es	0.749638	1.031361	0.171488	99
Es	1.894455	-0.355736	-0.971553	99
Es	-2.320492	0.296259	-0.084041	99
Es	-0.505493	-1.748477	-0.330710	99
Es	1.837878	1.497356	0.846622	99
Es	2.873573	0.287754	-0.758134	99
Es	-0.656234	-0.673296	0.205756	99
Es	2.294876	-0.023473	-0.445789	99
Es	-2.556164	-0.084900	-0.669008	99
Es	-0.987096	-1.706593	0.764121	99
Es	-1.580939	0.174367	0.012800	99
Es	0.014938	1.081188	0.112236	99
Es	-0.341243	0.557311	-0.222108	99
Es	2.505047	-0.508773	0.051502	99
Es	-2.685617	0.068314	0.513918	99
Es	2.367728	1.935099	0.861441	99
Es	1.845885	2.167606	0.982424	99
Es	1.883995	0.496385	-0.108665	99
Es	-0.235991	1.764451	0.053895	99
Es	-2.467256	1.014784	-0.193778	99
Es	-0.491579	-1.399554	0.314532	99
Es	-0.845893	0.044925	0.102974	99
