47
Properties=species:S:1:pos:R:3:Z:I:1 energy=-309.14580695257706 field_type=dipole dipole="0.000000 0.000000 0.000000" charge=0
C	-2.853203	-1.027316	0.819484	6
C	-1.341343	-1.007136	0.651944	6
C	-0.816693	0.420274	0.495374	6
C	0.677567	0.439154	0.333334	6
C	1.306747	0.938124	-0.742596	6
C	2.789107	0.978344	-0.911216	6
O	3.126437	0.239624	-2.073606	8
H	-3.207793	-2.055996	0.935854	1
H	-3.349713	-0.593416	-0.053856	1
H	-3.156863	-0.460706	1.705094	1
H	-1.069433	-1.607076	-0.225416	1
H	-0.878463	-1.485206	1.524314	1
H	-1.076323	1.010124	1.381834	1
H	-1.304973	0.900294	-0.361246	1
H	1.259047	0.031024	1.159494	1
H	0.727957	1.357334	-1.562376	1
H	3.322297	0.549284	-0.057076	1
H	3.127227	2.010574	-1.045706	1
H	2.718417	-0.637306	-1.973636	1
Es	-1.067828	-0.287669	0.573182	99
Es	-1.341366	-1.007098	0.651950	99
Es	3.430067	0.198657	-2.066867	99
Es	2.984275	0.503023	-1.623627	99
Es	3.013328	1.681117	-1.003204	99
Es	2.981655	0.374853	-2.306885	99
Es	3.145344	0.683370	-0.312746	99
Es	1.068745	0.157481	0.899082	99
Es	0.918191	1.222454	-1.302598	99
Es	0.995630	0.384219	-0.358152	99
Es	2.899887	-0.227612	-2.000134	99
Es	-0.062911	0.428887	0.410281	99
Es	-3.094631	-1.730029	0.898798	99
Es	1.011948	0.982718	-0.069804	99
Es	3.126055	0.239567	-2.073386	99
Es	1.306803	0.938160	-0.742662	99
Es	-2.853182	-1.027317	0.819482	99
Es	-1.147013	0.745491	-0.093771	99
Es	2.789112	0.978225	-0.911403	99
Es	-3.057027	-0.637571	1.425119	99
Es	-1.154195	-1.414093	0.048483	99
Es	-0.987016	0.817873	1.101324	99
Es	0.677504	0.439109	0.333420	99
Es	-1.020765	-1.330551	1.252835	99
Es	-0.816643	0.420248	0.495377	99
Es	-2.101507	-1.012236	0.736481	99
Es	-3.188871	-0.728343	0.221418	99
Es	2.039545	0.959621	-0.812426	99
