44
Properties=species:S:1:pos:R:3:Z:I:1 energy=-307.93316327615685 field_type=dipole dipole="0.000000 0.000000 0.000000" charge=0
C	-0.955992	-0.308386	1.583064	6
C	0.413018	-0.216956	0.907034	6
C	0.409487	-0.812476	-0.509886	6
C	-0.554782	-0.147506	-1.489096	6
O	-0.445933	-0.777056	-2.761496	8
C	0.895037	1.144214	0.907034	6
C	1.292318	2.266114	0.907034	6
H	-0.888442	-0.001586	2.632704	1
H	-1.334422	-1.335066	1.558994	1
H	-1.695132	0.342464	1.104694	1
H	1.106807	-0.824686	1.503244	1
H	0.166588	-1.882306	-0.454006	1
H	1.424048	-0.771636	-0.930426	1
H	-0.341712	0.917814	-1.616786	1
H	-1.591812	-0.255346	-1.160256	1
H	0.453038	-0.608596	-3.092536	1
H	1.647887	3.270994	0.910684	1
Es	1.103398	-0.774699	-0.799801	99
Es	-0.632914	-0.627039	-2.949352	99
Es	0.894950	1.143970	0.907031	99
Es	-0.955946	-0.308387	1.583039	99
Es	-0.402192	0.584739	-1.565841	99
Es	-0.069862	-0.470289	-0.979567	99
Es	0.886360	-0.611206	1.308182	99
Es	-0.445737	-0.776953	-2.761429	99
Es	1.105387	1.714777	1.265601	99
Es	-0.462614	-0.531862	-2.280370	99
Es	0.045371	-0.675161	-2.920614	99
Es	1.292407	2.266363	0.907032	99
Es	0.405223	-0.483434	0.201944	99
Es	-1.206182	-1.010204	1.560093	99
Es	1.387940	1.615842	0.717439	99
Es	0.236475	-1.537719	-0.461768	99
Es	-0.466472	-1.081620	-2.712725	99
Es	0.409483	-0.812434	-0.509840	99
Es	1.524711	2.923051	0.908621	99
Es	-1.261433	-0.224043	-1.258645	99
Es	-0.265988	-0.244005	1.232230	99
Es	-0.554726	-0.147640	-1.489274	99
Es	0.799794	1.823611	0.733720	99
Es	-1.453416	0.132287	1.250340	99
Es	0.413016	-0.216852	0.907010	99
Es	0.660257	0.493913	0.902990	99
Es	-0.903978	-0.101175	2.294288	99
