44
Properties=species:S:1:pos:R:3:Z:I:1 energy=-307.95021423562133 field_type=dipole dipole="0.000000 0.000000 0.000000" charge=0
C	-2.175545	-1.867429	1.391994	6
C	-0.758805	-1.452449	1.178203	6
C	-0.392015	-0.371299	0.480953	6
O	0.926565	-0.024119	0.333543	8
C	1.306616	0.988471	-0.540817	6
C	0.567495	1.147990	-1.837496	6
C	2.395736	1.709961	-0.246017	6
H	-2.406865	-1.867879	2.461593	1
H	-2.329595	-2.879709	1.006104	1
H	-2.882144	-1.199689	0.889174	1
H	0.010905	-2.076809	1.624864	1
H	-1.102175	0.303691	0.027623	1
H	0.412585	0.174871	-2.314617	1
H	1.125035	1.771621	-2.545127	1
H	-0.404505	1.624551	-1.678246	1
H	2.937535	1.537250	0.678653	1
H	2.769175	2.480980	-0.910386	1
Es	-0.391726	-0.371129	0.480841	99
Es	1.003514	0.052633	0.604304	99
Es	1.684506	1.607651	-0.241563	99
Es	1.008233	0.375627	-0.001983	99
Es	0.919855	1.062367	-1.179236	99
Es	-1.465926	-1.648946	1.279282	99
Es	-2.325806	-1.866705	2.114948	99
Es	0.567512	1.147986	-1.837439	99
Es	0.464448	0.490355	-2.146555	99
Es	-2.175497	-1.867411	1.391984	99
Es	-2.651255	-1.408877	1.047483	99
Es	0.948828	1.570955	-2.302498	99
Es	-2.273127	-2.551249	1.130229	99
Es	1.043350	-0.240631	0.204483	99
Es	2.395793	1.709996	-0.246016	99
Es	2.763896	1.599414	0.376454	99
Es	1.306383	0.988202	-0.540720	99
Es	-0.870756	0.091850	0.165767	99
Es	0.415788	-0.122625	0.348432	99
Es	-0.243375	-1.878060	1.481587	99
Es	-0.581243	-1.106296	0.551219	99
Es	0.926256	-0.023924	0.333389	99
Es	-0.087112	1.463947	-1.717724	99
Es	-0.599263	-0.735391	1.109946	99
Es	2.647718	2.228708	-0.699374	99
Es	-0.758858	-1.452507	1.178246	99
Es	2.063419	1.151428	-0.540740	99
