47
Properties=species:S:1:pos:R:3:Z:I:1 energy=-309.14787254008115 field_type=dipole dipole="0.000000 0.000000 0.000000" charge=0
C	-2.645758	-1.135678	-0.820270	6
C	-1.167148	-1.121458	-0.454420	6
C	-0.560268	0.284782	-0.534710	6
O	-1.248268	1.154142	0.356720	8
C	0.914662	0.257071	-0.218220	6
C	1.555982	0.983312	0.712700	6
C	3.027272	0.909371	0.963670	6
H	-3.033188	-2.159188	-0.783880	1
H	-2.802888	-0.749138	-1.832440	1
H	-3.235048	-0.529998	-0.124260	1
H	-0.629488	-1.802888	-1.124720	1
H	-1.065208	-1.517238	0.563930	1
H	-0.688448	0.684142	-1.547030	1
H	-1.147718	0.779191	1.247640	1
H	1.499592	-0.420258	-0.839830	1
H	1.006132	1.692802	1.327720	1
H	3.527522	0.205032	0.291930	1
H	3.213232	0.590262	1.993660	1
H	3.479042	1.895742	0.821810	1
Es	3.324678	1.577870	0.867945	99
Es	0.914606	0.257007	-0.218300	99
Es	-1.182997	0.933919	0.829229	99
Es	3.145217	0.694910	1.660809	99
Es	1.279023	0.852803	0.027059	99
Es	-1.092201	-1.382960	0.248705	99
Es	1.556055	0.983352	0.712778	99
Es	-2.905839	-1.837340	-0.795475	99
Es	-1.905890	-1.119600	-0.640077	99
Es	3.027231	0.909376	0.963669	99
Es	-0.793533	-1.582710	-0.915900	99
Es	-0.981715	0.811184	0.038860	99
Es	-1.248133	1.153858	0.356811	99
Es	-0.854085	-0.423975	-0.493471	99
Es	-0.643008	0.553335	-1.222960	99
Es	-3.043630	-0.728044	-0.346957	99
Es	0.188630	0.271873	-0.364545	99
Es	-2.747883	-0.871021	-1.513213	99
Es	1.307275	-0.210007	-0.646593	99
Es	1.171151	0.369444	0.472321	99
Es	-1.095660	1.420350	0.357265	99
Es	2.291887	0.939279	0.832877	99
Es	-1.167166	-1.121442	-0.454432	99
Es	-2.645721	-1.135691	-0.820270	99
Es	1.190825	1.461063	1.137493	99
Es	3.363148	0.428722	0.504718	99
Es	-0.560333	0.284889	-0.534528	99
Es	-1.546748	1.133616	0.286312	99
