48
Properties=species:S:1:pos:R:3:Z:I:1 energy=-346.1584119930105 field_type=dipole dipole="0.000000 0.000000 0.000000" charge=0
C	-1.808464	2.271906	-0.699716	6
C	-1.270704	1.317086	0.350804	6
C	-0.683694	0.056906	-0.274286	6
O	-0.175274	-0.761584	0.776844	8
C	0.405986	-1.961224	0.281234	6
O	1.594526	-1.734394	-0.469276	8
C	2.631216	-1.190814	0.338394	6
H	-2.227574	3.162716	-0.222446	1
H	-2.597944	1.799507	-1.292096	1
H	-1.013434	2.593176	-1.379526	1
H	-2.070294	1.041546	1.049114	1
H	-0.504474	1.819506	0.952804	1
H	-1.458854	-0.488954	-0.824296	1
H	0.123956	0.324176	-0.964976	1
H	-0.311994	-2.488533	-0.356566	1
H	0.626006	-2.617304	1.130704	1
H	3.533406	-1.111734	-0.273276	1
H	2.843866	-1.843014	1.189784	1
H	2.363736	-0.188973	0.686784	1
Es	1.594468	-1.734343	-0.468890	99
Es	-0.354830	-0.480327	0.356193	99
Es	-2.093543	2.877589	-0.373737	99
Es	-1.219232	-0.322566	-0.657920	99
Es	0.041558	-1.204746	0.557050	99
Es	0.562457	-2.404989	0.872610	99
Es	0.406106	-1.960946	0.281187	99
Es	1.684426	-2.013683	-0.552215	99
Es	3.245941	-1.138645	-0.078451	99
Es	0.056484	-0.606543	0.902929	99
Es	-0.133301	0.243451	-0.750991	99
Es	2.631050	-1.190910	0.338264	99
Es	-1.270705	1.317083	0.350748	99
Es	-0.175275	-0.761692	0.776496	99
Es	-2.346533	1.944931	-1.103967	99
Es	-1.539053	1.791492	-0.183397	99
Es	-0.683623	0.056781	-0.274094	99
Es	2.452044	-0.507486	0.581355	99
Es	1.161033	-1.804060	-0.156967	99
Es	-0.742438	1.661065	0.754079	99
Es	-0.086457	-2.316994	-0.167095	99
Es	-1.808454	2.271886	-0.699700	99
Es	-0.417488	-0.855641	0.939987	99
Es	1.520515	-1.517886	-0.673924	99
Es	2.772255	-1.638448	0.928106	99
Es	-0.978037	0.684399	0.035163	99
Es	-1.821455	1.126453	0.821215	99
Es	1.965996	-1.529986	-0.133311	99
Es	-1.262941	2.487720	-1.163860	99
