45
Properties=species:S:1:pos:R:3:Z:I:1 energy=-344.9479849866962 field_type=dipole dipole="0.000000 0.000000 0.000000" charge=0
C	-2.718394	0.629869	0.433549	6
C	-1.274664	0.322269	0.774029	6
O	-0.666835	-0.306451	-0.353351	8
C	0.700645	-0.686251	-0.103191	6
C	1.559596	-0.809831	-1.330851	6
C	1.750735	0.352439	-0.403331	6
O	2.923096	0.331649	0.426189	8
H	-3.221174	1.118999	1.273399	1
H	-3.259835	-0.288621	0.184219	1
H	-2.777725	1.283199	-0.443161	1
H	-1.227684	-0.348271	1.638469	1
H	-0.738884	1.248479	1.008809	1
H	0.889465	-1.393011	0.698069	1
H	1.097395	-0.616111	-2.292231	1
H	2.308206	-1.591521	-1.352571	1
H	1.407066	1.323019	-0.746611	1
H	3.248995	-0.569851	0.588569	1
Es	2.072260	-1.334880	-1.330637	99
Es	-1.274600	0.322167	0.773839	99
Es	2.835175	0.440533	0.699037	99
Es	0.700523	-0.686148	-0.103365	99
Es	-3.084199	0.004494	0.271161	99
Es	-2.754176	1.078120	-0.157537	99
Es	1.168871	-0.071583	-0.083908	99
Es	-1.998890	0.476174	0.602628	99
Es	2.480209	0.303253	0.107915	99
Es	1.527336	1.006847	-0.625809	99
Es	-0.822755	-0.567624	-0.400235	99
Es	-0.644088	-0.090025	-0.568600	99
Es	2.922956	0.331344	0.426030	99
Es	1.750889	0.352261	-0.403225	99
Es	-0.863367	-0.072699	0.090818	99
Es	0.828750	-1.161543	0.448857	99
Es	1.789405	-0.175247	-0.989977	99
Es	1.047418	-0.908860	-0.766400	99
Es	3.140342	0.464068	0.263842	99
Es	-0.904731	0.961345	0.940270	99
Es	-0.666678	-0.306389	-0.353059	99
Es	-3.052696	0.962651	1.010488	99
Es	3.066968	-0.166065	0.492983	99
Es	1.559552	-0.809769	-1.330701	99
Es	1.246822	-0.678443	-1.971658	99
Es	-0.145811	-0.443282	-0.223202	99
Es	-1.239461	-0.140192	1.374561	99
Es	-2.718369	0.629870	0.433569	99
