41
Properties=species:S:1:pos:R:3:Z:I:1 energy=-306.74112178796753 field_type=dipole dipole="0.000000 0.000000 0.000000" charge=0
C	-1.586778	-2.204815	0.617505	6
C	-1.981298	-0.939375	0.797585	6
O	-1.300588	0.218865	0.553325	8
C	0.020182	0.099985	0.016505	6
C	0.583102	1.503055	-0.193015	6
C	1.926432	1.461895	-0.787795	6
C	3.022352	1.428385	-1.278045	6
H	-2.258638	-3.021085	0.864265	1
H	-0.611388	-2.472915	0.230795	1
H	-2.964838	-0.698925	1.188625	1
H	-0.014548	-0.432535	-0.942515	1
H	0.658572	-0.455025	0.715755	1
H	0.609172	2.033955	0.766055	1
H	-0.095548	2.078495	-0.833995	1
H	3.993812	1.400035	-1.715055	1
Es	2.501292	1.799835	-1.009458	99
Es	0.455360	-0.279852	0.493209	99
Es	0.583227	1.503006	-0.193074	99
Es	2.348453	1.291094	-1.334406	99
Es	3.655760	1.409804	-1.562720	99
Es	0.019958	0.100077	0.016597	99
Es	-0.003801	-0.264328	-0.637002	99
Es	-1.586753	-2.204864	0.617492	99
Es	-0.927417	-2.382715	0.355983	99
Es	-1.300529	0.218394	0.553000	99
Es	0.145671	1.881082	-0.633120	99
Es	0.315331	0.810732	-0.094121	99
Es	-1.981192	-0.939058	0.797551	99
Es	3.022573	1.428377	-1.278144	99
Es	-1.277813	0.318973	0.826905	99
Es	-1.473353	0.344350	0.351136	99
Es	-0.811758	0.134604	0.352467	99
Es	0.619592	1.851661	0.443964	99
Es	-2.646721	-0.776023	1.062200	99
Es	1.281808	1.473603	-0.501415	99
Es	1.926178	1.461901	-0.787679	99
Es	-2.039131	-2.751827	0.783744	99
Es	2.599602	1.234733	-0.765644	99
Es	-1.517046	-0.253081	0.625106	99
Es	-1.644929	-1.624519	1.008432	99
Es	-1.887257	-1.611544	0.390318	99
