40
Properties=species:S:1:pos:R:3:Z:I:1 energy=-269.7039430828988 field_type=dipole dipole="0.000000 0.000000 0.000000" charge=0
C	-3.008803	-0.211167	0.324045	6
C	-1.564803	-0.211167	0.324045	6
C	-0.374644	-0.211167	0.324045	6
C	1.069356	-0.211167	0.324045	6
C	1.609076	-0.975577	-0.881765	6
C	1.551376	1.150003	0.324045	6
C	1.948657	2.271903	0.324045	6
H	-3.402773	0.809723	0.335695	1
H	-3.402864	-0.731697	1.202285	1
H	-3.402783	-0.711467	-0.565915	1
H	1.427006	-0.717297	1.229645	1
H	1.287867	-0.522927	-1.829875	1
H	1.258996	-2.014897	-0.878405	1
H	2.705697	-0.991477	-0.879825	1
H	2.298636	3.278373	0.323885	1
Es	1.587251	1.780293	0.634605	99
Es	1.323458	-0.567530	-0.268022	99
Es	0.332686	-0.200943	0.323656	99
Es	-3.256048	0.471974	0.331860	99
Es	1.585808	1.777489	0.011725	99
Es	1.299580	-0.533161	0.925993	99
Es	-3.008692	-0.211169	0.324045	99
Es	1.609052	-0.975542	-0.881707	99
Es	1.551280	1.149741	0.324048	99
Es	-2.265068	-0.211429	0.323772	99
Es	-0.965672	-0.024070	0.632266	99
Es	-3.256182	-0.560154	0.912316	99
Es	-1.565079	-0.211177	0.324040	99
Es	-0.962293	-0.040695	0.003950	99
Es	1.368290	-1.678500	-0.868976	99
Es	1.309619	0.490098	0.323539	99
Es	2.097182	1.598383	0.322599	99
Es	1.948754	2.272140	0.324033	99
Es	-0.961530	-0.579207	0.332636	99
Es	1.388101	-0.663991	-1.516814	99
Es	2.352584	-0.982675	-0.870350	99
Es	-3.256403	-0.546579	-0.272225	99
Es	1.069296	-0.211067	0.324011	99
Es	2.178123	2.929357	0.323729	99
Es	-0.374375	-0.211164	0.324047	99
