47
Properties=species:S:1:pos:R:3:Z:I:1 energy=-309.13836007770885 field_type=dipole dipole="0.000000 0.000000 0.000000" charge=0
C	-2.861912	-0.237589	-0.219606	6
C	-1.492922	-0.105679	0.418294	6
O	-0.508892	-0.425979	-0.563426	8
C	0.825288	-0.389439	-0.050056	6
C	1.704198	-1.181299	-1.012906	6
C	1.289858	1.039751	0.018044	6
C	1.733598	1.642631	1.128994	6
H	-3.651322	0.005271	0.497494	1
H	-3.019492	-1.257349	-0.586506	1
H	-2.951302	0.429631	-1.083456	1
H	-1.412842	-0.795359	1.265454	1
H	-1.353322	0.919961	0.774804	1
H	0.861308	-0.876359	0.932704	1
H	1.650118	-0.774429	-2.029556	1
H	1.357798	-2.218929	-1.074926	1
H	2.751308	-1.184499	-0.692726	1
H	1.241318	1.606721	-0.909416	1
H	1.791208	1.120401	2.079214	1
H	2.046008	2.682541	1.107574	1
Es	-0.521976	-0.204440	-0.777492	99
Es	-0.559809	-0.720517	-0.631901	99
Es	-2.861894	-0.237585	-0.219581	99
Es	-1.492794	-0.105743	0.418117	99
Es	1.289832	1.039694	0.017966	99
Es	1.733642	1.642673	1.129082	99
Es	1.213061	1.439605	0.657514	99
Es	1.774119	1.291001	1.776749	99
Es	-0.852282	-0.296131	-0.167375	99
Es	-2.180779	-0.172727	0.098292	99
Es	0.825106	-0.389408	-0.050176	99
Es	1.948928	2.347014	1.122925	99
Es	-1.433564	-0.581741	1.008448	99
Es	-2.921579	0.220976	-0.800993	99
Es	1.255167	1.414166	-0.615179	99
Es	-2.968962	-0.932618	-0.462080	99
Es	1.271736	-0.776827	-0.533449	99
Es	1.469338	-1.885119	-1.046483	99
Es	-0.014919	-0.397525	-0.334671	99
Es	-3.394207	-0.070317	0.275967	99
Es	-1.396369	0.598475	0.668478	99
Es	1.064458	0.337905	-0.005451	99
Es	2.413943	-1.177968	-0.787441	99
Es	0.849412	-0.716038	0.633195	99
Es	1.704192	-1.181283	-1.012883	99
Es	1.668549	-0.895112	-1.698022	99
Es	-0.508814	-0.425930	-0.563072	99
Es	1.821301	1.247078	0.513897	99
