48
Properties=species:S:1:pos:R:3:Z:I:1 energy=-346.1711444490721 field_type=dipole dipole="0.000000 0.000000 0.000000" charge=0
C	-1.809993	-1.023312	-0.000164	6
C	-0.299493	-0.877602	0.149986	6
O	0.326007	-1.823972	-0.725064	8
C	0.231347	0.539538	-0.165604	6
C	-0.424233	1.610708	0.707316	6
C	1.759927	0.607798	0.003316	6
O	2.422297	-0.216912	-0.946784	8
H	-2.351743	-0.440502	0.749676	1
H	-2.103803	-2.073332	0.107766	1
H	-2.137133	-0.705942	-0.996284	1
H	-0.017403	-1.159172	1.170956	1
H	-0.041363	-1.683652	-1.618124	1
H	0.010957	0.755978	-1.219764	1
H	-0.284903	1.393948	1.771716	1
H	-1.497793	1.684958	0.509536	1
H	0.007697	2.596648	0.503846	1
H	2.064457	0.293878	1.007606	1
H	2.119517	1.630368	-0.151694	1
H	2.025657	-1.109432	-0.858244	1
Es	-0.041631	-0.163141	-0.003089	99
Es	0.639758	-1.752473	-0.738745	99
Es	-2.172614	-0.623200	0.508299	99
Es	0.227402	-2.099505	-0.636960	99
Es	0.119242	-1.729253	-1.196965	99
Es	2.331256	-0.111155	-1.222626	99
Es	0.085243	-1.459372	-0.419763	99
Es	-1.067919	-0.937459	0.072623	99
Es	2.422062	-0.217061	-0.946601	99
Es	-0.125026	2.277530	0.566625	99
Es	2.219065	-0.672923	-0.881993	99
Es	0.231328	0.539536	-0.165549	99
Es	0.983313	0.566379	-0.072698	99
Es	0.073790	0.681990	-0.888391	99
Es	-2.003338	-1.733829	0.076147	99
Es	-0.104395	1.071261	0.279433	99
Es	-2.022674	-0.802024	-0.684662	99
Es	2.719936	-0.223888	-0.862651	99
Es	-0.299423	-0.877743	0.149805	99
Es	1.953815	0.392116	0.707293	99
Es	-0.424219	1.610682	0.707304	99
Es	1.759983	0.607653	0.003165	99
Es	0.325812	-1.823667	-0.725180	99
Es	-1.155546	1.655773	0.572944	99
Es	2.155150	0.080076	-0.574127	99
Es	-1.809983	-1.023297	-0.000169	99
Es	-0.326897	1.455895	1.432392	99
Es	-0.103257	-1.066821	0.849296	99
Es	1.996491	1.314176	-0.100306	99
