44
Properties=species:S:1:pos:R:3:Z:I:1 energy=-307.94509688486596 field_type=dipole dipole="0.000000 0.000000 0.000000" charge=0
C	0.684433	-2.888406	0.693446	6
O	-0.655747	-2.615096	0.301076	8
C	-0.929877	-1.353746	-0.147444	6
C	-0.099977	-0.311356	-0.305224	6
C	-0.549487	1.029054	-0.811034	6
C	-0.274907	2.107204	0.196936	6
C	0.510333	3.169414	-0.025954	6
H	0.731363	-3.928486	1.029456	1
H	0.984553	-2.249326	1.530356	1
H	1.371663	-2.775036	-0.151224	1
H	-1.988627	-1.292216	-0.380044	1
H	0.957663	-0.398206	-0.077454	1
H	-1.623537	1.026224	-1.032304	1
H	-0.032407	1.236324	-1.755584	1
H	-0.762527	2.007054	1.165096	1
H	1.013023	3.319474	-0.976164	1
H	0.664053	3.917124	0.746056	1
Es	0.713805	-3.594784	0.920873	99
Es	0.892495	-2.445318	1.259673	99
Es	0.684202	-2.888355	0.693375	99
Es	-0.713542	-2.767028	0.057639	99
Es	0.854534	3.274668	-0.670506	99
Es	-0.551826	-0.704694	0.089103	99
Es	-0.549467	1.029032	-0.810977	99
Es	-0.274973	2.107097	0.196935	99
Es	0.386672	2.481235	0.193377	99
Es	-0.140553	-2.677426	0.438588	99
Es	0.510399	3.169495	-0.025970	99
Es	1.155583	-2.802084	0.117547	99
Es	-0.824891	-2.624982	0.539099	99
Es	-0.705805	-2.116663	0.139596	99
Es	-0.655503	-2.614838	0.301049	99
Es	-1.277708	1.025958	-0.951760	99
Es	-0.128237	2.817392	-0.028968	99
Es	0.615984	-0.370392	-0.150047	99
Es	-0.406099	1.565109	-0.305048	99
Es	-0.929883	-1.354060	-0.147344	99
Es	0.619661	3.681307	0.493333	99
Es	-0.427815	-0.899910	-0.544708	99
Es	-1.648518	-1.307784	-0.306141	99
Es	-0.099949	-0.311294	-0.305240	99
Es	-0.610026	2.030126	0.851241	99
Es	-0.333246	0.355108	-0.549145	99
Es	-0.192622	1.171308	-1.446759	99
