41
Properties=species:S:1:pos:R:3:Z:I:1 energy=-306.72588435944067 field_type=dipole dipole="0.000000 0.000000 0.000000" charge=0
C	-0.399441	-2.014871	-0.984529	6
O	-0.532811	-1.174211	0.154271	8
C	-0.021161	0.145259	-0.064149	6
C	-0.527041	0.983459	1.075981	6
C	-1.265521	2.096019	0.951431	6
C	1.422839	0.145259	-0.064149	6
C	2.612999	0.145259	-0.064149	6
H	-0.909981	-2.958511	-0.773519	1
H	0.653539	-2.235361	-1.183759	1
H	-0.863271	-1.559421	-1.864719	1
H	-0.413801	0.532419	-1.012659	1
H	-0.279091	0.628209	2.074311	1
H	-1.553411	2.486749	-0.019189	1
H	-1.602281	2.635619	1.831171	1
H	3.678439	0.144129	-0.056349	1
Es	2.012974	0.495727	-0.141841	99
Es	-0.270119	0.408813	-0.710028	99
Es	0.732348	0.144823	-0.068423	99
Es	-0.713841	-1.694865	-1.591964	99
Es	-0.532651	-1.174113	0.153953	99
Es	-0.832597	-1.129473	0.190004	99
Es	-0.313347	-0.675954	0.035165	99
Es	1.422585	0.145260	-0.064155	99
Es	-1.461817	2.364337	0.293862	99
Es	-0.462942	-1.463369	-0.297045	99
Es	2.024945	-0.095311	-0.332156	99
Es	-0.747320	-2.654426	-0.841086	99
Es	-1.495355	2.466020	1.541269	99
Es	2.613274	0.145257	-0.064136	99
Es	-0.399469	-2.014730	-0.984355	99
Es	-1.265559	2.096103	0.951416	99
Es	-0.351896	0.736603	1.742140	99
Es	-0.021111	0.145067	-0.064073	99
Es	3.308225	0.144761	-0.060052	99
Es	-0.357890	-1.294426	0.373929	99
Es	-0.257130	0.568524	0.498438	99
Es	0.319984	-2.160324	-1.128190	99
Es	-1.169926	1.366515	1.010092	99
Es	-0.526977	0.983357	1.075940	99
Es	-0.621089	1.722898	0.996946	99
Es	2.024551	0.036670	0.277217	99
