50
Properties=species:S:1:pos:R:3:Z:I:1 energy=-310.3217524209537 field_type=dipole dipole="0.000000 0.000000 0.000000" charge=0
C	-2.049230	-1.536561	0.156263	6
O	-0.717640	-1.058551	0.286333	8
C	-0.515680	0.252459	-0.254287	6
C	-1.203820	1.310648	0.609833	6
C	1.006870	0.510979	-0.373127	6
C	1.738560	0.431309	0.970743	6
C	1.646950	-0.478761	-1.354487	6
H	-2.062880	-2.589381	0.450803	1
H	-2.393120	-1.462152	-0.879747	1
H	-2.723550	-0.990221	0.821133	1
H	-0.942980	0.291519	-1.264877	1
H	-0.980910	1.167528	1.671673	1
H	-2.291880	1.242728	0.508723	1
H	-0.908400	2.321449	0.312493	1
H	1.153570	1.520038	-0.779357	1
H	1.621960	-0.551751	1.437203	1
H	1.368520	1.187649	1.670083	1
H	2.810430	0.612728	0.836473	1
H	1.574630	-1.509671	-0.994257	1
H	2.708320	-0.247561	-1.498247	1
H	1.160290	-0.424421	-2.333377	1
Es	1.309837	-0.438804	-2.025753	99
Es	1.006866	0.510943	-0.373114	99
Es	-0.998030	1.996173	0.401553	99
Es	1.646945	-0.478735	-1.354486	99
Es	1.364568	0.469274	0.308364	99
Es	-1.203827	1.310647	0.609817	99
Es	1.098321	1.207175	-0.652831	99
Es	1.738550	0.431326	0.970718	99
Es	-2.049027	-1.536482	0.156277	99
Es	-0.816347	0.280646	-0.955743	99
Es	-0.864942	0.793205	0.188872	99
Es	-2.059839	-2.253773	0.356124	99
Es	1.660685	-0.234450	1.283425	99
Es	-0.718005	-1.058295	0.286205	99
Es	-0.669033	-1.030970	0.585501	99
Es	-1.045916	1.213564	1.327601	99
Es	1.324034	0.007785	-0.867344	99
Es	-1.946265	1.261183	0.535962	99
Es	-2.518952	-1.157434	0.607027	99
Es	-0.515710	0.252283	-0.254161	99
Es	-2.289579	-1.478057	-0.557576	99
Es	1.482706	0.950192	1.447307	99
Es	-1.237321	-1.205176	0.219940	99
Es	-0.682252	-0.563339	0.075043	99
Es	2.470373	0.557118	0.871422	99
Es	0.244456	0.376861	-0.300048	99
Es	-0.546634	-1.246473	0.112307	99
Es	2.373267	-0.315344	-1.450514	99
Es	1.599922	-1.175511	-1.108553	99
