42
Properties=species:S:1:pos:R:3:Z:I:1 energy=-343.7893495528418 field_type=dipole dipole="0.000000 0.000000 0.000000" charge=0
O	-2.028665	0.238814	-0.167193	8
C	-0.595055	0.079914	-0.356893	6
C	0.267226	1.032134	0.532137	6
C	1.172926	-0.162836	0.869367	6
C	0.022305	-1.097456	0.463627	6
C	-0.228905	0.087564	-1.901323	6
O	0.886635	-0.028316	-2.408823	8
H	-2.167544	0.222764	0.795997	1
H	-0.266665	1.442984	1.396857	1
H	0.766325	1.854034	0.010517	1
H	2.053725	-0.243296	0.222357	1
H	1.493816	-0.233256	1.911837	1
H	0.325866	-1.976336	-0.112673	1
H	-0.597085	-1.430566	1.304447	1
H	-1.104915	0.213854	-2.560243	1
Es	0.513594	0.264890	-2.208980	99
Es	0.600350	1.595249	0.176619	99
Es	-0.833467	0.173989	-2.333051	99
Es	0.022297	-1.097386	0.463605	99
Es	-0.338701	-0.564842	-0.004986	99
Es	0.869881	-0.015455	-2.713424	99
Es	0.221670	-1.697663	0.070700	99
Es	0.453255	-0.237439	-2.227731	99
Es	-0.111904	1.292059	1.119018	99
Es	1.172841	-0.162825	0.869356	99
Es	0.886372	-0.028289	-2.408681	99
Es	0.267203	1.032072	0.532111	99
Es	1.390160	-0.210799	1.585789	99
Es	-0.228885	0.087558	-1.901230	99
Es	-1.487652	0.179076	-0.226669	99
Es	-2.099308	0.522729	-0.265262	99
Es	0.771747	0.490760	0.736478	99
Es	0.635063	-0.698639	0.698172	99
Es	1.114811	-0.064025	-2.197150	99
Es	-0.201625	0.626045	0.032962	99
Es	-2.028418	0.238806	-0.166959	99
Es	-0.410113	-1.301376	1.035735	99
Es	-0.595255	0.079936	-0.356931	99
Es	-2.080782	0.228145	0.352247	99
Es	-2.159718	-0.016031	-0.281483	99
Es	-0.407543	0.083001	-1.127102	99
Es	1.760121	-0.216108	0.428208	99
