42
Properties=species:S:1:pos:R:3:Z:I:1 energy=-343.8434694901813 field_type=dipole dipole="0.000000 0.000000 0.000000" charge=0
O	-2.234703	0.077497	-0.732980	8
C	-0.828212	0.065157	-0.776160	6
C	-0.240543	1.159597	0.106260	6
C	1.161637	0.661027	0.432170	6
C	0.989258	-0.830233	0.704200	6
C	-0.190012	-1.175793	-0.168900	6
O	-0.611613	-2.312073	-0.345270	8
H	-2.523782	-0.799533	-1.051260	1
H	-0.483953	0.163327	-1.811090	1
H	-0.831363	1.281807	1.022960	1
H	-0.227572	2.128837	-0.402200	1
H	1.821157	0.810797	-0.431520	1
H	1.600988	1.185607	1.285690	1
H	1.875067	-1.401463	0.419190	1
H	0.723648	-1.014553	1.748910	1
Es	0.795775	-0.955781	1.393854	99
Es	-0.190003	-1.175794	-0.168903	99
Es	-0.611361	-2.311770	-0.345134	99
Es	1.607688	0.756992	-0.164559	99
Es	1.095922	-0.089825	0.583160	99
Es	0.411361	-1.011594	0.264395	99
Es	-0.240515	1.159556	0.106241	99
Es	-0.228298	1.818703	-0.241127	99
Es	-0.574481	0.118092	-1.474478	99
Es	-0.828402	0.065116	-0.776113	99
Es	-0.638790	1.225297	0.729554	99
Es	1.575568	-1.219027	0.510781	99
Es	0.989214	-0.830206	0.704162	99
Es	-0.867240	-2.313658	-0.536129	99
Es	-2.234465	0.077209	-0.733096	99
Es	0.466019	0.925727	0.271717	99
Es	-0.549374	0.625129	-0.345957	99
Es	-2.372503	-0.389057	-0.909396	99
Es	-2.318750	0.288641	-0.936539	99
Es	-0.518421	-0.565967	-0.477165	99
Es	1.460366	1.019594	1.013283	99
Es	-2.304628	0.090959	-0.436028	99
Es	-0.611803	-1.879966	-0.083986	99
Es	-0.450597	-2.531647	-0.194249	99
Es	-1.690749	0.042453	-0.756594	99
Es	-0.309110	-1.932606	-0.483990	99
Es	1.161603	0.660993	0.432164	99
