45
Properties=species:S:1:pos:R:3:Z:I:1 energy=-344.9997816954858 field_type=dipole dipole="0.000000 0.000000 0.000000" charge=0
O	-1.614156	0.289305	1.337518	8
C	-0.187876	0.301505	1.211328	6
C	0.247854	-1.058535	0.673728	6
C	-0.125266	-1.208935	-0.800232	6
C	0.363984	-0.013205	-1.605662	6
O	-0.148646	1.208975	-1.070692	8
C	0.282324	1.426195	0.278738	6
H	-1.938756	1.195795	1.202838	1
H	0.218644	0.459595	2.214668	1
H	-0.220636	-1.867595	1.246328	1
H	1.334374	-1.161225	0.780388	1
H	0.296084	-2.136185	-1.204532	1
H	-1.216206	-1.278175	-0.886182	1
H	1.459894	0.031395	-1.625542	1
H	0.019074	-0.093425	-2.640782	1
H	1.373724	1.520525	0.293988	1
H	-0.144416	2.383995	0.594098	1
Es	0.996334	-1.118208	0.746279	99
Es	-0.452048	1.169373	-1.051571	99
Es	0.363899	-0.013028	-1.605549	99
Es	0.128167	-0.068052	-2.312897	99
Es	1.126509	0.013250	-1.608202	99
Es	-1.613934	0.289606	1.337525	99
Es	0.247853	-1.058497	0.673702	99
Es	0.065363	-1.127605	-0.062817	99
Es	-0.068841	-1.604237	1.067483	99
Es	0.171368	-1.839839	-1.078797	99
Es	0.031795	-0.376064	0.939199	99
Es	-0.148414	1.208729	-1.070510	99
Es	0.048947	0.864574	0.742491	99
Es	-0.188099	0.301515	1.211290	99
Es	0.063237	0.740880	-1.240096	99
Es	1.036053	1.479951	0.297844	99
Es	-1.767177	0.785642	1.267076	99
Es	-1.673622	0.210214	1.627256	99
Es	0.127562	-0.615444	-1.198769	99
Es	0.282247	1.426134	0.278542	99
Es	-0.862478	-1.254054	-0.863018	99
Es	-0.022718	1.436653	-1.233964	99
Es	-1.717598	0.129946	1.100766	99
Es	-0.016638	2.077858	0.503027	99
Es	-1.077108	0.323522	1.281696	99
Es	0.033943	1.257497	-0.556199	99
Es	-0.125224	-1.208910	-0.800208	99
Es	0.107555	0.417953	1.899239	99
