39
Properties=species:S:1:pos:R:3:Z:I:1 energy=-342.66004946095677 field_type=dipole dipole="0.000000 0.000000 0.000000" charge=0
O	-2.431285	-0.254365	-0.426264	8
C	-1.236545	-0.202975	-0.151824	6
C	-0.551445	1.068625	0.267246	6
C	0.897475	0.988315	-0.169604	6
O	1.562465	-0.169175	0.352476	8
C	0.868245	-1.334695	0.161056	6
C	-0.432665	-1.440625	-0.126794	6
H	-1.042355	1.923475	-0.207504	1
H	-0.635755	1.155635	1.355576	1
H	1.442955	1.868304	0.186226	1
H	0.982674	0.973165	-1.263834	1
H	1.515645	-2.192065	0.297736	1
H	-0.939405	-2.383615	-0.274494	1
Es	-0.871197	1.640119	-0.053294	99
Es	-2.574490	0.030204	-0.411638	99
Es	-0.814893	-0.825809	-0.152902	99
Es	-2.528637	-0.547234	-0.495297	99
Es	-2.430983	-0.254379	-0.426202	99
Es	1.305497	-1.912066	0.252224	99
Es	-0.551407	1.068572	0.267224	99
Es	0.063634	-1.383783	0.307224	99
Es	-0.879934	0.438658	0.050110	99
Es	0.201132	-1.350319	-0.322525	99
Es	-0.432689	-1.440577	-0.126811	99
Es	-0.606250	1.112195	0.991374	99
Es	1.817859	-0.210858	0.205552	99
Es	-1.945631	-0.196402	-0.570972	99
Es	-0.762223	-2.070011	-0.225197	99
Es	0.942581	0.969900	-0.917560	99
Es	-2.053204	-0.275994	-0.088228	99
Es	0.897545	0.988095	-0.169488	99
Es	1.562178	-0.169185	0.352350	99
Es	1.263240	-0.597112	0.247414	99
Es	1.534377	-0.172728	0.637676	99
Es	-1.236494	-0.202977	-0.151816	99
Es	0.868483	-1.334465	0.161110	99
Es	1.283681	0.239326	0.153927	99
Es	0.170056	1.020646	0.055711	99
Es	1.267991	1.583697	0.074761	99
