39
Properties=species:S:1:pos:R:3:Z:I:1 energy=-342.64944504151026 field_type=dipole dipole="0.000000 0.000000 0.000000" charge=0
O	-2.642030	-0.043708	0.092456	8
C	-1.418380	0.000382	-0.001034	6
C	-0.621751	1.297101	0.023486	6
O	0.642550	1.179251	-0.618964	8
C	1.441169	0.133642	-0.069094	6
C	0.698539	-1.167189	-0.056044	6
C	-0.638000	-1.257708	-0.056514	6
H	-1.190610	2.060861	-0.514984	1
H	-0.485420	1.620071	1.061026	1
H	1.771889	0.404742	0.939466	1
H	2.329110	0.040932	-0.702214	1
H	1.294489	-2.075388	-0.046784	1
H	-1.181551	-2.192988	-0.050804	1
Es	-0.621546	1.296998	0.023396	99
Es	-1.017517	-0.632913	-0.042903	99
Es	1.058234	-0.527205	-0.057454	99
Es	1.440979	0.133747	-0.069167	99
Es	-2.176633	-0.031191	0.307669	99
Es	1.652174	0.301746	0.623101	99
Es	-1.007690	0.639690	0.004882	99
Es	-1.418340	0.000380	-0.001041	99
Es	0.169880	1.189272	-0.347479	99
Es	-2.641727	-0.043686	0.092431	99
Es	-0.638062	-1.257653	-0.056516	99
Es	1.112121	-1.772518	-0.045611	99
Es	-1.004730	1.803280	-0.335138	99
Es	-1.000313	-1.882304	-0.054677	99
Es	0.642422	1.179000	-0.618691	99
Es	-0.014000	-1.190815	-0.375525	99
Es	-2.776222	0.243355	0.108983	99
Es	-2.218695	-0.022231	-0.192830	99
Es	-2.749744	-0.338436	0.097091	99
Es	0.790595	1.441894	-0.560329	99
Es	0.578129	1.084481	-0.901975	99
Es	0.698662	-1.167166	-0.056039	99
Es	-0.535317	1.494129	0.733187	99
Es	2.037001	0.061171	-0.495245	99
Es	0.918780	0.771717	-0.379865	99
Es	-0.023094	-1.188308	0.263682	99
