49
Properties=species:S:1:pos:R:3:Z:I:1 energy=-273.3047931025636 field_type=dipole dipole="0.000000 0.000000 0.000000" charge=0
C	-0.400930	-2.219872	-1.284556	6
C	-0.774080	-1.427372	-0.037636	6
C	-0.238190	0.019998	-0.043586	6
C	-0.796500	0.779888	1.178434	6
C	-0.401740	2.251258	1.216454	6
C	1.274610	0.037138	-0.050656	6
C	2.012980	0.587248	-1.021916	6
H	-0.863390	-3.211462	-1.249556	1
H	0.680820	-2.362202	-1.363916	1
H	-0.752060	-1.714562	-2.189536	1
H	-0.410280	-1.963302	0.848394	1
H	-1.868770	-1.405782	0.036354	1
H	-0.615890	0.515968	-0.948286	1
H	-0.468760	0.297888	2.108474	1
H	-1.892490	0.721898	1.164524	1
H	0.675250	2.374438	1.363774	1
H	-0.907960	2.752808	2.047244	1
H	-0.686290	2.758868	0.289864	1
H	1.778790	-0.429392	0.793494	1
H	1.557570	1.065868	-1.884366	1
H	3.097310	0.570678	-0.973006	1
Es	0.528730	0.027630	-0.045468	99
Es	-1.548597	0.737212	1.163093	99
Es	-0.590767	1.518039	1.191476	99
Es	-0.238157	0.019976	-0.043546	99
Es	1.651216	0.603128	-0.388739	99
Es	-1.525310	-1.406099	0.012519	99
Es	-0.750564	2.591886	1.784752	99
Es	1.656577	0.033434	-0.707200	99
Es	-0.774055	-1.427362	-0.037668	99
Es	0.330573	2.332445	1.316408	99
Es	-0.642447	-1.870049	-1.901701	99
Es	1.607220	-0.283828	0.529934	99
Es	-0.719704	-2.896963	-1.258574	99
Es	1.707509	0.913763	-1.610242	99
Es	2.013043	0.587292	-1.021999	99
Es	2.750769	0.580020	-0.995962	99
Es	1.274533	0.037084	-0.050575	99
Es	-0.565470	0.445191	1.814471	99
Es	-0.401756	2.251234	1.216456	99
Es	-0.579247	-1.819895	-0.666348	99
Es	-0.489686	-0.704397	-0.041741	99
Es	-0.796473	0.779908	1.178410	99
Es	-0.492766	0.361506	-0.666441	99
Es	-0.597955	2.594602	0.580295	99
Es	-0.518414	-1.790985	0.572530	99
Es	-0.499688	0.401565	0.568215	99
Es	0.334311	-2.315106	-1.336214	99
Es	-0.400946	-2.219861	-1.284534	99
