39
Properties=species:S:1:pos:R:3:Z:I:1 energy=-342.63509698152114 field_type=dipole dipole="0.000000 0.000000 0.000000" charge=0
O	-1.991412	-1.465266	0.544133	8
C	-1.027122	-1.547836	-0.215767	6
C	0.087788	-0.495256	-0.376017	6
C	-0.357542	0.971464	-0.661347	6
C	0.733618	1.399833	0.339483	6
O	1.338938	2.429914	0.540113	8
C	0.810158	-0.024036	0.923273	6
H	-0.914552	-2.438616	-0.856067	1
H	0.817198	-0.835346	-1.126887	1
H	-1.366882	1.233914	-0.331757	1
H	-0.195012	1.315104	-1.685017	1
H	1.824028	-0.406736	1.055693	1
H	0.240788	-0.137136	1.850163	1
Es	0.581915	-0.726686	-0.885341	99
Es	1.294410	1.984990	0.293679	99
Es	-1.987152	-1.198877	0.709564	99
Es	0.435752	-0.350869	0.291699	99
Es	0.423789	-0.085851	1.524144	99
Es	-1.774256	-1.378658	0.086575	99
Es	1.247692	2.655005	0.353679	99
Es	-0.469739	-1.020344	-0.295096	99
Es	-0.936758	-2.153216	-0.660968	99
Es	-0.244942	1.199945	-1.347795	99
Es	0.820675	0.698554	0.697125	99
Es	1.544177	2.392487	0.761955	99
Es	0.164417	1.257861	-0.193181	99
Es	-2.176572	-1.710000	0.526636	99
Es	0.810121	-0.024025	0.923195	99
Es	1.490712	-0.280179	1.008072	99
Es	1.338765	2.429641	0.540052	99
Es	0.733579	1.399755	0.339462	99
Es	0.087744	-0.495231	-0.375968	99
Es	-1.027094	-1.547795	-0.215764	99
Es	-1.505256	-1.607808	0.448489	99
Es	-1.991153	-1.465298	0.543931	99
Es	-0.197911	0.189296	-0.568477	99
Es	-1.014001	1.140092	-0.427137	99
Es	0.948294	2.130265	0.638268	99
Es	-0.357494	0.971403	-0.661310	99
