42
Properties=species:S:1:pos:R:3:Z:I:1 energy=-343.8101813059484 field_type=dipole dipole="0.000000 0.000000 0.000000" charge=0
O	-0.567542	-1.821939	-1.491068	8
C	-0.396742	-1.420389	-0.140148	6
C	0.450438	-0.162149	-0.122338	6
C	-0.202112	1.114971	-0.729208	6
C	0.312938	1.864301	0.515472	6
O	0.462958	3.033001	0.799082	8
C	0.575228	0.540961	1.260002	6
H	-1.081292	-2.648489	-1.484688	1
H	0.100128	-2.228749	0.405072	1
H	-1.383982	-1.250099	0.301092	1
H	1.440738	-0.355839	-0.560698	1
H	-1.293962	1.106811	-0.795918	1
H	0.230008	1.453011	-1.673448	1
H	1.559028	0.471311	1.728802	1
H	-0.205832	0.303281	1.987992	1
Es	0.579068	3.067674	1.081276	99
Es	0.312939	1.864221	0.515456	99
Es	0.379100	3.216989	0.569056	99
Es	-0.288718	-1.891257	-1.596732	99
Es	0.575208	0.540977	1.259953	99
Es	0.450392	-0.162097	-0.122290	99
Es	0.462922	3.032680	0.799019	99
Es	0.646346	2.600735	0.601194	99
Es	1.121990	-0.289376	-0.416757	99
Es	0.174710	2.624471	0.792222	99
Es	0.465498	1.230125	0.967169	99
Es	0.040997	0.388186	1.732817	99
Es	0.096752	0.437559	-0.489852	99
Es	-0.054234	-1.975222	0.245335	99
Es	0.029249	1.556895	-0.151325	99
Es	0.526530	0.119686	0.611111	99
Es	-0.396759	-1.420441	-0.140371	99
Es	-1.076783	-1.295439	0.174100	99
Es	0.022916	-0.790302	-0.127682	99
Es	-0.567635	-1.822097	-1.490822	99
Es	-0.929128	1.108384	-0.750949	99
Es	0.088957	1.347034	-1.358831	99
Es	-0.202088	1.114965	-0.729147	99
Es	-0.745113	-1.609189	-1.620037	99
Es	-0.845887	-2.267120	-1.466418	99
Es	1.236156	0.496912	1.576023	99
Es	-0.515001	-1.690012	-0.971337	99
