45
Properties=species:S:1:pos:R:3:Z:I:1 energy=-344.96606714936564 field_type=dipole dipole="0.000000 0.000000 0.000000" charge=0
O	-1.627788	1.426456	-0.756835	8
C	-1.928578	0.050456	-0.568315	6
C	-0.996418	-0.547604	0.475045	6
C	0.421742	-0.651494	-0.068895	6
C	1.293702	0.613506	-0.066445	6
C	2.270932	-0.224664	0.748625	6
O	1.296982	-1.283014	0.908885	8
H	-2.292638	1.782397	-1.371845	1
H	-1.837318	-0.463414	-1.530565	1
H	-2.965398	-0.024504	-0.225125	1
H	-1.356638	-1.550204	0.732425	1
H	-1.009908	0.056886	1.389455	1
H	0.469112	-1.213704	-1.010825	1
H	0.884722	1.471266	0.474665	1
H	1.656733	0.930196	-1.047185	1
H	3.153892	-0.577244	0.207565	1
H	2.566862	0.204676	1.709375	1
Es	1.016294	1.188071	0.306332	99
Es	2.880848	-0.462809	0.372057	99
Es	-1.864652	-0.312865	-1.231574	99
Es	0.953936	-1.070125	0.538055	99
Es	-0.296958	-0.593142	0.197689	99
Es	-0.996432	-0.547597	0.474987	99
Es	-1.457578	-0.244022	-0.051739	99
Es	1.689425	-0.899302	0.864864	99
Es	-1.005584	-0.132720	1.090121	99
Es	1.293715	0.613452	-0.066436	99
Es	0.421864	-0.651562	-0.068730	99
Es	1.162977	-1.240523	1.182659	99
Es	-2.648062	-0.008502	-0.334424	99
Es	2.270769	-0.224812	0.748635	99
Es	-1.628077	1.426252	-0.757009	99
Es	1.297004	-1.282779	0.908712	99
Es	1.843151	0.263115	0.332317	99
Es	2.480194	0.071687	1.408900	99
Es	0.798313	0.031565	-0.121799	99
Es	0.444937	-1.033765	-0.724315	99
Es	1.407052	-1.553758	0.801124	99
Es	-1.682169	1.559854	-0.487531	99
Es	1.543051	0.830774	-0.736853	99
Es	-1.928509	0.050676	-0.568330	99
Es	-1.353566	1.441924	-0.897467	99
Es	-1.993542	1.599630	-1.092653	99
Es	-1.242985	-1.229384	0.639409	99
Es	-1.757037	0.908531	-0.703426	99
