42
Properties=species:S:1:pos:R:3:Z:I:1 energy=-343.80841372855036 field_type=dipole dipole="0.000000 0.000000 0.000000" charge=0
O	-0.153927	-1.832183	0.755257	8
C	-0.810397	-1.209563	-0.336823	6
C	-0.439708	0.245587	-0.351383	6
C	-1.369697	1.217536	-0.355383	6
C	1.033163	0.566297	-0.408833	6
C	1.598083	0.720037	0.985047	6
O	2.311092	1.664817	1.317807	8
H	-0.471707	-2.751283	0.782027	1
H	-1.889597	-1.356183	-0.223273	1
H	-0.488287	-1.693173	-1.264733	1
H	-2.432077	0.994036	-0.325743	1
H	-1.091328	2.267986	-0.376783	1
H	1.206283	1.499286	-0.957923	1
H	1.586723	-0.224073	-0.926123	1
H	1.411383	-0.109123	1.686857	1
Es	1.844356	1.446838	1.274316	99
Es	-0.810266	-1.209631	-0.336640	99
Es	-0.917646	0.721322	-0.680314	99
Es	-0.411416	-1.613404	0.335456	99
Es	2.349515	1.876320	1.087094	99
Es	1.141600	1.191954	-0.773645	99
Es	1.598062	0.720062	0.985000	99
Es	2.310900	1.664542	1.317752	99
Es	-2.089498	1.067468	-0.335075	99
Es	0.303388	0.395307	-0.370698	99
Es	-1.184542	1.927695	-0.373751	99
Es	1.459471	0.157602	1.452634	99
Es	1.294254	0.636708	0.281726	99
Es	-0.154114	-1.832309	0.755067	99
Es	0.146274	-1.839986	0.683856	99
Es	-0.334312	-2.322890	0.751983	99
Es	-1.555137	-1.305991	-0.265023	99
Es	-0.439591	0.245485	-0.351387	99
Es	2.255266	1.200771	1.116590	99
Es	-1.369759	1.217597	-0.355387	99
Es	-0.588603	-1.532375	-0.978959	99
Es	1.402501	0.030450	-0.737803	99
Es	-0.258998	-1.694682	1.008145	99
Es	-0.624464	-0.478790	-0.339816	99
Es	-0.902546	0.740695	-0.023519	99
Es	2.411071	1.642137	1.613705	99
Es	1.033118	0.566256	-0.408782	99
