41
Properties=species:S:1:pos:R:3:Z:I:1 energy=-359.74981800367345 field_type=dipole dipole="0.000000 0.000000 0.000000" charge=0
C	0.811076	-0.755544	0.641461	6
C	-0.447014	-1.153924	-0.100979	6
C	-1.532324	-0.109944	-0.169749	6
N	-1.468014	1.164116	0.079241	7
O	-0.226684	1.619256	0.564481	8
C	0.838036	1.395336	-0.361719	6
O	1.580326	0.208326	-0.074349	8
H	1.450556	-1.637173	0.757541	1
H	0.598036	-0.389524	1.652891	1
H	-0.890634	-2.034034	0.378191	1
H	-0.210914	-1.427854	-1.135859	1
H	-2.505474	-0.476394	-0.541769	1
H	1.529296	2.241117	-0.293289	1
H	0.473726	1.356236	-1.396089	1
Es	1.645799	0.086476	-0.348587	99
Es	1.307124	1.969969	-0.308525	99
Es	-0.226698	1.619069	0.564155	99
Es	-1.737732	1.426084	0.054372	99
Es	-0.978995	-0.605272	-0.120443	99
Es	0.837952	1.395133	-0.361483	99
Es	-0.751047	-1.738388	0.225063	99
Es	-2.181764	-0.359499	-0.418643	99
Es	-0.163903	1.436908	0.798577	99
Es	1.255251	-0.132316	0.188015	99
Es	-0.447075	-1.153863	-0.100973	99
Es	0.811142	-0.755401	0.641285	99
Es	0.158575	-0.940331	0.261505	99
Es	1.580006	0.208468	-0.074158	99
Es	-0.249834	1.926840	0.580669	99
Es	-1.532306	-0.109980	-0.169770	99
Es	1.797885	0.295842	0.120641	99
Es	1.262979	0.638378	-0.166122	99
Es	-1.397366	0.668458	-0.302348	99
Es	-0.742827	1.387784	0.323408	99
Es	-1.563765	0.550902	0.247709	99
Es	1.241205	-1.361140	0.712376	99
Es	0.146920	1.503108	0.191532	99
Es	-0.297047	-1.325624	-0.794975	99
Es	0.652617	-0.512202	1.326865	99
Es	-1.467513	1.163684	0.079307	99
Es	0.573198	1.360617	-1.066387	99
