43
Properties=species:S:1:pos:R:3:Z:I:1 energy=-323.9167107879969 field_type=dipole dipole="0.000000 0.000000 0.000000" charge=0
C	-0.394707	1.375638	-1.701999	6
N	-1.488348	0.676727	-1.034049	7
C	-0.221207	-0.032783	-1.205429	6
C	0.628763	-0.405883	-0.016169	6
C	0.369642	0.177847	1.381941	6
C	0.407353	-1.268913	1.851411	6
O	0.436433	-1.759962	0.492351	8
H	-0.502507	1.541918	-2.765569	1
H	0.060182	2.183958	-1.143659	1
H	-2.178147	0.331687	-1.704349	1
H	-0.198527	-0.834112	-1.935229	1
H	1.683923	-0.295243	-0.309079	1
H	-0.596467	0.666337	1.532611	1
H	1.166873	0.815617	1.771841	1
H	1.308702	-1.562133	2.397931	1
H	-0.481957	-1.610703	2.387441	1
Es	0.916872	0.614981	1.647088	99
Es	0.628694	-0.406063	-0.016108	99
Es	-0.394852	1.375472	-1.701887	99
Es	-0.086059	1.925806	-1.323454	99
Es	0.427709	-1.601733	1.017096	99
Es	-1.586468	0.780642	-0.706866	99
Es	0.149723	-1.843695	0.419505	99
Es	-1.488063	0.676573	-1.034578	99
Es	-1.098146	1.087187	-1.360039	99
Es	-0.208980	-0.572171	-1.706466	99
Es	-1.886672	0.470708	-1.453608	99
Es	0.491751	-0.021938	0.648182	99
Es	0.386798	-0.511021	1.699525	99
Es	1.029484	-1.465976	2.230469	99
Es	0.407361	-1.268961	1.851187	99
Es	1.353604	-0.323488	-0.222922	99
Es	-1.000231	0.247928	-1.056241	99
Es	-0.221386	-0.032608	-1.205397	99
Es	0.436448	-1.759711	0.492467	99
Es	-0.201167	-1.503807	2.224572	99
Es	-0.279431	0.504279	1.480967	99
Es	-0.084675	0.677214	-1.518964	99
Es	0.508618	-1.258153	0.269671	99
Es	0.369672	0.177804	1.381912	99
Es	0.692168	-1.928494	0.441389	99
Es	-0.465271	1.487252	-2.426507	99
Es	0.181062	-0.202156	-0.599368	99
