39
Properties=species:S:1:pos:R:3:Z:I:1 energy=-338.70879409699927 field_type=dipole dipole="0.000000 0.000000 0.000000" charge=0
C	0.582457	-0.967683	0.958408	6
C	0.825507	-0.254383	-0.334402	6
C	0.538967	1.205247	-0.484792	6
O	-0.587523	1.571327	0.326808	8
N	-1.752913	0.817407	0.022358	7
C	-1.520583	-0.444253	-0.172032	6
N	-0.330433	-1.153283	-0.181072	7
H	1.159677	-1.854773	1.178428	1
H	0.151907	-0.448783	1.804538	1
H	1.577097	-0.627533	-1.014572	1
H	1.398247	1.794667	-0.151902	1
H	0.327487	1.462697	-1.528512	1
H	-2.369893	-1.100653	-0.423262	1
Es	1.338593	-0.504169	-0.791706	99
Es	0.582314	-0.967685	0.958164	99
Es	-0.653891	1.866688	0.255470	99
Es	-0.587548	1.571075	0.326414	99
Es	-2.071609	1.007686	0.018144	99
Es	-1.752336	0.817144	0.022385	99
Es	-0.330380	-1.152671	-0.180772	99
Es	-1.520456	-0.444317	-0.172057	99
Es	0.301093	-0.616358	1.523909	99
Es	0.397284	1.365092	-1.200773	99
Es	-1.063839	1.209078	0.165665	99
Es	-0.835928	-0.807332	-0.140059	99
Es	0.538793	1.205238	-0.484645	99
Es	-2.094959	-0.874732	-0.334562	99
Es	1.119421	1.597162	-0.256547	99
Es	-0.336694	-1.463338	-0.352776	99
Es	-0.179196	1.398055	-0.000352	99
Es	-0.068466	-1.123007	0.373987	99
Es	0.894419	-0.512947	0.405737	99
Es	0.098703	-0.725760	-0.366972	99
Es	-1.601007	0.335720	-0.350099	99
Es	0.677310	0.461861	-0.402848	99
Es	-1.677371	0.224613	0.224187	99
Es	0.825299	-0.254533	-0.334321	99
Es	-0.516172	1.469680	0.607288	99
Es	0.973891	-1.564272	1.108726	99
