46
Properties=species:S:1:pos:R:3:Z:I:1 energy=-325.12520471582974 field_type=dipole dipole="0.000000 0.000000 0.000000" charge=0
C	-2.026965	-0.581465	0.836105	6
C	-0.535015	-0.574285	0.823065	6
C	0.215755	-1.237205	-0.297175	6
C	0.259015	0.271205	-0.153964	6
N	-0.478265	1.071775	-1.156775	7
C	1.548835	0.900165	0.352916	6
O	2.353144	1.274045	-0.764395	8
H	-2.403165	0.309385	1.348196	1
H	-2.389785	-1.461335	1.376765	1
H	-2.457495	-0.608495	-0.169835	1
H	-0.141365	-0.682045	1.828535	1
H	-0.355165	-1.673135	-1.109415	1
H	1.097685	-1.812735	-0.037205	1
H	-0.728205	0.507815	-1.966914	1
H	0.140835	1.803745	-1.517164	1
H	2.125825	0.216345	0.983965	1
H	1.328025	1.802115	0.932375	1
H	2.446315	0.474105	-1.309084	1
Es	2.631916	1.345613	-0.658169	99
Es	-0.193175	0.005592	0.435866	99
Es	-1.275419	-0.573620	0.808052	99
Es	2.394017	0.831730	-1.043833	99
Es	-0.097480	1.492574	-1.371295	99
Es	-0.206244	-1.077484	0.312220	99
Es	0.365985	-0.492442	-0.384087	99
Es	0.215720	-1.237077	-0.297099	99
Es	-2.268168	-1.184008	1.205958	99
Es	2.353034	1.273712	-0.764311	99
Es	-2.313423	-0.603233	0.149578	99
Es	-0.140833	0.709321	-0.737076	99
Es	-0.177383	-1.522777	-0.852848	99
Es	-2.026931	-0.581473	0.836107	99
Es	2.049708	1.111949	-0.348777	99
Es	-0.252328	-0.646888	1.504898	99
Es	1.931522	0.418933	0.789326	99
Es	0.822506	-1.623290	-0.121819	99
Es	-0.762912	1.208587	-1.014628	99
Es	-0.607947	0.718674	-1.642202	99
Es	0.258899	0.271125	-0.154018	99
Es	-0.534918	-0.574295	0.822912	99
Es	1.548934	0.900201	0.352704	99
Es	-2.280447	0.022421	1.187179	99
Es	0.896095	0.576777	0.101530	99
Es	1.395948	1.515379	0.744890	99
Es	-0.477762	1.071531	-1.157000	99
Es	2.181436	1.469299	-0.930006	99
