43
Properties=species:S:1:pos:R:3:Z:I:1 energy=-323.9378669179218 field_type=dipole dipole="0.000000 0.000000 0.000000" charge=0
C	-1.553457	0.294998	0.137844	6
C	-0.025127	0.248878	0.185124	6
C	0.469783	0.307308	1.627134	6
C	0.540283	-0.946282	-0.558276	6
C	0.852123	-0.284452	-1.842516	6
N	0.834183	1.002618	-1.830186	7
O	0.484213	1.397998	-0.516446	8
H	-1.918247	0.302358	-0.895446	1
H	-1.928147	1.213778	0.603034	1
H	-1.996537	-0.562402	0.655044	1
H	1.564193	0.352208	1.664104	1
H	0.137143	-0.563202	2.201614	1
H	0.108603	1.213508	2.126424	1
H	-0.165247	-1.769752	-0.690946	1
H	1.474293	-1.331422	-0.137986	1
H	1.121943	-0.876142	-2.728526	1
Es	0.484127	1.397653	-0.516569	99
Es	-0.025050	0.249027	0.185018	99
Es	0.256375	-0.380029	-0.171496	99
Es	-1.846039	-0.295741	0.492254	99
Es	-0.798129	0.261084	0.158031	99
Es	0.852119	-0.284497	-1.842528	99
Es	0.834053	1.002193	-1.829719	99
Es	0.237625	-0.290894	2.008099	99
Es	0.216369	0.918921	1.963835	99
Es	0.691135	-0.642305	-1.215606	99
Es	1.213161	0.327742	1.645217	99
Es	0.554857	0.422648	-1.922611	99
Es	0.757087	1.459208	-0.396512	99
Es	0.251713	1.597915	-0.545931	99
Es	-1.800699	0.914770	0.460014	99
Es	1.170128	-1.198627	-0.278820	99
Es	0.296509	0.944699	-0.272574	99
Es	1.118091	0.425580	-1.767914	99
Es	0.540294	-0.946264	-0.558325	99
Es	0.223306	0.278169	0.909919	99
Es	0.903814	1.277109	-2.075966	99
Es	1.031330	-0.677588	-2.437980	99
Es	0.062738	-1.497913	-0.648896	99
Es	0.469766	0.307295	1.627117	99
Es	-1.793308	0.290169	-0.565517	99
Es	0.621633	1.186119	-1.083925	99
Es	-1.553440	0.294985	0.137848	99
