43
Properties=species:S:1:pos:R:3:Z:I:1 energy=-323.94466886056654 field_type=dipole dipole="0.000000 0.000000 0.000000" charge=0
C	-2.230843	-0.603204	0.441898	6
C	-0.766393	-0.755604	0.211908	6
C	-0.188363	-0.581774	-1.171012	6
N	0.013737	0.430826	-0.133142	7
C	1.359077	0.414316	0.455458	6
C	2.107367	1.616216	-0.069992	6
O	3.281327	1.578996	-0.435132	8
H	-2.418093	-0.261254	1.464648	1
H	-2.734003	-1.565974	0.308158	1
H	-2.687303	0.116506	-0.246122	1
H	-0.322703	-1.495954	0.867748	1
H	-0.851593	-0.299114	-1.980732	1
H	0.644357	-1.208784	-1.466842	1
H	1.937397	-0.489164	0.232278	1
H	1.289017	0.525536	1.542628	1
H	1.567017	2.578436	-0.021752	1
Es	0.027472	0.060974	-0.672063	99
Es	0.385439	-0.999829	-1.366645	99
Es	2.929036	1.631302	-0.067773	99
Es	-0.188344	-0.581635	-1.170808	99
Es	-1.497254	-0.667756	0.321039	99
Es	0.607759	0.390772	0.117796	99
Es	3.400214	1.288658	-0.423666	99
Es	-0.766276	-0.755435	0.211792	99
Es	-0.449744	-1.253903	0.660351	99
Es	1.743193	-0.203411	0.301398	99
Es	3.393571	1.859495	-0.518519	99
Es	1.358959	0.414378	0.455398	99
Es	-2.564277	-1.261105	0.351109	99
Es	2.107375	1.616184	-0.069984	99
Es	-0.564333	-0.861066	-0.550147	99
Es	-2.352876	-0.372807	1.138338	99
Es	1.728797	1.011519	0.183009	99
Es	-0.638139	-0.389998	-1.720504	99
Es	-0.323516	-0.039090	0.156808	99
Es	1.726206	2.264527	-0.036562	99
Es	-2.533692	-0.116987	-0.028177	99
Es	-0.149986	0.746798	-0.160715	99
Es	3.281031	1.579000	-0.435039	99
Es	0.013998	0.430229	-0.133113	99
Es	1.316217	0.502954	1.184143	99
Es	2.774736	1.550506	-0.541652	99
Es	-2.230818	-0.603218	0.441901	99
