38
Properties=species:S:1:pos:R:3:Z:I:1 energy=-358.69455610767653 field_type=dipole dipole="0.000000 0.000000 0.000000" charge=0
C	-1.814144	-0.092142	0.285140	6
C	-0.499224	-0.003852	0.085210	6
C	0.384506	1.196318	0.141750	6
O	1.696186	0.684528	-0.173960	8
C	1.598696	-0.664562	-0.382590	6
O	2.531096	-1.395852	-0.666000	8
N	0.298726	-1.051342	-0.224360	7
H	-2.341894	-1.037452	0.211050	1
H	-2.402464	0.787277	0.528770	1
H	0.417126	1.641538	1.140060	1
H	0.114686	1.947577	-0.605500	1
H	0.016706	-2.012033	-0.339570	1
Es	-2.209481	0.502327	0.449737	99
Es	0.396511	1.488852	0.811663	99
Es	2.180634	-1.109255	-0.816665	99
Es	0.384705	1.196157	0.141688	99
Es	-2.164390	-0.733921	0.233811	99
Es	-1.151812	-0.098154	0.515818	99
Es	2.794313	-1.249205	-0.686560	99
Es	2.530834	-1.395627	-0.665914	99
Es	-1.257815	0.010136	-0.128282	99
Es	1.864190	0.690654	0.057854	99
Es	-0.074211	0.599993	0.117206	99
Es	0.866510	-0.903759	-0.232051	99
Es	1.195339	0.853927	-0.057207	99
Es	0.193980	1.694097	-0.358529	99
Es	1.695874	0.684324	-0.173946	99
Es	0.338035	-0.943828	-0.331594	99
Es	-1.814184	-0.092144	0.285147	99
Es	1.770574	0.765597	-0.437788	99
Es	1.626030	0.169869	-0.244212	99
Es	-0.060045	-0.621345	-0.054042	99
Es	1.598528	-0.664315	-0.382520	99
Es	2.418298	-1.679275	-0.692731	99
Es	0.299358	-1.050913	-0.222981	99
Es	-0.498960	-0.003939	0.085153	99
Es	0.130769	-1.612561	-0.275284	99
Es	2.264409	-1.189085	-0.327872	99
