42
Properties=species:S:1:pos:R:3:Z:I:1 energy=-339.9306462312177 field_type=dipole dipole="0.000000 0.000000 0.000000" charge=0
C	-2.288335	-0.128800	0.124957	6
C	-0.781785	-0.051510	0.013507	6
N	-0.264045	1.133520	0.040327	7
C	1.199595	1.182890	-0.117613	6
C	1.868615	-0.156620	0.157387	6
O	1.193595	-1.156090	-0.613503	8
N	-0.101165	-1.252330	-0.085903	7
H	-2.631065	-1.166520	0.149687	1
H	-2.738544	0.375360	-0.735153	1
H	-2.611105	0.374470	1.041027	1
H	1.411085	1.499050	-1.145693	1
H	1.608425	1.944580	0.554217	1
H	2.917085	-0.131240	-0.155173	1
H	1.839625	-0.421000	1.221817	1
H	-0.621985	-2.045760	-0.449893	1
Es	1.348372	1.388916	-0.818463	99
Es	2.579251	-0.142558	-0.061979	99
Es	1.485224	1.695660	0.345349	99
Es	0.382839	1.120911	-0.024557	99
Es	-0.129332	-1.234361	0.255390	99
Es	1.199479	1.182835	-0.117579	99
Es	0.602203	-1.181520	-0.368443	99
Es	-0.394846	-0.738185	-0.146575	99
Es	1.423109	-0.787264	-0.305468	99
Es	1.193459	-1.155872	-0.613234	99
Es	-0.781769	-0.051702	0.013524	99
Es	-0.408115	-1.704387	-0.330446	99
Es	-0.101300	-1.251990	-0.086617	99
Es	1.160485	-1.029710	-0.902523	99
Es	-2.498243	0.202391	0.735782	99
Es	-0.460504	1.439777	0.073375	99
Es	1.868491	-0.156785	0.157239	99
Es	-2.514129	-0.843121	0.138495	99
Es	-2.288267	-0.128831	0.124948	99
Es	-1.528948	-0.121960	0.073441	99
Es	-2.578103	0.202401	-0.452627	99
Es	1.324692	-1.434254	-0.556388	99
Es	-0.418235	0.636927	0.317960	99
Es	1.841621	-0.334882	0.885738	99
Es	1.537400	0.508161	0.029335	99
Es	-0.263772	1.133061	0.040273	99
Es	-0.473133	0.666621	-0.255215	99
