38
Properties=species:S:1:pos:R:3:Z:I:1 energy=-358.607847576585 field_type=dipole dipole="0.000000 0.000000 0.000000" charge=0
C	-1.757904	-0.613068	-0.000609	6
C	-0.297744	-0.430808	-0.001539	6
C	0.540746	0.650022	0.002391	6
O	0.140516	1.930732	0.008831	8
C	1.834936	0.109132	-0.001809	6
N	1.806886	-1.226638	-0.008029	7
O	0.458406	-1.566898	-0.007899	8
H	-2.277724	0.349672	0.011771	1
H	-2.072844	-1.179998	0.880711	1
H	-2.076374	-1.159248	-0.893689	1
H	0.908786	2.528252	0.010591	1
H	2.792316	0.608852	-0.000719	1
Es	0.377489	-1.796610	-0.182033	99
Es	0.443068	-1.515030	0.235309	99
Es	1.834956	0.109109	-0.001829	99
Es	0.004811	1.957498	0.267033	99
Es	0.200744	0.131030	-0.318029	99
Es	0.207640	0.127784	0.321080	99
Es	0.184769	-1.123378	-0.059319	99
Es	2.055884	-1.506806	-0.010382	99
Es	2.467749	0.461487	-0.001102	99
Es	-0.297665	-0.431072	-0.001542	99
Es	0.566051	2.224545	0.007569	99
Es	-1.954332	-0.976880	-0.598110	99
Es	0.458534	-1.566410	-0.008025	99
Es	1.795942	-0.637930	-0.285126	99
Es	-1.951952	-0.990621	0.589076	99
Es	0.540710	0.650299	0.002389	99
Es	1.795830	-0.640027	0.276098	99
Es	-2.094481	0.034725	0.007607	99
Es	0.331029	1.442072	0.007871	99
Es	0.001461	1.957972	-0.248268	99
Es	1.214765	0.449384	-0.001028	99
Es	-1.014715	-0.516032	-0.001481	99
Es	1.806400	-1.226186	-0.008031	99
Es	-1.757816	-0.613052	-0.000609	99
Es	1.014313	-1.390121	-0.024331	99
Es	0.140888	1.930609	0.008844	99
