40
Properties=species:S:1:pos:R:3:Z:I:1 energy=-322.76085573831665 field_type=dipole dipole="0.000000 0.000000 0.000000" charge=0
C	-0.811640	-2.334751	-0.531069	6
C	-0.886180	-0.997341	-0.552809	6
C	-0.126080	-0.087211	0.303131	6
C	1.270320	0.270429	-0.059499	6
N	0.195170	1.202339	-0.239709	7
C	0.108530	2.329889	0.561961	6
O	0.397979	2.417019	1.747681	8
H	-1.418330	-2.936971	-1.199919	1
H	-0.147940	-2.853451	0.153541	1
H	-1.577650	-0.538641	-1.258099	1
H	-0.401500	-0.088491	1.353701	1
H	1.696410	-0.077651	-0.990049	1
H	1.970280	0.508819	0.731231	1
H	-0.269370	3.186009	-0.020089	1
Es	0.057504	2.321948	1.387723	99
Es	-0.362586	-2.691099	-0.068765	99
Es	-0.148965	2.912860	0.165988	99
Es	0.195373	1.202172	-0.239082	99
Es	-0.811638	-2.334839	-0.531051	99
Es	0.500178	2.143080	1.859049	99
Es	-1.219168	-2.746435	-0.979311	99
Es	-0.886161	-0.997227	-0.552801	99
Es	0.637308	-0.121003	0.179797	99
Es	0.091343	1.253431	-0.578491	99
Es	0.108547	2.329766	0.561900	99
Es	-1.348899	-0.678193	-1.023913	99
Es	-1.081734	-1.679648	-0.314499	99
Es	-0.125986	-0.086982	0.302984	99
Es	-0.309196	-0.093015	1.001790	99
Es	-0.071054	0.731288	0.034427	99
Es	1.557508	0.030903	-0.684880	99
Es	0.397894	2.417008	1.747352	99
Es	0.353442	2.699160	1.862420	99
Es	0.173393	1.665233	0.144199	99
Es	-0.608995	-1.661636	-0.764288	99
Es	1.741258	0.428022	0.470935	99
Es	1.270077	0.270582	-0.059511	99
Es	0.531988	2.447876	1.262301	99
Es	-0.506652	-0.534063	-0.127926	99
Es	0.733939	0.937768	-0.169556	99
