39
Properties=species:S:1:pos:R:3:Z:I:1 energy=-338.7311309461088 field_type=dipole dipole="0.000000 0.000000 0.000000" charge=0
C	-1.371590	-1.138441	-0.146697	6
C	0.142600	-0.997681	-0.146277	6
C	0.579000	0.419838	-0.155727	6
N	0.766420	1.084439	-1.299757	7
O	1.165310	2.362009	-0.912307	8
N	1.220550	2.470768	0.476953	7
C	0.858010	1.269499	0.921043	6
H	-1.654950	-2.195632	-0.135987	1
H	-1.812530	-0.676971	-1.037277	1
H	-1.813930	-0.658611	0.733263	1
H	0.554590	-1.520391	-1.018627	1
H	0.550190	-1.499671	0.738663	1
H	0.816330	1.080849	1.982733	1
Es	0.421148	-1.338573	-0.733971	99
Es	0.766475	1.084614	-1.299137	99
Es	1.165235	2.361770	-0.912097	99
Es	1.324262	2.798654	0.616296	99
Es	0.826100	1.130465	1.625210	99
Es	-1.664569	-0.809147	0.456097	99
Es	-0.601014	-1.046429	-0.144999	99
Es	0.423831	0.890971	-0.750394	99
Es	1.306820	1.801846	0.651634	99
Es	0.702436	0.804371	0.422578	99
Es	0.142595	-0.997587	-0.146260	99
Es	1.220374	2.470225	0.476618	99
Es	-1.555974	-1.857535	-0.137591	99
Es	0.957487	0.731228	-0.755036	99
Es	0.365741	-0.268466	-0.144655	99
Es	1.428661	2.343263	-0.957768	99
Es	0.985636	1.805116	-1.038725	99
Es	0.858020	1.269557	0.921046	99
Es	0.955848	2.528444	-0.981437	99
Es	-1.371530	-1.138436	-0.146685	99
Es	0.421022	-1.323504	0.460006	99
Es	-1.663335	-0.824940	-0.749465	99
Es	0.579005	0.419850	-0.155777	99
Es	1.171987	2.370114	-0.309322	99
Es	0.741817	1.018222	-1.663164	99
Es	0.780595	1.968129	0.661837	99
