46
Properties=species:S:1:pos:R:3:Z:I:1 energy=-325.1165030988107 field_type=dipole dipole="0.000000 0.000000 0.000000" charge=0
C	-0.715888	-1.760073	-1.206511	6
C	-0.416688	-1.236623	0.190299	6
C	0.371142	0.071417	0.142239	6
O	1.658052	-0.162223	-0.490331	8
C	-0.409088	1.323437	-0.345421	6
N	0.166472	2.095827	0.777689	7
C	0.429702	0.829947	1.498129	6
H	-1.293358	-2.687983	-1.146811	1
H	0.205312	-1.970693	-1.758901	1
H	-1.296208	-1.034843	-1.785431	1
H	0.150202	-1.992393	0.747169	1
H	-1.365048	-1.095853	0.723249	1
H	2.102092	0.701777	-0.474791	1
H	-1.501788	1.239487	-0.299831	1
H	-0.132358	1.697257	-1.336231	1
H	1.010312	2.612867	0.532589	1
H	1.393362	0.800217	2.016189	1
H	-0.356228	0.568447	2.216709	1
Es	-0.409024	1.323505	-0.345310	99
Es	-1.151587	1.256688	-0.303348	99
Es	0.313148	1.576474	1.130506	99
Es	0.429681	0.830077	1.498054	99
Es	1.812154	-0.348492	-0.300399	99
Es	-0.019727	-0.590352	0.157548	99
Es	-0.564655	-1.495032	-0.511372	99
Es	-1.114530	-1.258400	-1.597074	99
Es	-0.052516	2.326365	0.937683	99
Es	1.092565	0.811441	1.851547	99
Es	-0.047540	0.655763	-0.189690	99
Es	-0.715898	-1.760058	-1.206478	99
Es	1.179282	-0.046669	-0.250522	99
Es	-1.113358	-2.392771	-1.162964	99
Es	0.695570	2.366042	0.609324	99
Es	1.597475	-0.223766	-0.783038	99
Es	-0.083766	1.808204	0.255984	99
Es	0.371341	0.071414	0.142149	99
Es	1.886534	0.311586	-0.474192	99
Es	0.166863	2.095421	0.777401	99
Es	-0.026632	-1.748220	0.572811	99
Es	-0.416688	-1.236610	0.190265	99
Es	1.657982	-0.162074	-0.490380	99
Es	-1.064576	-1.126002	0.555996	99
Es	-0.114679	0.648580	1.976362	99
Es	0.435094	0.378210	0.872068	99
Es	-0.216494	1.580890	-1.024129	99
Es	-0.093710	-1.903381	-1.578778	99
