43
Properties=species:S:1:pos:R:3:Z:I:1 energy=-324.0043240159856 field_type=dipole dipole="0.000000 0.000000 0.000000" charge=0
C	-2.156796	-0.011307	0.229245	6
C	-0.683646	-0.292377	0.077105	6
C	-0.339476	-1.757417	0.065825	6
C	0.189324	0.723643	-0.033425	6
N	1.541574	0.572773	-0.173195	7
C	2.438724	1.600223	-0.285835	6
O	3.644204	1.427173	-0.409015	8
H	-2.377706	1.061273	0.236245	1
H	-2.527906	-0.432787	1.169155	1
H	-2.715416	-0.460007	-0.598665	1
H	-0.861226	-2.258777	-0.756275	1
H	-0.652136	-2.222947	1.006475	1
H	0.727354	-1.956467	-0.057645	1
H	-0.167666	1.752513	-0.013745	1
H	1.958663	-0.348667	-0.200165	1
H	1.982134	2.603153	-0.256085	1
Es	-0.694523	-2.086177	-0.488841	99
Es	-1.417905	-0.145154	0.152665	99
Es	3.712040	1.122569	-0.412383	99
Es	1.866787	0.990172	-0.356360	99
Es	3.643887	1.427209	-0.408983	99
Es	2.110516	2.278294	-0.264322	99
Es	2.438583	1.600107	-0.285820	99
Es	-2.528434	-0.320724	-0.332353	99
Es	0.394343	-1.881092	-0.018981	99
Es	-0.284199	0.206962	-0.311109	99
Es	-2.401243	-0.302322	0.865430	99
Es	-2.156756	-0.011314	0.229241	99
Es	0.189581	0.723720	-0.033455	99
Es	1.541546	0.572799	-0.173293	99
Es	1.772541	0.027824	-0.209218	99
Es	-0.339469	-1.757371	0.065823	99
Es	-0.213373	0.218239	0.355727	99
Es	-0.553382	-2.061953	0.700817	99
Es	-0.035242	1.425273	-0.022286	99
Es	3.206972	1.483491	-0.614585	99
Es	1.620981	0.708269	0.015069	99
Es	0.960361	0.639704	-0.148922	99
Es	3.258555	1.489477	-0.118227	99
Es	-2.299953	0.720959	0.233244	99
Es	3.796361	1.694591	-0.428834	99
Es	-0.683713	-0.292464	0.077104	99
Es	-0.492563	-1.021987	0.069132	99
