37
Properties=species:S:1:pos:R:3:Z:I:1 energy=-321.59454315408226 field_type=dipole dipole="0.000000 0.000000 0.000000" charge=0
C	-2.470727	-0.189929	0.182574	6
C	-1.026727	-0.189929	0.182574	6
C	0.163433	-0.189929	0.182574	6
C	1.607433	-0.189929	0.182574	6
O	2.075533	-0.910409	-0.963046	8
C	2.089453	1.171241	0.182574	6
N	2.473663	2.256231	0.182574	7
H	-2.864707	0.830961	0.194224	1
H	-2.864797	-0.710449	1.060824	1
H	-2.864747	-0.690229	-0.707376	1
H	1.984743	-0.720559	1.062664	1
H	1.697453	-0.467069	-1.742736	1
Es	1.607446	-0.189857	0.182357	99
Es	-2.713443	0.490371	0.190282	99
Es	2.089324	1.170896	0.182574	99
Es	2.595568	2.603150	0.181958	99
Es	-0.404157	-0.049542	-0.156941	99
Es	2.378969	-0.868986	-0.968619	99
Es	-2.470599	-0.189930	0.182573	99
Es	1.865244	-0.658239	-1.365215	99
Es	2.116850	1.811610	0.428219	99
Es	2.182398	1.792560	-0.104991	99
Es	1.851758	-0.518152	0.764734	99
Es	-2.712438	-0.523593	-0.411088	99
Es	1.939856	-1.178879	-0.936499	99
Es	2.473510	2.255808	0.182574	99
Es	1.856805	0.529929	0.180992	99
Es	1.880269	-0.596870	-0.529996	99
Es	0.163721	-0.189922	0.182581	99
Es	2.075349	-0.910127	-0.963038	99
Es	-0.412558	-0.549057	0.230226	99
Es	-1.722617	-0.190038	0.182022	99
Es	0.870774	-0.169950	0.187304	99
Es	2.588310	1.661214	0.221574	99
Es	-0.401658	0.031467	0.466243	99
Es	-1.026986	-0.189935	0.182571	99
Es	-2.713073	-0.537354	0.768155	99
