45
Properties=species:S:1:pos:R:3:Z:I:1 energy=-288.0396373729513 field_type=dipole dipole="0.000000 0.000000 0.000000" charge=0
C	-1.293548	0.795191	-0.077897	6
C	-1.294988	-0.758189	0.004893	6
C	0.044702	-1.365939	0.507153	6
C	1.113262	-0.724339	-0.290827	6
N	2.317101	0.020311	-0.079937	7
C	1.114272	0.742511	0.181433	6
C	0.040852	1.397461	-0.598957	6
H	-2.126818	1.136770	-0.701867	1
H	-1.475558	1.182791	0.933263	1
H	-1.492688	-1.145239	-1.003407	1
H	-2.120398	-1.097049	0.640753	1
H	0.163942	-1.196910	1.584173	1
H	0.040612	-2.449059	0.344483	1
H	0.982992	-0.970109	-1.342737	1
H	2.787542	-0.276189	0.776413	1
H	1.009262	0.998461	1.233513	1
H	0.047152	2.479841	-0.432707	1
H	0.142312	1.229690	-1.677747	1
Es	2.316665	0.020236	-0.079444	99
Es	1.114452	0.742354	0.181339	99
Es	-1.857154	-0.986831	0.442812	99
Es	2.578044	-0.132126	0.449180	99
Es	-1.294944	-0.758155	0.004901	99
Es	-1.293503	0.795159	-0.077903	99
Es	-1.424196	-1.025028	-0.688973	99
Es	-1.279199	0.018810	-0.036729	99
Es	0.665572	1.128095	-0.239708	99
Es	0.044702	-1.365899	0.507125	99
Es	-1.859841	1.026081	-0.507250	99
Es	-0.613678	1.081004	-0.337195	99
Es	0.109118	1.276787	-1.333756	99
Es	0.040852	1.397420	-0.598914	99
Es	0.952430	0.002175	-0.057999	99
Es	1.027094	0.896345	0.911922	99
Es	0.666504	-1.100040	0.142201	99
Es	-1.412086	1.062318	0.619011	99
Es	-0.615425	-1.047391	0.257921	99
Es	1.864173	0.497925	0.048347	99
Es	2.507701	0.062179	-0.372999	99
Es	0.128585	-1.243827	1.245660	99
Es	1.009064	-0.876746	-1.014484	99
Es	0.031290	2.145247	-0.483534	99
Es	0.029050	-2.115124	0.396188	99
Es	1.113418	-0.724173	-0.290722	99
Es	1.847558	-0.473167	-0.141789	99
