45
Properties=species:S:1:pos:R:3:Z:I:1 energy=-341.1035865499874 field_type=dipole dipole="0.000000 0.000000 0.000000" charge=0
C	-1.418016	-0.825686	0.430439	6
C	0.094654	-0.687456	0.276079	6
C	0.626054	-1.605476	-0.822941	6
N	0.467514	0.701854	-0.003501	7
O	-0.048877	1.211634	-1.201961	8
C	0.586984	1.643664	0.986419	6
N	0.462184	2.919284	0.855149	7
H	-1.791166	-0.175226	1.228739	1
H	-1.689256	-1.856776	0.681499	1
H	-1.945066	-0.554506	-0.491311	1
H	0.566984	-0.996176	1.217159	1
H	0.177124	-1.376976	-1.795561	1
H	0.409554	-2.653676	-0.590501	1
H	1.711733	-1.498916	-0.925311	1
H	0.758714	1.453324	-1.694870	1
H	0.830924	1.215774	1.973409	1
H	0.199964	3.085334	-0.122941	1
Es	-0.048501	1.211558	-1.201904	99
Es	0.509093	3.172502	1.107385	99
Es	-0.179131	0.971686	-1.344311	99
Es	0.281160	0.132445	0.118367	99
Es	-1.663080	-0.382330	0.976506	99
Es	-1.593279	-1.530395	0.601861	99
Es	1.365099	-1.530426	-0.887983	99
Es	0.462131	2.918864	0.854817	99
Es	0.587002	1.643478	0.986333	99
Es	0.386736	1.338714	-1.458220	99
Es	0.785699	2.418748	0.829085	99
Es	0.310949	3.014477	0.268703	99
Es	0.626043	-1.605464	-0.822910	99
Es	0.358511	-1.140087	-0.281044	99
Es	0.317888	-1.448789	-1.477117	99
Es	-1.417987	-0.825694	0.430440	99
Es	0.752571	1.333953	1.644154	99
Es	0.388340	1.085949	0.425897	99
Es	0.474456	-2.315260	-0.656118	99
Es	-0.199107	1.475721	-1.126987	99
Es	0.804920	0.758272	0.029107	99
Es	0.094685	-0.687285	0.276018	99
Es	0.235312	2.385992	0.964810	99
Es	0.420487	-0.878401	0.919000	99
Es	-1.766751	-0.644605	-0.194833	99
Es	0.183012	0.985989	-0.666999	99
Es	-0.667131	-0.753638	0.349638	99
Es	0.466860	0.702074	-0.003321	99
