44
Properties=species:S:1:pos:R:3:Z:I:1 energy=-360.963165975262 field_type=dipole dipole="0.000000 0.000000 0.000000" charge=0
C	-0.345892	-0.580164	1.312754	6
C	0.685458	-0.055864	0.319164	6
C	1.833728	-1.046304	0.167004	6
O	0.089858	0.102396	-0.977396	8
N	-0.653052	1.306436	-1.002426	7
C	-1.977892	1.138676	-1.292586	6
O	-2.707892	2.039696	-1.681376	8
H	-1.139822	0.156636	1.473554	1
H	0.112038	-0.801304	2.281664	1
H	-0.829582	-1.487034	0.933744	1
H	1.093288	0.903296	0.663154	1
H	1.475418	-2.006484	-0.220906	1
H	2.339968	-1.219904	1.121484	1
H	2.568138	-0.670794	-0.553836	1
H	-0.205712	2.108566	-1.433036	1
H	-2.338052	0.112146	-1.110956	1
Es	0.162384	-0.318903	0.822425	99
Es	-2.210303	0.440590	-1.165508	99
Es	2.332174	-0.785373	-0.318198	99
Es	-2.415765	1.669336	-1.789319	99
Es	-0.026015	-0.727298	1.966408	99
Es	-0.243957	0.658099	-0.976097	99
Es	1.582830	-1.695705	-0.089758	99
Es	1.833706	-1.046283	0.167016	99
Es	-0.820560	1.382551	-0.711451	99
Es	0.322317	0.146756	-1.181178	99
Es	-0.126154	-0.122162	-1.009113	99
Es	-0.881804	-0.077683	1.419368	99
Es	2.168205	-1.156247	0.819835	99
Es	-0.653164	1.306188	-1.003085	99
Es	-1.169254	1.207883	-1.235578	99
Es	0.089798	0.102621	-0.977098	99
Es	-2.707687	2.039462	-1.681263	99
Es	-0.664941	-1.198139	1.050637	99
Es	-1.977738	1.138695	-1.292532	99
Es	1.257572	-0.556976	0.238419	99
Es	-0.381728	1.762004	-1.272075	99
Es	-2.501186	1.791544	-1.311544	99
Es	0.961720	0.604646	0.552241	99
Es	0.294900	0.072054	-0.485408	99
Es	-2.544993	2.304431	-1.719809	99
Es	-0.345876	-0.580153	1.312747	99
Es	-2.996607	1.946971	-1.709078	99
Es	0.685352	-0.055887	0.318958	99
