43
Properties=species:S:1:pos:R:3:Z:I:1 energy=-323.9937041547738 field_type=dipole dipole="0.000000 0.000000 0.000000" charge=0
C	-0.163743	-1.575234	0.988882	6
C	-0.428313	-0.927864	-0.362657	6
N	0.385037	0.271246	-0.568507	7
C	-0.014293	1.526646	-0.136277	6
C	-1.149673	1.820846	0.505723	6
C	1.629007	0.099906	-1.174808	6
O	2.110057	-0.959774	-1.560777	8
H	-0.771473	-2.478264	1.102342	1
H	-0.407083	-0.895034	1.811132	1
H	0.889467	-1.857184	1.090253	1
H	-1.490123	-0.687214	-0.480907	1
H	-0.197673	-1.655454	-1.150247	1
H	0.679047	2.340506	-0.345577	1
H	-1.899113	1.084635	0.768832	1
H	-1.356533	2.846216	0.798523	1
H	2.185407	1.046026	-1.285928	1
Es	-0.270896	-1.406395	-0.890764	99
Es	-1.147370	-0.749673	-0.433952	99
Es	-1.654509	1.319747	0.681865	99
Es	-0.428193	-0.927677	-0.362637	99
Es	-0.332953	-1.109015	1.543410	99
Es	-1.149717	1.820850	0.505751	99
Es	0.385312	0.271223	-0.568132	99
Es	1.994446	0.757384	-1.241406	99
Es	-1.288312	2.511699	0.701867	99
Es	2.045092	-0.630708	-1.202977	99
Es	1.921047	-1.199008	-1.505837	99
Es	1.834593	-0.566394	-1.653166	99
Es	0.941147	0.189487	-0.705092	99
Es	-0.294317	-1.238388	0.316493	99
Es	0.467975	2.060192	-0.286975	99
Es	0.547669	-1.762350	1.052520	99
Es	-0.581729	-2.186741	1.058425	99
Es	-0.163764	-1.575216	0.988847	99
Es	0.228732	0.800289	-0.343621	99
Es	-0.463980	1.626292	0.487660	99
Es	0.425739	0.349228	-0.788185	99
Es	-0.762340	1.728743	-0.087960	99
Es	1.628838	0.099933	-1.174727	99
Es	0.047101	-0.222831	-0.460869	99
Es	2.386167	-0.912583	-1.683126	99
Es	2.109943	-0.959504	-1.560683	99
Es	-0.014126	1.526462	-0.136395	99
