39
Properties=species:S:1:pos:R:3:Z:I:1 energy=-338.75825939107335 field_type=dipole dipole="0.000000 0.000000 0.000000" charge=0
C	-2.152756	1.444638	0.687969	6
C	-1.312026	0.351748	0.108949	6
N	-0.024806	0.370608	0.228469	7
O	0.502444	-0.767062	-0.406321	8
C	1.929824	-0.738332	-0.291511	6
C	2.509654	-1.922722	-0.936371	6
N	2.986363	-2.853842	-1.442061	7
H	-2.868836	1.006908	1.388069	1
H	-2.705646	1.930718	-0.119861	1
H	-1.535066	2.181918	1.206379	1
H	-1.840306	-0.459282	-0.422971	1
H	2.203344	-0.717312	0.769389	1
H	2.307814	0.172018	-0.770131	1
Es	-0.552420	0.510837	-0.072457	99
Es	-0.025154	0.370183	0.228186	99
Es	2.986178	-2.853475	-1.441861	99
Es	0.502671	-0.766818	-0.406128	99
Es	1.929655	-0.738523	-0.291634	99
Es	1.059813	-0.741043	-0.351815	99
Es	2.930451	-2.483667	-0.953741	99
Es	-1.666931	-0.189659	-0.246121	99
Es	2.196922	-0.148107	-0.621247	99
Es	-1.718640	0.894075	0.397883	99
Es	0.289397	-0.272703	-0.129548	99
Es	-2.517376	1.759275	0.139992	99
Es	2.126837	-0.742885	0.407900	99
Es	2.485051	-2.538042	-1.240185	99
Es	2.891705	-2.252077	-1.432629	99
Es	2.225746	-1.370742	-0.637046	99
Es	3.136717	-3.147609	-1.601165	99
Es	-1.738878	1.936624	1.033996	99
Es	0.222701	0.608259	0.390360	99
Es	0.434025	-0.730289	-0.705030	99
Es	0.400577	-1.005794	-0.239599	99
Es	2.509502	-1.922417	-0.936195	99
Es	-1.312045	0.351776	0.108968	99
Es	-2.627159	1.140038	1.151635	99
Es	-0.594264	0.212214	0.427560	99
Es	-2.152726	1.444568	0.687931	99
