41
Properties=species:S:1:pos:R:3:Z:I:1 energy=-359.7993028903527 field_type=dipole dipole="0.000000 0.000000 0.000000" charge=0
C	-0.846187	2.331046	1.690656	6
C	-0.743497	0.966436	1.086306	6
N	0.122113	0.718126	0.162306	7
O	0.004033	-0.629434	-0.227064	8
C	0.902353	-0.916214	-1.227464	6
C	0.755083	-2.359684	-1.609964	6
O	1.717503	-0.158984	-1.739364	8
H	-0.684347	2.253606	2.769116	1
H	-1.852657	2.720296	1.515406	1
H	-0.108627	3.010256	1.255996	1
H	-1.438567	0.197626	1.465176	1
H	1.103143	-2.994654	-0.792504	1
H	1.358343	-2.561234	-2.499163	1
H	-0.288687	-2.577184	-1.849444	1
Es	-0.743508	0.966469	1.086331	99
Es	-0.055408	0.740602	0.759750	99
Es	-0.354913	2.782546	1.400759	99
Es	0.108488	-0.802001	-0.014615	99
Es	1.870366	-0.320967	-1.950460	99
Es	-0.252799	-0.671088	-0.364374	99
Es	0.004351	-0.629194	-0.227208	99
Es	0.057061	-0.058458	-0.064991	99
Es	-0.738828	2.265143	2.410390	99
Es	1.159309	-2.492800	-2.202033	99
Es	0.755076	-2.359621	-1.609929	99
Es	-1.211394	0.451086	1.342303	99
Es	0.983946	-2.768061	-1.057237	99
Es	1.717256	-0.159192	-1.739201	99
Es	-1.522723	2.577868	1.569000	99
Es	1.258897	-0.348603	-1.732356	99
Es	-0.846200	2.330962	1.690637	99
Es	0.375422	0.920463	-0.004970	99
Es	0.902166	-0.916162	-1.227258	99
Es	0.353899	-0.696352	-0.605456	99
Es	0.121673	0.717714	0.162579	99
Es	0.055840	-2.495352	-1.760671	99
Es	-0.445218	0.892282	0.353592	99
Es	0.817573	-1.638066	-1.412351	99
Es	1.716521	0.123655	-1.629248	99
Es	1.601268	-0.482655	-1.381877	99
Es	-0.787600	1.640632	1.379253	99
