41
Properties=species:S:1:pos:R:3:Z:I:1 energy=-359.86417803834706 field_type=dipole dipole="0.000000 0.000000 0.000000" charge=0
C	-2.107287	-0.446574	0.102566	6
C	-0.687357	-0.687114	-0.335204	6
O	-0.263627	-1.826674	-0.543334	8
C	0.161803	0.550386	-0.598034	6
N	1.555733	0.242576	-0.350374	7
C	2.117473	0.475046	0.877286	6
O	1.574673	1.064666	1.799426	8
H	-2.652657	0.064006	-0.694834	1
H	-2.114307	0.159216	1.012476	1
H	-2.594727	-1.401794	0.315756	1
H	-0.164117	1.371756	0.045956	1
H	0.050383	0.835316	-1.647204	1
H	1.986193	-0.466314	-0.934054	1
H	3.137823	0.065506	0.949576	1
Es	-0.058348	1.091470	-0.175161	99
Es	1.666746	0.651433	1.578662	99
Es	1.758311	1.090184	2.042852	99
Es	0.073414	0.724669	-1.301136	99
Es	-2.098726	-0.035259	0.702331	99
Es	1.555621	0.242340	-0.350091	99
Es	1.845182	1.081072	1.398760	99
Es	1.804399	-0.178572	-0.689971	99
Es	1.699630	0.198092	0.184242	99
Es	0.039353	-1.827113	-0.643404	99
Es	1.760789	0.518479	-0.301280	99
Es	0.161960	0.550283	-0.598015	99
Es	-2.433593	-1.082574	0.242264	99
Es	-0.262760	-0.060899	-0.454633	99
Es	-2.451309	-0.099412	-0.437189	99
Es	-0.475933	-2.048327	-0.486142	99
Es	0.953498	0.359369	-0.448065	99
Es	2.117417	0.475016	0.877132	99
Es	1.284614	1.150670	1.719296	99
Es	1.574788	1.064515	1.799170	99
Es	-0.687356	-0.687094	-0.335199	99
Es	-0.334506	-1.429931	-0.228447	99
Es	-0.490951	-1.408225	-0.707618	99
Es	2.813909	0.190633	0.914991	99
Es	-0.263726	-1.826350	-0.543285	99
Es	-1.401270	-0.556418	-0.111109	99
Es	-2.107238	-0.446548	0.102540	99
