46
Properties=species:S:1:pos:R:3:Z:I:1 energy=-325.11137603068676 field_type=dipole dipole="0.000000 0.000000 0.000000" charge=0
C	-1.751403	-1.530092	-0.139709	6
N	-0.357403	-1.183322	0.108101	7
C	-0.089973	0.257808	-0.018179	6
C	-0.879514	1.108258	0.981891	6
C	1.387587	0.436998	0.221461	6
C	2.364926	0.540478	-0.923089	6
O	1.915077	1.701658	-0.212129	8
H	-1.855833	-2.619582	-0.145909	1
H	-2.096573	-1.155692	-1.109059	1
H	-2.409113	-1.155042	0.650691	1
H	0.220507	-1.680472	-0.569199	1
H	-0.338813	0.585678	-1.036959	1
H	-0.704803	0.778708	2.010461	1
H	-1.954003	1.071818	0.783091	1
H	-0.573533	2.157088	0.917561	1
H	1.728677	0.053548	1.174130	1
H	2.009247	0.412388	-1.936639	1
H	3.384947	0.219768	-0.756509	1
Es	1.696173	1.839456	-0.381532	99
Es	-1.751270	-1.530062	-0.139688	99
Es	-0.488629	0.674104	0.487813	99
Es	-1.609810	1.076546	0.842499	99
Es	2.364816	0.540718	-0.922925	99
Es	1.387718	0.437277	0.221326	99
Es	-0.089982	0.257686	-0.018115	99
Es	-0.357569	-1.183130	0.107525	99
Es	-0.879501	1.108233	0.981863	99
Es	-0.017807	-1.469953	-0.323772	99
Es	1.915018	1.701353	-0.212204	99
Es	-1.819071	-2.273757	-0.149403	99
Es	-0.967826	-1.314295	-0.023509	99
Es	1.666214	1.277356	0.032272	99
Es	-0.258862	0.488384	-0.723564	99
Es	0.657084	0.350524	0.094459	99
Es	-0.264084	-1.286445	0.434249	99
Es	2.122901	0.458513	-1.616311	99
Es	2.148909	1.321245	-0.549061	99
Es	-0.757789	0.878154	1.678409	99
Es	2.138291	1.797684	-0.021602	99
Es	1.622154	0.184978	0.871173	99
Es	-1.992122	-1.265227	-0.810452	99
Es	-0.669830	1.812849	0.931691	99
Es	-0.261868	-0.555561	0.030248	99
Es	3.063166	0.330048	-0.813417	99
Es	-2.197712	-1.266597	0.395665	99
Es	1.867264	0.240362	-0.390860	99
