46
Properties=species:S:1:pos:R:3:Z:I:1 energy=-325.1518002164531 field_type=dipole dipole="0.000000 0.000000 0.000000" charge=0
C	-2.425912	-0.832918	0.812881	6
N	-0.968042	-0.850158	0.743661	7
C	-0.469062	0.395282	0.144801	6
C	1.063768	0.440932	0.096521	6
C	1.679698	-0.660778	-0.763609	6
C	1.530047	1.780892	-0.447339	6
O	0.786278	2.672052	-0.845799	8
H	-2.781162	-1.772468	1.247241	1
H	-2.872082	-0.733228	-0.182309	1
H	-2.783632	-0.018008	1.450181	1
H	-0.684362	-1.644758	0.172191	1
H	-0.826602	1.246332	0.738631	1
H	-0.875813	0.511382	-0.867799	1
H	1.464718	0.364882	1.114971	1
H	1.305838	-0.614428	-1.792659	1
H	1.460837	-1.655088	-0.362649	1
H	2.770188	-0.559718	-0.807439	1
H	2.625298	1.929802	-0.451469	1
Es	-2.668346	-1.476911	1.105305	99
Es	-0.807287	-1.321929	0.374795	99
Es	-0.968280	-0.850083	0.743098	99
Es	-0.469030	0.395145	0.144862	99
Es	-0.712511	0.967926	0.554065	99
Es	-2.425779	-0.832922	0.812872	99
Es	1.524813	-1.329718	-0.488817	99
Es	-0.742574	0.470547	-0.557225	99
Es	1.046178	2.444751	-0.468488	99
Es	-0.759193	-0.316944	0.458716	99
Es	2.286856	1.868048	-0.446972	99
Es	0.485786	2.592197	-0.825489	99
Es	0.941078	2.924531	-0.944406	99
Es	1.420181	-0.623311	-1.460207	99
Es	-0.829440	-0.888015	1.070006	99
Es	0.310209	0.409635	0.113817	99
Es	1.371289	-0.097987	-0.337463	99
Es	1.679684	-0.660737	-0.763582	99
Es	1.294697	1.111968	-0.181164	99
Es	1.343161	0.404234	0.776863	99
Es	-1.605653	-0.834017	0.746677	99
Es	-2.735415	-0.759518	0.123480	99
Es	-2.665407	-0.271962	1.243176	99
Es	2.419986	-0.583990	-0.789346	99
Es	1.530043	1.780886	-0.447337	99
Es	1.063796	0.440957	0.096459	99
Es	1.066471	2.250315	-0.934974	99
Es	0.786430	2.671853	-0.845713	99
