45
Properties=species:S:1:pos:R:3:Z:I:1 energy=-288.1143523217748 field_type=dipole dipole="0.000000 0.000000 0.000000" charge=0
C	-1.944729	0.819199	-0.223868	6
C	-0.596659	0.458229	0.309282	6
C	-0.336219	-0.987981	0.657082	6
C	0.815531	-1.391571	-0.272418	6
C	1.649021	-0.116461	-0.448028	6
C	0.642681	0.992009	-0.355288	6
N	0.209511	1.508429	0.933022	7
H	-1.999789	1.869789	-0.529918	1
H	-2.711369	0.651069	0.540092	1
H	-2.190859	0.203499	-1.095938	1
H	-1.210169	-1.626971	0.492842	1
H	-0.038389	-1.085521	1.708122	1
H	1.401121	-2.228070	0.118962	1
H	0.405711	-1.690751	-1.244988	1
H	2.399791	-0.029351	0.346162	1
H	2.167661	-0.116651	-1.411988	1
H	0.561911	1.630669	-1.221718	1
H	0.775241	1.140429	1.698582	1
Es	0.075669	1.839807	0.951382	99
Es	2.160044	-0.056523	0.101804	99
Es	-0.127414	-1.049643	1.378025	99
Es	1.174293	0.462076	-0.391372	99
Es	-0.936423	-1.418469	0.544115	99
Es	0.238409	-1.207304	0.205364	99
Es	-0.022392	0.634926	-0.198129	99
Es	1.252245	-0.763883	-0.358716	99
Es	-1.944720	0.819180	-0.223864	99
Es	0.209705	1.507854	0.932914	99
Es	1.648996	-0.116469	-0.448020	99
Es	-2.104844	0.391449	-0.816374	99
Es	0.534932	1.355867	0.384318	99
Es	-1.277169	0.646903	0.053913	99
Es	-0.221106	1.032556	0.795415	99
Es	0.642638	0.992076	-0.355049	99
Es	-2.466535	0.700293	0.297074	99
Es	0.593155	1.440276	-0.942797	99
Es	2.001629	-0.113240	-1.106971	99
Es	0.815523	-1.391550	-0.272407	99
Es	-0.487000	-0.261446	0.514973	99
Es	0.556137	1.266132	1.383096	99
Es	-0.336199	-0.987967	0.657066	99
Es	0.531158	-1.591315	-0.940210	99
Es	-0.596528	0.458385	0.309379	99
Es	1.218017	-1.969114	-0.003947	99
Es	-1.976228	1.529571	-0.432973	99
