45
Properties=species:S:1:pos:R:3:Z:I:1 energy=-341.17588432278825 field_type=dipole dipole="0.000000 0.000000 0.000000" charge=0
C	-1.669130	0.954108	-0.212644	6
N	-0.424860	0.703078	0.488936	7
C	0.820400	0.689618	-0.276983	6
C	1.070520	-0.637442	-1.016653	6
N	1.167680	-1.781712	-0.108093	7
C	-0.441940	0.292208	1.807307	6
O	-1.442800	0.134748	2.494906	8
H	-2.516350	0.999548	0.477567	1
H	-1.842720	0.149988	-0.933003	1
H	-1.591740	1.909408	-0.740263	1
H	1.654140	0.881808	0.409046	1
H	0.790660	1.518238	-0.993213	1
H	2.005270	-0.558002	-1.581424	1
H	0.266490	-0.824812	-1.736513	1
H	0.267940	-1.909712	0.359077	1
H	1.318470	-2.632142	-0.650553	1
H	0.567970	0.111078	2.212507	1
Es	1.106193	-1.291573	-0.510487	99
Es	-1.668944	0.954073	-0.212574	99
Es	1.381312	0.815340	0.193462	99
Es	0.510426	-0.754258	-1.516239	99
Es	-1.121244	-0.053099	2.193188	99
Es	1.243264	-2.286049	-0.450732	99
Es	-1.609673	1.602285	-0.577426	99
Es	0.615189	-1.855188	0.154112	99
Es	1.709348	-0.577815	-1.401519	99
Es	1.070520	-0.637518	-1.016537	99
Es	-2.225658	0.985321	0.244417	99
Es	-0.392325	0.897478	0.823385	99
Es	-1.095364	0.424800	2.332137	99
Es	0.934809	0.021290	-0.639874	99
Es	-0.951977	0.794972	0.186084	99
Es	1.167252	-1.781769	-0.108486	99
Es	-1.784635	0.405904	-0.707958	99
Es	-0.424878	0.702935	0.488906	99
Es	0.253430	0.174221	2.069504	99
Es	0.098817	0.682194	0.159448	99
Es	-0.448870	0.347574	0.878243	99
Es	-1.442536	0.134786	2.494703	99
Es	0.820229	0.689581	-0.276899	99
Es	-0.441927	0.292260	1.807135	99
Es	1.425724	-1.733662	0.131403	99
Es	-1.701668	0.196398	2.331345	99
Es	-1.371255	0.048103	2.779898	99
Es	0.793598	1.248991	-0.770533	99
