42
Properties=species:S:1:pos:R:3:Z:I:1 energy=-339.9710525551836 field_type=dipole dipole="0.000000 0.000000 0.000000" charge=0
C	-1.711480	0.100047	-0.322274	6
N	-0.272609	0.345847	-0.410774	7
C	0.561400	-0.861743	-0.441344	6
C	0.904591	-1.313513	0.960816	6
O	0.567370	-2.400603	1.424566	8
C	0.223460	1.553387	0.005306	6
N	1.446701	1.938477	0.065716	7
H	-2.274420	0.981817	-0.646464	1
H	-1.996840	-0.138003	0.707656	1
H	-2.011029	-0.729473	-0.971094	1
H	1.493011	-0.680623	-0.988934	1
H	0.046170	-1.679793	-0.958274	1
H	1.507821	-0.608133	1.557616	1
H	-0.562180	2.259757	0.327096	1
H	2.078030	1.232547	-0.309614	1
Es	0.666604	-2.441539	1.717402	99
Es	0.206386	-1.401713	-0.785011	99
Es	0.400876	-2.573424	1.221008	99
Es	-0.882091	0.237731	-0.346381	99
Es	-1.905622	-0.062490	0.380779	99
Es	1.310762	-0.823957	1.355738	99
Es	-1.711293	0.100081	-0.322288	99
Es	0.096156	-0.172054	-0.394172	99
Es	0.475659	-1.896456	1.338650	99
Es	1.446493	1.938013	0.065554	99
Es	0.734454	-1.081130	0.259608	99
Es	-2.083226	0.703553	-0.536983	99
Es	0.989431	1.660222	0.302957	99
Es	0.223329	1.553239	0.005244	99
Es	0.904568	-1.313516	0.960794	99
Es	1.814885	1.489516	-0.158431	99
Es	0.561332	-0.861576	-0.441288	99
Es	-0.204691	0.535440	-0.639009	99
Es	-0.272506	0.345989	-0.409872	99
Es	-1.901926	-0.463831	-0.761018	99
Es	0.903246	-2.103712	1.164728	99
Es	-0.321170	2.018503	0.217365	99
Es	1.195122	-0.732455	-0.792153	99
Es	0.948881	1.873815	-0.222223	99
Es	1.561444	2.254799	0.181224	99
Es	0.567432	-2.400295	1.424352	99
Es	-0.069620	0.784315	-0.113060	99
