45
Properties=species:S:1:pos:R:3:Z:I:1 energy=-341.1089840555504 field_type=dipole dipole="0.000000 0.000000 0.000000" charge=0
C	-0.917610	-2.021281	-0.675857	6
O	-1.218360	-1.127041	0.390173	8
C	-0.770460	0.200469	0.131233	6
C	-1.327661	1.098349	1.226583	6
C	0.745669	0.292289	0.157413	6
N	1.400079	0.728639	-0.872997	7
N	2.738949	0.733299	-0.689397	7
H	-1.397810	-2.980541	-0.461897	1
H	0.161549	-2.187571	-0.746857	1
H	-1.306311	-1.642501	-1.626327	1
H	-1.149151	0.541919	-0.839467	1
H	-1.010431	0.753709	2.217993	1
H	-2.422730	1.076569	1.219693	1
H	-0.995701	2.134369	1.102863	1
H	1.247300	-0.039321	1.086193	1
H	3.201149	0.962009	-1.573577	1
H	3.021529	1.476639	-0.045767	1
Es	1.257319	0.825310	-1.206118	99
Es	-1.521740	-1.101912	0.395894	99
Es	-0.177913	-2.131826	-0.730162	99
Es	-2.067139	1.085112	1.214631	99
Es	2.738684	0.733869	-0.689613	99
Es	2.827905	0.421237	-0.567877	99
Es	-1.101784	0.862873	1.895312	99
Es	-1.180743	-1.756770	-1.330023	99
Es	2.884408	1.187851	-0.305769	99
Es	-1.218158	-1.126930	0.389922	99
Es	1.082320	0.073738	0.789984	99
Es	1.095762	0.817834	-0.311442	99
Es	1.400354	0.728486	-0.872450	99
Es	1.130378	0.269363	-0.500712	99
Es	0.745638	0.292335	0.157432	99
Es	-0.770459	0.200269	0.131336	99
Es	0.004457	0.243286	0.140999	99
Es	-1.040282	0.651059	0.682373	99
Es	-1.327639	1.098341	1.226560	99
Es	-1.023979	0.430898	-0.535205	99
Es	-1.245259	-2.674195	-0.530084	99
Es	-0.917662	-2.021134	-0.675689	99
Es	-1.086698	-1.439905	-0.033024	99
Es	-1.024323	-0.634423	0.260689	99
Es	2.073231	0.753745	-0.766717	99
Es	-1.095972	1.799531	1.134116	99
Es	3.008079	0.888730	-1.223538	99
Es	-1.057330	-1.223722	0.634742	99
