46
Properties=species:S:1:pos:R:3:Z:I:1 energy=-325.1276877210381 field_type=dipole dipole="0.000000 0.000000 0.000000" charge=0
C	0.179260	-2.247800	0.397409	6
O	-0.236089	-0.968890	0.860239	8
C	-0.356209	-0.000570	-0.196241	6
C	-1.196189	1.186520	0.350079	6
N	-0.623249	1.817620	1.550939	7
C	1.014371	0.443440	-0.639391	6
C	1.484820	0.335070	-1.890471	6
H	0.141491	-2.943570	1.240319	1
H	1.208691	-2.215020	0.029059	1
H	-0.491489	-2.616330	-0.384771	1
H	-0.916429	-0.445710	-1.028771	1
H	-2.188509	0.807130	0.621879	1
H	-1.328679	1.948770	-0.425391	1
H	-0.370729	1.062450	2.193539	1
H	-1.342709	2.365670	2.017269	1
H	1.645541	0.883930	0.129659	1
H	0.891661	-0.093790	-2.691191	1
H	2.484451	0.681080	-2.134161	1
Es	-0.492729	1.362415	1.936357	99
Es	0.152209	-2.721420	0.971263	99
Es	-1.196086	1.186538	0.350182	99
Es	0.337497	0.222639	-0.427807	99
Es	-0.522660	-1.006873	0.964747	99
Es	-0.753831	0.599140	0.082074	99
Es	2.160687	0.567260	-2.064804	99
Es	0.880777	-2.227675	0.138810	99
Es	1.126864	0.680019	-1.347051	99
Es	-0.356164	-0.000671	-0.196056	99
Es	1.484849	0.335064	-1.890572	99
Es	-0.280629	-2.497992	-0.147324	99
Es	1.434211	0.733824	-0.117354	99
Es	0.179182	-2.247593	0.397481	99
Es	-1.283766	1.701379	-0.187317	99
Es	1.014308	0.443432	-0.639306	99
Es	1.368150	0.088023	-1.208844	99
Es	-0.623712	1.817269	1.551053	99
Es	-0.236065	-0.968976	0.859860	99
Es	1.084101	0.043339	-2.437937	99
Es	-0.011917	-0.864166	1.042552	99
Es	-1.074260	2.133325	1.827561	99
Es	-0.737022	-0.307225	-0.774400	99
Es	-0.074447	-1.439862	0.649280	99
Es	-1.882725	0.916587	0.523872	99
Es	-0.338575	2.018284	1.475179	99
Es	-0.881745	1.533590	1.036185	99
Es	-0.264984	-0.628340	0.435505	99
