40
Properties=species:S:1:pos:R:3:Z:I:1 energy=-322.74366703877877 field_type=dipole dipole="0.000000 0.000000 0.000000" charge=0
C	-0.664932	-2.098608	0.546522	6
O	-0.713032	-1.355058	-0.666498	8
N	-0.159222	-0.097218	-0.436928	7
C	-0.869652	1.009022	-0.074538	6
C	0.018698	2.060652	0.013392	6
C	1.300458	1.561792	-0.340018	6
C	1.152588	0.221542	-0.632318	6
H	-1.103902	-3.082338	0.358262	1
H	-1.250052	-1.607208	1.330952	1
H	0.369118	-2.242818	0.876892	1
H	-1.936252	0.954402	0.088602	1
H	-0.229572	3.078882	0.285832	1
H	2.224858	2.122722	-0.390798	1
H	1.860898	-0.525768	-0.959358	1
Es	-1.060808	-1.759681	1.081507	99
Es	-0.869633	1.008801	-0.074579	99
Es	1.152412	0.221391	-0.632310	99
Es	-0.323220	1.480055	0.267077	99
Es	-0.037472	0.041013	-0.182112	99
Es	-0.146767	2.749424	0.197560	99
Es	1.924137	1.942943	-0.373344	99
Es	-1.012702	-1.298747	-0.728066	99
Es	-0.664941	-2.098486	0.546317	99
Es	0.682142	1.863471	-0.155053	99
Es	0.040724	-2.191962	0.772734	99
Es	-0.503641	0.354743	-0.396890	99
Es	-0.454118	-0.780103	-0.542143	99
Es	1.150251	0.996033	-0.764176	99
Es	0.018690	2.060669	0.013390	99
Es	1.300474	1.561800	-0.340024	99
Es	-0.679511	-1.605928	-0.194197	99
Es	-0.436117	1.613883	-0.326602	99
Es	0.364383	0.016378	-0.632877	99
Es	1.261660	0.862316	-0.170212	99
Es	-0.159286	-0.096900	-0.437516	99
Es	1.624161	-0.286396	-0.849113	99
Es	-0.712980	-1.354944	-0.666174	99
Es	-0.963250	-2.762056	0.410966	99
Es	-1.585866	0.964413	0.036718	99
Es	-0.516421	-1.491281	-0.863281	99
