43
Properties=species:S:1:pos:R:3:Z:I:1 energy=-323.96276343169217 field_type=dipole dipole="0.000000 0.000000 0.000000" charge=0
N	-1.796681	0.489437	-0.636108	7
C	-0.343261	0.466747	-0.582998	6
C	0.263619	1.545897	0.312733	6
O	1.590179	1.084978	0.609513	8
C	1.492719	-0.341403	0.765752	6
C	0.248079	-0.758103	0.040383	6
C	-0.248241	-2.004703	0.043862	6
H	-2.111061	-0.207622	-1.308228	1
H	-2.107181	1.389167	-0.998028	1
H	0.068379	0.571217	-1.594827	1
H	-0.280691	1.667297	1.257822	1
H	0.317649	2.518988	-0.185618	1
H	2.392169	-0.795642	0.341112	1
H	1.429389	-0.565933	1.835472	1
H	-1.174311	-2.249292	-0.465218	1
H	0.259239	-2.811032	0.564372	1
Es	-0.248263	-2.004775	0.043851	99
Es	1.528447	0.544466	0.671614	99
Es	-0.120838	1.621200	0.955935	99
Es	1.679645	1.207837	0.876197	99
Es	1.589875	1.084713	0.609307	99
Es	-0.343385	0.466724	-0.582960	99
Es	-1.160868	0.481758	-0.633323	99
Es	-0.070006	-0.169410	-0.280928	99
Es	-1.796415	0.489542	-0.636644	99
Es	2.097745	-0.657722	0.477436	99
Es	-0.050090	0.531715	-1.269231	99
Es	-0.067520	1.017181	-0.141873	99
Es	-1.971321	0.076018	-1.055877	99
Es	-1.965136	1.032465	-0.873860	99
Es	0.164313	-1.469960	-0.238833	99
Es	0.094545	-2.553040	0.395690	99
Es	0.248145	-0.757983	0.040379	99
Es	0.263823	1.545806	0.312746	99
Es	-0.874307	-2.174350	-0.303938	99
Es	-0.178987	-1.333729	0.308782	99
Es	1.440039	-0.507398	1.491563	99
Es	0.872553	-0.568246	0.398823	99
Es	-1.936263	0.432689	-0.319757	99
Es	1.492692	-0.341183	0.765702	99
Es	1.744831	1.123235	0.346987	99
Es	1.076605	1.241974	0.503745	99
Es	0.298006	2.211690	-0.030803	99
