42
Properties=species:S:1:pos:R:3:Z:I:1 energy=-339.97884156480205 field_type=dipole dipole="0.000000 0.000000 0.000000" charge=0
N	-2.321711	-0.121833	0.999704	7
C	-1.136261	-0.118173	0.489704	6
C	-0.333190	-1.417163	0.400524	6
O	0.669310	-1.413503	-0.619546	8
C	1.461589	-0.221893	-0.554156	6
C	0.597809	1.022267	-0.794076	6
N	-0.553530	1.065197	0.094934	7
H	-2.683400	0.830327	0.942014	1
H	-1.001301	-2.261793	0.226854	1
H	0.163159	-1.571843	1.371004	1
H	1.967609	-0.174883	0.416364	1
H	2.227609	-0.289763	-1.331086	1
H	1.195809	1.932737	-0.673306	1
H	0.218469	1.006057	-1.822616	1
H	-0.471971	1.734257	0.853684	1
Es	1.006365	1.640197	-0.702397	99
Es	0.597701	1.022253	-0.793936	99
Es	-0.035760	1.024939	-0.253416	99
Es	-0.001149	-1.499844	1.065990	99
Es	-0.730253	-0.751116	0.416174	99
Es	-0.782170	-1.978123	0.280802	99
Es	0.669270	-1.413246	-0.619312	99
Es	1.028263	0.405787	-0.664736	99
Es	0.346159	1.004649	-1.496649	99
Es	1.801633	-0.180954	0.122345	99
Es	0.295714	-1.376959	-0.220266	99
Es	1.982095	-0.263724	-1.084271	99
Es	-0.553116	1.064899	0.095268	99
Es	-1.963829	-0.163399	0.536235	99
Es	-0.491986	1.437655	0.559065	99
Es	-1.717675	-0.065691	1.041587	99
Es	0.854564	-1.648451	-0.555140	99
Es	-0.333037	-1.417050	0.400358	99
Es	0.952611	-0.949458	-0.565437	99
Es	1.461426	-0.222048	-0.554166	99
Es	-0.794371	1.133207	-0.058664	99
Es	-0.743112	0.535014	0.289213	99
Es	-2.321406	-0.121463	0.999525	99
Es	0.516284	-1.387832	-0.883657	99
Es	-2.528775	0.460321	0.971100	99
Es	-1.136112	-0.118100	0.489614	99
Es	-2.506825	-0.407023	1.146317	99
