37
Properties=species:S:1:pos:R:3:Z:I:1 energy=-321.6281881398294 field_type=dipole dipole="0.000000 0.000000 0.000000" charge=0
N	-2.874315	0.306212	0.893906	7
C	-1.723305	0.306212	0.893906	6
C	-0.279305	0.306212	0.893906	6
C	0.286975	-0.942208	0.199086	6
C	0.757854	-0.382528	-1.091064	6
C	0.701294	0.941662	-1.016384	6
O	0.226315	1.463352	0.168366	8
H	0.096235	0.369682	1.921636	1
H	-0.449625	-1.740878	0.066766	1
H	1.140965	-1.346858	0.753686	1
H	1.117614	-0.953518	-1.932894	1
H	0.999305	1.672662	-1.750914	1
Es	1.041943	0.251837	-0.961605	99
Es	0.517164	-0.694593	-0.457086	99
Es	-0.000946	1.642081	0.100642	99
Es	-2.336268	0.555566	0.721874	99
Es	-0.279397	0.306386	0.893753	99
Es	-0.030552	-0.315996	0.565335	99
Es	0.023879	1.008498	0.431859	99
Es	0.701193	0.941898	-1.016168	99
Es	-2.347600	0.327409	1.200643	99
Es	-1.722945	0.306203	0.893913	99
Es	0.226358	1.462941	0.168238	99
Es	0.899801	1.437834	-1.505174	99
Es	0.862321	-1.206895	0.578647	99
Es	0.996884	-0.772712	-1.649100	99
Es	0.426788	0.242115	-1.208421	99
Es	-1.046179	0.309779	0.889209	99
Es	0.757829	-0.382628	-1.091028	99
Es	-2.349530	0.025530	0.762430	99
Es	-0.213926	-1.469922	0.116443	99
Es	0.475612	1.540146	0.301412	99
Es	-3.242721	0.305025	0.893724	99
Es	0.393520	1.247683	-0.283544	99
Es	-0.053149	0.348486	1.582824	99
Es	0.286956	-0.942123	0.199099	99
Es	-2.873868	0.306209	0.893907	99
