45
Properties=species:S:1:pos:R:3:Z:I:1 energy=-341.12057476085266 field_type=dipole dipole="0.000000 0.000000 0.000000" charge=0
N	-0.903154	-1.723887	-1.060408	7
C	-0.616134	-1.134407	0.254472	6
C	0.200546	0.139532	0.119992	6
N	1.424586	-0.007707	-0.710358	7
C	-0.521464	1.449012	-0.265558	6
O	0.191376	2.177123	0.777432	8
C	0.554476	0.913803	1.406582	6
H	-1.450544	-2.574127	-0.925258	1
H	-0.014244	-2.037218	-1.455138	1
H	-0.073764	-1.871167	0.858232	1
H	-1.563314	-0.932717	0.766502	1
H	1.982986	0.849163	-0.735048	1
H	1.192026	-0.194268	-1.686968	1
H	-1.600954	1.473032	-0.081538	1
H	-0.317344	1.856043	-1.260598	1
H	1.601556	0.900393	1.724652	1
H	-0.086634	0.717402	2.273012	1
Es	0.405056	0.443195	0.804960	99
Es	-1.067839	-1.490963	-1.278301	99
Es	0.554400	0.913985	1.406470	99
Es	1.263047	-0.104653	-1.297435	99
Es	-0.216794	0.751293	-0.141576	99
Es	1.424274	-0.007317	-0.710543	99
Es	-0.616146	-1.134434	0.254328	99
Es	0.335201	1.712418	1.044582	99
Es	-1.261924	-0.987216	0.604552	99
Es	0.450061	2.279494	0.645405	99
Es	-1.222702	-2.241949	-0.963648	99
Es	-0.379625	1.723400	-0.951038	99
Es	1.733389	0.519893	-0.722457	99
Es	-0.202916	-0.501524	0.177843	99
Es	0.191332	2.176890	0.777388	99
Es	-0.770020	-1.484359	-0.483819	99
Es	1.270741	0.899426	1.622374	99
Es	0.200666	0.139535	0.119926	99
Es	-0.363892	-1.919902	-1.283727	99
Es	-0.093796	1.929157	0.375687	99
Es	0.885726	0.074282	-0.370230	99
Es	-0.236943	-1.632953	0.678849	99
Es	-0.521355	1.449128	-0.265382	99
Es	0.108248	0.767790	1.996189	99
Es	1.623211	-0.277374	-0.584992	99
Es	-1.265313	1.457203	-0.135549	99
Es	-0.902887	-1.724230	-1.060055	99
Es	-0.001965	2.343494	0.955876	99
