42
Properties=species:S:1:pos:R:3:Z:I:1 energy=-340.00768444898034 field_type=dipole dipole="0.000000 0.000000 0.000000" charge=0
N	-1.201398	-0.449887	0.699861	7
C	0.233662	-0.539077	0.345261	6
C	0.468842	-0.685467	-1.135319	6
C	-0.434528	-0.629457	-2.124830	6
C	0.996962	0.718043	0.852551	6
N	0.206712	1.705013	1.380341	7
O	2.216452	0.850203	0.797981	8
H	-1.261658	-0.470847	1.718391	1
H	-1.643498	-1.314427	0.387381	1
H	0.657892	-1.405717	0.865221	1
H	1.511872	-0.849927	-1.411049	1
H	-1.487988	-0.448997	-1.936819	1
H	-0.127698	-0.747627	-3.159920	1
H	-0.778138	1.675493	1.136231	1
H	0.642512	2.592673	1.584721	1
Es	0.233542	-0.538982	0.345271	99
Es	-1.201132	-0.450336	0.700079	99
Es	0.459200	2.232377	1.481142	99
Es	0.206816	1.705053	1.379884	99
Es	-1.147121	-0.512559	-2.004017	99
Es	2.294705	1.130199	0.906227	99
Es	2.364719	0.597290	0.681938	99
Es	1.792144	0.893790	0.585079	99
Es	1.828590	0.705420	1.044296	99
Es	0.531665	-1.117320	0.689074	99
Es	0.335539	-0.599609	-0.389502	99
Es	-1.453213	-0.976807	0.517768	99
Es	-0.362570	1.704020	1.228072	99
Es	0.468889	-0.685465	-1.135179	99
Es	0.280447	1.472894	1.585739	99
Es	2.216099	0.850088	0.797969	99
Es	0.052547	-0.337464	-1.651546	99
Es	1.169745	-0.798700	-1.308815	99
Es	-0.434586	-0.629459	-2.124883	99
Es	-1.224969	-0.474932	1.313151	99
Es	0.996819	0.718082	0.852598	99
Es	-0.042699	-0.985580	-1.598059	99
Es	0.514693	1.360276	1.049117	99
Es	-0.231538	-0.710307	-2.823897	99
Es	-1.358236	-0.153697	0.565051	99
Es	-0.577455	-0.496967	0.552608	99
Es	0.598427	0.095045	0.595833	99
