41
Properties=species:S:1:pos:R:3:Z:I:1 energy=-359.82181394010945 field_type=dipole dipole="0.000000 0.000000 0.000000" charge=0
N	-1.765816	-0.057987	0.309720	7
C	-0.402326	0.072513	0.052960	6
C	0.302274	-1.202887	-0.390770	6
O	-0.456076	-2.333447	0.042890	8
C	0.230734	1.246373	0.230600	6
C	1.666374	1.483363	-0.026090	6
O	2.173654	2.579273	0.183320	8
H	-2.283776	0.818503	0.274930	1
H	-2.200596	-0.778547	-0.272430	1
H	1.299364	-1.297897	0.045350	1
H	0.372424	-1.242707	-1.481890	1
H	-0.886866	-2.052947	0.873640	1
H	-0.302536	2.124423	0.580860	1
H	2.253165	0.641973	-0.423090	1
Es	-2.062461	0.464674	0.276282	99
Es	-0.455984	-2.333144	0.043091	99
Es	1.666333	1.483335	-0.026096	99
Es	2.173525	2.578946	0.183250	99
Es	-0.670159	-2.171414	0.486384	99
Es	-0.050091	0.815577	-0.163278	99
Es	0.061960	0.660451	0.447253	99
Es	-2.014690	-0.469217	-0.048267	99
Es	1.962628	2.782540	0.293444	99
Es	1.934606	2.249757	-0.127278	99
Es	-1.189886	0.017486	0.136247	99
Es	0.941073	1.337627	0.104585	99
Es	2.059683	0.894239	-0.298628	99
Es	-0.059816	-0.551372	-0.162953	99
Es	-0.686068	-2.361803	-0.159051	99
Es	-1.765575	-0.057796	0.309164	99
Es	-0.255681	-2.554605	0.102578	99
Es	0.302085	-1.202977	-0.390671	99
Es	0.980586	-1.243089	-0.096604	99
Es	0.344886	-1.213023	-1.124958	99
Es	2.480576	2.592581	0.114124	99
Es	-0.140626	1.832926	0.461388	99
Es	2.046444	2.111398	0.340861	99
Es	-0.402511	0.072342	0.052969	99
Es	-0.174729	-1.885518	-0.106791	99
Es	-1.687710	-0.161905	0.595351	99
Es	0.230777	1.246383	0.230585	99
