39
Properties=species:S:1:pos:R:3:Z:I:1 energy=-338.77921641330147 field_type=dipole dipole="0.000000 0.000000 0.000000" charge=0
O	-1.955295	0.538438	1.719551	8
C	-1.144725	0.321468	0.835391	6
C	-0.594744	-1.014292	0.424471	6
C	0.325765	-0.658642	-0.700689	6
C	1.502045	0.262088	-0.484059	6
N	0.246535	0.774628	-1.024239	7
N	-0.535335	1.268468	0.027141	7
H	-1.410625	-1.656302	0.082351	1
H	-0.056835	-1.477462	1.255191	1
H	0.334645	-1.351422	-1.529199	1
H	1.791245	0.546668	0.520971	1
H	2.323816	0.208158	-1.188609	1
H	-0.826495	2.238208	0.061731	1
Es	-0.145484	1.030055	-0.476869	99
Es	0.246600	0.774335	-1.023561	99
Es	1.686656	0.454662	0.195896	99
Es	-0.116910	-0.847396	-0.133041	99
Es	1.033914	-0.376983	-0.505298	99
Es	-0.594723	-1.014233	0.424443	99
Es	-0.424559	1.132686	0.370831	99
Es	-0.239495	-1.314299	0.978636	99
Es	0.325789	-0.658388	-0.700694	99
Es	0.845262	0.683285	-0.771574	99
Es	1.501819	0.262081	-0.484140	99
Es	2.055241	0.225194	-0.962690	99
Es	-1.138462	-1.434981	0.193018	99
Es	-1.872187	0.440830	1.259837	99
Es	-0.868608	-0.360527	0.631678	99
Es	-1.144619	0.321554	0.835265	99
Es	0.151885	0.141289	-0.934771	99
Es	-2.018508	0.841265	1.743668	99
Es	-0.909968	0.921694	0.173516	99
Es	-2.037999	0.276977	1.857104	99
Es	-1.495700	0.493779	1.585502	99
Es	-0.535705	1.268247	0.026907	99
Es	-0.706248	1.835062	0.026795	99
Es	0.335922	-1.125091	-1.264339	99
Es	-1.955071	0.538374	1.719310	99
Es	0.216283	0.917845	-1.355189	99
