43
Properties=species:S:1:pos:R:3:Z:I:1 energy=-323.94328300824975 field_type=dipole dipole="0.000000 0.000000 0.000000" charge=0
O	-1.422217	0.315726	1.293448	8
C	-0.017607	0.156056	1.135608	6
C	0.296283	-1.255364	0.666068	6
C	0.283262	-1.154274	-0.858492	6
N	0.769332	0.200836	-1.192542	7
C	-0.286608	1.206456	-1.256742	6
C	0.489843	1.014576	0.016878	6
H	-1.576997	1.251156	1.513188	1
H	0.469182	0.376636	2.090458	1
H	-0.415567	-2.001804	1.030748	1
H	1.304193	-1.536134	0.994648	1
H	0.946753	-1.907584	-1.296732	1
H	-0.722047	-1.334944	-1.258702	1
H	-0.064578	2.079456	-1.859382	1
H	-1.316147	0.872946	-1.314032	1
H	1.262923	1.716266	0.295578	1
Es	-1.421973	0.316008	1.293437	99
Es	-0.017834	0.156085	1.135597	99
Es	0.283305	-1.154154	-0.858489	99
Es	0.281423	-1.217919	-0.092717	99
Es	0.263931	0.579345	-1.348746	99
Es	0.127895	-0.557254	0.919158	99
Es	-1.504771	0.150183	1.542259	99
Es	-1.485503	0.824888	1.411256	99
Es	-0.286423	1.206325	-1.256643	99
Es	-0.889626	0.277835	1.238317	99
Es	0.744019	0.497928	-0.599726	99
Es	0.985721	-1.437933	0.891593	99
Es	-1.544491	0.268562	1.015190	99
Es	-0.409723	-1.270583	-1.130495	99
Es	-0.980453	0.976147	-1.295071	99
Es	-0.184332	-1.760575	0.916640	99
Es	1.013467	1.501639	0.207132	99
Es	0.325847	0.318176	1.789885	99
Es	1.072777	0.248987	-1.383024	99
Es	-0.136156	1.800432	-1.665673	99
Es	0.736525	-1.670039	-1.156547	99
Es	0.296291	-1.255337	0.666054	99
Es	0.226043	0.610081	0.575457	99
Es	0.527200	-0.373178	-1.049645	99
Es	0.489851	1.014469	0.016652	99
Es	-0.023964	1.276910	-0.494372	99
Es	0.768785	0.200826	-1.192177	99
