38
Properties=species:S:1:pos:R:3:Z:I:1 energy=-358.65311994794786 field_type=dipole dipole="0.000000 0.000000 0.000000" charge=0
O	-2.219187	-0.433975	0.007783	8
C	-0.899757	-0.312525	0.002903	6
C	-0.083307	0.788645	0.001783	6
O	-0.559127	2.042285	0.005943	8
C	1.257602	0.358285	-0.004217	6
C	1.224522	-1.022025	-0.006627	6
N	-0.092157	-1.417305	-0.002257	7
H	-2.550367	0.485785	0.010743	1
H	0.183153	2.670795	0.004233	1
H	2.151773	0.965925	-0.006557	1
H	2.018703	-1.757105	-0.011037	1
H	-0.431847	-2.368785	-0.002697	1
Es	-2.272772	-0.555408	-0.253010	99
Es	-0.702048	2.065437	-0.253972	99
Es	-0.292484	-1.978562	-0.019233	99
Es	-2.274372	-0.560065	0.267781	99
Es	-0.083410	0.788895	0.001770	99
Es	-0.346590	1.571291	0.004991	99
Es	-0.150939	2.358830	0.005715	99
Es	-0.704158	2.065725	0.265498	99
Es	1.755995	-1.522405	-0.010068	99
Es	-0.419764	0.245980	-0.320776	99
Es	-0.472184	-0.972843	-0.058503	99
Es	1.238430	-0.295268	0.310955	99
Es	-2.379196	0.051872	0.009160	99
Es	1.241606	-0.298378	-0.316335	99
Es	1.853723	0.784169	-0.005960	99
Es	-0.408525	0.243973	0.330200	99
Es	0.005588	-1.282938	0.179936	99
Es	-2.218982	-0.433727	0.007802	99
Es	-0.558784	2.042163	0.005946	99
Es	-0.899952	-0.312769	0.002903	99
Es	-0.092113	-1.417190	-0.002669	99
Es	1.224352	-1.022168	-0.006635	99
Es	1.257614	0.358317	-0.004229	99
Es	-1.704584	-0.370246	0.006687	99
Es	0.450670	-1.287357	-0.117109	99
Es	0.606074	0.640180	-0.004609	99
