42
Properties=species:S:1:pos:R:3:Z:I:1 energy=-339.9524776739398 field_type=dipole dipole="0.000000 0.000000 0.000000" charge=0
O	0.135047	-2.384775	-0.188780	8
C	-0.543452	-1.331145	0.490200	6
C	0.272228	-0.044924	0.398350	6
C	0.420327	0.471605	-1.025140	6
C	0.262118	1.932755	-0.769770	6
N	-0.163882	2.255325	0.407580	7
N	-0.385202	1.086765	1.057220	7
H	-0.419683	-3.179494	-0.099520	1
H	-0.675122	-1.627835	1.536320	1
H	-1.533702	-1.210615	0.036650	1
H	1.271818	-0.199105	0.824490	1
H	-0.366442	0.146235	-1.711880	1
H	1.404957	0.267445	-1.452590	1
H	0.486157	2.667426	-1.555780	1
H	-0.165163	1.150335	2.052650	1
Es	0.956317	-0.153836	0.693577	99
Es	-0.384473	1.086938	1.057182	99
Es	-0.227338	1.128733	1.649040	99
Es	-1.224954	-1.240416	0.178973	99
Es	0.412010	2.428648	-1.303551	99
Es	0.272127	-0.044830	0.398386	99
Es	-0.636825	-1.529778	1.216945	99
Es	1.082221	0.336303	-1.314629	99
Es	-0.115198	0.255050	-1.480659	99
Es	0.352290	1.203756	-0.921942	99
Es	0.420317	0.471638	-1.025105	99
Es	0.132095	-2.309476	-0.486255	99
Es	-0.232698	1.653038	0.736398	99
Es	-0.073214	0.599563	0.783559	99
Es	-0.134954	-1.999217	0.075016	99
Es	-0.703823	1.055848	1.005138	99
Es	-0.177288	-2.801531	-0.128638	99
Es	-0.235666	2.578834	0.578268	99
Es	0.395102	-2.438246	-0.034207	99
Es	-0.236686	2.104612	-0.218566	99
Es	-0.138026	-0.688325	0.446530	99
Es	0.344380	0.180544	-0.329116	99
Es	0.134708	-2.384781	-0.188653	99
Es	0.315946	2.129619	-0.040173	99
Es	-0.543312	-1.331299	0.490097	99
Es	0.262112	1.932753	-0.769806	99
Es	-0.163778	2.254752	0.407349	99
