42
Properties=species:S:1:pos:R:3:Z:I:1 energy=-339.89626995556773 field_type=dipole dipole="0.000000 0.000000 0.000000" charge=0
O	-0.698490	-2.692076	0.637015	8
C	-1.066580	-1.336386	0.412755	6
C	0.166720	-0.515956	0.264645	6
C	0.795890	-0.317066	-1.081715	6
N	0.075610	0.777554	-0.423225	7
N	1.008260	1.579474	0.130465	7
C	0.631770	2.813694	0.137585	6
H	-1.523580	-3.182746	0.791515	1
H	-1.647350	-0.988036	1.272965	1
H	-1.701740	-1.295136	-0.478675	1
H	0.813320	-0.590136	1.131475	1
H	0.309470	-0.738476	-1.951395	1
H	1.875900	-0.260176	-1.143485	1
H	1.297710	3.581464	0.562705	1
H	-0.336910	3.164004	-0.262635	1
Es	0.054210	0.286174	-0.009446	99
Es	0.076180	0.777259	-0.422988	99
Es	-0.542322	-2.697006	0.901418	99
Es	-1.066492	-1.336598	0.412796	99
Es	0.538444	1.178511	-0.146456	99
Es	-1.468069	-1.090233	1.004618	99
Es	-0.455495	-0.914016	0.325832	99
Es	-0.582062	-2.795374	0.372782	99
Es	0.545857	-0.633703	-0.414170	99
Es	0.599882	-0.555160	0.846616	99
Es	0.631785	2.813743	0.137587	99
Es	0.795746	-0.316913	-1.081561	99
Es	-1.503117	-1.299557	-0.202513	99
Es	1.077810	3.337433	0.423524	99
Es	-0.857314	-2.181501	0.555153	99
Es	0.954210	2.162183	-0.128939	99
Es	0.462051	-0.598493	-1.671358	99
Es	-0.018984	3.053241	-0.130338	99
Es	1.007748	1.579716	0.130263	99
Es	0.166687	-0.515772	0.264465	99
Es	1.333276	1.430289	0.258807	99
Es	0.429553	0.404502	-0.802265	99
Es	1.519841	-0.269342	-1.124839	99
Es	0.713439	2.085799	0.389785	99
Es	-1.154655	-2.938664	0.717759	99
Es	-0.698797	-2.691929	0.637075	99
Es	-0.250533	0.906920	-0.553835	99
