37
Properties=species:S:1:pos:R:3:Z:I:1 energy=-321.5927078413141 field_type=dipole dipole="0.000000 0.000000 0.000000" charge=0
O	-2.122521	0.094423	0.612814	8
C	-0.687461	0.180763	0.560424	6
C	-0.209082	-0.528827	-0.709456	6
C	1.242259	-0.779707	-0.699216	6
C	2.425569	-0.982367	-0.695076	6
C	-0.248372	1.591422	0.587984	6
N	0.068849	2.707002	0.641594	7
H	-2.418111	0.649622	1.356954	1
H	-0.308331	-0.338928	1.448304	1
H	-0.484421	0.052433	-1.598786	1
H	-0.735742	-1.486697	-0.807746	1
H	3.477369	-1.159137	-0.697796	1
Es	1.899821	-0.529728	-0.678879	99
Es	-0.543789	-1.163383	-0.758526	99
Es	-0.687647	0.180945	0.560365	99
Es	1.241963	-0.779653	-0.699221	99
Es	-0.448746	0.936316	0.569436	99
Es	1.805713	-1.072744	-0.388864	99
Es	0.068722	2.706563	0.641573	99
Es	-2.223962	0.228307	0.357387	99
Es	-0.417112	-0.146534	1.155293	99
Es	3.108889	-1.098343	-0.696255	99
Es	-2.122316	0.094619	0.612981	99
Es	-0.215198	2.250476	0.344612	99
Es	-2.172281	-0.196884	0.683461	99
Es	0.169290	3.058415	0.658190	99
Es	-0.248459	1.591080	0.587967	99
Es	-2.258103	0.391921	1.016782	99
Es	0.217271	2.100992	0.627784	99
Es	-0.208950	-0.528804	-0.709376	99
Es	-0.428566	-0.151844	-0.069460	99
Es	-0.238834	2.228363	0.879842	99
Es	-1.565019	0.160751	0.607642	99
Es	2.425799	-0.982411	-0.695077	99
Es	1.801119	-1.045013	-1.012700	99
Es	0.542871	-0.649387	-0.693450	99
Es	-0.376277	-0.136008	-1.291417	99
