41
Properties=species:S:1:pos:R:3:Z:I:1 energy=-359.7907070525768 field_type=dipole dipole="0.000000 0.000000 0.000000" charge=0
O	-1.270234	-0.249724	1.548126	8
C	-0.529754	-0.584404	0.376776	6
C	-1.464234	-0.985654	-0.755503	6
O	-2.688904	-1.003624	-0.628314	8
C	0.305616	0.600736	-0.002564	6
C	1.770236	0.638006	0.353936	6
N	1.340666	0.477626	-1.033123	7
H	-2.213494	-0.380414	1.317876	1
H	0.086846	-1.458384	0.612696	1
H	-0.975504	-1.298484	-1.694664	1
H	-0.253824	1.528806	0.009276	1
H	2.224206	-0.231934	0.813446	1
H	2.212866	1.589486	0.623976	1
H	1.455516	1.357966	-1.541944	1
Es	-1.464260	-0.985651	-0.755478	99
Es	-0.111755	-0.010270	0.156153	99
Es	-2.842533	-1.095363	-0.879836	99
Es	-2.688567	-1.003625	-0.628357	99
Es	1.770102	0.637992	0.353712	99
Es	2.074771	0.046800	0.665500	99
Es	0.305828	0.600663	-0.002705	99
Es	-2.236165	-1.232970	-0.594008	99
Es	-2.259172	-0.756289	-0.753573	99
Es	-1.003500	-0.382061	1.080639	99
Es	-0.529914	-0.584336	0.376884	99
Es	-1.193347	-0.457032	1.753703	99
Es	-1.000685	-0.776250	-0.195798	99
Es	2.070356	1.285638	0.534196	99
Es	0.979402	0.638393	0.394323	99
Es	1.399554	1.015171	-1.320329	99
Es	-1.225231	0.048327	1.587187	99
Es	1.384746	0.161694	-1.197862	99
Es	1.660995	0.558729	-0.474391	99
Es	0.783982	0.531367	-0.688360	99
Es	-2.771908	-0.909364	-0.332849	99
Es	1.340545	0.478118	-1.032756	99
Es	-1.123916	-1.193177	-1.386198	99
Es	-1.754718	-0.322707	1.414309	99
Es	-0.113223	-1.178810	0.510876	99
Es	-1.270356	-0.249849	1.547832	99
Es	-0.073215	1.228091	0.000224	99
