38
Properties=species:S:1:pos:R:3:Z:I:1 energy=-358.6520290437166 field_type=dipole dipole="0.000000 0.000000 0.000000" charge=0
O	-1.954196	-1.672297	0.827932	8
C	-0.851476	-1.582247	0.307152	6
N	-0.094367	-0.452317	0.274002	7
C	-0.517246	0.925352	0.540342	6
C	0.659274	1.366473	-0.354068	6
O	1.109023	2.430702	-0.723878	8
C	1.030904	-0.111097	-0.594398	6
H	-0.365057	-2.433078	-0.197838	1
H	-0.422147	1.210412	1.589422	1
H	-1.503646	1.171872	0.143292	1
H	0.910963	-0.445448	-1.626488	1
H	1.997974	-0.408327	-0.185468	1
Es	0.389589	-0.375142	-0.116637	99
Es	1.350193	2.391833	-0.905311	99
Es	-0.328869	0.109604	0.412042	99
Es	0.948988	2.662261	-0.610356	99
Es	-0.851353	-1.582113	0.307140	99
Es	-1.953893	-1.672243	0.827795	99
Es	-0.505649	-2.154509	-0.042403	99
Es	-2.066780	-1.955906	0.802973	99
Es	0.946617	-0.330290	-1.285813	99
Es	-1.690561	-1.576407	0.433341	99
Es	0.044706	1.220579	0.113422	99
Es	1.108889	2.430381	-0.723768	99
Es	-0.094605	-0.452283	0.273630	99
Es	0.791673	2.035829	-0.792828	99
Es	1.678246	-0.302926	-0.321327	99
Es	-0.048841	-0.671774	0.529457	99
Es	-1.468035	-1.702017	0.863270	99
Es	-0.517153	0.925187	0.540279	99
Es	-0.445198	1.120664	1.234619	99
Es	0.913307	0.631870	-0.525432	99
Es	0.659251	1.366389	-0.354051	99
Es	-2.039362	-1.400638	0.951409	99
Es	1.030750	-0.111115	-0.594290	99
Es	1.099680	2.048273	-0.385338	99
Es	-1.164932	1.091607	0.266197	99
Es	-0.458005	-0.837471	0.135634	99
