41
Properties=species:S:1:pos:R:3:Z:I:1 energy=-359.8204750043645 field_type=dipole dipole="0.000000 0.000000 0.000000" charge=0
O	-1.867584	-1.042552	0.453704	8
C	-0.856004	-1.501362	-0.337376	6
O	-0.938954	-2.600872	-0.878356	8
C	0.341726	-0.526862	-0.465406	6
C	0.021026	0.946238	-0.804476	6
N	-0.043824	1.197178	0.661564	7
C	0.910756	0.068978	0.841894	6
H	-1.645074	-0.150642	0.808704	1
H	1.116776	-0.956492	-1.113156	1
H	-0.915124	1.129958	-1.338816	1
H	0.832376	1.481218	-1.312626	1
H	0.323376	2.108018	0.948474	1
H	1.965385	0.364098	0.783934	1
H	0.755146	-0.516902	1.751944	1
Es	-1.460759	-1.186681	0.164934	99
Es	-0.021508	1.160935	0.016228	99
Es	-2.063675	-1.024079	0.248635	99
Es	-0.264439	-0.997801	-0.388855	99
Es	0.806183	-0.329854	1.464900	99
Es	0.021040	0.946211	-0.804301	99
Es	0.146852	0.168245	-0.716432	99
Es	0.910636	0.069080	0.841824	99
Es	0.645128	-0.323101	0.205973	99
Es	-0.938925	-2.600573	-0.878214	99
Es	-1.860640	-1.241183	0.655284	99
Es	0.584651	1.301780	-1.143973	99
Es	0.399586	0.745885	0.795574	99
Es	-0.688137	-2.662490	-1.046867	99
Es	-0.793209	-2.325339	-0.491840	99
Es	-0.043339	1.197238	0.661333	99
Es	1.628264	0.272817	0.787081	99
Es	-0.617784	1.074165	-1.170098	99
Es	0.858257	-0.824868	-0.903231	99
Es	-1.867250	-1.042353	0.453603	99
Es	-1.203097	-2.735496	-0.807449	99
Es	0.188133	1.746571	0.828825	99
Es	-0.381434	1.098999	0.791710	99
Es	-0.856134	-1.501205	-0.337221	99
Es	-1.734137	-0.586368	0.626572	99
Es	-1.011641	-2.110163	-0.895910	99
Es	0.341654	-0.526833	-0.465352	99
