41
Properties=species:S:1:pos:R:3:Z:I:1 energy=-359.7320985325912 field_type=dipole dipole="0.000000 0.000000 0.000000" charge=0
O	-2.955461	-0.822420	1.470849	8
N	-1.569101	-0.995740	1.402389	7
C	-1.161251	-0.616550	0.234359	6
C	0.296409	-0.659550	-0.126771	6
C	0.886119	0.711970	-0.119271	6
C	1.928079	1.126270	-1.123441	6
O	0.550919	1.508950	-1.262881	8
H	-3.158031	-1.096380	2.384619	1
H	-1.855001	-0.218440	-0.527221	1
H	0.380669	-1.125310	-1.114861	1
H	0.831949	-1.289990	0.590799	1
H	0.877509	1.183900	0.855229	1
H	2.314659	0.392910	-1.820131	1
H	2.632539	1.900380	-0.843671	1
Es	0.658005	-1.075380	0.358671	99
Es	0.415718	1.322897	-1.469411	99
Es	-1.391059	-1.135929	1.708528	99
Es	-0.436230	-0.635614	0.062276	99
Es	0.521704	1.804463	-1.181277	99
Es	-3.058690	-0.970490	1.961312	99
Es	0.873745	1.038301	0.539546	99
Es	0.580601	0.019497	-0.128737	99
Es	0.350006	-0.966344	-0.794226	99
Es	0.886051	0.712108	-0.119542	99
Es	2.187002	0.629763	-1.603024	99
Es	0.551081	1.508827	-1.262757	99
Es	-1.161195	-0.616561	0.234345	99
Es	-1.569454	-0.995513	1.401919	99
Es	-3.066061	-1.029578	1.274818	99
Es	-1.425261	-1.102178	0.786129	99
Es	-1.347458	-0.559942	0.991752	99
Es	-2.998140	-0.518497	1.441569	99
Es	0.573094	1.217890	-0.794365	99
Es	1.099779	1.413898	-1.304623	99
Es	0.296349	-0.659516	-0.126753	99
Es	2.404141	1.656980	-0.939845	99
Es	-2.349591	-0.897207	1.442061	99
Es	-2.955243	-0.822557	1.471128	99
Es	-1.623046	-0.352105	-0.275785	99
Es	1.579648	0.791402	-0.497769	99
Es	1.927773	1.126340	-1.123453	99
