45
Properties=species:S:1:pos:R:3:Z:I:1 energy=-629.4790676527838 field_type=dipole dipole="0.000000 0.000000 0.000000" charge=0
C	-2.694809	0.371529	-0.013369	6
C	-1.207299	0.294259	-0.005969	6
C	-0.293259	1.326649	-0.001039	6
C	1.051180	0.855349	0.005631	6
C	1.122481	-0.522381	0.005491	6
C	2.344541	-1.375631	0.011371	6
S	-0.433569	-1.231281	-0.003259	16
H	-3.032419	1.413319	-0.004639	1
H	-3.114429	-0.123281	0.868771	1
H	-3.104089	-0.105331	-0.910109	1
H	-0.572629	2.373379	-0.002019	1
H	1.923241	1.498219	0.010401	1
H	2.109181	-2.444681	0.021451	1
H	2.952231	-1.157221	0.895661	1
H	2.949650	-1.172891	-0.878379	1
Es	-2.968198	0.033695	0.580568	99
Es	2.746751	-1.221931	0.606527	99
Es	-0.477290	-1.377819	-0.428964	99
Es	1.051187	0.855376	0.005631	99
Es	1.044512	0.191072	-0.307925	99
Es	-0.862109	-0.456559	-0.004213	99
Es	0.394946	1.134886	0.002123	99
Es	-0.293244	1.326675	-0.001043	99
Es	-1.207324	0.294058	-0.005962	99
Es	-1.940953	0.323406	-0.009587	99
Es	1.122377	-0.522557	0.005492	99
Es	-2.694740	0.371523	-0.013369	99
Es	1.640805	1.291630	0.008844	99
Es	-2.913689	1.076863	-0.007434	99
Es	2.174339	-2.095851	0.018066	99
Es	-0.354494	-1.165234	-0.063420	99
Es	-0.532988	-1.168394	0.014092	99
Es	-0.433563	-1.231274	-0.003250	99
Es	-0.481028	2.035189	-0.001649	99
Es	0.383485	-0.891493	0.001949	99
Es	-0.459137	-1.327000	-0.064959	99
Es	-2.961196	0.045936	-0.617123	99
Es	2.744923	-1.232552	-0.587555	99
Es	1.715592	-0.956242	0.008451	99
Es	1.040938	0.190942	0.318745	99
Es	-0.710902	0.797182	0.311258	99
Es	-0.708223	0.797766	-0.317571	99
Es	-0.387159	-1.262475	0.101340	99
Es	2.344478	-1.375596	0.011371	99
Es	-0.484305	-1.385695	0.420340	99
