44
Properties=species:S:1:pos:R:3:Z:I:1 energy=-645.4748815646299 field_type=dipole dipole="0.000000 0.000000 0.000000" charge=0
C	-2.496918	0.240575	-0.009980	6
C	-1.009418	0.169425	-0.007230	6
C	-0.098248	1.204235	0.003950	6
C	1.248102	0.733695	-0.007460	6
C	1.324352	-0.639675	-0.031310	6
N	2.441312	-1.389775	-0.061400	7
S	-0.228008	-1.352315	-0.023670	16
H	-2.838638	1.281055	-0.001250	1
H	-2.912138	-0.255575	0.873310	1
H	-2.906908	-0.238065	-0.905540	1
H	-0.378608	2.250375	0.014630	1
H	2.116692	1.379425	-0.007210	1
H	2.379112	-2.394245	0.068360	1
H	3.359312	-0.989135	0.094800	1
Es	1.966759	-1.079664	0.056546	99
Es	1.841429	1.169477	-0.006212	99
Es	1.248117	0.733681	-0.007483	99
Es	2.970666	-1.144640	0.063301	99
Es	-0.227977	-1.352344	-0.023687	99
Es	-0.258952	-1.524277	0.408144	99
Es	-2.766694	-0.087198	-0.614259	99
Es	-0.554212	0.653306	0.317875	99
Es	-1.743176	0.190926	-0.008216	99
Es	-0.554558	0.659048	-0.321030	99
Es	2.370013	-1.339901	-0.308662	99
Es	-0.325314	-1.363758	-0.088158	99
Es	-2.496851	0.240568	-0.009980	99
Es	2.441080	-1.389643	-0.060673	99
Es	-0.240738	-1.260178	0.051143	99
Es	-1.009432	0.169211	-0.007232	99
Es	1.230517	0.142497	-0.326197	99
Es	2.396174	-1.979408	0.047217	99
Es	-0.285733	1.912060	0.011384	99
Es	-0.650195	-0.587721	-0.014328	99
Es	-0.270250	-1.521686	-0.454675	99
Es	-0.098229	1.204267	0.003953	99
Es	-0.208145	-1.452140	0.037028	99
Es	1.324340	-0.639946	-0.031319	99
Es	1.232171	0.136100	0.293625	99
Es	-2.770274	-0.099080	0.586255	99
Es	-0.136758	-1.330870	-0.094777	99
Es	-2.718079	0.945168	-0.003861	99
Es	0.607955	-1.015674	-0.030377	99
Es	0.590270	1.010053	-0.000706	99
