45
Properties=species:S:1:pos:R:3:Z:I:1 energy=-739.2859373674266 field_type=dipole dipole="0.000000 0.000000 0.000000" charge=0
C	-1.456546	0.096824	-0.506902	6
C	0.055994	0.060584	-0.506822	6
C	0.765624	1.024244	0.443128	6
O	1.786783	0.072664	0.820248	8
S	0.855144	-1.208956	0.411158	16
O	0.096143	-1.634286	1.564228	8
O	1.612514	-2.101686	-0.436062	8
H	-1.861636	-0.748456	-1.072292	1
H	-1.818156	1.017484	-0.976102	1
H	-1.867706	0.053804	0.506838	1
H	0.451324	0.110704	-1.528992	1
H	0.186684	1.346794	1.316888	1
H	1.193834	1.910284	-0.035312	1
Es	-1.682279	0.721817	-0.825018	99
Es	-1.719481	-0.473122	-0.890239	99
Es	0.149554	-1.849337	1.703946	99
Es	1.486092	-0.373295	0.714980	99
Es	0.363726	1.232914	1.029018	99
Es	0.768822	-1.126621	0.426067	99
Es	0.358465	-0.597605	-0.120022	99
Es	0.368160	0.574759	-0.048157	99
Es	0.498368	-1.511836	1.294621	99
Es	1.228061	-2.042038	-0.397208	99
Es	0.331730	0.085143	-1.172769	99
Es	0.034633	-1.328806	1.571588	99
Es	0.096383	-1.634203	1.563922	99
Es	-1.720870	0.072012	0.175249	99
Es	1.664191	-1.852634	-0.601190	99
Es	1.401265	0.426206	0.698309	99
Es	1.056672	1.615638	0.115565	99
Es	1.786458	0.072615	0.820104	99
Es	1.710184	-2.334910	-0.339795	99
Es	1.612353	-2.101495	-0.435887	99
Es	0.765796	1.024019	0.443153	99
Es	-0.682917	0.066955	-0.498543	99
Es	0.853057	-1.282357	0.499808	99
Es	1.856967	0.069683	1.112334	99
Es	0.855154	-1.208952	0.411160	99
Es	0.016615	-1.664715	1.189881	99
Es	0.964548	-1.156392	0.404257	99
Es	0.056018	0.060513	-0.506729	99
Es	0.834383	-1.270062	0.314650	99
Es	1.961845	0.068550	0.585817	99
Es	1.517070	-1.805152	-0.039496	99
Es	-1.456459	0.096828	-0.506917	99
