44
Properties=species:S:1:pos:R:3:Z:I:1 energy=-645.4772635491416 field_type=dipole dipole="0.000000 0.000000 0.000000" charge=0
C	-1.728167	0.540759	-0.005681	6
C	-0.236027	0.552759	0.000999	6
C	0.530533	1.705128	0.004049	6
S	2.211073	1.389338	0.012429	16
C	1.941823	-0.298491	0.012359	6
C	0.602383	-0.604742	0.005579	6
N	0.144543	-1.869511	0.003969	7
H	-2.136927	1.556418	0.002789	1
H	-2.109897	0.016519	0.876299	1
H	-2.101397	0.034369	-0.901611	1
H	0.182283	2.728868	0.001889	1
H	2.782473	-0.976891	0.017349	1
H	-0.843137	-2.098442	-0.019761	1
H	0.760433	-2.676081	-0.010651	1
Es	-0.978390	0.540669	-0.002350	99
Es	-0.444315	-1.994139	-0.042703	99
Es	2.281269	1.295699	0.032486	99
Es	0.168146	1.083333	-0.311226	99
Es	2.140931	1.367554	-0.078760	99
Es	1.340079	1.581809	0.007994	99
Es	0.301817	2.392352	0.002594	99
Es	-0.236070	0.552716	0.001001	99
Es	2.323959	1.509261	-0.417496	99
Es	-1.998227	1.228204	-0.000031	99
Es	2.142951	1.409036	0.107266	99
Es	0.144654	-1.869201	0.002730	99
Es	2.277134	1.484039	-0.010703	99
Es	0.333720	-1.337677	-0.094649	99
Es	0.172462	-1.784611	0.176634	99
Es	0.165211	1.083834	0.316441	99
Es	2.322010	1.511491	0.443116	99
Es	-1.728111	0.540749	-0.005681	99
Es	1.331423	-0.384513	-0.304385	99
Es	2.101853	0.507041	0.012773	99
Es	0.518559	-2.341288	-0.034794	99
Es	1.941905	-0.298337	0.012359	99
Es	-1.972424	0.192861	-0.610368	99
Es	2.210763	1.388706	0.011900	99
Es	0.530713	1.705170	0.004050	99
Es	0.142055	-0.064259	0.002955	99
Es	-1.978141	0.180813	0.589461	99
Es	0.602280	-0.604892	0.005579	99
Es	2.507881	-0.753513	0.015579	99
Es	1.328492	-0.385298	0.323188	99
