45
Properties=species:S:1:pos:R:3:Z:I:1 energy=-739.2634254194287 field_type=dipole dipole="0.000000 0.000000 0.000000" charge=0
C	-1.678107	0.391223	-0.484088	6
C	-0.176907	0.230263	-0.577118	6
O	0.506753	1.212943	0.235022	8
C	1.542593	0.327863	0.706902	6
S	0.572913	-1.081037	0.326602	16
O	-0.220487	-1.529087	1.455252	8
O	1.274053	-2.007867	-0.541658	8
H	-2.184857	-0.430817	-1.000758	1
H	-1.994047	1.327183	-0.955448	1
H	-2.023597	0.405123	0.553712	1
H	0.174983	0.272793	-1.614018	1
H	2.463033	0.422463	0.123472	1
H	1.743673	0.458953	1.772122	1
Es	0.506849	1.212558	0.234941	99
Es	0.251083	0.837615	-0.077980	99
Es	0.545567	-0.975582	0.280342	99
Es	1.018078	-2.127081	-0.619818	99
Es	0.517441	-1.166409	0.265417	99
Es	1.542376	0.327925	0.706806	99
Es	1.424317	-2.093570	-0.302567	99
Es	1.169253	-0.375657	0.583515	99
Es	-1.678027	0.391205	-0.484119	99
Es	-0.270998	-1.236069	1.512252	99
Es	-0.388856	-1.680200	1.266553	99
Es	1.676503	0.408874	1.415105	99
Es	0.069406	0.241520	-1.265749	99
Es	0.098549	-0.443365	-0.200444	99
Es	0.572910	-1.080923	0.326649	99
Es	-1.896934	0.399230	0.208795	99
Es	1.273920	-2.007677	-0.541494	99
Es	1.365764	-1.743423	-0.679375	99
Es	0.538147	-1.084761	0.439879	99
Es	0.044354	-1.640500	1.543002	99
Es	-0.220313	-1.528975	1.455004	99
Es	0.323926	1.260597	0.475060	99
Es	-1.872439	1.019577	-0.805924	99
Es	-0.912195	0.296911	-0.526044	99
Es	2.149298	0.373499	0.307924	99
Es	0.063967	-1.359137	1.023981	99
Es	-2.002691	-0.166257	-0.836781	99
Es	0.997353	-1.685001	-0.207324	99
Es	-0.176789	0.230344	-0.576925	99
Es	0.911761	0.873093	0.414411	99
Es	0.690419	-1.097592	0.320726	99
Es	0.631995	1.415669	0.052175	99
