47
Properties=species:S:1:pos:R:3:Z:I:1 energy=-305.27988905338987 field_type=dipole dipole="0.000000 0.000000 0.000000" charge=0
C	-2.151226	0.294183	-0.370129	6
C	-0.634576	0.269313	-0.393579	6
C	0.079794	1.350943	0.465941	6
C	1.100754	0.277583	0.909920	6
N	2.252934	0.305783	-0.003039	7
C	0.048424	-0.795867	0.509561	6
N	0.619694	-1.857347	-0.324129	7
H	-2.558246	-0.577787	-0.893269	1
H	-2.529126	1.192453	-0.869899	1
H	-2.541426	0.287083	0.653561	1
H	-0.276856	0.283873	-1.433139	1
H	-0.527796	1.725653	1.299971	1
H	0.465384	2.215443	-0.083389	1
H	1.375194	0.296193	1.967991	1
H	2.024844	0.482853	-0.977780	1
H	2.756994	-0.581777	0.015091	1
H	-0.556506	-1.152207	1.351061	1
H	1.134424	-1.517897	-1.133169	1
H	-0.082686	-2.498467	-0.691569	1
Es	-2.408239	0.907982	-0.712000	99
Es	0.174180	-2.219367	-0.552845	99
Es	-1.404647	0.283478	-0.383820	99
Es	2.252639	0.305451	-0.003169	99
Es	2.080828	0.390072	-0.589615	99
Es	2.537108	-0.237985	0.003331	99
Es	0.359088	-1.402579	0.016775	99
Es	0.079791	1.350895	0.465943	99
Es	0.636469	0.880231	0.727079	99
Es	-0.377075	0.269141	-1.105217	99
Es	1.739289	0.262423	0.366907	99
Es	0.048482	-0.795957	0.509450	99
Es	-0.327115	0.881551	0.000562	99
Es	-0.342824	1.594658	1.037437	99
Es	1.100828	0.277585	0.909785	99
Es	0.349251	1.941512	0.089580	99
Es	0.903282	-1.626201	-0.815831	99
Es	-0.355180	-0.308426	0.027832	99
Es	-0.371418	-1.042107	1.077430	99
Es	-2.411289	0.288597	0.333147	99
Es	-0.634595	0.269361	-0.393545	99
Es	-2.151224	0.294179	-0.370137	99
Es	2.462447	0.561620	0.097647	99
Es	0.619315	-1.857019	-0.324466	99
Es	0.845417	-2.052786	-0.137830	99
Es	-2.427157	-0.305341	-0.727830	99
Es	0.611727	-0.327529	0.754791	99
Es	1.301611	0.284646	1.635072	99
