43
Properties=species:S:1:pos:R:3:Z:I:1 energy=-661.4593372843789 field_type=dipole dipole="0.000000 0.000000 0.000000" charge=0
C	-1.450454	-1.327596	0.114760	6
C	0.065716	-1.223166	0.064670	6
C	0.517015	0.199074	0.061330	6
N	0.702215	0.928434	1.143360	7
N	1.120265	2.210094	0.845410	7
C	1.235565	2.397984	-0.450730	6
S	0.844915	1.031484	-1.408620	16
H	-1.757575	-2.377966	0.137480	1
H	-1.910554	-0.858306	-0.761390	1
H	-1.852005	-0.836716	1.007910	1
H	0.442356	-1.753816	-0.817690	1
H	0.490766	-1.729046	0.939680	1
H	1.551775	3.339544	-0.876170	1
Es	-1.755580	-1.006548	-0.485406	99
Es	0.353682	-1.551568	0.650982	99
Es	1.050066	1.758782	-0.953427	99
Es	0.908160	1.563188	0.959775	99
Es	0.374880	0.748157	0.637329	99
Es	0.447957	1.117051	-1.583885	99
Es	0.661423	0.579601	-0.677718	99
Es	0.891624	2.328030	0.247567	99
Es	0.065712	-1.223064	0.064647	99
Es	0.517038	0.199123	0.061178	99
Es	0.652572	0.811244	1.486962	99
Es	0.804080	1.027496	-1.518435	99
Es	0.322754	-1.566463	-0.541676	99
Es	1.240910	0.873496	-1.511842	99
Es	0.905359	0.586740	0.657679	99
Es	-1.715828	-0.995456	0.718229	99
Es	1.235533	2.397866	-0.450843	99
Es	-0.677270	-1.253759	0.085295	99
Es	0.763234	1.078375	-1.336879	99
Es	-1.450392	-1.327595	0.114745	99
Es	-1.650751	-2.042923	0.127886	99
Es	1.420087	2.157658	0.270915	99
Es	0.946499	1.096259	-1.402739	99
Es	0.845068	1.031604	-1.408588	99
Es	0.300559	-0.488497	0.047527	99
Es	1.443519	3.014225	-0.749501	99
Es	0.865647	0.924289	-1.373217	99
Es	0.702289	0.928605	1.142743	99
Es	1.120142	2.209651	0.844928	99
Es	1.188783	2.459023	1.105213	99
