49
Properties=species:S:1:pos:R:3:Z:I:1 energy=-663.8546082551828 field_type=dipole dipole="0.000000 0.000000 0.000000" charge=0
C	-0.752851	-1.494376	1.425639	6
C	-1.197461	-0.585676	0.287839	6
C	-0.574181	0.806284	0.371049	6
N	0.868199	0.778984	0.202969	7
C	1.589269	0.774144	-0.937381	6
N	0.932639	0.835184	-2.108561	7
S	3.246839	0.722184	-0.894391	16
H	-1.262111	-2.460726	1.357259	1
H	-0.993871	-1.052316	2.397519	1
H	0.325009	-1.680086	1.389439	1
H	-2.288721	-0.486496	0.324159	1
H	-0.947751	-1.059776	-0.668361	1
H	-0.777891	1.260844	1.346419	1
H	-1.010021	1.455834	-0.394911	1
H	1.429059	0.716024	1.045249	1
H	-0.060941	0.684774	-2.181641	1
H	1.474789	0.785194	-2.962291	1
Es	1.183706	0.735071	0.701378	99
Es	-1.021791	-0.900336	-0.370753	99
Es	3.339413	0.783125	-0.852970	99
Es	-0.876285	0.111293	0.327048	99
Es	2.318730	0.806182	-0.918107	99
Es	-0.918750	-1.184444	2.086515	99
Es	1.240907	0.788963	-2.606262	99
Es	3.250752	0.719179	-1.012357	99
Es	1.178611	0.633661	-1.662265	99
Es	3.146369	0.775005	-0.860129	99
Es	3.249427	0.611460	-0.852121	99
Es	1.068911	0.523348	-0.165182	99
Es	3.019133	0.345976	-0.900217	99
Es	-0.867496	1.245045	-0.160261	99
Es	-0.573987	0.806259	0.371010	99
Es	-1.101280	-2.149040	1.376497	99
Es	1.589094	0.774158	-0.937390	99
Es	-1.943702	-0.509906	0.313208	99
Es	0.868231	0.778961	0.202857	99
Es	0.345650	0.731173	-2.143495	99
Es	0.259329	0.780986	0.253963	99
Es	-0.752865	-1.494348	1.425613	99
Es	1.015771	1.100237	-1.915846	99
Es	-1.197437	-0.585659	0.287860	99
Es	3.347929	0.881428	-0.397900	99
Es	3.246823	0.722185	-0.894385	99
Es	1.049043	1.054239	-0.076262	99
Es	-0.021888	-1.614571	1.399705	99
Es	0.932739	0.834782	-2.108381	99
Es	-0.708153	1.109005	1.035195	99
Es	-0.968291	-1.032889	0.857981	99
Es	3.372011	0.879625	-1.384751	99
