50
Properties=species:S:1:pos:R:3:Z:I:1 energy=-704.6430529543828 field_type=dipole dipole="0.000000 0.000000 0.000000" charge=0
C	-1.433361	-0.717549	0.601294	6
C	0.090169	-0.668289	0.612844	6
C	0.674609	-1.475590	-0.540696	6
S	0.709759	1.023961	0.633084	16
C	0.156319	1.760221	-0.889196	6
O	0.048709	1.728170	1.716574	8
O	2.158909	0.969071	0.582714	8
H	-1.855561	-0.148709	1.435754	1
H	-1.785471	-1.750689	0.691474	1
H	-1.844571	-0.305819	-0.325456	1
H	0.444299	-1.103839	1.555484	1
H	0.341769	-1.094329	-1.510986	1
H	0.365679	-2.524129	-0.471646	1
H	1.768909	-1.450229	-0.529336	1
H	0.578629	1.212281	-1.732036	1
H	0.514779	2.792201	-0.909276	1
H	-0.933581	1.753271	-0.920596	1
Es	0.156352	1.760155	-0.889090	99
Es	0.439930	-1.206732	-1.196179	99
Es	0.437114	1.384329	-1.438973	99
Es	-1.712796	-0.338181	1.159008	99
Es	0.048825	1.728037	1.716373	99
Es	-1.433286	-0.717549	0.601273	99
Es	1.621167	0.991837	0.613397	99
Es	0.590530	1.028735	0.624282	99
Es	0.177076	1.977129	1.614306	99
Es	0.090189	-0.668166	0.612798	99
Es	1.404535	-1.457777	-0.530816	99
Es	2.162016	1.266158	0.570285	99
Es	0.385169	-1.041607	0.034499	99
Es	-0.211762	1.636880	1.575495	99
Es	-1.654783	-1.418757	0.658274	99
Es	0.756195	1.125738	0.595561	99
Es	2.112752	0.814301	0.319203	99
Es	0.709740	1.023989	0.633086	99
Es	-0.658514	-0.666301	0.599933	99
Es	0.742390	1.004057	0.746939	99
Es	0.334151	-0.936517	1.241267	99
Es	-0.566180	1.743284	-0.900619	99
Es	0.175929	1.549024	1.915878	99
Es	0.398566	2.429483	-0.884069	99
Es	0.749861	0.937243	0.565424	99
Es	-1.701454	-0.435140	-0.035466	99
Es	2.160532	0.815995	0.836793	99
Es	2.158771	0.969065	0.582701	99
Es	0.304149	1.463183	1.323752	99
Es	0.454629	-2.177246	-0.482932	99
Es	0.674563	-1.475547	-0.540654	99
Es	0.399024	1.403747	-0.199168	99
Es	0.367313	0.130798	0.593805	99
