50
Properties=species:S:1:pos:R:3:Z:I:1 energy=-704.6453315024488 field_type=dipole dipole="0.000000 0.000000 0.000000" charge=0
C	-2.279668	-1.303090	0.136516	6
C	-0.761688	-1.249340	0.178716	6
C	-0.250878	0.171320	-0.022204	6
S	1.533562	0.240450	0.036586	16
C	1.871933	1.953880	-0.284364	6
O	1.951962	-0.041290	1.396096	8
O	2.053473	-0.522280	-1.082524	8
H	-2.626368	-2.332450	0.269996	1
H	-2.658698	-0.938750	-0.823534	1
H	-2.715758	-0.691650	0.932966	1
H	-0.355508	-1.907100	-0.598274	1
H	-0.411438	-1.642730	1.139886	1
H	-0.626288	0.836560	0.761316	1
H	-0.557548	0.559140	-0.999134	1
H	1.473463	2.213800	-1.266663	1
H	2.954153	2.095420	-0.270984	1
H	1.405292	2.558110	0.495596	1
Es	-0.489233	-1.684535	-0.350143	99
Es	1.568265	0.321805	-0.041792	99
Es	2.053372	-0.522138	-1.082336	99
Es	-0.441305	0.436502	-0.678863	99
Es	0.577488	0.208565	0.003919	99
Es	1.757375	0.196793	1.452790	99
Es	1.865668	-0.323666	-1.236742	99
Es	-2.572744	-0.881207	0.679978	99
Es	1.597829	2.114269	-0.935292	99
Es	1.552571	2.343175	0.236195	99
Es	-0.526706	-1.505241	0.829343	99
Es	-0.487813	0.622978	0.503349	99
Es	-2.510117	-2.001570	0.227304	99
Es	1.809618	0.039985	0.883204	99
Es	1.872085	-0.260988	-0.647422	99
Es	1.937920	-0.774967	-0.983498	99
Es	1.533561	0.240446	0.036562	99
Es	-0.250739	0.171321	-0.022201	99
Es	-2.533459	-1.050061	-0.519953	99
Es	1.497058	0.294839	0.135000	99
Es	1.951897	-0.041265	1.395899	99
Es	-1.516381	-1.257986	0.155307	99
Es	-0.474034	-0.513135	0.076202	99
Es	-0.761696	-1.249230	0.178701	99
Es	1.443706	0.177769	-0.009118	99
Es	-2.279631	-1.303080	0.136515	99
Es	2.323458	-0.420681	-1.020325	99
Es	1.871897	1.953767	-0.284343	99
Es	1.705965	1.174941	-0.138567	99
Es	1.835296	-0.311876	1.383163	99
Es	1.625142	0.167585	0.062259	99
Es	2.231306	0.027948	1.324418	99
Es	2.580899	2.029982	-0.272133	99
