48
Properties=species:S:1:pos:R:3:Z:I:1 energy=-289.3206813483591 field_type=dipole dipole="0.000000 0.000000 0.000000" charge=0
C	-1.510235	0.167635	1.247937	6
C	0.011255	0.140645	1.078417	6
C	0.495205	-1.201685	0.512437	6
C	0.202845	-1.346765	-0.981323	6
N	0.753615	-0.231825	-1.755773	7
C	0.210085	1.048015	-1.294853	6
C	0.502455	1.290165	0.185827	6
H	-1.830405	1.116785	1.690617	1
H	-1.836025	-0.636355	1.916027	1
H	-2.038225	0.047245	0.297837	1
H	0.447625	0.270465	2.077547	1
H	0.040285	-2.034145	1.060987	1
H	1.578995	-1.279995	0.669967	1
H	0.647835	-2.279215	-1.346763	1
H	-0.875345	-1.429715	-1.162023	1
H	1.767175	-0.220095	-1.639413	1
H	0.661015	1.851585	-1.887063	1
H	-0.867145	1.087925	-1.492133	1
H	1.586805	1.400585	0.319707	1
H	0.052185	2.238745	0.502037	1
Es	0.250670	0.716347	0.624098	99
Es	0.178545	-1.772459	0.889749	99
Es	0.523925	0.317825	-1.526027	99
Es	0.680982	-0.276707	-2.100568	99
Es	-1.865885	0.084948	0.595744	99
Es	-1.726216	0.818578	1.549032	99
Es	0.512544	-1.986781	-1.227025	99
Es	1.252297	1.359448	0.272278	99
Es	0.011228	0.140640	1.078376	99
Es	0.341329	-1.270933	-0.223186	99
Es	0.523755	1.600970	-1.696413	99
Es	-1.510225	0.167634	1.247932	99
Es	-0.539288	-1.392589	-1.098841	99
Es	-1.730118	-0.384436	1.703725	99
Es	0.495198	-1.201663	0.512433	99
Es	1.367363	-0.220557	-1.653621	99
Es	1.244677	-1.250465	0.613782	99
Es	-0.531507	1.066443	-1.421068	99
Es	0.210142	1.047895	-1.294855	99
Es	0.247004	-0.533490	0.787878	99
Es	0.520600	-0.702539	-1.392424	99
Es	-0.761726	0.152450	1.150072	99
Es	0.753734	-0.231740	-1.755164	99
Es	0.502448	1.290142	0.185830	99
Es	0.312029	0.230015	1.766657	99
Es	0.188980	1.940764	0.403649	99
Es	0.202901	-1.346654	-0.981355	99
Es	0.348548	1.168827	-0.542766	99
