45
Properties=species:S:1:pos:R:3:Z:I:1 energy=-739.2965939143933 field_type=dipole dipole="0.000000 0.000000 0.000000" charge=0
C	-0.083566	-2.076990	0.724428	6
C	-0.329396	-0.783970	-0.015992	6
O	-1.226936	-0.748930	-0.866772	8
S	0.576764	0.767870	0.245008	16
C	-0.166016	1.906600	-0.891392	6
O	0.265544	1.177560	1.601718	8
O	1.939694	0.498690	-0.173212	8
H	0.811394	-1.976150	1.343588	1
H	0.072944	-2.884760	0.005618	1
H	-0.940506	-2.295840	1.365588	1
H	-0.034806	1.531920	-1.908171	1
H	0.339204	2.868920	-0.783491	1
H	-1.224316	2.015080	-0.646922	1
Es	0.404248	0.935054	1.706061	99
Es	0.369972	1.440559	1.564080	99
Es	-1.226692	-0.748928	-0.866542	99
Es	-1.058599	-0.680854	-0.379854	99
Es	0.013835	-2.592258	0.236873	99
Es	0.661246	0.687184	0.252075	99
Es	1.745736	0.396171	-0.411358	99
Es	0.576649	0.767008	0.246219	99
Es	-0.171928	-1.385819	0.366222	99
Es	0.599662	0.834434	0.155059	99
Es	-1.362277	-1.023208	-0.889787	99
Es	1.974668	0.298622	0.041401	99
Es	0.422356	1.042883	1.105054	99
Es	0.470969	0.714754	0.227683	99
Es	-0.329356	-0.783862	-0.016003	99
Es	-0.070694	1.649222	-1.549586	99
Es	0.512628	-2.007175	1.137931	99
Es	1.458045	0.626612	0.025130	99
Es	-0.728398	-0.814120	-0.734937	99
Es	0.170908	1.356881	-0.363044	99
Es	-0.083576	-2.076873	0.724376	99
Es	-0.655708	-2.200999	1.134313	99
Es	0.093299	-0.080951	0.113082	99
Es	0.265572	1.177520	1.601506	99
Es	-1.259606	-0.467078	-1.002994	99
Es	0.575125	0.835836	0.343881	99
Es	-0.854949	1.968010	-0.718035	99
Es	2.012985	0.774724	-0.184647	99
Es	1.939444	0.498720	-0.173179	99
Es	-0.165935	1.906492	-0.891279	99
Es	-0.018572	1.115980	1.470470	99
Es	0.181470	2.521310	-0.799264	99
