40
Properties=species:S:1:pos:R:3:Z:I:1 energy=-717.057509810519 field_type=dipole dipole="0.000000 0.000000 0.000000" charge=0
C	-1.204713	-1.115012	0.561581	6
C	0.057397	-0.892472	0.170201	6
S	0.768607	0.671808	0.314311	16
O	-0.023523	1.600908	1.091191	8
O	2.212687	0.600828	0.364001	8
C	0.568377	1.408128	-1.325129	6
N	0.420577	1.842778	-2.396889	7
H	-1.644223	-2.104712	0.475141	1
H	-1.831923	-0.332122	0.982901	1
H	0.676737	-1.680132	-0.237309	1
Es	0.420633	1.842603	-2.396463	99
Es	0.636902	1.888495	-1.784379	99
Es	-0.384479	-1.023830	0.642701	99
Es	-0.598861	-0.881099	0.060834	99
Es	2.039079	0.484857	0.087150	99
Es	2.212332	0.600797	0.364001	99
Es	0.851431	0.586225	0.303656	99
Es	0.477566	-1.386694	-0.101687	99
Es	-1.204747	-1.115027	0.561594	99
Es	2.205358	0.896938	0.333562	99
Es	-0.023426	1.600749	1.091071	99
Es	0.307925	1.219573	0.911695	99
Es	0.818992	0.780495	0.303774	99
Es	-0.071304	1.506729	1.342901	99
Es	0.649207	1.403676	-2.015916	99
Es	0.768582	0.671816	0.314330	99
Es	0.568429	1.407962	-1.324734	99
Es	0.716729	0.662583	0.418847	99
Es	2.285010	0.411071	0.546437	99
Es	0.057524	-0.892279	0.170203	99
Es	-1.616394	-0.605666	0.835164	99
Es	0.632257	1.083871	-0.672135	99
Es	-1.491232	-1.769141	0.502489	99
Es	0.389045	-0.152745	0.234282	99
Es	0.172406	1.789496	0.959032	99
Es	1.690273	0.618917	0.476872	99
Es	-0.176061	1.462768	0.825535	99
Es	0.182449	1.615635	-1.867935	99
Es	0.687157	0.658007	0.230435	99
Es	0.377023	1.981468	-2.727936	99
