42
Properties=species:S:1:pos:R:3:Z:I:1 energy=-681.3039899303071 field_type=dipole dipole="0.000000 0.000000 0.000000" charge=0
C	-0.596522	-1.903870	0.287245	6
O	-1.353452	-0.736720	0.011235	8
C	-0.619182	0.392530	-0.125135	6
N	-1.348152	1.472790	-0.382285	7
S	-0.334792	2.775990	-0.524945	16
C	1.111148	1.906050	-0.241905	6
C	0.792798	0.579430	-0.033545	6
H	-1.292892	-2.743380	0.375475	1
H	-0.061292	-1.814150	1.238805	1
H	0.096008	-2.130600	-0.530655	1
H	2.078248	2.387650	-0.242205	1
H	1.528088	-0.185720	0.167915	1
Es	1.111061	1.906178	-0.241937	99
Es	-0.596645	-1.903657	0.287197	99
Es	0.852694	1.216244	0.167034	99
Es	0.457904	2.344837	-0.379146	99
Es	1.276910	0.059923	0.102006	99
Es	-1.022195	-0.324821	-0.034544	99
Es	-0.115232	-2.050619	-0.268385	99
Es	-0.222024	-1.835788	0.933002	99
Es	-1.347574	1.472763	-0.382230	99
Es	-0.335066	2.776197	-0.525018	99
Es	-0.976554	1.039932	-0.552093	99
Es	-1.463493	-0.756960	-0.255189	99
Es	-0.384770	2.731595	-0.621221	99
Es	0.906376	1.111072	-0.426632	99
Es	-0.340393	3.002233	-0.125645	99
Es	-1.024082	1.137501	-0.013049	99
Es	-0.417640	2.815761	-0.453031	99
Es	-0.267822	2.855103	-0.971979	99
Es	-0.276237	2.689336	-0.470810	99
Es	-1.068234	-2.469880	0.346533	99
Es	0.792751	0.579410	-0.033540	99
Es	-0.897139	2.005149	-0.437667	99
Es	1.748863	2.228908	-0.243060	99
Es	-1.690694	1.529502	-0.423054	99
Es	-1.033901	-1.153968	0.114651	99
Es	-1.353051	-0.736698	0.011264	99
Es	-1.507115	-0.665802	0.246398	99
Es	-0.259048	2.864399	-0.554132	99
Es	-0.619334	0.392332	-0.125115	99
Es	0.092695	0.424907	-0.068594	99
