38
Properties=species:S:1:pos:R:3:Z:I:1 energy=-301.742297211529 field_type=dipole dipole="0.000000 0.000000 0.000000" charge=0
C	-1.929580	-0.341116	0.017860	6
C	-0.594320	-0.225516	-0.003000	6
C	0.145040	1.057994	-0.039080	6
C	1.629360	0.843394	0.011410	6
N	2.251820	-0.292326	0.037660	7
N	1.523360	-1.484826	0.024630	7
C	0.232720	-1.444776	0.011120	6
H	-2.566820	0.538524	0.008640	1
H	-2.428190	-1.305526	0.045130	1
H	-0.125500	1.690984	0.813030	1
H	-0.076320	1.611894	-0.957810	1
H	2.248140	1.756274	0.020180	1
H	-0.309710	-2.404976	0.010230	1
Es	1.721335	-1.804305	0.026605	99
Es	1.957426	0.175383	-0.260621	99
Es	1.939721	0.181242	0.312742	99
Es	1.835348	-0.857131	0.029181	99
Es	0.949618	-1.421765	0.302354	99
Es	0.880496	0.935760	-0.013230	99
Es	-1.237607	-0.296040	0.330143	99
Es	1.522997	-1.484270	0.024626	99
Es	-0.141209	-2.086514	0.010246	99
Es	2.251150	-0.292274	0.037638	99
Es	-1.929674	-0.341117	0.017856	99
Es	2.036605	1.464929	0.017210	99
Es	0.000914	1.417601	-0.650770	99
Es	-0.032759	1.471941	0.529551	99
Es	-0.174478	-0.825255	0.003859	99
Es	-2.363341	0.253172	0.011905	99
Es	-0.594171	-0.225515	-0.003006	99
Es	2.624937	-0.321488	0.049445	99
Es	-2.265099	-0.990580	0.035717	99
Es	-1.246895	-0.308410	-0.314402	99
Es	0.145077	1.057941	-0.039077	99
Es	-0.226083	0.415999	-0.020894	99
Es	1.629301	0.843429	0.011406	99
Es	0.955034	-1.422949	-0.265803	99
Es	0.232679	-1.444739	0.011100	99
