41
Properties=species:S:1:pos:R:3:Z:I:1 energy=-302.9817780376774 field_type=dipole dipole="0.000000 0.000000 0.000000" charge=0
C	-2.182293	0.007319	0.046106	6
C	-0.697773	-0.074091	0.044336	6
C	0.031007	-1.200251	-0.012434	6
C	1.414727	-0.715361	-0.003184	6
N	2.427657	-1.484091	-0.166684	7
N	1.470797	0.636519	0.161356	7
C	0.128917	1.184439	0.099886	6
H	-2.640863	-0.985521	-0.012464	1
H	-2.533153	0.591069	-0.810544	1
H	-2.536453	0.488349	0.963126	1
H	-0.267133	-2.230031	-0.075984	1
H	3.277946	-0.920351	-0.102174	1
H	2.201987	1.135599	-0.326004	1
H	-0.008443	1.791429	-0.799894	1
H	-0.086923	1.774969	0.994556	1
Es	1.414649	-0.715207	-0.003127	99
Es	-2.182248	0.007328	0.046106	99
Es	-1.441536	-0.028060	0.046028	99
Es	-0.303861	-0.651489	-0.305156	99
Es	-0.306452	0.570802	0.073271	99
Es	1.437713	0.075498	0.013865	99
Es	-2.405220	0.404660	-0.531283	99
Es	-2.486422	-0.665249	0.006314	99
Es	-0.308515	-0.683395	0.334201	99
Es	-0.697859	-0.073947	0.044344	99
Es	1.898193	0.924917	-0.146690	99
Es	2.427621	-1.483580	-0.166614	99
Es	0.031095	-1.200270	-0.012428	99
Es	2.942353	-1.123913	-0.131932	99
Es	2.431012	-1.845542	-0.219852	99
Es	-0.169816	-1.886007	-0.053052	99
Es	1.541583	0.566569	0.446750	99
Es	-0.029962	1.582508	0.702759	99
Es	0.129045	1.184349	0.099884	99
Es	-2.407214	0.334925	0.663718	99
Es	1.470600	0.636339	0.160764	99
Es	0.728966	-0.991727	0.000205	99
Es	0.900335	0.893731	0.111028	99
Es	2.019371	-1.133191	-0.381863	99
Es	0.029912	1.590706	-0.511268	99
Es	2.049359	-1.215129	0.174573	99
