40
Properties=species:S:1:pos:R:3:Z:I:1 energy=-269.7666998038468 field_type=dipole dipole="0.000000 0.000000 0.000000" charge=0
C	0.913035	-1.288209	0.079816	6
C	-0.573235	-1.432739	0.000066	6
C	-1.554755	-0.526239	-0.048064	6
C	-1.461255	0.906941	-0.014334	6
C	-0.371945	1.679431	-0.014334	6
C	1.011255	1.292771	-0.048514	6
C	1.541985	0.066481	-0.000344	6
H	1.337695	-1.887769	-0.735734	1
H	1.246785	-1.758859	1.012956	1
H	-0.890955	-2.475809	-0.021284	1
H	-2.577245	-0.899939	-0.104894	1
H	-2.427105	1.411221	0.011426	1
H	-0.528485	2.757951	0.011226	1
H	1.702625	2.134251	-0.105724	1
H	2.631595	0.020511	-0.022264	1
Es	-0.779908	-2.146953	-0.014388	99
Es	-0.573122	-1.432810	0.000071	99
Es	-2.122233	1.245905	0.003149	99
Es	-2.252124	-0.777793	-0.086970	99
Es	1.194299	-0.592981	0.040960	99
Es	1.011200	1.292856	-0.048519	99
Es	-1.461335	0.906872	-0.014352	99
Es	-1.080120	-0.942746	0.298702	99
Es	-1.554814	-0.526164	-0.048064	99
Es	1.195463	-1.687071	-0.471705	99
Es	0.164042	-1.323198	0.041376	99
Es	1.133120	-1.598410	0.708921	99
Es	0.314231	1.466686	-0.033059	99
Es	1.232428	0.673131	-0.350186	99
Es	-0.900586	1.270688	-0.332626	99
Es	1.247319	0.706973	0.298311	99
Es	-1.043370	-0.939903	-0.349762	99
Es	-0.371847	1.679486	-0.014337	99
Es	1.479666	1.867746	-0.087533	99
Es	-0.890615	1.256663	0.304187	99
Es	0.912999	-1.288158	0.079812	99
Es	2.284429	0.024809	-0.015149	99
Es	-1.487837	0.189047	-0.032736	99
Es	1.542015	0.066348	-0.000339	99
Es	-0.473211	2.415437	0.003162	99
