46
Properties=species:S:1:pos:R:3:Z:I:1 energy=-272.1038919581078 field_type=dipole dipole="0.000000 0.000000 0.000000" charge=0
C	-2.430393	-1.052102	0.874857	6
C	-0.939994	-1.025952	0.853227	6
C	-0.184184	-1.658892	-0.286503	6
C	-0.216734	-0.155552	-0.146453	6
C	1.007426	0.604738	0.275107	6
C	1.791496	1.160538	-0.880143	6
C	2.010487	2.465638	-1.083063	6
H	-2.811224	-0.234682	1.495157	1
H	-2.784994	-1.996562	1.298867	1
H	-2.858963	-0.946202	-0.127313	1
H	-0.523574	-1.124162	1.849727	1
H	-0.746264	-2.102872	-1.100573	1
H	0.734296	-2.185192	-0.051213	1
H	-0.822284	0.409108	-0.848203	1
H	1.674747	-0.039332	0.861287	1
H	0.693387	1.414668	0.944987	1
H	2.199226	0.438498	-1.584633	1
H	1.622726	3.221338	-0.406303	1
H	2.584816	2.806978	-1.938813	1
Es	-1.685261	-1.038636	0.847566	99
Es	2.400048	2.705565	-1.662019	99
Es	1.396760	0.884335	-0.310148	99
Es	-0.572249	-1.959856	-0.836517	99
Es	-0.184232	-1.658750	-0.286423	99
Es	1.748763	2.982781	-0.625193	99
Es	-0.631607	-0.431742	0.449680	99
Es	0.444600	-2.009316	-0.125848	99
Es	-2.688100	-0.493675	1.298625	99
Es	0.409291	0.214112	0.057187	99
Es	1.462029	0.162881	0.666646	99
Es	2.010510	2.465744	-1.083076	99
Es	2.064813	0.662584	-1.354792	99
Es	0.793542	1.163207	0.726916	99
Es	-0.644876	-1.089392	1.529120	99
Es	-0.939923	-1.025949	0.853079	99
Es	1.791469	1.160417	-0.880108	99
Es	1.628472	1.848374	-1.161826	99
Es	-2.430379	-1.052101	0.874857	99
Es	-0.635674	0.220758	-0.623482	99
Es	-0.087725	-0.896306	-0.377994	99
Es	-2.670746	-1.696703	1.164649	99
Es	1.007437	0.604735	0.275060	99
Es	-0.609712	-1.519665	0.338651	99
Es	2.177164	1.810775	-0.807364	99
Es	-0.216737	-0.155712	-0.146391	99
Es	-2.716818	-0.979662	0.187877	99
