42
Properties=species:S:1:pos:R:3:Z:I:1 energy=-286.96296779328367 field_type=dipole dipole="0.000000 0.000000 0.000000" charge=0
C	-0.026581	-2.211849	-0.387975	6
C	-0.655931	-0.991449	0.264115	6
C	0.285959	0.174561	0.268455	6
C	0.384769	1.080840	-0.929305	6
C	-0.260621	1.584261	0.340885	6
C	0.428239	2.560561	1.138115	6
N	0.984359	3.349041	1.781935	7
H	-0.723301	-3.055540	-0.371095	1
H	0.886459	-2.510809	0.137425	1
H	0.238929	-2.006719	-1.430255	1
H	-0.926551	-1.232479	1.298345	1
H	-1.585351	-0.741769	-0.261275	1
H	1.200079	-0.045629	0.812125	1
H	-0.258751	0.891421	-1.781415	1
H	1.367579	1.452991	-1.200495	1
H	-1.339291	1.702571	0.320415	1
Es	0.715617	2.812056	1.741412	99
Es	-0.334502	-1.595579	-0.063123	99
Es	0.428069	2.560317	1.137920	99
Es	-1.288832	-0.811165	-0.099891	99
Es	1.161280	3.599185	1.985359	99
Es	0.508475	3.194204	1.428098	99
Es	-0.655891	-0.991436	0.264094	99
Es	0.904271	0.038497	0.633894	99
Es	0.104946	2.097348	0.757772	99
Es	-0.026593	-2.211821	-0.387960	99
Es	0.976673	2.965687	1.300826	99
Es	0.418647	0.492788	-0.437698	99
Es	0.035742	1.523701	-0.335733	99
Es	-0.058525	0.953235	-1.495263	99
Es	-0.260442	1.584247	0.340868	99
Es	0.984143	3.348732	1.781683	99
Es	0.285893	0.174754	0.268391	99
Es	0.384692	1.080853	-0.929106	99
Es	-0.191254	-0.385515	0.258665	99
Es	-0.836998	-1.153550	0.970414	99
Es	-0.039446	0.904977	0.500876	99
Es	0.152324	-2.067109	-1.098124	99
Es	0.595818	-2.410362	-0.025916	99
Es	-0.972285	1.668850	0.335702	99
Es	-0.503079	-2.783799	-0.374892	99
Es	1.042539	1.336900	-1.103472	99
