41
Properties=species:S:1:pos:R:3:Z:I:1 energy=-302.99633313338745 field_type=dipole dipole="0.000000 0.000000 0.000000" charge=0
C	-0.641631	-1.673943	-1.034476	6
C	-0.520321	-1.121303	0.376734	6
C	-0.051631	0.288227	0.374974	6
C	-0.731401	1.487377	0.365754	6
N	0.140179	2.545197	0.369214	7
C	1.337479	2.007807	0.381434	6
N	1.274599	0.643747	0.386464	7
H	-0.993001	-2.710303	-1.007046	1
H	0.323669	-1.656213	-1.552256	1
H	-1.352251	-1.089923	-1.629616	1
H	0.170739	-1.745333	0.955374	1
H	-1.494831	-1.182973	0.875034	1
H	-1.802551	1.644537	0.355994	1
H	2.274838	2.547467	0.387284	1
H	2.066119	0.015637	0.395134	1
Es	1.322150	1.132896	0.186409	99
Es	1.739891	0.268106	0.379568	99
Es	-0.520288	-1.121247	0.376703	99
Es	-0.731379	1.487463	0.365744	99
Es	1.337519	2.007632	0.381433	99
Es	-0.039490	-1.539067	0.768332	99
Es	-0.251464	2.081182	0.362483	99
Es	-0.384416	0.900688	0.051501	99
Es	-1.179937	-1.155811	0.711151	99
Es	-1.124929	-1.275678	-1.433616	99
Es	0.610031	2.285624	0.105696	99
Es	0.732949	0.443212	0.340252	99
Es	0.598568	2.282082	0.646887	99
Es	0.140337	2.544638	0.369216	99
Es	-0.382940	0.915243	0.693661	99
Es	-0.271763	-0.409183	0.376037	99
Es	1.274586	0.643805	0.386252	99
Es	-0.574083	-1.384973	-0.326893	99
Es	-0.879980	-2.381941	-1.010920	99
Es	1.977996	2.359814	0.385209	99
Es	0.049036	2.905973	0.368042	99
Es	0.021713	-1.660131	-1.381715	99
Es	1.218568	0.883946	0.630056	99
Es	-0.051405	0.288155	0.374977	99
Es	-0.641619	-1.673936	-1.034439	99
Es	-1.460649	1.588136	0.359275	99
