45
Properties=species:S:1:pos:R:3:Z:I:1 energy=-288.0948134018891 field_type=dipole dipole="0.000000 0.000000 0.000000" charge=0
C	-2.962938	0.232839	0.425264	6
C	-1.478488	0.076739	0.385674	6
C	-0.771298	-0.085581	-0.744256	6
C	0.702842	-0.237821	-0.767606	6
C	1.555252	0.887069	-0.143806	6
C	2.413322	-0.268631	0.402604	6
N	1.218272	-1.135661	0.294064	7
H	-3.224628	1.191119	0.884204	1
H	-3.405958	-0.568401	1.024564	1
H	-3.409858	0.199099	-0.573416	1
H	-0.970288	0.090239	1.348064	1
H	-1.276638	-0.105231	-1.705756	1
H	1.053332	-0.525081	-1.768966	1
H	1.070722	1.484749	0.637314	1
H	2.055282	1.558149	-0.847256	1
H	3.236972	-0.567801	-0.256176	1
H	2.795092	-0.137271	1.418254	1
H	1.399012	-2.088521	-0.012766	1
Es	-3.255230	-0.309650	0.832355	99
Es	-3.132231	0.881123	0.737774	99
Es	-1.114974	-0.096806	-1.405416	99
Es	2.054655	0.372590	0.151234	99
Es	-1.150224	-0.331955	-0.175391	99
Es	-1.084168	0.320904	-0.219283	99
Es	2.978640	-0.473462	-0.060198	99
Es	0.702881	-0.237882	-0.767497	99
Es	2.413193	-0.268700	0.402574	99
Es	0.950096	-0.433375	-1.459819	99
Es	-2.222655	0.155370	0.399292	99
Es	1.219946	1.281578	0.388153	99
Es	-2.962904	0.232838	0.425269	99
Es	2.684275	-0.182235	1.102619	99
Es	-0.042686	-0.161574	-0.764192	99
Es	1.340069	-1.711320	0.091098	99
Es	0.969207	-0.800429	-0.200136	99
Es	1.555271	0.887011	-0.143817	99
Es	1.218631	-1.135648	0.293584	99
Es	-1.143528	0.092537	1.040185	99
Es	1.782606	-0.820763	0.355487	99
Es	-3.263068	0.209633	-0.256367	99
Es	-1.478583	0.076748	0.385761	99
Es	1.017789	-1.107580	0.585776	99
Es	1.897242	1.350344	-0.628161	99
Es	1.073554	0.392522	-0.503047	99
Es	-0.771240	-0.085584	-0.744352	99
