45
Properties=species:S:1:pos:R:3:Z:I:1 energy=-288.0859429563069 field_type=dipole dipole="0.000000 0.000000 0.000000" charge=0
C	-2.872622	0.370581	0.455684	6
C	-1.387311	0.209301	0.407464	6
C	-0.702372	-0.038809	-0.718896	6
C	0.776398	-0.197639	-0.754276	6
C	1.655518	0.871971	-0.072406	6
N	2.573488	-0.212839	0.362104	7
C	1.442798	-1.169659	0.242164	6
H	-3.126902	1.361791	0.843164	1
H	-3.307082	-0.381369	1.121374	1
H	-3.333852	0.260741	-0.530746	1
H	-0.872632	0.305931	1.361224	1
H	-1.224762	-0.133979	-1.667706	1
H	1.104889	-0.390899	-1.786806	1
H	1.206198	1.411560	0.769194	1
H	2.109358	1.605491	-0.746066	1
H	3.320308	-0.394109	-0.309376	1
H	1.718478	-2.146209	-0.167946	1
H	0.920098	-1.331849	1.191844	1
Es	2.119905	-0.675001	0.317916	99
Es	-1.008618	0.407845	-0.212808	99
Es	-1.058937	-0.104276	-1.368601	99
Es	-1.038746	0.275696	1.059465	99
Es	1.339636	1.227936	0.504365	99
Es	-3.037268	1.041016	0.719754	99
Es	2.724316	-0.177552	0.692827	99
Es	-1.387393	0.209335	0.407564	99
Es	2.993367	-0.324031	-0.075586	99
Es	-1.075537	-0.239512	-0.110695	99
Es	1.025391	-0.745393	-0.274343	99
Es	-3.159262	-0.138832	0.908051	99
Es	0.026949	-0.117671	-0.740664	99
Es	1.442903	-1.169555	0.242150	99
Es	1.655600	0.871850	-0.072388	99
Es	-2.872580	0.370578	0.455691	99
Es	1.079630	-1.266263	0.888626	99
Es	1.145398	0.406324	-0.451642	99
Es	-3.181192	0.295035	-0.217221	99
Es	2.573280	-0.212901	0.361558	99
Es	2.221146	0.296536	0.168171	99
Es	1.011561	-0.330497	-1.457862	99
Es	-2.130732	0.289248	0.427680	99
Es	1.633833	-1.843678	-0.039881	99
Es	1.969522	1.378338	-0.536419	99
Es	-0.702308	-0.038829	-0.718986	99
Es	0.776386	-0.197633	-0.754246	99
