33
Properties=species:S:1:pos:R:3:Z:I:1 energy=-283.34771790049416 field_type=dipole dipole="0.000000 0.000000 0.000000" charge=0
C	-3.572652	-0.273631	0.000000	6
C	-2.372662	-0.274511	0.000000	6
C	-0.840412	-0.274481	0.000000	6
C	0.349748	-0.274481	0.000000	6
C	1.793748	-0.274481	0.000000	6
C	2.275768	1.086689	0.000000	6
N	2.659978	2.171679	0.000000	7
H	-4.637372	-0.270141	0.000000	1
H	2.171928	-0.808321	-0.878630	1
H	2.171928	-0.808321	0.878630	1
Es	2.031240	-0.602113	-0.575444	99
Es	-2.949990	-0.424141	0.322734	99
Es	2.214155	1.767084	-0.111829	99
Es	-0.265436	-0.128881	-0.326022	99
Es	2.275625	1.086301	0.000003	99
Es	2.037294	0.434086	0.000133	99
Es	2.031073	-0.602018	0.575365	99
Es	-0.264081	-0.067750	0.290424	99
Es	0.350042	-0.274480	0.000001	99
Es	-3.572852	-0.273629	0.000002	99
Es	-0.840883	-0.274484	0.000003	99
Es	1.793673	-0.274324	0.000001	99
Es	-0.258369	-0.633656	0.035653	99
Es	2.782375	2.517900	-0.000186	99
Es	-1.605282	-0.274766	0.000018	99
Es	-2.372175	-0.274514	-0.000000	99
Es	1.061185	-0.261635	-0.000069	99
Es	-4.261288	-0.271847	-0.000005	99
Es	2.529301	1.657620	0.305235	99
Es	-2.949747	-0.479798	-0.290978	99
Es	2.659830	2.171257	-0.000000	99
Es	-2.947927	0.078962	-0.031764	99
Es	2.711531	1.591802	-0.193277	99
