39
Properties=species:S:1:pos:R:3:Z:I:1 energy=-285.7853144220794 field_type=dipole dipole="0.000000 0.000000 0.000000" charge=0
C	-1.544652	-0.600120	0.293119	6
C	-0.093882	-0.545270	-0.122621	6
C	0.483758	-1.659350	-0.610921	6
C	0.625728	0.734690	0.004179	6
C	0.155278	1.775390	0.717399	6
C	1.878819	0.914700	-0.676151	6
N	2.892138	1.072050	-1.221901	7
H	-2.127412	0.168150	-0.227271	1
H	-1.646342	-0.454500	1.373829	1
H	-2.005261	-1.565390	0.053449	1
H	-0.070312	-2.590070	-0.700991	1
H	1.521139	-1.702830	-0.931091	1
H	-0.778412	1.743140	1.266959	1
H	0.709409	2.709410	0.782009	1
Es	2.334237	1.282798	-1.054334	99
Es	0.296507	-1.157149	-0.062251	99
Es	-1.844126	-1.255715	0.128755	99
Es	0.524584	2.399344	0.761580	99
Es	-0.811341	-0.557624	0.089706	99
Es	-0.470902	1.749708	1.082536	99
Es	-0.093920	-0.545113	-0.122565	99
Es	2.891742	1.071988	-1.221686	99
Es	1.878511	0.914637	-0.675991	99
Es	0.483788	-1.659410	-0.610947	99
Es	0.264392	1.332140	0.073356	99
Es	1.180615	-1.685950	-0.825529	99
Es	0.283878	0.107399	-0.064774	99
Es	0.114542	-0.996357	-0.663256	99
Es	-1.544596	-0.600108	0.293111	99
Es	2.370963	0.755626	-1.151304	99
Es	3.212098	1.122088	-1.394494	99
Es	-1.602900	-0.494259	1.021482	99
Es	1.286659	0.813570	-0.356795	99
Es	0.568272	1.111052	0.587698	99
Es	2.572777	0.965719	-0.703539	99
Es	-1.927966	-0.075411	-0.056794	99
Es	0.107851	-2.288040	-0.670738	99
Es	0.155255	1.775434	0.717427	99
Es	0.625891	0.734625	0.004063	99
