23
Properties=species:S:1:pos:R:3:Z:I:1 energy=-134.30548961763344 field_type=dipole dipole="0.000000 0.000000 0.000000" charge=0
C	1.003950	0.005360	0.005080	6
C	2.522530	0.018720	0.012220	6
N	3.019010	1.388280	0.022740	7
H	0.635810	-1.025590	0.001510	1
H	0.606230	0.508110	-0.883090	1
H	0.599320	0.504840	0.891740	1
H	2.903270	-0.504330	-0.871300	1
H	2.892050	-0.507400	0.898210	1
H	2.702580	1.875140	-0.814970	1
H	4.037190	1.379250	-0.019610	1
Es	0.835570	0.210782	0.017454	99
Es	1.633059	0.174457	-0.063933	99
Es	2.943645	0.990656	-0.007683	99
Es	2.605032	-0.152047	0.171379	99
Es	0.758423	-0.666770	0.037502	99
Es	2.957770	1.595047	-0.148763	99
Es	1.002764	0.221639	-0.043550	99
Es	2.740066	-0.131428	-0.305739	99
Es	3.202566	1.008201	0.084100	99
Es	2.997466	1.346657	-0.112385	99
Es	0.992079	0.042213	-0.008003	99
Es	3.004385	1.430317	-0.027532	99
Es	2.612528	0.046980	0.257461	99
