28
Properties=species:S:1:pos:R:3:Z:I:1 energy=-156.16415273615502 field_type=dipole dipole="0.000000 0.000000 0.000000" charge=0
C	0.925380	-0.122230	-0.101190	6
C	2.421930	0.039010	0.113080	6
C	2.827580	1.483660	0.082850	6
C	3.387900	2.127690	1.114250	6
H	0.653450	-1.182710	-0.088320	1
H	0.614810	0.293870	-1.066090	1
H	0.355770	0.382780	0.686810	1
H	2.962590	-0.494760	-0.676360	1
H	2.702320	-0.427210	1.064580	1
H	2.658080	2.023960	-0.846600	1
H	3.581770	1.631710	2.060310	1
H	3.665300	3.174170	1.031000	1
Es	1.910486	-0.058072	0.148837	99
Es	2.581873	0.133349	0.294052	99
Es	2.814990	1.590996	0.137657	99
Es	3.614259	2.771144	1.113546	99
Es	0.724011	-0.276250	-0.524037	99
Es	2.065094	-0.049490	-0.091215	99
Es	3.398464	2.105163	1.139774	99
Es	3.373272	1.836076	1.181549	99
Es	2.747324	1.486305	0.249235	99
Es	2.315476	-0.092672	0.283217	99
Es	3.444623	1.769940	0.926077	99
Es	0.872761	-0.326939	-0.090145	99
Es	2.566391	0.834002	-0.001167	99
Es	0.929263	0.046350	-0.275348	99
Es	1.124894	-0.055471	0.239763	99
Es	2.819176	1.607601	-0.002115	99
