30
Properties=species:S:1:pos:R:3:Z:I:1 energy=-173.34381273179673 field_type=dipole dipole="0.000000 0.000000 0.000000" charge=0
C	0.989590	-0.059390	0.004480	6
C	2.509780	-0.011780	-0.010210	6
N	2.962330	1.378310	0.006120	7
C	4.416930	1.455150	0.009070	6
H	0.645380	-1.098260	-0.017580	1
H	0.568560	0.454100	-0.866450	1
H	0.586500	0.409810	0.908200	1
H	2.872380	-0.517540	-0.912480	1
H	2.894530	-0.552410	0.862350	1
H	2.598200	1.846080	0.835850	1
H	4.839860	0.989670	-0.886990	1
H	4.842540	0.976400	0.896880	1
H	4.726240	2.504880	0.011580	1
Es	0.846030	-0.322450	-0.112044	99
Es	0.799764	0.284749	0.021949	99
Es	2.746914	0.695185	-0.120689	99
Es	2.814113	-0.414717	0.168703	99
Es	4.612529	2.150843	0.059185	99
Es	4.123110	1.443091	-0.002189	99
Es	3.705926	1.307993	-0.012121	99
Es	0.935485	-0.146393	0.015088	99
Es	4.635956	1.239788	0.016259	99
Es	4.467322	1.174307	-0.023822	99
Es	0.784534	-0.166307	0.115718	99
Es	2.779134	1.623530	0.436458	99
Es	2.746587	0.565420	-0.102094	99
Es	3.328108	1.410038	-0.069304	99
Es	2.582449	0.005021	-0.085767	99
Es	1.680216	0.016200	-0.040280	99
Es	2.782971	0.665112	0.085250	99
