27
Properties=species:S:1:pos:R:3:Z:I:1 energy=-172.15869200228883 field_type=dipole dipole="0.000000 0.000000 0.000000" charge=0
N	0.924800	-0.080640	-0.199650	7
C	2.338340	0.030970	0.120960	6
C	2.760980	1.462570	0.067770	6
C	3.300380	2.132360	1.096710	6
H	0.645800	-1.057180	-0.130940	1
H	0.777690	0.186500	-1.170610	1
H	2.926970	-0.549940	-0.598000	1
H	2.516570	-0.397240	1.113380	1
H	2.624210	1.983040	-0.876450	1
H	3.454760	1.663250	2.062910	1
H	3.585060	3.174310	0.991710	1
Es	2.501216	0.743304	0.109022	99
Es	0.916200	-0.040885	-0.433527	99
Es	1.436348	-0.009146	-0.155852	99
Es	2.705383	1.674055	-0.327814	99
Es	1.039754	-0.092449	-0.264442	99
Es	0.827552	-0.599571	-0.282875	99
Es	2.845592	1.727130	0.521389	99
Es	2.723872	1.341316	0.177722	99
Es	3.414186	2.612324	1.029736	99
Es	3.321748	2.168711	1.042929	99
Es	3.497632	1.733852	1.354372	99
Es	2.553252	0.056792	0.601890	99
Es	1.288421	-0.008522	-0.244859	99
Es	3.187360	1.964424	0.798780	99
Es	2.072652	-0.120845	-0.075690	99
Es	2.312063	0.055526	0.105532	99
