29
Properties=species:S:1:pos:R:3:Z:I:1 energy=-193.19567759572865 field_type=dipole dipole="0.000000 0.000000 0.000000" charge=0
C	0.992270	0.004820	0.008040	6
C	2.513080	-0.012580	-0.001010	6
C	3.064710	-0.742190	-1.216070	6
O	2.996920	1.327750	0.000280	8
H	0.622530	0.554020	0.880640	1
H	0.583690	-1.009900	0.034840	1
H	0.598350	0.518050	-0.876190	1
H	2.878690	-0.493890	0.911700	1
H	2.746510	-0.257220	-2.145560	1
H	2.736220	-1.785780	-1.235550	1
H	4.159870	-0.720230	-1.209310	1
H	2.676060	1.761650	-0.807940	1
Es	3.279256	-0.643478	-1.283234	99
Es	2.885906	-0.542630	-0.979989	99
Es	0.881525	-0.299855	-0.123209	99
Es	2.932943	1.189843	-0.056566	99
Es	2.878880	0.894830	-0.218749	99
Es	2.834022	-0.251901	-0.858394	99
Es	2.912179	1.310551	-0.003928	99
Es	2.879656	-1.316004	-1.253512	99
Es	0.889708	0.037836	0.114968	99
Es	2.142012	0.021696	-0.092488	99
Es	3.233305	1.355456	0.064969	99
Es	2.626046	1.068596	0.028190	99
Es	1.138026	0.071898	-0.156402	99
Es	3.258032	-0.626223	-1.139917	99
Es	2.485878	-0.104680	-0.075647	99
Es	2.208597	0.070610	-0.084652	99
Es	0.837500	0.203760	0.387629	99
