23
Properties=species:S:1:pos:R:3:Z:I:1 energy=-190.7852650251474 field_type=dipole dipole="0.000000 0.000000 0.000000" charge=0
O	1.000300	-0.002170	-0.011500	8
C	2.420000	0.000000	0.000000	6
C	2.902020	1.361170	0.000000	6
C	3.299300	2.483070	0.000000	6
H	0.723060	-0.931690	-0.010600	1
H	2.772420	-0.541450	-0.883270	1
H	2.758030	-0.536310	0.891980	1
H	3.643820	3.491510	-0.000110	1
Es	3.269866	2.228403	-0.100448	99
Es	3.484744	3.109345	-0.001093	99
Es	1.757159	-0.001857	0.027189	99
Es	2.781612	1.976144	0.027003	99
Es	0.964078	0.079800	-0.109278	99
Es	2.453337	-0.075849	0.119160	99
Es	1.057362	0.010260	-0.078625	99
Es	2.913443	1.447029	0.045656	99
Es	2.703820	0.651965	0.048883	99
Es	3.163385	1.914112	0.113054	99
Es	2.562601	-0.136681	-0.097899	99
Es	2.417327	-0.376351	-0.041877	99
Es	3.377958	2.073792	-0.090094	99
Es	0.960691	0.034235	0.159116	99
Es	0.854585	-0.487567	-0.069095	99
