25
Properties=species:S:1:pos:R:3:Z:I:1 energy=-207.96302319281907 field_type=dipole dipole="0.000000 0.000000 0.000000" charge=0
C	0.992300	0.005430	-0.006910	6
C	2.486660	0.067620	0.026100	6
N	3.099680	1.200220	-0.106660	7
O	4.475430	0.979270	0.007250	8
H	0.676840	-1.030140	-0.150070	1
H	0.605330	0.625860	-0.820720	1
H	0.598670	0.368850	0.946870	1
H	3.028860	-0.871480	0.222870	1
H	4.838630	1.883930	-0.063100	1
Es	3.665431	1.112237	-0.081945	99
Es	0.837744	0.241975	-0.138806	99
Es	2.806670	0.669886	-0.090080	99
Es	2.523932	0.059543	0.051787	99
Es	4.516183	0.902402	0.132179	99
Es	4.539898	1.222650	-0.122889	99
Es	2.840048	-0.499939	0.147200	99
Es	2.994135	1.505646	-0.173889	99
Es	1.016317	0.028527	-0.019267	99
Es	2.845231	0.708944	-0.017676	99
Es	4.539062	0.805955	-0.109692	99
Es	0.682405	-0.485051	-0.011613	99
Es	3.311766	1.193471	-0.107565	99
Es	1.691323	0.073517	0.015755	99
Es	0.807498	0.140430	0.137376	99
Es	4.541000	1.212504	0.151121	99
