25
Properties=species:S:1:pos:R:3:Z:I:1 energy=-207.94650002588435 field_type=dipole dipole="0.000000 0.000000 0.000000" charge=0
C	0.955340	-0.345970	0.030090	6
O	2.329630	-0.066670	-0.210670	8
N	2.484450	1.322280	-0.331920	7
C	3.728580	1.578840	-0.550120	6
H	0.834030	-1.428190	0.124620	1
H	0.344840	0.005860	-0.807200	1
H	0.629700	0.128380	0.960940	1
H	4.061080	2.620600	-0.675880	1
H	4.501040	0.794230	-0.620130	1
Es	2.390474	1.379923	-0.385904	99
Es	2.937255	1.433422	-0.380559	99
Es	2.427488	0.412598	-0.249239	99
Es	0.607943	0.000596	0.084339	99
Es	2.410710	-0.012407	-0.261433	99
Es	2.280729	-0.066012	-0.191275	99
Es	0.941267	-0.325949	0.068337	99
Es	4.004419	1.281691	-0.563271	99
Es	2.268126	-0.031926	-0.325803	99
Es	3.022474	1.478159	-0.380299	99
Es	3.919953	2.232597	-0.624876	99
Es	1.929666	-0.152717	-0.015488	99
Es	3.952776	1.352500	-0.575320	99
Es	0.903915	-1.046139	0.078755	99
Es	2.490979	1.341731	-0.355232	99
Es	0.700358	-0.157552	0.014029	99
