31
Properties=species:S:1:pos:R:3:Z:I:1 energy=-157.3563410769132 field_type=dipole dipole="0.000000 0.000000 0.000000" charge=0
C	0.987840	-0.007640	-0.000770	6
C	2.514770	0.008730	-0.006250	6
C	3.055230	-0.746890	-1.218020	6
C	3.036280	1.443710	0.008050	6
H	0.596690	0.508310	0.882680	1
H	0.610090	-1.035580	0.018010	1
H	0.580060	0.486600	-0.889540	1
H	2.868340	-0.495990	0.900960	1
H	2.729000	-0.282990	-2.155310	1
H	2.707440	-1.785420	-1.215340	1
H	4.150310	-0.761060	-1.210520	1
H	2.710660	1.995270	-0.880710	1
H	4.131070	1.459050	0.033730	1
H	2.673620	1.980300	0.891210	1
Es	1.479816	0.074723	-0.130753	99
Es	2.277037	-0.054013	-0.281636	99
Es	3.377097	1.491377	0.089479	99
Es	2.884471	-1.064684	-1.367492	99
Es	3.528658	-0.676572	-1.367294	99
Es	2.838295	0.561207	-0.327203	99
Es	0.728851	-0.645675	0.074936	99
Es	2.968854	1.861729	0.293150	99
Es	2.777487	0.859661	-0.103981	99
Es	2.919714	-0.940505	-1.305947	99
Es	0.854934	0.391953	0.462117	99
Es	2.990985	-0.480590	-0.659736	99
Es	2.890671	-0.266418	-0.337879	99
Es	0.980894	0.040805	-0.057855	99
Es	2.671520	0.555033	-0.211054	99
Es	2.966649	1.348141	0.023077	99
Es	1.520664	0.078054	-0.266560	99
