36
Properties=species:S:1:pos:R:3:Z:I:1 energy=-232.23385624604634 field_type=dipole dipole="0.000000 0.000000 0.000000" charge=0
C	1.132260	-0.123890	-0.158330	6
C	2.631330	-0.145040	0.067960	6
O	3.152820	1.145590	-0.238030	8
C	4.562870	1.204840	-0.042790	6
C	5.035850	2.603270	-0.386270	6
H	0.690230	-1.097950	0.067970	1
H	0.903550	0.135990	-1.196460	1
H	0.658750	0.634820	0.472440	1
H	3.095810	-0.895580	-0.582060	1
H	2.846580	-0.393130	1.113690	1
H	5.057840	0.474630	-0.691990	1
H	4.802020	0.977950	1.001700	1
H	4.790840	2.849280	-1.425390	1
H	6.117000	2.695270	-0.247930	1
H	4.534650	3.345990	0.243050	1
Es	1.258329	-0.071683	-0.081891	99
Es	2.912031	-0.465019	0.125373	99
Es	3.345951	1.121487	-0.189491	99
Es	2.290481	-0.091059	0.031946	99
Es	3.150636	1.078275	-0.210519	99
Es	1.247583	0.004964	-0.365851	99
Es	4.990492	2.632350	-0.436766	99
Es	5.748562	2.678261	-0.302339	99
Es	4.771636	0.948302	-0.031248	99
Es	4.773760	1.314187	0.047807	99
Es	2.769999	-0.037464	0.166025	99
Es	4.687379	2.797408	-0.621727	99
Es	1.718634	0.038019	-0.106948	99
Es	4.859876	2.818185	-0.302199	99
Es	1.038218	0.083737	-0.169739	99
Es	2.968688	0.610117	-0.056697	99
Es	3.241014	1.067070	-0.267602	99
Es	4.677193	1.244879	-0.072163	99
Es	4.653101	1.530383	-0.116438	99
Es	0.899263	-0.754080	-0.001851	99
Es	3.366981	1.122382	-0.214312	99
