33
Properties=species:S:1:pos:R:3:Z:I:1 energy=-231.01843574594466 field_type=dipole dipole="0.000000 0.000000 0.000000" charge=0
C	2.536310	-0.927740	-0.860520	6
O	2.016310	0.313960	-0.407180	8
C	3.045580	1.225430	0.019840	6
C	3.503900	2.226770	-1.001760	6
C	2.613850	2.660800	0.124880	6
H	1.701830	-1.556630	-1.182660	1
H	3.067030	-1.435150	-0.049040	1
H	3.208670	-0.772290	-1.709920	1
H	3.763530	0.880200	0.758190	1
H	3.073640	2.175430	-1.995180	1
H	4.541660	2.534350	-0.978870	1
H	3.045690	3.261690	0.916470	1
H	1.580110	2.895650	-0.101750	1
Es	2.497849	0.706993	-0.063885	99
Es	2.380249	0.472919	-0.211487	99
Es	2.786166	2.643665	-0.027770	99
Es	2.532645	-0.913848	-0.836906	99
Es	2.714090	2.268480	0.029457	99
Es	2.206014	0.141863	-0.370878	99
Es	3.919322	2.461519	-1.068563	99
Es	3.088658	1.686623	-0.487270	99
Es	2.082367	0.211221	-0.219404	99
Es	2.201180	-1.071202	-0.919985	99
Es	2.412417	-0.447606	-0.566703	99
Es	3.482668	2.227340	-0.889277	99
Es	2.943852	1.238824	-0.334735	99
Es	2.890243	-0.683734	-1.079389	99
Es	2.797210	2.452760	-0.191215	99
Es	3.092539	1.211024	-0.418291	99
Es	2.457328	-0.944337	-0.903761	99
Es	3.026338	1.718783	-0.450216	99
Es	2.828185	2.556265	-0.284675	99
Es	2.669088	2.892429	0.349714	99
