30
Properties=species:S:1:pos:R:3:Z:I:1 energy=-229.8766173044031 field_type=dipole dipole="0.000000 0.000000 0.000000" charge=0
O	1.058670	0.003500	0.204800	8
C	2.263740	-0.004300	0.072700	6
C	3.346750	1.089890	-0.017280	6
C	4.272530	-0.001430	-0.609970	6
C	3.320680	-1.115600	-0.106660	6
H	3.651940	1.470680	0.961670	1
H	3.109360	1.916510	-0.689150	1
H	4.352170	0.041780	-1.702590	1
H	5.281790	-0.030840	-0.189290	1
H	3.063870	-1.878570	-0.843400	1
H	3.615450	-1.580980	0.837690	1
Es	1.918295	-0.023029	0.059992	99
Es	3.972867	0.092252	-0.487399	99
Es	3.333657	0.964472	0.025708	99
Es	3.217306	-1.615224	-0.406878	99
Es	3.977630	0.652195	-0.379892	99
Es	1.495132	-0.096273	-0.012345	99
Es	2.882146	0.718780	0.201685	99
Es	4.685782	-0.087633	-0.387298	99
Es	1.036101	-0.168051	0.317064	99
Es	4.236465	-0.243211	-0.643791	99
Es	1.021064	0.318719	0.196361	99
Es	2.992667	-0.868804	0.143268	99
Es	3.391217	-1.192824	0.035511	99
Es	3.269994	1.472008	-0.354683	99
Es	1.688327	-0.010044	0.260232	99
Es	1.069358	-0.005804	0.223540	99
Es	3.422816	1.122519	0.128784	99
Es	4.251019	-0.213508	-0.738209	99
Es	3.147834	-0.925322	-0.117622	99
