33
Properties=species:S:1:pos:R:3:Z:I:1 energy=-231.04755406625935 field_type=dipole dipole="0.000000 0.000000 0.000000" charge=0
O	2.735140	-0.958800	-1.195250	8
C	2.402450	-0.280510	0.012350	6
C	3.019840	1.117540	0.022530	6
C	4.518850	1.071340	0.149790	6
C	5.212240	1.623390	1.153550	6
H	2.368900	-1.856770	-1.125340	1
H	2.752370	-0.876950	0.861630	1
H	1.311600	-0.204200	0.063270	1
H	2.586170	1.693890	0.848090	1
H	2.774340	1.637460	-0.910960	1
H	5.053040	0.554540	-0.646410	1
H	4.723030	2.152710	1.964800	1
H	6.295660	1.556060	1.178740	1
Es	2.721633	-0.944585	-1.099095	99
Es	2.929322	0.692884	-0.048479	99
Es	2.651757	-1.408988	-1.172340	99
Es	2.480466	-0.488182	-0.546522	99
Es	4.888050	2.005603	1.680951	99
Es	4.609037	0.950740	0.087189	99
Es	3.999131	0.977203	-0.103604	99
Es	2.868944	0.701951	0.163751	99
Es	2.423958	-0.405299	-0.446976	99
Es	2.806464	0.803931	0.238058	99
Es	2.228182	0.080880	0.022271	99
Es	3.056505	1.342815	0.463664	99
Es	5.137979	1.621274	1.024029	99
Es	4.652585	1.135849	0.615440	99
Es	4.372314	0.962718	-0.126226	99
Es	5.085721	1.578712	0.810574	99
Es	2.563582	-0.703286	-0.952820	99
Es	2.524366	-0.520740	-0.354658	99
Es	5.762728	1.611972	0.963152	99
Es	2.694282	-0.829347	-0.979649	99
