30
Properties=species:S:1:pos:R:3:Z:I:1 energy=-229.84079844647906 field_type=dipole dipole="0.000000 0.000000 0.000000" charge=0
O	0.937610	0.069250	0.015170	8
C	2.361040	0.016740	0.015860	6
C	2.927390	1.432820	0.000000	6
C	4.371390	1.432820	0.000000	6
C	5.561550	1.432820	0.000000	6
H	0.620650	-0.850290	0.025420	1
H	2.686230	-0.545160	-0.866970	1
H	2.686160	-0.525610	0.910840	1
H	2.542610	1.984250	0.866360	1
H	2.542630	1.964930	-0.878380	1
H	6.627440	1.437680	-0.000050	1
Es	1.435247	-0.075001	-0.036756	99
Es	2.581672	1.152271	-0.020322	99
Es	2.779654	1.285903	-0.172801	99
Es	0.917761	0.082043	0.011996	99
Es	0.738296	-0.179905	0.049332	99
Es	2.422853	-0.096395	0.200230	99
Es	5.493688	1.434042	-0.000893	99
Es	4.637948	1.393491	-0.031655	99
Es	4.813062	1.187054	-0.091300	99
Es	3.663942	1.465157	-0.018755	99
Es	1.011483	0.080631	0.170326	99
Es	2.787329	1.560958	-0.011062	99
Es	2.491839	-0.115691	-0.158405	99
Es	2.858368	1.540200	0.159038	99
Es	2.562844	-0.303018	0.059257	99
Es	4.902044	1.698383	0.091173	99
Es	6.185606	1.445851	0.013503	99
Es	5.024259	1.417181	0.029246	99
Es	0.923562	0.132436	-0.106971	99
