29
Properties=species:S:1:pos:R:3:Z:I:1 energy=-245.83366395276352 field_type=dipole dipole="0.000000 0.000000 0.000000" charge=0
C	-1.240090	-0.012140	-0.165290	6
C	-0.400340	-1.225640	0.122070	6
C	0.929030	-0.606530	-0.059390	6
N	0.948390	0.681850	-0.054020	7
O	-0.392440	1.105740	0.119370	8
H	-1.537250	0.038800	-1.218490	1
H	-2.136810	0.032190	0.458970	1
H	-0.575810	-2.050840	-0.569620	1
H	-0.489550	-1.574010	1.154460	1
H	1.833120	-1.225120	-0.142840	1
Es	-0.452061	-1.519562	0.063173	99
Es	1.527954	-1.016216	-0.107039	99
Es	0.945877	0.129486	0.028895	99
Es	-0.418134	-1.555102	0.158303	99
Es	-0.554211	-1.106710	0.197797	99
Es	-0.438264	1.049013	0.088163	99
Es	-0.616391	0.729474	0.124695	99
Es	-0.741051	-0.632263	-0.044693	99
Es	-1.221399	-0.052456	-0.262984	99
Es	0.503420	0.591296	0.014463	99
Es	-1.270744	-0.034929	-0.340847	99
Es	-0.459116	1.123478	-0.151051	99
Es	0.909355	0.605650	-0.091622	99
Es	0.420224	-0.861052	0.016621	99
Es	0.508946	0.338853	-0.043971	99
Es	-0.436510	1.276074	0.262707	99
Es	0.672685	-0.738205	-0.011690	99
Es	-1.808282	0.035615	0.000918	99
Es	1.216613	0.933032	-0.059847	99
