26
Properties=species:S:1:pos:R:3:Z:I:1 energy=-244.67215930429828 field_type=dipole dipole="0.000000 0.000000 0.000000" charge=0
O	-0.377080	-1.071010	-0.002180	8
C	-1.159400	0.037930	-0.002010	6
C	-0.369430	1.158260	0.000520	6
C	0.939560	0.646040	0.001850	6
N	0.955920	-0.688930	0.000270	7
H	-2.224530	-0.141760	-0.003810	1
H	-0.691150	2.187960	0.001270	1
H	1.879100	1.179640	0.003890	1
Es	0.891024	-0.122389	-0.068519	99
Es	1.218273	-0.946043	-0.005509	99
Es	-0.536124	0.686841	0.030403	99
Es	-1.159075	0.036799	-0.002011	99
Es	-0.813152	0.622273	-0.020703	99
Es	1.559505	1.019829	-0.008130	99
Es	-0.357644	-1.065863	-0.002102	99
Es	-0.682158	-0.633550	0.039027	99
Es	-0.371891	1.159029	0.000567	99
Es	-0.472048	-1.366292	-0.083196	99
Es	0.153546	-0.899545	0.035322	99
Es	-0.406413	-0.936198	0.011918	99
Es	-1.868733	-0.080365	0.000847	99
Es	0.932867	-0.085237	0.099026	99
Es	0.307449	0.938167	-0.032259	99
Es	-0.573001	1.849445	-0.003855	99
Es	0.958759	-0.691527	0.000386	99
Es	0.938135	0.646696	0.002645	99
