35
Properties=species:S:1:pos:R:3:Z:I:1 energy=-248.24033777817357 field_type=dipole dipole="0.000000 0.000000 0.000000" charge=0
C	0.982210	-0.037110	-0.045850	6
C	2.497640	0.047980	0.078090	6
N	3.160440	-0.659420	-1.033750	7
C	2.980560	1.508500	0.108290	6
O	4.407000	1.533860	0.121700	8
H	0.498140	0.469470	0.795330	1
H	0.646800	-1.079560	-0.045340	1
H	0.628280	0.431670	-0.970310	1
H	2.817860	-0.443590	1.005840	1
H	2.826420	-0.281230	-1.921940	1
H	2.865780	-1.637050	-1.026760	1
H	2.618050	2.025450	1.001860	1
H	2.641160	2.060350	-0.774750	1
H	4.668500	0.756070	-0.414900	1
Es	2.953776	1.549901	0.135521	99
Es	2.146932	-0.161453	0.006625	99
Es	4.267137	1.503466	0.132560	99
Es	2.999561	1.865615	0.309489	99
Es	3.137850	-0.841557	-0.983977	99
Es	2.739765	-0.099127	-0.140528	99
Es	0.811228	-0.295952	-0.259037	99
Es	3.074623	-0.589176	-1.086560	99
Es	2.344916	-0.187175	-0.159685	99
Es	4.428715	1.101307	-0.062097	99
Es	4.364854	1.512161	0.047684	99
Es	0.920837	-0.022071	-0.171654	99
Es	2.680047	0.751667	0.082309	99
Es	2.846647	-0.842691	-1.084260	99
Es	3.378174	-0.505934	-1.103164	99
Es	0.897810	-0.128331	-0.145481	99
Es	2.892252	0.376326	0.074857	99
Es	3.212494	1.529434	0.082766	99
Es	4.497483	1.818111	0.127503	99
Es	3.231393	1.111694	-0.002740	99
Es	0.638899	0.264878	0.407468	99
