32
Properties=species:S:1:pos:R:3:Z:I:1 energy=-247.0548396691963 field_type=dipole dipole="0.000000 0.000000 0.000000" charge=0
C	0.972190	-0.071640	-0.035400	6
N	2.427350	-0.000550	-0.096430	7
C	2.878350	1.392400	0.011270	6
C	4.391340	1.415910	-0.009830	6
O	5.049030	2.018340	-0.854500	8
H	0.655070	-1.115590	-0.119660	1
H	0.508360	0.488740	-0.853620	1
H	0.597410	0.310930	0.919320	1
H	2.733960	-0.374910	-0.997260	1
H	2.556600	1.840620	0.957210	1
H	2.502840	1.996920	-0.821280	1
H	4.887900	0.868510	0.810010	1
Es	0.850693	0.005632	0.079736	99
Es	2.520654	0.967341	-0.047235	99
Es	4.421504	1.410572	0.021033	99
Es	2.858375	1.532655	0.018625	99
Es	4.254097	1.162428	0.077013	99
Es	2.592489	0.506984	0.044620	99
Es	5.278526	2.061745	-0.686883	99
Es	2.501135	0.401023	-0.102277	99
Es	2.918108	1.577591	-0.058693	99
Es	2.444636	0.070300	-0.109270	99
Es	3.780085	1.399338	0.043826	99
Es	1.930737	-0.128426	-0.197516	99
Es	4.886643	1.663175	-0.622318	99
Es	5.016611	1.980863	-0.853819	99
Es	0.696626	-0.600666	0.126094	99
Es	4.706712	1.920469	-0.463078	99
Es	0.931042	0.047156	-0.227107	99
Es	4.889233	2.065808	-0.853816	99
Es	2.606827	0.179526	-0.109302	99
Es	0.837247	0.173506	-0.101432	99
