32
Properties=species:S:1:pos:R:3:Z:I:1 energy=-194.0200861123887 field_type=dipole dipole="0.000000 0.000000 0.000000" charge=0
C	1.621260	-0.960640	0.746000	6
C	2.395390	-0.298860	-0.124950	6
C	3.305040	0.837010	0.241310	6
C	4.736560	0.503400	-0.063650	6
C	5.500920	1.173030	-0.935910	6
H	0.981210	-1.772120	0.413480	1
H	1.608470	-0.711860	1.802500	1
H	2.368710	-0.583520	-1.175040	1
H	3.222920	1.076750	1.307960	1
H	2.986040	1.730270	-0.308490	1
H	5.167230	-0.337260	0.477780	1
H	5.119210	2.020440	-1.497250	1
H	6.532870	0.881580	-1.107480	1
Es	1.414789	-1.178910	0.818601	99
Es	5.780361	1.213145	-1.076574	99
Es	1.643392	-0.921696	0.666310	99
Es	4.966463	0.548953	-0.478173	99
Es	3.789201	0.812753	0.105408	99
Es	3.565697	1.070846	0.101482	99
Es	1.393068	-0.972629	1.069749	99
Es	2.284319	-0.497806	0.090471	99
Es	3.484603	0.740059	0.362089	99
Es	1.969942	-0.531217	0.044460	99
Es	3.214152	0.572170	0.070197	99
Es	5.505007	1.387361	-1.108614	99
Es	2.232113	-0.509298	0.108464	99
Es	5.628078	1.235627	-1.018659	99
Es	4.469669	0.347322	0.086326	99
Es	4.866555	0.518095	-0.060183	99
Es	2.743397	0.060375	0.127838	99
Es	2.549866	-0.018949	0.042869	99
Es	5.175780	1.021586	-0.414234	99
