32
Properties=species:S:1:pos:R:3:Z:I:1 energy=-247.0037188440277 field_type=dipole dipole="0.000000 0.000000 0.000000" charge=0
C	1.612430	-0.449750	-0.485590	6
O	3.006190	-0.225160	-0.308370	8
N	3.223460	1.157840	-0.221460	7
C	4.488140	1.367200	-0.061070	6
C	5.025920	2.756870	0.064410	6
H	1.441710	-1.527410	-0.553270	1
H	1.267360	0.021020	-1.411350	1
H	1.053460	-0.056910	0.369370	1
H	5.218000	0.540160	-0.010340	1
H	4.223160	3.495410	0.001490	1
H	5.748700	2.929910	-0.736970	1
H	5.538960	2.852010	1.024780	1
Es	3.046813	1.329588	-0.256708	99
Es	5.382142	2.818475	-0.251931	99
Es	4.691243	1.694669	0.012837	99
Es	1.440761	-0.940743	-0.553559	99
Es	5.235782	2.783971	0.222255	99
Es	1.478634	-0.427667	-0.530150	99
Es	3.049895	0.022611	-0.137250	99
Es	3.540926	1.164899	-0.297068	99
Es	2.829747	-0.103294	-0.293909	99
Es	3.618754	1.235974	-0.209836	99
Es	3.049459	-0.253066	-0.285145	99
Es	2.770827	-0.447791	-0.413575	99
Es	1.480408	-0.423604	-0.447833	99
Es	3.036039	0.048064	-0.421931	99
Es	4.555307	3.271680	0.058284	99
Es	4.945775	1.158561	0.006827	99
Es	4.429451	1.390065	-0.058748	99
Es	1.360813	-0.133122	-0.497976	99
Es	5.228933	2.785335	0.251903	99
Es	3.658124	1.280804	-0.024142	99
