29
Properties=species:S:1:pos:R:3:Z:I:1 energy=-192.8105199645562 field_type=dipole dipole="0.000000 0.000000 0.000000" charge=0
C	1.748040	-0.621740	1.054450	6
C	2.475640	-0.092140	0.061500	6
C	3.154920	1.244430	0.123490	6
C	4.604920	1.075330	-0.039270	6
C	5.791590	0.943240	-0.171700	6
H	1.280970	-1.595350	0.941020	1
H	1.607300	-0.105140	1.998810	1
H	2.584690	-0.651780	-0.865570	1
H	2.943340	1.751310	1.071990	1
H	2.759810	1.880580	-0.676440	1
H	6.844240	0.822730	-0.287630	1
Es	1.491043	-0.752335	1.024817	99
Es	2.636661	0.290052	0.060847	99
Es	5.309616	0.995880	-0.117173	99
Es	3.068838	1.426692	0.370918	99
Es	6.230236	0.939629	-0.335789	99
Es	5.724254	0.969114	-0.141614	99
Es	5.236915	0.878853	-0.214277	99
Es	3.093076	1.109506	0.085616	99
Es	1.846594	-0.410984	0.732154	99
Es	2.456076	-0.459880	0.409192	99
Es	3.760825	1.324312	-0.059150	99
Es	2.472677	-0.325961	-0.202818	99
Es	5.242548	1.098406	0.022228	99
Es	2.654162	0.340940	0.066590	99
Es	1.659645	-0.409744	1.455842	99
Es	1.701501	-0.842697	0.943532	99
Es	3.151644	1.437498	0.145174	99
Es	4.653900	1.073991	-0.067975	99
