29
Properties=species:S:1:pos:R:3:Z:I:1 energy=-245.85456213379692 field_type=dipole dipole="0.000000 0.000000 0.000000" charge=0
O	2.210630	-1.005810	-0.460880	8
C	2.043510	0.151810	-0.092450	6
C	3.172540	1.106050	-0.078480	6
C	3.337410	2.085440	-1.208820	6
N	2.797450	2.517330	0.076860	7
H	1.062350	0.521510	0.248680	1
H	4.060330	0.778560	0.448620	1
H	2.637460	2.047610	-2.035020	1
H	4.335550	2.422090	-1.459780	1
H	3.506160	3.020090	0.615710	1
Es	3.148505	1.897449	-1.102928	99
Es	1.863235	0.426394	0.111013	99
Es	2.243700	-0.728957	-0.462169	99
Es	2.187228	-0.953586	-0.436382	99
Es	3.081935	1.173218	-0.446152	99
Es	2.963938	2.316964	-0.452271	99
Es	2.868469	1.781493	0.039089	99
Es	3.257316	2.105693	-0.984780	99
Es	2.227673	-1.122674	-0.619403	99
Es	2.683450	0.754381	0.035137	99
Es	3.914256	2.276936	-1.331397	99
Es	2.900851	2.526793	-0.448073	99
Es	3.164614	2.653079	0.163702	99
Es	2.210957	0.360918	-0.063095	99
Es	2.072501	-0.733904	-0.201345	99
Es	2.843127	0.875577	-0.092130	99
Es	2.926274	2.401856	0.159722	99
Es	3.125455	1.652591	-0.360319	99
Es	2.232724	-0.749021	-0.364743	99
