31
Properties=species:S:1:pos:R:3:Z:I:1 energy=-551.3797066966254 field_type=dipole dipole="0.000000 0.000000 0.000000" charge=0
S	-0.517510	-1.270120	-0.002790	16
C	-1.302910	0.250960	-0.019090	6
C	-0.406050	1.296210	-0.035950	6
C	0.944970	0.841430	-0.035460	6
C	1.027070	-0.533650	-0.018250	6
H	-2.383010	0.303660	-0.015520	1
H	-0.704820	2.337390	-0.048050	1
H	1.812950	1.489750	-0.047140	1
H	1.919190	-1.144580	-0.013970	1
Es	-0.961494	-0.494292	-0.011160	99
Es	0.944973	0.841459	-0.035465	99
Es	0.886145	0.174388	-0.025058	99
Es	-0.457695	-1.118464	-0.000490	99
Es	-1.302900	0.250750	-0.019089	99
Es	1.530625	1.279400	-0.043462	99
Es	0.305652	-0.921443	-0.008875	99
Es	1.578583	-0.930632	-0.015913	99
Es	-0.608817	1.999306	-0.044097	99
Es	-0.527842	-1.127444	-0.011944	99
Es	1.026936	-0.533808	-0.018249	99
Es	-0.877169	0.775903	-0.028526	99
Es	-0.672450	-1.707580	0.005120	99
Es	-0.765303	0.732411	-0.026069	99
Es	-0.590226	-1.379786	0.022775	99
Es	-0.458051	-1.308747	-0.059306	99
Es	-0.406015	1.296234	-0.035947	99
Es	-0.515054	-1.219892	-0.008986	99
Es	1.006011	0.141606	-0.026645	99
Es	0.280848	1.103113	-0.035784	99
Es	-1.984300	0.262366	-0.017412	99
Es	-0.484201	-1.286323	0.034638	99
