30
Properties=species:S:1:pos:R:3:Z:I:1 energy=-567.3827400697122 field_type=dipole dipole="0.000000 0.000000 0.000000" charge=0
S	-0.495640	-1.398260	-0.001780	16
C	-1.298490	0.118340	-0.001190	6
C	-0.369410	1.136540	-0.000950	6
N	0.953250	0.738870	-0.001230	7
C	1.009970	-0.574760	-0.001670	6
H	-2.376660	0.189210	-0.001040	1
H	-0.603660	2.193570	-0.000570	1
H	1.949070	-1.113240	-0.001960	1
Es	-0.590764	-1.442083	-0.045420	99
Es	-0.532631	1.840985	-0.000887	99
Es	-0.428017	-1.478581	0.011026	99
Es	-0.826985	0.484163	0.010124	99
Es	-1.252922	0.151943	-0.010279	99
Es	1.244410	0.982981	0.015388	99
Es	-0.945293	-0.628937	-0.001021	99
Es	-0.857659	0.630905	-0.003939	99
Es	1.009584	-0.574622	-0.001559	99
Es	0.877965	0.614663	-0.010784	99
Es	-0.358962	-1.230838	0.037506	99
Es	-0.506196	-1.370493	0.000254	99
Es	1.627065	-0.948975	0.000474	99
Es	-0.380430	1.127344	-0.000982	99
Es	-0.439098	-1.295034	-0.012733	99
Es	0.284037	-1.021165	-0.044929	99
Es	0.862587	0.428025	0.003565	99
Es	0.452286	0.870034	0.007479	99
Es	-2.014658	0.155172	-0.006107	99
Es	-0.637743	-1.874938	0.022209	99
Es	-0.489158	-1.382559	0.014509	99
Es	0.922510	0.137116	-0.015639	99
