32
Properties=species:S:1:pos:R:3:Z:I:1 energy=-194.030215821742 field_type=dipole dipole="0.000000 0.000000 0.000000" charge=0
C	0.867330	0.025970	-0.090920	6
C	2.356290	0.006220	-0.219770	6
C	3.165090	0.912610	0.348360	6
C	4.600510	0.873360	0.210080	6
C	5.411930	1.775340	0.774920	6
H	0.521480	-0.902940	0.372420	1
H	0.409120	0.108500	-1.081080	1
H	0.514760	0.863780	0.519330	1
H	2.771740	-0.803180	-0.815060	1
H	2.740710	1.719130	0.942340	1
H	5.034540	0.069860	-0.382530	1
H	5.034420	2.596380	1.375360	1
H	6.487300	1.706450	0.643840	1
Es	3.846971	0.891137	0.273186	99
Es	4.880428	0.323444	-0.198148	99
Es	5.999437	1.747697	0.708251	99
Es	4.980412	1.343312	0.468906	99
Es	5.004565	1.273675	0.536971	99
Es	3.050771	1.132327	0.520551	99
Es	4.560777	0.877130	0.212876	99
Es	5.384397	2.133472	1.023764	99
Es	0.533782	-0.340787	-0.303109	99
Es	0.729580	0.358597	0.181233	99
Es	3.067879	1.242851	0.544487	99
Es	1.648991	0.022741	-0.191873	99
Es	2.845068	0.516240	0.062094	99
Es	2.328366	0.003858	-0.216674	99
Es	2.620999	-0.550631	-0.627564	99
Es	0.782928	0.137150	0.008000	99
Es	5.313253	1.973822	0.913333	99
Es	0.702664	-0.056779	-0.166338	99
Es	2.740150	0.462241	0.122938	99
