26
Properties=species:S:1:pos:R:3:Z:I:1 energy=-191.49585733835883 field_type=dipole dipole="0.000000 0.000000 0.000000" charge=0
C	1.000000	0.000000	0.000000	6
C	2.444000	0.000000	0.000000	6
C	3.634160	0.000000	0.000000	6
C	5.079560	-0.000000	-0.000000	6
C	6.376130	-0.000000	-0.000000	6
H	0.472420	1.230670	0.020710	1
H	0.484950	-0.613960	1.071610	1
H	0.486910	-0.600590	-1.091840	1
H	7.511290	-0.000000	-0.000000	1
Es	4.365374	-0.001522	-0.000904	99
Es	3.142399	-0.017617	0.009698	99
Es	7.087404	-0.005280	-0.001207	99
Es	0.770970	0.101786	0.207778	99
Es	5.690990	-0.000978	-0.002769	99
Es	3.042317	0.051751	0.029584	99
Es	0.769267	0.085840	-0.192390	99
Es	5.079390	0.000168	-0.000045	99
Es	6.376266	0.000046	0.000043	99
Es	2.443713	0.000017	-0.000017	99
Es	1.746584	-0.003254	0.001840	99
Es	3.585413	-0.009273	0.004855	99
Es	3.093338	-0.022867	-0.042767	99
Es	0.553537	-0.172839	-0.017754	99
Es	5.723944	0.005260	0.001346	99
Es	0.996903	0.000035	0.000572	99
Es	5.690846	-0.004299	0.001421	99
