34
Properties=species:S:1:pos:R:3:Z:I:1 energy=-211.2208679068489 field_type=dipole dipole="0.000000 0.000000 0.000000" charge=0
C	-0.798530	-1.001080	-0.124290	6
C	-1.187600	0.421770	0.228430	6
C	0.021900	1.215800	-0.215640	6
N	1.139080	0.367220	0.191280	7
C	0.719470	-1.022260	-0.001980	6
H	-1.284570	-1.732500	0.528190	1
H	-1.090750	-1.219000	-1.158920	1
H	-1.333150	0.514500	1.311760	1
H	-2.107800	0.738410	-0.270590	1
H	0.020880	1.351620	-1.303470	1
H	0.068760	2.198650	0.261140	1
H	1.972760	0.575740	-0.355280	1
H	1.172500	-1.452370	-0.901490	1
H	1.036120	-1.622120	0.857060	1
Es	-0.882946	-1.032086	-0.224091	99
Es	1.055489	-1.432508	-0.078641	99
Es	-1.115507	0.332122	0.353803	99
Es	1.209496	0.509133	0.171973	99
Es	-0.959566	0.613907	0.309574	99
Es	0.040520	-1.021424	-0.053334	99
Es	-1.442561	0.652517	0.020868	99
Es	-0.951429	0.839027	0.047565	99
Es	-1.094388	-1.466950	0.062462	99
Es	1.028267	0.517975	-0.004965	99
Es	0.786890	-0.110311	0.091966	99
Es	1.079132	0.559824	-0.057128	99
Es	0.312880	1.431945	-0.252553	99
Es	-1.005052	-0.414008	-0.072959	99
Es	-0.209874	1.199964	-0.147734	99
Es	0.919780	0.182773	0.101429	99
Es	0.646464	-0.662443	0.019634	99
Es	-0.845358	-0.787318	-0.127141	99
Es	0.056176	1.198718	-0.252073	99
Es	0.886725	-1.287713	0.027187	99
