31
Properties=species:S:1:pos:R:3:Z:I:1 energy=-210.03296947730823 field_type=dipole dipole="0.000000 0.000000 0.000000" charge=0
C	-0.372170	1.181650	0.107500	6
N	-1.246790	-0.001670	-0.006720	7
C	-0.371480	-1.185130	0.093590	6
C	1.012740	-0.666730	-0.039770	6
C	1.012290	0.665950	-0.032120	6
H	-0.511050	1.659750	1.082850	1
H	-0.607850	1.908030	-0.677140	1
H	-1.647930	0.004080	-0.943630	1
H	-0.606520	-1.902340	-0.699210	1
H	-0.509580	-1.674380	1.063020	1
H	1.889600	-1.292490	-0.103730	1
H	1.888250	1.293520	-0.088790	1
Es	-0.545067	1.684645	0.059198	99
Es	-1.305098	-0.000052	-0.100924	99
Es	1.005391	-0.635778	-0.049583	99
Es	0.094595	0.881817	0.127127	99
Es	0.024228	-0.658702	-0.029820	99
Es	1.579966	1.119220	-0.063707	99
Es	-0.541989	0.297378	0.042595	99
Es	-0.379352	-1.131966	0.121504	99
Es	-1.173035	0.068845	-0.114251	99
Es	0.957149	-0.110786	-0.255312	99
Es	1.598014	-1.087663	-0.054616	99
Es	-0.452988	-1.402659	0.147047	99
Es	-1.638012	0.005382	-0.155336	99
Es	-0.418508	1.456130	0.179107	99
Es	-0.503784	0.997677	0.109342	99
Es	-0.542409	-1.698633	0.153263	99
Es	0.998534	0.382617	0.078158	99
Es	0.876734	0.428397	0.071256	99
Es	-0.304663	-0.617093	0.020070	99
