34
Properties=species:S:1:pos:R:3:Z:I:1 energy=-211.194396530048 field_type=dipole dipole="0.000000 0.000000 0.000000" charge=0
C	1.033390	0.014830	-0.068870	6
C	2.523100	0.007860	-0.012540	6
C	3.312180	-0.706340	-1.076780	6
C	3.324340	0.795170	-1.013540	6
N	4.537870	1.481530	-0.585630	7
H	0.635690	0.788270	0.596060	1
H	0.639180	-0.952180	0.259580	1
H	0.658500	0.210120	-1.079270	1
H	2.882260	-0.067830	1.007040	1
H	2.779630	-1.169450	-1.899690	1
H	4.202990	-1.246070	-0.776050	1
H	2.779740	1.309040	-1.803620	1
H	5.008150	0.976790	0.164450	1
H	4.314860	2.401350	-0.206770	1
Es	4.011658	0.940561	-0.726368	99
Es	4.750464	1.518401	-0.731750	99
Es	3.251059	-0.114951	-0.926800	99
Es	4.433227	1.735381	-0.452760	99
Es	2.885240	0.506757	-0.444804	99
Es	3.548223	0.450639	-0.956698	99
Es	0.872542	0.293189	-0.167322	99
Es	4.319567	1.327672	-0.706885	99
Es	3.580648	-0.232781	-0.915804	99
Es	2.685233	-0.343185	-0.447916	99
Es	1.202274	-0.181374	-0.054380	99
Es	1.407012	-0.032968	-0.068239	99
Es	2.884242	-0.874003	-1.311196	99
Es	3.567944	-0.386236	-0.923823	99
Es	2.387748	-0.277966	-0.270697	99
Es	1.006660	0.308696	0.021981	99
Es	4.477299	1.645851	-0.428225	99
Es	3.012070	0.187205	-0.591476	99
Es	2.917783	0.394682	-0.470488	99
Es	1.298956	-0.216559	0.017608	99
