34
Properties=species:S:1:pos:R:3:Z:I:1 energy=-211.19329519421524 field_type=dipole dipole="0.000000 0.000000 0.000000" charge=0
C	0.999620	-0.035260	0.045210	6
C	2.510220	0.054650	0.013910	6
C	3.170630	1.098270	0.941950	6
C	4.195470	-0.013480	1.223500	6
N	3.155900	-0.995720	0.843360	7
H	0.649460	-0.903200	-0.524030	1
H	0.554780	0.858150	-0.405400	1
H	0.612460	-0.121520	1.066960	1
H	2.900750	0.089140	-1.012400	1
H	2.574090	1.384430	1.816000	1
H	3.558310	1.997320	0.457890	1
H	5.062420	-0.005980	0.550440	1
H	4.544390	-0.087400	2.256200	1
H	3.498320	-1.801480	0.323590	1
Es	2.902478	1.030990	1.061287	99
Es	1.749192	-0.048655	-0.017677	99
Es	2.239348	0.066399	0.057517	99
Es	3.468779	-1.072665	0.872842	99
Es	0.832144	-0.465808	-0.103370	99
Es	3.227877	0.974944	0.940437	99
Es	4.432121	-0.032242	1.334130	99
Es	1.040644	0.340316	-0.026798	99
Es	4.628772	-0.016091	1.444263	99
Es	4.156525	-0.005727	1.131365	99
Es	2.926621	-0.100531	0.417391	99
Es	3.190566	-0.946247	0.720903	99
Es	3.108507	-0.747116	0.729360	99
Es	2.762425	0.597769	0.484395	99
Es	0.947318	0.089624	0.084244	99
Es	3.478687	0.514465	0.982752	99
Es	3.301952	1.501154	0.778376	99
Es	3.073896	-0.590165	0.540734	99
Es	1.046350	-0.092654	0.004993	99
Es	3.059353	-0.516398	0.564319	99
