34
Properties=species:S:1:pos:R:3:Z:I:1 energy=-211.19146894579663 field_type=dipole dipole="0.000000 0.000000 0.000000" charge=0
C	1.053810	0.150460	0.115530	6
C	2.533260	-0.040170	-0.177520	6
C	3.276300	1.256930	-0.087450	6
C	3.822680	1.739200	1.231390	6
N	4.709710	1.227000	0.190440	7
H	0.521950	-0.802600	0.032610	1
H	0.601800	0.857420	-0.588330	1
H	0.901250	0.541670	1.127000	1
H	2.651050	-0.449370	-1.187270	1
H	2.944650	-0.780490	0.519060	1
H	2.942680	1.988260	-0.814490	1
H	3.709810	1.110810	2.106200	1
H	3.858380	2.804460	1.421030	1
H	5.189770	1.990810	-0.289230	1
Es	4.539791	1.308307	0.308230	99
Es	3.243822	1.207085	0.224941	99
Es	4.026294	1.566068	0.933729	99
Es	2.501071	-0.139904	-0.423776	99
Es	2.631464	-0.046159	-0.474012	99
Es	4.100900	1.192078	0.114366	99
Es	4.565810	1.242887	0.224925	99
Es	1.282542	0.032162	-0.206987	99
Es	2.975413	0.670226	-0.133993	99
Es	4.968788	1.579423	0.026995	99
Es	3.240306	1.164916	0.198073	99
Es	3.288935	1.265488	0.389586	99
Es	1.295204	0.292264	0.396720	99
Es	4.009131	2.181290	1.280793	99
Es	1.005377	0.348804	0.357863	99
Es	3.722284	1.558592	1.279612	99
Es	4.212530	1.487558	0.635239	99
Es	1.294421	0.239171	-0.082522	99
Es	0.915943	-0.198497	0.097175	99
Es	2.483726	0.156386	-0.046668	99
