37
Properties=species:S:1:pos:R:3:Z:I:1 energy=-212.40048632630734 field_type=dipole dipole="0.000000 0.000000 0.000000" charge=0
C	1.161240	-0.276450	-0.089870	6
C	2.677310	-0.161650	-0.055250	6
C	3.127350	1.297190	0.017970	6
C	4.650640	1.402800	0.053820	6
N	5.060330	2.800580	0.129690	7
H	0.861380	-1.327880	-0.143980	1
H	0.748750	0.239760	-0.962720	1
H	0.714590	0.158500	0.809870	1
H	3.093760	-0.636240	-0.952320	1
H	3.059490	-0.714920	0.811080	1
H	2.702250	1.766040	0.913800	1
H	2.736820	1.843220	-0.848710	1
H	5.084650	0.946100	-0.843390	1
H	5.046450	0.867830	0.924600	1
H	4.723000	3.301770	-0.691110	1
H	6.077630	2.857050	0.100940	1
Es	5.014449	1.444088	-0.049652	99
Es	5.522941	2.900067	0.021106	99
Es	3.763485	1.312885	0.058483	99
Es	2.764749	-0.168503	0.073705	99
Es	1.439274	-0.278680	0.030116	99
Es	4.991684	2.709198	-0.128012	99
Es	4.859115	2.119668	0.051792	99
Es	2.933068	1.543927	-0.057384	99
Es	1.666915	-0.324675	-0.128172	99
Es	4.822784	1.181516	0.067136	99
Es	5.009276	2.824345	0.229001	99
Es	2.730363	-0.010100	-0.100153	99
Es	0.954058	-0.859385	-0.066040	99
Es	1.154692	-0.108344	-0.152046	99
Es	2.789207	0.189592	-0.097285	99
Es	2.955158	1.712138	0.059981	99
Es	2.701082	-0.436762	0.001209	99
Es	3.116539	1.322920	0.067235	99
Es	4.828847	1.640908	0.112449	99
Es	4.806543	2.539937	0.131389	99
Es	1.109317	0.048052	-0.213626	99
