28
Properties=species:S:1:pos:R:3:Z:I:1 energy=-208.8740527051556 field_type=dipole dipole="0.000000 0.000000 0.000000" charge=0
C	0.878810	-0.137700	-0.128360	6
C	2.180200	0.057300	0.125330	6
C	2.873790	1.389780	0.049520	6
C	3.483470	1.736860	1.342440	6
N	3.976120	2.018190	2.355710	7
H	0.442800	-1.130450	-0.056160	1
H	0.216380	0.676480	-0.407200	1
H	2.793840	-0.800380	0.398580	1
H	2.174950	2.178510	-0.251790	1
H	3.650200	1.337560	-0.722010	1
Es	1.946693	0.023909	0.170704	99
Es	3.987376	2.164224	1.803432	99
Es	3.539727	1.763228	1.786575	99
Es	1.290424	-0.067706	-0.282987	99
Es	2.481731	0.994459	0.058512	99
Es	3.982802	2.045007	2.404695	99
Es	2.720535	1.636369	-0.076507	99
Es	3.842563	1.838617	1.964752	99
Es	3.052503	1.111983	0.074942	99
Es	4.059267	1.969818	2.470021	99
Es	3.483217	1.735099	1.365469	99
Es	2.984747	1.437340	0.010388	99
Es	0.738719	-0.208878	-0.157951	99
Es	2.327484	-0.398752	0.361244	99
Es	0.761269	-0.515757	-0.225095	99
Es	1.968598	0.228887	0.168731	99
Es	3.102680	1.506910	0.598612	99
Es	0.728416	0.187257	-0.222413	99
