35
Properties=species:S:1:pos:R:3:Z:I:1 energy=-195.20121477280415 field_type=dipole dipole="0.000000 0.000000 0.000000" charge=0
C	0.873640	0.029970	-0.250170	6
C	2.348710	-0.000090	0.048230	6
C	2.687060	-0.028010	1.514510	6
C	3.250330	-0.753720	-0.903520	6
C	3.276670	0.749530	-0.880970	6
H	0.673020	0.051500	-1.327110	1
H	0.413060	0.918590	0.194390	1
H	0.382770	-0.856730	0.164640	1
H	3.768790	-0.050190	1.685410	1
H	2.254380	-0.915220	1.988340	1
H	2.286650	0.859910	2.014590	1
H	2.807880	-1.239840	-1.766420	1
H	4.108140	-1.281540	-0.501210	1
H	4.152220	1.234630	-0.463480	1
H	2.852050	1.276530	-1.728560	1
Es	2.477303	0.048189	-0.206706	99
Es	2.493975	-0.099958	1.330124	99
Es	3.558923	0.066544	-0.787967	99
Es	0.770062	-0.161506	-0.138900	99
Es	3.231775	-0.014705	-1.039051	99
Es	2.755267	0.056218	1.631986	99
Es	3.290792	0.065603	-0.852150	99
Es	3.060151	-0.040127	0.334947	99
Es	2.748303	-0.135093	-0.932082	99
Es	2.337018	0.032019	-0.252754	99
Es	3.101330	-0.014346	-1.196594	99
Es	2.755900	0.047920	-0.218187	99
Es	0.870344	0.440791	-0.098965	99
Es	1.200187	0.043165	-0.236569	99
Es	2.363829	-0.153888	1.735726	99
Es	2.605495	0.065617	0.612399	99
Es	2.541813	-0.022468	-0.216873	99
Es	1.034209	-0.179759	-0.419888	99
Es	3.386989	-0.069129	-0.657598	99
Es	2.582871	0.016743	0.315509	99
