34
Properties=species:S:1:pos:R:3:Z:I:1 energy=-211.18890197468733 field_type=dipole dipole="0.000000 0.000000 0.000000" charge=0
N	1.045650	0.008570	0.081520	7
C	2.493140	0.029730	-0.070100	6
C	3.093170	1.061510	0.910290	6
C	4.157060	-0.007810	1.246840	6
C	3.114860	-1.067520	0.820340	6
H	0.599060	-0.784760	-0.376800	1
H	0.584410	0.840320	-0.284980	1
H	2.871560	0.077750	-1.095680	1
H	2.466840	1.329850	1.770200	1
H	3.478890	1.978040	0.455550	1
H	5.040970	0.028340	0.599370	1
H	4.478830	-0.048510	2.290310	1
H	3.519730	-1.934490	0.291180	1
H	2.495560	-1.420010	1.654590	1
Es	3.999362	-0.221941	1.263745	99
Es	1.415476	-0.175564	0.076838	99
Es	1.234536	-0.070498	-0.006403	99
Es	3.151223	-1.284166	0.743013	99
Es	2.520188	-0.075177	0.092198	99
Es	2.658812	-0.350539	0.563773	99
Es	4.102958	0.060599	1.212974	99
Es	2.245701	0.337179	0.313551	99
Es	3.028792	1.169130	0.746740	99
Es	4.308397	-0.232234	1.257346	99
Es	2.831476	-0.551434	0.534105	99
Es	3.111958	1.179528	0.853873	99
Es	1.000266	0.259961	-0.101307	99
Es	3.127570	-1.475360	0.782588	99
Es	3.592526	0.518276	1.050990	99
Es	3.235818	1.086076	0.898244	99
Es	1.265255	-0.033720	0.068034	99
Es	2.515014	-0.135077	0.088720	99
Es	1.212692	0.101958	0.017628	99
Es	4.436357	-0.002885	1.323222	99
