34
Properties=species:S:1:pos:R:3:Z:I:1 energy=-211.19491240547782 field_type=dipole dipole="0.000000 0.000000 0.000000" charge=0
N	3.058100	-0.976660	-0.519700	7
C	2.363040	0.097630	0.172080	6
C	3.251450	1.299300	0.180500	6
C	3.385050	2.166130	-1.046570	6
C	2.656160	2.685010	0.161930	6
H	2.477310	-1.813060	-0.504910	1
H	3.908940	-1.211630	-0.011840	1
H	2.132920	-0.203190	1.199180	1
H	1.416460	0.303860	-0.338230	1
H	4.136400	1.150010	0.789550	1
H	2.804870	1.903040	-1.923930	1
H	4.363980	2.573810	-1.270240	1
H	3.140710	3.453070	0.753910	1
H	1.580000	2.791590	0.093400	1
Es	2.736457	-1.264268	-0.447473	99
Es	2.689953	0.861688	-0.025486	99
Es	2.346351	0.160241	0.167250	99
Es	2.578452	2.683637	0.182584	99
Es	2.523733	0.227304	0.125732	99
Es	3.157323	1.953553	-0.579642	99
Es	3.000301	1.564901	0.076207	99
Es	3.131767	2.430544	-0.545502	99
Es	3.354418	1.580218	-0.413784	99
Es	2.678127	3.122085	0.387223	99
Es	2.800352	-0.629647	-0.264582	99
Es	2.814064	1.511813	0.194722	99
Es	3.254800	-0.892447	-0.690233	99
Es	2.789720	2.446906	-0.248841	99
Es	3.831605	2.547852	-1.010934	99
Es	3.086797	-0.893421	-0.277634	99
Es	3.116578	-1.037752	-0.445361	99
Es	3.272835	2.160885	-1.025679	99
Es	2.448524	0.174971	0.660245	99
Es	3.063716	1.137920	0.027612	99
