28
Properties=species:S:1:pos:R:3:Z:I:1 energy=-208.86455686086504 field_type=dipole dipole="0.000000 0.000000 0.000000" charge=0
N	0.994420	0.072590	-0.186950	7
C	2.150040	0.030920	-0.100140	6
C	3.581370	-0.020630	0.005730	6
C	4.374590	-0.752930	-1.048510	6
C	4.423860	0.746350	-0.983610	6
H	3.957200	-0.077010	1.022910	1
H	3.846550	-1.207110	-1.880500	1
H	5.250970	-1.305340	-0.730320	1
H	5.333650	1.210800	-0.621590	1
H	3.929110	1.304250	-1.771800	1
Es	2.130000	0.008719	-0.160805	99
Es	4.180664	-0.183797	-0.727753	99
Es	4.408756	-0.745176	-1.001466	99
Es	1.025686	0.062042	-0.186084	99
Es	3.889359	-0.115138	-0.443443	99
Es	3.941112	0.654082	-0.978011	99
Es	4.644173	-0.742671	-0.936570	99
Es	1.470614	-0.098114	-0.021009	99
Es	4.861448	0.964453	-0.750432	99
Es	1.531503	0.288824	-0.103044	99
Es	2.148690	0.033037	-0.102962	99
Es	2.452118	-0.035755	-0.211678	99
Es	4.279767	0.032898	-0.818694	99
Es	4.322840	-0.338550	-0.993281	99
Es	3.441936	-0.041686	-0.106842	99
Es	0.752104	0.042895	-0.042084	99
Es	4.190735	0.504309	-0.820040	99
Es	4.075979	-0.047391	-0.601824	99
