34
Properties=species:S:1:pos:R:3:Z:I:1 energy=-211.20917005854187 field_type=dipole dipole="0.000000 0.000000 0.000000" charge=0
N	0.938590	-0.059810	-0.180850	7
C	2.382440	-0.186500	0.011460	6
C	3.071270	1.181600	-0.047360	6
C	4.555630	1.062240	0.162470	6
C	5.475060	1.423750	-0.741430	6
H	0.518260	-0.988490	-0.179070	1
H	0.751770	0.334190	-1.102370	1
H	2.790100	-0.849730	-0.760240	1
H	2.567030	-0.659680	0.982740	1
H	2.663930	1.837220	0.732410	1
H	2.857610	1.662720	-1.010200	1
H	4.884860	0.668420	1.122160	1
H	5.197010	1.831510	-1.708340	1
H	6.534660	1.321760	-0.527100	1
Es	3.981882	1.004892	0.084310	99
Es	2.532047	0.067418	0.001180	99
Es	5.169508	1.476884	-0.591296	99
Es	5.504339	1.499668	-0.832044	99
Es	2.865061	1.445604	-0.348914	99
Es	5.016034	1.071345	-0.307932	99
Es	0.867208	-0.349809	-0.230663	99
Es	1.491455	-0.225694	-0.042100	99
Es	0.650774	0.023300	-0.336643	99
Es	1.400992	-0.129904	-0.187731	99
Es	0.911372	-0.032627	-0.261040	99
Es	2.720832	0.415047	-0.123600	99
Es	2.830447	1.022028	-0.095115	99
Es	6.053441	1.375232	-0.632510	99
Es	2.345219	-0.349954	0.355203	99
Es	4.571569	0.879276	0.591356	99
Es	4.543311	1.076159	0.138922	99
Es	2.375774	-0.090756	-0.064330	99
Es	3.141358	1.129595	0.063511	99
Es	5.129092	1.595160	-0.794491	99
