31
Properties=species:S:1:pos:R:3:Z:I:1 energy=-210.0020467460672 field_type=dipole dipole="0.000000 0.000000 0.000000" charge=0
N	0.959510	-0.037900	0.002810	7
C	2.422780	-0.008290	0.005920	6
C	2.959580	1.426590	0.012580	6
C	4.431690	1.443700	-0.013280	6
C	5.631640	1.462940	-0.033960	6
H	0.645830	-1.008020	-0.015010	1
H	0.610990	0.386990	-0.856080	1
H	2.792940	-0.548250	-0.873730	1
H	2.784380	-0.546220	0.890040	1
H	2.602840	1.953910	0.905460	1
H	2.576150	1.972570	-0.857890	1
H	6.697540	1.482870	-0.050290	1
Es	3.822537	1.464860	0.043450	99
Es	0.886470	-0.017901	-0.249914	99
Es	1.355333	-0.015706	0.045552	99
Es	1.065552	-0.284746	-0.122155	99
Es	4.999302	1.456464	-0.084885	99
Es	5.622219	1.464630	-0.032780	99
Es	2.842670	1.442860	-0.029286	99
Es	2.477246	-0.072804	0.145930	99
Es	2.589151	1.376186	-0.032271	99
Es	2.573752	-0.202133	0.094924	99
Es	4.997819	1.189450	-0.055800	99
Es	0.848639	-0.207378	0.004646	99
Es	2.862425	1.459795	0.039473	99
Es	2.529110	-0.236116	-0.115234	99
Es	5.054006	1.689574	-0.019122	99
Es	6.287609	1.472343	0.001977	99
Es	2.830565	1.233675	-0.009512	99
Es	4.441597	1.426749	-0.018186	99
Es	0.995405	0.134144	0.003229	99
