33
Properties=species:S:1:pos:R:3:Z:I:1 energy=-231.06077457068233 field_type=dipole dipole="0.000000 0.000000 0.000000" charge=0
C	-0.795590	-0.999820	-0.199130	6
C	-1.189030	0.384760	0.247350	6
C	0.004570	1.203670	-0.193450	6
O	1.150540	0.345290	-0.097400	8
C	0.694150	-1.004720	0.068400	6
H	-1.326370	-1.799340	0.324200	1
H	-0.982540	-1.109870	-1.274140	1
H	-1.277750	0.410790	1.339690	1
H	-2.130370	0.735870	-0.182610	1
H	-0.092410	1.514570	-1.239220	1
H	0.156500	2.093690	0.423310	1
H	1.240710	-1.664310	-0.611030	1
H	0.910960	-1.306240	1.098500	1
Es	0.082349	1.730044	0.034301	99
Es	-0.356753	0.960544	-0.272039	99
Es	0.428805	-0.994854	0.144572	99
Es	1.396708	0.493729	-0.170455	99
Es	-1.067436	-1.537697	0.033525	99
Es	-1.794817	0.612733	-0.009923	99
Es	0.047314	-0.306350	-0.065018	99
Es	-0.912043	-0.725402	-0.148111	99
Es	0.603266	-0.729121	0.069570	99
Es	0.988018	-1.328804	-0.116098	99
Es	0.071526	0.712498	-0.202515	99
Es	-0.160970	-1.025954	-0.006783	99
Es	1.055510	0.013954	-0.079573	99
Es	-0.743310	-0.995759	-0.161925	99
Es	-1.230055	0.355157	0.291986	99
Es	1.090470	0.304505	-0.027008	99
Es	0.087259	1.029513	-0.085509	99
Es	0.993876	-0.139518	-0.124953	99
Es	-0.319632	1.096329	-0.045782	99
Es	-1.066449	0.105510	0.251350	99
