33
Properties=species:S:1:pos:R:3:Z:I:1 energy=-231.03581110939328 field_type=dipole dipole="0.000000 0.000000 0.000000" charge=0
C	1.025520	-0.058570	0.108790	6
C	2.519010	0.125630	-0.054530	6
C	3.200630	1.142210	0.869350	6
C	4.125350	-0.018420	1.227960	6
O	3.253590	-0.965490	0.564000	8
H	0.677730	-0.920380	-0.469770	1
H	0.488360	0.825030	-0.249770	1
H	0.750910	-0.221250	1.156060	1
H	2.810970	0.226060	-1.107610	1
H	2.590500	1.504180	1.702010	1
H	3.681390	1.983820	0.365700	1
H	5.113670	0.004560	0.759190	1
H	4.220900	-0.228810	2.296040	1
Es	0.806195	0.248382	-0.063752	99
Es	1.551194	-0.010951	0.114805	99
Es	3.840605	-0.550209	0.940640	99
Es	3.522313	-0.592036	0.790484	99
Es	1.624553	0.000572	0.181428	99
Es	2.981505	-0.616100	0.346000	99
Es	3.070546	1.527829	0.847071	99
Es	3.644063	0.670483	1.045453	99
Es	2.925599	-0.431604	0.465536	99
Es	2.746920	-0.277538	0.223563	99
Es	0.910867	0.218491	0.036456	99
Es	4.423383	-0.063223	1.041759	99
Es	3.239550	0.585454	0.725762	99
Es	3.835781	-0.587817	1.070730	99
Es	2.714104	-0.512401	0.291210	99
Es	4.216862	-0.042484	1.358228	99
Es	0.800498	-0.633626	-0.202084	99
Es	3.120273	0.584193	0.663254	99
Es	3.209413	1.400306	0.879697	99
Es	2.611653	0.161800	0.176381	99
