33
Properties=species:S:1:pos:R:3:Z:I:1 energy=-231.03413807111863 field_type=dipole dipole="0.000000 0.000000 0.000000" charge=0
C	0.943200	0.020310	-0.133700	6
C	2.425980	-0.015050	0.042120	6
O	2.843640	-0.070070	1.411070	8
C	3.283610	-0.755520	-0.945510	6
C	3.315310	0.749250	-0.898360	6
H	0.655130	0.058880	-1.189980	1
H	0.523190	0.901240	0.363320	1
H	0.487050	-0.871880	0.308410	1
H	3.810520	-0.033940	1.504570	1
H	2.802900	-1.225700	-1.796010	1
H	4.144380	-1.298940	-0.575230	1
H	4.199640	1.230440	-0.498650	1
H	2.855580	1.291710	-1.716750	1
Es	3.525921	-0.058592	-0.761461	99
Es	2.184623	0.030556	0.273443	99
Es	2.749966	-0.008060	-0.660844	99
Es	2.807059	0.006590	0.780407	99
Es	3.279093	-0.068975	-1.024850	99
Es	2.850802	-0.022919	0.211767	99
Es	2.937053	0.126516	0.756819	99
Es	3.098066	-0.006300	-1.180175	99
Es	0.949802	0.124629	0.007773	99
Es	0.820519	-0.040405	0.149318	99
Es	2.799561	-0.258070	1.521841	99
Es	3.213259	0.071509	-0.867632	99
Es	1.303323	0.008319	-0.810657	99
Es	3.549502	-0.044248	-0.591685	99
Es	2.567456	-0.048042	0.342393	99
Es	1.129079	-0.074026	-0.140685	99
Es	2.998751	-0.039581	-0.097932	99
Es	2.544831	0.045800	0.414386	99
Es	2.614859	-0.046322	0.973048	99
Es	3.006446	0.032101	-1.119088	99
