33
Properties=species:S:1:pos:R:3:Z:I:1 energy=-231.05046744071277 field_type=dipole dipole="0.000000 0.000000 0.000000" charge=0
C	0.912850	0.012640	0.056470	6
C	2.401150	0.013370	0.192370	6
C	3.184300	1.043490	-0.163580	6
C	4.671460	1.059830	-0.028490	6
O	5.234420	1.218680	-1.320270	8
H	0.598880	-0.808970	-0.595110	1
H	0.534940	0.948370	-0.367900	1
H	0.449210	-0.129350	1.037550	1
H	2.845060	-0.888320	0.609470	1
H	2.739310	1.946470	-0.575750	1
H	5.063720	0.138360	0.413380	1
H	4.986180	1.902100	0.594200	1
H	4.848200	0.522870	-1.879250	1
Es	2.499808	0.258846	0.182892	99
Es	4.344525	0.748074	0.066546	99
Es	4.911235	1.273652	-0.489995	99
Es	0.727957	0.019404	0.101488	99
Es	2.884943	1.164486	-0.451923	99
Es	2.687265	-0.042624	0.207011	99
Es	1.025204	-0.075304	0.191991	99
Es	2.607864	0.409358	0.265586	99
Es	5.289177	1.244026	-1.097276	99
Es	1.294924	-0.114199	0.098184	99
Es	0.940493	0.166849	-0.241148	99
Es	5.123443	1.174691	-1.027680	99
Es	2.742319	0.416337	-0.092546	99
Es	0.810973	-0.057492	0.312487	99
Es	3.584059	1.056379	-0.148154	99
Es	4.828383	0.921309	0.058853	99
Es	5.026509	1.177456	-1.006772	99
Es	5.128033	1.298350	-1.314463	99
Es	5.112501	1.175748	-1.088281	99
Es	4.076914	1.000630	-0.086880	99
