27
Properties=species:S:1:pos:R:3:Z:I:1 energy=-228.6722515458984 field_type=dipole dipole="0.000000 0.000000 0.000000" charge=0
C	1.000000	0.000000	0.000000	6
C	2.444000	0.000000	0.000000	6
C	3.634160	0.000000	0.000000	6
C	5.076200	0.011590	-0.000000	6
O	5.697400	1.064460	-0.000000	8
H	0.605930	1.020860	0.011680	1
H	0.605910	-0.520540	0.878240	1
H	0.605910	-0.500300	-0.889930	1
H	5.561590	-0.976850	-0.000000	1
Es	0.815365	0.140356	-0.081146	99
Es	0.840299	-0.381686	0.040407	99
Es	5.664436	0.932929	-0.031896	99
Es	5.500156	0.809336	-0.147204	99
Es	5.228389	-0.307755	-0.004418	99
Es	1.678337	0.065534	0.009008	99
Es	4.324831	-0.038579	0.003637	99
Es	5.402940	0.702889	0.204823	99
Es	5.241260	-0.322744	0.003170	99
Es	3.136792	-0.050008	0.077302	99
Es	5.611765	1.262867	-0.080482	99
Es	5.950241	1.021577	0.049410	99
Es	0.843334	0.391449	0.037990	99
Es	3.629514	0.000357	0.000265	99
Es	0.860337	-0.197099	-0.008758	99
Es	3.050354	-0.258235	-0.160837	99
Es	3.037605	0.305132	0.092112	99
Es	2.465531	-0.015190	-0.003349	99
