38
Properties=species:S:1:pos:R:3:Z:I:1 energy=-249.0507746622133 field_type=dipole dipole="0.000000 0.000000 0.000000" charge=0
C	0.943420	0.000810	0.985390	6
C	0.298740	0.986390	-0.032640	6
C	-1.208700	0.775460	0.074480	6
C	-1.221720	-0.750170	0.085500	6
C	0.281780	-0.988270	-0.018070	6
N	0.791360	-0.012890	-1.073290	7
H	2.039450	-0.008290	1.020750	1
H	0.552420	0.011690	2.006700	1
H	0.697360	1.998930	-0.101030	1
H	-1.622590	1.198610	0.994730	1
H	-1.748790	1.186410	-0.784160	1
H	-1.768790	-1.164080	-0.767220	1
H	-1.642850	-1.152760	1.011650	1
H	0.663020	-2.008400	-0.071730	1
H	0.259470	-0.014720	-1.943340	1
Es	0.429515	-0.028402	-0.052505	99
Es	0.447773	0.023431	-0.144847	99
Es	-0.377832	-0.545332	0.054713	99
Es	0.433915	0.088109	-0.026830	99
Es	-1.266553	-0.724106	-0.148923	99
Es	-0.789683	0.313399	0.048162	99
Es	0.917404	-0.190893	0.032003	99
Es	-1.215185	-0.020896	0.077505	99
Es	0.720218	0.134591	0.089051	99
Es	-0.620774	0.718694	0.172178	99
Es	-1.063644	0.507270	-0.214191	99
Es	0.333161	-0.206015	-0.005023	99
Es	0.712785	-0.307902	0.013991	99
Es	0.625608	0.278436	-0.093466	99
Es	-0.254537	0.424174	0.124681	99
Es	0.410473	0.201507	0.001653	99
Es	-0.497751	-0.855124	0.161501	99
Es	0.642499	0.121534	-0.032984	99
Es	-0.222415	-0.230828	0.101489	99
Es	-0.642792	0.550256	0.019578	99
Es	-0.490089	-0.086306	0.004846	99
Es	0.139418	-0.060907	-0.005222	99
Es	0.556128	-0.055238	-0.021278	99
