42
Properties=species:S:1:pos:R:3:Z:I:1 energy=-234.24681421793957 field_type=dipole dipole="0.000000 0.000000 0.000000" charge=0
C	0.943060	-0.008480	0.048990	6
C	2.457770	0.009240	0.010170	6
C	3.161010	1.049660	0.917640	6
C	4.235360	-0.023070	1.226730	6
C	5.493880	0.026870	0.373550	6
C	3.184820	-1.089120	0.825660	6
H	0.554660	-0.869150	-0.505380	1
H	0.535940	0.898040	-0.409280	1
H	0.564400	-0.068490	1.074830	1
H	2.813980	0.058610	-1.026920	1
H	2.580280	1.345530	1.799720	1
H	3.511540	1.953840	0.412250	1
H	4.506570	-0.065250	2.289030	1
H	5.264620	0.064240	-0.696080	1
H	6.113750	-0.857020	0.555010	1
H	6.089350	0.911130	0.622200	1
H	3.554870	-1.938760	0.245130	1
H	2.612040	-1.472360	1.678750	1
Es	0.649183	-0.422423	-0.012199	99
Es	2.938879	-0.848661	0.666840	99
Es	1.023768	0.046436	0.085944	99
Es	5.012235	0.015666	0.924338	99
Es	2.749719	0.572871	0.749846	99
Es	2.989846	-0.801379	0.523185	99
Es	2.670999	-0.148985	0.515880	99
Es	1.114663	-0.000895	0.193869	99
Es	3.373651	0.694229	0.751930	99
Es	3.462267	-1.030236	0.726170	99
Es	1.863022	0.008542	0.163912	99
Es	2.770879	0.493834	0.495113	99
Es	5.563468	-0.210163	0.471049	99
Es	2.968699	0.852535	0.684859	99
Es	0.803417	0.256046	0.066853	99
Es	4.480558	-0.084774	0.752502	99
Es	4.365894	0.138216	0.697399	99
Es	2.752886	0.399558	0.491615	99
Es	3.511779	0.731899	0.741075	99
Es	2.971389	-0.576074	0.425122	99
Es	5.753272	0.594405	0.640029	99
Es	3.947514	-0.510500	0.939423	99
Es	4.466832	0.029754	1.010238	99
Es	5.566996	-0.324571	0.523946	99
