35
Properties=species:S:1:pos:R:3:Z:I:1 energy=-247.87085034685128 field_type=dipole dipole="0.000000 0.000000 0.000000" charge=0
C	0.351290	1.449710	0.351920	6
C	-0.762700	0.790710	-0.410520	6
C	-1.360680	-0.437120	0.096060	6
C	-0.461950	-1.421530	0.207120	6
C	0.876030	-0.905430	-0.233030	6
N	0.666680	0.493160	-0.706920	7
H	0.571160	2.486540	0.126710	1
H	0.544410	1.162490	1.378630	1
H	-1.290100	1.340750	-1.179530	1
H	-2.409540	-0.524460	0.343300	1
H	-0.652090	-2.423650	0.556000	1
H	1.605890	-0.942210	0.582810	1
H	1.252980	-1.509260	-1.064710	1
Es	-0.633267	-2.000418	0.351565	99
Es	-0.005210	0.772133	-0.199618	99
Es	-1.010480	0.158800	-0.164522	99
Es	0.730145	0.557589	-0.362074	99
Es	0.905163	-0.527794	-0.289248	99
Es	0.240060	0.997019	0.036422	99
Es	0.030308	-1.256424	0.036199	99
Es	-0.430488	-1.300767	0.150200	99
Es	-0.877763	0.914867	-0.565454	99
Es	0.167367	0.847824	-0.143921	99
Es	-0.667973	1.117882	-0.384228	99
Es	0.331566	1.223475	0.100303	99
Es	0.436943	1.867029	0.187441	99
Es	0.626932	-0.188576	-0.385569	99
Es	0.125286	1.334328	0.002234	99
Es	-2.036284	-0.443077	0.183203	99
Es	0.904272	-0.710845	-0.092818	99
Es	0.753684	-0.001777	-0.297667	99
Es	1.155634	-1.246756	-0.539613	99
Es	-0.770700	-0.584487	0.032786	99
Es	-1.125387	-0.648292	0.038443	99
Es	-0.701116	-0.884650	0.101568	99
