34
Properties=species:S:1:pos:R:3:Z:I:1 energy=-263.8511409258607 field_type=dipole dipole="0.000000 0.000000 0.000000" charge=0
C	0.425560	1.424040	0.313200	6
C	1.107930	0.305630	-0.440130	6
C	1.047350	-1.091360	0.050010	6
C	-0.430980	-1.247350	0.087920	6
N	-1.091960	-0.216740	-0.332290	7
N	-0.244570	0.761840	-0.801870	7
H	0.747500	2.439490	0.118180	1
H	0.036760	1.258020	1.310150	1
H	1.900380	0.527130	-1.138410	1
H	1.473850	-1.217690	1.047480	1
H	1.479820	-1.813090	-0.646880	1
H	-0.898950	-2.165210	0.468320	1
Es	1.149634	-0.911223	0.056231	99
Es	0.650277	1.073371	-0.018524	99
Es	-0.798088	-1.154521	-0.208114	99
Es	0.883577	-0.887200	-0.004393	99
Es	-0.991315	-0.409379	-0.100311	99
Es	-0.225082	0.691022	-0.442923	99
Es	0.895908	-0.084874	-0.238386	99
Es	0.646070	0.483338	-0.363447	99
Es	-0.908591	-0.168067	-0.323045	99
Es	-0.814109	-0.867873	-0.113500	99
Es	-0.260473	0.728001	-0.410465	99
Es	0.820656	-0.536316	-0.008101	99
Es	1.202918	-1.302764	-0.062153	99
Es	-0.543988	0.372983	-0.460869	99
Es	0.673588	-1.450529	0.051935	99
Es	-0.366220	0.256489	-0.265428	99
Es	0.608552	2.095570	0.148642	99
Es	0.899834	0.882935	-0.167062	99
Es	-0.717581	-1.516716	0.198538	99
Es	0.994213	0.514226	-0.333110	99
Es	0.207304	0.739274	-0.101129	99
Es	-0.174722	1.191418	-0.374307	99
