37
Properties=species:S:1:pos:R:3:Z:I:1 energy=-265.06977146000867 field_type=dipole dipole="0.000000 0.000000 0.000000" charge=0
C	0.424270	1.418130	0.265110	6
C	1.371040	0.329230	-0.207130	6
N	0.921950	-0.924770	0.385640	7
N	-0.344830	-1.358170	0.182910	7
C	-1.251890	-0.443940	0.012350	6
C	-1.011470	1.042900	-0.056610	6
H	0.678180	2.378340	-0.198310	1
H	0.530550	1.552400	1.349540	1
H	2.391150	0.551120	0.119920	1
H	1.375390	0.255030	-1.300580	1
H	1.589620	-1.677170	0.204190	1
H	-2.291490	-0.777270	-0.140990	1
H	-1.270210	1.360480	-1.073300	1
H	-1.707470	1.543420	0.624540	1
Es	-0.238600	0.994323	0.102661	99
Es	1.148437	0.790818	0.013831	99
Es	0.951551	-0.895909	0.297412	99
Es	-0.842901	-0.852501	0.307443	99
Es	-0.768728	-0.878336	-0.083196	99
Es	0.592422	2.030498	0.028081	99
Es	0.288198	1.043317	0.475592	99
Es	-0.331311	-1.367516	0.186003	99
Es	-1.442448	1.386553	0.040997	99
Es	1.021404	-0.819848	0.305501	99
Es	-1.535516	-0.490881	-0.030282	99
Es	1.370673	0.370595	-0.182540	99
Es	-1.110697	0.828589	0.017683	99
Es	-0.387681	-1.668130	0.179479	99
Es	1.280030	0.321565	-0.219635	99
Es	-1.565179	-0.681225	-0.022370	99
Es	0.305493	-1.163374	0.222508	99
Es	1.157395	-0.288121	0.034972	99
Es	-1.020980	1.036774	-0.202296	99
Es	1.110353	-1.137131	0.294826	99
Es	0.442082	1.401716	0.247730	99
Es	1.651362	0.348504	-0.004421	99
Es	-0.882509	1.104576	-0.085855	99
