37
Properties=species:S:1:pos:R:3:Z:I:1 energy=-265.0239243246266 field_type=dipole dipole="0.000000 0.000000 0.000000" charge=0
C	0.192710	0.929100	-0.232410	6
N	-0.765420	-0.085090	0.179770	7
C	0.639030	-0.487990	0.036710	6
C	1.402710	-0.896010	1.287830	6
C	1.297270	-2.281560	1.878080	6
N	2.497610	-1.865470	1.168790	7
H	0.136440	1.267500	-1.259240	1
H	0.421450	1.691580	0.499670	1
H	-1.308420	-0.428520	-0.614400	1
H	0.847520	-1.093280	-0.845700	1
H	1.576540	-0.095130	2.004410	1
H	0.664380	-3.002440	1.375140	1
H	1.370120	-2.390550	2.952680	1
H	3.247470	-1.637060	1.823280	1
Es	1.661488	-1.833686	1.499246	99
Es	2.148046	-1.826986	1.461422	99
Es	1.118044	-0.822445	0.653815	99
Es	0.618126	-0.370380	0.098293	99
Es	0.250523	1.289177	-0.526099	99
Es	1.772620	-1.752903	1.537816	99
Es	1.312460	-0.908064	1.106656	99
Es	-0.511338	0.186801	0.059182	99
Es	-0.190518	0.359870	-0.010640	99
Es	-0.179683	0.167628	-0.097225	99
Es	1.771974	-1.927046	1.530179	99
Es	0.128300	-0.234567	0.019232	99
Es	0.198897	1.082147	-0.126719	99
Es	2.784043	-1.701045	1.384220	99
Es	1.401903	-0.928436	1.129096	99
Es	1.997830	-1.434380	1.278668	99
Es	0.916137	-0.731654	0.286783	99
Es	1.217129	-2.372897	1.789243	99
Es	0.293017	0.464220	-0.191894	99
Es	-1.101034	-0.090740	0.200069	99
Es	2.016138	-1.911753	1.380548	99
Es	-0.720438	-0.088590	-0.043445	99
Es	1.200186	-2.557891	2.180330	99
