34
Properties=species:S:1:pos:R:3:Z:I:1 energy=-263.8776102408136 field_type=dipole dipole="0.000000 0.000000 0.000000" charge=0
C	0.485480	1.462850	0.334260	6
C	1.013280	0.297590	-0.435300	6
C	0.983940	-1.085050	0.153280	6
N	-0.462580	-1.387850	0.330150	7
C	-1.071760	-0.342970	-0.144990	6
N	-0.380630	0.750690	-0.611500	7
H	0.737800	2.460350	0.003160	1
H	0.206690	1.349310	1.373550	1
H	1.626830	0.428570	-1.312250	1
H	1.496980	-1.120550	1.119030	1
H	1.431120	-1.815700	-0.527510	1
H	-2.166950	-0.262820	-0.229200	1
Es	0.238917	0.010861	-0.234968	99
Es	1.060947	-0.832858	0.158391	99
Es	-1.775462	-0.283499	-0.152762	99
Es	0.625643	-1.462307	0.116404	99
Es	-0.693893	-1.192926	0.034688	99
Es	1.076320	-0.615788	0.065639	99
Es	-0.398956	0.205803	-0.126871	99
Es	0.755061	-1.364976	0.052470	99
Es	-0.272261	0.795947	-0.413678	99
Es	-0.103067	1.186213	-0.214374	99
Es	-0.860404	-0.411578	-0.032111	99
Es	0.039168	0.906008	-0.088541	99
Es	-0.418827	-0.202080	-0.140907	99
Es	0.651090	1.099566	0.087924	99
Es	0.837226	0.720569	-0.219606	99
Es	0.330351	1.056075	-0.104174	99
Es	0.793171	1.847189	0.073678	99
Es	-0.008358	0.814204	-0.168150	99
Es	1.087361	-0.998910	0.185072	99
Es	-0.569497	-1.298862	0.310714	99
Es	0.940496	0.481979	-0.446413	99
Es	-0.553505	-1.370005	0.191068	99
