35
Properties=species:S:1:pos:R:3:Z:I:1 energy=-247.9143377699136 field_type=dipole dipole="0.000000 0.000000 0.000000" charge=0
C	1.031130	0.006410	-0.064430	6
C	2.521020	-0.002520	-0.013160	6
C	3.307440	-0.709050	-1.082220	6
C	3.324090	0.801340	-1.011970	6
C	4.517810	1.469160	-0.574730	6
N	5.482030	2.009440	-0.223430	7
H	0.635050	0.767140	0.616430	1
H	0.637320	-0.967360	0.246450	1
H	0.653700	0.220910	-1.070170	1
H	2.883340	-0.082850	1.007060	1
H	2.771960	-1.170550	-1.904290	1
H	4.193590	-1.256470	-0.777570	1
H	2.775830	1.325180	-1.787960	1
Es	5.612643	2.171696	-0.252604	99
Es	0.860429	0.179177	-0.247101	99
Es	2.979165	0.364722	-0.535211	99
Es	2.648611	0.112397	-0.082876	99
Es	3.009917	-0.769560	-1.329846	99
Es	3.164283	0.246491	-0.781619	99
Es	5.074628	1.729070	-0.236063	99
Es	3.442400	0.671111	-0.997637	99
Es	3.529110	-0.530381	-1.043299	99
Es	2.610013	-0.089745	-0.384823	99
Es	4.967321	1.818648	-0.307667	99
Es	4.274232	1.366457	-0.672697	99
Es	5.017648	1.715696	-0.350509	99
Es	1.408936	0.194506	-0.107225	99
Es	0.810928	-0.514978	0.174746	99
Es	5.123927	1.645046	-0.466526	99
Es	2.882733	-0.282435	-0.679959	99
Es	1.206059	0.030324	-0.013723	99
Es	3.206095	-0.634170	-0.935844	99
Es	1.158472	0.133507	-0.110535	99
Es	4.655310	1.627880	-0.595596	99
Es	3.335426	0.229461	-0.805181	99
