41
Properties=species:S:1:pos:R:3:Z:I:1 energy=-250.23266414168685 field_type=dipole dipole="0.000000 0.000000 0.000000" charge=0
C	1.013280	0.012490	-0.063580	6
C	2.503840	0.028470	-0.031490	6
C	3.343460	-0.734600	-1.042410	6
C	2.737610	-1.544930	-2.136030	6
N	3.227100	0.719850	-1.095240	7
C	4.427580	1.409840	-0.633370	6
H	0.617400	0.774060	0.615560	1
H	0.640380	-0.961450	0.267520	1
H	0.609370	0.215350	-1.060480	1
H	2.879750	0.088470	0.984980	1
H	4.276640	-1.167200	-0.695330	1
H	1.869170	-1.060390	-2.594190	1
H	2.421860	-2.518890	-1.750210	1
H	3.475870	-1.717410	-2.925590	1
H	4.181400	2.450130	-0.397720	1
H	5.177830	1.419240	-1.430910	1
H	4.889630	0.965870	0.256770	1
Es	0.956444	0.362635	0.279439	99
Es	3.378190	0.148594	-0.964903	99
Es	1.335911	-0.054705	-0.150417	99
Es	2.569275	0.123806	-0.342576	99
Es	3.220596	-1.733462	-2.595549	99
Es	3.612720	0.913161	-0.708168	99
Es	1.898023	-0.064074	-0.154484	99
Es	3.280922	-0.028022	-1.055907	99
Es	2.573439	-0.268278	-0.482240	99
Es	0.980682	0.128811	-0.363455	99
Es	2.799489	-0.824577	-1.439433	99
Es	3.501818	-0.296961	-0.941521	99
Es	4.818391	1.273356	-0.674272	99
Es	2.205619	-0.113706	-0.340051	99
Es	4.428618	1.741054	-0.609579	99
Es	3.825895	1.099578	-0.645018	99
Es	3.876009	1.054722	-0.698554	99
Es	4.611610	1.298444	-0.558065	99
Es	0.792015	-0.400476	0.143685	99
Es	2.674518	-1.505672	-2.172008	99
Es	3.451145	-0.591058	-1.020102	99
Es	2.482614	-2.010284	-1.955751	99
Es	2.620849	-1.389045	-2.073816	99
Es	2.940236	0.487880	-0.499365	99
