38
Properties=species:S:1:pos:R:3:Z:I:1 energy=-249.07989295253805 field_type=dipole dipole="0.000000 0.000000 0.000000" charge=0
C	1.040800	0.007750	0.118780	6
C	2.378120	0.015850	0.033390	6
C	3.240790	1.236980	0.036610	6
C	4.395580	0.771330	-0.835430	6
N	4.589680	-0.637060	-0.472130	7
C	3.248020	-1.178910	-0.209940	6
H	0.478850	-0.918630	0.060460	1
H	0.480210	0.927690	0.249150	1
H	3.582670	1.452680	1.055380	1
H	2.746390	2.119770	-0.378050	1
H	4.136820	0.853990	-1.898700	1
H	5.303260	1.354920	-0.657020	1
H	5.024520	-1.142290	-1.241270	1
H	2.892320	-1.748920	-1.075180	1
H	3.285400	-1.831870	0.667350	1
Es	2.218687	0.038893	0.097584	99
Es	3.062379	1.046468	0.076538	99
Es	4.094603	-0.717685	-0.436537	99
Es	3.627488	1.132217	0.022533	99
Es	4.649769	-0.718336	-0.630516	99
Es	3.049706	0.929961	0.050188	99
Es	4.477555	-0.659040	-0.615116	99
Es	4.652635	-0.488107	-0.528365	99
Es	3.151069	-1.275000	-0.256830	99
Es	2.963526	1.734149	-0.178782	99
Es	4.402543	0.300867	-0.842893	99
Es	1.697587	-0.028295	0.177501	99
Es	3.155732	-1.682431	-0.108485	99
Es	3.220105	-1.168595	-0.250189	99
Es	4.862239	1.098398	-0.817508	99
Es	3.610093	1.038703	-0.157030	99
Es	4.604545	0.202339	-0.811970	99
Es	4.273704	0.752998	-0.830495	99
Es	0.961684	-0.524509	0.149822	99
Es	1.485079	0.054924	-0.064457	99
Es	0.672192	0.624495	0.238112	99
Es	1.160804	-0.072157	0.073341	99
Es	2.899907	-0.773852	-0.068588	99
