35
Properties=species:S:1:pos:R:3:Z:I:1 energy=-247.9360168104912 field_type=dipole dipole="0.000000 0.000000 0.000000" charge=0
C	0.942100	0.025760	-0.008100	6
C	2.425980	0.004500	-0.000620	6
C	3.275570	1.093900	0.003760	6
N	4.567310	0.637360	0.010100	7
C	4.564790	-0.731440	0.009750	6
C	3.254410	-1.152480	0.003130	6
H	0.558000	1.050880	0.001520	1
H	0.548520	-0.492740	0.872180	1
H	0.558030	-0.472770	-0.903960	1
H	3.069090	2.156000	0.002920	1
H	5.393530	1.221190	0.014330	1
H	5.492410	-1.287860	0.014210	1
H	2.925260	-2.183900	0.001200	1
Es	4.040002	0.871772	-0.036730	99
Es	3.740321	-0.846864	0.032012	99
Es	3.139092	1.807060	0.011623	99
Es	4.701087	0.716612	0.023430	99
Es	0.850981	0.252915	-0.001255	99
Es	2.041675	0.029512	-0.004770	99
Es	3.253862	-1.152396	0.003581	99
Es	0.760768	-0.210702	0.007092	99
Es	4.564053	-0.728122	0.009419	99
Es	2.673304	-0.580909	-0.026719	99
Es	4.482537	0.523321	-0.031027	99
Es	0.743882	0.449566	-0.019280	99
Es	3.935598	-0.982629	-0.008233	99
Es	0.633918	-0.405724	-0.027725	99
Es	2.652060	0.261669	0.120314	99
Es	3.267522	1.084116	0.000110	99
Es	3.023239	-1.849972	-0.017617	99
Es	4.939051	0.885817	0.015025	99
Es	4.581672	0.084924	0.091185	99
Es	5.196566	-1.094794	0.007276	99
Es	2.380863	0.271879	0.062521	99
Es	2.910596	0.456206	-0.150540	99
