37
Properties=species:S:1:pos:R:3:Z:I:1 energy=-265.06920012891425 field_type=dipole dipole="0.000000 0.000000 0.000000" charge=0
C	1.052600	0.071830	0.015240	6
C	2.573800	-0.041710	-0.007050	6
C	3.056480	-1.247420	-0.798210	6
C	3.421050	-0.576250	-2.080700	6
N	3.455740	0.714630	-2.043910	7
N	3.176020	1.057230	-0.762530	7
H	0.738210	0.982540	0.536650	1
H	0.613330	-0.783800	0.539040	1
H	0.628840	0.098720	-0.994910	1
H	2.952750	-0.064520	1.019800	1
H	2.294490	-2.012350	-0.967960	1
H	3.959190	-1.701180	-0.377660	1
H	3.657040	-1.166060	-2.977250	1
H	2.660030	1.936080	-0.697250	1
Es	2.777115	1.328718	-0.702989	99
Es	3.485376	0.905847	-1.762427	99
Es	2.420914	0.177428	-0.310415	99
Es	3.423846	0.383711	-1.742671	99
Es	2.294768	-0.024059	-0.495250	99
Es	1.671273	0.030608	0.214060	99
Es	3.392115	-0.376603	-1.420429	99
Es	3.232239	0.277784	-1.460908	99
Es	3.492021	-0.484055	-2.229564	99
Es	3.150181	0.572254	-1.107322	99
Es	3.153066	-0.989287	-0.801455	99
Es	3.598146	-0.679972	-1.840175	99
Es	3.145526	-0.724446	-1.034332	99
Es	3.450968	-0.553344	-1.935954	99
Es	0.826044	-0.518290	0.387434	99
Es	2.014057	0.057545	-0.243227	99
Es	1.764995	0.050135	0.149622	99
Es	2.832374	-1.406605	-0.794788	99
Es	3.452397	0.925469	-2.001272	99
Es	3.105519	1.102549	-0.763472	99
Es	2.781208	-1.189714	-0.745814	99
Es	1.909834	0.148125	-0.288126	99
Es	1.063245	0.631490	0.386031	99
