40
Properties=species:S:1:pos:R:3:Z:I:1 energy=-266.2357840075889 field_type=dipole dipole="0.000000 0.000000 0.000000" charge=0
C	1.042820	0.009290	-0.065580	6
C	2.532790	-0.022210	-0.022860	6
C	3.358200	-0.760020	-1.045870	6
N	2.727850	-1.508520	-2.132840	7
C	3.330840	0.751890	-1.036800	6
N	4.503080	1.510530	-0.598130	7
H	0.665090	0.765030	0.631210	1
H	0.634390	-0.961520	0.235080	1
H	0.654610	0.251800	-1.060920	1
H	2.887810	-0.062630	1.001490	1
H	4.269730	-1.228660	-0.678860	1
H	1.948040	-0.999130	-2.542850	1
H	2.349660	-2.390050	-1.790890	1
H	2.787500	1.229780	-1.849560	1
H	5.015650	1.020420	0.133450	1
H	4.223480	2.406520	-0.200630	1
Es	1.477128	0.222400	-0.120544	99
Es	4.529724	1.434518	-0.360130	99
Es	3.353671	-0.163703	-0.997431	99
Es	3.313411	-0.148008	-0.891370	99
Es	2.810116	-0.027873	-0.598620	99
Es	2.742956	-1.381389	-2.273434	99
Es	2.773107	-1.400532	-1.879740	99
Es	3.150527	0.582365	-0.763622	99
Es	2.632128	-1.639663	-2.068367	99
Es	3.130213	-0.884658	-1.091022	99
Es	4.581741	1.617231	-0.687572	99
Es	4.785356	1.347223	-0.555153	99
Es	3.182119	-0.528942	-1.034755	99
Es	2.895595	-0.809004	-1.276791	99
Es	3.577987	0.817793	-0.850594	99
Es	1.361263	0.023506	-0.046429	99
Es	0.980151	-0.133353	-0.173128	99
Es	2.531482	-1.680815	-1.997330	99
Es	2.568813	0.325119	0.117081	99
Es	0.841768	-0.048444	0.225270	99
Es	4.357875	1.844428	-0.405787	99
Es	1.212748	-0.052318	-0.086917	99
Es	2.947818	-0.025522	-0.798394	99
Es	3.268077	0.665465	-0.736578	99
