34
Properties=species:S:1:pos:R:3:Z:I:1 energy=-263.9178257112709 field_type=dipole dipole="0.000000 0.000000 0.000000" charge=0
C	1.088240	0.051080	0.157930	6
C	2.410980	0.031720	-0.018600	6
C	3.291520	-1.205620	-0.082010	6
N	4.677420	-0.687760	-0.386700	7
C	4.509810	0.603020	-0.429390	6
N	3.262140	1.072870	-0.207360	7
H	0.533100	0.982070	0.179900	1
H	0.529300	-0.870620	0.283970	1
H	2.978300	-1.881860	-0.883390	1
H	3.312710	-1.731640	0.877660	1
H	5.298420	1.342090	-0.635450	1
H	2.958690	2.029380	-0.295210	1
Es	2.916203	0.709808	-0.162796	99
Es	0.822382	0.575526	0.170972	99
Es	1.670087	0.044884	-0.153793	99
Es	2.410601	0.032258	-0.017886	99
Es	4.559667	0.225167	-0.365942	99
Es	4.410449	-0.753983	-0.298393	99
Es	3.159822	-1.714816	-0.031500	99
Es	3.262378	1.013162	-0.247232	99
Es	3.089711	1.637415	-0.245570	99
Es	0.781256	-0.491772	0.237151	99
Es	3.233575	-1.304096	-0.058031	99
Es	3.218912	-1.336647	-0.063085	99
Es	2.818555	-0.601036	-0.020555	99
Es	5.023389	1.096551	-0.561921	99
Es	4.562979	-0.038149	-0.421251	99
Es	4.993434	-0.905908	-0.413769	99
Es	4.562084	0.045718	-0.466568	99
Es	4.337631	-0.787205	-0.340531	99
Es	3.259531	1.001505	-0.137673	99
Es	3.813398	0.892447	-0.281184	99
Es	1.679775	0.053396	0.312073	99
Es	1.021534	0.047176	0.143572	99
