37
Properties=species:S:1:pos:R:3:Z:I:1 energy=-265.06707842582404 field_type=dipole dipole="0.000000 0.000000 0.000000" charge=0
C	0.974690	0.031370	-0.058140	6
C	2.491100	-0.048870	0.001980	6
C	3.017820	-1.300340	0.690560	6
N	3.198840	-0.823720	2.058340	7
N	3.428820	0.512100	2.099140	7
C	3.017810	0.973380	0.963280	6
H	0.571230	-0.763390	-0.693410	1
H	0.656730	0.994410	-0.471830	1
H	0.520020	-0.061980	0.934420	1
H	2.936310	0.097430	-0.986360	1
H	3.986810	-1.588670	0.267170	1
H	2.336920	-2.153980	0.634040	1
H	3.893470	-1.356860	2.583160	1
H	3.034400	2.039940	0.698210	1
Es	3.411117	0.132908	2.010075	99
Es	1.112040	-0.185566	-0.386591	99
Es	3.392163	-1.083931	1.338061	99
Es	3.057070	0.948464	1.168989	99
Es	3.229380	-0.484474	1.700062	99
Es	2.847350	1.476073	0.945950	99
Es	3.264852	-1.028841	1.574493	99
Es	2.533570	-1.550977	0.542464	99
Es	2.305685	-0.425091	0.317192	99
Es	1.219028	0.117615	-0.193219	99
Es	2.465050	0.406588	0.344886	99
Es	1.408948	-0.033399	0.043658	99
Es	3.449685	-0.601458	1.992894	99
Es	3.249509	-1.158013	1.396887	99
Es	3.458207	0.530163	2.328684	99
Es	3.071162	0.565766	1.322991	99
Es	1.267538	0.217125	-0.171773	99
Es	3.389933	0.490547	1.618282	99
Es	2.943500	-1.033511	0.709315	99
Es	3.309113	-0.407384	1.899183	99
Es	1.307900	0.204459	-0.184278	99
Es	2.385912	-0.440419	0.208219	99
Es	2.596259	-0.059814	0.548896	99
