34
Properties=species:S:1:pos:R:3:Z:I:1 energy=-263.92440838540745 field_type=dipole dipole="0.000000 0.000000 0.000000" charge=0
C	0.944560	0.010800	-0.007950	6
C	2.423550	0.029520	-0.001010	6
C	3.267990	1.118910	0.003310	6
N	4.538310	0.622520	0.008910	7
N	4.585480	-0.719440	0.008480	7
C	3.300130	-1.079290	0.002410	6
H	0.533790	1.025440	0.001560	1
H	0.564240	-0.517300	0.872180	1
H	0.572600	-0.497500	-0.903160	1
H	3.080980	2.183310	0.002900	1
H	5.413600	1.133580	0.013150	1
H	3.051910	-2.133280	0.000700	1
Es	2.445711	-0.281361	-0.004852	99
Es	4.493790	0.617619	0.018942	99
Es	0.777719	-0.241966	-0.015715	99
Es	3.986931	-0.888544	0.010627	99
Es	4.562582	-0.015520	0.014924	99
Es	5.042798	0.941273	0.025890	99
Es	0.768331	-0.254427	-0.018370	99
Es	4.003470	0.872763	-0.041145	99
Es	3.145133	1.791795	0.005167	99
Es	0.656724	0.707161	-0.002718	99
Es	2.508102	-0.154671	0.004810	99
Es	2.861317	0.522795	-0.021460	99
Es	1.940846	0.021698	0.004721	99
Es	4.885258	-0.902810	-0.007842	99
Es	0.817388	-0.174377	0.005638	99
Es	3.321393	-1.076044	0.001671	99
Es	3.121495	-1.745250	-0.000079	99
Es	2.875541	0.336276	0.014597	99
Es	3.988653	-0.798819	0.001435	99
Es	4.385503	0.605078	0.024659	99
Es	3.268228	1.118946	0.003342	99
Es	4.601244	-0.734224	0.021032	99
