19
Properties=species:S:1:pos:R:3:Z:I:1 energy=-152.97271981920466 field_type=dipole dipole="0.000000 0.000000 0.000000" charge=0
C	0.993820	0.009340	-0.002210	6
C	2.489170	0.038210	-0.011280	6
O	3.139770	1.048030	-0.265970	8
H	0.652380	-1.013260	-0.192710	1
H	0.603070	0.661730	-0.785940	1
H	0.629860	0.331370	0.975850	1
H	2.987920	-0.888910	0.314450	1
Es	2.915480	0.605965	-0.417499	99
Es	3.139619	1.047754	-0.265893	99
Es	2.489147	0.038205	-0.011293	99
Es	0.993860	0.009321	-0.002196	99
Es	2.893804	0.748831	0.065802	99
Es	3.448444	1.006910	-0.239179	99
Es	2.954271	1.287370	-0.344741	99
Es	2.821134	-0.606487	0.208954	99
Es	1.733278	0.012508	-0.014434	99
Es	0.769466	-0.684369	-0.127194	99
Es	0.736998	0.445978	-0.522456	99
Es	0.774173	0.221472	0.650549	99
