24
Properties=species:S:1:pos:R:3:Z:I:1 energy=-118.30787063126735 field_type=dipole dipole="0.000000 0.000000 0.000000" charge=0
C	0.989980	-0.013360	0.004120	6
C	2.508920	0.016510	0.008260	6
C	3.041640	1.439360	0.006470	6
H	0.630900	-1.047410	0.000510	1
H	0.589740	0.488380	-0.882730	1
H	0.585400	0.483540	0.891770	1
H	2.886770	-0.515450	-0.871820	1
H	2.881590	-0.511460	0.892940	1
H	2.711400	1.980780	-0.885940	1
H	4.136060	1.434740	0.015210	1
H	2.697030	1.988820	0.888500	1
Es	0.989994	-0.013362	0.004120	99
Es	1.743073	0.004525	0.005992	99
Es	3.041637	1.439346	0.006470	99
Es	0.716729	0.328752	0.611931	99
Es	3.790256	1.436349	0.012443	99
Es	2.763755	-0.344699	0.617670	99
Es	2.508895	0.016545	0.008259	99
Es	0.744126	-0.720595	0.001661	99
Es	2.802784	1.812616	0.610462	99
Es	2.767417	-0.347216	-0.598045	99
Es	2.812536	1.807202	-0.604605	99
Es	0.719692	0.332021	-0.603147	99
Es	2.774586	0.734887	0.007530	99
