20
Properties=species:S:1:pos:R:3:Z:I:1 energy=-133.09092740379228 field_type=dipole dipole="0.000000 0.000000 0.000000" charge=0
C	-0.055920	0.882150	-0.065720	6
C	-0.764580	-0.443000	-0.065120	6
N	0.691920	-0.370160	-0.080600	7
H	-0.041440	1.453880	-0.985020	1
H	-0.025090	1.458090	0.849950	1
H	-1.232750	-0.773240	-0.984130	1
H	-1.226490	-0.787840	0.851090	1
H	1.078830	-0.576680	0.842460	1
Es	0.487543	0.250069	-0.055647	99
Es	0.904585	-0.483651	0.485737	99
Es	-1.079699	-0.677079	0.560903	99
Es	-0.044237	1.273503	-0.688276	99
Es	-1.083953	-0.670541	-0.687445	99
Es	0.691537	-0.369955	-0.080125	99
Es	0.869595	-0.465504	-0.374198	99
Es	0.062599	-0.543965	-0.055146	99
Es	-0.764336	-0.442924	-0.065108	99
Es	-0.613279	0.328154	-0.062958	99
Es	-0.055854	0.881907	-0.065708	99
Es	-0.035940	1.274436	0.559972	99
