17
Properties=species:S:1:pos:R:3:Z:I:1 energy=-131.974507083702 field_type=dipole dipole="0.000000 0.000000 0.000000" charge=0
C	1.000000	0.000000	0.000000	6
C	2.444000	0.000000	0.000000	6
N	3.595010	0.000000	0.000000	7
H	0.606430	1.021520	0.011690	1
H	0.606420	-0.520890	0.878830	1
H	0.606430	-0.500630	-0.890500	1
Es	0.763482	-0.345032	0.582050	99
Es	1.758376	-0.000005	0.000029	99
Es	3.071681	-0.125078	-0.281661	99
Es	0.763414	0.676598	0.007776	99
Es	3.963671	0.000247	-0.000279	99
Es	0.763496	-0.331611	-0.589857	99
Es	2.443613	0.000012	-0.000003	99
Es	1.000156	-0.000000	0.000001	99
Es	3.071807	-0.181559	0.249401	99
Es	3.594566	0.000000	-0.000000	99
Es	3.071666	0.306427	0.032554	99
