19
Properties=species:S:1:pos:R:3:Z:I:1 energy=-152.92502856850354 field_type=dipole dipole="0.000000 0.000000 0.000000" charge=0
C	-0.083760	0.896500	-0.061110	6
C	-0.792660	-0.428540	-0.061430	6
O	0.635980	-0.340730	0.013300	8
H	-0.027320	1.451850	-0.988650	1
H	-0.125850	1.504070	0.833850	1
H	-1.223100	-0.783280	-0.989160	1
H	-1.321610	-0.731040	0.833300	1
Es	-0.083629	0.896213	-0.061096	99
Es	-0.035809	1.274942	-0.691868	99
Es	0.752708	-0.403211	-0.263817	99
Es	0.635666	-0.340563	0.013280	99
Es	-0.102965	1.310444	0.548515	99
Es	0.457283	0.188508	-0.011736	99
Es	0.723096	-0.387088	0.304553	99
Es	-0.792345	-0.428493	-0.061416	99
Es	0.097025	-0.486230	-0.011468	99
Es	-1.147795	-0.642523	0.548034	99
Es	-1.080737	-0.678145	-0.692298	99
Es	-0.652050	0.348375	-0.076220	99
