28
Properties=species:S:1:pos:R:3:Z:I:1 energy=-156.16415273615448 field_type=dipole dipole="0.000000 0.000000 0.000000" charge=0
C	0.925380	-0.122230	-0.101190	6
C	2.421930	0.039010	0.113080	6
C	2.827580	1.483660	0.082850	6
C	3.387900	2.127690	1.114250	6
H	0.653450	-1.182710	-0.088320	1
H	0.614810	0.293870	-1.066090	1
H	0.355770	0.382780	0.686810	1
H	2.962590	-0.494760	-0.676360	1
H	2.702320	-0.427210	1.064580	1
H	2.658080	2.023960	-0.846600	1
H	3.581770	1.631710	2.060310	1
H	3.665300	3.174170	1.031000	1
Es	3.521600	1.793907	1.759310	99
Es	2.816443	1.900415	0.718389	99
Es	0.718312	0.164575	-0.761154	99
Es	2.789913	-0.316339	-0.427367	99
Es	3.410154	1.729149	0.505241	99
Es	2.421903	0.039054	0.113067	99
Es	3.387946	2.127742	1.114333	99
Es	1.676007	-0.029909	0.004300	99
Es	0.743142	-0.846745	-0.092656	99
Es	2.613505	-0.273341	0.766157	99
Es	3.578668	2.839039	1.065817	99
Es	2.827534	1.483591	0.082764	99
Es	2.705565	1.842663	-0.554263	99
Es	0.541123	0.222842	0.436665	99
Es	2.625131	0.767619	0.100269	99
Es	0.925412	-0.122229	-0.101192	99
