27
Properties=species:S:1:pos:R:3:Z:I:1 energy=-172.1432217549244 field_type=dipole dipole="0.000000 0.000000 0.000000" charge=0
C	1.001560	-0.013550	-0.055950	6
C	2.490050	-0.048360	0.000630	6
C	3.274650	-0.746820	-1.078600	6
N	3.258260	0.711130	-0.978910	7
H	0.616770	0.747630	0.628510	1
H	0.592830	-0.981450	0.247970	1
H	0.629560	0.213460	-1.059940	1
H	2.870660	-0.076890	1.014790	1
H	2.741580	-1.169430	-1.921210	1
H	4.199070	-1.242200	-0.811060	1
H	4.127990	1.059300	-0.571340	1
Es	2.898528	0.506261	-0.479398	99
Es	3.258508	0.710754	-0.978490	99
Es	2.912654	-1.035752	-1.651705	99
Es	2.757981	-0.067785	0.693641	99
Es	0.755667	0.135493	-0.737089	99
Es	3.784326	0.901375	-0.721056	99
Es	3.084902	0.902360	-1.225780	99
Es	0.730236	-0.673616	0.154922	99
Es	2.490171	-0.048295	0.000444	99
Es	1.745762	-0.023778	-0.040348	99
Es	1.001580	-0.013556	-0.055937	99
Es	3.274635	-0.746573	-1.078543	99
Es	0.743392	0.504772	0.411870	99
Es	3.906805	-1.085139	-0.896075	99
Es	2.819534	-0.605778	-0.468047	99
Es	3.365106	0.081715	-1.122985	99
