30
Properties=species:S:1:pos:R:3:Z:I:1 energy=-173.35289795284217 field_type=dipole dipole="0.000000 0.000000 0.000000" charge=0
C	0.988760	-0.030250	-0.001580	6
C	2.509080	0.011590	0.002480	6
C	3.025730	1.448180	0.008880	6
N	4.483590	1.461290	0.004310	7
H	0.638340	-1.067050	-0.006180	1
H	0.585010	0.468750	-0.888280	1
H	0.580450	0.462550	0.886500	1
H	2.883800	-0.519170	-0.881200	1
H	2.878520	-0.526320	0.884030	1
H	2.660400	1.978560	0.895220	1
H	2.660900	1.983800	-0.874150	1
H	4.834210	0.990790	0.836890	1
H	4.812720	2.424500	0.060720	1
Es	0.749821	-0.738089	-0.004482	99
Es	1.743192	-0.004461	0.002838	99
Es	2.766203	-0.351571	0.612976	99
Es	4.483370	1.461562	0.004803	99
Es	4.679637	1.188444	0.523828	99
Es	0.716198	0.313443	-0.608148	99
Es	4.670784	2.049446	0.056487	99
Es	0.712026	0.308966	0.606557	99
Es	3.025872	1.448158	0.008884	99
Es	3.854153	1.468595	0.029576	99
Es	0.988780	-0.030249	-0.001579	99
Es	2.773896	1.816031	-0.597576	99
Es	2.766968	0.730663	0.007700	99
Es	2.763495	-0.347489	-0.601710	99
Es	2.761426	1.812771	0.625658	99
Es	2.509041	0.011617	0.002495	99
Es	4.612967	1.304232	-0.284519	99
