27
Properties=species:S:1:pos:R:3:Z:I:1 energy=-172.1502639902406 field_type=dipole dipole="0.000000 0.000000 0.000000" charge=0
N	1.016600	-0.033000	-0.124420	7
C	2.468390	-0.066990	-0.000520	6
C	3.269190	-0.749830	-1.069770	6
C	3.294510	0.747230	-0.951880	6
H	0.623830	0.727060	0.429990	1
H	0.602520	-0.891380	0.237350	1
H	2.841970	-0.154930	1.017580	1
H	2.743600	-1.180340	-1.914310	1
H	4.153550	-1.298630	-0.769100	1
H	4.196260	1.212210	-0.572040	1
H	2.785770	1.321920	-1.717330	1
Es	0.795639	0.419800	0.230238	99
Es	3.269156	-0.749666	-1.069690	99
Es	3.908528	1.059406	-0.689510	99
Es	1.016772	-0.033073	-0.123842	99
Es	3.871135	-1.119928	-0.860644	99
Es	0.927773	0.007070	-0.458600	99
Es	2.948137	1.133024	-1.465928	99
Es	2.468335	-0.066973	-0.000685	99
Es	2.806883	-0.585065	-0.476383	99
Es	1.646994	-0.050754	-0.046430	99
Es	3.402679	0.007278	-1.154090	99
Es	2.911115	-1.038889	-1.636867	99
Es	0.782802	-0.550067	0.115516	99
Es	2.825875	0.507994	-0.389612	99
Es	3.294470	0.747066	-0.951824	99
Es	2.731389	-0.127182	0.697416	99
