26
Properties=species:S:1:pos:R:3:Z:I:1 energy=-191.9812956490863 field_type=dipole dipole="0.000000 0.000000 0.000000" charge=0
C	0.351110	1.065650	-0.073450	6
C	0.971410	-0.300400	0.200130	6
O	-0.324770	-0.944290	0.135860	8
C	-0.981350	0.345060	0.115910	6
H	0.574870	1.838880	0.664060	1
H	0.520330	1.446480	-1.084410	1
H	1.424290	-0.422250	1.188670	1
H	1.649920	-0.671030	-0.572240	1
H	-1.684000	0.433360	-0.715860	1
H	-1.492030	0.543560	1.062920	1
Es	-0.350715	-1.058422	-0.146936	99
Es	-1.467690	0.409035	-0.453495	99
Es	0.465434	1.321691	-0.762885	99
Es	-0.600804	-0.467721	0.134927	99
Es	0.971197	-0.300467	0.200115	99
Es	0.351098	1.065613	-0.073438	99
Es	0.505067	1.596626	0.428608	99
Es	-0.352033	0.791429	0.014351	99
Es	1.442147	-0.554268	-0.328053	99
Es	-0.386545	-1.096363	0.399698	99
Es	-0.981219	0.344882	0.115909	99
Es	-1.330550	0.488540	0.767968	99
Es	-0.324638	-0.943920	0.135739	99
Es	1.285275	-0.377231	0.880750	99
Es	0.180532	-0.726346	0.168205	99
Es	0.742564	0.429245	0.061548	99
