29
Properties=species:S:1:pos:R:3:Z:I:1 energy=-193.19119141740316 field_type=dipole dipole="0.000000 0.000000 0.000000" charge=0
C	0.990770	-0.028520	-0.005260	6
C	2.507390	0.023660	0.010200	6
C	3.023640	1.455220	0.016160	6
O	4.444960	1.456050	0.012370	8
H	0.646630	-1.067620	-0.009130	1
H	0.589630	0.465040	-0.896880	1
H	0.571710	0.464630	0.878010	1
H	2.907720	-0.506850	-0.861280	1
H	2.887980	-0.509130	0.888880	1
H	2.678420	2.001070	0.900990	1
H	2.684200	1.996620	-0.873580	1
H	4.739640	0.988920	0.812970	1
Es	2.788221	1.821717	-0.593884	99
Es	2.774537	1.825343	0.631677	99
Es	0.757253	-0.736225	-0.007440	99
Es	0.708399	0.311236	0.598849	99
Es	4.528042	1.278327	-0.222254	99
Es	2.755382	0.736451	0.016581	99
Es	4.539512	1.747979	0.041865	99
Es	0.721788	0.311332	-0.614254	99
Es	2.771343	-0.334276	0.621374	99
Es	2.777412	-0.333534	-0.587249	99
Es	2.507349	0.023675	0.010215	99
Es	3.023869	1.455192	0.016166	99
Es	4.444741	1.455938	0.012671	99
Es	3.907744	1.446429	0.036279	99
Es	4.580582	1.200344	0.452141	99
Es	0.990796	-0.028516	-0.005258	99
Es	1.744816	0.001468	0.004836	99
