29
Properties=species:S:1:pos:R:3:Z:I:1 energy=-193.18083544153126 field_type=dipole dipole="0.000000 0.000000 0.000000" charge=0
C	0.965540	-0.097900	-0.001570	6
C	2.479920	-0.033100	-0.011600	6
O	2.873470	1.336220	0.027170	8
C	4.287940	1.475050	0.019440	6
H	0.618820	-1.134730	-0.031270	1
H	0.550770	0.438430	-0.861510	1
H	0.564680	0.383540	0.897260	1
H	2.866070	-0.503520	-0.922160	1
H	2.880590	-0.558170	0.862240	1
H	4.529930	2.540750	0.049970	1
H	4.710040	1.046840	-0.894990	1
H	4.725170	0.991970	0.898700	1
Es	2.479948	-0.032887	-0.011592	99
Es	4.455147	2.200131	0.040247	99
Es	2.775703	1.456387	-0.237356	99
Es	2.873712	1.335939	0.027200	99
Es	0.697462	0.223229	0.612189	99
Es	2.762033	-0.399627	0.591365	99
Es	2.759906	0.807285	0.012237	99
Es	0.965568	-0.097916	-0.001571	99
Es	4.287724	1.475022	0.019442	99
Es	0.688015	0.260746	-0.589441	99
Es	2.751984	-0.361775	-0.640289	99
Es	1.719779	-0.067578	-0.006555	99
Es	4.592471	1.135585	0.621935	99
Es	0.737728	-0.808064	-0.021978	99
Es	2.779295	1.441237	0.299718	99
Es	3.418600	1.355274	0.023242	99
Es	4.582060	1.173372	-0.607765	99
