25
Properties=species:S:1:pos:R:3:Z:I:1 energy=-208.0410842097282 field_type=dipole dipole="0.000000 0.000000 0.000000" charge=0
C	0.989840	-0.002050	0.001680	6
N	2.427020	0.040740	0.003810	7
C	3.145060	1.197300	-0.070310	6
O	4.357260	1.238820	0.084400	8
H	0.670160	-0.955810	-0.424090	1
H	0.583330	0.827490	-0.582820	1
H	0.640090	0.075680	1.034330	1
H	2.959790	-0.778240	0.273060	1
H	2.537960	2.089460	-0.294760	1
Es	0.722320	0.562621	-0.394100	99
Es	0.990035	-0.002035	0.001671	99
Es	4.473471	1.522568	0.050280	99
Es	3.144943	1.197183	-0.070315	99
Es	1.813963	0.027977	0.013453	99
Es	2.427006	0.040896	0.004142	99
Es	0.742818	0.051433	0.704197	99
Es	3.917837	1.271926	0.276395	99
Es	3.979590	1.187719	-0.210638	99
Es	2.715512	1.799814	-0.223361	99
Es	4.356932	1.238803	0.084361	99
Es	0.772160	-0.646992	-0.286146	99
Es	2.654470	0.496901	0.168962	99
Es	2.572416	0.192964	-0.290857	99
Es	2.724837	-0.444490	0.179925	99
Es	4.463943	0.952601	0.147200	99
