28
Properties=species:S:1:pos:R:3:Z:I:1 energy=-209.18764152476894 field_type=dipole dipole="0.000000 0.000000 0.000000" charge=0
N	0.973070	0.001140	0.037600	7
C	2.431640	0.013190	-0.007700	6
C	3.001140	1.434690	-0.007900	6
O	4.424650	1.396430	-0.028020	8
H	0.644060	-0.963060	-0.004230	1
H	0.603360	0.458280	-0.796280	1
H	2.780900	-0.522240	-0.898070	1
H	2.825560	-0.536810	0.854510	1
H	2.682080	1.993020	0.878690	1
H	2.668170	1.983520	-0.894780	1
H	4.711920	1.029010	0.825810	1
Es	2.703463	-0.359546	0.589735	99
Es	3.001364	1.434641	-0.007911	99
Es	2.704018	0.721734	-0.005856	99
Es	2.678581	-0.350420	-0.624473	99
Es	0.973280	0.000890	0.037124	99
Es	2.775165	1.811571	0.604649	99
Es	0.850837	0.162842	0.327718	99
Es	4.558192	1.193418	0.438989	99
Es	4.519801	1.685740	-0.030842	99
Es	4.504218	1.191944	-0.243681	99
Es	0.765959	0.266554	-0.481076	99
Es	1.604624	-0.002004	-0.003114	99
Es	3.885440	1.399553	0.000837	99
Es	0.788713	-0.584847	-0.004325	99
Es	2.431492	0.013211	-0.007682	99
Es	4.424452	1.396339	-0.027755	99
Es	2.768595	1.804549	-0.618167	99
