28
Properties=species:S:1:pos:R:3:Z:I:1 energy=-156.16489103701147 field_type=dipole dipole="0.000000 0.000000 0.000000" charge=0
C	0.992170	-0.018990	-0.016140	6
C	2.492490	0.026850	-0.001750	6
C	3.209730	-1.292210	-0.006910	6
C	3.171210	1.184890	0.018680	6
H	0.550030	0.981220	-0.013270	1
H	0.621160	-0.550620	0.867020	1
H	0.637600	-0.539610	-0.911200	1
H	2.506060	-2.128150	0.055510	1
H	3.887840	-1.368230	0.849830	1
H	3.786230	-1.411410	-0.929460	1
H	2.661800	2.143200	0.021990	1
H	4.255970	1.203060	0.027230	1
Es	2.845042	-0.638800	-0.003706	99
Es	2.828055	1.840183	0.020762	99
Es	2.840318	0.633197	0.337407	99
Es	3.667244	-1.336123	0.569654	99
Es	3.596928	-1.364922	-0.628682	99
Es	3.171264	1.184971	0.018674	99
Es	2.492410	0.026710	-0.001753	99
Es	2.847636	0.639240	-0.318702	99
Es	2.725741	-1.858494	0.035426	99
Es	0.694973	0.662894	-0.014366	99
Es	0.992200	-0.018999	-0.016140	99
Es	0.751688	-0.383235	0.581269	99
Es	3.912175	1.200841	0.025283	99
Es	0.762658	-0.375763	-0.621669	99
Es	1.740181	0.004853	-0.009524	99
Es	3.209710	-1.292179	-0.006910	99
