33
Properties=species:S:1:pos:R:3:Z:I:1 energy=-231.07046533164458 field_type=dipole dipole="0.000000 0.000000 0.000000" charge=0
C	0.957300	-0.029640	0.005170	6
C	2.476990	-0.008370	0.004550	6
C	3.016010	1.416860	0.008580	6
C	4.525020	1.466820	0.007160	6
O	5.257140	0.483700	-0.004360	8
H	0.592380	-1.061580	0.003720	1
H	0.557620	0.473180	-0.881360	1
H	0.558240	0.470490	0.893480	1
H	2.846080	-0.545950	-0.877140	1
H	2.846940	-0.550900	0.882860	1
H	2.669730	1.954490	0.897980	1
H	2.667720	1.960900	-0.876110	1
H	4.955670	2.483050	0.016000	1
Es	5.256938	0.483952	-0.004356	99
Es	3.016064	1.416870	0.008580	99
Es	2.798545	1.783721	0.608699	99
Es	4.991010	0.838949	0.252461	99
Es	0.709784	-0.732592	0.004204	99
Es	4.525004	1.466822	0.007165	99
Es	1.711936	-0.008793	0.004967	99
Es	2.723986	-0.365498	-0.600025	99
Es	0.687993	0.316306	0.613461	99
Es	2.754757	0.719314	0.006554	99
Es	2.724665	-0.368912	0.606905	99
Es	4.989241	0.843052	-0.252433	99
Es	2.476962	-0.008296	0.004550	99
Es	5.096228	0.217456	-0.006259	99
Es	2.797522	1.787927	-0.588267	99
Es	0.957320	-0.029634	0.005170	99
Es	4.809675	2.172998	0.013434	99
Es	5.560818	0.558447	-0.005043	99
Es	3.768950	1.439367	0.008139	99
Es	0.687582	0.318108	-0.601873	99
