36
Properties=species:S:1:pos:R:3:Z:I:1 energy=-232.23385624604626 field_type=dipole dipole="0.000000 0.000000 0.000000" charge=0
C	1.132260	-0.123890	-0.158330	6
C	2.631330	-0.145040	0.067960	6
O	3.152820	1.145590	-0.238030	8
C	4.562870	1.204840	-0.042790	6
C	5.035850	2.603270	-0.386270	6
H	0.690230	-1.097950	0.067970	1
H	0.903550	0.135990	-1.196460	1
H	0.658750	0.634820	0.472440	1
H	3.095810	-0.895580	-0.582060	1
H	2.846580	-0.393130	1.113690	1
H	5.057840	0.474630	-0.691990	1
H	4.802020	0.977950	1.001700	1
H	4.790840	2.849280	-1.425390	1
H	6.117000	2.695270	-0.247930	1
H	4.534650	3.345990	0.243050	1
Es	2.956445	-0.667537	-0.378847	99
Es	4.874070	2.764416	-1.093421	99
Es	4.562658	1.204863	-0.042828	99
Es	3.153003	1.145346	-0.237960	99
Es	1.132287	-0.123907	-0.158320	99
Es	0.813335	0.386971	0.275702	99
Es	2.784405	-0.320567	0.791862	99
Es	0.838393	-0.791703	-0.001858	99
Es	4.699124	3.103673	0.046796	99
Es	3.107816	1.185183	-0.539892	99
Es	3.688061	1.134471	-0.154355	99
Es	3.032282	1.335240	-0.028581	99
Es	2.631380	-0.144834	0.067905	99
Es	2.987083	0.644625	-0.114132	99
Es	5.774046	2.657692	-0.289233	99
Es	1.878419	-0.136644	-0.045131	99
Es	4.730599	1.042436	0.680391	99
Es	4.802714	1.906603	-0.214800	99
Es	5.035860	2.603241	-0.386260	99
Es	0.980567	0.046113	-0.864822	99
Es	4.907260	0.695020	-0.488844	99
