30
Properties=species:S:1:pos:R:3:Z:I:1 energy=-229.85166100399874 field_type=dipole dipole="0.000000 0.000000 0.000000" charge=0
C	1.216800	-0.468730	-0.419350	6
C	2.503090	-0.354230	-0.082990	6
O	3.164600	0.843980	-0.157610	8
C	4.481800	0.906890	0.216830	6
C	5.178130	2.043260	0.148320	6
H	0.706090	-1.422780	-0.356550	1
H	0.653600	0.392490	-0.763400	1
H	3.088770	-1.194380	0.262250	1
H	4.915220	-0.017970	0.570330	1
H	4.716350	2.957170	-0.210340	1
H	6.219110	2.079030	0.448690	1
Es	4.481474	0.906754	0.216766	99
Es	1.745815	-0.358710	0.056074	99
Es	5.178170	2.043311	0.148319	99
Es	2.956380	0.368542	-0.113026	99
Es	4.762588	1.567565	0.494099	99
Es	4.764150	0.269709	0.455152	99
Es	2.914036	-0.917722	0.153983	99
Es	1.921056	-0.493200	-0.566855	99
Es	4.872301	2.658438	-0.091674	99
Es	5.877490	2.065326	0.350695	99
Es	3.035735	1.003005	0.031292	99
Es	2.503359	-0.353990	-0.082971	99
Es	0.835438	0.106456	-0.650604	99
Es	3.164774	0.843665	-0.157430	99
Es	0.875323	-1.110690	-0.376423	99
Es	4.946384	1.418229	-0.123274	99
Es	1.216747	-0.468742	-0.419366	99
Es	3.662798	0.818146	-0.007420	99
Es	3.165568	0.905515	-0.430306	99
