30
Properties=species:S:1:pos:R:3:Z:I:1 energy=-229.838907280025 field_type=dipole dipole="0.000000 0.000000 0.000000" charge=0
C	1.000610	-0.058770	-0.000780	6
C	2.520000	0.000000	0.000000	6
O	3.002370	-0.678520	-1.155930	8
C	3.002020	1.361170	0.000000	6
C	3.399300	2.483070	0.000000	6
H	0.578000	0.430960	0.883720	1
H	0.657220	-1.099660	-0.020740	1
H	0.583260	0.425910	-0.892340	1
H	2.899500	-0.539420	0.873880	1
H	2.796810	-0.114010	-1.920440	1
H	3.760760	3.485720	0.001640	1
Es	0.729141	0.275280	-0.609858	99
Es	2.779677	-0.347663	0.589977	99
Es	2.878864	-0.362182	-1.553626	99
Es	3.002249	-0.678198	-1.155938	99
Es	3.054438	1.971502	0.322972	99
Es	1.000641	-0.058756	-0.000777	99
Es	0.777393	-0.764482	-0.009019	99
Es	0.721315	0.275237	0.601468	99
Es	3.001938	1.360941	0.000010	99
Es	2.816268	-0.389373	-0.727308	99
Es	3.003301	1.996847	-0.299456	99
Es	3.633884	3.137504	0.000553	99
Es	2.520083	0.000027	-0.000207	99
Es	2.826949	-0.929512	-1.176713	99
Es	1.762891	-0.004959	0.004543	99
Es	2.769435	0.715301	0.002148	99
Es	3.307729	-0.687395	-1.134867	99
Es	3.399383	2.483320	-0.000008	99
Es	3.539214	1.816073	-0.033267	99
