33
Properties=species:S:1:pos:R:3:Z:I:1 energy=-231.0184357459453 field_type=dipole dipole="0.000000 0.000000 0.000000" charge=0
C	2.536310	-0.927740	-0.860520	6
O	2.016310	0.313960	-0.407180	8
C	3.045580	1.225430	0.019840	6
C	3.503900	2.226770	-1.001760	6
C	2.613850	2.660800	0.124880	6
H	1.701830	-1.556630	-1.182660	1
H	3.067030	-1.435150	-0.049040	1
H	3.208670	-0.772290	-1.709920	1
H	3.763530	0.880200	0.758190	1
H	3.073640	2.175430	-1.995180	1
H	4.541660	2.534350	-0.978870	1
H	3.045690	3.261690	0.916470	1
H	1.580110	2.895650	-0.101750	1
Es	3.211282	2.187509	-1.668490	99
Es	4.209433	2.437254	-0.981073	99
Es	2.249751	-0.146161	-0.575099	99
Es	3.503817	2.226749	-1.001609	99
Es	2.913365	3.065106	0.661280	99
Es	1.892173	0.450840	-0.650965	99
Es	1.968579	-1.355855	-1.079506	99
Es	2.613955	2.660685	0.124799	99
Es	1.853377	0.247954	-0.155922	99
Es	3.045397	1.225447	0.019697	99
Es	2.731995	1.907510	0.232607	99
Es	3.064139	2.619292	-0.502722	99
Es	2.536233	-0.927544	-0.860445	99
Es	3.004272	-0.824548	-1.442564	99
Es	2.908773	-1.277528	-0.304286	99
Es	1.920909	2.815561	-0.031110	99
Es	3.535826	0.978474	0.517594	99
Es	3.390796	1.590658	-0.589624	99
Es	2.016671	0.313876	-0.407229	99
Es	2.437667	0.634704	-0.250576	99
