27
Properties=species:S:1:pos:R:3:Z:I:1 energy=-228.6663698489967 field_type=dipole dipole="0.000000 0.000000 0.000000" charge=0
O	1.295270	-0.340830	0.730610	8
C	2.244760	-0.057240	0.004230	6
C	3.003390	1.239380	0.096860	6
C	4.450100	1.014880	-0.013470	6
C	5.635690	0.839960	-0.103270	6
H	2.527830	-0.723070	-0.829540	1
H	2.761170	1.724970	1.047460	1
H	2.658090	1.884210	-0.717630	1
H	6.688169	0.689460	-0.178380	1
Es	4.449803	1.014918	-0.013450	99
Es	4.996360	0.758741	-0.376812	99
Es	3.003516	1.239311	0.096814	99
Es	3.746985	1.114488	0.034518	99
Es	5.043877	0.732549	0.244924	99
Es	5.635915	0.839919	-0.103287	99
Es	2.858471	1.556255	0.721193	99
Es	1.244819	-0.121096	0.946642	99
Es	1.295505	-0.340750	0.730439	99
Es	6.319555	0.741486	-0.152593	99
Es	1.804062	-0.355145	0.622981	99
Es	2.782278	1.644204	-0.446749	99
Es	2.453077	-0.501833	-0.565668	99
Es	1.164619	-0.612859	0.657407	99
Es	5.093941	1.278623	-0.048876	99
Es	2.244789	-0.057194	0.004248	99
Es	1.486982	-0.117674	0.307521	99
Es	2.656777	0.593994	0.054123	99
