33
Properties=species:S:1:pos:R:3:Z:I:1 energy=-231.04755406625924 field_type=dipole dipole="0.000000 0.000000 0.000000" charge=0
O	2.735140	-0.958800	-1.195250	8
C	2.402450	-0.280510	0.012350	6
C	3.019840	1.117540	0.022530	6
C	4.518850	1.071340	0.149790	6
C	5.212240	1.623390	1.153550	6
H	2.368900	-1.856770	-1.125340	1
H	2.752370	-0.876950	0.861630	1
H	1.311600	-0.204200	0.063270	1
H	2.586170	1.693890	0.848090	1
H	2.774340	1.637460	-0.910960	1
H	5.053040	0.554540	-0.646410	1
H	4.723030	2.152710	1.964800	1
H	6.295660	1.556060	1.178740	1
Es	3.019870	1.117498	0.022542	99
Es	4.894287	1.633155	0.498250	99
Es	5.212293	1.623432	1.153632	99
Es	2.601079	-0.721561	-0.730774	99
Es	2.581034	-0.816378	-1.419155	99
Es	4.518756	1.071302	0.149704	99
Es	1.646867	-0.224236	0.055967	99
Es	2.725865	0.418127	0.016128	99
Es	4.850811	1.074575	0.836198	99
Es	2.855778	1.463814	-0.606843	99
Es	3.770999	1.090465	0.092313	99
Es	2.402525	-0.280587	0.012144	99
Es	2.529903	-1.438933	-1.138973	99
Es	5.948076	1.581891	1.178682	99
Es	4.874145	0.721128	-0.389948	99
Es	2.642233	-0.687568	0.602849	99
Es	4.882524	1.984440	1.708308	99
Es	2.724418	1.503261	0.590371	99
Es	3.040615	-0.988795	-1.197685	99
Es	2.734929	-0.958924	-1.195002	99
