30
Properties=species:S:1:pos:R:3:Z:I:1 energy=-229.84079844647877 field_type=dipole dipole="0.000000 0.000000 0.000000" charge=0
O	0.937610	0.069250	0.015170	8
C	2.361040	0.016740	0.015860	6
C	2.927390	1.432820	0.000000	6
C	4.371390	1.432820	0.000000	6
C	5.561550	1.432820	0.000000	6
H	0.620650	-0.850290	0.025420	1
H	2.686230	-0.545160	-0.866970	1
H	2.686160	-0.525610	0.910840	1
H	2.542610	1.984250	0.866360	1
H	2.542630	1.964930	-0.878380	1
H	6.627440	1.437680	-0.000050	1
Es	0.855804	0.187946	-0.255802	99
Es	2.691265	1.782405	-0.591147	99
Es	5.561819	1.432820	-0.000002	99
Es	2.691544	1.795281	0.583356	99
Es	2.664737	0.734791	0.007873	99
Es	1.476232	0.029270	0.015799	99
Es	2.360818	0.016815	0.015859	99
Es	2.592377	-0.353938	0.631475	99
Es	4.973367	1.784260	-0.052999	99
Es	0.787837	-0.433099	0.020884	99
Es	0.937811	0.068968	0.015182	99
Es	0.855152	0.194824	0.283131	99
Es	4.980386	1.298990	0.334994	99
Es	6.257956	1.435412	-0.000105	99
Es	3.675078	1.426286	0.000033	99
Es	4.371117	1.432818	-0.000000	99
Es	4.978197	1.206372	-0.281904	99
Es	2.592450	-0.367410	-0.591445	99
Es	2.927510	1.432781	0.000001	99
