32
Properties=species:S:1:pos:R:3:Z:I:1 energy=-247.01362724743188 field_type=dipole dipole="0.000000 0.000000 0.000000" charge=0
C	0.987600	-0.087330	-0.051920	6
C	2.494730	0.031980	0.066440	6
C	2.895340	1.479670	0.064850	6
N	3.414330	2.025210	1.115960	7
O	3.682600	3.370530	0.839660	8
H	0.686860	-1.139340	-0.063510	1
H	0.626360	0.383300	-0.972550	1
H	0.488330	0.404250	0.789870	1
H	2.978020	-0.454380	-0.786720	1
H	2.843120	-0.450160	0.985350	1
H	2.718250	2.051460	-0.863710	1
H	4.064500	3.683950	1.681000	1
Es	3.887394	3.534193	1.292380	99
Es	0.747952	0.235836	-0.682129	99
Es	3.564594	2.784985	0.960610	99
Es	0.987645	-0.087325	-0.051927	99
Es	3.501851	1.894144	1.461526	99
Es	0.787962	-0.803270	-0.060949	99
Es	2.773261	1.861486	-0.561348	99
Es	2.895332	1.479644	0.064848	99
Es	3.901120	3.362904	0.623189	99
Es	3.454232	1.714567	0.561754	99
Es	3.682646	3.370387	0.839967	99
Es	1.748810	-0.015100	0.004665	99
Es	2.701680	0.767550	0.070254	99
Es	2.494710	0.032055	0.066418	99
Es	3.405817	3.498920	0.798354	99
Es	2.823381	-0.288417	-0.515491	99
Es	2.919362	1.856913	0.751879	99
Es	3.414213	2.025498	1.115421	99
Es	0.653496	0.247174	0.520818	99
Es	2.728631	-0.292061	0.686647	99
