32
Properties=species:S:1:pos:R:3:Z:I:1 energy=-247.02232234899103 field_type=dipole dipole="0.000000 0.000000 0.000000" charge=0
N	1.088020	0.173820	0.185600	7
C	2.479220	-0.058800	-0.185750	6
C	3.223300	1.230640	-0.100050	6
C	3.829560	1.696480	1.196300	6
O	4.626440	1.095290	0.164720	8
H	0.587510	-0.713950	0.156260	1
H	0.645130	0.765820	-0.516020	1
H	2.531760	-0.454400	-1.205130	1
H	2.909670	-0.809370	0.486070	1
H	2.918470	1.964000	-0.833940	1
H	3.642010	1.118810	2.092910	1
H	3.936720	2.761980	1.357100	1
Es	3.306840	1.532344	0.627085	99
Es	4.112168	1.108692	-0.039262	99
Es	2.771764	-0.565009	0.274733	99
Es	0.793346	-0.366171	0.146809	99
Es	3.913565	2.420831	1.306520	99
Es	3.829714	1.696351	1.196059	99
Es	2.524155	-0.325323	-0.891953	99
Es	3.714275	1.301313	1.806385	99
Es	2.855386	0.586726	-0.139362	99
Es	4.626126	1.095450	0.164809	99
Es	2.479079	-0.058745	-0.185722	99
Es	0.830002	0.522226	-0.256349	99
Es	3.018077	1.731860	-0.606651	99
Es	4.785909	1.316519	0.018363	99
Es	1.062934	0.320619	0.505782	99
Es	4.414331	1.334204	0.622517	99
Es	1.088058	0.173572	0.185048	99
Es	4.679372	0.800282	0.238765	99
Es	1.685061	0.066150	-0.000687	99
Es	3.223616	1.230611	-0.099980	99
