32
Properties=species:S:1:pos:R:3:Z:I:1 energy=-247.02597841436864 field_type=dipole dipole="0.000000 0.000000 0.000000" charge=0
O	3.165150	-1.000770	-0.545310	8
C	2.365930	0.023170	0.033240	6
C	3.170610	1.278220	0.092450	6
C	3.229580	2.199250	-1.096530	6
N	2.497800	2.577220	0.111450	7
H	2.602320	-1.791090	-0.599170	1
H	2.077720	-0.288180	1.042010	1
H	1.460530	0.142340	-0.571590	1
H	4.054230	1.174320	0.710530	1
H	2.627660	1.965700	-1.965820	1
H	4.153910	2.726630	-1.295180	1
H	3.034030	3.252220	0.660160	1
Es	3.170487	1.278441	0.092399	99
Es	2.755590	0.661589	0.061364	99
Es	2.839190	2.971710	0.435800	99
Es	2.847061	-0.625679	-0.323233	99
Es	3.858923	2.560997	-1.230334	99
Es	3.164836	-1.000789	-0.545174	99
Es	3.323171	1.588280	-0.616993	99
Es	1.741964	0.111811	-0.380778	99
Es	2.755171	1.988204	0.245383	99
Es	3.389096	-1.063202	-0.343418	99
Es	3.229478	2.199278	-1.096293	99
Es	3.772891	1.213259	0.514404	99
Es	2.498415	2.577111	0.111409	99
Es	2.819996	2.042316	-1.686426	99
Es	2.366085	0.023017	0.033145	99
Es	2.140015	2.589957	0.106374	99
Es	2.794948	2.543949	-0.467162	99
Es	2.846189	-1.417210	-0.564872	99
Es	3.220300	-0.913758	-0.833990	99
Es	2.163986	-0.186717	0.730999	99
