29
Properties=species:S:1:pos:R:3:Z:I:1 energy=-245.85456213379655 field_type=dipole dipole="0.000000 0.000000 0.000000" charge=0
O	2.210630	-1.005810	-0.460880	8
C	2.043510	0.151810	-0.092450	6
C	3.172540	1.106050	-0.078480	6
C	3.337410	2.085440	-1.208820	6
N	2.797450	2.517330	0.076860	7
H	1.062350	0.521510	0.248680	1
H	4.060330	0.778560	0.448620	1
H	2.637460	2.047610	-2.035020	1
H	4.335550	2.422090	-1.459780	1
H	3.506160	3.020090	0.615710	1
Es	1.950759	-1.180229	-0.450006	99
Es	2.093191	-0.515434	-0.562208	99
Es	1.381347	0.413615	0.137103	99
Es	3.237590	2.806777	0.390820	99
Es	2.448952	2.593303	0.105367	99
Es	3.034158	2.467708	-0.526502	99
Es	2.507705	-1.057912	-0.543561	99
Es	2.798021	2.517105	0.076746	99
Es	4.014967	2.308476	-1.375556	99
Es	2.603695	0.647729	-0.077360	99
Es	2.202335	-0.648009	-0.088645	99
Es	3.310278	1.402499	-0.759827	99
Es	2.942495	1.880131	0.145869	99
Es	2.210589	-1.005516	-0.460784	99
Es	3.172461	1.106301	-0.078509	99
Es	2.863751	2.060101	-1.765180	99
Es	3.763040	0.881317	0.276739	99
Es	2.043540	0.151815	-0.092463	99
Es	3.337333	2.085424	-1.208565	99
