31
Properties=species:S:1:pos:R:3:Z:I:1 energy=-551.379706696625 field_type=dipole dipole="0.000000 0.000000 0.000000" charge=0
S	-0.517510	-1.270120	-0.002790	16
C	-1.302910	0.250960	-0.019090	6
C	-0.406050	1.296210	-0.035950	6
C	0.944970	0.841430	-0.035460	6
C	1.027070	-0.533650	-0.018250	6
H	-2.383010	0.303660	-0.015520	1
H	-0.704820	2.337390	-0.048050	1
H	1.812950	1.489750	-0.047140	1
H	1.919190	-1.144580	-0.013970	1
Es	-0.496039	-1.340409	0.092393	99
Es	0.283749	1.111380	-0.036023	99
Es	1.615528	-0.949761	-0.015197	99
Es	-0.517986	-1.269736	-0.003719	99
Es	-0.621831	-1.296220	-0.052827	99
Es	-0.952798	-0.494555	-0.008414	99
Es	0.297899	-0.915523	-0.007894	99
Es	-0.561166	-1.401296	-0.423327	99
Es	-0.433804	-1.283079	-0.079655	99
Es	-1.302898	0.250758	-0.019089	99
Es	-2.023302	0.275344	-0.016522	99
Es	0.940914	0.159304	-0.337028	99
Es	0.944971	0.841452	-0.035461	99
Es	-0.603050	1.998133	-0.044123	99
Es	-0.813226	0.758380	0.282464	99
Es	1.526546	1.281253	-0.043319	99
Es	-0.517152	-1.157916	0.029809	99
Es	1.026939	-0.533804	-0.018250	99
Es	-0.815246	0.750421	-0.337654	99
Es	-0.406037	1.296230	-0.035951	99
Es	-0.567546	-1.418845	0.416795	99
Es	0.943793	0.167017	0.283048	99
