26
Properties=species:S:1:pos:R:3:Z:I:1 energy=-191.59839069753946 field_type=dipole dipole="0.000000 0.000000 0.000000" charge=0
C	1.000000	0.000000	0.000000	6
C	2.190160	0.000000	0.000000	6
C	3.634160	0.000000	0.000000	6
C	4.116180	1.361170	0.000000	6
C	4.513460	2.483070	0.000000	6
H	-0.065100	0.005800	0.000000	1
H	4.011960	-0.534570	-0.878530	1
H	4.011960	-0.534570	0.878530	1
H	4.863510	3.488950	0.000000	1
Es	4.125392	1.995499	0.294349	99
Es	0.304932	0.003131	-0.000032	99
Es	4.742481	3.139279	-0.000004	99
Es	4.116075	1.360874	0.000000	99
Es	4.513540	2.483308	0.000002	99
Es	0.999746	-0.000001	-0.000002	99
Es	2.190467	-0.000000	-0.000001	99
Es	4.175430	1.978141	-0.325328	99
Es	2.898773	0.007062	-0.000024	99
Es	1.589250	-0.362349	-0.036440	99
Es	3.634080	0.000113	-0.000000	99
Es	3.872484	-0.337289	-0.580847	99
Es	3.873066	0.695606	0.000030	99
Es	3.872525	-0.337270	0.580899	99
Es	1.588719	0.144753	0.327022	99
Es	1.589192	0.208360	-0.290526	99
Es	4.658352	1.806704	0.030905	99
