35
Properties=species:S:1:pos:R:3:Z:I:1 energy=-195.22869635565107 field_type=dipole dipole="0.000000 0.000000 0.000000" charge=0
C	-0.780440	-0.988640	-0.189520	6
C	-1.173920	0.406540	0.263320	6
C	-0.003160	1.254700	-0.203710	6
C	1.220020	0.386280	0.066850	6
C	0.720950	-1.058570	0.068710	6
H	-1.329920	-1.771370	0.341890	1
H	-0.978500	-1.105340	-1.261580	1
H	-1.259330	0.443520	1.355320	1
H	-2.123580	0.732780	-0.169000	1
H	-0.088620	1.452740	-1.279520	1
H	0.048300	2.217850	0.313100	1
H	1.998430	0.548340	-0.685010	1
H	1.651480	0.630470	1.044180	1
H	1.226960	-1.666160	-0.688520	1
H	0.919500	-1.518590	1.044240	1
Es	0.033056	1.917148	0.150237	99
Es	1.513559	0.554326	0.740268	99
Es	-0.030198	-1.042396	-0.060954	99
Es	0.855002	-1.372978	0.740788	99
Es	-1.226063	0.429664	1.015755	99
Es	-0.064488	1.384988	-0.945100	99
Es	0.720938	-1.058549	0.068708	99
Es	-0.603542	0.852952	0.033465	99
Es	-1.827409	0.630998	-0.031624	99
Es	-0.915209	-1.062774	-0.928438	99
Es	1.068175	-1.475859	-0.452004	99
Es	-0.003157	1.254680	-0.203706	99
Es	-1.002648	-0.299275	0.040838	99
Es	0.984426	-0.341045	0.060753	99
Es	1.754474	0.497799	-0.449952	99
Es	-1.173902	0.406534	0.263315	99
Es	1.219997	0.386270	0.066847	99
Es	0.619929	0.835901	-0.069624	99
Es	-1.157771	-1.527476	0.174495	99
Es	-0.780424	-0.988626	-0.189515	99
