29
Properties=species:S:1:pos:R:3:Z:I:1 energy=-192.81319932427212 field_type=dipole dipole="0.000000 0.000000 0.000000" charge=0
C	0.976360	0.005020	-0.006680	6
C	2.477240	-0.006490	-0.002590	6
C	3.162510	-1.159750	0.005270	6
C	3.192770	1.227650	-0.004090	6
C	3.792280	2.266840	-0.004040	6
H	0.582260	1.026830	0.020090	1
H	0.583330	-0.523120	0.868610	1
H	0.589940	-0.475470	-0.911790	1
H	2.652550	-2.117630	0.007210	1
H	4.248370	-1.177130	0.009060	1
H	4.326250	3.190080	-0.004010	1
Es	0.715037	0.695544	0.011420	99
Es	0.722531	-0.356375	0.581898	99
Es	3.337738	1.827230	-0.314425	99
Es	2.477210	-0.006294	-0.002590	99
Es	2.838604	0.637352	-0.003914	99
Es	1.740918	0.018876	-0.004532	99
Es	3.162546	-1.159827	0.005269	99
Es	0.976425	0.005017	-0.006680	99
Es	2.816600	-1.809927	0.006729	99
Es	3.893508	-1.178062	0.007716	99
Es	3.192640	1.227431	-0.004092	99
Es	3.792395	2.267039	-0.004050	99
Es	2.835047	-0.560846	-0.319780	99
Es	3.810423	1.577752	0.000738	99
Es	4.140186	2.868698	-0.004019	99
Es	0.727224	-0.323586	-0.615581	99
Es	2.833089	-0.557865	0.322530	99
Es	3.330429	1.832234	0.301403	99
