28
Properties=species:S:1:pos:R:3:Z:I:1 energy=-208.88606122989344 field_type=dipole dipole="0.000000 0.000000 0.000000" charge=0
N	-1.132550	-0.000110	0.000540	7
C	-0.339850	1.118170	0.000220	6
C	0.974360	0.707850	-0.000140	6
C	0.974390	-0.708020	-0.000040	6
C	-0.339970	-1.118460	0.000380	6
H	-2.144610	-0.000140	0.000840	1
H	-0.778180	2.106730	0.000280	1
H	1.840060	1.357210	-0.000440	1
H	1.840150	-1.357610	-0.000240	1
H	-0.778210	-2.107140	0.000590	1
Es	-0.643353	1.783989	0.000727	99
Es	-0.643417	-1.784343	0.000959	99
Es	-0.835180	-0.486778	0.087600	99
Es	-0.962515	-0.001007	-0.180979	99
Es	0.344990	-0.884999	0.308116	99
Es	-0.835087	0.487039	0.085596	99
Es	1.032601	-0.000038	0.003569	99
Es	1.563241	1.144698	-0.000090	99
Es	1.563311	-1.144968	0.000013	99
Es	0.974421	-0.708036	-0.000039	99
Es	0.974389	0.707866	-0.000127	99
Es	-0.340054	1.118075	0.000223	99
Es	-1.733238	0.000011	0.016026	99
Es	0.344785	0.885120	0.308061	99
Es	0.347438	0.876708	-0.313812	99
Es	-0.340170	-1.118366	0.000387	99
Es	0.347260	-0.877108	-0.313606	99
Es	-1.132412	-0.000115	0.000981	99
