34
Properties=species:S:1:pos:R:3:Z:I:1 energy=-211.1972879384039 field_type=dipole dipole="0.000000 0.000000 0.000000" charge=0
C	0.901680	0.050910	-0.205250	6
C	2.383510	-0.006390	0.063350	6
N	2.756370	-0.039800	1.483840	7
C	3.250340	-0.762800	-0.912530	6
C	3.294270	0.738660	-0.880460	6
H	0.679790	0.083540	-1.277540	1
H	0.464800	0.943640	0.254830	1
H	0.404370	-0.830980	0.212600	1
H	3.767090	-0.085920	1.602310	1
H	2.383860	-0.877780	1.930050	1
H	2.779150	-1.235970	-1.766920	1
H	4.114270	-1.301530	-0.541440	1
H	4.180000	1.217000	-0.478610	1
H	2.850730	1.278700	-1.709580	1
Es	2.756080	-0.567977	-0.379468	99
Es	2.756544	-0.040225	1.483581	99
Es	2.383655	-0.006397	0.063371	99
Es	1.644300	0.019091	-0.073662	99
Es	2.926560	-1.081764	-1.495206	99
Es	0.762002	0.070538	-0.937149	99
Es	3.368712	-0.085167	1.533628	99
Es	3.896990	1.056630	-0.601393	99
Es	2.613890	-0.051772	0.860787	99
Es	3.294222	0.738500	-0.880416	99
Es	2.788245	0.541936	-0.342031	99
Es	3.250324	-0.762638	-0.912506	99
Es	0.901708	0.050896	-0.205252	99
Es	2.539062	-0.561654	1.731408	99
Es	2.630419	0.244252	1.647754	99
Es	2.987737	1.101891	-1.442622	99
Es	0.566763	-0.553370	0.082407	99
Es	3.837785	-1.125607	-0.651012	99
Es	3.397499	-0.012990	-1.032831	99
Es	0.607021	0.655688	0.105996	99
