34
Properties=species:S:1:pos:R:3:Z:I:1 energy=-211.19146894579623 field_type=dipole dipole="0.000000 0.000000 0.000000" charge=0
C	1.053810	0.150460	0.115530	6
C	2.533260	-0.040170	-0.177520	6
C	3.276300	1.256930	-0.087450	6
C	3.822680	1.739200	1.231390	6
N	4.709710	1.227000	0.190440	7
H	0.521950	-0.802600	0.032610	1
H	0.601800	0.857420	-0.588330	1
H	0.901250	0.541670	1.127000	1
H	2.651050	-0.449370	-1.187270	1
H	2.944650	-0.780490	0.519060	1
H	2.942680	1.988260	-0.814490	1
H	3.709810	1.110810	2.106200	1
H	3.858380	2.804460	1.421030	1
H	5.189770	1.990810	-0.289230	1
Es	4.116486	1.202571	-0.066802	99
Es	1.053832	0.150460	0.115520	99
Es	3.336920	1.550941	0.652475	99
Es	4.709336	1.227512	0.190411	99
Es	3.276527	1.256943	-0.087349	99
Es	3.048599	1.763738	-0.582304	99
Es	2.612451	-0.314658	-0.870185	99
Es	0.748409	0.635322	-0.368115	99
Es	3.822807	1.739118	1.231178	99
Es	3.847644	2.467253	1.361214	99
Es	0.692537	-0.500245	0.057903	99
Es	2.533226	-0.040131	-0.177514	99
Es	0.952952	0.417275	0.806713	99
Es	4.872104	0.912029	0.237074	99
Es	2.914780	0.607967	-0.125044	99
Es	3.744286	1.312791	1.827217	99
Es	4.981014	1.701501	-0.094750	99
Es	1.791227	0.064340	-0.030928	99
Es	4.434362	1.491320	0.721010	99
Es	2.814251	-0.537902	0.302565	99
