28
Properties=species:S:1:pos:R:3:Z:I:1 energy=-208.7873893656512 field_type=dipole dipole="0.000000 0.000000 0.000000" charge=0
C	0.989480	-0.009530	-0.070330	6
C	2.189930	-0.016690	-0.031260	6
C	3.620100	-0.023800	0.017620	6
C	4.381150	-0.775280	-1.044030	6
N	4.350080	0.680620	-1.035330	7
H	-0.074310	0.003600	-0.113370	1
H	4.062980	0.023500	1.007470	1
H	3.830390	-1.255010	-1.843980	1
H	5.317660	-1.246060	-0.774630	1
H	5.216940	1.069270	-0.663770	1
Es	3.908568	-0.584384	-0.409910	99
Es	4.009976	-1.100227	-1.581460	99
Es	3.983614	0.488021	-0.503138	99
Es	1.576124	0.092690	0.292029	99
Es	4.168973	0.852777	-1.284341	99
Es	5.017126	-1.094921	-0.855040	99
Es	1.578389	-0.364669	-0.127691	99
Es	0.989243	-0.009536	-0.070335	99
Es	0.295583	-0.002103	-0.097320	99
Es	4.871949	0.893278	-0.795089	99
Es	4.463693	0.048739	-1.142963	99
Es	4.350340	0.680243	-1.034872	99
Es	2.190187	-0.016701	-0.031244	99
Es	4.381111	-0.775031	-1.043947	99
Es	1.602382	0.222452	-0.311164	99
Es	3.620126	-0.023724	0.017402	99
Es	3.909044	0.008018	0.684267	99
Es	2.882097	-0.011824	-0.009100	99
