25
Properties=species:S:1:pos:R:3:Z:I:1 energy=-207.6604464757416 field_type=dipole dipole="0.000000 0.000000 0.000000" charge=0
C	1.000000	0.000000	0.000000	6
C	2.190160	0.000000	0.000000	6
C	3.634160	0.000000	0.000000	6
C	4.116180	1.361170	0.000000	6
N	4.500390	2.446160	0.000000	7
H	-0.066190	0.006740	0.000000	1
H	4.012410	-0.533830	-0.878620	1
H	4.012410	-0.533820	0.878630	1
Es	3.634096	0.000158	-0.000001	99
Es	2.905241	0.013079	0.000030	99
Es	2.190500	-0.000000	-0.000002	99
Es	4.618215	1.844030	0.016854	99
Es	4.500243	2.445732	0.000002	99
Es	1.602268	-0.362825	-0.004905	99
Es	4.116048	1.360782	0.000003	99
Es	0.307524	0.003117	0.000064	99
Es	3.874090	-0.327986	0.576407	99
Es	3.874138	-0.328078	-0.576401	99
Es	0.999760	-0.000004	-0.000002	99
Es	3.879726	0.709567	0.000038	99
Es	1.596979	0.180794	-0.308514	99
Es	4.194002	1.995189	-0.275468	99
Es	1.596844	0.173483	0.313333	99
Es	4.623418	2.792577	0.000212	99
Es	4.165166	2.005093	0.258355	99
