34
Properties=species:S:1:pos:R:3:Z:I:1 energy=-211.1820472129089 field_type=dipole dipole="0.000000 0.000000 0.000000" charge=0
C	1.203750	0.296750	0.098780	6
C	2.685520	0.065230	-0.159130	6
N	3.391390	1.349890	-0.170550	7
C	3.995990	1.702870	1.110690	6
C	4.838300	1.208400	-0.037200	6
H	0.663440	-0.654860	0.070060	1
H	0.766320	0.953910	-0.661190	1
H	1.036750	0.749990	1.082090	1
H	2.802950	-0.409470	-1.139810	1
H	3.075120	-0.640130	0.586050	1
H	3.838500	1.050490	1.960680	1
H	4.021400	2.761090	1.341170	1
H	5.432930	1.932460	-0.580850	1
H	5.260580	0.212410	0.019030	1
Es	1.941470	0.183128	-0.024920	99
Es	4.838060	1.208436	-0.037150	99
Es	2.685551	0.065358	-0.159117	99
Es	1.095561	0.604636	0.771583	99
Es	4.036444	1.221100	-0.240291	99
Es	2.769283	-0.259803	-0.831193	99
Es	0.839584	-0.357316	0.080330	99
Es	3.391699	1.349452	-0.170138	99
Es	4.602477	1.477711	0.662651	99
Es	5.119061	0.525833	-0.000464	99
Es	3.995955	1.702789	1.110461	99
Es	1.203771	0.296732	0.098785	99
Es	3.113174	0.782049	-0.137138	99
Es	3.263379	1.609274	-0.375488	99
Es	4.011325	2.421449	1.271993	99
Es	2.963906	-0.416179	0.363306	99
Es	5.245828	1.696815	-0.408761	99
Es	3.882832	1.253359	1.686053	99
Es	0.909452	0.741220	-0.418297	99
Es	3.520754	1.516205	0.454949	99
