34
Properties=species:S:1:pos:R:3:Z:I:1 energy=-211.19491240547805 field_type=dipole dipole="0.000000 0.000000 0.000000" charge=0
N	3.058100	-0.976660	-0.519700	7
C	2.363040	0.097630	0.172080	6
C	3.251450	1.299300	0.180500	6
C	3.385050	2.166130	-1.046570	6
C	2.656160	2.685010	0.161930	6
H	2.477310	-1.813060	-0.504910	1
H	3.908940	-1.211630	-0.011840	1
H	2.132920	-0.203190	1.199180	1
H	1.416460	0.303860	-0.338230	1
H	4.136400	1.150010	0.789550	1
H	2.804870	1.903040	-1.923930	1
H	4.363980	2.573810	-1.270240	1
H	3.140710	3.453070	0.753910	1
H	1.580000	2.791590	0.093400	1
Es	1.714065	0.241538	-0.179929	99
Es	2.202265	-0.103726	0.887612	99
Es	3.562251	-1.118730	-0.190144	99
Es	2.986884	2.591925	-0.530523	99
Es	2.754695	-0.527615	-0.198149	99
Es	2.363122	0.097539	0.172013	99
Es	3.057960	-0.976820	-0.519149	99
Es	2.798246	0.712133	0.170090	99
Es	3.384988	2.166118	-1.046393	99
Es	1.923982	2.749261	0.115795	99
Es	2.656252	2.684882	0.161846	99
Es	2.987680	3.206486	0.564270	99
Es	2.885227	1.970619	0.355767	99
Es	2.986075	1.988124	-1.635902	99
Es	3.251402	1.299454	0.180424	99
Es	3.413623	1.593154	-0.522447	99
Es	2.703454	-1.484069	-0.487948	99
Es	4.049708	2.445629	-1.193404	99
Es	3.134773	-0.888354	-0.851347	99
Es	3.859224	1.199437	0.593940	99
