33
Properties=species:S:1:pos:R:3:Z:I:1 energy=-231.0607745706827 field_type=dipole dipole="0.000000 0.000000 0.000000" charge=0
C	-0.795590	-0.999820	-0.199130	6
C	-1.189030	0.384760	0.247350	6
C	0.004570	1.203670	-0.193450	6
O	1.150540	0.345290	-0.097400	8
C	0.694150	-1.004720	0.068400	6
H	-1.326370	-1.799340	0.324200	1
H	-0.982540	-1.109870	-1.274140	1
H	-1.277750	0.410790	1.339690	1
H	-2.130370	0.735870	-0.182610	1
H	-0.092410	1.514570	-1.239220	1
H	0.156500	2.093690	0.423310	1
H	1.240710	-1.664310	-0.611030	1
H	0.910960	-1.306240	1.098500	1
Es	1.067050	-1.460101	-0.398007	99
Es	-0.073063	1.419352	-0.916376	99
Es	0.004722	1.203522	-0.193425	99
Es	-1.020819	-0.316347	0.025979	99
Es	0.836015	-1.219351	0.781363	99
Es	-0.795578	-0.999801	-0.199121	99
Es	0.699154	0.649444	-0.128855	99
Es	1.290188	0.416562	0.162373	99
Es	0.694189	-1.004509	0.068367	99
Es	-0.056637	-1.025733	-0.066774	99
Es	-1.245344	0.400968	0.995677	99
Es	1.290514	0.359780	-0.366745	99
Es	-0.920991	-1.071194	-0.936145	99
Es	-1.828835	0.627100	-0.048601	99
Es	-0.610631	0.811094	0.029852	99
Es	-1.189010	0.384749	0.247339	99
Es	1.150132	0.345168	-0.097320	99
Es	0.950336	-0.158517	-0.040104	99
Es	0.105993	1.815032	0.230011	99
Es	-1.153749	-1.546160	0.160122	99
