33
Properties=species:S:1:pos:R:3:Z:I:1 energy=-231.0358111093931 field_type=dipole dipole="0.000000 0.000000 0.000000" charge=0
C	1.025520	-0.058570	0.108790	6
C	2.519010	0.125630	-0.054530	6
C	3.200630	1.142210	0.869350	6
C	4.125350	-0.018420	1.227960	6
O	3.253590	-0.965490	0.564000	8
H	0.677730	-0.920380	-0.469770	1
H	0.488360	0.825030	-0.249770	1
H	0.750910	-0.221250	1.156060	1
H	2.810970	0.226060	-1.107610	1
H	2.590500	1.504180	1.702010	1
H	3.681390	1.983820	0.365700	1
H	5.113670	0.004560	0.759190	1
H	4.220900	-0.228810	2.296040	1
Es	3.527882	1.721154	0.526325	99
Es	2.716620	0.201964	-0.780945	99
Es	4.196446	-0.161789	1.962853	99
Es	0.668714	0.548299	-0.137941	99
Es	4.805920	0.005521	0.904761	99
Es	4.125196	-0.018536	1.227850	99
Es	3.408162	-1.134835	0.352392	99
Es	3.607389	-0.629799	0.821752	99
Es	3.713256	0.628132	1.096061	99
Es	0.846645	-0.163226	0.821897	99
Es	1.025528	-0.058554	0.108775	99
Es	1.762104	0.036570	0.025615	99
Es	3.067091	-1.075998	0.782221	99
Es	2.809707	0.710683	0.383153	99
Es	0.793855	-0.642078	-0.286171	99
Es	2.519104	0.125482	-0.054406	99
Es	3.253603	-0.965202	0.564001	99
Es	2.967409	-0.573504	0.309618	99
Es	3.200645	1.142177	0.869343	99
Es	2.780599	1.383062	1.435469	99
