33
Properties=species:S:1:pos:R:3:Z:I:1 energy=-231.03071587972204 field_type=dipole dipole="0.000000 0.000000 0.000000" charge=0
C	0.935170	-0.009590	0.043350	6
C	2.447920	0.021590	0.003810	6
C	3.144120	1.014350	0.941360	6
O	4.007300	-0.029160	1.458570	8
C	3.184140	-1.041170	0.829870	6
H	0.553550	-0.869100	-0.517290	1
H	0.520500	0.896770	-0.408730	1
H	0.556890	-0.079740	1.068150	1
H	2.824000	0.084740	-1.025270	1
H	2.529840	1.445200	1.738420	1
H	3.713340	1.804490	0.443940	1
H	3.780860	-1.750260	0.250110	1
H	2.587500	-1.578970	1.573280	1
Es	3.988413	-0.046536	1.769318	99
Es	3.591430	-1.533997	0.432437	99
Es	2.762881	-1.409253	1.336297	99
Es	3.692441	0.387788	1.282137	99
Es	2.447910	0.021588	0.003852	99
Es	2.704352	0.064875	-0.698322	99
Es	0.679165	-0.596995	-0.338837	99
Es	3.184261	-1.040999	0.829956	99
Es	2.764334	-0.576175	0.373649	99
Es	3.144245	1.014179	0.941426	99
Es	0.935190	-0.009589	0.043341	99
Es	4.265888	-0.015722	1.295232	99
Es	2.741915	0.586452	0.437131	99
Es	2.710758	1.308826	1.484286	99
Es	1.685041	0.005887	0.023788	99
Es	3.532163	1.562611	0.601053	99
Es	0.685509	-0.057401	0.745046	99
Es	0.656505	0.609959	-0.264710	99
Es	3.707729	-0.435452	1.237500	99
Es	4.007024	-0.029141	1.458401	99
