27
Properties=species:S:1:pos:R:3:Z:I:1 energy=-228.62114276291175 field_type=dipole dipole="0.000000 0.000000 0.000000" charge=0
C	0.988540	0.018600	-0.083660	6
C	2.185930	-0.042430	-0.020660	6
C	3.611760	-0.115010	0.057800	6
C	4.381830	-0.801660	-1.037720	6
O	4.274770	0.625480	-0.977280	8
H	-0.073310	0.079180	-0.144240	1
H	4.054810	-0.085200	1.046120	1
H	3.838730	-1.311490	-1.823550	1
H	5.339530	-1.241650	-0.791480	1
Es	1.592812	-0.170811	-0.374854	99
Es	2.186181	-0.042453	-0.020625	99
Es	4.536750	0.741675	-0.862754	99
Es	3.907455	-0.663181	-0.384437	99
Es	4.017453	-1.141488	-1.573222	99
Es	4.381782	-0.801350	-1.037660	99
Es	4.061650	0.715372	-1.176461	99
Es	3.898684	-0.086506	0.722065	99
Es	3.980619	0.427498	-0.531258	99
Es	0.297405	0.056940	-0.122515	99
Es	3.611792	-0.114857	0.057546	99
Es	1.569669	-0.215824	0.246515	99
Es	0.988307	0.018611	-0.083672	99
Es	4.378863	0.090634	-1.094686	99
Es	4.274647	0.625122	-0.977153	99
Es	5.034293	-1.094723	-0.871719	99
Es	2.873945	-0.079095	0.021903	99
Es	1.604296	0.341613	-0.023982	99
