36
Properties=species:S:1:pos:R:3:Z:I:1 energy=-232.2389468689642 field_type=dipole dipole="0.000000 0.000000 0.000000" charge=0
C	0.998070	-0.026560	0.012450	6
C	2.524500	0.012500	-0.022840	6
C	3.049550	-0.759330	-1.235550	6
C	3.021320	1.461030	-0.026240	6
O	4.441710	1.509260	0.040760	8
H	0.616840	0.489690	0.899700	1
H	0.635780	-1.059410	0.045850	1
H	0.567520	0.455220	-0.871670	1
H	2.908580	-0.488280	0.875670	1
H	2.719780	-0.297590	-2.171970	1
H	2.688190	-1.793270	-1.222620	1
H	4.143550	-0.791680	-1.239570	1
H	2.624580	2.014080	0.831440	1
H	2.709540	1.983020	-0.936370	1
H	4.711170	1.052970	0.856360	1
Es	0.710577	0.304554	-0.593157	99
Es	2.805394	1.812079	-0.652140	99
Es	0.998087	-0.026555	0.012453	99
Es	2.736538	1.836425	0.570479	99
Es	3.789790	-0.783374	-1.236431	99
Es	2.792871	-0.325028	0.601905	99
Es	2.524473	0.012503	-0.022865	99
Es	2.788087	-0.369332	-0.635871	99
Es	4.545485	1.338356	-0.190377	99
Es	4.520022	1.804126	0.077204	99
Es	2.818742	-0.439214	-1.872049	99
Es	4.564568	1.257016	0.486805	99
Es	3.021555	1.461011	-0.026225	99
Es	0.740254	0.329120	0.619366	99
Es	4.441494	1.509141	0.040985	99
Es	2.767716	0.735250	-0.026394	99
Es	3.049531	-0.759323	-1.235532	99
Es	2.797021	-1.465079	-1.222036	99
Es	1.753785	-0.003417	-0.006253	99
Es	0.754400	-0.731351	0.034306	99
Es	3.905214	1.477533	0.036272	99
