27
Properties=species:S:1:pos:R:3:Z:I:1 energy=-228.6722515458982 field_type=dipole dipole="0.000000 0.000000 0.000000" charge=0
C	1.000000	0.000000	0.000000	6
C	2.444000	0.000000	0.000000	6
C	3.634160	0.000000	0.000000	6
C	5.076200	0.011590	-0.000000	6
O	5.697400	1.064460	-0.000000	8
H	0.605930	1.020860	0.011680	1
H	0.605910	-0.520540	0.878240	1
H	0.605910	-0.500300	-0.889930	1
H	5.561590	-0.976850	-0.000000	1
Es	2.443725	0.000006	-0.000001	99
Es	6.006602	1.016896	-0.000109	99
Es	1.000130	-0.000004	-0.000000	99
Es	3.634409	-0.000011	-0.000011	99
Es	0.761330	-0.333289	-0.592305	99
Es	5.458418	0.670558	0.251498	99
Es	0.761149	-0.347071	0.584244	99
Es	4.322539	-0.008979	-0.001514	99
Es	5.697271	1.064150	-0.000000	99
Es	3.041593	-0.361796	-0.061652	99
Es	5.076071	0.011578	0.000005	99
Es	3.089136	0.231147	-0.265425	99
Es	3.119020	0.116555	0.328340	99
Es	0.756219	0.679634	0.008002	99
Es	5.513059	1.312568	-0.000217	99
Es	5.394056	-0.661770	-0.000052	99
Es	5.458370	0.670099	-0.251152	99
Es	1.748387	0.000862	0.000381	99
