38
Properties=species:S:1:pos:R:3:Z:I:1 energy=-249.03090496117852 field_type=dipole dipole="0.000000 0.000000 0.000000" charge=0
C	-0.020550	0.849470	-0.062130	6
C	-0.732980	-0.465670	-0.123870	6
C	0.776580	-0.435440	-0.045260	6
C	1.552450	-0.884100	1.186530	6
C	1.162780	-2.080810	2.021850	6
N	2.290910	-2.148730	1.109400	7
H	0.014570	1.453390	-0.962040	1
H	-0.093650	1.422420	0.854890	1
H	-1.179790	-0.763800	-1.065610	1
H	-1.290590	-0.781000	0.749710	1
H	1.291010	-0.661030	-0.981790	1
H	2.082760	-0.087270	1.703360	1
H	0.288390	-2.651570	1.735520	1
H	1.386680	-2.067610	3.080500	1
H	3.177170	-2.073960	1.610290	1
Es	0.776429	-0.435357	-0.045201	99
Es	-0.732828	-0.465575	-0.123861	99
Es	-0.067905	1.233383	0.564253	99
Es	1.147173	-0.663294	0.579644	99
Es	-1.106194	-0.678613	0.472461	99
Es	1.914080	-0.338686	1.542291	99
Es	2.290867	-2.148365	1.109902	99
Es	-0.543267	0.284623	-0.102490	99
Es	1.834682	-2.248223	1.561301	99
Es	2.064234	-1.537341	1.060822	99
Es	-1.034404	-0.665009	-0.765038	99
Es	1.316552	-2.070849	2.746024	99
Es	1.122640	-0.585312	-0.677707	99
Es	0.569070	-2.468822	1.830702	99
Es	-0.020541	0.849291	-0.062129	99
Es	2.265752	-2.345061	0.812618	99
Es	1.162961	-2.080763	2.021704	99
Es	1.552510	-0.884333	1.186514	99
Es	1.176774	-1.360141	1.692543	99
Es	2.814881	-2.091118	1.427735	99
Es	0.026206	-0.647081	-0.079533	99
Es	0.539899	0.309904	-0.032533	99
Es	0.004795	1.256871	-0.674469	99
