38
Properties=species:S:1:pos:R:3:Z:I:1 energy=-249.02232579482148 field_type=dipole dipole="0.000000 0.000000 0.000000" charge=0
C	0.233070	0.777200	-0.209250	6
C	-0.858780	-0.240180	-0.066930	6
C	0.582090	-0.663960	0.058040	6
N	1.101180	-1.013100	1.389780	7
C	0.971400	-2.447470	1.628010	6
C	2.306100	-1.830990	1.308440	6
H	0.438430	1.172220	-1.196790	1
H	0.366370	1.493510	0.593270	1
H	-1.397120	-0.539220	-0.957890	1
H	-1.464020	-0.211780	0.831660	1
H	0.987400	-1.211050	-0.792240	1
H	0.483770	-3.057220	0.877420	1
H	0.773310	-2.732840	2.653710	1
H	3.013140	-1.702680	2.118890	1
H	2.752140	-2.021560	0.341040	1
Es	0.638517	-2.856392	1.112922	99
Es	-0.443435	0.399967	-0.170687	99
Es	0.884911	-0.883478	0.798347	99
Es	0.971498	-2.447261	1.627950	99
Es	2.603708	-1.954846	0.645384	99
Es	0.902593	-1.632061	1.496741	99
Es	2.305861	-1.830910	1.308457	99
Es	-0.200512	-0.635696	0.027147	99
Es	1.736227	-2.343085	1.486465	99
Es	0.862324	-1.047510	-0.519351	99
Es	0.582013	-0.663859	0.058160	99
Es	0.597012	0.106120	-0.081939	99
Es	-0.858613	-0.240142	-0.066941	99
Es	0.370466	1.041017	-0.884133	99
Es	2.789996	-1.742620	1.856464	99
Es	1.101283	-1.013572	1.389323	99
Es	-1.219731	-0.444390	-0.675334	99
Es	0.833842	-2.644530	2.324335	99
Es	1.055885	-0.785714	1.657267	99
Es	-1.263138	-0.221828	0.541035	99
Es	1.703721	-1.253191	1.298749	99
Es	0.233015	0.777025	-0.209237	99
Es	0.321917	1.256076	0.332896	99
