38
Properties=species:S:1:pos:R:3:Z:I:1 energy=-249.06088926829227 field_type=dipole dipole="0.000000 0.000000 0.000000" charge=0
C	0.774480	1.359540	-0.094930	6
C	-0.722140	1.178390	0.188560	6
C	-0.993640	-0.245840	-0.196550	6
N	-0.745830	-1.344580	0.722830	7
C	0.312460	-0.983130	-0.205980	6
C	1.395810	-0.016860	0.172990	6
H	0.912470	1.617970	-1.152350	1
H	1.226240	2.152220	0.507870	1
H	-1.321310	1.881150	-0.398450	1
H	-0.939540	1.343180	1.250070	1
H	-1.688440	-0.393650	-1.010450	1
H	-0.549730	-1.009410	1.667120	1
H	0.535990	-1.649020	-1.026750	1
H	1.661170	-0.124630	1.230940	1
H	2.300480	-0.163040	-0.425140	1
Es	2.011471	-0.120193	-0.236403	99
Es	-1.133173	1.654623	-0.213327	99
Es	-0.984526	-0.822658	0.399315	99
Es	-0.867507	1.286268	0.918885	99
Es	0.312282	-0.983157	-0.205803	99
Es	0.469211	-1.452100	-0.755730	99
Es	-0.919446	-1.651031	0.675293	99
Es	0.866256	1.531679	-0.821901	99
Es	1.086144	1.906416	0.319189	99
Es	-1.482304	-0.350662	-0.741495	99
Es	-0.745522	-1.344033	0.722789	99
Es	1.103331	0.678019	0.049247	99
Es	0.774469	1.359521	-0.094924	99
Es	-0.722119	1.178372	0.188557	99
Es	0.022505	1.287899	0.057196	99
Es	-0.993571	-0.246004	-0.196376	99
Es	0.869446	-0.527738	0.006981	99
Es	-0.615884	-1.121730	1.282377	99
Es	-0.889291	0.464796	0.019918	99
Es	-0.293916	-0.529442	-0.375909	99
Es	1.571373	-0.090296	0.900946	99
Es	-0.179285	-1.277609	0.393430	99
Es	1.395783	-0.016851	0.172986	99
