38
Properties=species:S:1:pos:R:3:Z:I:1 energy=-249.04909031696474 field_type=dipole dipole="0.000000 0.000000 0.000000" charge=0
C	0.931440	-0.008640	0.961760	6
C	0.290840	-1.021570	-0.028830	6
C	0.758080	-0.027150	-1.130120	6
C	0.289350	0.998630	-0.047370	6
N	-1.165760	0.745870	0.066180	7
C	-1.189420	-0.721880	0.094100	6
H	2.026990	-0.007930	1.001890	1
H	0.546830	-0.001280	1.986640	1
H	0.650940	-2.048160	-0.048980	1
H	0.209990	-0.038500	-2.077850	1
H	1.832190	-0.029270	-1.350040	1
H	0.632150	2.030880	-0.088300	1
H	-1.579960	1.110010	0.923880	1
H	-1.765630	-1.121640	-0.745920	1
H	-1.608080	-1.101160	1.032080	1
Es	-1.184054	0.105639	0.098927	99
Es	-0.452747	-0.915256	0.034037	99
Es	0.534405	-0.598792	-0.650052	99
Es	0.378937	-0.036168	-1.781501	99
Es	-1.583090	-1.003527	-0.482177	99
Es	0.632719	-0.588076	0.538006	99
Es	-1.477571	-0.982116	0.742162	99
Es	0.758060	-0.027148	-1.130043	99
Es	0.512000	1.712511	-0.070954	99
Es	0.289246	0.998521	-0.047359	99
Es	0.648306	0.567860	0.535851	99
Es	1.493571	-0.027141	-1.263103	99
Es	0.535308	0.560679	-0.664722	99
Es	-1.165447	0.745641	0.066653	99
Es	0.290867	-1.021484	-0.028836	99
Es	0.658841	-0.002453	1.671740	99
Es	0.931411	-0.008655	0.961710	99
Es	1.680827	-0.010390	0.975876	99
Es	0.524662	-1.733846	-0.041752	99
Es	-0.531802	0.872819	0.045754	99
Es	-1.389117	0.956592	0.602892	99
Es	-1.340612	0.875777	-0.215329	99
Es	-1.189387	-0.721744	0.094108	99
