38
Properties=species:S:1:pos:R:3:Z:I:1 energy=-249.05615236652025 field_type=dipole dipole="0.000000 0.000000 0.000000" charge=0
C	0.802850	1.406180	-0.589790	6
C	-0.330980	0.919260	0.272410	6
C	-1.370630	-0.023220	-0.239280	6
N	-0.759040	-1.350270	-0.029180	7
C	0.693820	-1.192730	-0.229090	6
C	0.963470	0.185620	0.278840	6
H	0.733160	1.273350	-1.663160	1
H	1.314600	2.312480	-0.287800	1
H	-0.622860	1.475560	1.151330	1
H	-2.312860	0.059470	0.312170	1
H	-1.572100	0.137780	-1.304310	1
H	-0.902720	-1.593200	0.950840	1
H	1.244550	-1.954260	0.330220	1
H	0.943770	-1.287090	-1.290870	1
H	1.584910	0.226670	1.161190	1
Es	-2.011250	0.033658	0.142526	99
Es	-0.908035	-1.615358	-0.234099	99
Es	0.693697	-1.192724	-0.229061	99
Es	-1.370562	-0.023322	-0.239250	99
Es	0.963417	0.185759	0.278756	99
Es	1.075435	0.763697	-0.229695	99
Es	-0.831628	-1.472168	0.576123	99
Es	0.109922	1.310885	-0.234439	99
Es	-1.019214	-0.767381	-0.115885	99
Es	-0.125270	-1.273640	-0.111262	99
Es	-0.524867	1.309779	0.868478	99
Es	1.068916	-1.710256	0.158052	99
Es	0.269268	0.470432	0.409485	99
Es	0.863874	-1.252862	-0.958744	99
Es	0.866309	-0.488831	0.003484	99
Es	0.751468	1.308951	-1.317558	99
Es	1.394229	0.223601	0.877285	99
Es	-0.857512	0.487874	-0.004952	99
Es	0.802785	1.406063	-0.589670	99
Es	-0.330817	0.919282	0.272329	99
Es	-1.504052	0.088406	-0.970988	99
Es	-0.758779	-1.349814	-0.028800	99
Es	1.149095	2.019427	-0.381248	99
