41
Properties=species:S:1:pos:R:3:Z:I:1 energy=-250.2438699537797 field_type=dipole dipole="0.000000 0.000000 0.000000" charge=0
C	0.890510	0.035470	-0.245000	6
C	2.372380	0.035830	0.033190	6
C	2.711220	0.008710	1.502070	6
C	3.268850	-0.735660	-0.910360	6
C	3.262330	0.766190	-0.953700	6
N	4.448030	1.500970	-0.528340	7
H	0.673270	0.046390	-1.318920	1
H	0.420580	0.917800	0.201320	1
H	0.422450	-0.858010	0.181170	1
H	3.784490	-0.099560	1.687260	1
H	2.212120	-0.836050	1.989050	1
H	2.373310	0.930620	1.985840	1
H	2.818060	-1.262270	-1.744100	1
H	4.141120	-1.239570	-0.510600	1
H	2.771760	1.213680	-1.816990	1
H	4.968530	1.003410	0.191110	1
H	4.187440	2.398100	-0.121260	1
Es	0.572497	-0.574604	0.048144	99
Es	0.890522	0.035473	-0.244999	99
Es	2.921102	1.073926	-1.535871	99
Es	2.762987	-0.522012	-0.376650	99
Es	2.558086	0.028062	0.765840	99
Es	3.262422	0.766107	-0.953575	99
Es	3.268802	-0.735513	-0.910310	99
Es	2.479207	0.639203	1.830807	99
Es	4.447684	1.500886	-0.527903	99
Es	2.372471	0.035792	0.033095	99
Es	3.447193	-0.062845	1.621073	99
Es	2.744057	0.571283	-0.380960	99
Es	2.956832	-1.091915	-1.475830	99
Es	3.393149	0.000493	-1.066420	99
Es	4.737628	1.193133	-0.081960	99
Es	0.572581	0.638788	0.062549	99
Es	0.749439	0.043710	-0.979766	99
Es	3.863550	-1.069622	-0.629897	99
Es	2.369025	-0.566044	1.828554	99
Es	1.630075	0.032426	-0.114723	99
Es	4.652750	1.554512	-0.801502	99
Es	2.711222	0.008713	1.502051	99
Es	4.271382	2.031285	-0.267396	99
Es	3.922195	1.175599	-0.674877	99
