41
Properties=species:S:1:pos:R:3:Z:I:1 energy=-250.27212029821388 field_type=dipole dipole="0.000000 0.000000 0.000000" charge=0
C	1.026180	-0.015950	-0.024270	6
C	2.542340	-0.007520	0.063580	6
C	3.084120	1.144870	0.892390	6
C	4.483470	0.669150	1.230310	6
C	4.348400	-0.843610	1.336550	6
N	3.040600	-1.187960	0.773570	7
H	0.674160	-0.868760	-0.614640	1
H	0.662960	0.899500	-0.502710	1
H	0.563970	-0.080730	0.967240	1
H	2.972240	0.024540	-0.945860	1
H	2.503300	1.286700	1.812300	1
H	3.092490	2.091200	0.343160	1
H	5.168820	0.924670	0.412850	1
H	4.863480	1.124310	2.149460	1
H	5.160530	-1.345180	0.800330	1
H	4.384790	-1.165130	2.382300	1
H	3.113740	-1.985090	0.143700	1
Es	2.542355	-0.007619	0.063653	99
Es	4.429908	-0.087011	1.292583	99
Es	0.783025	0.612252	-0.355240	99
Es	1.774732	-0.012620	0.016992	99
Es	3.041040	-1.187783	0.773042	99
Es	2.841481	0.021361	-0.640845	99
Es	3.792337	0.929603	1.070121	99
Es	4.911002	-1.191792	0.963651	99
Es	0.716928	-0.056649	0.651235	99
Es	3.084146	1.144858	0.892386	99
Es	3.098317	-1.661484	0.377541	99
Es	2.842976	-0.686649	0.440398	99
Es	2.682984	1.235177	1.520318	99
Es	1.026185	-0.015944	-0.024291	99
Es	3.623726	-1.042721	0.988605	99
Es	3.087657	1.792827	0.513664	99
Es	4.483454	0.669132	1.230303	99
Es	4.380626	-1.064417	2.058169	99
Es	4.348287	-0.843617	1.336484	99
Es	2.795115	0.587923	0.470768	99
Es	4.952436	0.843225	0.665890	99
Es	2.817384	-1.257694	1.036489	99
Es	0.789085	-0.599782	-0.431105	99
Es	4.746832	0.978691	1.860012	99
