41
Properties=species:S:1:pos:R:3:Z:I:1 energy=-250.23266414168643 field_type=dipole dipole="0.000000 0.000000 0.000000" charge=0
C	1.013280	0.012490	-0.063580	6
C	2.503840	0.028470	-0.031490	6
C	3.343460	-0.734600	-1.042410	6
C	2.737610	-1.544930	-2.136030	6
N	3.227100	0.719850	-1.095240	7
C	4.427580	1.409840	-0.633370	6
H	0.617400	0.774060	0.615560	1
H	0.640380	-0.961450	0.267520	1
H	0.609370	0.215350	-1.060480	1
H	2.879750	0.088470	0.984980	1
H	4.276640	-1.167200	-0.695330	1
H	1.869170	-1.060390	-2.594190	1
H	2.421860	-2.518890	-1.750210	1
H	3.475870	-1.717410	-2.925590	1
H	4.181400	2.450130	-0.397720	1
H	5.177830	1.419240	-1.430910	1
H	4.889630	0.965870	0.256770	1
Es	1.756518	0.021439	-0.063757	99
Es	3.343395	-0.734383	-1.042392	99
Es	2.772211	0.077613	0.661660	99
Es	2.526978	-2.207822	-1.867775	99
Es	0.765233	-0.651550	0.165465	99
Es	3.243906	-1.660947	-2.669018	99
Es	1.013300	0.012484	-0.063565	99
Es	3.027220	-1.130285	-1.592144	99
Es	3.988786	-1.019972	-0.801655	99
Es	3.037028	0.860988	-1.360196	99
Es	3.384124	0.089212	-1.173434	99
Es	4.941054	1.411988	-1.177329	99
Es	2.881610	0.549977	-0.565475	99
Es	0.744276	0.145057	-0.739048	99
Es	4.427479	1.409778	-0.633405	99
Es	3.227374	0.719549	-1.094775	99
Es	2.737625	-1.544931	-2.136011	99
Es	2.148843	-1.215601	-2.439926	99
Es	0.748839	0.531037	0.401075	99
Es	2.503948	0.028519	-0.031682	99
Es	2.859969	-0.548296	-0.444465	99
Es	4.259441	2.118820	-0.467217	99
Es	3.755910	0.995604	-0.868738	99
Es	4.739963	1.093445	-0.018304	99
