34
Properties=species:S:1:pos:R:3:Z:I:1 energy=-263.928604082125 field_type=dipole dipole="0.000000 0.000000 0.000000" charge=0
C	0.980200	0.064170	-0.004790	6
C	2.459780	-0.029090	-0.006000	6
N	3.215300	1.075850	-0.011320	7
N	4.474440	0.610630	-0.011030	7
C	4.549640	-0.750490	-0.006000	6
C	3.252040	-1.200520	-0.002680	6
H	0.641260	1.105260	0.009200	1
H	0.568040	-0.437910	0.876170	1
H	0.568480	-0.414330	-0.898980	1
H	5.234370	1.282130	-0.014520	1
H	5.499279	-1.265390	-0.005280	1
H	2.918000	-2.228400	0.001540	1
Es	2.812101	-0.655692	-0.004532	99
Es	2.459760	-0.029029	-0.005997	99
Es	2.932667	0.586401	-0.284050	99
Es	3.021245	-1.893682	0.000236	99
Es	0.980251	0.064147	-0.004790	99
Es	2.934509	0.588328	0.266559	99
Es	3.777922	-0.969469	0.294663	99
Es	0.756834	0.763551	0.004483	99
Es	4.927971	1.001281	-0.012944	99
Es	4.549745	-0.750302	-0.006001	99
Es	4.480547	0.213879	-0.272771	99
Es	5.189943	-1.092011	-0.005491	99
Es	4.474385	0.610582	-0.010934	99
Es	0.711777	-0.263861	-0.607778	99
Es	3.215525	1.075258	-0.011309	99
Es	4.478719	0.220536	0.254728	99
Es	1.721125	0.014772	-0.005265	99
Es	3.252039	-1.200550	-0.002670	99
Es	3.879698	0.835233	-0.012730	99
Es	3.145169	1.447801	-0.012728	99
Es	3.776831	-0.971747	-0.302904	99
Es	0.711327	-0.279761	0.589402	99
