37
Properties=species:S:1:pos:R:3:Z:I:1 energy=-265.0692001289137 field_type=dipole dipole="0.000000 0.000000 0.000000" charge=0
C	1.052600	0.071830	0.015240	6
C	2.573800	-0.041710	-0.007050	6
C	3.056480	-1.247420	-0.798210	6
C	3.421050	-0.576250	-2.080700	6
N	3.455740	0.714630	-2.043910	7
N	3.176020	1.057230	-0.762530	7
H	0.738210	0.982540	0.536650	1
H	0.613330	-0.783800	0.539040	1
H	0.628840	0.098720	-0.994910	1
H	2.952750	-0.064520	1.019800	1
H	2.294490	-2.012350	-0.967960	1
H	3.959190	-1.701180	-0.377660	1
H	3.657040	-1.166060	-2.977250	1
H	2.660030	1.936080	-0.697250	1
Es	3.269243	0.872291	-1.400427	99
Es	3.455605	0.714239	-2.043442	99
Es	0.845258	0.697007	0.370240	99
Es	2.828722	-0.054557	0.698081	99
Es	1.801286	0.013322	-0.002649	99
Es	3.175406	1.057039	-0.762956	99
Es	2.885847	0.586294	-0.449223	99
Es	2.573820	-0.041627	-0.007153	99
Es	2.804672	-0.670294	-0.382336	99
Es	2.539105	-1.763931	-0.910083	99
Es	3.153550	0.122428	-2.148150	99
Es	3.527908	0.979113	-2.296338	99
Es	0.758469	-0.513792	0.373465	99
Es	3.421065	-0.576284	-2.080698	99
Es	3.714074	0.116876	-1.995713	99
Es	0.772852	0.089056	-0.673851	99
Es	1.052607	0.071831	0.015245	99
Es	3.665815	-1.549994	-0.515501	99
Es	3.581531	-0.977740	-2.686521	99
Es	3.056485	-1.247391	-0.798234	99
Es	3.476553	1.090093	-0.664132	99
Es	2.841367	1.571484	-0.736087	99
Es	3.235988	-0.940176	-1.446979	99
