41
Properties=species:S:1:pos:R:3:Z:I:1 energy=-250.2343672285273 field_type=dipole dipole="0.000000 0.000000 0.000000" charge=0
C	0.939360	0.013030	0.013810	6
C	2.453560	0.004380	0.013610	6
C	3.158300	1.003970	0.954970	6
N	4.159670	-0.045900	1.260990	7
C	3.151080	-1.074130	0.882700	6
C	3.761700	-2.256670	0.155420	6
H	0.550760	-0.841740	-0.548130	1
H	0.560210	0.925530	-0.456060	1
H	0.533490	-0.037760	1.029800	1
H	2.847330	0.055060	-1.011700	1
H	2.574880	1.310630	1.831340	1
H	3.565150	1.898610	0.475250	1
H	4.966600	-0.016970	0.636470	1
H	2.553020	-1.402800	1.743920	1
H	4.380510	-1.943860	-0.692200	1
H	2.974460	-2.912010	-0.230240	1
H	4.385710	-2.848720	0.832150	1
Es	3.440510	1.623344	0.626211	99
Es	3.151195	-1.074051	0.882700	99
Es	4.185755	-2.656304	0.617117	99
Es	4.159458	-0.045877	1.260401	99
Es	4.617241	-0.030327	0.847589	99
Es	3.766540	0.456393	1.136327	99
Es	2.742829	0.579509	0.451211	99
Es	2.731906	0.035196	-0.685785	99
Es	2.740535	-0.604170	0.403899	99
Es	4.284944	-0.058756	1.603468	99
Es	3.158393	1.003862	0.954981	99
Es	2.453540	0.004385	0.013640	99
Es	2.751780	1.203373	1.554746	99
Es	0.939361	0.013029	0.013804	99
Es	0.682621	0.637325	-0.307252	99
Es	3.222147	-2.700204	-0.107182	99
Es	4.183846	-2.032309	-0.421764	99
Es	0.675700	-0.572741	-0.370140	99
Es	1.681055	0.008285	0.008768	99
Es	3.764816	-0.529903	1.102193	99
Es	0.669169	-0.021934	0.710821	99
Es	2.737056	-1.293275	1.471151	99
Es	3.761688	-2.256671	0.155421	99
Es	3.458377	-1.676606	0.512749	99
