41
Properties=species:S:1:pos:R:3:Z:I:1 energy=-250.24295207748702 field_type=dipole dipole="0.000000 0.000000 0.000000" charge=0
C	0.834470	0.294130	-0.335320	6
C	2.267310	0.085430	0.086740	6
C	2.517320	0.172530	1.575780	6
N	2.118760	-1.075740	2.208850	7
C	3.115770	-0.867960	-0.732450	6
C	3.344670	0.610850	-0.843530	6
H	0.722070	0.270390	-1.424570	1
H	0.470860	1.264640	0.016340	1
H	0.189000	-0.487670	0.079890	1
H	1.959780	1.010980	2.008190	1
H	3.579260	0.347760	1.784820	1
H	1.120920	-1.219890	2.074060	1
H	2.262880	-1.000250	3.213450	1
H	2.656490	-1.380670	-1.570170	1
H	3.859210	-1.464560	-0.214040	1
H	4.258210	1.011110	-0.417960	1
H	3.046910	1.100280	-1.764710	1
Es	3.365574	-0.155701	-0.914336	99
Es	3.344596	0.610717	-0.843472	99
Es	2.271685	-0.521529	1.950240	99
Es	2.129420	0.759109	1.866863	99
Es	2.599242	-0.542719	-0.248122	99
Es	3.964053	0.882558	-0.546787	99
Es	2.517262	0.172409	1.575822	99
Es	2.767199	0.538072	-0.330745	99
Es	2.797596	-1.210747	-1.302618	99
Es	3.622147	-1.265082	-0.380983	99
Es	3.135318	0.943927	-1.469901	99
Es	2.267412	0.085426	0.086630	99
Es	2.300096	-1.348641	2.080641	99
Es	2.396959	0.129296	0.825671	99
Es	1.549000	0.186304	-0.129968	99
Es	3.115733	-0.867789	-0.732416	99
Es	1.509015	-1.140639	2.134196	99
Es	0.395254	-0.240561	-0.045101	99
Es	0.834481	0.294120	-0.335310	99
Es	3.247460	0.290543	1.717022	99
Es	0.588056	0.956474	-0.091553	99
Es	2.193892	-1.010380	2.819608	99
Es	0.764109	0.275392	-1.077359	99
Es	2.118446	-1.075274	2.209081	99
