37
Properties=species:S:1:pos:R:3:Z:I:1 energy=-265.10363564963126 field_type=dipole dipole="0.000000 0.000000 0.000000" charge=0
C	1.049000	0.064950	0.023480	6
C	2.569810	-0.017070	-0.018780	6
C	3.072500	-1.219290	-0.847000	6
N	3.427710	-0.683520	-2.197290	7
C	3.434370	0.600300	-2.016140	6
N	3.115820	1.086370	-0.787420	7
H	0.727010	0.971790	0.544700	1
H	0.631170	-0.798470	0.550250	1
H	0.616450	0.092050	-0.982310	1
H	2.976940	-0.035810	0.997220	1
H	2.321370	-2.010810	-0.936010	1
H	3.976600	-1.647440	-0.398760	1
H	3.648110	1.345530	-2.798570	1
H	2.655460	1.986500	-0.735310	1
Es	3.115395	1.086226	-0.787718	99
Es	3.148073	-0.166602	-2.207894	99
Es	2.823763	1.614617	-0.768603	99
Es	0.763588	0.083899	-0.662394	99
Es	3.427613	-0.683197	-2.196860	99
Es	1.798441	0.025362	-0.000316	99
Es	3.262049	-0.908848	-1.598698	99
Es	3.434364	0.600433	-2.016039	99
Es	2.569829	-0.016941	-0.018886	99
Es	3.168071	0.892203	-1.332395	99
Es	3.072511	-1.219201	-0.847088	99
Es	3.579059	1.108855	-2.541236	99
Es	2.843216	-0.028446	0.680540	99
Es	2.864626	0.637265	-0.451080	99
Es	3.700738	-0.166397	-2.049444	99
Es	1.049008	0.064957	0.023489	99
Es	3.510690	-0.891767	-2.485478	99
Es	0.835563	0.689380	0.379888	99
Es	0.769605	-0.523462	0.383855	99
Es	2.807378	-0.620391	-0.411311	99
Es	3.426813	1.101439	-0.770039	99
Es	3.688348	-1.505456	-0.535473	99
Es	2.554189	-1.754977	-0.899584	99
