40
Properties=species:S:1:pos:R:3:Z:I:1 energy=-266.2403281904191 field_type=dipole dipole="0.000000 0.000000 0.000000" charge=0
C	1.093020	-0.125230	-0.018900	6
C	2.575400	0.005710	-0.069790	6
N	3.307570	-0.446260	-1.249400	7
C	3.228730	1.000920	-0.996240	6
C	4.466470	1.736100	-0.584620	6
N	5.318550	1.876320	-1.760580	7
H	0.679870	0.576270	0.713440	1
H	0.812470	-1.138730	0.286810	1
H	0.622360	0.080970	-0.986840	1
H	3.041610	-0.206400	0.884800	1
H	2.677580	-0.698800	-2.012670	1
H	2.611920	1.575860	-1.677490	1
H	5.009910	1.200150	0.202100	1
H	4.201920	2.725730	-0.198200	1
H	5.480700	0.935810	-2.127200	1
H	6.230440	2.221220	-1.467980	1
Es	2.945420	-0.388756	-0.719862	99
Es	1.093032	-0.125228	-0.018900	99
Es	2.799335	1.386953	-1.458553	99
Es	1.829881	-0.060639	-0.060469	99
Es	4.965316	1.808295	-1.237424	99
Es	0.906119	-0.815208	0.187974	99
Es	4.279467	2.412392	-0.319874	99
Es	5.872862	2.074742	-1.568913	99
Es	3.228737	1.000662	-0.996234	99
Es	0.817630	0.351137	0.479401	99
Es	2.575489	0.005677	-0.070012	99
Es	2.830970	0.678231	-0.400055	99
Es	2.897742	-0.137762	0.579651	99
Es	3.849865	1.354250	-0.785143	99
Es	0.781132	0.015519	-0.684029	99
Es	5.318762	1.876011	-1.760217	99
Es	4.466526	1.736107	-0.584737	99
Es	3.340046	0.204866	-1.263482	99
Es	5.423083	1.307082	-1.963065	99
Es	5.169726	2.087481	-2.008169	99
Es	3.625609	-0.614474	-1.213335	99
Es	3.307070	-0.445917	-1.249406	99
Es	4.832395	1.362277	-0.035027	99
Es	2.910834	-0.584778	-1.698579	99
