17
Properties=species:S:1:pos:R:3:Z:I:1 energy=-79.25981201622706 field_type=dipole dipole="0.000000 0.000000 0.000000" charge=0
C	1.004040	-0.002950	-0.006400	6
C	2.515960	-0.007020	0.000590	6
H	0.622350	1.022400	-0.001640	1
H	0.614110	-0.519740	0.875610	1
H	0.622370	-0.508420	-0.898570	1
H	2.897650	0.502100	0.890620	1
H	2.905890	0.506090	-0.883570	1
H	2.897630	-1.032430	0.000060	1
Es	1.004302	-0.002951	-0.006399	99
Es	2.515698	-0.007019	0.000589	99
Es	1.760000	-0.004986	-0.002906	99
Es	2.777701	0.339361	0.606162	99
Es	0.736697	-0.354547	0.593697	99
Es	2.777686	-0.704685	0.000227	99
Es	0.742314	-0.346862	-0.613410	99
Es	2.783303	0.342094	-0.600957	99
Es	0.742298	0.694681	-0.003181	99
