21
Properties=species:S:1:pos:R:3:Z:I:1 energy=-117.11286671681728 field_type=dipole dipole="0.000000 0.000000 0.000000" charge=0
C	0.975120	-0.010440	0.007820	6
C	2.467370	0.026250	0.010910	6
C	3.175720	1.162210	-0.010090	6
H	0.628360	-1.048000	-0.037040	1
H	0.571030	0.514130	-0.863620	1
H	0.572630	0.438070	0.921390	1
H	2.989930	-0.927010	0.030150	1
H	2.691540	2.133860	-0.027710	1
H	4.261420	1.140940	-0.007570	1
Es	2.467493	0.025938	0.010915	99
Es	0.975452	-0.010430	0.007831	99
Es	3.175663	1.162265	-0.010104	99
Es	2.825420	0.618503	-0.017273	99
Es	0.712715	0.343218	-0.562447	99
Es	2.827763	1.814570	-0.022094	99
Es	3.917380	1.138984	-0.008565	99
Es	2.812765	-0.631153	0.024660	99
Es	0.714677	0.293004	0.606724	99
Es	0.734562	-0.716151	-0.022242	99
Es	1.733436	0.027928	0.008519	99
Es	2.851613	0.613845	0.016903	99
