27
Properties=species:S:1:pos:R:3:Z:I:1 energy=-172.1328432821688 field_type=dipole dipole="0.000000 0.000000 0.000000" charge=0
C	0.342860	1.040170	-0.133990	6
C	0.966520	-0.318410	0.214100	6
N	-0.323240	-0.955570	-0.150000	7
C	-0.994970	0.336410	0.133680	6
H	0.593630	1.872350	0.527520	1
H	0.487280	1.344650	-1.176760	1
H	1.227980	-0.440650	1.271770	1
H	1.819740	-0.621710	-0.399050	1
H	-0.370890	-1.219770	-1.134860	1
H	-1.811340	0.590960	-0.547900	1
H	-1.354320	0.421830	1.165840	1
Es	-0.323289	-0.955723	-0.150055	99
Es	0.965979	-0.318393	0.213850	99
Es	-0.994510	0.336093	0.133471	99
Es	0.342725	1.039786	-0.133809	99
Es	-0.630888	-0.427148	-0.073326	99
Es	-1.558594	0.507360	-0.333507	99
Es	0.233379	-0.715720	-0.037856	99
Es	-0.327999	-1.041823	-0.734474	99
Es	0.748214	0.408650	0.041813	99
Es	0.516218	1.614163	0.312844	99
Es	-1.228691	0.390755	0.839933	99
Es	0.438237	1.239563	-0.836130	99
Es	1.552455	-0.531532	-0.205978	99
Es	1.133275	-0.397975	0.936798	99
Es	-0.372000	0.782683	-0.004127	99
Es	-0.434168	-1.258396	0.088475	99
