28
Properties=species:S:1:pos:R:3:Z:I:1 energy=-156.1470153173101 field_type=dipole dipole="0.000000 0.000000 0.000000" charge=0
C	0.337230	1.022780	-0.130480	6
C	0.996070	-0.330620	0.211200	6
C	-0.329850	-0.996290	-0.211340	6
C	-1.020690	0.340490	0.130550	6
H	0.587670	1.854830	0.531910	1
H	0.483160	1.334570	-1.170720	1
H	1.231930	-0.451040	1.274870	1
H	1.873610	-0.596750	-0.382850	1
H	-0.374140	-1.257300	-1.274790	1
H	-0.640580	-1.858720	0.382910	1
H	-1.838650	0.637070	-0.532210	1
H	-1.358670	0.410020	1.170840	1
Es	-1.020263	0.340359	0.130270	99
Es	0.995669	-0.330475	0.210888	99
Es	-0.329727	-0.995882	-0.211028	99
Es	0.337079	1.022358	-0.130200	99
Es	-0.764652	-0.372748	-0.045817	99
Es	0.378067	-0.753042	-0.000072	99
Es	-0.543775	-1.590675	0.192497	99
Es	1.148893	-0.409949	0.931648	99
Es	1.600710	-0.514229	-0.192557	99
Es	0.510095	1.596495	0.320291	99
Es	0.433683	1.227149	-0.835703	99
Es	-1.242633	0.385374	0.835864	99
Es	0.756061	0.390989	0.045781	99
Es	-0.357539	-1.166198	-0.931686	99
Es	-0.386692	0.771146	0.000010	99
Es	-1.584638	0.544798	-0.320468	99
