30
Properties=species:S:1:pos:R:3:Z:I:1 energy=-173.34381273179673 field_type=dipole dipole="0.000000 0.000000 0.000000" charge=0
C	0.989590	-0.059390	0.004480	6
C	2.509780	-0.011780	-0.010210	6
N	2.962330	1.378310	0.006120	7
C	4.416930	1.455150	0.009070	6
H	0.645380	-1.098260	-0.017580	1
H	0.568560	0.454100	-0.866450	1
H	0.586500	0.409810	0.908200	1
H	2.872380	-0.517540	-0.912480	1
H	2.894530	-0.552410	0.862350	1
H	2.598200	1.846080	0.835850	1
H	4.839860	0.989670	-0.886990	1
H	4.842540	0.976400	0.896880	1
H	4.726240	2.504880	0.011580	1
Es	2.961774	1.378564	0.005841	99
Es	2.509368	-0.011377	-0.010219	99
Es	4.416495	1.455134	0.009063	99
Es	0.989976	-0.059385	0.004496	99
Es	2.777150	1.614981	0.519640	99
Es	1.744792	-0.033211	-0.008026	99
Es	4.633481	2.175663	0.013303	99
Es	0.719583	0.263918	0.623126	99
Es	2.778212	-0.384696	0.591990	99
Es	2.801748	0.791940	0.050733	99
Es	3.589937	1.381925	0.050685	99
Es	4.696755	1.123685	-0.595786	99
Es	4.706137	1.120558	0.619441	99
Es	2.769823	-0.351061	-0.618973	99
Es	0.703187	0.283834	-0.584095	99
Es	0.762472	-0.771151	-0.006329	99
Es	2.810259	1.552088	-0.314588	99
