30
Properties=species:S:1:pos:R:3:Z:I:1 energy=-173.33419631067142 field_type=dipole dipole="0.000000 0.000000 0.000000" charge=0
C	0.999360	0.004160	-0.011260	6
N	2.461310	0.011110	-0.014320	7
C	2.973330	-0.712390	-1.176980	6
C	2.965860	1.383220	-0.003430	6
H	0.613760	0.509710	0.881500	1
H	0.619190	-1.023290	0.021960	1
H	0.579700	0.498410	-0.895420	1
H	2.630490	-1.753350	-1.164370	1
H	4.068790	-0.743270	-1.159650	1
H	2.656410	-0.256680	-2.122510	1
H	2.615580	1.915360	0.888440	1
H	2.650540	1.948860	-0.888180	1
H	4.061110	1.390370	0.037680	1
Es	2.462215	0.009806	-0.011985	99
Es	2.965751	1.382918	-0.003429	99
Es	0.999681	0.004159	-0.011257	99
Es	2.973220	-0.712234	-1.176722	99
Es	2.662007	-0.271988	-0.549754	99
Es	0.743932	-0.700929	0.001461	99
Es	2.715556	1.746234	0.603305	99
Es	2.728057	-1.421138	-1.169350	99
Es	0.718271	0.347186	-0.624896	99
Es	1.824936	0.031839	-0.055445	99
Es	2.658790	0.616647	-0.052100	99
Es	2.743503	1.766250	-0.617498	99
Es	2.749864	-0.391093	-1.825092	99
Es	3.723219	-0.722313	-1.166017	99
Es	3.715676	1.383057	0.014600	99
Es	0.740156	0.359770	0.596108	99
Es	2.580259	-0.160252	0.292465	99
