26
Properties=species:S:1:pos:R:3:Z:I:1 energy=-191.97913084696506 field_type=dipole dipole="0.000000 0.000000 0.000000" charge=0
C	1.004100	-0.004480	-0.058220	6
C	2.480660	-0.142480	0.047430	6
C	3.283140	-0.770870	-1.058960	6
O	3.222880	0.653650	-0.881720	8
H	0.649400	0.782050	0.615320	1
H	0.517640	-0.942500	0.227080	1
H	0.685640	0.249710	-1.074840	1
H	2.838820	-0.215100	1.064520	1
H	2.763530	-1.192500	-1.909890	1
H	4.211810	-1.264790	-0.803040	1
Es	3.222835	0.653150	-0.881634	99
Es	2.481039	-0.142142	0.046840	99
Es	3.282914	-0.770010	-1.058631	99
Es	1.004635	-0.004536	-0.058203	99
Es	3.218481	0.074330	-0.916736	99
Es	2.729759	-0.179742	0.738758	99
Es	3.916569	-1.096466	-0.882036	99
Es	3.025908	0.474251	-0.619178	99
Es	1.762121	-0.081067	-0.026650	99
Es	0.792701	0.156755	-0.732148	99
Es	0.684808	-0.633656	0.135963	99
Es	0.765209	0.526559	0.400824	99
Es	2.937419	-1.041137	-1.640756	99
Es	3.283584	0.911951	-0.935942	99
Es	3.200251	0.603614	-0.869990	99
Es	2.807108	-0.680345	-0.455575	99
