23
Properties=species:S:1:pos:R:3:Z:I:1 energy=-190.83393445727572 field_type=dipole dipole="0.000000 0.000000 0.000000" charge=0
C	0.978670	-0.014110	0.023790	6
C	2.313830	0.007060	-0.027740	6
C	3.051060	1.286070	-0.012840	6
O	4.274180	1.316150	-0.059680	8
H	0.445660	-0.960380	0.012280	1
H	0.381040	0.891190	0.078130	1
H	2.911310	-0.895570	-0.081990	1
H	2.441000	2.202660	0.042390	1
Es	4.273702	1.315962	-0.059668	99
Es	3.050776	1.286403	-0.012818	99
Es	0.978537	-0.014180	0.023793	99
Es	2.313928	0.007117	-0.027742	99
Es	3.783919	1.315526	-0.040512	99
Es	0.584838	0.606126	0.060411	99
Es	2.619885	1.905046	0.025208	99
Es	2.708150	-0.603438	-0.064050	99
Es	1.621295	0.005503	-0.000682	99
Es	0.633362	-0.652818	0.015456	99
Es	4.540586	1.372210	-0.068189	99
Es	2.675937	0.649275	-0.019943	99
Es	3.888537	1.298553	-0.045191	99
Es	4.208483	1.251336	-0.059326	99
Es	1.727125	0.053786	-0.003188	99
