29
Properties=species:S:1:pos:R:3:Z:I:1 energy=-193.1956775957287 field_type=dipole dipole="0.000000 0.000000 0.000000" charge=0
C	0.992270	0.004820	0.008040	6
C	2.513080	-0.012580	-0.001010	6
C	3.064710	-0.742190	-1.216070	6
O	2.996920	1.327750	0.000280	8
H	0.622530	0.554020	0.880640	1
H	0.583690	-1.009900	0.034840	1
H	0.598350	0.518050	-0.876190	1
H	2.878690	-0.493890	0.911700	1
H	2.746510	-0.257220	-2.145560	1
H	2.736220	-1.785780	-1.235550	1
H	4.159870	-0.720230	-1.209310	1
H	2.676060	1.761650	-0.807940	1
Es	2.996687	1.327773	-0.000129	99
Es	2.513117	-0.012299	-0.001119	99
Es	3.064490	-0.741928	-1.215615	99
Es	0.992839	0.004798	0.008029	99
Es	3.176008	1.455458	0.225694	99
Es	2.763059	-0.336557	0.619912	99
Es	2.786062	-0.389733	-0.621050	99
Es	0.720443	-0.686556	0.021187	99
Es	2.810722	1.513059	-0.428157	99
Es	2.807731	0.860318	-0.034808	99
Es	2.834487	-1.448583	-1.226808	99
Es	0.739892	0.375725	0.602256	99
Es	2.835739	-0.405692	-1.841563	99
Es	0.737353	0.351320	-0.601798	99
Es	3.809171	-0.730042	-1.211057	99
Es	1.737656	-0.011873	-0.001809	99
Es	2.978016	1.315114	-0.024095	99
