26
Properties=species:S:1:pos:R:3:Z:I:1 energy=-192.03238264003505 field_type=dipole dipole="0.000000 0.000000 0.000000" charge=0
C	0.998380	-0.004910	-0.007370	6
C	2.501690	0.034430	0.005080	6
C	3.225490	-1.284730	-0.005320	6
O	3.118790	1.098850	0.018200	8
H	0.602320	1.014310	0.000580	1
H	0.638000	-0.530330	0.880670	1
H	0.652160	-0.511220	-0.912660	1
H	2.512230	-2.113800	0.017700	1
H	3.867150	-1.352130	0.877400	1
H	3.823860	-1.361800	-0.917040	1
Es	3.118716	1.098380	0.018195	99
Es	2.501681	0.034428	0.005082	99
Es	0.998721	-0.005046	-0.007370	99
Es	3.225221	-1.284209	-0.005315	99
Es	3.186680	1.355051	0.021179	99
Es	2.845516	-0.624241	0.000715	99
Es	1.751842	0.004771	-0.001136	99
Es	2.874400	0.677653	0.014578	99
Es	0.782306	-0.350890	-0.602230	99
Es	3.644680	-1.328127	0.575737	99
Es	0.772616	-0.363302	0.576804	99
Es	3.613872	-1.332705	-0.605220	99
Es	2.747284	-1.835751	0.009086	99
Es	0.724663	0.665919	-0.002657	99
Es	2.937884	0.792826	0.012754	99
Es	3.153990	1.013175	0.017585	99
