31
Properties=species:S:1:pos:R:3:Z:I:1 energy=-157.35634107691382 field_type=dipole dipole="0.000000 0.000000 0.000000" charge=0
C	0.987840	-0.007640	-0.000770	6
C	2.514770	0.008730	-0.006250	6
C	3.055230	-0.746890	-1.218020	6
C	3.036280	1.443710	0.008050	6
H	0.596690	0.508310	0.882680	1
H	0.610090	-1.035580	0.018010	1
H	0.580060	0.486600	-0.889540	1
H	2.868340	-0.495990	0.900960	1
H	2.729000	-0.282990	-2.155310	1
H	2.707440	-1.785420	-1.215340	1
H	4.150310	-0.761060	-1.210520	1
H	2.710660	1.995270	-0.880710	1
H	4.131070	1.459050	0.033730	1
H	2.673620	1.980300	0.891210	1
Es	2.514744	0.008767	-0.006316	99
Es	0.988484	-0.007621	-0.000794	99
Es	3.054990	-0.746554	-1.217523	99
Es	3.036048	1.443108	0.008022	99
Es	2.776853	0.734163	-0.001664	99
Es	2.814869	-1.456090	-1.217602	99
Es	3.803987	-0.753873	-1.214292	99
Es	2.753793	-0.332452	0.607022	99
Es	0.729819	-0.710596	0.009029	99
Es	2.785762	1.811300	0.610383	99
Es	0.720613	0.347791	0.601792	99
Es	2.813494	1.812989	-0.595099	99
Es	0.716523	0.327814	-0.603935	99
Es	3.784878	1.453986	0.022564	99
Es	2.831982	-0.429441	-1.849829	99
Es	2.786466	-0.371019	-0.620229	99
Es	1.743296	0.001953	-0.006159	99
