33
Properties=species:S:1:pos:R:3:Z:I:1 energy=-231.07937362321658 field_type=dipole dipole="0.000000 0.000000 0.000000" charge=0
C	0.970700	-0.102760	-0.066620	6
C	2.479500	-0.018350	0.048690	6
C	2.953550	1.417540	0.007060	6
C	2.963960	2.104990	-1.332730	6
O	3.281250	2.013150	1.033840	8
H	0.638480	-1.141370	0.026330	1
H	0.624590	0.278810	-1.032530	1
H	0.483430	0.485990	0.717690	1
H	2.966570	-0.577640	-0.756820	1
H	2.809860	-0.462630	0.994110	1
H	3.482560	1.480480	-2.064740	1
H	3.497220	3.056710	-1.252170	1
H	1.939190	2.296470	-1.659080	1
Es	3.281119	2.012926	1.033437	99
Es	2.953556	1.417547	0.007132	99
Es	2.479578	-0.017823	0.048577	99
Es	2.963864	2.104638	-1.332323	99
Es	0.971346	-0.102655	-0.066572	99
Es	3.368751	2.206490	1.184750	99
Es	2.798242	-0.385486	-0.495842	99
Es	3.295344	1.681134	-1.816363	99
Es	0.647723	0.295340	0.455873	99
Es	2.692199	-0.319244	0.672815	99
Es	2.723750	0.708339	0.017799	99
Es	3.185208	1.773865	0.634799	99
Es	2.288484	2.218019	-1.537534	99
Es	0.744887	0.159040	-0.716731	99
Es	3.313761	2.733374	-1.289934	99
Es	1.757373	-0.042079	-0.016034	99
Es	0.745756	-0.807588	-0.006814	99
Es	2.960125	1.752204	-0.669375	99
Es	3.148282	1.849985	0.736999	99
Es	3.247674	1.909989	1.042166	99
