30
Properties=species:S:1:pos:R:3:Z:I:1 energy=-229.8516610039986 field_type=dipole dipole="0.000000 0.000000 0.000000" charge=0
C	1.216800	-0.468730	-0.419350	6
C	2.503090	-0.354230	-0.082990	6
O	3.164600	0.843980	-0.157610	8
C	4.481800	0.906890	0.216830	6
C	5.178130	2.043260	0.148320	6
H	0.706090	-1.422780	-0.356550	1
H	0.653600	0.392490	-0.763400	1
H	3.088770	-1.194380	0.262250	1
H	4.915220	-0.017970	0.570330	1
H	4.716350	2.957170	-0.210340	1
H	6.219110	2.079030	0.448690	1
Es	3.164863	0.843524	-0.157430	99
Es	4.481431	0.906583	0.216795	99
Es	2.503521	-0.354031	-0.082912	99
Es	5.178147	2.043290	0.148342	99
Es	1.216774	-0.468744	-0.419378	99
Es	3.008059	1.115071	-0.264771	99
Es	3.652590	0.815412	-0.007388	99
Es	0.834495	0.100531	-0.648715	99
Es	5.848351	2.042684	0.349578	99
Es	4.767536	0.269241	0.454773	99
Es	2.912373	-0.920293	0.155546	99
Es	4.832151	1.477825	0.149240	99
Es	3.192699	0.795293	-0.138398	99
Es	2.963255	0.376199	-0.111537	99
Es	4.877865	2.656155	-0.090327	99
Es	0.908674	-1.095248	-0.372512	99
Es	1.846565	-0.394672	-0.226306	99
Es	4.881623	1.519226	0.220530	99
Es	1.808614	-0.456442	-0.288099	99
