30
Properties=species:S:1:pos:R:3:Z:I:1 energy=-229.89031462726808 field_type=dipole dipole="0.000000 0.000000 0.000000" charge=0
C	0.941350	-0.102230	0.002290	6
C	2.427940	0.001620	-0.212880	6
O	3.097650	-0.963490	-0.578800	8
C	3.117610	1.300090	0.020150	6
C	2.516390	2.426830	0.419730	6
H	0.414760	0.579780	-0.670250	1
H	0.695710	0.115440	1.044890	1
H	0.614830	-1.122620	-0.220770	1
H	4.188260	1.277470	-0.161880	1
H	1.451640	2.495560	0.613310	1
H	3.100830	3.331040	0.564910	1
Es	3.097502	-0.963068	-0.578664	99
Es	2.427605	0.001669	-0.212813	99
Es	2.516351	2.426767	0.419719	99
Es	3.117763	1.299953	0.020088	99
Es	0.941823	-0.101986	0.002278	99
Es	3.142552	-1.212776	-0.652461	99
Es	2.797457	1.874575	0.226323	99
Es	0.606442	0.357529	-0.432035	99
Es	2.748646	0.669850	-0.087369	99
Es	3.837157	1.292590	-0.100092	99
Es	1.689991	-0.041802	-0.104053	99
Es	1.799676	2.454557	0.545144	99
Es	0.789371	0.055473	0.683368	99
Es	2.834538	-0.592221	-0.437379	99
Es	2.906382	3.022016	0.514345	99
Es	0.716349	-0.767385	-0.141013	99
Es	2.899012	-0.661015	-0.465651	99
Es	3.161248	-0.856758	-0.560790	99
Es	2.811786	1.786698	0.200017	99
