33
Properties=species:S:1:pos:R:3:Z:I:1 energy=-231.039463035791 field_type=dipole dipole="0.000000 0.000000 0.000000" charge=0
C	1.184480	0.161850	-0.798370	6
O	2.284660	0.162990	0.106540	8
C	3.055330	1.311600	0.058980	6
C	2.364760	2.643790	0.058150	6
C	4.386590	1.189780	0.111320	6
H	0.766920	-0.849140	-0.819440	1
H	1.506360	0.419080	-1.813260	1
H	0.398750	0.843410	-0.457830	1
H	1.603890	2.678600	0.844760	1
H	1.883770	2.833360	-0.906480	1
H	3.066370	3.464290	0.244190	1
H	4.848410	0.208550	0.152810	1
H	5.041210	2.054030	0.117410	1
Es	2.284663	0.163311	0.106138	99
Es	3.055103	1.311438	0.058988	99
Es	1.184835	0.162008	-0.798123	99
Es	2.364856	2.643417	0.058154	99
Es	4.385830	1.189734	0.111182	99
Es	2.326749	-0.046671	0.344307	99
Es	2.703425	1.966129	0.054010	99
Es	2.832441	3.189989	0.176163	99
Es	0.902869	-0.525535	-0.814597	99
Es	4.654425	0.575636	0.115393	99
Es	1.407705	0.351346	-1.484795	99
Es	0.656159	0.637556	-0.568588	99
Es	1.898407	0.215517	-0.243631	99
Es	2.041895	2.757795	-0.582624	99
Es	4.711098	1.729142	0.111010	99
Es	3.865651	1.254585	0.042668	99
Es	1.859970	2.658694	0.576971	99
Es	2.542741	0.602597	0.049712	99
Es	2.325711	0.178764	0.051819	99
Es	3.794665	1.266728	0.134411	99
