33
Properties=species:S:1:pos:R:3:Z:I:1 energy=-231.03493167264776 field_type=dipole dipole="0.000000 0.000000 0.000000" charge=0
O	3.045060	-0.947280	-0.571510	8
C	2.366950	0.101240	0.102440	6
C	3.248940	1.303440	0.110750	6
C	3.289710	2.231540	-1.075590	6
C	2.660800	2.686840	0.213450	6
H	2.443780	-1.710270	-0.578170	1
H	2.155920	-0.218980	1.127860	1
H	1.418570	0.292130	-0.410380	1
H	4.181970	1.109170	0.627550	1
H	2.640720	2.020040	-1.917760	1
H	4.250410	2.649440	-1.352640	1
H	3.195190	3.420930	0.805280	1
H	1.582830	2.797450	0.237780	1
Es	3.044823	-0.947598	-0.571371	99
Es	2.367381	0.101352	0.102255	99
Es	3.248882	1.303888	0.110633	99
Es	2.661250	2.686411	0.213087	99
Es	3.289565	2.231440	-1.074779	99
Es	3.328490	-0.919522	-0.713362	99
Es	2.855197	2.087089	-1.625435	99
Es	1.712666	0.233594	-0.243360	99
Es	1.943962	2.749278	0.230395	99
Es	2.810419	0.742311	0.096173	99
Es	2.699878	-1.325051	-0.552603	99
Es	3.012776	3.176969	0.613732	99
Es	2.932155	2.618181	-0.502230	99
Es	2.217267	-0.115056	0.807912	99
Es	2.780334	-0.587392	-0.336139	99
Es	3.937846	2.509209	-1.264687	99
Es	3.868093	1.180030	0.458031	99
Es	3.025767	-0.955651	-0.532260	99
Es	2.871782	1.969823	0.372608	99
Es	3.359888	1.620079	-0.620834	99
