29
Properties=species:S:1:pos:R:3:Z:I:1 energy=-245.833663952763 field_type=dipole dipole="0.000000 0.000000 0.000000" charge=0
C	-1.240090	-0.012140	-0.165290	6
C	-0.400340	-1.225640	0.122070	6
C	0.929030	-0.606530	-0.059390	6
N	0.948390	0.681850	-0.054020	7
O	-0.392440	1.105740	0.119370	8
H	-1.537250	0.038800	-1.218490	1
H	-2.136810	0.032190	0.458970	1
H	-0.575810	-2.050840	-0.569620	1
H	-0.489550	-1.574010	1.154460	1
H	1.833120	-1.225120	-0.142840	1
Es	-0.392426	1.105201	0.119236	99
Es	0.948238	0.681748	-0.054022	99
Es	-1.239273	-0.012288	-0.165023	99
Es	0.929017	-0.606427	-0.059404	99
Es	-0.400003	-1.225164	0.121995	99
Es	-0.470068	1.404310	0.149146	99
Es	0.901967	0.081003	-0.058133	99
Es	-0.833047	-0.664254	-0.015146	99
Es	-1.433066	0.013202	-0.886462	99
Es	1.431522	-1.017621	-0.106280	99
Es	0.162178	0.868720	0.034058	99
Es	-0.371385	1.044167	0.161657	99
Es	-0.461169	-1.448448	0.797002	99
Es	-0.517416	-1.771285	-0.329741	99
Es	0.384590	-0.902542	0.013241	99
Es	-1.847151	0.023172	0.257771	99
Es	-0.672174	0.665432	0.014147	99
Es	1.224178	0.940034	-0.079894	99
Es	0.944399	0.116514	-0.072153	99
