29
Properties=species:S:1:pos:R:3:Z:I:1 energy=-245.9050383645903 field_type=dipole dipole="0.000000 0.000000 0.000000" charge=0
C	0.923660	-0.363060	0.019170	6
C	2.186480	0.055720	-0.087740	6
N	2.500580	1.383240	-0.156840	7
C	3.767410	1.887620	-0.267020	6
O	4.010180	3.085820	-0.326410	8
H	0.698790	-1.423930	0.072470	1
H	0.084720	0.324590	0.056650	1
H	3.008890	-0.655400	-0.123200	1
H	1.765740	2.080950	-0.127330	1
H	4.557209	1.118500	-0.298080	1
Es	4.009980	3.085649	-0.326389	99
Es	2.500586	1.383207	-0.156839	99
Es	3.767831	1.886616	-0.267016	99
Es	2.186770	0.056005	-0.087771	99
Es	0.923821	-0.362824	0.019150	99
Es	3.890730	2.579165	-0.300066	99
Es	2.071394	1.775197	-0.139064	99
Es	1.538906	-0.135472	-0.033718	99
Es	4.278571	1.353936	-0.285873	99
Es	2.759868	-0.395319	-0.114015	99
Es	3.073714	1.597623	-0.206204	99
Es	2.340665	0.786150	-0.124395	99
Es	4.098603	3.350791	-0.342083	99
Es	0.375786	0.120651	0.042440	99
Es	2.595821	1.366777	-0.163240	99
Es	0.797622	-1.077683	0.053212	99
Es	3.950946	2.780706	-0.311479	99
Es	3.961121	3.014734	-0.320351	99
Es	1.491071	-0.195322	-0.028171	99
