32
Properties=species:S:1:pos:R:3:Z:I:1 energy=-247.00371884402767 field_type=dipole dipole="0.000000 0.000000 0.000000" charge=0
C	1.612430	-0.449750	-0.485590	6
O	3.006190	-0.225160	-0.308370	8
N	3.223460	1.157840	-0.221460	7
C	4.488140	1.367200	-0.061070	6
C	5.025920	2.756870	0.064410	6
H	1.441710	-1.527410	-0.553270	1
H	1.267360	0.021020	-1.411350	1
H	1.053460	-0.056910	0.369370	1
H	5.218000	0.540160	-0.010340	1
H	4.223160	3.495410	0.001490	1
H	5.748700	2.929910	-0.736970	1
H	5.538960	2.852010	1.024780	1
Es	3.005837	-0.224892	-0.308401	99
Es	3.223350	1.157524	-0.221487	99
Es	4.488443	1.367073	-0.061039	99
Es	1.612821	-0.449641	-0.485538	99
Es	5.025714	2.756379	0.064364	99
Es	3.261514	-0.423233	-0.286723	99
Es	2.912075	1.394689	-0.248227	99
Es	4.506151	3.244456	0.024078	99
Es	1.230985	-0.178529	0.095615	99
Es	4.976350	0.828375	-0.026507	99
Es	3.101326	0.357191	-0.271360	99
Es	2.995161	-0.191764	-0.307953	99
Es	2.467588	-0.263199	-0.374688	99
Es	5.504025	2.864684	-0.465392	99
Es	5.365438	2.813221	0.698843	99
Es	4.710994	2.034095	-0.005065	99
Es	1.503639	-1.184860	-0.530843	99
Es	1.376389	-0.125541	-1.114909	99
Es	3.819600	1.223476	-0.147295	99
Es	3.742429	1.255904	-0.155128	99
