32
Properties=species:S:1:pos:R:3:Z:I:1 energy=-247.02337467511126 field_type=dipole dipole="0.000000 0.000000 0.000000" charge=0
N	0.991090	0.008390	0.076700	7
C	2.449680	0.029690	-0.071080	6
C	3.080110	1.019580	0.918290	6
O	3.936810	-0.024690	1.456580	8
C	3.100320	-1.034230	0.823270	6
H	0.544290	-0.783980	-0.383860	1
H	0.529540	0.840360	-0.289800	1
H	2.826560	0.081340	-1.095430	1
H	2.435680	1.435760	1.700440	1
H	3.664780	1.821860	0.458500	1
H	3.701250	-1.778200	0.293240	1
H	2.465860	-1.532650	1.563940	1
Es	3.936361	-0.024684	1.456415	99
Es	0.991197	0.008416	0.076242	99
Es	3.080339	1.018944	0.918198	99
Es	3.100538	-1.033582	0.823238	99
Es	2.449372	0.029663	-0.070614	99
Es	4.199326	-0.029198	1.615250	99
Es	0.767928	-0.426854	-0.241289	99
Es	2.720686	-0.568299	0.320330	99
Es	3.631031	0.360107	1.269012	99
Es	2.636310	1.295495	1.436410	99
Es	3.511803	-1.552808	0.464437	99
Es	0.759975	0.473010	-0.189393	99
Es	2.701908	0.064663	-0.768201	99
Es	1.563290	0.021247	-0.060538	99
Es	2.663432	-1.364867	1.313698	99
Es	3.480253	1.577669	0.608369	99
Es	3.638917	-0.397229	1.234213	99
Es	2.708996	0.594095	0.374036	99
Es	3.890358	-0.024429	1.443371	99
Es	0.937712	-0.014261	0.465924	99
