26
Properties=species:S:1:pos:R:3:Z:I:1 energy=-244.69786860780965 field_type=dipole dipole="0.000000 0.000000 0.000000" charge=0
N	1.027940	0.014560	0.000000	7
C	2.385570	-0.057320	-0.000000	6
O	2.996410	-1.115250	0.000000	8
C	3.085470	1.203140	-0.000000	6
C	3.668920	2.254220	-0.000000	6
H	0.536460	0.895860	-0.000000	1
H	0.507150	-0.850620	0.000000	1
H	4.197230	3.178750	-0.000000	1
Es	2.996018	-1.114913	-0.000000	99
Es	1.027932	0.014563	-0.000000	99
Es	2.385452	-0.057135	0.000000	99
Es	3.670372	2.256822	-0.000000	99
Es	3.085240	1.202758	-0.000000	99
Es	2.759111	-0.660276	0.000000	99
Es	1.623918	0.020036	0.000000	99
Es	3.779419	2.542519	-0.000000	99
Es	2.734081	0.602699	-0.000000	99
Es	0.744275	0.540903	-0.000000	99
Es	3.520757	2.037798	-0.000000	99
Es	0.724486	-0.498191	-0.000000	99
Es	3.136891	-1.341874	-0.000000	99
Es	2.853753	-0.837283	-0.000000	99
Es	2.944601	-1.053529	-0.000000	99
Es	1.157445	0.020199	-0.000000	99
Es	3.426795	1.717225	-0.000000	99
Es	3.331765	1.659591	0.000000	99
