30
Properties=species:S:1:pos:R:3:Z:I:1 energy=-567.3773093775258 field_type=dipole dipole="0.000000 0.000000 0.000000" charge=0
S	-0.394880	-1.165770	0.004570	16
C	-1.306010	0.284300	-0.023540	6
C	-0.434490	1.352600	-0.040750	6
C	0.911330	0.886670	-0.029330	6
N	1.093940	-0.430280	-0.005260	7
H	-2.386330	0.280050	-0.025920	1
H	-0.736610	2.390560	-0.060080	1
H	1.797720	1.508560	-0.038480	1
Es	-0.394834	-1.165680	0.004568	99
Es	1.094300	-0.430942	-0.005247	99
Es	-1.305856	0.284052	-0.023535	99
Es	0.911431	0.886729	-0.029331	99
Es	-0.434490	1.352393	-0.040746	99
Es	-0.414920	-1.274401	0.006473	99
Es	-0.502278	-1.095134	0.003058	99
Es	-0.271771	-1.131265	0.004230	99
Es	-0.394836	-1.165660	0.004570	99
Es	0.393935	-0.696424	-0.002069	99
Es	-0.895485	0.804344	-0.031952	99
Es	-0.860294	-0.449323	-0.009353	99
Es	0.274993	1.118030	-0.034928	99
Es	1.461855	1.305198	-0.035593	99
Es	-0.629385	2.041643	-0.053568	99
Es	-2.019602	0.293382	-0.025325	99
Es	0.968222	0.163474	-0.016213	99
Es	-0.664178	0.875447	-0.032698	99
Es	-0.492788	-1.572668	0.011657	99
Es	1.396262	-0.656022	-0.000519	99
Es	0.915786	0.037067	-0.014057	99
Es	-0.411140	-0.903879	-0.000172	99
