30
Properties=species:S:1:pos:R:3:Z:I:1 energy=-567.3827400697131 field_type=dipole dipole="0.000000 0.000000 0.000000" charge=0
S	-0.495640	-1.398260	-0.001780	16
C	-1.298490	0.118340	-0.001190	6
C	-0.369410	1.136540	-0.000950	6
N	0.953250	0.738870	-0.001230	7
C	1.009970	-0.574760	-0.001670	6
H	-2.376660	0.189210	-0.001040	1
H	-0.603660	2.193570	-0.000570	1
H	1.949070	-1.113240	-0.001960	1
Es	-0.495901	-1.400130	-0.001781	99
Es	1.255185	0.972643	-0.001186	99
Es	1.009904	-0.574972	-0.001670	99
Es	-0.369280	1.136739	-0.000950	99
Es	-1.298278	0.117976	-0.001190	99
Es	-0.432281	-1.342201	-0.001770	99
Es	-0.592022	-1.336478	-0.001747	99
Es	-0.473552	-1.530903	-0.001822	99
Es	-0.495628	-1.398184	-0.001784	99
Es	0.936690	0.123598	-0.001429	99
Es	-0.900282	-0.653663	-0.001489	99
Es	-0.521041	1.809698	-0.000707	99
Es	-2.013114	0.159584	-0.001094	99
Es	1.617849	-0.939237	-0.001862	99
Es	-0.827085	0.634778	-0.001065	99
Es	0.322322	0.881245	-0.001112	99
Es	0.276622	-0.984963	-0.001726	99
Es	0.865592	0.259824	-0.001380	99
Es	-0.638468	-1.829501	-0.001911	99
Es	0.954608	0.739880	-0.001230	99
Es	-0.356850	-1.193828	-0.001725	99
Es	-0.805057	0.523201	-0.001112	99
