32
Properties=species:S:1:pos:R:3:Z:I:1 energy=-194.00502970527828 field_type=dipole dipole="0.000000 0.000000 0.000000" charge=0
C	0.957100	-0.043990	-0.001810	6
C	2.477360	-0.019010	-0.005200	6
C	3.014220	1.410840	0.008130	6
C	4.484580	1.424720	0.004720	6
C	5.685310	1.439620	0.001970	6
H	0.594910	-1.076760	-0.011500	1
H	0.554500	0.465460	-0.883120	1
H	0.558760	0.447310	0.891650	1
H	2.844310	-0.550460	-0.892040	1
H	2.848530	-0.568450	0.868830	1
H	2.646080	1.938070	0.895980	1
H	2.641840	1.956090	-0.866990	1
H	6.751210	1.452610	-0.000480	1
Es	3.014798	1.410738	0.008128	99
Es	4.483833	1.424688	0.004721	99
Es	2.477343	-0.018564	-0.005195	99
Es	0.957602	-0.043926	-0.001811	99
Es	5.686463	1.439529	0.001966	99
Es	2.788955	1.771626	-0.576418	99
Es	5.399226	1.394201	0.002198	99
Es	0.711125	-0.752082	-0.008460	99
Es	2.726917	-0.370851	-0.599735	99
Es	6.007250	1.411726	0.000906	99
Es	2.791787	1.759592	0.601001	99
Es	3.810280	1.425702	0.006361	99
Es	0.692172	0.295542	0.603809	99
Es	0.689285	0.307843	-0.599084	99
Es	1.708417	-0.024274	-0.003411	99
Es	2.779327	0.714368	0.001573	99
Es	2.729746	-0.382914	0.580820	99
Es	5.104252	1.463512	0.033607	99
Es	5.104108	1.464127	-0.026365	99
