35
Properties=species:S:1:pos:R:3:Z:I:1 energy=-195.19956910099813 field_type=dipole dipole="0.000000 0.000000 0.000000" charge=0
C	1.033210	0.011810	-0.065480	6
C	2.522990	0.003960	-0.014850	6
C	3.311650	-0.707550	-1.085150	6
C	3.323960	0.797520	-1.017480	6
C	4.557730	1.519220	-0.593220	6
H	0.639350	0.787290	0.597710	1
H	0.640850	-0.953460	0.267160	1
H	0.656780	0.203880	-1.074970	1
H	2.888790	-0.068450	1.004030	1
H	2.773550	-1.172990	-1.903530	1
H	4.200370	-1.249830	-0.780980	1
H	2.793280	1.338500	-1.793630	1
H	5.091800	0.989100	0.202620	1
H	4.301150	2.517200	-0.224770	1
H	5.237300	1.632870	-1.442680	1
Es	3.323929	0.797435	-1.017535	99
Es	2.523093	0.003904	-0.014852	99
Es	3.311411	-0.706936	-1.084834	99
Es	4.557217	1.518871	-0.593291	99
Es	1.033834	0.011866	-0.065556	99
Es	3.457619	0.031750	-1.216829	99
Es	4.915023	1.158089	-0.055113	99
Es	0.768372	0.539000	0.380796	99
Es	2.960536	-1.007050	-1.621756	99
Es	2.768523	-0.037187	0.641413	99
Es	3.891662	-1.061836	-0.881637	99
Es	2.970647	1.143376	-1.515484	99
Es	5.017204	1.594911	-1.170490	99
Es	0.768166	-0.643071	0.160567	99
Es	0.783310	0.140687	-0.748989	99
Es	1.810881	0.013029	-0.056314	99
Es	4.382288	2.192032	-0.342313	99
Es	3.915479	1.132402	-0.800099	99
Es	2.853006	-0.549981	-0.497378	99
Es	2.851302	0.606058	-0.408185	99
