34
Properties=species:S:1:pos:R:3:Z:I:1 energy=-211.22086790684853 field_type=dipole dipole="0.000000 0.000000 0.000000" charge=0
C	-0.798530	-1.001080	-0.124290	6
C	-1.187600	0.421770	0.228430	6
C	0.021900	1.215800	-0.215640	6
N	1.139080	0.367220	0.191280	7
C	0.719470	-1.022260	-0.001980	6
H	-1.284570	-1.732500	0.528190	1
H	-1.090750	-1.219000	-1.158920	1
H	-1.333150	0.514500	1.311760	1
H	-2.107800	0.738410	-0.270590	1
H	0.020880	1.351620	-1.303470	1
H	0.068760	2.198650	0.261140	1
H	1.972760	0.575740	-0.355280	1
H	1.172500	-1.452370	-0.901490	1
H	1.036120	-1.622120	0.857060	1
Es	1.139152	0.367127	0.191041	99
Es	0.022012	1.215112	-0.215219	99
Es	0.718916	-1.021455	-0.001919	99
Es	-0.798063	-1.000578	-0.123713	99
Es	-1.187113	0.421603	0.228011	99
Es	0.688620	0.701242	-0.033307	99
Es	-1.018172	-0.298859	0.055784	99
Es	0.055526	1.887899	0.105805	99
Es	1.026667	-1.316444	-0.627188	99
Es	-1.127526	-1.498025	0.316092	99
Es	1.593482	0.476774	-0.173105	99
Es	0.936332	-1.437822	0.584593	99
Es	0.015494	1.307030	-0.970447	99
Es	-1.806371	0.634029	-0.114112	99
Es	0.970059	-0.189526	0.049807	99
Es	-1.288593	0.489152	0.964968	99
Es	-0.031352	-1.025238	-0.058133	99
Es	-0.592309	0.841822	0.001976	99
Es	-0.997728	-1.147400	-0.826860	99
Es	1.196107	0.416697	0.581768	99
