31
Properties=species:S:1:pos:R:3:Z:I:1 energy=-210.0329694773083 field_type=dipole dipole="0.000000 0.000000 0.000000" charge=0
C	-0.372170	1.181650	0.107500	6
N	-1.246790	-0.001670	-0.006720	7
C	-0.371480	-1.185130	0.093590	6
C	1.012740	-0.666730	-0.039770	6
C	1.012290	0.665950	-0.032120	6
H	-0.511050	1.659750	1.082850	1
H	-0.607850	1.908030	-0.677140	1
H	-1.647930	0.004080	-0.943630	1
H	-0.606520	-1.902340	-0.699210	1
H	-0.509580	-1.674380	1.063020	1
H	1.889600	-1.292490	-0.103730	1
H	1.888250	1.293520	-0.088790	1
Es	-1.246642	-0.001669	-0.006839	99
Es	-0.371836	1.181095	0.107466	99
Es	-0.371145	-1.184573	0.093563	99
Es	1.013064	-0.667102	-0.039796	99
Es	1.012614	0.666323	-0.032142	99
Es	-0.853637	0.486280	0.005403	99
Es	1.013676	-0.000447	-0.022136	99
Es	1.541238	-1.095008	-0.081839	99
Es	-1.427887	0.001734	-0.568009	99
Es	1.540609	1.095198	-0.069300	99
Es	-0.538614	1.670011	-0.416891	99
Es	0.421929	-0.914948	0.015756	99
Es	-0.537464	-1.667366	-0.436276	99
Es	-0.458942	1.499212	0.758302	99
Es	-0.853367	-0.489249	-0.000422	99
Es	0.421001	0.913085	0.026491	99
Es	-0.457810	-1.510160	0.740494	99
Es	-1.533143	-0.003441	0.270334	99
Es	1.016060	-0.000199	-0.059041	99
