34
Properties=species:S:1:pos:R:3:Z:I:1 energy=-211.18301283477967 field_type=dipole dipole="0.000000 0.000000 0.000000" charge=0
C	0.957900	-0.007550	0.008360	6
C	2.471280	0.018680	0.010370	6
C	3.154950	1.017310	0.967480	6
N	4.174480	-0.018980	1.256350	7
C	3.191300	-1.053100	0.855330	6
H	0.589210	-0.864580	-0.564020	1
H	0.558280	0.901610	-0.451850	1
H	0.552250	-0.079030	1.022800	1
H	2.870170	0.081540	-1.012450	1
H	2.564940	1.298830	1.847680	1
H	3.544960	1.927020	0.502150	1
H	4.977920	0.029090	0.628860	1
H	3.611960	-1.893070	0.295410	1
H	2.613310	-1.448370	1.699100	1
Es	4.174606	-0.018974	1.256274	99
Es	3.191500	-1.052536	0.855198	99
Es	3.155169	1.016770	0.967289	99
Es	2.471114	0.018684	0.010259	99
Es	0.958302	-0.007544	0.008379	99
Es	4.590061	0.010861	0.839739	99
Es	2.769194	-0.599284	0.384343	99
Es	3.788964	0.438050	1.114881	99
Es	0.707553	-0.594484	-0.381002	99
Es	2.733931	0.059946	-0.661677	99
Es	3.483123	-1.631908	0.475358	99
Es	1.714141	0.005516	0.008160	99
Es	0.688415	-0.055785	0.695913	99
Es	0.686751	0.614821	-0.304140	99
Es	2.756580	1.195072	1.564178	99
Es	3.425620	1.643740	0.652674	99
Es	2.800520	-1.308093	1.428786	99
Es	3.804993	-0.471228	1.065625	99
Es	2.748279	0.602433	0.449694	99
Es	4.290333	-0.037692	1.638575	99
