34
Properties=species:S:1:pos:R:3:Z:I:1 energy=-211.19146894579663 field_type=dipole dipole="0.000000 0.000000 0.000000" charge=0
C	1.053810	0.150460	0.115530	6
C	2.533260	-0.040170	-0.177520	6
C	3.276300	1.256930	-0.087450	6
C	3.822680	1.739200	1.231390	6
N	4.709710	1.227000	0.190440	7
H	0.521950	-0.802600	0.032610	1
H	0.601800	0.857420	-0.588330	1
H	0.901250	0.541670	1.127000	1
H	2.651050	-0.449370	-1.187270	1
H	2.944650	-0.780490	0.519060	1
H	2.942680	1.988260	-0.814490	1
H	3.709810	1.110810	2.106200	1
H	3.858380	2.804460	1.421030	1
H	5.189770	1.990810	-0.289230	1
Es	4.709563	1.227657	0.190437	99
Es	3.276664	1.256709	-0.087156	99
Es	3.822827	1.738944	1.230765	99
Es	2.533380	-0.039801	-0.177425	99
Es	1.054591	0.150396	0.115391	99
Es	4.934582	1.700442	-0.086470	99
Es	2.932359	0.625707	-0.120896	99
Es	0.752789	0.632396	-0.359404	99
Es	3.845074	2.470223	1.353872	99
Es	3.056080	1.755550	-0.587895	99
Es	4.372387	1.502272	0.676362	99
Es	3.756597	1.312895	1.819679	99
Es	2.613506	-0.316904	-0.861719	99
Es	0.687917	-0.501434	0.060769	99
Es	1.805503	0.072875	-0.030047	99
Es	0.954265	0.416523	0.793008	99
Es	2.808034	-0.532205	0.295114	99
Es	4.173190	1.220861	-0.018239	99
Es	3.343107	1.537232	0.669359	99
Es	4.871338	0.877806	0.224784	99
