31
Properties=species:S:1:pos:R:3:Z:I:1 energy=-209.9956780224515 field_type=dipole dipole="0.000000 0.000000 0.000000" charge=0
C	2.055080	-0.849050	-1.136170	6
C	2.114100	0.203960	-0.309540	6
C	3.246900	1.113810	-0.163640	6
C	3.432050	2.222560	-1.166840	6
N	2.937540	2.499170	0.175980	7
H	1.167760	-1.472120	-1.177330	1
H	2.884800	-1.103810	-1.786890	1
H	1.247500	0.407630	0.318410	1
H	4.129390	0.693390	0.307780	1
H	2.712200	2.331430	-1.968650	1
H	4.437690	2.551600	-1.394640	1
H	3.672230	2.894940	0.762940	1
Es	2.938105	2.499031	0.175916	99
Es	3.246612	1.114153	-0.163752	99
Es	3.431856	2.222280	-1.166077	99
Es	2.114098	0.204112	-0.309485	99
Es	2.055072	-0.848624	-1.135945	99
Es	3.183480	2.465930	-0.415480	99
Es	2.112166	-0.364104	-0.745776	99
Es	3.399991	2.693692	0.489907	99
Es	4.121330	2.444624	-1.320725	99
Es	1.540354	0.355661	0.128030	99
Es	3.847744	0.839159	0.149080	99
Es	2.673038	0.637107	-0.239810	99
Es	1.450111	-1.248033	-1.166746	99
Es	2.947150	2.298818	-1.694880	99
Es	2.630816	-0.994323	-1.555349	99
Es	3.388239	1.513239	-0.814931	99
Es	3.059439	1.906238	0.147272	99
Es	2.564044	2.590863	0.229255	99
Es	2.070719	-0.326800	-0.744927	99
