28
Properties=species:S:1:pos:R:3:Z:I:1 energy=-208.7873893656513 field_type=dipole dipole="0.000000 0.000000 0.000000" charge=0
C	0.989480	-0.009530	-0.070330	6
C	2.189930	-0.016690	-0.031260	6
C	3.620100	-0.023800	0.017620	6
C	4.381150	-0.775280	-1.044030	6
N	4.350080	0.680620	-1.035330	7
H	-0.074310	0.003600	-0.113370	1
H	4.062980	0.023500	1.007470	1
H	3.830390	-1.255010	-1.843980	1
H	5.317660	-1.246060	-0.774630	1
H	5.216940	1.069270	-0.663770	1
Es	4.350303	0.680404	-1.034942	99
Es	3.619751	-0.023687	0.017316	99
Es	4.380478	-0.774493	-1.043524	99
Es	2.190343	-0.016664	-0.031172	99
Es	0.986956	-0.009645	-0.070978	99
Es	4.848464	0.858467	-0.780343	99
Es	0.633776	-0.006766	-0.065789	99
Es	3.896601	0.015655	0.685888	99
Es	5.011697	-1.087035	-0.850603	99
Es	4.014215	0.473585	-0.535707	99
Es	1.301227	0.000160	-0.060974	99
Es	2.885070	-0.019617	-0.036812	99
Es	4.001951	-1.082037	-1.573493	99
Es	3.901073	-0.576409	-0.428495	99
Es	4.449944	0.045060	-1.091159	99
Es	4.145197	0.871473	-1.299871	99
Es	1.604158	-0.017035	-0.056723	99
Es	1.577318	-0.028316	-0.046534	99
