25
Properties=species:S:1:pos:R:3:Z:I:1 energy=-207.66044647574117 field_type=dipole dipole="0.000000 0.000000 0.000000" charge=0
C	1.000000	0.000000	0.000000	6
C	2.190160	0.000000	0.000000	6
C	3.634160	0.000000	0.000000	6
C	4.116180	1.361170	0.000000	6
N	4.500390	2.446160	0.000000	7
H	-0.066190	0.006740	0.000000	1
H	4.012410	-0.533830	-0.878620	1
H	4.012410	-0.533820	0.878630	1
Es	4.501305	2.448899	0.000000	99
Es	3.634162	0.000205	0.000000	99
Es	4.115807	1.360592	-0.000000	99
Es	2.191086	-0.000120	0.000000	99
Es	0.998243	0.000194	-0.000000	99
Es	4.336308	1.894210	0.000001	99
Es	2.893610	0.006167	-0.000000	99
Es	0.660753	0.017935	0.000000	99
Es	1.329451	0.015845	-0.000000	99
Es	3.876371	0.732303	-0.000001	99
Es	3.857128	-0.327595	-0.560200	99
Es	3.857127	-0.327589	0.560205	99
Es	4.614476	2.774204	0.000000	99
Es	4.283105	1.972051	-0.000002	99
Es	4.327233	1.958635	0.000001	99
Es	1.601045	-0.010611	0.006978	99
Es	1.601047	-0.010616	-0.006978	99
