35
Properties=species:S:1:pos:R:3:Z:I:1 energy=-195.20121477280333 field_type=dipole dipole="0.000000 0.000000 0.000000" charge=0
C	0.873640	0.029970	-0.250170	6
C	2.348710	-0.000090	0.048230	6
C	2.687060	-0.028010	1.514510	6
C	3.250330	-0.753720	-0.903520	6
C	3.276670	0.749530	-0.880970	6
H	0.673020	0.051500	-1.327110	1
H	0.413060	0.918590	0.194390	1
H	0.382770	-0.856730	0.164640	1
H	3.768790	-0.050190	1.685410	1
H	2.254380	-0.915220	1.988340	1
H	2.286650	0.859910	2.014590	1
H	2.807880	-1.239840	-1.766420	1
H	4.108140	-1.281540	-0.501210	1
H	4.152220	1.234630	-0.463480	1
H	2.852050	1.276530	-1.728560	1
Es	2.348992	-0.000091	0.047941	99
Es	3.250319	-0.752916	-0.903483	99
Es	3.276631	0.748727	-0.880956	99
Es	0.874059	0.029963	-0.250184	99
Es	2.687062	-0.028003	1.514089	99
Es	3.810477	-1.108741	-0.624151	99
Es	0.749343	0.044497	-0.988470	99
Es	2.409620	0.577687	1.842307	99
Es	3.848744	1.076161	-0.591391	99
Es	2.778882	0.581034	-0.374741	99
Es	2.982747	1.104052	-1.433986	99
Es	1.622903	0.014849	-0.104793	99
Es	0.573019	0.635562	0.057001	99
Es	3.428281	-0.043013	1.618580	99
Es	2.387656	-0.632644	1.824388	99
Es	0.552338	-0.574950	0.036762	99
Es	2.944435	-1.080980	-1.466804	99
Es	2.521384	-0.014000	0.769274	99
Es	3.361151	-0.002303	-0.992643	99
Es	2.758494	-0.583065	-0.392331	99
