25
Properties=species:S:1:pos:R:3:Z:I:1 energy=-207.65381465748726 field_type=dipole dipole="0.000000 0.000000 0.000000" charge=0
C	1.000000	0.000000	0.000000	6
C	2.444000	0.000000	0.000000	6
C	3.634160	0.000000	0.000000	6
C	5.170160	-0.000000	-0.000000	6
N	6.330380	-0.000010	-0.000010	7
H	0.596420	1.014290	0.069060	1
H	0.617350	-0.569480	0.852890	1
H	0.603650	-0.461270	-0.909390	1
Es	6.331698	-0.000010	-0.000010	99
Es	5.168731	-0.000002	0.000002	99
Es	3.636879	0.000006	-0.000005	99
Es	2.448509	0.000009	-0.000006	99
Es	1.000168	-0.000021	0.000016	99
Es	5.066357	0.000068	-0.000057	99
Es	2.161896	0.001424	-0.001064	99
Es	3.346099	0.000171	-0.000142	99
Es	4.370675	-0.000247	0.000187	99
Es	0.788109	-0.295413	-0.584162	99
Es	0.784177	0.651373	0.043804	99
Es	0.795540	-0.365190	0.547382	99
Es	6.657146	0.000097	-0.000096	99
Es	5.789620	0.000001	-0.000060	99
Es	5.789940	-0.000089	0.000107	99
Es	3.112717	-0.000893	0.001324	99
Es	3.114412	0.000952	-0.001365	99
