37
Properties=species:S:1:pos:R:3:Z:I:1 energy=-212.40075025316293 field_type=dipole dipole="0.000000 0.000000 0.000000" charge=0
C	0.970200	-0.079790	0.060600	6
C	2.489240	0.015520	0.088870	6
C	3.009650	1.459820	0.030250	6
C	2.592630	2.292150	1.242500	6
N	4.472850	1.427120	-0.057660	7
H	0.661290	-1.128780	0.002280	1
H	0.558790	0.442670	-0.809330	1
H	0.523340	0.345140	0.964580	1
H	2.880490	-0.545400	-0.769350	1
H	2.859860	-0.487950	0.990150	1
H	2.628940	1.942190	-0.878130	1
H	2.909190	1.822240	2.179600	1
H	1.506970	2.422300	1.276920	1
H	3.034500	3.293940	1.200870	1
H	4.858910	1.000910	0.784470	1
H	4.835960	2.379480	-0.082810	1
Es	4.472664	1.427270	-0.057381	99
Es	3.009968	1.459655	0.030296	99
Es	2.488978	0.015955	0.088878	99
Es	2.592798	2.291784	1.241963	99
Es	0.970833	-0.079738	0.060600	99
Es	4.660895	1.220947	0.450080	99
Es	1.717861	-0.022137	0.086436	99
Es	1.856681	2.376378	1.263590	99
Es	0.761760	-0.800384	0.018218	99
Es	2.756327	1.789158	-0.587530	99
Es	4.653860	1.988609	-0.022862	99
Es	0.671329	0.213222	0.673144	99
Es	0.695258	0.282817	-0.526055	99
Es	2.783962	1.878199	0.648331	99
Es	2.808428	1.959510	1.875315	99
Es	2.904430	2.979017	1.209857	99
Es	3.888482	1.465799	0.031350	99
Es	2.758510	-0.359022	-0.489827	99
Es	2.746246	-0.312223	0.698898	99
Es	2.740733	0.742042	0.071647	99
Es	4.577772	1.217785	-0.378463	99
