34
Properties=species:S:1:pos:R:3:Z:I:1 energy=-211.2083410525482 field_type=dipole dipole="0.000000 0.000000 0.000000" charge=0
C	0.897680	-0.090540	-0.101450	6
C	2.414300	0.036010	0.029170	6
N	3.079220	-0.705930	-1.037720	7
C	2.841070	1.472970	-0.038530	6
C	3.431270	2.135930	0.966700	6
H	0.391310	0.447700	0.707830	1
H	0.586650	-1.139870	-0.046120	1
H	0.534380	0.317960	-1.051900	1
H	2.719100	-0.401620	0.987600	1
H	2.712070	-0.408030	-1.939520	1
H	2.842450	-1.692980	-0.954800	1
H	2.656410	2.003330	-0.969900	1
H	3.649040	1.656130	1.915110	1
H	3.721200	3.175240	0.850100	1
Es	3.078912	-0.705940	-1.037700	99
Es	2.414486	0.036249	0.028880	99
Es	2.841142	1.473199	-0.038487	99
Es	3.431048	2.135691	0.965903	99
Es	0.898297	-0.090470	-0.101382	99
Es	2.818864	-0.542218	-1.533100	99
Es	3.177794	1.839192	0.542738	99
Es	0.665256	0.193308	-0.751977	99
Es	2.633961	0.782494	0.010871	99
Es	2.701576	1.807166	-0.685712	99
Es	2.887508	-1.260182	-0.988272	99
Es	3.614612	2.812225	0.873450	99
Es	2.757924	-0.411141	-0.616864	99
Es	3.552149	1.791209	1.550772	99
Es	0.555789	0.273757	0.444405	99
Es	0.694091	-0.815765	-0.068894	99
Es	2.617017	-0.262660	0.668909	99
Es	1.649787	-0.012310	-0.029263	99
Es	3.473173	-0.652272	-1.024025	99
Es	3.126959	1.827145	0.488195	99
