31
Properties=species:S:1:pos:R:3:Z:I:1 energy=-209.9996360878809 field_type=dipole dipole="0.000000 0.000000 0.000000" charge=0
C	0.992360	-0.041010	-0.013300	6
C	2.520000	0.000000	0.000000	6
N	3.052150	-0.704450	-1.163190	7
C	3.002020	1.361170	0.000000	6
C	3.399300	2.483070	0.000000	6
H	0.582890	0.470910	0.864140	1
H	0.627420	-1.073170	0.002990	1
H	0.581130	0.450200	-0.902340	1
H	2.874050	-0.514520	0.900340	1
H	2.745330	-0.225720	-2.008670	1
H	2.652040	-1.639060	-1.204770	1
H	3.763430	3.484260	-0.003080	1
Es	3.051957	-0.704340	-1.163020	99
Es	2.520298	0.000284	-0.000281	99
Es	3.001525	1.360020	0.000137	99
Es	0.993189	-0.040924	-0.013279	99
Es	3.399896	2.484344	-0.000055	99
Es	2.771912	-1.217523	-1.180623	99
Es	2.777237	0.728153	0.007339	99
Es	3.438720	2.733483	-0.024150	99
Es	0.721190	0.305101	0.578402	99
Es	2.758536	-0.327975	0.600999	99
Es	3.308767	2.318919	-0.030273	99
Es	2.777959	-0.408891	-0.709740	99
Es	1.772232	0.000675	-0.007391	99
Es	2.827487	-0.441452	-1.617550	99
Es	0.752607	-0.752441	-0.003864	99
Es	0.725758	0.292848	-0.617063	99
Es	3.446279	-0.710327	-1.143342	99
Es	3.201298	1.924577	0.049507	99
Es	3.260176	1.921193	-0.006248	99
