34
Properties=species:S:1:pos:R:3:Z:I:1 energy=-211.17805162430562 field_type=dipole dipole="0.000000 0.000000 0.000000" charge=0
C	1.068100	-0.003810	0.067900	6
N	2.522880	0.030370	-0.020450	7
C	3.082210	1.029950	0.926380	6
C	4.173990	-0.004650	1.261490	6
C	3.124520	-1.041830	0.814540	6
H	0.681100	-0.855040	-0.502950	1
H	0.646070	0.904250	-0.376270	1
H	0.688600	-0.085030	1.093940	1
H	2.446860	1.290240	1.782870	1
H	3.441370	1.951630	0.459450	1
H	5.056330	0.048160	0.613070	1
H	4.491310	-0.054300	2.305450	1
H	3.520360	-1.892530	0.252520	1
H	2.503550	-1.418200	1.637510	1
Es	2.522725	0.030326	-0.019725	99
Es	3.124697	-1.041146	0.814349	99
Es	3.082409	1.029300	0.926117	99
Es	1.068503	-0.003804	0.067897	99
Es	4.173472	-0.004650	1.261328	99
Es	2.693251	0.478947	0.397427	99
Es	4.387312	-0.038442	1.969870	99
Es	2.711900	-0.453976	0.346831	99
Es	0.780185	0.621203	-0.228181	99
Es	2.635253	1.195414	1.508169	99
Es	3.317456	1.666467	0.606926	99
Es	1.904681	0.013898	0.055081	99
Es	0.803456	-0.590739	-0.315432	99
Es	0.821773	-0.059878	0.782187	99
Es	2.686735	-1.286983	1.374487	99
Es	4.770071	0.030738	0.829741	99
Es	3.706393	-0.590997	1.073145	99
Es	3.682198	0.578473	1.136170	99
Es	3.385148	-1.630047	0.429482	99
Es	2.682020	0.053138	-0.372954	99
