34
Properties=species:S:1:pos:R:3:Z:I:1 energy=-211.1889019746872 field_type=dipole dipole="0.000000 0.000000 0.000000" charge=0
N	1.045650	0.008570	0.081520	7
C	2.493140	0.029730	-0.070100	6
C	3.093170	1.061510	0.910290	6
C	4.157060	-0.007810	1.246840	6
C	3.114860	-1.067520	0.820340	6
H	0.599060	-0.784760	-0.376800	1
H	0.584410	0.840320	-0.284980	1
H	2.871560	0.077750	-1.095680	1
H	2.466840	1.329850	1.770200	1
H	3.478890	1.978040	0.455550	1
H	5.040970	0.028340	0.599370	1
H	4.478830	-0.048510	2.290310	1
H	3.519730	-1.934490	0.291180	1
H	2.495560	-1.420010	1.654590	1
Es	1.045757	0.008604	0.080926	99
Es	2.492626	0.029702	-0.069593	99
Es	4.156416	-0.007813	1.246811	99
Es	3.093508	1.061036	0.909897	99
Es	3.115194	-1.067008	0.819987	99
Es	0.819692	-0.429149	-0.236684	99
Es	3.681991	0.595052	1.118895	99
Es	2.735095	0.624736	0.379004	99
Es	2.747890	-0.595583	0.327288	99
Es	2.697664	-1.290651	1.372045	99
Es	3.389134	-1.668289	0.461324	99
Es	0.811712	0.474902	-0.185843	99
Es	1.600501	0.021219	-0.060448	99
Es	2.751616	0.062224	-0.765635	99
Es	2.671415	1.229083	1.478202	99
Es	4.748016	0.016847	0.804741	99
Es	3.694610	-0.607780	1.068121	99
Es	4.383571	-0.035442	1.957968	99
Es	3.354170	1.695742	0.602811	99
Es	1.003799	-0.013321	0.470055	99
