28
Properties=species:S:1:pos:R:3:Z:I:1 energy=-208.8645568608651 field_type=dipole dipole="0.000000 0.000000 0.000000" charge=0
N	0.994420	0.072590	-0.186950	7
C	2.150040	0.030920	-0.100140	6
C	3.581370	-0.020630	0.005730	6
C	4.374590	-0.752930	-1.048510	6
C	4.423860	0.746350	-0.983610	6
H	3.957200	-0.077010	1.022910	1
H	3.846550	-1.207110	-1.880500	1
H	5.250970	-1.305340	-0.730320	1
H	5.333650	1.210800	-0.621590	1
H	3.929110	1.304250	-1.771800	1
Es	0.992412	0.072666	-0.187173	99
Es	3.581098	-0.020607	0.005410	99
Es	2.150631	0.030894	-0.099991	99
Es	4.374316	-0.752166	-1.048012	99
Es	4.423535	0.745566	-0.983179	99
Es	1.542742	0.055089	-0.198169	99
Es	4.082310	1.106550	-1.494540	99
Es	2.827127	0.006151	-0.041017	99
Es	4.011620	-1.044553	-1.587642	99
Es	3.820477	-0.057334	0.672132	99
Es	3.873179	-0.548229	-0.443881	99
Es	4.954068	-1.125703	-0.831505	99
Es	0.657740	0.085635	-0.233167	99
Es	5.025898	1.060324	-0.736976	99
Es	3.908403	0.523549	-0.397488	99
Es	4.504284	-0.000803	-1.153312	99
Es	1.523882	0.051326	-0.097035	99
Es	1.493764	0.054626	-0.150478	99
