34
Properties=species:S:1:pos:R:3:Z:I:1 energy=-211.20917005854224 field_type=dipole dipole="0.000000 0.000000 0.000000" charge=0
N	0.938590	-0.059810	-0.180850	7
C	2.382440	-0.186500	0.011460	6
C	3.071270	1.181600	-0.047360	6
C	4.555630	1.062240	0.162470	6
C	5.475060	1.423750	-0.741430	6
H	0.518260	-0.988490	-0.179070	1
H	0.751770	0.334190	-1.102370	1
H	2.790100	-0.849730	-0.760240	1
H	2.567030	-0.659680	0.982740	1
H	2.663930	1.837220	0.732410	1
H	2.857610	1.662720	-1.010200	1
H	4.884860	0.668420	1.122160	1
H	5.197010	1.831510	-1.708340	1
H	6.534660	1.321760	-0.527100	1
Es	0.938360	-0.059517	-0.180520	99
Es	2.382156	-0.185841	0.011318	99
Es	4.555731	1.062164	0.162656	99
Es	3.071809	1.181503	-0.047231	99
Es	5.475001	1.423851	-0.741015	99
Es	0.865033	0.130190	-0.736900	99
Es	3.836503	1.124945	0.043298	99
Es	5.266933	1.704073	-1.373602	99
Es	2.668328	-0.637312	-0.515279	99
Es	2.923197	1.493303	-0.692455	99
Es	0.733934	-0.612748	-0.219749	99
Es	5.038590	1.300197	-0.314973	99
Es	1.520578	-0.135606	-0.146460	99
Es	6.175176	1.351568	-0.584011	99
Es	2.508009	-0.512256	0.672320	99
Es	2.800352	1.611330	0.471187	99
Es	4.769324	0.787040	0.821821	99
Es	2.748000	0.513194	-0.021993	99
Es	0.787000	0.170653	0.107252	99
Es	5.037696	1.192136	-0.329593	99
