30
Properties=species:S:1:pos:R:3:Z:I:1 energy=-229.8883294435533 field_type=dipole dipole="0.000000 0.000000 0.000000" charge=0
C	0.961240	-0.004830	-0.026980	6
C	2.450100	0.053220	-0.152210	6
C	3.175150	1.128400	0.182050	6
C	4.645290	1.121220	0.034040	6
O	5.319860	2.097760	0.336050	8
H	0.675870	-0.818730	0.646360	1
H	0.512500	-0.194640	-1.006700	1
H	0.542460	0.926780	0.366130	1
H	2.930370	-0.843360	-0.538170	1
H	2.739610	2.041940	0.569990	1
H	5.093380	0.194600	-0.360080	1
Es	5.319468	2.097480	0.335983	99
Es	4.645509	1.120466	0.033734	99
Es	2.450022	0.053142	-0.152232	99
Es	0.961892	-0.004808	-0.027036	99
Es	3.175190	1.128354	0.182029	99
Es	5.492342	2.297191	0.394295	99
Es	2.812609	0.593331	0.015873	99
Es	0.781446	-0.543443	0.419961	99
Es	4.936645	0.478694	-0.237333	99
Es	2.787183	-0.553604	-0.414624	99
Es	3.912332	1.105618	0.100591	99
Es	5.051572	1.702088	0.213185	99
Es	0.672947	-0.128972	-0.677872	99
Es	2.859742	1.733559	0.441692	99
Es	0.689226	0.607905	0.231236	99
Es	1.721756	0.049164	-0.081757	99
Es	5.105821	1.799804	0.244715	99
Es	5.251194	2.061703	0.329223	99
Es	2.935311	0.656237	0.027496	99
