30
Properties=species:S:1:pos:R:3:Z:I:1 energy=-229.8448898891375 field_type=dipole dipole="0.000000 0.000000 0.000000" charge=0
C	1.000000	0.000000	0.000000	6
C	2.444000	0.000000	0.000000	6
C	3.634160	0.000000	0.000000	6
C	5.078160	0.000000	0.000000	6
O	5.567640	1.335020	-0.024590	8
H	0.605970	1.020870	0.011680	1
H	0.605910	-0.520530	0.878250	1
H	0.605920	-0.500290	-0.889930	1
H	5.476980	-0.524680	-0.873420	1
H	5.476280	-0.487390	0.894510	1
H	5.075940	1.795870	-0.725650	1
Es	5.567557	1.335105	-0.024969	99
Es	5.077076	0.000293	-0.000006	99
Es	1.001330	-0.000018	0.000015	99
Es	2.443287	-0.000036	-0.000043	99
Es	3.634456	0.000117	-0.000014	99
Es	5.817652	1.425160	0.137398	99
Es	1.839076	-0.008794	-0.012861	99
Es	4.310318	-0.006878	0.010975	99
Es	2.917479	-0.030544	-0.014653	99
Es	5.298611	1.533869	-0.387007	99
Es	5.320505	-0.350897	-0.589150	99
Es	0.775784	0.670521	0.006343	99
Es	5.331014	-0.320767	0.589527	99
Es	0.771961	-0.328313	-0.583194	99
Es	0.771259	-0.341645	0.574874	99
Es	5.343364	0.866195	-0.037647	99
Es	5.522597	1.326198	-0.026072	99
Es	3.074457	0.033284	-0.011508	99
Es	3.036274	0.008438	0.020075	99
