39
Properties=species:S:1:pos:R:3:Z:I:1 energy=-233.05273581475893 field_type=dipole dipole="0.000000 0.000000 0.000000" charge=0
C	0.986910	-0.090090	0.008720	6
C	2.506390	-0.037460	0.015020	6
C	3.017660	1.403100	-0.000660	6
C	4.545530	1.451440	0.000970	6
C	5.032290	2.838480	0.001100	6
C	5.433780	3.971300	0.002040	6
H	0.643640	-1.129270	0.023630	1
H	0.581550	0.388680	-0.888380	1
H	0.572960	0.417000	0.886110	1
H	2.888410	-0.578140	-0.858710	1
H	2.880020	-0.555150	0.906170	1
H	2.628000	1.941000	0.873250	1
H	2.631170	1.921670	-0.887570	1
H	4.934580	0.927730	-0.880090	1
H	4.933300	0.928630	0.883100	1
H	5.789260	4.975350	0.003070	1
Es	4.545711	1.452087	0.000972	99
Es	5.032065	2.837992	0.001099	99
Es	3.018030	1.402858	-0.000651	99
Es	2.506335	-0.037240	0.015018	99
Es	5.434008	3.972397	0.002042	99
Es	0.987694	-0.089805	0.008721	99
Es	4.810288	1.129148	0.591434	99
Es	0.714347	0.259052	0.596257	99
Es	5.502010	4.288147	0.002687	99
Es	2.761321	1.761449	0.581103	99
Es	2.771561	-0.401860	-0.579369	99
Es	5.283033	3.695997	0.001946	99
Es	2.763349	1.748791	-0.590849	99
Es	4.812081	2.200096	0.001012	99
Es	3.811865	1.457629	0.000274	99
Es	4.811542	1.128358	-0.588994	99
Es	0.756939	-0.795030	0.018886	99
Es	0.720060	0.240156	-0.592271	99
Es	1.745152	-0.053904	0.011737	99
Es	2.759441	0.683162	0.006713	99
Es	2.766117	-0.386452	0.621348	99
Es	5.271470	3.410975	-0.033157	99
Es	5.273415	3.410258	0.035718	99
