38
Properties=species:S:1:pos:R:3:Z:I:1 energy=-249.05077466221445 field_type=dipole dipole="0.000000 0.000000 0.000000" charge=0
C	0.943420	0.000810	0.985390	6
C	0.298740	0.986390	-0.032640	6
C	-1.208700	0.775460	0.074480	6
C	-1.221720	-0.750170	0.085500	6
C	0.281780	-0.988270	-0.018070	6
N	0.791360	-0.012890	-1.073290	7
H	2.039450	-0.008290	1.020750	1
H	0.552420	0.011690	2.006700	1
H	0.697360	1.998930	-0.101030	1
H	-1.622590	1.198610	0.994730	1
H	-1.748790	1.186410	-0.784160	1
H	-1.768790	-1.164080	-0.767220	1
H	-1.642850	-1.152760	1.011650	1
H	0.663020	-2.008400	-0.071730	1
H	0.259470	-0.014720	-1.943340	1
Es	0.790702	-0.012886	-1.073492	99
Es	0.281860	-0.988517	-0.018116	99
Es	0.298824	0.986634	-0.032689	99
Es	-1.207883	0.774852	0.074371	99
Es	-1.220893	-0.749578	0.085383	99
Es	0.943336	0.000806	0.984784	99
Es	0.538527	0.435041	-0.695814	99
Es	-0.445227	0.929888	0.012068	99
Es	0.634043	0.570857	0.551407	99
Es	-0.461051	-0.918456	0.025599	99
Es	-1.486094	1.061738	0.694989	99
Es	-1.504000	-1.022627	0.709996	99
Es	0.561576	1.685712	-0.084252	99
Es	0.433037	-0.013363	-1.556390	99
Es	-1.591766	-1.031165	-0.487596	99
Es	-1.574030	1.054479	-0.502626	99
Es	1.658052	-0.005141	1.008313	99
Es	0.532631	-1.692679	-0.059479	99
Es	-1.266072	0.013105	0.082998	99
Es	0.671273	0.008237	1.677016	99
Es	0.530927	-0.450841	-0.689297	99
Es	0.624210	-0.570096	0.559802	99
Es	1.185657	-0.016549	-1.110891	99
