35
Properties=species:S:1:pos:R:3:Z:I:1 energy=-247.870850346852 field_type=dipole dipole="0.000000 0.000000 0.000000" charge=0
C	0.351290	1.449710	0.351920	6
C	-0.762700	0.790710	-0.410520	6
C	-1.360680	-0.437120	0.096060	6
C	-0.461950	-1.421530	0.207120	6
C	0.876030	-0.905430	-0.233030	6
N	0.666680	0.493160	-0.706920	7
H	0.571160	2.486540	0.126710	1
H	0.544410	1.162490	1.378630	1
H	-1.290100	1.340750	-1.179530	1
H	-2.409540	-0.524460	0.343300	1
H	-0.652090	-2.423650	0.556000	1
H	1.605890	-0.942210	0.582810	1
H	1.252980	-1.509260	-1.064710	1
Es	0.666284	0.492760	-0.706259	99
Es	-0.762283	0.790366	-0.410533	99
Es	0.350911	1.449028	0.351220	99
Es	0.875562	-0.905279	-0.232972	99
Es	-0.461730	-1.422601	0.207409	99
Es	-1.360969	-0.437051	0.096098	99
Es	0.601807	0.890350	-0.184871	99
Es	-0.511862	-2.044779	0.418642	99
Es	-2.050218	-0.477664	0.245120	99
Es	0.503200	2.138827	0.189212	99
Es	-1.096660	0.148745	-0.121682	99
Es	0.726548	-0.085743	-0.446864	99
Es	0.104561	-1.235406	0.029945	99
Es	1.352897	-0.920396	0.311289	99
Es	0.489960	1.246655	1.032458	99
Es	1.135362	-1.305118	-0.786523	99
Es	-0.871049	-0.863261	0.358311	99
Es	-1.125837	1.175479	-0.918735	99
Es	-0.362556	1.190521	0.097719	99
Es	0.840229	0.612788	-1.031069	99
Es	0.062282	0.541056	-0.648507	99
Es	-0.957747	-0.982191	-0.053773	99
