42
Properties=species:S:1:pos:R:3:Z:I:1 energy=-234.24775103358715 field_type=dipole dipole="0.000000 0.000000 0.000000" charge=0
C	3.061590	-1.167390	-0.496710	6
C	2.472830	0.062250	0.175420	6
C	3.440840	1.206560	0.168250	6
C	3.533320	2.122240	-1.027040	6
C	2.928770	2.623610	0.259230	6
C	3.652680	3.630210	1.086550	6
H	2.346570	-1.995470	-0.471490	1
H	3.977910	-1.490380	0.008630	1
H	3.311280	-0.961220	-1.542790	1
H	2.217320	-0.179630	1.213200	1
H	1.539260	0.336420	-0.329830	1
H	4.359540	0.964910	0.692880	1
H	2.867330	1.951740	-1.865690	1
H	4.516300	2.478840	-1.314430	1
H	1.856530	2.785460	0.280890	1
H	4.736890	3.480210	1.063090	1
H	3.322600	3.567590	2.127900	1
H	3.440500	4.639600	0.721280	1
Es	2.928718	2.623870	0.259182	99
Es	3.440496	1.206422	0.168351	99
Es	3.533093	2.122202	-1.026330	99
Es	2.473084	0.062568	0.175360	99
Es	3.652416	3.629646	1.086176	99
Es	3.061288	-1.166721	-0.496343	99
Es	3.213032	2.556723	-0.475610	99
Es	2.779829	-0.524825	-0.164476	99
Es	3.508385	4.315957	0.836920	99
Es	1.843194	0.260970	-0.171626	99
Es	4.175678	2.349808	-1.209577	99
Es	4.040940	1.055732	0.504868	99
Es	2.298614	-0.096873	0.878861	99
Es	2.234481	2.714576	0.273666	99
Es	3.682250	-1.378660	-0.155960	99
Es	3.431434	3.582620	1.789621	99
Es	2.571130	-1.739494	-0.481884	99
Es	4.382718	3.523395	1.068552	99
Es	3.231345	-1.027367	-1.194789	99
Es	3.093885	2.010063	-1.579228	99
Es	3.287088	3.092249	0.651675	99
Es	2.976807	0.668501	0.165785	99
Es	3.568976	1.498300	-0.570668	99
Es	3.117241	1.880463	0.444049	99
