31
Properties=species:S:1:pos:R:3:Z:I:1 energy=-262.7804441548828 field_type=dipole dipole="0.000000 0.000000 0.000000" charge=0
C	-0.752160	1.162630	0.008410	6
C	0.623290	1.182470	0.025200	6
N	1.382900	0.072090	0.053740	7
C	0.711660	-1.090580	0.065130	6
N	-0.622950	-1.232090	0.050800	7
C	-1.329430	-0.086670	0.022380	6
H	-1.341430	2.068320	-0.014510	1
H	1.171750	2.119580	0.016150	1
H	1.302450	-1.999530	0.088220	1
H	-2.408730	-0.207040	0.010940	1
Es	-0.623555	-1.232897	0.050806	99
Es	1.383885	0.072316	0.053748	99
Es	0.712054	-1.091187	0.065145	99
Es	-1.329347	-0.086842	0.022384	99
Es	0.623413	1.182323	0.025204	99
Es	-0.752575	1.163266	0.008394	99
Es	0.009658	-1.118351	0.056784	99
Es	-0.801284	-1.582604	0.054537	99
Es	-1.034516	0.525476	0.015658	99
Es	-2.047362	-0.161836	0.014676	99
Es	1.080817	-1.658541	0.079533	99
Es	0.983766	1.807895	0.019072	99
Es	-0.055844	1.161716	0.017070	99
Es	-1.147509	1.770678	-0.006955	99
Es	0.981176	0.555302	0.040395	99
Es	-0.901535	-0.668653	0.037662	99
Es	1.031658	0.040928	0.049881	99
Es	1.775648	0.092697	0.058323	99
Es	-0.451316	-0.924070	0.047722	99
Es	1.022098	-0.460000	0.058266	99
Es	-0.541609	0.837955	0.016609	99
