37
Properties=species:S:1:pos:R:3:Z:I:1 energy=-265.0239243246263 field_type=dipole dipole="0.000000 0.000000 0.000000" charge=0
C	0.192710	0.929100	-0.232410	6
N	-0.765420	-0.085090	0.179770	7
C	0.639030	-0.487990	0.036710	6
C	1.402710	-0.896010	1.287830	6
C	1.297270	-2.281560	1.878080	6
N	2.497610	-1.865470	1.168790	7
H	0.136440	1.267500	-1.259240	1
H	0.421450	1.691580	0.499670	1
H	-1.308420	-0.428520	-0.614400	1
H	0.847520	-1.093280	-0.845700	1
H	1.576540	-0.095130	2.004410	1
H	0.664380	-3.002440	1.375140	1
H	1.370120	-2.390550	2.952680	1
H	3.247470	-1.637060	1.823280	1
Es	2.497572	-1.865246	1.169374	99
Es	-0.765323	-0.085138	0.179425	99
Es	0.638736	-0.487716	0.036969	99
Es	1.402964	-0.896553	1.287728	99
Es	0.192542	0.928482	-0.232260	99
Es	1.297655	-2.281095	1.877747	99
Es	-0.235461	-0.352313	0.131536	99
Es	2.009752	-2.093493	1.528238	99
Es	1.523594	-0.341166	1.762720	99
Es	0.636613	0.299159	-0.126700	99
Es	0.334733	1.441689	0.264023	99
Es	0.766027	-0.908052	-0.547742	99
Es	1.349196	-2.348465	2.613561	99
Es	-0.402943	0.403370	-0.046204	99
Es	-1.029948	-0.280179	-0.310565	99
Es	1.019721	-0.697568	0.659948	99
Es	0.158567	1.150863	-0.936942	99
Es	-0.922301	-0.076453	0.536686	99
Es	2.890321	-1.708924	1.578806	99
Es	2.574473	-1.995984	0.810880	99
Es	0.885440	-2.771032	1.533972	99
Es	2.144769	-1.412892	1.184903	99
Es	1.137148	-1.564911	1.642675	99
