34
Properties=species:S:1:pos:R:3:Z:I:1 energy=-263.8776102408143 field_type=dipole dipole="0.000000 0.000000 0.000000" charge=0
C	0.485480	1.462850	0.334260	6
C	1.013280	0.297590	-0.435300	6
C	0.983940	-1.085050	0.153280	6
N	-0.462580	-1.387850	0.330150	7
C	-1.071760	-0.342970	-0.144990	6
N	-0.380630	0.750690	-0.611500	7
H	0.737800	2.460350	0.003160	1
H	0.206690	1.349310	1.373550	1
H	1.626830	0.428570	-1.312250	1
H	1.496980	-1.120550	1.119030	1
H	1.431120	-1.815700	-0.527510	1
H	-2.166950	-0.262820	-0.229200	1
Es	-0.380317	0.750410	-0.611595	99
Es	-0.462217	-1.388104	0.330176	99
Es	-1.072020	-0.342823	-0.145101	99
Es	0.485236	1.462218	0.333728	99
Es	1.012963	0.297656	-0.435739	99
Es	0.983555	-1.084685	0.153160	99
Es	-0.129527	1.033877	-0.158085	99
Es	-0.735326	-0.867724	0.059974	99
Es	1.015906	-0.353087	-0.133775	99
Es	0.655817	2.129075	0.106926	99
Es	0.941633	0.888458	0.073720	99
Es	-1.738498	-0.291507	-0.190574	99
Es	1.436342	0.395199	-1.018912	99
Es	-0.690440	0.245033	-0.336206	99
Es	1.282665	-1.569655	-0.313633	99
Es	0.296689	1.389135	1.025011	99
Es	-0.585358	-1.721237	0.484980	99
Es	1.322927	-1.111762	0.797355	99
Es	-0.481444	0.934826	-0.930128	99
Es	0.164152	0.492619	-0.584767	99
Es	-0.673321	-0.974915	0.175507	99
Es	0.132104	-1.222383	0.251470	99
