34
Properties=species:S:1:pos:R:3:Z:I:1 energy=-263.8794298954375 field_type=dipole dipole="0.000000 0.000000 0.000000" charge=0
C	0.266340	-1.402160	0.062940	6
N	-1.025340	-0.824690	-0.311040	7
N	-1.343340	0.456700	0.015570	7
C	-0.337570	1.274740	0.078230	6
C	1.092480	0.922570	-0.080820	6
C	1.364800	-0.387950	-0.045790	6
H	0.479310	-2.242510	-0.605400	1
H	0.229040	-1.786300	1.088060	1
H	-1.790240	-1.461300	-0.086860	1
H	-0.534920	2.337180	0.295540	1
H	1.833420	1.704080	-0.153280	1
H	2.388330	-0.741900	-0.097180	1
Es	-1.343110	0.456257	0.015379	99
Es	-1.025481	-0.823992	-0.312346	99
Es	0.266507	-1.401520	0.062888	99
Es	-0.337467	1.275018	0.078294	99
Es	1.364892	-0.388070	-0.045811	99
Es	1.092427	0.922886	-0.080823	99
Es	-0.495377	-1.031636	-0.078858	99
Es	-0.836002	0.763386	0.076300	99
Es	1.204185	0.264053	-0.175823	99
Es	0.360581	1.085766	-0.010487	99
Es	-1.127748	-0.190420	-0.092319	99
Es	-1.448781	-1.174597	-0.111117	99
Es	1.595239	1.438043	-0.112184	99
Es	-0.460935	1.986961	0.216830	99
Es	0.242415	-1.658983	0.752507	99
Es	0.875048	-0.834658	0.008924	99
Es	2.008521	-0.665179	-0.094193	99
Es	0.401592	-1.964862	-0.380036	99
Es	-1.720535	0.518773	0.071775	99
Es	-0.867466	0.833782	0.010370	99
Es	1.198179	0.324597	0.038306	99
Es	-0.993267	-0.769723	-0.678875	99
