35
Properties=species:S:1:pos:R:3:Z:I:1 energy=-247.91433776991295 field_type=dipole dipole="0.000000 0.000000 0.000000" charge=0
C	1.031130	0.006410	-0.064430	6
C	2.521020	-0.002520	-0.013160	6
C	3.307440	-0.709050	-1.082220	6
C	3.324090	0.801340	-1.011970	6
C	4.517810	1.469160	-0.574730	6
N	5.482030	2.009440	-0.223430	7
H	0.635050	0.767140	0.616430	1
H	0.637320	-0.967360	0.246450	1
H	0.653700	0.220910	-1.070170	1
H	2.883340	-0.082850	1.007060	1
H	2.771960	-1.170550	-1.904290	1
H	4.193590	-1.256470	-0.777570	1
H	2.775830	1.325180	-1.787960	1
Es	5.483560	2.010241	-0.222862	99
Es	3.324685	0.801427	-1.011628	99
Es	4.516740	1.468616	-0.575233	99
Es	2.521332	-0.002426	-0.013624	99
Es	3.307255	-0.708053	-1.081787	99
Es	1.031723	0.006484	-0.064509	99
Es	5.078665	1.761634	-0.392238	99
Es	2.959761	-0.997984	-1.618678	99
Es	0.768448	0.522237	0.391120	99
Es	3.948354	1.158411	-0.800865	99
Es	2.773938	-0.038502	0.644743	99
Es	2.970437	1.146939	-1.507523	99
Es	2.902692	0.619425	-0.433972	99
Es	3.444744	0.075137	-1.182569	99
Es	0.773425	-0.650901	0.144611	99
Es	0.785184	0.149681	-0.745466	99
Es	5.763297	2.151395	-0.109376	99
Es	1.813871	0.014018	-0.056187	99
Es	3.894598	-1.055592	-0.877826	99
Es	5.024353	1.815666	-0.434761	99
Es	2.863799	-0.535150	-0.501236	99
Es	5.027424	1.702220	-0.311928	99
