41
Properties=species:S:1:pos:R:3:Z:I:1 energy=-250.24057969907244 field_type=dipole dipole="0.000000 0.000000 0.000000" charge=0
C	1.031380	0.015290	-0.057210	6
C	2.521760	-0.008200	-0.011510	6
C	3.346400	-0.755180	-1.036560	6
C	2.729710	-1.514690	-2.160900	6
C	3.324630	0.751830	-1.036480	6
N	4.517190	1.481270	-0.616430	7
H	0.646510	0.735180	0.673090	1
H	0.628540	-0.970930	0.195680	1
H	0.645410	0.303790	-1.040930	1
H	2.876560	-0.043260	1.013140	1
H	4.243230	-1.252750	-0.681290	1
H	1.869010	-1.000260	-2.596810	1
H	2.401160	-2.498060	-1.812210	1
H	3.466210	-1.665510	-2.955960	1
H	2.778870	1.232280	-1.845970	1
H	4.995650	1.004830	0.146970	1
H	4.265480	2.401470	-0.257530	1
Es	4.517485	1.481362	-0.616729	99
Es	3.324913	0.751639	-1.036061	99
Es	3.346591	-0.755292	-1.036689	99
Es	2.521619	-0.008114	-0.011290	99
Es	1.032003	0.015244	-0.057278	99
Es	2.729893	-1.514284	-2.160354	99
Es	2.833628	0.561839	-0.414872	99
Es	2.838288	-0.599850	-0.447835	99
Es	0.779120	0.201508	-0.715512	99
Es	2.501338	-2.170852	-1.922167	99
Es	4.728722	1.209800	-0.162102	99
Es	3.912962	-1.061669	-0.796026	99
Es	2.760225	-0.028449	0.634706	99
Es	4.334041	1.971483	-0.369668	99
Es	1.830906	-0.000558	-0.057417	99
Es	0.760833	-0.648223	0.107605	99
Es	3.222478	-1.618852	-2.706651	99
Es	0.764373	0.505486	0.435256	99
Es	2.161518	-1.172306	-2.440544	99
Es	2.963487	1.069034	-1.556048	99
Es	3.043299	-1.087958	-1.557719	99
Es	4.770481	1.522148	-0.924680	99
Es	3.486011	-0.005415	-1.217365	99
Es	3.999308	1.172919	-0.731946	99
