38
Properties=species:S:1:pos:R:3:Z:I:1 energy=-249.07989295253742 field_type=dipole dipole="0.000000 0.000000 0.000000" charge=0
C	1.040800	0.007750	0.118780	6
C	2.378120	0.015850	0.033390	6
C	3.240790	1.236980	0.036610	6
C	4.395580	0.771330	-0.835430	6
N	4.589680	-0.637060	-0.472130	7
C	3.248020	-1.178910	-0.209940	6
H	0.478850	-0.918630	0.060460	1
H	0.480210	0.927690	0.249150	1
H	3.582670	1.452680	1.055380	1
H	2.746390	2.119770	-0.378050	1
H	4.136820	0.853990	-1.898700	1
H	5.303260	1.354920	-0.657020	1
H	5.024520	-1.142290	-1.241270	1
H	2.892320	-1.748920	-1.075180	1
H	3.285400	-1.831870	0.667350	1
Es	4.589438	-0.637221	-0.472399	99
Es	3.248243	-1.178342	-0.209978	99
Es	4.395198	0.770842	-0.834810	99
Es	2.377763	0.015850	0.033373	99
Es	3.240775	1.236545	0.036397	99
Es	1.042773	0.007695	0.118450	99
Es	4.016351	-0.853743	-0.425051	99
Es	1.561982	0.021388	0.046892	99
Es	3.803707	1.026561	-0.405052	99
Es	0.732774	-0.625596	0.063144	99
Es	5.014044	1.169866	-0.715746	99
Es	4.490723	-0.075765	-0.667880	99
Es	4.801343	-0.911447	-0.948440	99
Es	4.212487	0.831438	-1.566956	99
Es	0.759979	0.633786	0.181423	99
Es	2.998403	-1.559307	-0.795275	99
Es	2.789968	0.631491	0.054918	99
Es	3.262471	-1.618679	0.378218	99
Es	3.470968	1.379861	0.718641	99
Es	2.902551	1.818354	-0.236161	99
Es	2.779133	-0.592067	-0.071867	99
Es	4.800246	-0.653936	-0.133669	99
Es	1.662313	0.008832	0.139687	99
