41
Properties=species:S:1:pos:R:3:Z:I:1 energy=-250.24159279079024 field_type=dipole dipole="0.000000 0.000000 0.000000" charge=0
C	0.972280	-0.007870	0.051260	6
C	2.487360	0.006660	0.010530	6
C	3.195170	1.052450	0.911820	6
C	4.215400	-0.031190	1.315440	6
N	5.360300	0.019120	0.403890	7
C	3.213990	-1.096180	0.825950	6
H	0.581750	-0.868490	-0.500130	1
H	0.567590	0.898530	-0.408780	1
H	0.596440	-0.063860	1.077400	1
H	2.841570	0.051640	-1.029760	1
H	2.583690	1.392540	1.756930	1
H	3.580590	1.938020	0.396900	1
H	4.483400	-0.066790	2.374500	1
H	5.125320	0.072970	-0.586410	1
H	5.990020	-0.776810	0.498660	1
H	3.614300	-1.930730	0.241700	1
H	2.609330	-1.513420	1.640690	1
Es	5.360262	0.019271	0.404046	99
Es	4.215631	-0.031111	1.315413	99
Es	2.487015	0.006632	0.010484	99
Es	3.195387	1.051740	0.911622	99
Es	0.972843	-0.007863	0.051276	99
Es	3.214043	-1.095578	0.825951	99
Es	5.560802	0.354851	0.499464	99
Es	2.791890	-0.626889	0.373378	99
Es	0.698165	0.615801	-0.259784	99
Es	2.806345	-1.372557	1.365364	99
Es	5.185736	-0.002657	-0.141136	99
Es	2.786524	1.275234	1.476849	99
Es	5.663625	-0.477449	0.446582	99
Es	2.716839	0.035629	-0.673116	99
Es	4.413501	-0.063006	2.040531	99
Es	3.759237	0.574603	1.153381	99
Es	0.708244	-0.600164	-0.322779	99
Es	3.455750	1.644191	0.564350	99
Es	0.726755	-0.045550	0.743726	99
Es	3.752676	-0.633552	1.118698	99
Es	3.495001	-1.663564	0.429070	99
Es	2.783491	0.612764	0.421914	99
Es	1.733222	-0.000411	0.037174	99
Es	4.883798	-0.060929	0.729632	99
