35
Properties=species:S:1:pos:R:3:Z:I:1 energy=-247.93601681049148 field_type=dipole dipole="0.000000 0.000000 0.000000" charge=0
C	0.942100	0.025760	-0.008100	6
C	2.425980	0.004500	-0.000620	6
C	3.275570	1.093900	0.003760	6
N	4.567310	0.637360	0.010100	7
C	4.564790	-0.731440	0.009750	6
C	3.254410	-1.152480	0.003130	6
H	0.558000	1.050880	0.001520	1
H	0.548520	-0.492740	0.872180	1
H	0.558030	-0.472770	-0.903960	1
H	3.069090	2.156000	0.002920	1
H	5.393530	1.221190	0.014330	1
H	5.492410	-1.287860	0.014210	1
H	2.925260	-2.183900	0.001200	1
Es	4.567235	0.637277	0.010100	99
Es	4.575325	-0.737885	0.009801	99
Es	3.272372	1.106748	0.003746	99
Es	0.942638	0.025753	-0.008099	99
Es	2.425843	0.004473	-0.000621	99
Es	3.254439	-1.153119	0.003130	99
Es	3.885929	0.931378	0.006740	99
Es	2.873228	-0.663975	0.001470	99
Es	5.055880	-1.043385	0.012189	99
Es	0.686131	0.710660	-0.001727	99
Es	5.053683	0.995293	0.012518	99
Es	3.180231	1.518474	0.002533	99
Es	2.924251	0.738282	-0.000564	99
Es	4.603787	-0.026917	0.010182	99
Es	3.770448	-0.905607	0.005233	99
Es	4.005481	-0.900424	0.007251	99
Es	2.997339	-1.796664	0.001792	99
Es	0.690936	-0.310295	-0.609640	99
Es	1.699335	0.029404	-0.003921	99
Es	0.684459	-0.323853	0.583010	99
Es	4.444133	0.521497	0.009612	99
Es	2.919544	0.486141	0.004956	99
