37
Properties=species:S:1:pos:R:3:Z:I:1 energy=-265.0692001289139 field_type=dipole dipole="0.000000 0.000000 0.000000" charge=0
C	1.052600	0.071830	0.015240	6
C	2.573800	-0.041710	-0.007050	6
C	3.056480	-1.247420	-0.798210	6
C	3.421050	-0.576250	-2.080700	6
N	3.455740	0.714630	-2.043910	7
N	3.176020	1.057230	-0.762530	7
H	0.738210	0.982540	0.536650	1
H	0.613330	-0.783800	0.539040	1
H	0.628840	0.098720	-0.994910	1
H	2.952750	-0.064520	1.019800	1
H	2.294490	-2.012350	-0.967960	1
H	3.959190	-1.701180	-0.377660	1
H	3.657040	-1.166060	-2.977250	1
H	2.660030	1.936080	-0.697250	1
Es	3.455562	0.714773	-2.043270	99
Es	3.176309	1.057405	-0.762718	99
Es	2.574006	-0.041617	-0.007583	99
Es	3.421068	-0.576097	-2.080678	99
Es	3.056499	-1.246700	-0.798451	99
Es	1.053309	0.071793	0.015192	99
Es	2.859857	0.601369	-0.501689	99
Es	3.356767	0.128520	-2.039377	99
Es	3.557150	-0.980161	-2.611794	99
Es	0.844460	0.699660	0.370003	99
Es	2.795120	-0.687437	-0.383370	99
Es	3.260973	0.847906	-1.401916	99
Es	3.268518	-0.901617	-1.530721	99
Es	2.836989	1.521224	-0.762107	99
Es	1.810172	0.008538	-0.005224	99
Es	0.759295	-0.510337	0.368726	99
Es	0.776871	0.087898	-0.668710	99
Es	2.559442	-1.746908	-0.905834	99
Es	3.642182	-1.547238	-0.511289	99
Es	3.520510	1.091796	-0.620260	99
Es	2.830699	-0.046926	0.692223	99
Es	3.527456	0.979791	-2.308160	99
Es	3.494014	0.119655	-2.046434	99
