40
Properties=species:S:1:pos:R:3:Z:I:1 energy=-266.23499475387024 field_type=dipole dipole="0.000000 0.000000 0.000000" charge=0
C	0.832770	0.293620	-0.366060	6
C	2.247110	0.041330	0.089340	6
C	2.479640	0.155140	1.582810	6
N	2.110630	-1.093140	2.239800	7
C	3.083070	-0.944440	-0.702730	6
N	3.314790	0.488830	-0.824980	7
H	0.734760	0.238010	-1.455910	1
H	0.502360	1.289770	-0.052260	1
H	0.151140	-0.446200	0.066460	1
H	1.895930	0.984830	1.998180	1
H	3.534070	0.363200	1.800780	1
H	1.113290	-1.256880	2.115620	1
H	2.255940	-0.995230	3.243150	1
H	2.638880	-1.431900	-1.561510	1
H	3.838780	-1.523020	-0.185950	1
H	4.158120	0.754750	-0.314680	1
Es	3.315244	0.488411	-0.824564	99
Es	2.110637	-1.093266	2.239701	99
Es	2.247251	0.041347	0.088649	99
Es	2.479464	0.154689	1.582501	99
Es	3.082989	-0.943876	-0.702648	99
Es	0.833128	0.293529	-0.365989	99
Es	3.193820	0.689259	-1.137434	99
Es	2.224857	-0.559965	1.994428	99
Es	0.387448	-0.213523	-0.056875	99
Es	3.205328	0.297400	1.730502	99
Es	3.594309	-1.330659	-0.337931	99
Es	2.567142	-0.635264	-0.236012	99
Es	1.528025	-1.136122	2.183870	99
Es	2.777864	-1.267821	-1.289971	99
Es	2.162210	-0.986508	2.818984	99
Es	1.534944	0.177249	-0.144534	99
Es	0.618431	0.968979	-0.140306	99
Es	2.079154	0.723998	1.856206	99
Es	0.780279	0.245584	-1.104896	99
Es	2.369921	0.110136	0.819676	99
Es	3.268894	-0.149863	-0.766973	99
Es	3.778060	0.609381	-0.478797	99
Es	2.325228	-1.394352	2.091721	99
Es	2.926764	0.416961	-0.447885	99
