31
Properties=species:S:1:pos:R:3:Z:I:1 energy=-262.6991442355067 field_type=dipole dipole="0.000000 0.000000 0.000000" charge=0
C	0.910330	0.000510	0.001400	6
C	2.241400	-0.000050	-0.000220	6
C	3.163480	1.125160	-0.002090	6
N	4.401150	0.726200	-0.003330	7
N	4.400750	-0.727290	-0.002360	7
C	3.163110	-1.125690	-0.000590	6
H	0.348500	0.928770	0.001460	1
H	0.348000	-0.927530	0.002700	1
H	2.812040	2.164810	-0.002350	1
H	2.810940	-2.165100	0.000530	1
Es	4.401128	0.725801	-0.003330	99
Es	4.400729	-0.726891	-0.002360	99
Es	0.910981	0.000510	0.001399	99
Es	3.163441	1.125042	-0.002090	99
Es	3.163071	-1.125572	-0.000590	99
Es	2.241465	-0.000050	-0.000220	99
Es	4.322115	-0.000549	-0.002749	99
Es	1.504865	0.000252	0.000678	99
Es	3.814698	-0.871294	-0.001550	99
Es	0.578972	-0.629790	0.002221	99
Es	2.700733	-0.647463	-0.000346	99
Es	3.815120	0.870490	-0.002713	99
Es	2.901320	-1.765329	0.000154	99
Es	0.579315	0.630936	0.001381	99
Es	2.700998	0.647149	-0.001210	99
Es	3.850177	-0.851971	-0.001609	99
Es	2.902101	1.764956	-0.002196	99
Es	4.733784	0.921307	-0.003865	99
Es	4.733299	-0.922561	-0.002634	99
Es	1.744996	0.000210	0.000383	99
Es	3.850626	0.851091	-0.002743	99
