37
Properties=species:S:1:pos:R:3:Z:I:1 energy=-265.06707842582443 field_type=dipole dipole="0.000000 0.000000 0.000000" charge=0
C	0.974690	0.031370	-0.058140	6
C	2.491100	-0.048870	0.001980	6
C	3.017820	-1.300340	0.690560	6
N	3.198840	-0.823720	2.058340	7
N	3.428820	0.512100	2.099140	7
C	3.017810	0.973380	0.963280	6
H	0.571230	-0.763390	-0.693410	1
H	0.656730	0.994410	-0.471830	1
H	0.520020	-0.061980	0.934420	1
H	2.936310	0.097430	-0.986360	1
H	3.986810	-1.588670	0.267170	1
H	2.336920	-2.153980	0.634040	1
H	3.893470	-1.356860	2.583160	1
H	3.034400	2.039940	0.698210	1
Es	3.428849	0.511681	2.099396	99
Es	3.198800	-0.823423	2.058547	99
Es	3.017604	-1.299381	0.690759	99
Es	3.017842	0.973286	0.963446	99
Es	2.491220	-0.048782	0.002275	99
Es	0.975365	0.031319	-0.058077	99
Es	2.852263	-0.850368	2.207649	99
Es	2.761941	0.493819	0.483664	99
Es	3.213808	0.680407	1.586561	99
Es	0.705548	-0.506079	-0.488702	99
Es	2.563805	-1.870038	0.659734	99
Es	3.018186	1.685316	0.788735	99
Es	3.348711	-0.158582	2.020739	99
Es	3.681432	-1.501104	0.398674	99
Es	3.639666	-1.098813	2.309200	99
Es	0.677597	-0.036961	0.607228	99
Es	0.763841	0.689550	-0.337511	99
Es	2.776492	0.048785	-0.658110	99
Es	1.758109	-0.017185	-0.017080	99
Es	3.594267	0.676771	2.401442	99
Es	2.729541	-0.708566	0.306748	99
Es	3.192831	-0.998382	1.484623	99
Es	3.267252	0.723559	1.565381	99
