41
Properties=species:S:1:pos:R:3:Z:I:1 energy=-250.24255041714773 field_type=dipole dipole="0.000000 0.000000 0.000000" charge=0
C	1.072720	0.071260	-0.106370	6
C	2.560040	0.108740	-0.040640	6
N	3.353670	-0.547100	-1.075150	7
C	3.432690	0.919390	-0.991530	6
C	2.826520	1.720200	-2.113440	6
C	4.706090	1.500250	-0.433290	6
H	0.652140	0.863900	0.520550	1
H	0.706800	-0.887720	0.274970	1
H	0.679100	0.195590	-1.118770	1
H	2.911870	-0.037830	0.975670	1
H	2.771330	-0.842110	-1.859570	1
H	2.002720	1.201240	-2.613320	1
H	3.582090	1.933960	-2.877700	1
H	2.446940	2.674040	-1.733450	1
H	5.123420	0.886930	0.373080	1
H	4.519250	2.501170	-0.030040	1
H	5.465680	1.582640	-1.218060	1
Es	3.353088	-0.547002	-1.075258	99
Es	3.432885	0.918998	-0.991051	99
Es	2.559981	0.108628	-0.040791	99
Es	2.826600	1.719982	-2.113104	99
Es	1.073355	0.071328	-0.106426	99
Es	4.705698	1.499997	-0.433389	99
Es	3.672844	-0.755167	-0.988081	99
Es	3.127264	1.304099	-1.545619	99
Es	1.829051	0.108032	-0.106028	99
Es	4.969626	1.074151	0.113062	99
Es	2.987648	-0.659569	-1.524295	99
Es	3.345019	1.862880	-2.632703	99
Es	0.794146	0.607058	0.301478	99
Es	2.269150	1.360063	-2.436579	99
Es	2.569181	2.355150	-1.855792	99
Es	2.809009	-0.000067	0.649819	99
Es	0.815149	-0.582675	0.149469	99
Es	0.822893	0.154266	-0.773315	99
Es	4.560252	2.175360	-0.166547	99
Es	5.213836	1.556177	-0.976766	99
Es	4.074115	1.205538	-0.713737	99
Es	2.948052	-0.319901	-0.635000	99
Es	2.905259	0.715550	-0.404051	99
Es	3.440531	0.019152	-1.141481	99
