35
Properties=species:S:1:pos:R:3:Z:I:1 energy=-247.83929716552097 field_type=dipole dipole="0.000000 0.000000 0.000000" charge=0
C	1.044340	-0.018580	-0.062320	6
C	2.529910	0.058560	0.004960	6
N	3.339970	-0.630820	-0.990990	7
C	3.313530	0.833190	-1.028760	6
C	4.487810	1.539830	-0.616890	6
C	5.473860	2.136280	-0.276520	6
H	0.600330	0.741830	0.587790	1
H	0.699700	-0.999800	0.279180	1
H	0.665190	0.142120	-1.077160	1
H	2.901090	0.013720	1.022510	1
H	2.768570	-1.012540	-1.744430	1
H	2.770310	1.265800	-1.863050	1
H	6.352390	2.656250	0.024520	1
Es	3.339600	-0.630636	-0.991103	99
Es	3.314293	0.833451	-1.028445	99
Es	2.530453	0.058874	0.004314	99
Es	4.487303	1.539621	-0.617038	99
Es	1.044951	-0.018521	-0.062379	99
Es	5.475947	2.137106	-0.275433	99
Es	3.381129	0.025810	-1.090635	99
Es	5.780939	2.351121	-0.171500	99
Es	1.809984	0.027300	-0.052626	99
Es	3.930788	1.172296	-0.793817	99
Es	2.809970	0.041790	0.681141	99
Es	5.166614	1.955216	-0.350958	99
Es	2.967671	1.125250	-1.594487	99
Es	2.977698	-0.799400	-1.417878	99
Es	0.751894	0.492029	0.369264	99
Es	0.816512	-0.683279	0.168567	99
Es	0.796953	0.088788	-0.750254	99
Es	2.937001	-0.441306	-0.567770	99
Es	2.880174	0.664076	-0.433741	99
Es	3.660540	-0.811630	-0.878239	99
Es	4.968544	1.840180	-0.451535	99
Es	5.009109	1.833243	-0.465525	99
