17
Properties=species:S:1:pos:R:3:Z:I:1 energy=-79.25137147271576 field_type=dipole dipole="0.000000 0.000000 0.000000" charge=0
C	-0.755960	0.002046	-0.003488	6
C	0.755960	-0.002024	0.003502	6
H	-1.137650	1.027396	0.001272	1
H	-1.145890	-0.514744	0.878523	1
H	-1.137630	-0.503424	-0.895657	1
H	1.137650	0.507096	0.893533	1
H	1.145890	0.511086	-0.880657	1
H	1.137630	-1.027434	0.002972	1
Es	-0.000003	0.000042	0.000016	99
Es	1.015552	0.345725	0.611450	99
Es	-1.015523	-0.343261	-0.612877	99
Es	1.015563	-0.702456	0.003096	99
Es	-1.021158	-0.350954	0.598997	99
Es	0.755929	-0.002024	0.003502	99
Es	-1.015592	0.702426	-0.000250	99
Es	-0.755928	0.002046	-0.003488	99
Es	1.021160	0.348504	-0.600415	99
