17
Properties=species:S:1:pos:R:3:Z:I:1 energy=-79.25137147290903 field_type=dipole dipole="0.000000 0.000000 0.000000" charge=0
C	-0.755960	0.002046	-0.003488	6
C	0.755960	-0.002024	0.003502	6
H	-1.137650	1.027396	0.001272	1
H	-1.145890	-0.514744	0.878523	1
H	-1.137630	-0.503424	-0.895657	1
H	1.137650	0.507096	0.893533	1
H	1.145890	0.511086	-0.880657	1
H	1.137630	-1.027434	0.002972	1
Es	1.015566	0.345680	0.611488	99
Es	-1.015567	-0.343192	-0.612895	99
Es	-1.015548	0.702428	-0.000189	99
Es	-1.021156	-0.350992	0.598995	99
Es	-0.755927	0.002045	-0.003487	99
Es	1.015492	-0.702462	0.003077	99
Es	0.000022	0.000046	-0.000023	99
Es	0.755928	-0.002024	0.003502	99
Es	1.021190	0.348520	-0.600436	99
