19
Properties=species:S:1:pos:R:3:Z:I:1 energy=-152.9565067370594 field_type=dipole dipole="0.000000 0.000000 0.000000" charge=0
C	-0.648464	-0.017304	-0.006809	6
C	0.846886	0.011566	-0.015879	6
O	1.497486	1.021386	-0.270569	8
H	-0.989904	-1.039904	-0.197309	1
H	-1.039214	0.635086	-0.790539	1
H	-1.012424	0.304726	0.971251	1
H	1.345636	-0.915554	0.309851	1
Es	0.091843	-0.012913	-0.019289	99
Es	1.251699	0.721312	0.057984	99
Es	1.178980	-0.631706	0.203760	99
Es	-0.648418	-0.017323	-0.006795	99
Es	1.272211	0.581227	-0.419260	99
Es	0.846869	0.011573	-0.015888	99
Es	-0.868898	0.195374	0.644502	99
Es	1.497258	1.021115	-0.270504	99
Es	-0.873102	-0.709597	-0.132106	99
Es	1.315109	1.263792	-0.349323	99
Es	-0.904618	0.418566	-0.526256	99
Es	1.808471	0.978237	-0.243943	99
