27
Properties=species:S:1:pos:R:3:Z:I:1 energy=-172.1313825347881 field_type=dipole dipole="0.000000 0.000000 0.000000" charge=0
C	-1.239611	-0.008605	0.579296	6
N	0.213849	-0.079675	0.698436	7
C	0.850879	-0.748455	-0.430544	6
C	0.920349	0.749585	-0.271084	6
H	-1.624341	0.749155	1.269866	1
H	-1.681221	-0.969605	0.862736	1
H	-1.599181	0.242405	-0.426174	1
H	0.223419	-1.160965	-1.210554	1
H	1.735969	-1.326505	-0.194884	1
H	1.853749	1.181394	0.069916	1
H	0.346139	1.371275	-0.947014	1
Es	0.429850	-0.499875	0.237125	99
Es	0.521474	1.171663	-0.727450	99
Es	0.354624	-0.121452	1.019387	99
Es	1.008824	0.013976	-0.538157	99
Es	0.920245	0.749388	-0.270974	99
Es	-1.239486	-0.008609	0.579299	99
Es	0.469378	0.408292	0.335861	99
Es	-1.538919	-0.665869	0.768494	99
Es	1.553495	1.047596	-0.040729	99
Es	-1.476301	0.163702	-0.121299	99
Es	-0.414734	-0.043400	0.606938	99
Es	0.850796	-0.748280	-0.430400	99
Es	-1.501630	0.511583	1.045529	99
Es	1.450591	-1.145445	-0.272996	99
Es	0.213657	-0.079601	0.697798	99
Es	0.416416	-1.027981	-0.958492	99
