30
Properties=species:S:1:pos:R:3:Z:I:1 energy=-173.3166637784496 field_type=dipole dipole="0.000000 0.000000 0.000000" charge=0
C	-1.300289	-0.239857	0.420012	6
N	0.161661	-0.232907	0.416952	7
C	0.673681	-0.956407	-0.745708	6
C	0.666212	1.139203	0.427842	6
H	-1.685889	0.265693	1.312772	1
H	-1.680459	-1.267307	0.453232	1
H	-1.719949	0.254393	-0.464148	1
H	0.330842	-1.997367	-0.733098	1
H	1.769141	-0.987287	-0.728378	1
H	0.356761	-0.500697	-1.691238	1
H	0.315932	1.671343	1.319712	1
H	0.350892	1.704843	-0.456908	1
H	1.761461	1.146353	0.468952	1
Es	0.371650	-0.529185	-0.112987	99
Es	0.666171	1.139088	0.427843	99
Es	0.444970	1.527551	-0.187555	99
Es	1.420944	-0.969257	-0.734686	99
Es	-1.556277	-0.942018	0.435292	99
Es	-1.300170	-0.239857	0.420013	99
Es	-1.559982	0.112017	1.026202	99
Es	1.413454	1.140598	0.448393	99
Es	0.432135	-1.663795	-0.738050	99
Es	-1.586806	0.103958	-0.195006	99
Es	0.451417	-0.636721	-1.399105	99
Es	0.368372	0.374699	0.393416	99
Es	-0.480162	-0.219964	0.389803	99
Es	0.272988	-0.393342	0.704234	99
Es	0.673640	-0.956348	-0.745612	99
Es	0.419582	1.501469	1.033396	99
Es	0.161457	-0.232602	0.416407	99
