32
Properties=species:S:1:pos:R:3:Z:I:1 energy=-247.0296545774338 field_type=dipole dipole="0.000000 0.000000 0.000000" charge=0
C	-1.541176	-0.802447	0.055447	6
N	-0.086017	-0.731357	-0.005583	7
C	0.364984	0.661593	0.102117	6
C	1.877973	0.685103	0.081017	6
O	2.535663	1.287533	-0.763653	8
H	-1.858296	-1.846397	-0.028813	1
H	-2.005007	-0.242067	-0.762773	1
H	-1.915956	-0.419877	1.010167	1
H	0.220593	-1.105717	-0.906412	1
H	0.043234	1.109813	1.048057	1
H	-0.010527	1.266113	-0.730433	1
H	2.374533	0.137703	0.900858	1
Es	-1.860159	-0.410612	-0.507277	99
Es	2.356758	1.432779	-0.976362	99
Es	2.296399	0.861813	-0.598017	99
Es	1.121459	0.671071	0.089972	99
Es	2.847937	1.261303	-0.719154	99
Es	0.062977	-0.921136	0.259041	99
Es	0.365009	0.661447	0.102137	99
Es	-0.086255	-0.730970	-0.006071	99
Es	2.205546	0.307644	0.643148	99
Es	2.290748	1.271072	-0.313166	99
Es	-0.718725	-0.741039	0.004873	99
Es	1.877963	0.685124	0.080994	99
Es	2.535509	1.287392	-0.763467	99
Es	-1.790307	-0.534051	0.704324	99
Es	0.088862	-0.937280	-0.560724	99
Es	-1.755792	-1.511478	-0.006431	99
Es	0.155120	0.959223	0.742741	99
Es	0.107556	1.075601	-0.462747	99
Es	0.104283	-0.107360	0.025393	99
Es	-1.541031	-0.802438	0.055440	99
