31
Properties=species:S:1:pos:R:3:Z:I:1 energy=-551.348726367017 field_type=dipole dipole="0.000000 0.000000 0.000000" charge=0
S	-0.560830	-1.666903	0.023457	16
C	-1.346230	-0.145823	0.007157	6
C	-0.449370	0.899427	-0.009703	6
C	0.901650	0.444647	-0.009213	6
C	0.983750	-0.930433	0.007997	6
H	-2.426330	-0.093123	0.010727	1
H	-0.748140	1.940607	-0.021803	1
H	1.769630	1.092967	-0.020893	1
H	1.875870	-1.541363	0.012277	1
Es	-0.449358	0.899437	-0.009704	99
Es	-0.560751	-1.666887	0.023265	99
Es	-0.519261	-1.600627	0.108054	99
Es	-0.606194	-1.801293	0.447092	99
Es	1.482701	0.883965	-0.017101	99
Es	-0.478189	-1.676348	-0.049903	99
Es	-1.346212	-0.146019	0.007157	99
Es	-0.861708	0.358345	-0.311603	99
Es	-0.859291	0.366345	0.309184	99
Es	-0.655145	-1.609611	-0.030182	99
Es	-0.589909	-1.777662	0.066001	99
Es	1.571308	-1.346846	0.010933	99
Es	0.240110	0.713476	-0.010145	99
Es	0.251416	-1.312603	0.015356	99
Es	-0.611160	-1.817895	-0.395232	99
Es	-0.993709	-0.893438	0.014669	99
Es	0.901647	0.444663	-0.009214	99
Es	0.905163	-0.227640	0.309883	99
Es	-0.646214	1.600669	-0.017888	99
Es	0.903121	-0.235660	-0.310860	99
Es	-2.066046	-0.122349	0.009692	99
Es	0.983618	-0.930577	0.008006	99
