51
Properties=species:S:1:pos:R:3:Z:I:1 energy=-290.4539037101136 field_type=dipole dipole="0.000000 0.000000 0.000000" charge=0
C	-1.419487	-1.651173	-1.332540	6
C	-0.131987	-1.450173	-0.545050	6
C	0.312753	0.026217	-0.431580	6
C	-0.764137	0.943137	0.189600	6
C	-1.157567	0.592907	1.618790	6
N	1.584093	0.042027	0.317030	7
C	2.247943	1.339087	0.302220	6
H	-1.600727	-2.720063	-1.486330	1
H	-1.359977	-1.172983	-2.315070	1
H	-2.284857	-1.247383	-0.798960	1
H	0.658343	-2.022833	-1.048660	1
H	-0.248767	-1.898063	0.449410	1
H	0.507563	0.383177	-1.452400	1
H	-1.663647	0.928907	-0.436880	1
H	-0.422057	1.984667	0.166590	1
H	-1.605627	-0.402873	1.678940	1
H	-1.898257	1.310547	1.986130	1
H	-0.297057	0.628387	2.293030	1
H	2.216753	-0.648233	-0.088320	1
H	1.697633	2.083397	0.884680	1
H	2.394333	1.709117	-0.717240	1
H	3.234743	1.242197	0.766610	1
Es	1.520003	-0.049825	0.651606	99
Es	-1.540342	-2.380316	-1.437331	99
Es	2.923287	1.270628	0.614800	99
Es	-0.223568	0.479164	-0.104885	99
Es	2.344290	1.598983	-0.405285	99
Es	-0.764120	0.943109	0.189618	99
Es	1.584227	0.042205	0.316386	99
Es	-1.419465	-1.651170	-1.332528	99
Es	-2.007914	-1.372392	-0.967654	99
Es	-0.521917	1.653295	0.174460	99
Es	0.076186	-0.711474	-0.483156	99
Es	-1.376756	-1.321334	-2.002698	99
Es	-1.462850	-0.088058	1.655545	99
Es	-1.157574	0.592918	1.618753	99
Es	1.868880	0.616443	0.280736	99
Es	-0.954402	0.757274	0.905524	99
Es	-1.665153	1.084911	1.865442	99
Es	0.443045	0.278310	-1.145021	99
Es	0.312839	0.026201	-0.431475	99
Es	2.247889	1.338973	0.302222	99
Es	1.966637	-0.364951	0.046777	99
Es	-0.576172	0.618784	2.073962	99
Es	-0.214649	-1.751143	0.132795	99
Es	0.417235	-1.836499	-0.893200	99
Es	1.046319	0.054654	-0.026126	99
Es	-0.132017	-1.450151	-0.545087	99
Es	1.866274	1.846790	0.693595	99
Es	-1.375551	0.924855	-0.242655	99
Es	-0.782816	-1.539415	-0.942326	99
