51
Properties=species:S:1:pos:R:3:Z:I:1 energy=-290.453903707971 field_type=dipole dipole="0.000000 0.000000 0.000000" charge=0
C	-1.419487	-1.651173	-1.332540	6
C	-0.131987	-1.450173	-0.545050	6
C	0.312753	0.026217	-0.431580	6
C	-0.764137	0.943137	0.189600	6
C	-1.157567	0.592907	1.618790	6
N	1.584093	0.042027	0.317030	7
C	2.247943	1.339087	0.302220	6
H	-1.600727	-2.720063	-1.486330	1
H	-1.359977	-1.172983	-2.315070	1
H	-2.284857	-1.247383	-0.798960	1
H	0.658343	-2.022833	-1.048660	1
H	-0.248767	-1.898063	0.449410	1
H	0.507563	0.383177	-1.452400	1
H	-1.663647	0.928907	-0.436880	1
H	-0.422057	1.984667	0.166590	1
H	-1.605627	-0.402873	1.678940	1
H	-1.898257	1.310547	1.986130	1
H	-0.297057	0.628387	2.293030	1
H	2.216753	-0.648233	-0.088320	1
H	1.697633	2.083397	0.884680	1
H	2.394333	1.709117	-0.717240	1
H	3.234743	1.242197	0.766610	1
Es	-1.376813	-1.321400	-2.002737	99
Es	0.417249	-1.836468	-0.893170	99
Es	-0.576231	0.619000	2.073969	99
Es	-1.665242	1.084901	1.865301	99
Es	2.247889	1.338972	0.302221	99
Es	0.312840	0.026201	-0.431474	99
Es	-0.132017	-1.450147	-0.545089	99
Es	2.344250	1.599014	-0.405286	99
Es	-2.007738	-1.372235	-0.967640	99
Es	1.868847	0.616240	0.280567	99
Es	1.866295	1.846780	0.693659	99
Es	-0.223594	0.479230	-0.104911	99
Es	1.966653	-0.364871	0.046767	99
Es	-1.157573	0.592916	1.618751	99
Es	-1.462746	-0.088176	1.655641	99
Es	-1.540552	-2.380346	-1.437225	99
Es	0.443049	0.278276	-1.145011	99
Es	1.519572	-0.049916	0.652198	99
Es	-0.954435	0.757096	0.905550	99
Es	-0.214726	-1.751169	0.132865	99
Es	-0.764120	0.943108	0.189617	99
Es	0.076063	-0.711415	-0.483203	99
Es	-0.782623	-1.539494	-0.942462	99
Es	-1.375417	0.924769	-0.242619	99
Es	1.046822	0.054799	-0.026525	99
Es	1.584221	0.042216	0.316394	99
Es	2.923296	1.270606	0.614744	99
Es	-1.419464	-1.651171	-1.332528	99
Es	-0.521907	1.653457	0.174428	99
