50
Properties=species:S:1:pos:R:3:Z:I:1 energy=-310.2915007462488 field_type=dipole dipole="0.000000 0.000000 0.000000" charge=0
C	-2.260888	-1.890297	0.315562	6
O	-0.936738	-1.421817	0.101302	8
C	-0.865628	0.003373	0.150692	6
C	0.585702	0.479403	-0.082308	6
C	1.514182	-0.092597	1.002002	6
C	1.083802	0.014343	-1.461148	6
C	0.623542	2.014763	-0.022098	6
H	-2.252328	-2.982277	0.265252	1
H	-2.932468	-1.509977	-0.460318	1
H	-2.618668	-1.588947	1.304962	1
H	-1.220698	0.345573	1.130622	1
H	-1.526548	0.421273	-0.618698	1
H	1.180282	0.203523	2.002782	1
H	2.540452	0.269453	0.873352	1
H	1.545092	-1.187257	0.970422	1
H	0.435431	0.389473	-2.261068	1
H	1.107062	-1.077997	-1.534398	1
H	2.098412	0.379403	-1.657218	1
H	-0.021688	2.456793	-0.789508	1
H	1.639322	2.392883	-0.182898	1
H	0.282372	2.380913	0.952702	1
Es	0.388293	2.260915	0.645478	99
Es	1.101620	-0.722676	-1.508596	99
Es	0.597999	1.256194	-0.050742	99
Es	-2.726370	-1.622698	-0.214716	99
Es	2.213516	0.161366	0.908767	99
Es	1.316221	2.266414	-0.132040	99
Es	-2.511440	-1.676749	0.994583	99
Es	0.180072	2.312828	-0.547510	99
Es	1.083797	0.014366	-1.461136	99
Es	-0.146605	0.233596	0.034930	99
Es	-0.865626	0.003136	0.150678	99
Es	1.777254	0.269706	-1.588938	99
Es	-1.454978	-1.569197	0.185883	99
Es	-1.112930	0.242574	0.829855	99
Es	0.831349	0.245020	-0.777529	99
Es	-2.260682	-1.890217	0.315529	99
Es	-0.942698	-0.880871	0.126073	99
Es	-0.862549	-1.500091	-0.187564	99
Es	-1.324982	0.295093	-0.381887	99
Es	-2.256987	-2.632471	0.281749	99
Es	1.048808	0.191077	0.466419	99
Es	1.514174	-0.092572	1.001994	99
Es	-0.936996	-1.421601	0.101380	99
Es	0.623533	2.014753	-0.022096	99
Es	0.636624	0.275573	-2.005725	99
Es	0.585688	0.479412	-0.082306	99
Es	1.281474	0.114787	1.685757	99
Es	1.536431	-0.830984	0.978091	99
Es	-0.768251	-1.524539	0.339972	99
