43
Properties=species:S:1:pos:R:3:Z:I:1 energy=-323.9781408157851 field_type=dipole dipole="0.000000 0.000000 0.000000" charge=0
C	-1.809649	-0.204872	0.442917	6
C	-0.293909	-0.084122	0.322587	6
C	0.189291	-0.724132	-0.956523	6
C	1.024891	-1.770002	-1.015182	6
C	0.130461	1.387058	0.312577	6
N	1.397401	1.625068	0.769848	7
O	-0.565609	2.310668	-0.095442	8
H	-2.166469	0.301918	1.347167	1
H	-2.115719	-1.255702	0.502617	1
H	-2.326389	0.248818	-0.411862	1
H	0.161291	-0.566682	1.196028	1
H	-0.177549	-0.290762	-1.887932	1
H	1.415751	-2.245432	-0.121543	1
H	1.327511	-2.181612	-1.974072	1
H	2.067911	0.877168	0.878888	1
H	1.740781	2.572618	0.689927	1
Es	-1.809576	-0.204878	0.442921	99
Es	-0.076531	0.649880	0.321575	99
Es	-2.041849	0.135836	1.058905	99
Es	-0.042439	-0.391261	-0.311874	99
Es	-0.851712	2.216170	-0.183817	99
Es	-2.148698	0.094610	-0.136582	99
Es	-0.293894	-0.084068	0.322532	99
Es	1.397403	1.625009	0.769379	99
Es	0.361176	-1.453739	-0.973034	99
Es	1.232948	-2.053399	-1.659255	99
Es	0.872234	-1.052272	-0.989378	99
Es	0.950512	1.508571	0.455911	99
Es	-0.254891	1.963781	-0.188633	99
Es	1.612356	2.174643	0.701894	99
Es	-0.408905	2.583834	-0.082626	99
Es	1.293461	-2.092771	-0.408795	99
Es	0.130609	1.387041	0.312651	99
Es	-0.418512	2.034240	0.270777	99
Es	1.795318	1.179293	0.819322	99
Es	1.169719	1.610775	0.979492	99
Es	-0.565411	2.310411	-0.095325	99
Es	0.026492	-0.409184	0.911329	99
Es	1.024948	-1.770075	-1.015180	99
Es	-1.035070	-0.139952	0.370023	99
Es	-0.064235	-0.424662	-1.576392	99
Es	0.189217	-0.724036	-0.956468	99
Es	-2.006580	-0.922379	0.484004	99
