42
Properties=species:S:1:pos:R:3:Z:I:1 energy=-286.92256199348236 field_type=dipole dipole="0.000000 0.000000 0.000000" charge=0
C	-1.927290	0.418078	0.218987	6
C	-0.442970	0.386998	0.199437	6
C	0.396440	1.438878	0.220147	6
C	1.757180	0.962848	0.226567	6
C	1.757390	-0.378442	0.213327	6
C	0.349650	-0.894642	0.204097	6
N	0.118640	-1.706892	-0.974072	7
H	-2.305180	1.444118	0.275867	1
H	-2.308010	-0.128402	1.087348	1
H	-2.336560	-0.038992	-0.686893	1
H	0.121930	2.482678	0.238007	1
H	2.626430	1.602018	0.238007	1
H	2.633620	-1.008522	0.215567	1
H	0.152930	-1.471992	1.113977	1
H	0.264190	-1.121642	-1.795332	1
H	-0.858390	-1.986092	-0.995042	1
Es	1.097719	1.256649	0.224799	99
Es	1.757171	0.962965	0.226570	99
Es	-2.193881	0.103557	-0.393797	99
Es	-1.927250	0.418064	0.218981	99
Es	0.201726	-1.329419	-0.460911	99
Es	1.770694	0.288096	0.537028	99
Es	1.068806	-0.669128	0.208648	99
Es	0.349632	-0.894692	0.203980	99
Es	2.343744	1.404200	0.234419	99
Es	-0.083768	-0.262978	0.203278	99
Es	0.194546	-1.339524	-1.460504	99
Es	2.344453	-0.813855	0.214413	99
Es	-0.481177	-1.857261	-0.981721	99
Es	1.757364	-0.378532	0.213335	99
Es	-0.443066	0.386914	0.199442	99
Es	0.396516	1.438955	0.220140	99
Es	0.332634	-1.992602	-0.978585	99
Es	0.118287	-1.706422	-0.974071	99
Es	-1.188110	0.397237	0.204618	99
Es	1.769375	0.292771	-0.102154	99
Es	0.212867	2.152210	0.230574	99
Es	-2.178376	1.112505	0.256279	99
Es	-2.174944	0.044332	0.804200	99
Es	0.212159	-1.273027	0.817093	99
Es	-0.011948	0.935082	-0.116484	99
Es	-0.021812	0.933291	0.527221	99
