16
Properties=species:S:1:pos:R:3:Z:I:1 energy=-52.827951855177716 field_type=dipole dipole="0.000000 0.000000 0.000000" charge=0
B	0.884079	-0.000000	-0.000000	5
B	-0.884079	-0.000000	-0.000000	5
H	1.462760	-0.000000	1.039232	1
H	-1.462760	0.000000	-1.039232	1
H	1.462760	-0.000000	-1.039232	1
H	-1.462760	-0.000000	1.039232	1
H	-0.000000	-0.975240	0.000000	1
H	-0.000000	0.975240	0.000000	1
Es	-1.312586	0.000000	0.783496	99
Es	-0.883610	-0.000000	0.000000	99
Es	0.883610	0.000000	0.000000	99
Es	1.312585	-0.000001	0.783495	99
Es	-0.000000	-0.667197	-0.000002	99
Es	-1.312584	0.000002	-0.783496	99
Es	-0.000000	0.667193	0.000003	99
Es	1.312585	0.000003	-0.783497	99
