14
Properties=species:S:1:pos:R:3:Z:I:1 energy=-187.709257510984 field_type=dipole dipole="0.000000 0.000000 0.000000" charge=0
O	-1.160482	0.000000	-0.000000	8
O	1.160482	0.000000	-0.000000	8
C	-0.000000	-0.000000	0.000000	6
Es	-0.845845	0.268677	-0.020238	99
Es	-1.160028	0.000011	0.000011	99
Es	-0.847382	-0.152875	-0.223085	99
Es	0.000003	-0.000003	0.000002	99
Es	1.160020	0.000004	-0.000011	99
Es	0.847486	0.018274	0.269608	99
Es	-0.848085	-0.117810	0.244333	99
Es	-1.436651	0.001994	-0.001025	99
Es	0.846329	-0.242545	-0.119190	99
Es	1.436760	-0.000706	-0.000142	99
Es	0.847393	0.224978	-0.150263	99
