34
Properties=species:S:1:pos:R:3:Z:I:1 energy=-211.19470882244283 field_type=dipole dipole="0.000000 0.000000 0.000000" charge=0
C	-1.808789	-0.521856	0.421194	6
C	-0.322439	-0.468266	0.505744	6
N	0.488780	-1.155516	-0.498856	7
C	0.484261	0.305714	-0.508126	6
C	1.716480	1.034064	-0.096066	6
H	-2.248129	0.219784	1.095554	1
H	-2.169849	-1.510666	0.722224	1
H	-2.174129	-0.317446	-0.589906	1
H	0.039591	-0.539436	1.525034	1
H	-0.091679	-1.525896	-1.253646	1
H	-0.020959	0.783464	-1.339496	1
H	2.237961	0.536394	0.728444	1
H	1.460130	2.047734	0.227444	1
H	2.408771	1.111924	-0.939546	1
Es	0.121547	-1.360887	-0.950242	99
Es	-1.069240	-0.497277	0.447675	99
Es	0.561236	-0.524675	-0.625147	99
Es	0.488297	-1.155154	-0.498962	99
Es	1.716462	1.034069	-0.096073	99
Es	-2.049973	-0.384600	-0.273121	99
Es	0.786171	-1.329780	-0.399711	99
Es	-2.102854	-0.017579	0.880176	99
Es	0.006064	0.116968	0.093688	99
Es	-2.050646	-1.195280	0.625662	99
Es	-0.322332	-0.468351	0.505527	99
Es	1.534134	1.723626	0.121154	99
Es	-0.071124	-0.514545	1.200494	99
Es	-1.808778	-0.521854	0.421195	99
Es	0.081399	-0.985017	-0.025630	99
Es	0.484255	0.305478	-0.508085	99
Es	1.108490	0.659266	-0.297800	99
Es	0.127992	0.629665	-1.075812	99
Es	2.184585	1.087782	-0.672607	99
Es	2.063942	0.694626	0.464432	99
34
Properties=species:S:1:pos:R:3:Z:I:1 energy=-211.19470882244283 field_type=dipole dipole="0.000000 0.000000 0.000000" charge=0
C	-1.808789	-0.521856	0.421194	6
C	-0.322439	-0.468266	0.505744	6
N	0.488780	-1.155516	-0.498856	7
C	0.484261	0.305714	-0.508126	6
C	1.716480	1.034064	-0.096066	6
H	-2.248129	0.219784	1.095554	1
H	-2.169849	-1.510666	0.722224	1
H	-2.174129	-0.317446	-0.589906	1
H	0.039591	-0.539436	1.525034	1
H	-0.091679	-1.525896	-1.253646	1
H	-0.020959	0.783464	-1.339496	1
H	2.237961	0.536394	0.728444	1
H	1.460130	2.047734	0.227444	1
H	2.408771	1.111924	-0.939546	1
Es	0.565852	-0.523344	-0.627229	99
Es	1.533452	1.723829	0.122129	99
Es	-2.050614	-1.196636	0.625726	99
Es	0.488299	-1.155158	-0.498964	99
Es	-0.322335	-0.468351	0.505542	99
Es	2.062588	0.694589	0.463705	99
Es	0.080184	-0.987661	-0.022330	99
Es	0.780412	-1.326721	-0.401125	99
Es	1.108901	0.659267	-0.297589	99
Es	0.004923	0.118825	0.094528	99
Es	2.185603	1.087284	-0.673774	99
Es	-1.069705	-0.497783	0.447383	99
Es	-0.071700	-0.514945	1.200444	99
Es	-1.808777	-0.521855	0.421194	99
Es	1.716462	1.034069	-0.096074	99
Es	-2.102494	-0.016282	0.880315	99
Es	0.129020	0.629276	-1.075847	99
Es	0.124047	-1.362864	-0.950364	99
Es	-2.048746	-0.384543	-0.272779	99
Es	0.484253	0.305482	-0.508082	99
34
Properties=species:S:1:pos:R:3:Z:I:1 energy=-211.19470882244283 field_type=dipole dipole="0.000000 0.000000 0.000000" charge=0
C	-1.808789	-0.521856	0.421194	6
C	-0.322439	-0.468266	0.505744	6
N	0.488780	-1.155516	-0.498856	7
C	0.484261	0.305714	-0.508126	6
C	1.716480	1.034064	-0.096066	6
H	-2.248129	0.219784	1.095554	1
H	-2.169849	-1.510666	0.722224	1
H	-2.174129	-0.317446	-0.589906	1
H	0.039591	-0.539436	1.525034	1
H	-0.091679	-1.525896	-1.253646	1
H	-0.020959	0.783464	-1.339496	1
H	2.237961	0.536394	0.728444	1
H	1.460130	2.047734	0.227444	1
H	2.408771	1.111924	-0.939546	1
Es	-1.808778	-0.521855	0.421195	99
Es	0.004232	0.120332	0.094998	99
Es	-2.047794	-0.384395	-0.272719	99
Es	0.567285	-0.522617	-0.628676	99
Es	0.129689	0.628983	-1.075964	99
Es	0.484250	0.305484	-0.508082	99
Es	-1.070104	-0.498042	0.447413	99
Es	-0.322335	-0.468348	0.505541	99
Es	1.109191	0.659228	-0.297394	99
Es	2.186242	1.086970	-0.674592	99
Es	1.716462	1.034069	-0.096074	99
Es	0.488336	-1.155169	-0.498944	99
Es	1.532998	1.723847	0.122808	99
Es	0.777547	-1.323818	-0.403264	99
Es	0.080035	-0.990262	-0.019360	99
Es	0.125531	-1.364184	-0.949742	99
Es	-2.102218	-0.015547	0.880340	99
Es	-0.072144	-0.515248	1.200390	99
Es	2.061701	0.694644	0.463155	99
Es	-2.050501	-1.197591	0.625782	99
34
Properties=species:S:1:pos:R:3:Z:I:1 energy=-211.19470882244283 field_type=dipole dipole="0.000000 0.000000 0.000000" charge=0
C	-1.808789	-0.521856	0.421194	6
C	-0.322439	-0.468266	0.505744	6
N	0.488780	-1.155516	-0.498856	7
C	0.484261	0.305714	-0.508126	6
C	1.716480	1.034064	-0.096066	6
H	-2.248129	0.219784	1.095554	1
H	-2.169849	-1.510666	0.722224	1
H	-2.174129	-0.317446	-0.589906	1
H	0.039591	-0.539436	1.525034	1
H	-0.091679	-1.525896	-1.253646	1
H	-0.020959	0.783464	-1.339496	1
H	2.237961	0.536394	0.728444	1
H	1.460130	2.047734	0.227444	1
H	2.408771	1.111924	-0.939546	1
Es	0.130194	0.629003	-1.075936	99
Es	0.126957	-1.365256	-0.949395	99
Es	0.484253	0.305480	-0.508082	99
Es	-2.050247	-1.198316	0.625788	99
Es	-0.322335	-0.468350	0.505543	99
Es	1.716463	1.034070	-0.096073	99
Es	0.488290	-1.155154	-0.498969	99
Es	1.532521	1.723820	0.123154	99
Es	-2.047327	-0.384296	-0.272506	99
Es	-2.101882	-0.014985	0.880539	99
Es	0.003767	0.121169	0.095440	99
Es	0.569039	-0.521956	-0.630022	99
Es	0.079593	-0.991917	-0.017807	99
Es	2.186592	1.086702	-0.675268	99
Es	2.061151	0.694766	0.462866	99
Es	-1.070399	-0.498131	0.446999	99
Es	-1.808777	-0.521855	0.421193	99
Es	1.109435	0.659019	-0.297084	99
Es	-0.072537	-0.515486	1.200465	99
Es	0.774876	-1.321846	-0.404032	99
34
Properties=species:S:1:pos:R:3:Z:I:1 energy=-211.19470882244283 field_type=dipole dipole="0.000000 0.000000 0.000000" charge=0
C	-1.808789	-0.521856	0.421194	6
C	-0.322439	-0.468266	0.505744	6
N	0.488780	-1.155516	-0.498856	7
C	0.484261	0.305714	-0.508126	6
C	1.716480	1.034064	-0.096066	6
H	-2.248129	0.219784	1.095554	1
H	-2.169849	-1.510666	0.722224	1
H	-2.174129	-0.317446	-0.589906	1
H	0.039591	-0.539436	1.525034	1
H	-0.091679	-1.525896	-1.253646	1
H	-0.020959	0.783464	-1.339496	1
H	2.237961	0.536394	0.728444	1
H	1.460130	2.047734	0.227444	1
H	2.408771	1.111924	-0.939546	1
Es	-0.072874	-0.515780	1.200394	99
Es	-2.101656	-0.014463	0.880480	99
Es	-2.046730	-0.384258	-0.272340	99
Es	1.109748	0.659192	-0.297168	99
Es	0.130468	0.628846	-1.075935	99
Es	-0.322335	-0.468346	0.505548	99
Es	2.060553	0.694560	0.462475	99
Es	2.186889	1.086486	-0.675722	99
Es	0.079495	-0.993397	-0.016319	99
Es	-2.050253	-1.198848	0.625823	99
Es	0.128110	-1.366269	-0.949039	99
Es	0.772493	-1.319845	-0.404918	99
Es	1.716462	1.034069	-0.096074	99
Es	0.003469	0.122102	0.095880	99
Es	-1.808777	-0.521854	0.421194	99
Es	0.570343	-0.521586	-0.631024	99
Es	-1.070556	-0.498339	0.446931	99
Es	1.532248	1.723874	0.123681	99
Es	0.484255	0.305478	-0.508083	99
Es	0.488274	-1.155142	-0.498973	99
34
Properties=species:S:1:pos:R:3:Z:I:1 energy=-211.19470882244283 field_type=dipole dipole="0.000000 0.000000 0.000000" charge=0
C	-1.808789	-0.521856	0.421194	6
C	-0.322439	-0.468266	0.505744	6
N	0.488780	-1.155516	-0.498856	7
C	0.484261	0.305714	-0.508126	6
C	1.716480	1.034064	-0.096066	6
H	-2.248129	0.219784	1.095554	1
H	-2.169849	-1.510666	0.722224	1
H	-2.174129	-0.317446	-0.589906	1
H	0.039591	-0.539436	1.525034	1
H	-0.091679	-1.525896	-1.253646	1
H	-0.020959	0.783464	-1.339496	1
H	2.237961	0.536394	0.728444	1
H	1.460130	2.047734	0.227444	1
H	2.408771	1.111924	-0.939546	1
Es	1.531925	1.723817	0.124039	99
Es	0.129425	-1.367303	-0.948825	99
Es	-0.322328	-0.468342	0.505533	99
Es	-2.050095	-1.199247	0.625856	99
Es	0.571186	-0.521214	-0.631900	99
Es	0.488293	-1.155150	-0.498961	99
Es	0.770641	-1.317997	-0.405322	99
Es	2.060042	0.694559	0.462194	99
Es	0.130767	0.628865	-1.075921	99
Es	1.109955	0.659132	-0.297076	99
Es	0.003160	0.122564	0.096242	99
Es	-1.808777	-0.521855	0.421195	99
Es	0.484251	0.305481	-0.508082	99
Es	2.187234	1.086362	-0.676061	99
Es	-2.046111	-0.384237	-0.272461	99
Es	-2.101566	-0.014098	0.880462	99
Es	0.079255	-0.994667	-0.015467	99
Es	-0.073042	-0.515883	1.200316	99
Es	-1.071052	-0.498374	0.447125	99
Es	1.716462	1.034069	-0.096074	99
34
Properties=species:S:1:pos:R:3:Z:I:1 energy=-211.19470882244283 field_type=dipole dipole="0.000000 0.000000 0.000000" charge=0
C	-1.808789	-0.521856	0.421194	6
C	-0.322439	-0.468266	0.505744	6
N	0.488780	-1.155516	-0.498856	7
C	0.484261	0.305714	-0.508126	6
C	1.716480	1.034064	-0.096066	6
H	-2.248129	0.219784	1.095554	1
H	-2.169849	-1.510666	0.722224	1
H	-2.174129	-0.317446	-0.589906	1
H	0.039591	-0.539436	1.525034	1
H	-0.091679	-1.525896	-1.253646	1
H	-0.020959	0.783464	-1.339496	1
H	2.237961	0.536394	0.728444	1
H	1.460130	2.047734	0.227444	1
H	2.408771	1.111924	-0.939546	1
Es	-2.045783	-0.384213	-0.272265	99
Es	2.187357	1.086169	-0.676452	99
Es	0.130998	0.628874	-1.075944	99
Es	0.130195	-1.367734	-0.948447	99
Es	1.716462	1.034069	-0.096074	99
Es	-0.322336	-0.468345	0.505541	99
Es	1.531696	1.723804	0.124290	99
Es	2.059701	0.694522	0.461991	99
Es	1.110139	0.659160	-0.296906	99
Es	-1.071151	-0.498453	0.446955	99
Es	-1.808778	-0.521855	0.421195	99
Es	-2.050074	-1.199568	0.625811	99
Es	-2.101461	-0.013813	0.880448	99
Es	0.079188	-0.995768	-0.014410	99
Es	0.571799	-0.521013	-0.632523	99
Es	0.003148	0.123124	0.096355	99
Es	0.484257	0.305474	-0.508085	99
Es	-0.073285	-0.516047	1.200314	99
Es	0.488258	-1.155127	-0.498971	99
Es	0.769296	-1.316780	-0.406012	99
34
Properties=species:S:1:pos:R:3:Z:I:1 energy=-211.19470882244283 field_type=dipole dipole="0.000000 0.000000 0.000000" charge=0
C	-1.808789	-0.521856	0.421194	6
C	-0.322439	-0.468266	0.505744	6
N	0.488780	-1.155516	-0.498856	7
C	0.484261	0.305714	-0.508126	6
C	1.716480	1.034064	-0.096066	6
H	-2.248129	0.219784	1.095554	1
H	-2.169849	-1.510666	0.722224	1
H	-2.174129	-0.317446	-0.589906	1
H	0.039591	-0.539436	1.525034	1
H	-0.091679	-1.525896	-1.253646	1
H	-0.020959	0.783464	-1.339496	1
H	2.237961	0.536394	0.728444	1
H	1.460130	2.047734	0.227444	1
H	2.408771	1.111924	-0.939546	1
Es	1.110278	0.659212	-0.296810	99
Es	0.484253	0.305478	-0.508081	99
Es	0.572684	-0.520837	-0.633250	99
Es	-1.808778	-0.521855	0.421195	99
Es	0.767714	-1.315571	-0.406034	99
Es	-0.322331	-0.468348	0.505541	99
Es	0.002909	0.123616	0.096645	99
Es	0.488280	-1.155142	-0.498967	99
Es	1.531602	1.723853	0.124510	99
Es	0.131152	-1.368524	-0.948223	99
Es	0.078929	-0.996326	-0.013956	99
Es	-1.071411	-0.498544	0.446940	99
Es	-0.073491	-0.516203	1.200221	99
Es	0.131301	0.628847	-1.075970	99
Es	1.716462	1.034069	-0.096075	99
Es	-2.101322	-0.013593	0.880445	99
Es	-2.045472	-0.384171	-0.272269	99
Es	2.187453	1.085945	-0.676715	99
Es	-2.049957	-1.199852	0.625854	99
Es	2.059370	0.694425	0.461808	99
34
Properties=species:S:1:pos:R:3:Z:I:1 energy=-211.19470882244283 field_type=dipole dipole="0.000000 0.000000 0.000000" charge=0
C	-1.808789	-0.521856	0.421194	6
C	-0.322439	-0.468266	0.505744	6
N	0.488780	-1.155516	-0.498856	7
C	0.484261	0.305714	-0.508126	6
C	1.716480	1.034064	-0.096066	6
H	-2.248129	0.219784	1.095554	1
H	-2.169849	-1.510666	0.722224	1
H	-2.174129	-0.317446	-0.589906	1
H	0.039591	-0.539436	1.525034	1
H	-0.091679	-1.525896	-1.253646	1
H	-0.020959	0.783464	-1.339496	1
H	2.237961	0.536394	0.728444	1
H	1.460130	2.047734	0.227444	1
H	2.408771	1.111924	-0.939546	1
Es	0.131842	-1.368885	-0.947833	99
Es	-1.808777	-0.521855	0.421195	99
Es	-2.101189	-0.013367	0.880412	99
Es	-1.071530	-0.498605	0.446847	99
Es	0.573191	-0.520729	-0.633915	99
Es	-2.045200	-0.384156	-0.272213	99
Es	0.488296	-1.155143	-0.498962	99
Es	0.002722	0.123933	0.096644	99
Es	0.078675	-0.996927	-0.013301	99
Es	0.484253	0.305478	-0.508081	99
Es	0.766713	-1.314793	-0.406275	99
Es	1.531345	1.723832	0.124755	99
Es	2.187557	1.085896	-0.676929	99
Es	1.716462	1.034069	-0.096074	99
Es	-0.073695	-0.516165	1.200243	99
Es	-2.049914	-1.200089	0.625888	99
Es	2.059125	0.694356	0.461619	99
Es	1.110568	0.659263	-0.296824	99
Es	0.131517	0.628718	-1.075927	99
Es	-0.322335	-0.468351	0.505542	99
34
Properties=species:S:1:pos:R:3:Z:I:1 energy=-211.19470882244283 field_type=dipole dipole="0.000000 0.000000 0.000000" charge=0
C	-1.808789	-0.521856	0.421194	6
C	-0.322439	-0.468266	0.505744	6
N	0.488780	-1.155516	-0.498856	7
C	0.484261	0.305714	-0.508126	6
C	1.716480	1.034064	-0.096066	6
H	-2.248129	0.219784	1.095554	1
H	-2.169849	-1.510666	0.722224	1
H	-2.174129	-0.317446	-0.589906	1
H	0.039591	-0.539436	1.525034	1
H	-0.091679	-1.525896	-1.253646	1
H	-0.020959	0.783464	-1.339496	1
H	2.237961	0.536394	0.728444	1
H	1.460130	2.047734	0.227444	1
H	2.408771	1.111924	-0.939546	1
Es	0.131670	0.628767	-1.075946	99
Es	-1.071765	-0.498563	0.446878	99
Es	1.531161	1.723737	0.124855	99
Es	1.110549	0.659126	-0.296881	99
Es	0.132865	-1.369700	-0.947751	99
Es	0.765611	-1.313525	-0.406266	99
Es	1.716462	1.034069	-0.096074	99
Es	-2.049873	-1.200346	0.625849	99
Es	0.488273	-1.155138	-0.498970	99
Es	0.573629	-0.520464	-0.634396	99
Es	-2.101133	-0.013198	0.880373	99
Es	2.058962	0.694352	0.461568	99
Es	0.002762	0.124225	0.097018	99
Es	-0.073800	-0.516323	1.200110	99
Es	0.078380	-0.997597	-0.012994	99
Es	-0.322337	-0.468348	0.505537	99
Es	-1.808779	-0.521855	0.421194	99
Es	2.187652	1.085890	-0.677104	99
Es	-2.044917	-0.384110	-0.272106	99
Es	0.484252	0.305480	-0.508084	99
34
Properties=species:S:1:pos:R:3:Z:I:1 energy=-211.19470882244283 field_type=dipole dipole="0.000000 0.000000 0.000000" charge=0
C	-1.808789	-0.521856	0.421194	6
C	-0.322439	-0.468266	0.505744	6
N	0.488780	-1.155516	-0.498856	7
C	0.484261	0.305714	-0.508126	6
C	1.716480	1.034064	-0.096066	6
H	-2.248129	0.219784	1.095554	1
H	-2.169849	-1.510666	0.722224	1
H	-2.174129	-0.317446	-0.589906	1
H	0.039591	-0.539436	1.525034	1
H	-0.091679	-1.525896	-1.253646	1
H	-0.020959	0.783464	-1.339496	1
H	2.237961	0.536394	0.728444	1
H	1.460130	2.047734	0.227444	1
H	2.408771	1.111924	-0.939546	1
Es	0.002701	0.124454	0.097168	99
Es	1.716461	1.034068	-0.096074	99
Es	0.764497	-1.312935	-0.406705	99
Es	-1.071813	-0.498606	0.446910	99
Es	0.488312	-1.155149	-0.498947	99
Es	0.574347	-0.520397	-0.634664	99
Es	2.187774	1.085768	-0.677224	99
Es	1.530917	1.723751	0.124916	99
Es	2.058763	0.694427	0.461477	99
Es	-0.073935	-0.516417	1.200114	99
Es	-2.044652	-0.384144	-0.272092	99
Es	1.110773	0.659137	-0.296832	99
Es	-2.101137	-0.013051	0.880277	99
Es	-0.322333	-0.468349	0.505539	99
Es	0.131673	0.628758	-1.075890	99
Es	-1.808777	-0.521855	0.421195	99
Es	-2.049878	-1.200459	0.625880	99
Es	0.133298	-1.369645	-0.947566	99
Es	0.484254	0.305480	-0.508082	99
Es	0.078380	-0.998355	-0.012590	99
34
Properties=species:S:1:pos:R:3:Z:I:1 energy=-211.19470882244283 field_type=dipole dipole="0.000000 0.000000 0.000000" charge=0
C	-1.808789	-0.521856	0.421194	6
C	-0.322439	-0.468266	0.505744	6
N	0.488780	-1.155516	-0.498856	7
C	0.484261	0.305714	-0.508126	6
C	1.716480	1.034064	-0.096066	6
H	-2.248129	0.219784	1.095554	1
H	-2.169849	-1.510666	0.722224	1
H	-2.174129	-0.317446	-0.589906	1
H	0.039591	-0.539436	1.525034	1
H	-0.091679	-1.525896	-1.253646	1
H	-0.020959	0.783464	-1.339496	1
H	2.237961	0.536394	0.728444	1
H	1.460130	2.047734	0.227444	1
H	2.408771	1.111924	-0.939546	1
Es	0.133496	-1.369736	-0.947074	99
Es	1.110758	0.659251	-0.296703	99
Es	0.574638	-0.520274	-0.635285	99
Es	1.716464	1.034069	-0.096074	99
Es	-2.049881	-1.200626	0.625856	99
Es	0.764024	-1.312643	-0.406874	99
Es	-1.808777	-0.521855	0.421195	99
Es	0.002445	0.124693	0.097298	99
Es	2.058429	0.694323	0.461279	99
Es	0.484254	0.305479	-0.508081	99
Es	-0.074049	-0.516518	1.200120	99
Es	0.131903	0.628787	-1.075930	99
Es	0.488306	-1.155172	-0.498970	99
Es	0.078409	-0.998586	-0.012361	99
Es	-1.071911	-0.498720	0.446885	99
Es	-0.322333	-0.468349	0.505538	99
Es	2.187907	1.085624	-0.677394	99
Es	-2.044390	-0.384132	-0.272023	99
Es	-2.101061	-0.012864	0.880250	99
Es	1.530995	1.723728	0.125160	99
34
Properties=species:S:1:pos:R:3:Z:I:1 energy=-211.19470882244283 field_type=dipole dipole="0.000000 0.000000 0.000000" charge=0
C	-1.808789	-0.521856	0.421194	6
C	-0.322439	-0.468266	0.505744	6
N	0.488780	-1.155516	-0.498856	7
C	0.484261	0.305714	-0.508126	6
C	1.716480	1.034064	-0.096066	6
H	-2.248129	0.219784	1.095554	1
H	-2.169849	-1.510666	0.722224	1
H	-2.174129	-0.317446	-0.589906	1
H	0.039591	-0.539436	1.525034	1
H	-0.091679	-1.525896	-1.253646	1
H	-0.020959	0.783464	-1.339496	1
H	2.237961	0.536394	0.728444	1
H	1.460130	2.047734	0.227444	1
H	2.408771	1.111924	-0.939546	1
Es	0.574523	-0.520301	-0.635607	99
Es	-2.049881	-1.200752	0.625843	99
Es	0.131952	0.628720	-1.075840	99
Es	1.530835	1.723669	0.125248	99
Es	0.763493	-1.311733	-0.406966	99
Es	0.078110	-0.999116	-0.011920	99
Es	1.716462	1.034069	-0.096074	99
Es	-0.074214	-0.516606	1.200022	99
Es	1.110934	0.659181	-0.296813	99
Es	0.484255	0.305479	-0.508083	99
Es	-2.044201	-0.384037	-0.272059	99
Es	-1.072095	-0.498705	0.446903	99
Es	-2.100950	-0.012804	0.880259	99
Es	0.488231	-1.155110	-0.498980	99
Es	0.002637	0.125026	0.097403	99
Es	2.058386	0.694334	0.461214	99
Es	0.134345	-1.370282	-0.946955	99
Es	-1.808777	-0.521855	0.421195	99
Es	-0.322334	-0.468349	0.505540	99
Es	2.187916	1.085651	-0.677519	99
34
Properties=species:S:1:pos:R:3:Z:I:1 energy=-211.19470882244283 field_type=dipole dipole="0.000000 0.000000 0.000000" charge=0
C	-1.808789	-0.521856	0.421194	6
C	-0.322439	-0.468266	0.505744	6
N	0.488780	-1.155516	-0.498856	7
C	0.484261	0.305714	-0.508126	6
C	1.716480	1.034064	-0.096066	6
H	-2.248129	0.219784	1.095554	1
H	-2.169849	-1.510666	0.722224	1
H	-2.174129	-0.317446	-0.589906	1
H	0.039591	-0.539436	1.525034	1
H	-0.091679	-1.525896	-1.253646	1
H	-0.020959	0.783464	-1.339496	1
H	2.237961	0.536394	0.728444	1
H	1.460130	2.047734	0.227444	1
H	2.408771	1.111924	-0.939546	1
Es	2.058232	0.694218	0.461243	99
Es	1.530636	1.723637	0.125288	99
Es	1.716462	1.034069	-0.096074	99
Es	0.575243	-0.520270	-0.635932	99
Es	0.134604	-1.370243	-0.946689	99
Es	-2.100972	-0.012652	0.880177	99
Es	0.132057	0.628650	-1.075829	99
Es	-1.808777	-0.521855	0.421195	99
Es	0.484252	0.305480	-0.508086	99
Es	0.078155	-0.999515	-0.011742	99
Es	-1.072077	-0.498696	0.446820	99
Es	-2.049821	-1.200879	0.625876	99
Es	-0.322334	-0.468350	0.505540	99
Es	2.187947	1.085613	-0.677644	99
Es	1.111128	0.659365	-0.296792	99
Es	-2.044154	-0.384142	-0.271863	99
Es	-0.074196	-0.516632	1.199999	99
Es	0.762533	-1.311366	-0.407231	99
Es	0.488299	-1.155145	-0.498960	99
Es	0.002409	0.125193	0.097515	99
34
Properties=species:S:1:pos:R:3:Z:I:1 energy=-211.19470882244283 field_type=dipole dipole="0.000000 0.000000 0.000000" charge=0
C	-1.808789	-0.521856	0.421194	6
C	-0.322439	-0.468266	0.505744	6
N	0.488780	-1.155516	-0.498856	7
C	0.484261	0.305714	-0.508126	6
C	1.716480	1.034064	-0.096066	6
H	-2.248129	0.219784	1.095554	1
H	-2.169849	-1.510666	0.722224	1
H	-2.174129	-0.317446	-0.589906	1
H	0.039591	-0.539436	1.525034	1
H	-0.091679	-1.525896	-1.253646	1
H	-0.020959	0.783464	-1.339496	1
H	2.237961	0.536394	0.728444	1
H	1.460130	2.047734	0.227444	1
H	2.408771	1.111924	-0.939546	1
Es	0.488308	-1.155159	-0.498961	99
Es	-0.074412	-0.516659	1.200024	99
Es	0.002518	0.125174	0.097559	99
Es	1.530608	1.723674	0.125502	99
Es	0.135133	-1.370627	-0.946493	99
Es	0.761787	-1.310758	-0.407186	99
Es	2.058002	0.694061	0.461078	99
Es	1.111210	0.659447	-0.296806	99
Es	0.484253	0.305479	-0.508079	99
Es	0.132081	0.628759	-1.075814	99
Es	0.077940	-0.999801	-0.011462	99
Es	-2.101181	-0.012580	0.880023	99
Es	-1.808778	-0.521854	0.421193	99
Es	1.716462	1.034069	-0.096074	99
Es	-0.322333	-0.468351	0.505538	99
Es	-1.072016	-0.498608	0.446922	99
Es	-2.043811	-0.384200	-0.271861	99
Es	-2.049829	-1.200958	0.625831	99
Es	2.188020	1.085538	-0.677705	99
Es	0.575662	-0.520164	-0.636418	99
34
Properties=species:S:1:pos:R:3:Z:I:1 energy=-211.19470882244283 field_type=dipole dipole="0.000000 0.000000 0.000000" charge=0
C	-1.808789	-0.521856	0.421194	6
C	-0.322439	-0.468266	0.505744	6
N	0.488780	-1.155516	-0.498856	7
C	0.484261	0.305714	-0.508126	6
C	1.716480	1.034064	-0.096066	6
H	-2.248129	0.219784	1.095554	1
H	-2.169849	-1.510666	0.722224	1
H	-2.174129	-0.317446	-0.589906	1
H	0.039591	-0.539436	1.525034	1
H	-0.091679	-1.525896	-1.253646	1
H	-0.020959	0.783464	-1.339496	1
H	2.237961	0.536394	0.728444	1
H	1.460130	2.047734	0.227444	1
H	2.408771	1.111924	-0.939546	1
Es	0.077905	-1.000032	-0.011341	99
Es	0.002370	0.125444	0.097670	99
Es	-2.101009	-0.012511	0.880049	99
Es	-1.808776	-0.521855	0.421195	99
Es	-0.322339	-0.468347	0.505540	99
Es	-0.074498	-0.516755	1.199983	99
Es	-2.049925	-1.201089	0.625767	99
Es	0.488232	-1.155112	-0.498981	99
Es	-1.072183	-0.498744	0.446884	99
Es	2.188131	1.085515	-0.677740	99
Es	0.484250	0.305483	-0.508083	99
Es	1.530570	1.723618	0.125521	99
Es	0.135803	-1.371152	-0.946319	99
Es	2.057885	0.694121	0.461054	99
Es	1.716462	1.034069	-0.096074	99
Es	1.111138	0.659260	-0.296720	99
Es	0.761512	-1.310019	-0.407188	99
Es	0.575431	-0.520186	-0.636667	99
Es	-2.043651	-0.384057	-0.271806	99
Es	0.132319	0.628829	-1.075933	99
34
Properties=species:S:1:pos:R:3:Z:I:1 energy=-211.19470882244283 field_type=dipole dipole="0.000000 0.000000 0.000000" charge=0
C	-1.808789	-0.521856	0.421194	6
C	-0.322439	-0.468266	0.505744	6
N	0.488780	-1.155516	-0.498856	7
C	0.484261	0.305714	-0.508126	6
C	1.716480	1.034064	-0.096066	6
H	-2.248129	0.219784	1.095554	1
H	-2.169849	-1.510666	0.722224	1
H	-2.174129	-0.317446	-0.589906	1
H	0.039591	-0.539436	1.525034	1
H	-0.091679	-1.525896	-1.253646	1
H	-0.020959	0.783464	-1.339496	1
H	2.237961	0.536394	0.728444	1
H	1.460130	2.047734	0.227444	1
H	2.408771	1.111924	-0.939546	1
Es	0.002491	0.125405	0.097621	99
Es	-2.100963	-0.012373	0.880038	99
Es	0.575485	-0.519868	-0.636914	99
Es	-0.322337	-0.468351	0.505542	99
Es	0.761039	-1.309417	-0.407192	99
Es	-1.808778	-0.521854	0.421194	99
Es	1.530462	1.723591	0.125703	99
Es	-1.072316	-0.498742	0.446819	99
Es	2.188145	1.085485	-0.677886	99
Es	2.057738	0.694029	0.460916	99
Es	0.484254	0.305479	-0.508081	99
Es	1.111279	0.659389	-0.296715	99
Es	-2.043674	-0.384165	-0.271718	99
Es	-0.074404	-0.516753	1.199956	99
Es	0.488228	-1.155106	-0.498980	99
Es	-2.049849	-1.201134	0.625830	99
Es	0.136311	-1.371560	-0.946169	99
Es	0.077748	-1.000465	-0.011203	99
Es	1.716462	1.034069	-0.096074	99
Es	0.132306	0.628821	-1.075877	99
34
Properties=species:S:1:pos:R:3:Z:I:1 energy=-211.19470882244283 field_type=dipole dipole="0.000000 0.000000 0.000000" charge=0
C	-1.808789	-0.521856	0.421194	6
C	-0.322439	-0.468266	0.505744	6
N	0.488780	-1.155516	-0.498856	7
C	0.484261	0.305714	-0.508126	6
C	1.716480	1.034064	-0.096066	6
H	-2.248129	0.219784	1.095554	1
H	-2.169849	-1.510666	0.722224	1
H	-2.174129	-0.317446	-0.589906	1
H	0.039591	-0.539436	1.525034	1
H	-0.091679	-1.525896	-1.253646	1
H	-0.020959	0.783464	-1.339496	1
H	2.237961	0.536394	0.728444	1
H	1.460130	2.047734	0.227444	1
H	2.408771	1.111924	-0.939546	1
Es	-1.808777	-0.521855	0.421195	99
Es	2.057731	0.694235	0.460966	99
Es	0.575900	-0.520036	-0.637175	99
Es	0.488278	-1.155143	-0.498968	99
Es	0.132341	0.628694	-1.075884	99
Es	-2.101035	-0.012337	0.880031	99
Es	-2.043407	-0.384124	-0.271802	99
Es	0.484253	0.305483	-0.508081	99
Es	0.002361	0.125768	0.097848	99
Es	2.188214	1.085442	-0.677939	99
Es	1.530296	1.723537	0.125587	99
Es	-0.322336	-0.468351	0.505541	99
Es	-1.072276	-0.498783	0.446948	99
Es	1.111411	0.659287	-0.296706	99
Es	0.077762	-1.000767	-0.011059	99
Es	1.716463	1.034069	-0.096074	99
Es	0.136378	-1.371299	-0.945856	99
Es	-2.049852	-1.201179	0.625750	99
Es	-0.074604	-0.516818	1.199895	99
Es	0.760524	-1.309344	-0.407405	99
34
Properties=species:S:1:pos:R:3:Z:I:1 energy=-211.19470882244283 field_type=dipole dipole="0.000000 0.000000 0.000000" charge=0
C	-1.808789	-0.521856	0.421194	6
C	-0.322439	-0.468266	0.505744	6
N	0.488780	-1.155516	-0.498856	7
C	0.484261	0.305714	-0.508126	6
C	1.716480	1.034064	-0.096066	6
H	-2.248129	0.219784	1.095554	1
H	-2.169849	-1.510666	0.722224	1
H	-2.174129	-0.317446	-0.589906	1
H	0.039591	-0.539436	1.525034	1
H	-0.091679	-1.525896	-1.253646	1
H	-0.020959	0.783464	-1.339496	1
H	2.237961	0.536394	0.728444	1
H	1.460130	2.047734	0.227444	1
H	2.408771	1.111924	-0.939546	1
Es	0.002371	0.125732	0.097936	99
Es	-2.049934	-1.201294	0.625819	99
Es	-1.072395	-0.498775	0.446895	99
Es	0.760070	-1.308401	-0.407142	99
Es	-1.808774	-0.521855	0.421196	99
Es	0.137245	-1.372186	-0.945866	99
Es	2.188227	1.085431	-0.677959	99
Es	1.111416	0.659311	-0.296717	99
Es	0.575737	-0.519921	-0.637436	99
Es	0.488292	-1.155153	-0.498967	99
Es	0.484252	0.305474	-0.508081	99
Es	-2.043366	-0.384106	-0.271664	99
Es	2.057575	0.694009	0.460910	99
Es	0.132488	0.628836	-1.075975	99
Es	1.716464	1.034070	-0.096073	99
Es	-0.322335	-0.468347	0.505539	99
Es	1.530303	1.723559	0.125722	99
Es	-2.100944	-0.012281	0.879902	99
Es	-0.074607	-0.516874	1.199819	99
Es	0.077543	-1.000750	-0.011045	99
34
Properties=species:S:1:pos:R:3:Z:I:1 energy=-211.19470882244283 field_type=dipole dipole="0.000000 0.000000 0.000000" charge=0
C	-1.808789	-0.521856	0.421194	6
C	-0.322439	-0.468266	0.505744	6
N	0.488780	-1.155516	-0.498856	7
C	0.484261	0.305714	-0.508126	6
C	1.716480	1.034064	-0.096066	6
H	-2.248129	0.219784	1.095554	1
H	-2.169849	-1.510666	0.722224	1
H	-2.174129	-0.317446	-0.589906	1
H	0.039591	-0.539436	1.525034	1
H	-0.091679	-1.525896	-1.253646	1
H	-0.020959	0.783464	-1.339496	1
H	2.237961	0.536394	0.728444	1
H	1.460130	2.047734	0.227444	1
H	2.408771	1.111924	-0.939546	1
Es	-2.043396	-0.384155	-0.271552	99
Es	1.530346	1.723509	0.125810	99
Es	1.111444	0.659509	-0.296738	99
Es	-0.322336	-0.468345	0.505540	99
Es	0.137579	-1.372350	-0.945872	99
Es	0.484254	0.305479	-0.508081	99
Es	2.188378	1.085387	-0.677980	99
Es	0.077384	-1.000952	-0.010926	99
Es	1.716461	1.034069	-0.096075	99
Es	-1.072412	-0.498733	0.446792	99
Es	-2.049858	-1.201387	0.625865	99
Es	2.057262	0.693788	0.460927	99
Es	0.575771	-0.519873	-0.637538	99
Es	0.002318	0.125815	0.097891	99
Es	-0.074640	-0.516908	1.199780	99
Es	-1.808778	-0.521855	0.421195	99
Es	0.759807	-1.308062	-0.407152	99
Es	-2.100922	-0.012213	0.879860	99
Es	0.488306	-1.155157	-0.498962	99
Es	0.132657	0.628914	-1.075971	99
34
Properties=species:S:1:pos:R:3:Z:I:1 energy=-211.19470882244283 field_type=dipole dipole="0.000000 0.000000 0.000000" charge=0
C	-1.808789	-0.521856	0.421194	6
C	-0.322439	-0.468266	0.505744	6
N	0.488780	-1.155516	-0.498856	7
C	0.484261	0.305714	-0.508126	6
C	1.716480	1.034064	-0.096066	6
H	-2.248129	0.219784	1.095554	1
H	-2.169849	-1.510666	0.722224	1
H	-2.174129	-0.317446	-0.589906	1
H	0.039591	-0.539436	1.525034	1
H	-0.091679	-1.525896	-1.253646	1
H	-0.020959	0.783464	-1.339496	1
H	2.237961	0.536394	0.728444	1
H	1.460130	2.047734	0.227444	1
H	2.408771	1.111924	-0.939546	1
Es	0.138361	-1.373056	-0.945607	99
Es	0.002602	0.125875	0.097938	99
Es	-2.049973	-1.201382	0.625823	99
Es	0.077082	-1.001079	-0.010862	99
Es	0.488254	-1.155125	-0.498972	99
Es	1.530184	1.723467	0.125881	99
Es	-2.043240	-0.384099	-0.271602	99
Es	-1.808777	-0.521855	0.421195	99
Es	0.759210	-1.307315	-0.406921	99
Es	0.484252	0.305483	-0.508081	99
Es	-0.322333	-0.468349	0.505537	99
Es	0.575820	-0.519922	-0.637976	99
Es	-2.100932	-0.012221	0.879820	99
Es	-1.072472	-0.498716	0.446947	99
Es	2.188273	1.085401	-0.678153	99
Es	0.132535	0.628935	-1.075935	99
Es	1.716461	1.034069	-0.096075	99
Es	1.111599	0.659383	-0.296711	99
Es	-0.074643	-0.516901	1.199731	99
Es	2.057362	0.693886	0.460835	99
34
Properties=species:S:1:pos:R:3:Z:I:1 energy=-211.19470882244283 field_type=dipole dipole="0.000000 0.000000 0.000000" charge=0
C	-1.808789	-0.521856	0.421194	6
C	-0.322439	-0.468266	0.505744	6
N	0.488780	-1.155516	-0.498856	7
C	0.484261	0.305714	-0.508126	6
C	1.716480	1.034064	-0.096066	6
H	-2.248129	0.219784	1.095554	1
H	-2.169849	-1.510666	0.722224	1
H	-2.174129	-0.317446	-0.589906	1
H	0.039591	-0.539436	1.525034	1
H	-0.091679	-1.525896	-1.253646	1
H	-0.020959	0.783464	-1.339496	1
H	2.237961	0.536394	0.728444	1
H	1.460130	2.047734	0.227444	1
H	2.408771	1.111924	-0.939546	1
Es	-0.322333	-0.468348	0.505541	99
Es	1.530126	1.723427	0.125909	99
Es	0.137714	-1.372114	-0.945362	99
Es	-1.072605	-0.498743	0.446947	99
Es	-2.043010	-0.384176	-0.271625	99
Es	0.077379	-1.001237	-0.010727	99
Es	0.759088	-1.307975	-0.407441	99
Es	0.484254	0.305477	-0.508081	99
Es	0.002273	0.126053	0.098015	99
Es	0.576467	-0.519975	-0.638104	99
Es	0.488295	-1.155148	-0.498958	99
Es	-2.049836	-1.201505	0.625888	99
Es	-0.074711	-0.517001	1.199819	99
Es	1.111488	0.659367	-0.296628	99
Es	2.057270	0.694035	0.460748	99
Es	1.716462	1.034069	-0.096074	99
Es	2.188407	1.085384	-0.678146	99
Es	-1.808777	-0.521855	0.421195	99
Es	0.132660	0.628837	-1.075834	99
Es	-2.100983	-0.012090	0.879729	99
