39
Properties=species:S:1:pos:R:3:Z:I:1 energy=-233.05273574015092 field_type=dipole dipole="0.000000 0.000000 0.000000" charge=0
C	-2.138431	-1.263482	0.003234	6
C	-0.618951	-1.210852	0.009534	6
C	-0.107681	0.229708	-0.006146	6
C	1.420189	0.278048	-0.004516	6
C	1.906950	1.665088	-0.004386	6
C	2.308440	2.797908	-0.003446	6
H	-2.481700	-2.302662	0.018144	1
H	-2.543791	-0.784712	-0.893866	1
H	-2.552381	-0.756392	0.880624	1
H	-0.236930	-1.751532	-0.864196	1
H	-0.245321	-1.728542	0.900684	1
H	-0.497340	0.767608	0.867764	1
H	-0.494170	0.748278	-0.893056	1
H	1.809239	-0.245662	-0.885576	1
H	1.807960	-0.244762	0.877614	1
H	2.663919	3.801958	-0.002416	1
Es	-2.417278	-0.914826	0.603410	99
Es	1.420218	0.278185	-0.004516	99
Es	-0.353966	-1.578603	-0.592439	99
Es	-0.356463	-0.490213	0.001337	99
Es	-0.107618	0.229681	-0.006146	99
Es	-2.138406	-1.263482	0.003235	99
Es	2.308512	2.798139	-0.003448	99
Es	1.684540	-0.060740	-0.599134	99
Es	-0.368131	0.579479	-0.615301	99
Es	0.678499	0.270012	-0.005176	99
Es	2.298609	2.181493	-0.301348	99
Es	1.773358	2.363543	-0.026543	99
Es	1.683499	-0.060033	0.590892	99
Es	2.540354	3.454209	-0.002778	99
Es	-2.411475	-0.934156	-0.610447	99
Es	1.906864	1.664839	-0.004389	99
Es	-0.359726	-1.562669	0.623286	99
Es	1.675750	1.002243	-0.004710	99
Es	-0.370467	0.592681	0.594268	99
Es	-0.618972	-1.210823	0.009534	99
Es	-2.372013	-1.973376	0.013427	99
Es	-1.382214	-1.233285	0.006366	99
Es	2.261503	2.193939	0.316119	99
39
Properties=species:S:1:pos:R:3:Z:I:1 energy=-233.05273574015092 field_type=dipole dipole="0.000000 0.000000 0.000000" charge=0
C	-2.138431	-1.263482	0.003234	6
C	-0.618951	-1.210852	0.009534	6
C	-0.107681	0.229708	-0.006146	6
C	1.420189	0.278048	-0.004516	6
C	1.906950	1.665088	-0.004386	6
C	2.308440	2.797908	-0.003446	6
H	-2.481700	-2.302662	0.018144	1
H	-2.543791	-0.784712	-0.893866	1
H	-2.552381	-0.756392	0.880624	1
H	-0.236930	-1.751532	-0.864196	1
H	-0.245321	-1.728542	0.900684	1
H	-0.497340	0.767608	0.867764	1
H	-0.494170	0.748278	-0.893056	1
H	1.809239	-0.245662	-0.885576	1
H	1.807960	-0.244762	0.877614	1
H	2.663919	3.801958	-0.002416	1
Es	2.308519	2.798147	-0.003446	99
Es	-2.409667	-0.933085	-0.608339	99
Es	-2.415645	-0.913659	0.601589	99
Es	1.906862	1.664833	-0.004386	99
Es	-0.355249	-1.579452	-0.591073	99
Es	2.540142	3.456057	-0.002774	99
Es	1.677345	1.004354	-0.004735	99
Es	-0.368953	0.593388	0.592822	99
Es	-1.382478	-1.232967	0.006229	99
Es	1.420218	0.278184	-0.004517	99
Es	-0.367035	0.580504	-0.613717	99
Es	-0.107618	0.229682	-0.006145	99
Es	1.681968	-0.061051	0.589293	99
Es	1.682838	-0.061684	-0.597520	99
Es	2.444799	2.129912	-0.041863	99
Es	-2.373390	-1.977492	0.013280	99
Es	0.678783	0.270047	-0.005305	99
Es	-0.618976	-1.210821	0.009533	99
Es	-0.361038	-1.563510	0.621963	99
Es	-2.138407	-1.263483	0.003235	99
Es	-0.356528	-0.490341	0.001328	99
Es	1.975598	2.293313	0.322534	99
Es	1.912889	2.315363	-0.292489	99
39
Properties=species:S:1:pos:R:3:Z:I:1 energy=-233.05273574015092 field_type=dipole dipole="0.000000 0.000000 0.000000" charge=0
C	-2.138431	-1.263482	0.003234	6
C	-0.618951	-1.210852	0.009534	6
C	-0.107681	0.229708	-0.006146	6
C	1.420189	0.278048	-0.004516	6
C	1.906950	1.665088	-0.004386	6
C	2.308440	2.797908	-0.003446	6
H	-2.481700	-2.302662	0.018144	1
H	-2.543791	-0.784712	-0.893866	1
H	-2.552381	-0.756392	0.880624	1
H	-0.236930	-1.751532	-0.864196	1
H	-0.245321	-1.728542	0.900684	1
H	-0.497340	0.767608	0.867764	1
H	-0.494170	0.748278	-0.893056	1
H	1.809239	-0.245662	-0.885576	1
H	1.807960	-0.244762	0.877614	1
H	2.663919	3.801958	-0.002416	1
Es	-0.366043	0.580811	-0.612758	99
Es	-0.356551	-0.490357	0.001348	99
Es	1.967291	2.296046	0.316519	99
Es	1.420218	0.278184	-0.004516	99
Es	-2.414475	-0.913159	0.600202	99
Es	2.443693	2.130271	-0.033019	99
Es	1.681740	-0.062108	-0.596447	99
Es	1.678028	1.005566	-0.004730	99
Es	1.680961	-0.061602	0.588269	99
Es	1.906860	1.664827	-0.004386	99
Es	-0.107618	0.229680	-0.006146	99
Es	-0.368306	0.593907	0.591724	99
Es	-0.356167	-1.579795	-0.590181	99
Es	-0.618976	-1.210822	0.009533	99
Es	-0.361900	-1.564084	0.621090	99
Es	-1.382468	-1.232825	0.006181	99
Es	-2.408608	-0.932506	-0.607038	99
Es	2.539989	3.456860	-0.002596	99
Es	2.308517	2.798148	-0.003450	99
Es	1.922218	2.312176	-0.295533	99
Es	-2.374222	-1.979528	0.013378	99
Es	-2.138407	-1.263482	0.003236	99
Es	0.679204	0.270031	-0.005180	99
39
Properties=species:S:1:pos:R:3:Z:I:1 energy=-233.05273574015092 field_type=dipole dipole="0.000000 0.000000 0.000000" charge=0
C	-2.138431	-1.263482	0.003234	6
C	-0.618951	-1.210852	0.009534	6
C	-0.107681	0.229708	-0.006146	6
C	1.420189	0.278048	-0.004516	6
C	1.906950	1.665088	-0.004386	6
C	2.308440	2.797908	-0.003446	6
H	-2.481700	-2.302662	0.018144	1
H	-2.543791	-0.784712	-0.893866	1
H	-2.552381	-0.756392	0.880624	1
H	-0.236930	-1.751532	-0.864196	1
H	-0.245321	-1.728542	0.900684	1
H	-0.497340	0.767608	0.867764	1
H	-0.494170	0.748278	-0.893056	1
H	1.809239	-0.245662	-0.885576	1
H	1.807960	-0.244762	0.877614	1
H	2.663919	3.801958	-0.002416	1
Es	2.539606	3.457404	-0.002734	99
Es	-0.107618	0.229681	-0.006145	99
Es	-2.374711	-1.980722	0.013285	99
Es	-2.413809	-0.912890	0.599235	99
Es	-1.382412	-1.232733	0.006254	99
Es	1.960038	2.298947	-0.319025	99
Es	2.308518	2.798154	-0.003446	99
Es	1.931572	2.308404	0.293272	99
Es	-0.356765	-1.580120	-0.589490	99
Es	1.678396	1.006354	-0.004639	99
Es	1.420217	0.278185	-0.004516	99
Es	-2.407798	-0.932247	-0.606001	99
Es	-0.365480	0.580992	-0.611915	99
Es	-0.367655	0.594203	0.590938	99
Es	1.681181	-0.062524	-0.595581	99
Es	1.680069	-0.061688	0.587388	99
Es	-0.362620	-1.564293	0.620247	99
Es	2.441897	2.130976	0.013834	99
Es	0.679451	0.269941	-0.005349	99
Es	-0.356580	-0.490303	0.001509	99
Es	1.906863	1.664822	-0.004390	99
Es	-2.138407	-1.263483	0.003234	99
Es	-0.618976	-1.210822	0.009533	99
39
Properties=species:S:1:pos:R:3:Z:I:1 energy=-233.05273574015092 field_type=dipole dipole="0.000000 0.000000 0.000000" charge=0
C	-2.138431	-1.263482	0.003234	6
C	-0.618951	-1.210852	0.009534	6
C	-0.107681	0.229708	-0.006146	6
C	1.420189	0.278048	-0.004516	6
C	1.906950	1.665088	-0.004386	6
C	2.308440	2.797908	-0.003446	6
H	-2.481700	-2.302662	0.018144	1
H	-2.543791	-0.784712	-0.893866	1
H	-2.552381	-0.756392	0.880624	1
H	-0.236930	-1.751532	-0.864196	1
H	-0.245321	-1.728542	0.900684	1
H	-0.497340	0.767608	0.867764	1
H	-0.494170	0.748278	-0.893056	1
H	1.809239	-0.245662	-0.885576	1
H	1.807960	-0.244762	0.877614	1
H	2.663919	3.801958	-0.002416	1
Es	1.420217	0.278185	-0.004515	99
Es	-1.382526	-1.232557	0.006165	99
Es	0.679840	0.270023	-0.005325	99
Es	-0.363161	-1.564414	0.619768	99
Es	-0.364984	0.581033	-0.611201	99
Es	-2.138408	-1.263484	0.003234	99
Es	2.308514	2.798157	-0.003448	99
Es	-0.356631	-0.490320	0.001414	99
Es	-0.367292	0.594411	0.590332	99
Es	2.539534	3.457696	-0.002663	99
Es	-2.407096	-0.932169	-0.605125	99
Es	1.679633	-0.062059	0.586790	99
Es	-0.107617	0.229680	-0.006145	99
Es	-2.413178	-0.912570	0.598388	99
Es	2.429280	2.135258	0.089345	99
Es	1.876455	2.327480	0.243214	99
Es	-2.375040	-1.981645	0.013323	99
Es	1.678635	1.006888	-0.004721	99
Es	1.680372	-0.062556	-0.594957	99
Es	1.906858	1.664823	-0.004387	99
Es	-0.618977	-1.210822	0.009532	99
Es	2.027756	2.275554	-0.344558	99
Es	-0.357207	-1.580357	-0.588961	99
39
Properties=species:S:1:pos:R:3:Z:I:1 energy=-233.05273574015092 field_type=dipole dipole="0.000000 0.000000 0.000000" charge=0
C	-2.138431	-1.263482	0.003234	6
C	-0.618951	-1.210852	0.009534	6
C	-0.107681	0.229708	-0.006146	6
C	1.420189	0.278048	-0.004516	6
C	1.906950	1.665088	-0.004386	6
C	2.308440	2.797908	-0.003446	6
H	-2.481700	-2.302662	0.018144	1
H	-2.543791	-0.784712	-0.893866	1
H	-2.552381	-0.756392	0.880624	1
H	-0.236930	-1.751532	-0.864196	1
H	-0.245321	-1.728542	0.900684	1
H	-0.497340	0.767608	0.867764	1
H	-0.494170	0.748278	-0.893056	1
H	1.809239	-0.245662	-0.885576	1
H	1.807960	-0.244762	0.877614	1
H	2.663919	3.801958	-0.002416	1
Es	1.679047	-0.062211	0.586226	99
Es	-0.356667	-0.490267	0.001536	99
Es	1.678895	1.007268	-0.004782	99
Es	1.679939	-0.062651	-0.594384	99
Es	1.420217	0.278186	-0.004516	99
Es	-2.406639	-0.932080	-0.604433	99
Es	0.680066	0.269996	-0.005314	99
Es	-0.618976	-1.210822	0.009532	99
Es	-0.357627	-1.580566	-0.588552	99
Es	-2.412733	-0.912480	0.597756	99
Es	2.308513	2.798158	-0.003446	99
Es	-0.107620	0.229681	-0.006145	99
Es	-0.364626	0.581220	-0.610800	99
Es	2.127830	2.240277	0.345609	99
Es	2.386468	2.150540	-0.193792	99
Es	1.819203	2.347439	-0.163508	99
Es	-0.363572	-1.564439	0.619190	99
Es	-2.375305	-1.982189	0.013281	99
Es	2.539409	3.457918	-0.002839	99
Es	1.906859	1.664821	-0.004386	99
Es	-0.366879	0.594426	0.589755	99
Es	-1.382416	-1.232503	0.006276	99
Es	-2.138408	-1.263483	0.003235	99
39
Properties=species:S:1:pos:R:3:Z:I:1 energy=-233.05273574015092 field_type=dipole dipole="0.000000 0.000000 0.000000" charge=0
C	-2.138431	-1.263482	0.003234	6
C	-0.618951	-1.210852	0.009534	6
C	-0.107681	0.229708	-0.006146	6
C	1.420189	0.278048	-0.004516	6
C	1.906950	1.665088	-0.004386	6
C	2.308440	2.797908	-0.003446	6
H	-2.481700	-2.302662	0.018144	1
H	-2.543791	-0.784712	-0.893866	1
H	-2.552381	-0.756392	0.880624	1
H	-0.236930	-1.751532	-0.864196	1
H	-0.245321	-1.728542	0.900684	1
H	-0.497340	0.767608	0.867764	1
H	-0.494170	0.748278	-0.893056	1
H	1.809239	-0.245662	-0.885576	1
H	1.807960	-0.244762	0.877614	1
H	2.663919	3.801958	-0.002416	1
Es	-2.138408	-1.263483	0.003234	99
Es	-0.356719	-0.490257	0.001313	99
Es	-2.375545	-1.982689	0.013377	99
Es	1.679475	-0.062854	-0.593978	99
Es	0.680455	0.270080	-0.005384	99
Es	-1.382442	-1.232303	0.006262	99
Es	2.234934	2.202943	0.318767	99
Es	-0.363875	-1.564557	0.618848	99
Es	-2.406168	-0.932124	-0.603755	99
Es	1.787761	2.358175	-0.052354	99
Es	1.420217	0.278186	-0.004516	99
Es	2.308515	2.798159	-0.003442	99
Es	1.678580	-0.062250	0.585804	99
Es	-0.364242	0.581099	-0.610190	99
Es	-0.366676	0.594646	0.589415	99
Es	1.906855	1.664821	-0.004385	99
Es	-0.618976	-1.210822	0.009534	99
Es	1.678992	1.007577	-0.004723	99
Es	-2.412272	-0.912292	0.597051	99
Es	-0.358068	-1.580661	-0.588191	99
Es	2.310969	2.177068	-0.278182	99
Es	-0.107618	0.229680	-0.006144	99
Es	2.539235	3.458096	-0.002862	99
39
Properties=species:S:1:pos:R:3:Z:I:1 energy=-233.05273574015092 field_type=dipole dipole="0.000000 0.000000 0.000000" charge=0
C	-2.138431	-1.263482	0.003234	6
C	-0.618951	-1.210852	0.009534	6
C	-0.107681	0.229708	-0.006146	6
C	1.420189	0.278048	-0.004516	6
C	1.906950	1.665088	-0.004386	6
C	2.308440	2.797908	-0.003446	6
H	-2.481700	-2.302662	0.018144	1
H	-2.543791	-0.784712	-0.893866	1
H	-2.552381	-0.756392	0.880624	1
H	-0.236930	-1.751532	-0.864196	1
H	-0.245321	-1.728542	0.900684	1
H	-0.497340	0.767608	0.867764	1
H	-0.494170	0.748278	-0.893056	1
H	1.809239	-0.245662	-0.885576	1
H	1.807960	-0.244762	0.877614	1
H	2.663919	3.801958	-0.002416	1
Es	1.678241	-0.062422	0.585433	99
Es	1.906860	1.664820	-0.004384	99
Es	-2.405776	-0.932110	-0.603017	99
Es	-0.364003	0.581126	-0.609732	99
Es	-2.375764	-1.983041	0.013213	99
Es	1.884074	2.324888	0.247345	99
Es	2.308516	2.798159	-0.003445	99
Es	-0.358320	-1.580788	-0.587851	99
Es	-0.356737	-0.490279	0.001480	99
Es	1.420217	0.278185	-0.004515	99
Es	1.679121	1.007841	-0.004742	99
Es	0.680608	0.270225	-0.005432	99
Es	-0.618977	-1.210821	0.009533	99
Es	-2.138407	-1.263484	0.003234	99
Es	-0.366374	0.594646	0.588851	99
Es	2.429362	2.135149	0.080657	99
Es	-2.411960	-0.912307	0.596495	99
Es	1.679026	-0.062816	-0.593466	99
Es	-0.107617	0.229679	-0.006146	99
Es	2.539294	3.458172	-0.002679	99
Es	2.020132	2.278152	-0.340014	99
Es	-1.382291	-1.232190	0.006265	99
Es	-0.364246	-1.564549	0.618415	99
39
Properties=species:S:1:pos:R:3:Z:I:1 energy=-233.05273574015092 field_type=dipole dipole="0.000000 0.000000 0.000000" charge=0
C	-2.138431	-1.263482	0.003234	6
C	-0.618951	-1.210852	0.009534	6
C	-0.107681	0.229708	-0.006146	6
C	1.420189	0.278048	-0.004516	6
C	1.906950	1.665088	-0.004386	6
C	2.308440	2.797908	-0.003446	6
H	-2.481700	-2.302662	0.018144	1
H	-2.543791	-0.784712	-0.893866	1
H	-2.552381	-0.756392	0.880624	1
H	-0.236930	-1.751532	-0.864196	1
H	-0.245321	-1.728542	0.900684	1
H	-0.497340	0.767608	0.867764	1
H	-0.494170	0.748278	-0.893056	1
H	1.809239	-0.245662	-0.885576	1
H	1.807960	-0.244762	0.877614	1
H	2.663919	3.801958	-0.002416	1
Es	2.013636	2.280009	0.328625	99
Es	-2.375957	-1.983303	0.013195	99
Es	-0.618977	-1.210821	0.009531	99
Es	-1.382110	-1.232054	0.006133	99
Es	1.678606	-0.062867	-0.593172	99
Es	1.679374	1.007977	-0.004753	99
Es	1.420217	0.278187	-0.004516	99
Es	1.906858	1.664819	-0.004388	99
Es	-0.364617	-1.564614	0.618143	99
Es	-0.107615	0.229679	-0.006147	99
Es	-2.411618	-0.912299	0.595977	99
Es	-0.366111	0.594627	0.588452	99
Es	-2.405477	-0.932121	-0.602424	99
Es	-0.363829	0.581147	-0.609293	99
Es	-0.356810	-0.490249	0.001529	99
Es	-2.138408	-1.263484	0.003234	99
Es	0.680910	0.270413	-0.005463	99
Es	1.677839	-0.062556	0.585048	99
Es	1.889303	2.323276	-0.261644	99
Es	2.308516	2.798160	-0.003446	99
Es	-0.358560	-1.580861	-0.587536	99
Es	2.539285	3.458247	-0.002804	99
Es	2.430523	2.134928	-0.078781	99
