34
Properties=species:S:1:pos:R:3:Z:I:1 energy=-263.8693621586424 field_type=dipole dipole="0.000000 0.000000 0.000000" charge=0
C	-2.313547	-1.452732	-0.024046	6
C	-0.984647	-1.311482	0.019324	6
C	-0.377697	0.033768	-0.016486	6
N	0.904883	0.197848	0.024824	7
N	1.231273	1.550158	-0.021786	7
C	2.511053	1.707948	0.021224	6
H	-2.760547	-2.441652	0.002334	1
H	-2.986417	-0.603142	-0.085896	1
H	-0.310197	-2.157182	0.081144	1
H	-1.074037	0.889608	-0.080026	1
H	2.939273	2.721428	-0.006556	1
H	3.220603	0.865428	0.085944	1
Es	0.349468	0.155914	0.287693	99
Es	-1.636922	-1.341599	0.316193	99
Es	-0.532341	-1.877752	0.060838	99
Es	-1.613113	-1.369419	-0.321552	99
Es	2.511088	1.707985	0.021224	99
Es	1.791051	1.584874	-0.284393	99
Es	1.068889	0.874937	0.001392	99
Es	-2.768193	-0.879908	-0.065759	99
Es	-2.313649	-1.452743	-0.024057	99
Es	2.805222	2.389945	0.002737	99
Es	-0.984546	-1.311410	0.019317	99
Es	0.956579	1.812203	-0.044167	99
Es	-0.377735	0.033704	-0.016485	99
Es	2.992942	1.147003	0.064654	99
Es	-0.674821	-0.642059	0.001717	99
Es	0.904461	0.198282	0.024791	99
Es	1.231693	1.549736	-0.021751	99
Es	-2.623259	-2.116348	-0.006614	99
Es	0.370625	0.131220	-0.274315	99
Es	1.768961	1.609670	0.279809	99
Es	1.178065	-0.067611	0.046730	99
Es	-0.853169	0.603092	-0.059356	99
34
Properties=species:S:1:pos:R:3:Z:I:1 energy=-263.8693621586424 field_type=dipole dipole="0.000000 0.000000 0.000000" charge=0
C	-2.313547	-1.452732	-0.024046	6
C	-0.984647	-1.311482	0.019324	6
C	-0.377697	0.033768	-0.016486	6
N	0.904883	0.197848	0.024824	7
N	1.231273	1.550158	-0.021786	7
C	2.511053	1.707948	0.021224	6
H	-2.760547	-2.441652	0.002334	1
H	-2.986417	-0.603142	-0.085896	1
H	-0.310197	-2.157182	0.081144	1
H	-1.074037	0.889608	-0.080026	1
H	2.939273	2.721428	-0.006556	1
H	3.220603	0.865428	0.085944	1
Es	1.231721	1.549712	-0.021749	99
Es	2.511094	1.707984	0.021225	99
Es	2.989727	1.148188	0.064461	99
Es	-2.628140	-2.117118	-0.006847	99
Es	2.808220	2.390505	0.002824	99
Es	-0.536757	-1.874106	0.060518	99
Es	1.769458	1.608715	0.280754	99
Es	1.169643	-0.067151	0.046307	99
Es	0.965542	1.811290	-0.043504	99
Es	-0.377740	0.033703	-0.016479	99
Es	1.791239	1.583757	-0.285623	99
Es	-0.673462	-0.640979	0.001792	99
Es	-1.637046	-1.342181	0.318256	99
Es	-1.613033	-1.369973	-0.323644	99
Es	1.068439	0.874953	0.001701	99
Es	-0.850454	0.601656	-0.059085	99
Es	0.904442	0.198292	0.024789	99
Es	-2.762842	-0.883002	-0.065399	99
Es	0.370238	0.132541	-0.275354	99
Es	0.349199	0.157079	0.288438	99
Es	-0.984541	-1.311408	0.019319	99
Es	-2.313652	-1.452743	-0.024050	99
34
Properties=species:S:1:pos:R:3:Z:I:1 energy=-263.8693621586424 field_type=dipole dipole="0.000000 0.000000 0.000000" charge=0
C	-2.313547	-1.452732	-0.024046	6
C	-0.984647	-1.311482	0.019324	6
C	-0.377697	0.033768	-0.016486	6
N	0.904883	0.197848	0.024824	7
N	1.231273	1.550158	-0.021786	7
C	2.511053	1.707948	0.021224	6
H	-2.760547	-2.441652	0.002334	1
H	-2.986417	-0.603142	-0.085896	1
H	-0.310197	-2.157182	0.081144	1
H	-1.074037	0.889608	-0.080026	1
H	2.939273	2.721428	-0.006556	1
H	3.220603	0.865428	0.085944	1
Es	-1.613442	-1.370590	-0.323271	99
Es	1.158987	-0.065562	0.045800	99
Es	-2.755748	-0.886048	-0.065085	99
Es	0.904433	0.198291	0.024787	99
Es	0.348965	0.158730	0.286318	99
Es	-0.671081	-0.641677	0.001909	99
Es	2.511095	1.707984	0.021225	99
Es	1.067887	0.875263	0.001442	99
Es	2.985852	1.149116	0.064241	99
Es	1.792268	1.582491	-0.283332	99
Es	-0.984541	-1.311416	0.019321	99
Es	0.976800	1.809270	-0.043115	99
Es	-0.847351	0.600671	-0.058860	99
Es	-1.636565	-1.342107	0.318132	99
Es	-0.542499	-1.871262	0.060092	99
Es	1.231731	1.549703	-0.021747	99
Es	0.369521	0.134292	-0.273320	99
Es	-0.377741	0.033702	-0.016484	99
Es	-2.313652	-1.452742	-0.024050	99
Es	1.769353	1.606817	0.278906	99
Es	-2.635072	-2.114838	-0.007266	99
Es	2.812096	2.389626	0.003004	99
34
Properties=species:S:1:pos:R:3:Z:I:1 energy=-263.8693621586424 field_type=dipole dipole="0.000000 0.000000 0.000000" charge=0
C	-2.313547	-1.452732	-0.024046	6
C	-0.984647	-1.311482	0.019324	6
C	-0.377697	0.033768	-0.016486	6
N	0.904883	0.197848	0.024824	7
N	1.231273	1.550158	-0.021786	7
C	2.511053	1.707948	0.021224	6
H	-2.760547	-2.441652	0.002334	1
H	-2.986417	-0.603142	-0.085896	1
H	-0.310197	-2.157182	0.081144	1
H	-1.074037	0.889608	-0.080026	1
H	2.939273	2.721428	-0.006556	1
H	3.220603	0.865428	0.085944	1
Es	-1.637290	-1.342917	0.319631	99
Es	2.981541	1.151444	0.063960	99
Es	2.816560	2.386862	0.003309	99
Es	-2.644373	-2.107460	-0.008000	99
Es	1.803990	1.586724	-0.269710	99
Es	-0.549340	-1.865923	0.059601	99
Es	-0.984544	-1.311406	0.019332	99
Es	0.316275	0.135116	-0.059335	99
Es	-2.746607	-0.893049	-0.064435	99
Es	-0.667359	-0.645070	0.002225	99
Es	0.904426	0.198283	0.024788	99
Es	1.231724	1.549690	-0.021751	99
Es	0.991909	1.798120	-0.042165	99
Es	2.511095	1.707983	0.021226	99
Es	-1.612640	-1.370174	-0.324829	99
Es	0.401755	0.159557	0.072562	99
Es	1.757983	1.601343	0.265657	99
Es	-0.844291	0.599184	-0.058803	99
Es	-0.377740	0.033702	-0.016486	99
Es	1.065434	0.877693	0.001143	99
Es	1.146440	-0.057244	0.044779	99
Es	-2.313652	-1.452743	-0.024050	99
34
Properties=species:S:1:pos:R:3:Z:I:1 energy=-263.8693621586424 field_type=dipole dipole="0.000000 0.000000 0.000000" charge=0
C	-2.313547	-1.452732	-0.024046	6
C	-0.984647	-1.311482	0.019324	6
C	-0.377697	0.033768	-0.016486	6
N	0.904883	0.197848	0.024824	7
N	1.231273	1.550158	-0.021786	7
C	2.511053	1.707948	0.021224	6
H	-2.760547	-2.441652	0.002334	1
H	-2.986417	-0.603142	-0.085896	1
H	-0.310197	-2.157182	0.081144	1
H	-1.074037	0.889608	-0.080026	1
H	2.939273	2.721428	-0.006556	1
H	3.220603	0.865428	0.085944	1
Es	1.231739	1.549688	-0.021748	99
Es	-2.652598	-2.097978	-0.008785	99
Es	1.001773	1.787893	-0.041509	99
Es	0.404719	0.157735	0.024664	99
Es	1.823242	1.604068	-0.066353	99
Es	2.819455	2.384451	0.003628	99
Es	-1.637252	-1.342768	0.320627	99
Es	-0.984543	-1.311404	0.019322	99
Es	-0.843149	0.598469	-0.058730	99
Es	-0.377740	0.033701	-0.016485	99
Es	-1.612663	-1.370383	-0.325840	99
Es	2.511095	1.707984	0.021221	99
Es	-0.555163	-1.860088	0.059225	99
Es	1.738996	1.582892	0.062565	99
Es	0.313121	0.137775	-0.012167	99
Es	0.904415	0.198296	0.024787	99
Es	1.132884	-0.042709	0.044097	99
Es	-2.738572	-0.901775	-0.063881	99
Es	1.069055	0.873712	0.001521	99
Es	2.978776	1.153310	0.063800	99
Es	-0.662644	-0.650411	0.002741	99
Es	-2.313652	-1.452743	-0.024049	99
34
Properties=species:S:1:pos:R:3:Z:I:1 energy=-263.8693621586424 field_type=dipole dipole="0.000000 0.000000 0.000000" charge=0
C	-2.313547	-1.452732	-0.024046	6
C	-0.984647	-1.311482	0.019324	6
C	-0.377697	0.033768	-0.016486	6
N	0.904883	0.197848	0.024824	7
N	1.231273	1.550158	-0.021786	7
C	2.511053	1.707948	0.021224	6
H	-2.760547	-2.441652	0.002334	1
H	-2.986417	-0.603142	-0.085896	1
H	-0.310197	-2.157182	0.081144	1
H	-1.074037	0.889608	-0.080026	1
H	2.939273	2.721428	-0.006556	1
H	3.220603	0.865428	0.085944	1
Es	2.511095	1.707985	0.021223	99
Es	-0.843180	0.598589	-0.058685	99
Es	-1.619217	-1.331334	0.258923	99
Es	0.311865	0.139579	0.016705	99
Es	1.063053	0.882057	0.000983	99
Es	2.820973	2.382927	0.003275	99
Es	1.822904	1.605276	-0.032779	99
Es	0.405823	0.156519	-0.003331	99
Es	-1.630700	-1.381856	-0.263683	99
Es	-0.377740	0.033701	-0.016481	99
Es	2.977365	1.154418	0.063714	99
Es	1.012478	1.773593	-0.040148	99
Es	-2.733340	-0.908546	-0.063301	99
Es	1.739494	1.581100	0.028102	99
Es	0.904418	0.198289	0.024787	99
Es	1.128162	-0.036734	0.043246	99
Es	-2.313652	-1.452743	-0.024054	99
Es	-0.984542	-1.311407	0.019324	99
Es	1.231746	1.549701	-0.021747	99
Es	-0.659648	-0.654018	0.002554	99
Es	-0.558082	-1.856834	0.058849	99
Es	-2.657979	-2.090547	-0.008827	99
34
Properties=species:S:1:pos:R:3:Z:I:1 energy=-263.8693621586424 field_type=dipole dipole="0.000000 0.000000 0.000000" charge=0
C	-2.313547	-1.452732	-0.024046	6
C	-0.984647	-1.311482	0.019324	6
C	-0.377697	0.033768	-0.016486	6
N	0.904883	0.197848	0.024824	7
N	1.231273	1.550158	-0.021786	7
C	2.511053	1.707948	0.021224	6
H	-2.760547	-2.441652	0.002334	1
H	-2.986417	-0.603142	-0.085896	1
H	-0.310197	-2.157182	0.081144	1
H	-1.074037	0.889608	-0.080026	1
H	2.939273	2.721428	-0.006556	1
H	3.220603	0.865428	0.085944	1
Es	-0.984544	-1.311408	0.019328	99
Es	0.311628	0.139880	0.026412	99
Es	0.904421	0.198272	0.024788	99
Es	0.406103	0.156057	-0.013257	99
Es	1.138693	-0.049964	0.044468	99
Es	-2.660887	-2.086115	-0.009116	99
Es	-1.610204	-1.329212	0.181719	99
Es	2.511095	1.707985	0.021223	99
Es	-0.377740	0.033700	-0.016482	99
Es	1.231741	1.549729	-0.021749	99
Es	-2.313652	-1.452744	-0.024050	99
Es	2.821603	2.382303	0.003399	99
Es	-1.639695	-1.384064	-0.186593	99
Es	-0.657707	-0.656562	0.002729	99
Es	-0.843175	0.598630	-0.058693	99
Es	-2.730464	-0.912794	-0.063104	99
Es	-0.560046	-1.854270	0.058836	99
Es	1.034743	1.734842	-0.037728	99
Es	1.030139	0.934557	-0.002559	99
Es	1.823149	1.604470	-0.039791	99
Es	1.739344	1.581461	0.035144	99
Es	2.976750	1.154961	0.063724	99
34
Properties=species:S:1:pos:R:3:Z:I:1 energy=-263.8693621586424 field_type=dipole dipole="0.000000 0.000000 0.000000" charge=0
C	-2.313547	-1.452732	-0.024046	6
C	-0.984647	-1.311482	0.019324	6
C	-0.377697	0.033768	-0.016486	6
N	0.904883	0.197848	0.024824	7
N	1.231273	1.550158	-0.021786	7
C	2.511053	1.707948	0.021224	6
H	-2.760547	-2.441652	0.002334	1
H	-2.986417	-0.603142	-0.085896	1
H	-0.310197	-2.157182	0.081144	1
H	-1.074037	0.889608	-0.080026	1
H	2.939273	2.721428	-0.006556	1
H	3.220603	0.865428	0.085944	1
Es	1.115823	0.796027	0.006657	99
Es	-1.646100	-1.383421	-0.104625	99
Es	1.822292	1.606235	-0.010870	99
Es	2.822286	2.381587	0.003551	99
Es	-2.727575	-0.917415	-0.062722	99
Es	0.311508	0.140460	0.025837	99
Es	-0.377739	0.033700	-0.016484	99
Es	0.406087	0.156091	-0.012703	99
Es	-1.603784	-1.329921	0.099623	99
Es	2.976085	1.155597	0.063630	99
Es	-2.313652	-1.452743	-0.024050	99
Es	0.994709	1.796309	-0.041773	99
Es	1.093242	0.026240	0.039350	99
Es	1.740123	1.580044	0.006173	99
Es	-0.984543	-1.311407	0.019324	99
Es	2.511095	1.707984	0.021224	99
Es	-2.663810	-2.081331	-0.009518	99
Es	0.904413	0.198299	0.024787	99
Es	-0.562442	-1.850894	0.058569	99
Es	-0.843469	0.598809	-0.058689	99
Es	1.231746	1.549691	-0.021746	99
Es	-0.654997	-0.660225	0.003104	99
34
Properties=species:S:1:pos:R:3:Z:I:1 energy=-263.8693621586424 field_type=dipole dipole="0.000000 0.000000 0.000000" charge=0
C	-2.313547	-1.452732	-0.024046	6
C	-0.984647	-1.311482	0.019324	6
C	-0.377697	0.033768	-0.016486	6
N	0.904883	0.197848	0.024824	7
N	1.231273	1.550158	-0.021786	7
C	2.511053	1.707948	0.021224	6
H	-2.760547	-2.441652	0.002334	1
H	-2.986417	-0.603142	-0.085896	1
H	-0.310197	-2.157182	0.081144	1
H	-1.074037	0.889608	-0.080026	1
H	2.939273	2.721428	-0.006556	1
H	3.220603	0.865428	0.085944	1
Es	-2.664186	-2.080706	-0.009828	99
Es	1.231735	1.549683	-0.021747	99
Es	-0.984544	-1.311406	0.019326	99
Es	0.405446	0.157007	0.007681	99
Es	-0.842878	0.598359	-0.058616	99
Es	2.975676	1.156025	0.063595	99
Es	2.511095	1.707983	0.021223	99
Es	0.312255	0.139134	0.005117	99
Es	1.007934	0.977153	-0.005413	99
Es	-1.598646	-1.333200	-0.001957	99
Es	2.822679	2.381207	0.003812	99
Es	1.143907	-0.055397	0.044878	99
Es	1.822052	1.606377	-0.002649	99
Es	1.051776	1.697486	-0.035145	99
Es	-0.563009	-1.850003	0.058462	99
Es	0.904420	0.198285	0.024788	99
Es	-0.655043	-0.660590	0.003401	99
Es	-2.313652	-1.452744	-0.024049	99
Es	-2.727185	-0.918080	-0.062639	99
Es	1.740416	1.579682	-0.001836	99
Es	-0.377740	0.033700	-0.016483	99
Es	-1.651213	-1.380242	-0.003275	99
34
Properties=species:S:1:pos:R:3:Z:I:1 energy=-263.8693621586424 field_type=dipole dipole="0.000000 0.000000 0.000000" charge=0
C	-2.313547	-1.452732	-0.024046	6
C	-0.984647	-1.311482	0.019324	6
C	-0.377697	0.033768	-0.016486	6
N	0.904883	0.197848	0.024824	7
N	1.231273	1.550158	-0.021786	7
C	2.511053	1.707948	0.021224	6
H	-2.760547	-2.441652	0.002334	1
H	-2.986417	-0.603142	-0.085896	1
H	-0.310197	-2.157182	0.081144	1
H	-1.074037	0.889608	-0.080026	1
H	2.939273	2.721428	-0.006556	1
H	3.220603	0.865428	0.085944	1
Es	-1.651245	-1.380186	-0.002546	99
Es	-2.313652	-1.452743	-0.024048	99
Es	-0.653980	-0.661998	0.003481	99
Es	1.005740	0.982872	-0.005518	99
Es	-0.563825	-1.848755	0.058364	99
Es	2.822572	2.381325	0.003773	99
Es	0.904417	0.198288	0.024787	99
Es	1.054347	1.691285	-0.034714	99
Es	-2.726712	-0.918900	-0.062616	99
Es	2.975776	1.155945	0.063601	99
Es	0.312275	0.138954	0.005531	99
Es	-1.598619	-1.333231	-0.002677	99
Es	-0.843136	0.598593	-0.058652	99
Es	1.822034	1.606379	-0.002020	99
Es	-2.664654	-2.079912	-0.009862	99
Es	1.740444	1.579649	-0.002578	99
Es	-0.984544	-1.311409	0.019326	99
Es	2.511097	1.707979	0.021223	99
Es	-0.377739	0.033699	-0.016486	99
Es	1.231749	1.549688	-0.021747	99
Es	1.143490	-0.054795	0.044791	99
Es	0.405463	0.156987	0.007236	99
34
Properties=species:S:1:pos:R:3:Z:I:1 energy=-263.8693621586424 field_type=dipole dipole="0.000000 0.000000 0.000000" charge=0
C	-2.313547	-1.452732	-0.024046	6
C	-0.984647	-1.311482	0.019324	6
C	-0.377697	0.033768	-0.016486	6
N	0.904883	0.197848	0.024824	7
N	1.231273	1.550158	-0.021786	7
C	2.511053	1.707948	0.021224	6
H	-2.760547	-2.441652	0.002334	1
H	-2.986417	-0.603142	-0.085896	1
H	-0.310197	-2.157182	0.081144	1
H	-1.074037	0.889608	-0.080026	1
H	2.939273	2.721428	-0.006556	1
H	3.220603	0.865428	0.085944	1
Es	-0.564447	-1.847791	0.058284	99
Es	-0.377740	0.033700	-0.016486	99
Es	-1.651155	-1.380335	-0.004684	99
Es	-2.666148	-2.077328	-0.010038	99
Es	1.740473	1.579617	-0.003312	99
Es	-2.313652	-1.452743	-0.024049	99
Es	2.823509	2.380347	0.003866	99
Es	2.974847	1.156888	0.063503	99
Es	-1.598701	-1.333136	-0.000493	99
Es	1.821906	1.606810	-0.001102	99
Es	1.081236	0.054532	0.037737	99
Es	0.312151	0.139366	0.006512	99
Es	-0.842889	0.598362	-0.058644	99
Es	-2.725228	-0.921434	-0.062416	99
Es	0.904453	0.198247	0.024791	99
Es	-0.653591	-0.662790	0.003506	99
Es	1.231739	1.549729	-0.021750	99
Es	0.990181	1.800372	-0.042106	99
Es	2.511095	1.707984	0.021220	99
Es	-0.984544	-1.311407	0.019324	99
Es	1.132305	0.763779	0.008710	99
Es	0.405499	0.156945	0.006275	99
34
Properties=species:S:1:pos:R:3:Z:I:1 energy=-263.8693621586424 field_type=dipole dipole="0.000000 0.000000 0.000000" charge=0
C	-2.313547	-1.452732	-0.024046	6
C	-0.984647	-1.311482	0.019324	6
C	-0.377697	0.033768	-0.016486	6
N	0.904883	0.197848	0.024824	7
N	1.231273	1.550158	-0.021786	7
C	2.511053	1.707948	0.021224	6
H	-2.760547	-2.441652	0.002334	1
H	-2.986417	-0.603142	-0.085896	1
H	-0.310197	-2.157182	0.081144	1
H	-1.074037	0.889608	-0.080026	1
H	2.939273	2.721428	-0.006556	1
H	3.220603	0.865428	0.085944	1
Es	-2.313652	-1.452744	-0.024049	99
Es	-2.724449	-0.922750	-0.062349	99
Es	-0.564917	-1.847069	0.058197	99
Es	-0.377739	0.033698	-0.016485	99
Es	-1.598618	-1.333233	-0.002724	99
Es	-1.651226	-1.380315	-0.002419	99
Es	0.904415	0.198307	0.024786	99
Es	-0.843012	0.598472	-0.058597	99
Es	-0.653009	-0.663592	0.003607	99
Es	1.740434	1.579660	-0.002319	99
Es	1.131288	0.763896	0.008728	99
Es	2.511095	1.707983	0.021226	99
Es	0.991757	1.798944	-0.041878	99
Es	0.405439	0.157015	0.007877	99
Es	1.080714	0.055731	0.037685	99
Es	2.823078	2.380781	0.003853	99
Es	-2.666949	-2.075892	-0.010150	99
Es	1.821965	1.606695	-0.002192	99
Es	-0.984544	-1.311407	0.019329	99
Es	2.975288	1.156405	0.063517	99
Es	0.312191	0.139428	0.004751	99
Es	1.231747	1.549700	-0.021747	99
34
Properties=species:S:1:pos:R:3:Z:I:1 energy=-263.8693621586424 field_type=dipole dipole="0.000000 0.000000 0.000000" charge=0
C	-2.313547	-1.452732	-0.024046	6
C	-0.984647	-1.311482	0.019324	6
C	-0.377697	0.033768	-0.016486	6
N	0.904883	0.197848	0.024824	7
N	1.231273	1.550158	-0.021786	7
C	2.511053	1.707948	0.021224	6
H	-2.760547	-2.441652	0.002334	1
H	-2.986417	-0.603142	-0.085896	1
H	-0.310197	-2.157182	0.081144	1
H	-1.074037	0.889608	-0.080026	1
H	2.939273	2.721428	-0.006556	1
H	3.220603	0.865428	0.085944	1
Es	-2.313652	-1.452743	-0.024050	99
Es	-0.564869	-1.847155	0.058214	99
Es	-1.651229	-1.380252	-0.002669	99
Es	1.821953	1.606617	-0.001378	99
Es	2.511095	1.707982	0.021225	99
Es	2.823653	2.380174	0.003902	99
Es	-1.598629	-1.333219	-0.002427	99
Es	1.078662	0.060936	0.037309	99
Es	0.405430	0.157025	0.008113	99
Es	-0.377741	0.033701	-0.016487	99
Es	-2.666763	-2.076222	-0.010158	99
Es	0.904414	0.198298	0.024787	99
Es	1.231748	1.549692	-0.021747	99
Es	-0.843237	0.598653	-0.058666	99
Es	-0.652827	-0.663686	0.003580	99
Es	-2.724624	-0.922479	-0.062353	99
Es	1.133104	0.758994	0.008964	99
Es	0.312206	0.139350	0.004714	99
Es	1.740466	1.579625	-0.003126	99
Es	-0.984544	-1.311409	0.019325	99
Es	0.991972	1.798801	-0.041893	99
Es	2.974709	1.157032	0.063471	99
34
Properties=species:S:1:pos:R:3:Z:I:1 energy=-263.8693621586424 field_type=dipole dipole="0.000000 0.000000 0.000000" charge=0
C	-2.313547	-1.452732	-0.024046	6
C	-0.984647	-1.311482	0.019324	6
C	-0.377697	0.033768	-0.016486	6
N	0.904883	0.197848	0.024824	7
N	1.231273	1.550158	-0.021786	7
C	2.511053	1.707948	0.021224	6
H	-2.760547	-2.441652	0.002334	1
H	-2.986417	-0.603142	-0.085896	1
H	-0.310197	-2.157182	0.081144	1
H	-1.074037	0.889608	-0.080026	1
H	2.939273	2.721428	-0.006556	1
H	3.220603	0.865428	0.085944	1
Es	0.405442	0.157012	0.007807	99
Es	1.231753	1.549686	-0.021746	99
Es	-2.724791	-0.922208	-0.062372	99
Es	0.998845	0.999075	-0.006623	99
Es	1.060661	1.675458	-0.033870	99
Es	0.904417	0.198293	0.024787	99
Es	-0.377739	0.033700	-0.016484	99
Es	1.144091	-0.055280	0.044913	99
Es	-0.564980	-1.846963	0.058210	99
Es	2.511095	1.707984	0.021224	99
Es	1.821993	1.606478	-0.001280	99
Es	-2.666587	-2.076550	-0.010103	99
Es	-2.313652	-1.452744	-0.024050	99
Es	0.312271	0.139066	0.004940	99
Es	-1.598632	-1.333216	-0.002345	99
Es	-0.652780	-0.663823	0.003590	99
Es	-0.984544	-1.311407	0.019325	99
Es	2.974931	1.156791	0.063511	99
Es	1.740467	1.579623	-0.003169	99
Es	-0.843168	0.598561	-0.058663	99
Es	-1.651229	-1.380238	-0.002800	99
Es	2.823431	2.380415	0.003845	99
34
Properties=species:S:1:pos:R:3:Z:I:1 energy=-263.8693621586424 field_type=dipole dipole="0.000000 0.000000 0.000000" charge=0
C	-2.313547	-1.452732	-0.024046	6
C	-0.984647	-1.311482	0.019324	6
C	-0.377697	0.033768	-0.016486	6
N	0.904883	0.197848	0.024824	7
N	1.231273	1.550158	-0.021786	7
C	2.511053	1.707948	0.021224	6
H	-2.760547	-2.441652	0.002334	1
H	-2.986417	-0.603142	-0.085896	1
H	-0.310197	-2.157182	0.081144	1
H	-1.074037	0.889608	-0.080026	1
H	2.939273	2.721428	-0.006556	1
H	3.220603	0.865428	0.085944	1
Es	-0.565581	-1.845987	0.058143	99
Es	-0.377740	0.033700	-0.016485	99
Es	1.136696	0.752207	0.009431	99
Es	1.740464	1.579627	-0.003091	99
Es	2.823769	2.380049	0.003909	99
Es	-2.723706	-0.924149	-0.062235	99
Es	0.990529	1.799957	-0.042002	99
Es	2.511095	1.707984	0.021224	99
Es	0.312203	0.139333	0.004945	99
Es	-0.984544	-1.311406	0.019318	99
Es	0.405442	0.157011	0.007791	99
Es	-1.598609	-1.333243	-0.002952	99
Es	0.904434	0.198313	0.024786	99
Es	-2.313652	-1.452742	-0.024049	99
Es	-1.651244	-1.380250	-0.002205	99
Es	-0.842884	0.598364	-0.058654	99
Es	1.076493	0.066512	0.037109	99
Es	-0.652471	-0.664557	0.003662	99
Es	1.821938	1.606714	-0.001474	99
Es	-2.667673	-2.074599	-0.010254	99
Es	2.974588	1.157185	0.063477	99
Es	1.231750	1.549692	-0.021747	99
34
Properties=species:S:1:pos:R:3:Z:I:1 energy=-263.8693621586424 field_type=dipole dipole="0.000000 0.000000 0.000000" charge=0
C	-2.313547	-1.452732	-0.024046	6
C	-0.984647	-1.311482	0.019324	6
C	-0.377697	0.033768	-0.016486	6
N	0.904883	0.197848	0.024824	7
N	1.231273	1.550158	-0.021786	7
C	2.511053	1.707948	0.021224	6
H	-2.760547	-2.441652	0.002334	1
H	-2.986417	-0.603142	-0.085896	1
H	-0.310197	-2.157182	0.081144	1
H	-1.074037	0.889608	-0.080026	1
H	2.939273	2.721428	-0.006556	1
H	3.220603	0.865428	0.085944	1
Es	1.062467	1.670709	-0.033610	99
Es	-2.723666	-0.924221	-0.062242	99
Es	2.511095	1.707984	0.021226	99
Es	1.231745	1.549693	-0.021747	99
Es	-2.667713	-2.074531	-0.010237	99
Es	0.994830	1.005736	-0.006987	99
Es	1.740455	1.579637	-0.002855	99
Es	1.822001	1.606490	-0.001595	99
Es	2.824137	2.379660	0.003913	99
Es	0.405445	0.157009	0.007724	99
Es	-0.842494	0.598055	-0.058619	99
Es	-1.651231	-1.380258	-0.002575	99
Es	2.974221	1.157573	0.063418	99
Es	1.146290	-0.057124	0.045144	99
Es	-0.984544	-1.311405	0.019324	99
Es	0.312291	0.138964	0.004921	99
Es	-2.313652	-1.452744	-0.024049	99
Es	-0.377739	0.033700	-0.016487	99
Es	-0.653220	-0.663693	0.003566	99
Es	0.904418	0.198288	0.024787	99
Es	-1.598624	-1.333226	-0.002553	99
Es	-0.565215	-1.846581	0.058181	99
34
Properties=species:S:1:pos:R:3:Z:I:1 energy=-263.8693621586424 field_type=dipole dipole="0.000000 0.000000 0.000000" charge=0
C	-2.313547	-1.452732	-0.024046	6
C	-0.984647	-1.311482	0.019324	6
C	-0.377697	0.033768	-0.016486	6
N	0.904883	0.197848	0.024824	7
N	1.231273	1.550158	-0.021786	7
C	2.511053	1.707948	0.021224	6
H	-2.760547	-2.441652	0.002334	1
H	-2.986417	-0.603142	-0.085896	1
H	-0.310197	-2.157182	0.081144	1
H	-1.074037	0.889608	-0.080026	1
H	2.939273	2.721428	-0.006556	1
H	3.220603	0.865428	0.085944	1
Es	1.137805	0.748648	0.009649	99
Es	-2.313652	-1.452745	-0.024048	99
Es	1.231751	1.549683	-0.021747	99
Es	-0.377740	0.033701	-0.016485	99
Es	2.824024	2.379768	0.003914	99
Es	1.074975	0.070445	0.036733	99
Es	0.312186	0.139402	0.005072	99
Es	-0.984544	-1.311405	0.019324	99
Es	-1.651240	-1.380237	-0.002416	99
Es	-0.651916	-0.665414	0.003656	99
Es	0.990977	1.799549	-0.042036	99
Es	-0.842922	0.598406	-0.058644	99
Es	2.511095	1.707984	0.021224	99
Es	0.405444	0.157010	0.007755	99
Es	1.740470	1.579620	-0.003226	99
Es	-2.723670	-0.924205	-0.062245	99
Es	0.904411	0.198303	0.024786	99
Es	1.821932	1.606700	-0.001202	99
Es	-1.598619	-1.333232	-0.002697	99
Es	-0.566096	-1.845183	0.058106	99
Es	-2.667714	-2.074513	-0.010265	99
Es	2.974341	1.157428	0.063440	99
34
Properties=species:S:1:pos:R:3:Z:I:1 energy=-263.8693621586424 field_type=dipole dipole="0.000000 0.000000 0.000000" charge=0
C	-2.313547	-1.452732	-0.024046	6
C	-0.984647	-1.311482	0.019324	6
C	-0.377697	0.033768	-0.016486	6
N	0.904883	0.197848	0.024824	7
N	1.231273	1.550158	-0.021786	7
C	2.511053	1.707948	0.021224	6
H	-2.760547	-2.441652	0.002334	1
H	-2.986417	-0.603142	-0.085896	1
H	-0.310197	-2.157182	0.081144	1
H	-1.074037	0.889608	-0.080026	1
H	2.939273	2.721428	-0.006556	1
H	3.220603	0.865428	0.085944	1
Es	0.904418	0.198291	0.024787	99
Es	1.740459	1.579632	-0.002965	99
Es	0.993688	1.009960	-0.007330	99
Es	-2.313653	-1.452740	-0.024050	99
Es	0.405449	0.157003	0.007606	99
Es	-1.651236	-1.380217	-0.002680	99
Es	1.145573	-0.056484	0.045030	99
Es	1.821986	1.606554	-0.001552	99
Es	-2.667593	-2.074753	-0.010213	99
Es	2.824094	2.379707	0.003935	99
Es	2.511095	1.707984	0.021224	99
Es	0.312280	0.138997	0.005153	99
Es	-0.377740	0.033700	-0.016485	99
Es	-0.842663	0.598173	-0.058622	99
Es	-2.723772	-0.924073	-0.062262	99
Es	-0.984543	-1.311410	0.019325	99
Es	-0.652786	-0.664243	0.003622	99
Es	2.974261	1.157533	0.063466	99
Es	1.064351	1.665764	-0.033277	99
Es	1.231738	1.549684	-0.021748	99
Es	-1.598626	-1.333223	-0.002489	99
Es	-0.565485	-1.846124	0.058172	99
34
Properties=species:S:1:pos:R:3:Z:I:1 energy=-263.8693621586424 field_type=dipole dipole="0.000000 0.000000 0.000000" charge=0
C	-2.313547	-1.452732	-0.024046	6
C	-0.984647	-1.311482	0.019324	6
C	-0.377697	0.033768	-0.016486	6
N	0.904883	0.197848	0.024824	7
N	1.231273	1.550158	-0.021786	7
C	2.511053	1.707948	0.021224	6
H	-2.760547	-2.441652	0.002334	1
H	-2.986417	-0.603142	-0.085896	1
H	-0.310197	-2.157182	0.081144	1
H	-1.074037	0.889608	-0.080026	1
H	2.939273	2.721428	-0.006556	1
H	3.220603	0.865428	0.085944	1
Es	-0.565323	-1.846394	0.058201	99
Es	1.146294	-0.057045	0.045060	99
Es	-1.651227	-1.380230	-0.002921	99
Es	1.740460	1.579631	-0.002999	99
Es	-2.724034	-0.923587	-0.062287	99
Es	2.511095	1.707984	0.021224	99
Es	-0.984544	-1.311407	0.019326	99
Es	-2.667332	-2.075228	-0.010185	99
Es	0.312300	0.138940	0.004807	99
Es	0.405437	0.157018	0.007934	99
Es	-1.598635	-1.333212	-0.002245	99
Es	2.824861	2.378856	0.003989	99
Es	1.821988	1.606540	-0.001497	99
Es	-0.653361	-0.663667	0.003558	99
Es	0.904416	0.198296	0.024787	99
Es	-0.842251	0.597868	-0.058576	99
Es	0.991941	1.013321	-0.007507	99
Es	-0.377739	0.033697	-0.016485	99
Es	1.065363	1.663028	-0.033134	99
Es	2.973496	1.158370	0.063396	99
Es	-2.313652	-1.452744	-0.024049	99
Es	1.231743	1.549679	-0.021748	99
34
Properties=species:S:1:pos:R:3:Z:I:1 energy=-263.8693621586424 field_type=dipole dipole="0.000000 0.000000 0.000000" charge=0
C	-2.313547	-1.452732	-0.024046	6
C	-0.984647	-1.311482	0.019324	6
C	-0.377697	0.033768	-0.016486	6
N	0.904883	0.197848	0.024824	7
N	1.231273	1.550158	-0.021786	7
C	2.511053	1.707948	0.021224	6
H	-2.760547	-2.441652	0.002334	1
H	-2.986417	-0.603142	-0.085896	1
H	-0.310197	-2.157182	0.081144	1
H	-1.074037	0.889608	-0.080026	1
H	2.939273	2.721428	-0.006556	1
H	3.220603	0.865428	0.085944	1
Es	0.904411	0.198303	0.024786	99
Es	2.973725	1.158108	0.063393	99
Es	-2.668263	-2.073522	-0.010319	99
Es	1.821910	1.606791	-0.001084	99
Es	-0.377739	0.033700	-0.016484	99
Es	0.312193	0.139363	0.005019	99
Es	-1.651246	-1.380172	-0.002644	99
Es	-2.723117	-0.925225	-0.062160	99
Es	-1.598624	-1.333225	-0.002552	99
Es	1.072722	0.076480	0.036484	99
Es	-0.842546	0.598106	-0.058614	99
Es	2.511095	1.707984	0.021222	99
Es	2.824643	2.379081	0.003942	99
Es	-0.984544	-1.311410	0.019323	99
Es	0.990453	1.799937	-0.042052	99
Es	1.140582	0.742239	0.010092	99
Es	1.740477	1.579613	-0.003406	99
Es	-0.652633	-0.664608	0.003681	99
Es	-2.313652	-1.452743	-0.024048	99
Es	0.405446	0.157007	0.007692	99
Es	-0.565739	-1.845780	0.058124	99
Es	1.231743	1.549690	-0.021747	99
34
Properties=species:S:1:pos:R:3:Z:I:1 energy=-263.8693621586424 field_type=dipole dipole="0.000000 0.000000 0.000000" charge=0
C	-2.313547	-1.452732	-0.024046	6
C	-0.984647	-1.311482	0.019324	6
C	-0.377697	0.033768	-0.016486	6
N	0.904883	0.197848	0.024824	7
N	1.231273	1.550158	-0.021786	7
C	2.511053	1.707948	0.021224	6
H	-2.760547	-2.441652	0.002334	1
H	-2.986417	-0.603142	-0.085896	1
H	-0.310197	-2.157182	0.081144	1
H	-1.074037	0.889608	-0.080026	1
H	2.939273	2.721428	-0.006556	1
H	3.220603	0.865428	0.085944	1
Es	0.904418	0.198278	0.024788	99
Es	-0.565869	-1.845517	0.058136	99
Es	-2.313652	-1.452743	-0.024050	99
Es	2.824433	2.379337	0.003925	99
Es	-0.377739	0.033699	-0.016485	99
Es	-1.598625	-1.333224	-0.002514	99
Es	-1.651239	-1.380205	-0.002667	99
Es	-0.842431	0.598004	-0.058614	99
Es	2.511095	1.707982	0.021224	99
Es	1.821960	1.606657	-0.001362	99
Es	0.991412	1.015360	-0.007646	99
Es	-0.652635	-0.664675	0.003639	99
Es	-2.667641	-2.074671	-0.010216	99
Es	2.973923	1.157907	0.063425	99
Es	-0.984544	-1.311407	0.019323	99
Es	1.066290	1.660485	-0.033015	99
Es	0.312300	0.138916	0.005005	99
Es	0.405443	0.157011	0.007772	99
Es	-2.723721	-0.924167	-0.062250	99
Es	1.231748	1.549688	-0.021747	99
Es	1.145908	-0.056629	0.045033	99
Es	1.740463	1.579628	-0.003057	99
34
Properties=species:S:1:pos:R:3:Z:I:1 energy=-263.8693621586424 field_type=dipole dipole="0.000000 0.000000 0.000000" charge=0
C	-2.313547	-1.452732	-0.024046	6
C	-0.984647	-1.311482	0.019324	6
C	-0.377697	0.033768	-0.016486	6
N	0.904883	0.197848	0.024824	7
N	1.231273	1.550158	-0.021786	7
C	2.511053	1.707948	0.021224	6
H	-2.760547	-2.441652	0.002334	1
H	-2.986417	-0.603142	-0.085896	1
H	-0.310197	-2.157182	0.081144	1
H	-1.074037	0.889608	-0.080026	1
H	2.939273	2.721428	-0.006556	1
H	3.220603	0.865428	0.085944	1
Es	0.312287	0.139009	0.004751	99
Es	-1.651224	-1.380240	-0.002969	99
Es	1.145467	-0.056346	0.045085	99
Es	0.904416	0.198302	0.024786	99
Es	1.821976	1.606517	-0.000955	99
Es	2.511095	1.707983	0.021224	99
Es	1.740478	1.579611	-0.003437	99
Es	0.405436	0.157019	0.007955	99
Es	-0.377740	0.033700	-0.016485	99
Es	-0.652668	-0.664635	0.003630	99
Es	-0.565826	-1.845597	0.058099	99
Es	-2.667910	-2.074173	-0.010247	99
Es	-0.842430	0.597997	-0.058609	99
Es	1.066355	1.660365	-0.032998	99
Es	1.231751	1.549692	-0.021747	99
Es	-2.313652	-1.452743	-0.024050	99
Es	0.991769	1.015259	-0.007676	99
Es	-2.723465	-0.924608	-0.062213	99
Es	2.824507	2.379246	0.003932	99
Es	-1.598639	-1.333208	-0.002160	99
Es	-0.984544	-1.311404	0.019324	99
Es	2.973854	1.157969	0.063408	99
34
Properties=species:S:1:pos:R:3:Z:I:1 energy=-263.8693621586424 field_type=dipole dipole="0.000000 0.000000 0.000000" charge=0
C	-2.313547	-1.452732	-0.024046	6
C	-0.984647	-1.311482	0.019324	6
C	-0.377697	0.033768	-0.016486	6
N	0.904883	0.197848	0.024824	7
N	1.231273	1.550158	-0.021786	7
C	2.511053	1.707948	0.021224	6
H	-2.760547	-2.441652	0.002334	1
H	-2.986417	-0.603142	-0.085896	1
H	-0.310197	-2.157182	0.081144	1
H	-1.074037	0.889608	-0.080026	1
H	2.939273	2.721428	-0.006556	1
H	3.220603	0.865428	0.085944	1
Es	-2.722098	-0.927090	-0.062067	99
Es	-0.377739	0.033699	-0.016485	99
Es	-0.842603	0.598168	-0.058607	99
Es	1.231747	1.549693	-0.021747	99
Es	2.973863	1.157944	0.063404	99
Es	1.072301	0.077588	0.036397	99
Es	0.405445	0.157008	0.007719	99
Es	2.824505	2.379236	0.003963	99
Es	-1.598625	-1.333224	-0.002529	99
Es	-1.651239	-1.380214	-0.002598	99
Es	-0.651993	-0.665576	0.003699	99
Es	0.990261	1.800067	-0.042021	99
Es	2.511095	1.707984	0.021225	99
Es	-2.313652	-1.452744	-0.024049	99
Es	-0.984544	-1.311408	0.019327	99
Es	0.312204	0.139312	0.005012	99
Es	1.141187	0.741012	0.010086	99
Es	1.740467	1.579623	-0.003167	99
Es	-2.669287	-2.071630	-0.010442	99
Es	1.821922	1.606769	-0.001329	99
Es	-0.566333	-1.844813	0.058074	99
Es	0.904412	0.198311	0.024786	99
34
Properties=species:S:1:pos:R:3:Z:I:1 energy=-263.8693621586424 field_type=dipole dipole="0.000000 0.000000 0.000000" charge=0
C	-2.313547	-1.452732	-0.024046	6
C	-0.984647	-1.311482	0.019324	6
C	-0.377697	0.033768	-0.016486	6
N	0.904883	0.197848	0.024824	7
N	1.231273	1.550158	-0.021786	7
C	2.511053	1.707948	0.021224	6
H	-2.760547	-2.441652	0.002334	1
H	-2.986417	-0.603142	-0.085896	1
H	-0.310197	-2.157182	0.081144	1
H	-1.074037	0.889608	-0.080026	1
H	2.939273	2.721428	-0.006556	1
H	3.220603	0.865428	0.085944	1
Es	0.990508	1.799784	-0.042059	99
Es	1.821913	1.606787	-0.001138	99
Es	-2.669130	-2.071926	-0.010403	99
Es	0.904411	0.198306	0.024786	99