39
Properties=species:S:1:pos:R:3:Z:I:1 energy=-233.09144520034334 field_type=dipole dipole="0.000000 0.000000 0.000000" charge=0
C	-1.559233	0.002685	0.837600	6
C	-0.028243	-0.005215	0.795310	6
C	0.503267	-1.224155	0.023080	6
C	0.799097	-0.663805	-1.329810	6
C	0.806127	0.672585	-1.322650	6
C	0.515547	1.218255	0.039310	6
H	-1.924393	0.883405	1.376250	1
H	-1.934333	-0.886045	1.355920	1
H	-1.994243	0.016775	-0.167340	1
H	0.338027	-0.013735	1.828920	1
H	-0.226003	-2.038365	-0.026970	1
H	1.425797	-1.606895	0.472950	1
H	1.014007	-1.275465	-2.195670	1
H	1.027717	1.293395	-2.179510	1
H	1.442267	1.586015	0.493520	1
H	-0.205403	2.040565	-0.000910	1
Es	0.242520	0.623019	0.428552	99
Es	0.649221	-0.978996	-0.672133	99
Es	-0.028265	-0.005215	0.795272	99
Es	0.022369	1.778868	0.012963	99
Es	1.134451	-1.481479	0.324012	99
Es	-0.801508	-0.001200	0.806598	99
Es	0.955741	1.104798	-1.901178	99
Es	0.222625	-0.011101	1.508667	99
Es	0.481226	0.006694	-1.423532	99
Es	0.503277	-1.224136	0.023054	99
Es	0.515555	1.218233	0.039282	99
Es	0.944141	-1.090071	-1.914417	99
Es	-1.806293	0.607582	1.205970	99
Es	0.806117	0.672717	-1.322637	99
Es	1.115633	0.002466	-1.273144	99
Es	-1.813104	-0.607745	1.192100	99
Es	0.659546	0.980807	-0.660075	99
Es	0.236379	-0.631355	0.420106	99
Es	0.004362	-1.779236	-0.010051	99
Es	-1.559220	0.002685	0.837603	99
Es	0.799093	-0.663937	-1.329798	99
Es	1.149313	1.465485	0.343486	99
Es	-1.850739	0.012249	0.150681	99
39
Properties=species:S:1:pos:R:3:Z:I:1 energy=-233.09144520034334 field_type=dipole dipole="0.000000 0.000000 0.000000" charge=0
C	-1.559233	0.002685	0.837600	6
C	-0.028243	-0.005215	0.795310	6
C	0.503267	-1.224155	0.023080	6
C	0.799097	-0.663805	-1.329810	6
C	0.806127	0.672585	-1.322650	6
C	0.515547	1.218255	0.039310	6
H	-1.924393	0.883405	1.376250	1
H	-1.934333	-0.886045	1.355920	1
H	-1.994243	0.016775	-0.167340	1
H	0.338027	-0.013735	1.828920	1
H	-0.226003	-2.038365	-0.026970	1
H	1.425797	-1.606895	0.472950	1
H	1.014007	-1.275465	-2.195670	1
H	1.027717	1.293395	-2.179510	1
H	1.442267	1.586015	0.493520	1
H	-0.205403	2.040565	-0.000910	1
Es	-1.806280	0.609463	1.205870	99
Es	0.236255	-0.632091	0.420342	99
Es	1.133844	-1.480940	0.322931	99
Es	0.004190	-1.780566	-0.010691	99
Es	0.515552	1.218235	0.039283	99
Es	0.221204	-0.011123	1.507965	99
Es	-0.801442	-0.001204	0.806659	99
Es	-1.848836	0.012221	0.151565	99
Es	0.943460	-1.090454	-1.914297	99
Es	0.799088	-0.663939	-1.329799	99
Es	1.117034	0.002449	-1.273001	99
Es	-1.559221	0.002685	0.837603	99
Es	0.955104	1.105207	-1.901030	99
Es	0.806118	0.672716	-1.322636	99
Es	0.022163	1.780214	0.012602	99
Es	0.480490	0.006699	-1.422868	99
Es	-0.028266	-0.005214	0.795273	99
Es	-1.813137	-0.609617	1.192008	99
Es	0.503273	-1.224134	0.023054	99
Es	0.660105	0.981053	-0.659227	99
Es	0.242550	0.623830	0.428661	99
Es	0.650248	-0.979229	-0.671189	99
Es	1.148942	1.464872	0.342307	99
39
Properties=species:S:1:pos:R:3:Z:I:1 energy=-233.09144520034334 field_type=dipole dipole="0.000000 0.000000 0.000000" charge=0
C	-1.559233	0.002685	0.837600	6
C	-0.028243	-0.005215	0.795310	6
C	0.503267	-1.224155	0.023080	6
C	0.799097	-0.663805	-1.329810	6
C	0.806127	0.672585	-1.322650	6
C	0.515547	1.218255	0.039310	6
H	-1.924393	0.883405	1.376250	1
H	-1.934333	-0.886045	1.355920	1
H	-1.994243	0.016775	-0.167340	1
H	0.338027	-0.013735	1.828920	1
H	-0.226003	-2.038365	-0.026970	1
H	1.425797	-1.606895	0.472950	1
H	1.014007	-1.275465	-2.195670	1
H	1.027717	1.293395	-2.179510	1
H	1.442267	1.586015	0.493520	1
H	-0.205403	2.040565	-0.000910	1
Es	-0.801635	-0.001205	0.806676	99
Es	0.806116	0.672717	-1.322637	99
Es	1.117950	0.002450	-1.272945	99
Es	0.942958	-1.090820	-1.914204	99
Es	-0.028265	-0.005215	0.795278	99
Es	0.650637	-0.979432	-0.670393	99
Es	0.954592	1.105556	-1.900982	99
Es	-1.559221	0.002685	0.837603	99
Es	0.799090	-0.663939	-1.329798	99
Es	0.503275	-1.224133	0.023053	99
Es	-1.805929	0.610980	1.205853	99
Es	0.004104	-1.781666	-0.010955	99
Es	1.133622	-1.480289	0.322073	99
Es	1.148709	1.464287	0.341513	99
Es	0.660721	0.981350	-0.658308	99
Es	0.515556	1.218234	0.039283	99
Es	-1.812833	-0.611122	1.191987	99
Es	0.022023	1.781287	0.012257	99
Es	0.235913	-0.632611	0.420142	99
Es	-1.847412	0.012204	0.152200	99
Es	0.242207	0.624251	0.428402	99
Es	0.479961	0.006693	-1.422237	99
Es	0.220302	-0.011130	1.507524	99
39
Properties=species:S:1:pos:R:3:Z:I:1 energy=-233.09144520034334 field_type=dipole dipole="0.000000 0.000000 0.000000" charge=0
C	-1.559233	0.002685	0.837600	6
C	-0.028243	-0.005215	0.795310	6
C	0.503267	-1.224155	0.023080	6
C	0.799097	-0.663805	-1.329810	6
C	0.806127	0.672585	-1.322650	6
C	0.515547	1.218255	0.039310	6
H	-1.924393	0.883405	1.376250	1
H	-1.934333	-0.886045	1.355920	1
H	-1.994243	0.016775	-0.167340	1
H	0.338027	-0.013735	1.828920	1
H	-0.226003	-2.038365	-0.026970	1
H	1.425797	-1.606895	0.472950	1
H	1.014007	-1.275465	-2.195670	1
H	1.027717	1.293395	-2.179510	1
H	1.442267	1.586015	0.493520	1
H	-0.205403	2.040565	-0.000910	1
Es	-1.846295	0.012199	0.152648	99
Es	0.242025	0.624585	0.428301	99
Es	1.118690	0.002440	-1.273084	99
Es	0.004074	-1.782522	-0.011213	99
Es	0.806131	0.672719	-1.322633	99
Es	1.148481	1.463783	0.340745	99
Es	-1.812450	-0.612268	1.191934	99
Es	-1.805521	0.612124	1.205838	99
Es	0.954157	1.105857	-1.900801	99
Es	0.235700	-0.632896	0.420019	99
Es	0.515555	1.218234	0.039282	99
Es	0.219198	-0.011093	1.507123	99
Es	0.651171	-0.979850	-0.669539	99
Es	0.661163	0.981632	-0.657459	99
Es	0.021931	1.782180	0.012022	99
Es	-0.028266	-0.005215	0.795272	99
Es	1.133412	-1.479770	0.321398	99
Es	-1.559220	0.002685	0.837604	99
Es	0.479260	0.006700	-1.421786	99
Es	0.799105	-0.663940	-1.329795	99
Es	0.503275	-1.224133	0.023053	99
Es	0.942592	-1.091067	-1.914079	99
Es	-0.801727	-0.001249	0.806535	99
39
Properties=species:S:1:pos:R:3:Z:I:1 energy=-233.09144520034334 field_type=dipole dipole="0.000000 0.000000 0.000000" charge=0
C	-1.559233	0.002685	0.837600	6
C	-0.028243	-0.005215	0.795310	6
C	0.503267	-1.224155	0.023080	6
C	0.799097	-0.663805	-1.329810	6
C	0.806127	0.672585	-1.322650	6
C	0.515547	1.218255	0.039310	6
H	-1.924393	0.883405	1.376250	1
H	-1.934333	-0.886045	1.355920	1
H	-1.994243	0.016775	-0.167340	1
H	0.338027	-0.013735	1.828920	1
H	-0.226003	-2.038365	-0.026970	1
H	1.425797	-1.606895	0.472950	1
H	1.014007	-1.275465	-2.195670	1
H	1.027717	1.293395	-2.179510	1
H	1.442267	1.586015	0.493520	1
H	-0.205403	2.040565	-0.000910	1
Es	1.148461	1.463337	0.340093	99
Es	-1.845280	0.012211	0.152879	99
Es	1.133460	-1.479445	0.320865	99
Es	-0.028265	-0.005215	0.795273	99
Es	-1.559219	0.002685	0.837603	99
Es	0.806115	0.672722	-1.322636	99
Es	0.478966	0.006700	-1.421313	99
Es	0.503274	-1.224132	0.023054	99
Es	-0.801846	-0.001045	0.806741	99
Es	0.241719	0.624863	0.428095	99
Es	0.003906	-1.783116	-0.011557	99
Es	0.661459	0.981676	-0.656604	99
Es	0.651315	-0.979749	-0.668759	99
Es	0.218562	-0.011115	1.506855	99
Es	1.119404	0.002442	-1.273071	99
Es	0.953722	1.106184	-1.900764	99
Es	0.942089	-1.091549	-1.913946	99
Es	-1.811960	-0.613240	1.191861	99
Es	0.799092	-0.663940	-1.329799	99
Es	0.235269	-0.633243	0.419732	99
Es	-1.805232	0.612942	1.205799	99
Es	0.515555	1.218233	0.039282	99
Es	0.021874	1.782927	0.011702	99
39
Properties=species:S:1:pos:R:3:Z:I:1 energy=-233.09144520034334 field_type=dipole dipole="0.000000 0.000000 0.000000" charge=0
C	-1.559233	0.002685	0.837600	6
C	-0.028243	-0.005215	0.795310	6
C	0.503267	-1.224155	0.023080	6
C	0.799097	-0.663805	-1.329810	6
C	0.806127	0.672585	-1.322650	6
C	0.515547	1.218255	0.039310	6
H	-1.924393	0.883405	1.376250	1
H	-1.934333	-0.886045	1.355920	1
H	-1.994243	0.016775	-0.167340	1
H	0.338027	-0.013735	1.828920	1
H	-0.226003	-2.038365	-0.026970	1
H	1.425797	-1.606895	0.472950	1
H	1.014007	-1.275465	-2.195670	1
H	1.027717	1.293395	-2.179510	1
H	1.442267	1.586015	0.493520	1
H	-0.205403	2.040565	-0.000910	1
Es	-1.804569	0.613731	1.205798	99
Es	0.806121	0.672720	-1.322634	99
Es	0.021775	1.783386	0.011471	99
Es	0.003854	-1.783726	-0.011775	99
Es	0.799093	-0.663940	-1.329797	99
Es	-0.801930	-0.001182	0.806577	99
Es	0.478633	0.006691	-1.420998	99
Es	1.148390	1.463070	0.339748	99
Es	-0.028267	-0.005215	0.795269	99
Es	0.503274	-1.224133	0.023053	99
Es	0.241281	0.624921	0.427718	99
Es	1.119866	0.002439	-1.273076	99
Es	-1.559221	0.002686	0.837603	99
Es	0.953406	1.106432	-1.900653	99
Es	0.234946	-0.633167	0.419232	99
Es	0.941835	-1.091672	-1.913914	99
Es	1.133345	-1.479033	0.320428	99
Es	0.661648	0.982000	-0.655805	99
Es	0.217941	-0.011119	1.506691	99
Es	0.515555	1.218234	0.039283	99
Es	0.651683	-0.980263	-0.667898	99
Es	-1.844615	0.012275	0.153219	99
Es	-1.811605	-0.614001	1.191847	99
39
Properties=species:S:1:pos:R:3:Z:I:1 energy=-233.09144520034334 field_type=dipole dipole="0.000000 0.000000 0.000000" charge=0
C	-1.559233	0.002685	0.837600	6
C	-0.028243	-0.005215	0.795310	6
C	0.503267	-1.224155	0.023080	6
C	0.799097	-0.663805	-1.329810	6
C	0.806127	0.672585	-1.322650	6
C	0.515547	1.218255	0.039310	6
H	-1.924393	0.883405	1.376250	1
H	-1.934333	-0.886045	1.355920	1
H	-1.994243	0.016775	-0.167340	1
H	0.338027	-0.013735	1.828920	1
H	-0.226003	-2.038365	-0.026970	1
H	1.425797	-1.606895	0.472950	1
H	1.014007	-1.275465	-2.195670	1
H	1.027717	1.293395	-2.179510	1
H	1.442267	1.586015	0.493520	1
H	-0.205403	2.040565	-0.000910	1
Es	0.021714	1.783791	0.011204	99
Es	0.503275	-1.224133	0.023053	99
Es	0.941525	-1.091944	-1.913805	99
Es	0.240848	0.625002	0.427264	99
Es	-0.802124	-0.001210	0.806627	99
Es	0.651874	-0.980396	-0.667267	99
Es	1.120331	0.002435	-1.273106	99
Es	-1.804151	0.614410	1.205762	99
Es	0.217456	-0.011117	1.506485	99
Es	1.133344	-1.478871	0.320079	99
Es	0.234661	-0.633246	0.418968	99
Es	-1.843994	0.012138	0.153357	99
Es	-0.028266	-0.005215	0.795272	99
Es	0.478199	0.006687	-1.420689	99
Es	0.806120	0.672721	-1.322638	99
Es	0.515555	1.218234	0.039282	99
Es	0.799092	-0.663939	-1.329796	99
Es	1.148347	1.462813	0.339486	99
Es	-1.811012	-0.614565	1.191882	99
Es	0.953190	1.106721	-1.900521	99
Es	0.003717	-1.784048	-0.011996	99
Es	-1.559219	0.002685	0.837603	99
Es	0.661957	0.982179	-0.655123	99
39
Properties=species:S:1:pos:R:3:Z:I:1 energy=-233.09144520034334 field_type=dipole dipole="0.000000 0.000000 0.000000" charge=0
C	-1.559233	0.002685	0.837600	6
C	-0.028243	-0.005215	0.795310	6
C	0.503267	-1.224155	0.023080	6
C	0.799097	-0.663805	-1.329810	6
C	0.806127	0.672585	-1.322650	6
C	0.515547	1.218255	0.039310	6
H	-1.924393	0.883405	1.376250	1
H	-1.934333	-0.886045	1.355920	1
H	-1.994243	0.016775	-0.167340	1
H	0.338027	-0.013735	1.828920	1
H	-0.226003	-2.038365	-0.026970	1
H	1.425797	-1.606895	0.472950	1
H	1.014007	-1.275465	-2.195670	1
H	1.027717	1.293395	-2.179510	1
H	1.442267	1.586015	0.493520	1
H	-0.205403	2.040565	-0.000910	1
Es	-0.802166	-0.001195	0.806641	99
Es	-1.810633	-0.615066	1.191826	99
Es	0.799095	-0.663938	-1.329798	99
Es	1.133338	-1.478564	0.319891	99
Es	0.021675	1.784140	0.011050	99
Es	1.120699	0.002430	-1.273179	99
Es	0.217154	-0.011095	1.506401	99
Es	1.148316	1.462607	0.339123	99
Es	-1.803710	0.614899	1.205755	99
Es	0.477948	0.006699	-1.420403	99
Es	0.662071	0.982408	-0.654493	99
Es	-1.843509	0.012159	0.153566	99
Es	0.515555	1.218234	0.039282	99
Es	-0.028266	-0.005215	0.795272	99
Es	0.806126	0.672720	-1.322634	99
Es	0.941288	-1.092108	-1.913745	99
Es	0.003729	-1.784454	-0.012249	99
Es	0.234117	-0.633182	0.418453	99
Es	0.240535	0.624919	0.426910	99
Es	0.952908	1.106897	-1.900448	99
Es	0.652111	-0.980713	-0.666495	99
Es	-1.559219	0.002685	0.837603	99
Es	0.503275	-1.224134	0.023053	99
39
Properties=species:S:1:pos:R:3:Z:I:1 energy=-233.09144520034334 field_type=dipole dipole="0.000000 0.000000 0.000000" charge=0
C	-1.559233	0.002685	0.837600	6
C	-0.028243	-0.005215	0.795310	6
C	0.503267	-1.224155	0.023080	6
C	0.799097	-0.663805	-1.329810	6
C	0.806127	0.672585	-1.322650	6
C	0.515547	1.218255	0.039310	6
H	-1.924393	0.883405	1.376250	1
H	-1.934333	-0.886045	1.355920	1
H	-1.994243	0.016775	-0.167340	1
H	0.338027	-0.013735	1.828920	1
H	-0.226003	-2.038365	-0.026970	1
H	1.425797	-1.606895	0.472950	1
H	1.014007	-1.275465	-2.195670	1
H	1.027717	1.293395	-2.179510	1
H	1.442267	1.586015	0.493520	1
H	-0.205403	2.040565	-0.000910	1
Es	1.148293	1.462396	0.338906	99
Es	0.652201	-0.980693	-0.666021	99
Es	-1.559220	0.002685	0.837603	99
Es	0.216840	-0.011120	1.506307	99
Es	0.021611	1.784464	0.010802	99
Es	0.503279	-1.224136	0.023055	99
Es	-1.803243	0.615293	1.205773	99
Es	0.941129	-1.092395	-1.913601	99
Es	0.240157	0.624929	0.426569	99
Es	1.120997	0.002431	-1.273237	99
Es	-1.843201	0.012170	0.153694	99
Es	0.662279	0.982539	-0.653833	99
Es	0.952696	1.107096	-1.900373	99
Es	-1.810206	-0.615467	1.191836	99
Es	-0.802158	-0.001203	0.806595	99
Es	0.799102	-0.663942	-1.329796	99
Es	0.003699	-1.784791	-0.012373	99
Es	0.233759	-0.633257	0.418117	99
Es	-0.028266	-0.005215	0.795272	99
Es	0.806121	0.672719	-1.322634	99
Es	0.477693	0.006705	-1.420208	99
Es	0.515555	1.218234	0.039282	99
Es	1.133321	-1.478309	0.319650	99
39
Properties=species:S:1:pos:R:3:Z:I:1 energy=-233.09144520034334 field_type=dipole dipole="0.000000 0.000000 0.000000" charge=0
C	-1.559233	0.002685	0.837600	6
C	-0.028243	-0.005215	0.795310	6
C	0.503267	-1.224155	0.023080	6
C	0.799097	-0.663805	-1.329810	6
C	0.806127	0.672585	-1.322650	6
C	0.515547	1.218255	0.039310	6
H	-1.924393	0.883405	1.376250	1
H	-1.934333	-0.886045	1.355920	1
H	-1.994243	0.016775	-0.167340	1
H	0.338027	-0.013735	1.828920	1
H	-0.226003	-2.038365	-0.026970	1
H	1.425797	-1.606895	0.472950	1
H	1.014007	-1.275465	-2.195670	1
H	1.027717	1.293395	-2.179510	1
H	1.442267	1.586015	0.493520	1
H	-0.205403	2.040565	-0.000910	1
Es	0.503275	-1.224133	0.023054	99
Es	0.021578	1.784707	0.010634	99
Es	1.148338	1.462243	0.338651	99
Es	0.233498	-0.633049	0.417741	99
Es	-0.028266	-0.005216	0.795271	99
Es	-1.809799	-0.615850	1.191811	99
Es	0.515555	1.218234	0.039282	99
Es	0.952553	1.107311	-1.900304	99
Es	0.799090	-0.663940	-1.329797	99
Es	0.003598	-1.784908	-0.012566	99
Es	0.652383	-0.980957	-0.665422	99
Es	-1.802821	0.615638	1.205776	99
Es	0.239848	0.624811	0.426209	99
Es	1.133306	-1.478290	0.319472	99
Es	0.216591	-0.011111	1.506179	99
Es	0.477510	0.006694	-1.419990	99
Es	-0.802319	-0.001195	0.806627	99
Es	0.940953	-1.092595	-1.913551	99
Es	-1.559221	0.002685	0.837603	99
Es	-1.842854	0.012194	0.153796	99
Es	1.121177	0.002437	-1.273325	99
Es	0.662343	0.982703	-0.653129	99
Es	0.806121	0.672722	-1.322637	99
39
Properties=species:S:1:pos:R:3:Z:I:1 energy=-233.09144520034334 field_type=dipole dipole="0.000000 0.000000 0.000000" charge=0
C	-1.559233	0.002685	0.837600	6
C	-0.028243	-0.005215	0.795310	6
C	0.503267	-1.224155	0.023080	6
C	0.799097	-0.663805	-1.329810	6
C	0.806127	0.672585	-1.322650	6
C	0.515547	1.218255	0.039310	6
H	-1.924393	0.883405	1.376250	1
H	-1.934333	-0.886045	1.355920	1
H	-1.994243	0.016775	-0.167340	1
H	0.338027	-0.013735	1.828920	1
H	-0.226003	-2.038365	-0.026970	1
H	1.425797	-1.606895	0.472950	1
H	1.014007	-1.275465	-2.195670	1
H	1.027717	1.293395	-2.179510	1
H	1.442267	1.586015	0.493520	1
H	-0.205403	2.040565	-0.000910	1
Es	0.940756	-1.092712	-1.913499	99
Es	1.121458	0.002429	-1.273298	99
Es	-1.559216	0.002685	0.837601	99
Es	-1.809424	-0.616061	1.191881	99
Es	0.799093	-0.663942	-1.329802	99
Es	-0.802158	-0.001194	0.806639	99
Es	0.477517	0.006702	-1.419822	99
Es	0.503275	-1.224134	0.023054	99
Es	0.662320	0.982743	-0.652805	99
Es	0.239462	0.624849	0.425821	99
Es	0.003567	-1.785067	-0.012825	99
Es	0.216375	-0.011067	1.506075	99
Es	-1.802465	0.615913	1.205764	99
Es	0.952358	1.107541	-1.900238	99
Es	0.652405	-0.981112	-0.664824	99
Es	0.021549	1.784830	0.010532	99
Es	1.133347	-1.478209	0.319314	99
Es	1.148391	1.462155	0.338578	99
Es	-0.028271	-0.005215	0.795273	99
Es	0.806124	0.672719	-1.322637	99
Es	-1.842690	0.012130	0.153847	99
Es	0.515555	1.218234	0.039282	99
Es	0.233110	-0.633084	0.417474	99
39
Properties=species:S:1:pos:R:3:Z:I:1 energy=-233.09144520034334 field_type=dipole dipole="0.000000 0.000000 0.000000" charge=0
C	-1.559233	0.002685	0.837600	6
C	-0.028243	-0.005215	0.795310	6
C	0.503267	-1.224155	0.023080	6
C	0.799097	-0.663805	-1.329810	6
C	0.806127	0.672585	-1.322650	6
C	0.515547	1.218255	0.039310	6
H	-1.924393	0.883405	1.376250	1
H	-1.934333	-0.886045	1.355920	1
H	-1.994243	0.016775	-0.167340	1
H	0.338027	-0.013735	1.828920	1
H	-0.226003	-2.038365	-0.026970	1
H	1.425797	-1.606895	0.472950	1
H	1.014007	-1.275465	-2.195670	1
H	1.027717	1.293395	-2.179510	1
H	1.442267	1.586015	0.493520	1
H	-0.205403	2.040565	-0.000910	1
Es	0.799090	-0.663939	-1.329798	99
Es	-0.802400	-0.001254	0.806672	99
Es	0.239118	0.624762	0.425525	99
Es	0.952271	1.107636	-1.900126	99
Es	1.121658	0.002421	-1.273311	99
Es	-1.842302	0.012203	0.153975	99
Es	-1.802071	0.616212	1.205774	99
Es	-1.559220	0.002685	0.837603	99
Es	-1.809137	-0.616420	1.191765	99
Es	0.515555	1.218234	0.039282	99
Es	-0.028266	-0.005216	0.795270	99
Es	0.021500	1.784996	0.010354	99
Es	0.003555	-1.785305	-0.012887	99
Es	0.503275	-1.224134	0.023052	99
Es	0.806132	0.672715	-1.322633	99
Es	0.216220	-0.011053	1.506064	99
Es	0.232881	-0.632971	0.417013	99
Es	0.477296	0.006703	-1.419781	99
Es	0.652472	-0.981336	-0.664315	99
Es	1.148378	1.462056	0.338439	99
Es	1.133403	-1.477986	0.319210	99
Es	0.662420	0.982920	-0.652327	99
Es	0.940610	-1.092796	-1.913435	99
39
Properties=species:S:1:pos:R:3:Z:I:1 energy=-233.09144520034334 field_type=dipole dipole="0.000000 0.000000 0.000000" charge=0
C	-1.559233	0.002685	0.837600	6
C	-0.028243	-0.005215	0.795310	6
C	0.503267	-1.224155	0.023080	6
C	0.799097	-0.663805	-1.329810	6
C	0.806127	0.672585	-1.322650	6
C	0.515547	1.218255	0.039310	6
H	-1.924393	0.883405	1.376250	1
H	-1.934333	-0.886045	1.355920	1
H	-1.994243	0.016775	-0.167340	1
H	0.338027	-0.013735	1.828920	1
H	-0.226003	-2.038365	-0.026970	1
H	1.425797	-1.606895	0.472950	1
H	1.014007	-1.275465	-2.195670	1
H	1.027717	1.293395	-2.179510	1
H	1.442267	1.586015	0.493520	1
H	-0.205403	2.040565	-0.000910	1
Es	-1.808677	-0.616585	1.191911	99
Es	0.799091	-0.663940	-1.329798	99
Es	-1.559217	0.002685	0.837601	99
Es	0.952187	1.107732	-1.900057	99
Es	0.232736	-0.632861	0.416822	99
Es	-1.842269	0.012116	0.154017	99
Es	0.806131	0.672720	-1.322632	99
Es	1.148383	1.461852	0.338311	99
Es	-0.802631	-0.001263	0.806528	99
Es	0.515555	1.218234	0.039283	99
Es	0.216011	-0.011073	1.505968	99
Es	0.021556	1.785233	0.010266	99
Es	1.121770	0.002426	-1.273365	99
Es	0.238887	0.624655	0.425165	99
Es	0.662508	0.983135	-0.651800	99
Es	0.477066	0.006696	-1.419660	99
Es	0.503274	-1.224133	0.023054	99
Es	-0.028266	-0.005215	0.795271	99
Es	0.652672	-0.981374	-0.664035	99
Es	0.940532	-1.093003	-1.913340	99
Es	0.003527	-1.785424	-0.013012	99
Es	-1.801685	0.616443	1.205743	99
Es	1.133299	-1.477925	0.319145	99
39
Properties=species:S:1:pos:R:3:Z:I:1 energy=-233.09144520034334 field_type=dipole dipole="0.000000 0.000000 0.000000" charge=0
C	-1.559233	0.002685	0.837600	6
C	-0.028243	-0.005215	0.795310	6
C	0.503267	-1.224155	0.023080	6
C	0.799097	-0.663805	-1.329810	6
C	0.806127	0.672585	-1.322650	6
C	0.515547	1.218255	0.039310	6
H	-1.924393	0.883405	1.376250	1
H	-1.934333	-0.886045	1.355920	1
H	-1.994243	0.016775	-0.167340	1
H	0.338027	-0.013735	1.828920	1
H	-0.226003	-2.038365	-0.026970	1
H	1.425797	-1.606895	0.472950	1
H	1.014007	-1.275465	-2.195670	1
H	1.027717	1.293395	-2.179510	1
H	1.442267	1.586015	0.493520	1
H	-0.205403	2.040565	-0.000910	1
Es	0.238686	0.624500	0.424766	99
Es	0.003500	-1.785594	-0.013116	99
Es	-1.808431	-0.616810	1.191810	99
Es	0.952059	1.107851	-1.900114	99
Es	0.477016	0.006696	-1.419411	99
Es	-1.801506	0.616623	1.205751	99
Es	0.215985	-0.011069	1.505950	99
Es	1.121830	0.002426	-1.273388	99
Es	-1.841997	0.012139	0.154084	99
Es	0.021452	1.785290	0.010161	99
Es	0.232351	-0.632827	0.416443	99
Es	0.940463	-1.093064	-1.913325	99
Es	-0.028265	-0.005215	0.795272	99
Es	0.652644	-0.981542	-0.663539	99
Es	-0.802547	-0.001178	0.806678	99
Es	1.133384	-1.477787	0.318978	99
Es	0.806123	0.672720	-1.322634	99
Es	0.503275	-1.224134	0.023054	99
Es	0.662628	0.983297	-0.651401	99
Es	-1.559220	0.002685	0.837603	99
Es	1.148350	1.461832	0.338274	99
Es	0.515556	1.218234	0.039283	99
Es	0.799103	-0.663940	-1.329795	99
39
Properties=species:S:1:pos:R:3:Z:I:1 energy=-233.09144520034334 field_type=dipole dipole="0.000000 0.000000 0.000000" charge=0
C	-1.559233	0.002685	0.837600	6
C	-0.028243	-0.005215	0.795310	6
C	0.503267	-1.224155	0.023080	6
C	0.799097	-0.663805	-1.329810	6
C	0.806127	0.672585	-1.322650	6
C	0.515547	1.218255	0.039310	6
H	-1.924393	0.883405	1.376250	1
H	-1.934333	-0.886045	1.355920	1
H	-1.994243	0.016775	-0.167340	1
H	0.338027	-0.013735	1.828920	1
H	-0.226003	-2.038365	-0.026970	1
H	1.425797	-1.606895	0.472950	1
H	1.014007	-1.275465	-2.195670	1
H	1.027717	1.293395	-2.179510	1
H	1.442267	1.586015	0.493520	1
H	-0.205403	2.040565	-0.000910	1
Es	0.940382	-1.093279	-1.913280	99
Es	0.662610	0.983323	-0.650774	99
Es	-0.802601	-0.001163	0.806703	99
Es	0.003468	-1.785586	-0.013175	99
Es	0.021412	1.785363	0.009843	99
Es	0.477114	0.006701	-1.419449	99
Es	-1.841750	0.012224	0.154134	99
Es	1.148454	1.461818	0.338164	99
Es	0.652604	-0.981578	-0.663283	99
Es	-1.808185	-0.617056	1.191692	99
Es	0.806121	0.672720	-1.322633	99
Es	0.503274	-1.224134	0.023054	99
Es	0.238438	0.624447	0.424550	99
Es	-1.559219	0.002685	0.837602	99
Es	-1.801300	0.616752	1.205796	99
Es	1.133384	-1.477813	0.318962	99
Es	0.799090	-0.663942	-1.329800	99
Es	0.232157	-0.632719	0.416177	99
Es	-0.028266	-0.005214	0.795271	99
Es	0.951949	1.107983	-1.900006	99
Es	1.121908	0.002438	-1.273391	99
Es	0.515554	1.218234	0.039282	99
Es	0.215839	-0.011070	1.505945	99
39
Properties=species:S:1:pos:R:3:Z:I:1 energy=-233.09144520034334 field_type=dipole dipole="0.000000 0.000000 0.000000" charge=0
C	-1.559233	0.002685	0.837600	6
C	-0.028243	-0.005215	0.795310	6
C	0.503267	-1.224155	0.023080	6
C	0.799097	-0.663805	-1.329810	6
C	0.806127	0.672585	-1.322650	6
C	0.515547	1.218255	0.039310	6
H	-1.924393	0.883405	1.376250	1
H	-1.934333	-0.886045	1.355920	1
H	-1.994243	0.016775	-0.167340	1
H	0.338027	-0.013735	1.828920	1
H	-0.226003	-2.038365	-0.026970	1
H	1.425797	-1.606895	0.472950	1
H	1.014007	-1.275465	-2.195670	1
H	1.027717	1.293395	-2.179510	1
H	1.442267	1.586015	0.493520	1
H	-0.205403	2.040565	-0.000910	1
Es	0.662799	0.983391	-0.650649	99
Es	0.951882	1.108110	-1.899920	99
Es	0.515555	1.218234	0.039281	99
Es	0.476826	0.006698	-1.419247	99
Es	-0.802696	-0.001176	0.806696	99
Es	-1.801003	0.616903	1.205794	99
Es	1.133467	-1.477696	0.318805	99
Es	0.231932	-0.632673	0.415935	99
Es	0.238157	0.624365	0.424323	99
Es	0.215833	-0.011073	1.505915	99
Es	0.021551	1.785569	0.009905	99
Es	1.148323	1.461636	0.338063	99
Es	0.940344	-1.093248	-1.913287	99
Es	-0.028266	-0.005214	0.795272	99
Es	0.652590	-0.981753	-0.662827	99
Es	1.122026	0.002440	-1.273477	99
Es	0.003461	-1.785739	-0.013331	99
Es	-1.841713	0.012190	0.154177	99
Es	0.799094	-0.663939	-1.329796	99
Es	0.806122	0.672721	-1.322637	99
Es	-1.559219	0.002685	0.837603	99
Es	0.503275	-1.224133	0.023054	99
Es	-1.807903	-0.617165	1.191733	99
39
Properties=species:S:1:pos:R:3:Z:I:1 energy=-233.09144520034334 field_type=dipole dipole="0.000000 0.000000 0.000000" charge=0
C	-1.559233	0.002685	0.837600	6
C	-0.028243	-0.005215	0.795310	6
C	0.503267	-1.224155	0.023080	6
C	0.799097	-0.663805	-1.329810	6
C	0.806127	0.672585	-1.322650	6
C	0.515547	1.218255	0.039310	6
H	-1.924393	0.883405	1.376250	1
H	-1.934333	-0.886045	1.355920	1
H	-1.994243	0.016775	-0.167340	1
H	0.338027	-0.013735	1.828920	1
H	-0.226003	-2.038365	-0.026970	1
H	1.425797	-1.606895	0.472950	1
H	1.014007	-1.275465	-2.195670	1
H	1.027717	1.293395	-2.179510	1
H	1.442267	1.586015	0.493520	1
H	-0.205403	2.040565	-0.000910	1
Es	-1.841481	0.012231	0.154254	99
Es	0.662790	0.983426	-0.650378	99
Es	0.231705	-0.632731	0.415903	99
Es	0.799089	-0.663939	-1.329799	99
Es	0.003433	-1.785776	-0.013555	99
Es	-0.028283	-0.005214	0.795275	99
Es	1.122085	0.002430	-1.273489	99
Es	0.951822	1.108184	-1.899915	99
Es	0.652757	-0.981817	-0.662478	99
Es	0.021363	1.785506	0.009765	99
Es	0.940255	-1.093283	-1.913257	99
Es	1.133445	-1.477696	0.318803	99
Es	0.806120	0.672720	-1.322635	99
Es	0.515555	1.218235	0.039282	99
Es	0.238192	0.624365	0.424129	99
Es	1.148400	1.461716	0.338090	99
Es	-1.800760	0.617066	1.205769	99
Es	0.503275	-1.224135	0.023053	99
Es	0.476801	0.006688	-1.419195	99
Es	-1.807802	-0.617333	1.191649	99
Es	-1.559212	0.002685	0.837602	99
Es	0.215642	-0.011036	1.505781	99
Es	-0.802754	-0.001158	0.806729	99
39
Properties=species:S:1:pos:R:3:Z:I:1 energy=-233.09144520034334 field_type=dipole dipole="0.000000 0.000000 0.000000" charge=0
C	-1.559233	0.002685	0.837600	6
C	-0.028243	-0.005215	0.795310	6
C	0.503267	-1.224155	0.023080	6
C	0.799097	-0.663805	-1.329810	6
C	0.806127	0.672585	-1.322650	6
C	0.515547	1.218255	0.039310	6
H	-1.924393	0.883405	1.376250	1
H	-1.934333	-0.886045	1.355920	1
H	-1.994243	0.016775	-0.167340	1
H	0.338027	-0.013735	1.828920	1
H	-0.226003	-2.038365	-0.026970	1
H	1.425797	-1.606895	0.472950	1
H	1.014007	-1.275465	-2.195670	1
H	1.027717	1.293395	-2.179510	1
H	1.442267	1.586015	0.493520	1
H	-0.205403	2.040565	-0.000910	1
Es	0.940074	-1.093497	-1.913195	99
Es	-1.559215	0.002685	0.837602	99
Es	1.133373	-1.477629	0.318749	99
Es	0.515555	1.218234	0.039282	99
Es	1.122129	0.002414	-1.273583	99
Es	1.148420	1.461649	0.337974	99
Es	0.003373	-1.785864	-0.013538	99
Es	0.237987	0.624294	0.423926	99
Es	-1.800566	0.617195	1.205761	99
Es	0.799091	-0.663939	-1.329795	99
Es	-1.841415	0.012188	0.154290	99
Es	0.662745	0.983481	-0.650078	99
Es	0.652950	-0.981799	-0.662202	99
Es	-0.802886	-0.001179	0.806706	99
Es	0.231688	-0.632589	0.415625	99
Es	0.021387	1.785603	0.009678	99
Es	0.476816	0.006686	-1.419044	99
Es	0.806122	0.672719	-1.322634	99
Es	0.503275	-1.224134	0.023052	99
Es	0.951749	1.108296	-1.899910	99
Es	-0.028265	-0.005215	0.795272	99
Es	0.215580	-0.011033	1.505769	99
Es	-1.807528	-0.617435	1.191676	99
39
Properties=species:S:1:pos:R:3:Z:I:1 energy=-233.09144520034334 field_type=dipole dipole="0.000000 0.000000 0.000000" charge=0
C	-1.559233	0.002685	0.837600	6
C	-0.028243	-0.005215	0.795310	6
C	0.503267	-1.224155	0.023080	6
C	0.799097	-0.663805	-1.329810	6
C	0.806127	0.672585	-1.322650	6
C	0.515547	1.218255	0.039310	6
H	-1.924393	0.883405	1.376250	1
H	-1.934333	-0.886045	1.355920	1
H	-1.994243	0.016775	-0.167340	1
H	0.338027	-0.013735	1.828920	1
H	-0.226003	-2.038365	-0.026970	1
H	1.425797	-1.606895	0.472950	1
H	1.014007	-1.275465	-2.195670	1
H	1.027717	1.293395	-2.179510	1
H	1.442267	1.586015	0.493520	1
H	-0.205403	2.040565	-0.000910	1
Es	0.476791	0.006691	-1.419112	99
Es	0.940103	-1.093530	-1.913161	99
Es	1.133422	-1.477659	0.318768	99
Es	-0.803195	-0.001140	0.806745	99
Es	0.515555	1.218234	0.039282	99
Es	0.806123	0.672719	-1.322631	99
Es	1.148444	1.461643	0.337974	99
Es	0.652802	-0.981941	-0.662098	99
Es	-1.800385	0.617317	1.205740	99
Es	0.503275	-1.224133	0.023053	99
Es	0.003369	-1.785837	-0.013607	99
Es	0.231523	-0.632504	0.415406	99
Es	-1.559214	0.002686	0.837602	99
Es	0.215526	-0.011094	1.505650	99
Es	0.662763	0.983553	-0.649848	99
Es	0.951658	1.108371	-1.899831	99
Es	-1.807187	-0.617583	1.191693	99
Es	0.237877	0.624283	0.423792	99
Es	-1.841285	0.012157	0.154307	99
Es	1.122284	0.002433	-1.273423	99
Es	0.021363	1.785620	0.009609	99
Es	0.799092	-0.663939	-1.329797	99
Es	-0.028266	-0.005215	0.795273	99
39
Properties=species:S:1:pos:R:3:Z:I:1 energy=-233.09144520034334 field_type=dipole dipole="0.000000 0.000000 0.000000" charge=0
C	-1.559233	0.002685	0.837600	6
C	-0.028243	-0.005215	0.795310	6
C	0.503267	-1.224155	0.023080	6
C	0.799097	-0.663805	-1.329810	6
C	0.806127	0.672585	-1.322650	6
C	0.515547	1.218255	0.039310	6
H	-1.924393	0.883405	1.376250	1
H	-1.934333	-0.886045	1.355920	1
H	-1.994243	0.016775	-0.167340	1
H	0.338027	-0.013735	1.828920	1
H	-0.226003	-2.038365	-0.026970	1
H	1.425797	-1.606895	0.472950	1
H	1.014007	-1.275465	-2.195670	1
H	1.027717	1.293395	-2.179510	1
H	1.442267	1.586015	0.493520	1
H	-0.205403	2.040565	-0.000910	1
Es	-1.559219	0.002685	0.837603	99
Es	-1.800138	0.617400	1.205718	99
Es	0.515557	1.218234	0.039281	99
Es	0.231249	-0.632407	0.415096	99
Es	0.237639	0.624246	0.423608	99
Es	0.806119	0.672719	-1.322638	99
Es	0.951630	1.108439	-1.899843	99
Es	0.652867	-0.981936	-0.661862	99
Es	1.122316	0.002431	-1.273399	99
Es	0.503275	-1.224132	0.023054	99
Es	0.003388	-1.785939	-0.013656	99
Es	-0.028267	-0.005215	0.795271	99
Es	0.021334	1.785679	0.009497	99
Es	-1.807127	-0.617628	1.191738	99
Es	0.662801	0.983602	-0.649614	99
Es	0.476762	0.006695	-1.419033	99
Es	-0.802866	-0.001186	0.806718	99
Es	0.940055	-1.093717	-1.913084	99
Es	-1.841316	0.012167	0.154363	99
Es	1.148400	1.461614	0.337920	99
Es	0.799091	-0.663940	-1.329797	99
Es	1.133374	-1.477570	0.318746	99
Es	0.215514	-0.011107	1.505697	99
39
Properties=species:S:1:pos:R:3:Z:I:1 energy=-233.09144520034334 field_type=dipole dipole="0.000000 0.000000 0.000000" charge=0
C	-1.559233	0.002685	0.837600	6
C	-0.028243	-0.005215	0.795310	6
C	0.503267	-1.224155	0.023080	6
C	0.799097	-0.663805	-1.329810	6
C	0.806127	0.672585	-1.322650	6
C	0.515547	1.218255	0.039310	6
H	-1.924393	0.883405	1.376250	1
H	-1.934333	-0.886045	1.355920	1
H	-1.994243	0.016775	-0.167340	1
H	0.338027	-0.013735	1.828920	1
H	-0.226003	-2.038365	-0.026970	1
H	1.425797	-1.606895	0.472950	1
H	1.014007	-1.275465	-2.195670	1
H	1.027717	1.293395	-2.179510	1
H	1.442267	1.586015	0.493520	1
H	-0.205403	2.040565	-0.000910	1
Es	0.476713	0.006689	-1.418969	99
Es	0.652953	-0.982059	-0.661575	99
Es	0.215444	-0.011106	1.505599	99
Es	0.237489	0.624216	0.423409	99
Es	0.662814	0.983608	-0.649394	99
Es	0.939989	-1.093709	-1.913120	99
Es	1.122298	0.002427	-1.273499	99
Es	-0.028267	-0.005214	0.795270	99
Es	-1.806935	-0.617713	1.191708	99
Es	0.806121	0.672722	-1.322635	99
Es	1.148454	1.461591	0.337933	99
Es	0.231102	-0.632376	0.414934	99
Es	-1.559219	0.002685	0.837603	99
Es	-1.841238	0.012181	0.154338	99
Es	0.515555	1.218234	0.039280	99
Es	-1.799986	0.617464	1.205761	99
Es	0.021320	1.785697	0.009468	99
Es	0.799092	-0.663939	-1.329796	99
Es	0.003393	-1.786023	-0.013726	99
Es	-0.802908	-0.001177	0.806774	99