37
Properties=species:S:1:pos:R:3:Z:I:1 energy=-268.91188652425717 field_type=dipole dipole="0.000000 0.000000 0.000000" charge=0
C	-1.769588	-0.324592	0.479869	6
C	-0.278958	-0.324072	0.502169	6
C	0.494422	-0.954132	-0.624701	6
C	0.494132	0.547978	-0.460691	6
C	1.730462	1.235008	-0.023611	6
O	2.558732	1.614978	-0.840561	8
H	-2.154688	0.491888	1.098609	1
H	-2.151608	-1.267642	0.883019	1
H	-2.167188	-0.201202	-0.532901	1
H	0.104502	-0.459272	1.507619	1
H	-0.048058	-1.366262	-1.468521	1
H	1.401172	-1.498102	-0.382411	1
H	-0.071458	1.110568	-1.197361	1
H	1.858122	1.394858	1.059469	1
Es	1.109268	-1.314420	-0.455891	99
Es	2.378904	1.256274	-0.522387	99
Es	0.058803	0.279867	0.116452	99
Es	0.054012	-0.815467	-0.009572	99
Es	2.471105	1.546542	-1.131723	99
Es	-1.769563	-0.324589	0.479869	99
Es	0.625273	-0.159238	-0.677520	99
Es	-2.025794	-0.966726	0.754613	99
Es	2.137525	1.698213	-0.554112	99
Es	1.100715	0.880098	-0.220140	99
Es	1.730447	1.234998	-0.023609	99
Es	2.558533	1.614891	-0.840332	99
Es	-2.031854	-0.239914	-0.213435	99
Es	0.122798	-1.225365	-1.192645	99
Es	-0.278865	-0.324045	0.502016	99
Es	0.494389	-0.953952	-0.624623	99
Es	1.811854	1.335906	0.722532	99
Es	0.117277	0.928524	-0.946307	99
Es	2.805499	1.759022	-0.712282	99
Es	-2.028251	0.232201	0.901481	99
Es	-0.002475	-0.407616	1.181689	99
Es	0.494117	0.547817	-0.460617	99
Es	-1.020485	-0.320973	0.474778	99
37
Properties=species:S:1:pos:R:3:Z:I:1 energy=-268.91188652425717 field_type=dipole dipole="0.000000 0.000000 0.000000" charge=0
C	-1.769588	-0.324592	0.479869	6
C	-0.278958	-0.324072	0.502169	6
C	0.494422	-0.954132	-0.624701	6
C	0.494132	0.547978	-0.460691	6
C	1.730462	1.235008	-0.023611	6
O	2.558732	1.614978	-0.840561	8
H	-2.154688	0.491888	1.098609	1
H	-2.151608	-1.267642	0.883019	1
H	-2.167188	-0.201202	-0.532901	1
H	0.104502	-0.459272	1.507619	1
H	-0.048058	-1.366262	-1.468521	1
H	1.401172	-1.498102	-0.382411	1
H	-0.071458	1.110568	-1.197361	1
H	1.858122	1.394858	1.059469	1
Es	0.628712	-0.155955	-0.682136	99
Es	0.125162	-1.225098	-1.191438	99
Es	-0.278869	-0.324042	0.502019	99
Es	-2.026481	-0.968816	0.754848	99
Es	0.119344	0.927343	-0.945310	99
Es	2.558537	1.614903	-0.840215	99
Es	-2.027955	0.233181	0.900735	99
Es	-1.020885	-0.320879	0.474469	99
Es	0.494392	-0.953946	-0.624626	99
Es	1.100881	0.879344	-0.221634	99
Es	1.107043	-1.312976	-0.457940	99
Es	-0.003100	-0.408078	1.180761	99
Es	1.811529	1.336012	0.722566	99
Es	0.057071	0.279658	0.118357	99
Es	2.380549	1.254539	-0.520912	99
Es	-1.769562	-0.324589	0.479868	99
Es	2.137009	1.699748	-0.554921	99
Es	1.730445	1.234998	-0.023608	99
Es	-2.030504	-0.239498	-0.211967	99
Es	0.494116	0.547817	-0.460614	99
Es	2.476634	1.549308	-1.136138	99
Es	0.050761	-0.817822	-0.004636	99
Es	2.798405	1.756897	-0.709293	99
37
Properties=species:S:1:pos:R:3:Z:I:1 energy=-268.91188652425717 field_type=dipole dipole="0.000000 0.000000 0.000000" charge=0
C	-1.769588	-0.324592	0.479869	6
C	-0.278958	-0.324072	0.502169	6
C	0.494422	-0.954132	-0.624701	6
C	0.494132	0.547978	-0.460691	6
C	1.730462	1.235008	-0.023611	6
O	2.558732	1.614978	-0.840561	8
H	-2.154688	0.491888	1.098609	1
H	-2.151608	-1.267642	0.883019	1
H	-2.167188	-0.201202	-0.532901	1
H	0.104502	-0.459272	1.507619	1
H	-0.048058	-1.366262	-1.468521	1
H	1.401172	-1.498102	-0.382411	1
H	-0.071458	1.110568	-1.197361	1
H	1.858122	1.394858	1.059469	1
Es	0.127054	-1.224752	-1.190302	99
Es	2.558482	1.614860	-0.840351	99
Es	1.811210	1.336119	0.722587	99
Es	-0.003490	-0.408181	1.179952	99
Es	0.631228	-0.153814	-0.685369	99
Es	2.136824	1.700907	-0.556110	99
Es	-2.027627	0.233965	0.900053	99
Es	-1.021068	-0.321129	0.474078	99
Es	2.791462	1.753754	-0.704425	99
Es	0.494122	0.547821	-0.460617	99
Es	0.048887	-0.819808	-0.001707	99
Es	2.483543	1.552513	-1.140937	99
Es	0.120922	0.926252	-0.944250	99
Es	0.055763	0.279695	0.119364	99
Es	0.494391	-0.953949	-0.624628	99
Es	-1.769560	-0.324590	0.479868	99
Es	1.104825	-1.311767	-0.459169	99
Es	-2.029640	-0.239318	-0.210513	99
Es	1.730447	1.234995	-0.023608	99
Es	-0.278869	-0.324049	0.502018	99
Es	1.100942	0.879073	-0.222594	99
Es	2.380581	1.253509	-0.520076	99
Es	-2.027194	-0.970057	0.754973	99
37
Properties=species:S:1:pos:R:3:Z:I:1 energy=-268.91188652425717 field_type=dipole dipole="0.000000 0.000000 0.000000" charge=0
C	-1.769588	-0.324592	0.479869	6
C	-0.278958	-0.324072	0.502169	6
C	0.494422	-0.954132	-0.624701	6
C	0.494132	0.547978	-0.460691	6
C	1.730462	1.235008	-0.023611	6
O	2.558732	1.614978	-0.840561	8
H	-2.154688	0.491888	1.098609	1
H	-2.151608	-1.267642	0.883019	1
H	-2.167188	-0.201202	-0.532901	1
H	0.104502	-0.459272	1.507619	1
H	-0.048058	-1.366262	-1.468521	1
H	1.401172	-1.498102	-0.382411	1
H	-0.071458	1.110568	-1.197361	1
H	1.858122	1.394858	1.059469	1
Es	1.101143	0.879650	-0.223415	99
Es	2.134610	1.700113	-0.557176	99
Es	0.128319	-1.224640	-1.189266	99
Es	2.558410	1.614823	-0.840392	99
Es	0.632818	-0.152071	-0.688090	99
Es	-2.027476	0.234435	0.899461	99
Es	1.102875	-1.310551	-0.460073	99
Es	-2.027809	-0.970940	0.754926	99
Es	-1.021078	-0.321201	0.473520	99
Es	0.121994	0.924724	-0.942723	99
Es	-1.769562	-0.324591	0.479868	99
Es	0.047806	-0.821334	0.000521	99
Es	-0.003702	-0.408398	1.179097	99
Es	0.494392	-0.953947	-0.624625	99
Es	2.501260	1.562104	-1.149971	99
Es	1.811047	1.336247	0.722527	99
Es	0.055155	0.279543	0.119717	99
Es	0.494115	0.547817	-0.460614	99
Es	2.775984	1.746423	-0.692115	99
Es	-0.278873	-0.324051	0.502021	99
Es	2.380541	1.252118	-0.522488	99
Es	-2.029181	-0.239223	-0.208868	99
Es	1.730444	1.234997	-0.023607	99
37
Properties=species:S:1:pos:R:3:Z:I:1 energy=-268.91188652425717 field_type=dipole dipole="0.000000 0.000000 0.000000" charge=0
C	-1.769588	-0.324592	0.479869	6
C	-0.278958	-0.324072	0.502169	6
C	0.494422	-0.954132	-0.624701	6
C	0.494132	0.547978	-0.460691	6
C	1.730462	1.235008	-0.023611	6
O	2.558732	1.614978	-0.840561	8
H	-2.154688	0.491888	1.098609	1
H	-2.151608	-1.267642	0.883019	1
H	-2.167188	-0.201202	-0.532901	1
H	0.104502	-0.459272	1.507619	1
H	-0.048058	-1.366262	-1.468521	1
H	1.401172	-1.498102	-0.382411	1
H	-0.071458	1.110568	-1.197361	1
H	1.858122	1.394858	1.059469	1
Es	-0.003673	-0.408372	1.177784	99
Es	0.494120	0.547821	-0.460618	99
Es	-0.278874	-0.324046	0.502023	99
Es	0.633731	-0.150959	-0.689814	99
Es	-1.769561	-0.324591	0.479869	99
Es	0.129131	-1.225001	-1.188959	99
Es	2.558493	1.614870	-0.840323	99
Es	0.054822	0.279471	0.119637	99
Es	0.047469	-0.822483	0.002100	99
Es	1.730445	1.234996	-0.023609	99
Es	2.133258	1.700001	-0.561125	99
Es	1.101029	-1.309285	-0.460404	99
Es	1.811003	1.336334	0.722453	99
Es	-2.028325	-0.971400	0.754971	99
Es	-2.028930	-0.239280	-0.207556	99
Es	0.122804	0.923215	-0.941291	99
Es	2.376951	1.250552	-0.524632	99
Es	2.752512	1.733899	-0.677898	99
Es	-2.027450	0.234684	0.898854	99
Es	-1.021250	-0.321225	0.473592	99
Es	1.101640	0.880349	-0.223985	99
Es	2.529494	1.576451	-1.158208	99
Es	0.494393	-0.953951	-0.624625	99
37
Properties=species:S:1:pos:R:3:Z:I:1 energy=-268.91188652425717 field_type=dipole dipole="0.000000 0.000000 0.000000" charge=0
C	-1.769588	-0.324592	0.479869	6
C	-0.278958	-0.324072	0.502169	6
C	0.494422	-0.954132	-0.624701	6
C	0.494132	0.547978	-0.460691	6
C	1.730462	1.235008	-0.023611	6
O	2.558732	1.614978	-0.840561	8
H	-2.154688	0.491888	1.098609	1
H	-2.151608	-1.267642	0.883019	1
H	-2.167188	-0.201202	-0.532901	1
H	0.104502	-0.459272	1.507619	1
H	-0.048058	-1.366262	-1.468521	1
H	1.401172	-1.498102	-0.382411	1
H	-0.071458	1.110568	-1.197361	1
H	1.858122	1.394858	1.059469	1
Es	0.494118	0.547813	-0.460617	99
Es	0.123423	0.921531	-0.939960	99
Es	-1.021246	-0.321477	0.473390	99
Es	2.374398	1.249357	-0.527199	99
Es	-0.278874	-0.324056	0.502023	99
Es	0.054542	0.279401	0.119152	99
Es	0.634595	-0.150280	-0.690714	99
Es	-1.769560	-0.324591	0.479868	99
Es	-0.003687	-0.408309	1.177199	99
Es	2.132795	1.700332	-0.562465	99
Es	2.554965	1.590824	-1.161209	99
Es	-2.028786	-0.239091	-0.206624	99
Es	0.494390	-0.953939	-0.624620	99
Es	1.099096	-1.307983	-0.460253	99
Es	-2.028824	-0.971690	0.754776	99
Es	0.129651	-1.225828	-1.189318	99
Es	1.811054	1.336370	0.722414	99
Es	1.730445	1.234995	-0.023607	99
Es	1.102026	0.881571	-0.224508	99
Es	2.558428	1.614834	-0.840370	99
Es	-2.027359	0.234675	0.898596	99
Es	2.730093	1.720523	-0.670941	99
Es	0.047548	-0.822934	0.003223	99
37
Properties=species:S:1:pos:R:3:Z:I:1 energy=-268.91188652425717 field_type=dipole dipole="0.000000 0.000000 0.000000" charge=0
C	-1.769588	-0.324592	0.479869	6
C	-0.278958	-0.324072	0.502169	6
C	0.494422	-0.954132	-0.624701	6
C	0.494132	0.547978	-0.460691	6
C	1.730462	1.235008	-0.023611	6
O	2.558732	1.614978	-0.840561	8
H	-2.154688	0.491888	1.098609	1
H	-2.151608	-1.267642	0.883019	1
H	-2.167188	-0.201202	-0.532901	1
H	0.104502	-0.459272	1.507619	1
H	-0.048058	-1.366262	-1.468521	1
H	1.401172	-1.498102	-0.382411	1
H	-0.071458	1.110568	-1.197361	1
H	1.858122	1.394858	1.059469	1
Es	-1.021259	-0.321501	0.473273	99
Es	0.494117	0.547815	-0.460616	99
Es	2.558301	1.614756	-0.840455	99
Es	-2.028674	-0.239058	-0.206045	99
Es	0.635255	-0.149812	-0.691469	99
Es	1.102251	0.882280	-0.225057	99
Es	-2.029055	-0.971915	0.754809	99
Es	0.047601	-0.823477	0.004086	99
Es	0.494389	-0.953944	-0.624623	99
Es	1.730445	1.234995	-0.023607	99
Es	-2.027269	0.234731	0.898343	99
Es	0.130000	-1.226139	-1.189530	99
Es	-1.769562	-0.324591	0.479868	99
Es	2.568644	1.598327	-1.161053	99
Es	-0.278874	-0.324042	0.502023	99
Es	1.097680	-1.306997	-0.460487	99
Es	0.054311	0.279237	0.119050	99
Es	1.810990	1.336512	0.722409	99
Es	-0.003703	-0.408317	1.176828	99
Es	2.133052	1.700621	-0.563555	99
Es	2.718325	1.713282	-0.668813	99
Es	0.123923	0.920415	-0.938816	99
Es	2.372347	1.248874	-0.528327	99
37
Properties=species:S:1:pos:R:3:Z:I:1 energy=-268.91188652425717 field_type=dipole dipole="0.000000 0.000000 0.000000" charge=0
C	-1.769588	-0.324592	0.479869	6
C	-0.278958	-0.324072	0.502169	6
C	0.494422	-0.954132	-0.624701	6
C	0.494132	0.547978	-0.460691	6
C	1.730462	1.235008	-0.023611	6
O	2.558732	1.614978	-0.840561	8
H	-2.154688	0.491888	1.098609	1
H	-2.151608	-1.267642	0.883019	1
H	-2.167188	-0.201202	-0.532901	1
H	0.104502	-0.459272	1.507619	1
H	-0.048058	-1.366262	-1.468521	1
H	1.401172	-1.498102	-0.382411	1
H	-0.071458	1.110568	-1.197361	1
H	1.858122	1.394858	1.059469	1
Es	-0.278873	-0.324044	0.502022	99
Es	1.730447	1.234993	-0.023607	99
Es	1.810944	1.336523	0.722420	99
Es	-1.021328	-0.321644	0.473076	99
Es	0.054100	0.279153	0.118862	99
Es	2.372320	1.248701	-0.529510	99
Es	1.102183	0.883135	-0.225632	99
Es	0.124462	0.919263	-0.937760	99
Es	0.636102	-0.149502	-0.692356	99
Es	0.494118	0.547817	-0.460616	99
Es	0.494389	-0.953940	-0.624621	99
Es	2.558312	1.614758	-0.840464	99
Es	2.710427	1.708231	-0.668750	99
Es	-1.769560	-0.324591	0.479868	99
Es	-2.027067	0.234788	0.898240	99
Es	-2.029232	-0.972015	0.754873	99
Es	2.576810	1.603496	-1.160667	99
Es	1.096119	-1.305801	-0.460476	99
Es	-0.003621	-0.408385	1.176581	99
Es	0.047508	-0.823793	0.004819	99
Es	0.130592	-1.226776	-1.189651	99
Es	2.132797	1.700700	-0.562819	99
Es	-2.028715	-0.239018	-0.205597	99
37
Properties=species:S:1:pos:R:3:Z:I:1 energy=-268.91188652425717 field_type=dipole dipole="0.000000 0.000000 0.000000" charge=0
C	-1.769588	-0.324592	0.479869	6
C	-0.278958	-0.324072	0.502169	6
C	0.494422	-0.954132	-0.624701	6
C	0.494132	0.547978	-0.460691	6
C	1.730462	1.235008	-0.023611	6
O	2.558732	1.614978	-0.840561	8
H	-2.154688	0.491888	1.098609	1
H	-2.151608	-1.267642	0.883019	1
H	-2.167188	-0.201202	-0.532901	1
H	0.104502	-0.459272	1.507619	1
H	-0.048058	-1.366262	-1.468521	1
H	1.401172	-1.498102	-0.382411	1
H	-0.071458	1.110568	-1.197361	1
H	1.858122	1.394858	1.059469	1
Es	0.124916	0.918452	-0.936825	99
Es	0.053847	0.279222	0.118601	99
Es	-0.003678	-0.408310	1.176603	99
Es	-1.021331	-0.321721	0.473070	99
Es	2.698351	1.699836	-0.669097	99
Es	-0.278872	-0.324046	0.502022	99
Es	-2.027002	0.234708	0.898285	99
Es	-2.029280	-0.972052	0.754821	99
Es	2.133932	1.701689	-0.562863	99
Es	0.494401	-0.953941	-0.624609	99
Es	-1.769562	-0.324591	0.479868	99
Es	0.130722	-1.227297	-1.190145	99
Es	1.730446	1.234993	-0.023607	99
Es	0.047834	-0.823993	0.005250	99
Es	2.369901	1.248038	-0.530920	99
Es	0.636299	-0.149424	-0.692638	99
Es	2.558451	1.614845	-0.840354	99
Es	0.494118	0.547815	-0.460616	99
Es	1.094901	-1.304989	-0.460459	99
Es	1.102542	0.883550	-0.225980	99
Es	-2.028707	-0.238894	-0.205647	99
Es	2.589991	1.611518	-1.158953	99
Es	1.811012	1.336641	0.722429	99
37
Properties=species:S:1:pos:R:3:Z:I:1 energy=-268.91188652425717 field_type=dipole dipole="0.000000 0.000000 0.000000" charge=0
C	-1.769588	-0.324592	0.479869	6
C	-0.278958	-0.324072	0.502169	6
C	0.494422	-0.954132	-0.624701	6
C	0.494132	0.547978	-0.460691	6
C	1.730462	1.235008	-0.023611	6
O	2.558732	1.614978	-0.840561	8
H	-2.154688	0.491888	1.098609	1
H	-2.151608	-1.267642	0.883019	1
H	-2.167188	-0.201202	-0.532901	1
H	0.104502	-0.459272	1.507619	1
H	-0.048058	-1.366262	-1.468521	1
H	1.401172	-1.498102	-0.382411	1
H	-0.071458	1.110568	-1.197361	1
H	1.858122	1.394858	1.059469	1
Es	2.410746	1.535475	-0.948738	99
Es	-0.278873	-0.324045	0.502023	99
Es	2.819063	1.750960	-0.935515	99
Es	1.730447	1.234992	-0.023608	99
Es	0.050079	-0.822557	0.003645	99
Es	-0.005218	-0.407704	1.184340	99
Es	1.810444	1.336781	0.723579	99
Es	1.101574	0.880951	-0.225729	99
Es	2.558629	1.615010	-0.839518	99
Es	0.124202	0.921531	-0.939966	99
Es	2.399910	1.259635	-0.511154	99
Es	-2.025387	-0.970145	0.755399	99
Es	-2.027583	-0.238983	-0.214839	99
Es	-1.021943	-0.321736	0.473931	99
Es	-1.769561	-0.324591	0.479868	99
Es	0.131336	-1.230117	-1.195106	99
Es	0.494112	0.547803	-0.460611	99
Es	-2.026098	0.234745	0.901894	99
Es	0.638807	-0.154468	-0.689292	99
Es	0.494390	-0.953935	-0.624616	99
Es	1.091367	-1.300514	-0.460632	99
Es	2.161911	1.714005	-0.527738	99
Es	0.050875	0.278956	0.120616	99
37
Properties=species:S:1:pos:R:3:Z:I:1 energy=-268.91188652425717 field_type=dipole dipole="0.000000 0.000000 0.000000" charge=0
C	-1.769588	-0.324592	0.479869	6
C	-0.278958	-0.324072	0.502169	6
C	0.494422	-0.954132	-0.624701	6
C	0.494132	0.547978	-0.460691	6
C	1.730462	1.235008	-0.023611	6
O	2.558732	1.614978	-0.840561	8
H	-2.154688	0.491888	1.098609	1
H	-2.151608	-1.267642	0.883019	1
H	-2.167188	-0.201202	-0.532901	1
H	0.104502	-0.459272	1.507619	1
H	-0.048058	-1.366262	-1.468521	1
H	1.401172	-1.498102	-0.382411	1
H	-0.071458	1.110568	-1.197361	1
H	1.858122	1.394858	1.059469	1
Es	1.730446	1.234995	-0.023608	99
Es	0.494105	0.547805	-0.460601	99
Es	0.053504	0.278838	0.118398	99
Es	2.558307	1.614759	-0.840462	99
Es	1.092776	-1.303354	-0.460397	99
Es	0.637242	-0.149110	-0.693339	99
Es	0.125536	0.917024	-0.935406	99
Es	2.685268	1.691302	-0.671372	99
Es	2.603594	1.619609	-1.156237	99
Es	-0.278873	-0.324044	0.502022	99
Es	2.134855	1.702585	-0.562216	99
Es	-1.769562	-0.324591	0.479868	99
Es	1.811015	1.336700	0.722456	99
Es	0.494391	-0.953944	-0.624618	99
Es	-0.003578	-0.408312	1.176580	99
Es	-2.026949	0.234702	0.898067	99
Es	-1.021314	-0.321905	0.473124	99
Es	-2.028594	-0.238881	-0.205479	99
Es	-2.029517	-0.972066	0.754877	99
Es	1.102505	0.884684	-0.226743	99
Es	0.048203	-0.824067	0.005957	99
Es	2.368596	1.247671	-0.531896	99
Es	0.131277	-1.228351	-1.190740	99
37
Properties=species:S:1:pos:R:3:Z:I:1 energy=-268.91188652425717 field_type=dipole dipole="0.000000 0.000000 0.000000" charge=0
C	-1.769588	-0.324592	0.479869	6
C	-0.278958	-0.324072	0.502169	6
C	0.494422	-0.954132	-0.624701	6
C	0.494132	0.547978	-0.460691	6
C	1.730462	1.235008	-0.023611	6
O	2.558732	1.614978	-0.840561	8
H	-2.154688	0.491888	1.098609	1
H	-2.151608	-1.267642	0.883019	1
H	-2.167188	-0.201202	-0.532901	1
H	0.104502	-0.459272	1.507619	1
H	-0.048058	-1.366262	-1.468521	1
H	1.401172	-1.498102	-0.382411	1
H	-0.071458	1.110568	-1.197361	1
H	1.858122	1.394858	1.059469	1
Es	1.730446	1.234994	-0.023607	99
Es	0.131588	-1.228724	-1.191028	99
Es	-0.278873	-0.324048	0.502023	99
Es	1.102533	0.885067	-0.226982	99
Es	-1.021296	-0.321882	0.472852	99
Es	2.368417	1.247517	-0.532921	99
Es	1.091778	-1.302627	-0.460421	99
Es	-2.028709	-0.238893	-0.205497	99
Es	-2.026875	0.234729	0.898173	99
Es	-0.003600	-0.408423	1.176775	99
Es	2.609859	1.623291	-1.154600	99
Es	0.494394	-0.953936	-0.624616	99
Es	0.048215	-0.824160	0.006234	99
Es	-2.029401	-0.972063	0.754924	99
Es	1.810966	1.336733	0.722503	99
Es	2.558485	1.614867	-0.840303	99
Es	0.637685	-0.149160	-0.693592	99
Es	0.125868	0.916505	-0.934825	99
Es	0.053356	0.278804	0.118264	99
Es	2.679574	1.688256	-0.671831	99
Es	0.494118	0.547815	-0.460615	99
Es	-1.769562	-0.324591	0.479869	99
Es	2.134266	1.701982	-0.562544	99
37
Properties=species:S:1:pos:R:3:Z:I:1 energy=-268.91188652425717 field_type=dipole dipole="0.000000 0.000000 0.000000" charge=0
C	-1.769588	-0.324592	0.479869	6
C	-0.278958	-0.324072	0.502169	6
C	0.494422	-0.954132	-0.624701	6
C	0.494132	0.547978	-0.460691	6
C	1.730462	1.235008	-0.023611	6
O	2.558732	1.614978	-0.840561	8
H	-2.154688	0.491888	1.098609	1
H	-2.151608	-1.267642	0.883019	1
H	-2.167188	-0.201202	-0.532901	1
H	0.104502	-0.459272	1.507619	1
H	-0.048058	-1.366262	-1.468521	1
H	1.401172	-1.498102	-0.382411	1
H	-0.071458	1.110568	-1.197361	1
H	1.858122	1.394858	1.059469	1
Es	-1.021475	-0.322023	0.473203	99
Es	0.126106	0.916100	-0.934432	99
Es	0.494119	0.547817	-0.460618	99
Es	1.102449	0.885425	-0.227186	99
Es	2.675432	1.685337	-0.672887	99
Es	-0.003510	-0.408305	1.176611	99
Es	0.638086	-0.149219	-0.693757	99
Es	2.367742	1.247344	-0.533751	99
Es	-2.026677	0.234667	0.898110	99
Es	0.131698	-1.229061	-1.191261	99
Es	-2.029479	-0.971988	0.755109	99
Es	-1.769562	-0.324591	0.479868	99
Es	2.558116	1.614651	-0.840315	99
Es	-0.278873	-0.324046	0.502023	99
Es	2.134772	1.702006	-0.562121	99
Es	2.614561	1.626498	-1.153146	99
Es	1.810958	1.336777	0.722547	99
Es	0.053168	0.278697	0.118194	99
Es	1.091020	-1.302063	-0.460464	99
Es	-2.028736	-0.238822	-0.205787	99
Es	1.730445	1.234996	-0.023608	99
Es	0.494392	-0.953943	-0.624617	99
Es	0.048479	-0.824204	0.006518	99
37
Properties=species:S:1:pos:R:3:Z:I:1 energy=-268.91188652425717 field_type=dipole dipole="0.000000 0.000000 0.000000" charge=0
C	-1.769588	-0.324592	0.479869	6
C	-0.278958	-0.324072	0.502169	6
C	0.494422	-0.954132	-0.624701	6
C	0.494132	0.547978	-0.460691	6
C	1.730462	1.235008	-0.023611	6
O	2.558732	1.614978	-0.840561	8
H	-2.154688	0.491888	1.098609	1
H	-2.151608	-1.267642	0.883019	1
H	-2.167188	-0.201202	-0.532901	1
H	0.104502	-0.459272	1.507619	1
H	-0.048058	-1.366262	-1.468521	1
H	1.401172	-1.498102	-0.382411	1
H	-0.071458	1.110568	-1.197361	1
H	1.858122	1.394858	1.059469	1
Es	2.134147	1.701428	-0.563115	99
Es	-2.026720	0.234629	0.898143	99
Es	2.367598	1.247491	-0.533858	99
Es	0.048365	-0.824424	0.006818	99
Es	2.558666	1.614998	-0.839895	99
Es	2.671789	1.683882	-0.673320	99
Es	0.494389	-0.953941	-0.624620	99
Es	1.102445	0.885598	-0.227441	99
Es	0.132152	-1.229485	-1.191388	99
Es	-0.278874	-0.324046	0.502022	99
Es	0.494112	0.547814	-0.460614	99
Es	-1.021322	-0.321862	0.472934	99
Es	2.618376	1.628053	-1.152065	99
Es	-2.028712	-0.238766	-0.205663	99
Es	1.810948	1.336774	0.722598	99
Es	-1.769562	-0.324591	0.479868	99
Es	0.053187	0.278590	0.118023	99
Es	1.730446	1.234993	-0.023607	99
Es	-2.029467	-0.972079	0.755011	99
Es	1.090169	-1.301373	-0.460421	99
Es	-0.003586	-0.408245	1.176911	99
Es	0.126314	0.915815	-0.933893	99
Es	0.638374	-0.149203	-0.694196	99
37
Properties=species:S:1:pos:R:3:Z:I:1 energy=-268.91188652425717 field_type=dipole dipole="0.000000 0.000000 0.000000" charge=0
C	-1.769588	-0.324592	0.479869	6
C	-0.278958	-0.324072	0.502169	6
C	0.494422	-0.954132	-0.624701	6
C	0.494132	0.547978	-0.460691	6
C	1.730462	1.235008	-0.023611	6
O	2.558732	1.614978	-0.840561	8
H	-2.154688	0.491888	1.098609	1
H	-2.151608	-1.267642	0.883019	1
H	-2.167188	-0.201202	-0.532901	1
H	0.104502	-0.459272	1.507619	1
H	-0.048058	-1.366262	-1.468521	1
H	1.401172	-1.498102	-0.382411	1
H	-0.071458	1.110568	-1.197361	1
H	1.858122	1.394858	1.059469	1
Es	0.052997	0.278583	0.118129	99
Es	2.619923	1.629151	-1.151695	99
Es	2.366297	1.247466	-0.533896	99
Es	-1.021320	-0.321907	0.472886	99
Es	-1.769561	-0.324591	0.479869	99
Es	1.089575	-1.301198	-0.460504	99
Es	0.494116	0.547817	-0.460612	99
Es	2.558376	1.614800	-0.840413	99
Es	1.811013	1.336750	0.722585	99
Es	0.048546	-0.824346	0.006842	99
Es	-2.028839	-0.238725	-0.205428	99
Es	1.730447	1.234988	-0.023608	99
Es	-2.029505	-0.972112	0.755059	99
Es	-0.278875	-0.324048	0.502022	99
Es	0.126510	0.915482	-0.933489	99
Es	0.638702	-0.149148	-0.694418	99
Es	-2.026662	0.234521	0.898094	99
Es	2.135849	1.703189	-0.561817	99
Es	0.494389	-0.953944	-0.624624	99
Es	-0.003435	-0.408278	1.176763	99
Es	2.670070	1.681320	-0.674457	99
Es	0.132096	-1.229466	-1.191389	99
Es	1.102523	0.885744	-0.227663	99
37
Properties=species:S:1:pos:R:3:Z:I:1 energy=-268.91188652425717 field_type=dipole dipole="0.000000 0.000000 0.000000" charge=0
C	-1.769588	-0.324592	0.479869	6
C	-0.278958	-0.324072	0.502169	6
C	0.494422	-0.954132	-0.624701	6
C	0.494132	0.547978	-0.460691	6
C	1.730462	1.235008	-0.023611	6
O	2.558732	1.614978	-0.840561	8
H	-2.154688	0.491888	1.098609	1
H	-2.151608	-1.267642	0.883019	1
H	-2.167188	-0.201202	-0.532901	1
H	0.104502	-0.459272	1.507619	1
H	-0.048058	-1.366262	-1.468521	1
H	1.401172	-1.498102	-0.382411	1
H	-0.071458	1.110568	-1.197361	1
H	1.858122	1.394858	1.059469	1
Es	1.102523	0.885935	-0.227789	99
Es	2.624692	1.631877	-1.149963	99
Es	0.494399	-0.953950	-0.624621	99
Es	-0.278873	-0.324049	0.502025	99
Es	0.494114	0.547815	-0.460617	99
Es	-2.026666	0.234607	0.898104	99
Es	2.558156	1.614676	-0.840455	99
Es	2.136007	1.703131	-0.561921	99
Es	0.126707	0.915219	-0.933201	99
Es	0.132407	-1.229904	-1.191693	99
Es	-2.028706	-0.238747	-0.205706	99
Es	0.052986	0.278426	0.117819	99
Es	-1.021366	-0.321979	0.472834	99
Es	2.665957	1.678837	-0.675463	99
Es	1.810960	1.336835	0.722628	99
Es	0.048583	-0.824402	0.007191	99
Es	-1.769562	-0.324591	0.479869	99
Es	0.638720	-0.149096	-0.694422	99
Es	2.365754	1.247311	-0.534449	99
Es	-2.029509	-0.972066	0.755062	99
Es	1.089037	-1.300566	-0.460491	99
Es	1.730446	1.234995	-0.023608	99
Es	-0.003531	-0.408265	1.177105	99
37
Properties=species:S:1:pos:R:3:Z:I:1 energy=-268.91188652425717 field_type=dipole dipole="0.000000 0.000000 0.000000" charge=0
C	-1.769588	-0.324592	0.479869	6
C	-0.278958	-0.324072	0.502169	6
C	0.494422	-0.954132	-0.624701	6
C	0.494132	0.547978	-0.460691	6
C	1.730462	1.235008	-0.023611	6
O	2.558732	1.614978	-0.840561	8
H	-2.154688	0.491888	1.098609	1
H	-2.151608	-1.267642	0.883019	1
H	-2.167188	-0.201202	-0.532901	1
H	0.104502	-0.459272	1.507619	1
H	-0.048058	-1.366262	-1.468521	1
H	1.401172	-1.498102	-0.382411	1
H	-0.071458	1.110568	-1.197361	1
H	1.858122	1.394858	1.059469	1
Es	2.136755	1.703625	-0.561208	99
Es	-0.003450	-0.408295	1.176906	99
Es	0.639165	-0.149055	-0.694637	99
Es	1.810973	1.336830	0.722629	99
Es	2.624861	1.632571	-1.149948	99
Es	2.665088	1.677748	-0.676199	99
Es	-1.769561	-0.324591	0.479869	99
Es	-0.278874	-0.324046	0.502022	99
Es	0.052910	0.278386	0.117873	99
Es	0.494116	0.547818	-0.460615	99
Es	1.730447	1.234992	-0.023607	99
Es	0.126885	0.914929	-0.932935	99
Es	1.088464	-1.300331	-0.460531	99
Es	0.132504	-1.229951	-1.191692	99
Es	-2.028884	-0.238800	-0.205425	99
Es	-2.029456	-0.972026	0.755021	99
Es	1.102473	0.886125	-0.227968	99
Es	2.365508	1.247085	-0.534508	99
Es	2.558334	1.614776	-0.840434	99
Es	0.048563	-0.824339	0.007367	99
Es	-1.021301	-0.322086	0.472675	99
Es	0.494387	-0.953943	-0.624621	99
Es	-2.026673	0.234625	0.898203	99
37
Properties=species:S:1:pos:R:3:Z:I:1 energy=-268.91188652425717 field_type=dipole dipole="0.000000 0.000000 0.000000" charge=0
C	-1.769588	-0.324592	0.479869	6
C	-0.278958	-0.324072	0.502169	6
C	0.494422	-0.954132	-0.624701	6
C	0.494132	0.547978	-0.460691	6
C	1.730462	1.235008	-0.023611	6
O	2.558732	1.614978	-0.840561	8
H	-2.154688	0.491888	1.098609	1
H	-2.151608	-1.267642	0.883019	1
H	-2.167188	-0.201202	-0.532901	1
H	0.104502	-0.459272	1.507619	1
H	-0.048058	-1.366262	-1.468521	1
H	1.401172	-1.498102	-0.382411	1
H	-0.071458	1.110568	-1.197361	1
H	1.858122	1.394858	1.059469	1
Es	-2.028934	-0.238792	-0.205193	99
Es	0.494119	0.547817	-0.460615	99
Es	0.048627	-0.824500	0.007461	99
Es	1.087859	-1.299878	-0.460496	99
Es	-2.026604	0.234524	0.897987	99
Es	0.494388	-0.953943	-0.624623	99
Es	-1.021126	-0.321897	0.472195	99
Es	2.625512	1.633117	-1.149755	99
Es	-0.278876	-0.324049	0.502025	99
Es	-1.769562	-0.324591	0.479868	99
Es	2.663920	1.677759	-0.676827	99
Es	0.639379	-0.148967	-0.694979	99
Es	2.558330	1.614773	-0.840441	99
Es	1.810943	1.336832	0.722668	99
Es	2.367273	1.247313	-0.534627	99
Es	0.132826	-1.230234	-1.191708	99
Es	0.052883	0.278324	0.117924	99
Es	0.127070	0.914602	-0.932437	99
Es	-0.003635	-0.408284	1.177145	99
Es	-2.029527	-0.972107	0.755195	99
Es	1.102382	0.886423	-0.228280	99
Es	2.135542	1.702810	-0.560643	99
Es	1.730443	1.234996	-0.023608	99
37
Properties=species:S:1:pos:R:3:Z:I:1 energy=-268.91188652425717 field_type=dipole dipole="0.000000 0.000000 0.000000" charge=0
C	-1.769588	-0.324592	0.479869	6
C	-0.278958	-0.324072	0.502169	6
C	0.494422	-0.954132	-0.624701	6
C	0.494132	0.547978	-0.460691	6
C	1.730462	1.235008	-0.023611	6
O	2.558732	1.614978	-0.840561	8
H	-2.154688	0.491888	1.098609	1
H	-2.151608	-1.267642	0.883019	1
H	-2.167188	-0.201202	-0.532901	1
H	0.104502	-0.459272	1.507619	1
H	-0.048058	-1.366262	-1.468521	1
H	1.401172	-1.498102	-0.382411	1
H	-0.071458	1.110568	-1.197361	1
H	1.858122	1.394858	1.059469	1
Es	0.051924	-0.822421	0.005689	99
Es	-0.278875	-0.324049	0.502024	99
Es	2.167043	1.715434	-0.522086	99
Es	0.494388	-0.953943	-0.624622	99
Es	-1.769560	-0.324590	0.479869	99
Es	0.049681	0.277487	0.119403	99
Es	2.428295	1.551351	-0.900403	99
Es	1.102491	0.883024	-0.226511	99
Es	2.801165	1.736110	-0.982784	99
Es	-2.028021	-0.238878	-0.215197	99
Es	0.132605	-1.232173	-1.196561	99
Es	-0.004977	-0.407545	1.184766	99
Es	2.558537	1.614982	-0.839275	99
Es	-2.025920	0.234262	0.901759	99
Es	0.125499	0.918706	-0.937127	99
Es	1.810753	1.337017	0.723590	99
Es	0.494110	0.547807	-0.460609	99
Es	1.084588	-1.296364	-0.461231	99
Es	-1.021873	-0.322190	0.473784	99
Es	0.641129	-0.154422	-0.690481	99
Es	2.395351	1.257181	-0.517835	99
Es	1.730444	1.234994	-0.023607	99
Es	-2.025543	-0.969731	0.755681	99
37
Properties=species:S:1:pos:R:3:Z:I:1 energy=-268.91188652425717 field_type=dipole dipole="0.000000 0.000000 0.000000" charge=0
C	-1.769588	-0.324592	0.479869	6
C	-0.278958	-0.324072	0.502169	6
C	0.494422	-0.954132	-0.624701	6
C	0.494132	0.547978	-0.460691	6
C	1.730462	1.235008	-0.023611	6
O	2.558732	1.614978	-0.840561	8
H	-2.154688	0.491888	1.098609	1
H	-2.151608	-1.267642	0.883019	1
H	-2.167188	-0.201202	-0.532901	1
H	0.104502	-0.459272	1.507619	1
H	-0.048058	-1.366262	-1.468521	1
H	1.401172	-1.498102	-0.382411	1
H	-0.071458	1.110568	-1.197361	1
H	1.858122	1.394858	1.059469	1
Es	0.494388	-0.953939	-0.624619	99
Es	1.730446	1.234994	-0.023607	99
Es	1.810984	1.336843	0.722671	99
Es	0.048696	-0.824290	0.007707	99
Es	-0.278869	-0.324034	0.502022	99
Es	-1.021536	-0.322108	0.473181	99
Es	2.365979	1.247261	-0.535098	99
Es	-2.026538	0.234484	0.898130	99
Es	2.136334	1.703301	-0.560657	99
Es	2.658983	1.674395	-0.678354	99
Es	-0.003326	-0.408317	1.176891	99
Es	-1.769562	-0.324591	0.479868	99
Es	0.052714	0.278552	0.117766	99
Es	0.494118	0.547814	-0.460615	99
Es	0.127333	0.914221	-0.932176	99
Es	0.639836	-0.149429	-0.694969	99
Es	1.102413	0.886561	-0.228435	99
Es	1.086955	-1.299334	-0.460566	99
Es	0.132930	-1.230508	-1.191987	99
Es	-2.029514	-0.972077	0.755126	99
Es	-2.028763	-0.238622	-0.205853	99
Es	2.558223	1.614713	-0.840478	99
Es	2.631007	1.636159	-1.147714	99
37
Properties=species:S:1:pos:R:3:Z:I:1 energy=-268.91188652425717 field_type=dipole dipole="0.000000 0.000000 0.000000" charge=0
C	-1.769588	-0.324592	0.479869	6
C	-0.278958	-0.324072	0.502169	6
C	0.494422	-0.954132	-0.624701	6
C	0.494132	0.547978	-0.460691	6
C	1.730462	1.235008	-0.023611	6
O	2.558732	1.614978	-0.840561	8
H	-2.154688	0.491888	1.098609	1
H	-2.151608	-1.267642	0.883019	1
H	-2.167188	-0.201202	-0.532901	1
H	0.104502	-0.459272	1.507619	1
H	-0.048058	-1.366262	-1.468521	1
H	1.401172	-1.498102	-0.382411	1
H	-0.071458	1.110568	-1.197361	1
H	1.858122	1.394858	1.059469	1
Es	2.558492	1.614960	-0.839324	99
Es	0.049949	0.277370	0.119225	99
Es	-2.025772	-0.969723	0.755905	99
Es	-1.022092	-0.322390	0.473698	99
Es	1.810679	1.337097	0.723604	99
Es	-2.028082	-0.238855	-0.215116	99
Es	-0.004896	-0.407448	1.184657	99
Es	0.494117	0.547812	-0.460615	99
Es	-1.769559	-0.324591	0.479867	99
Es	2.396480	1.258575	-0.517870	99
Es	2.428129	1.551068	-0.898753	99
Es	1.730445	1.234995	-0.023607	99
Es	2.799685	1.735298	-0.985695	99
Es	0.132934	-1.232273	-1.196510	99
Es	0.494389	-0.953943	-0.624622	99
Es	0.125619	0.918420	-0.936417	99
Es	-0.278873	-0.324042	0.502025	99
Es	1.102650	0.883230	-0.226905	99
Es	-2.025578	0.234386	0.901605	99
Es	0.641325	-0.154195	-0.690982	99
Es	1.083780	-1.295972	-0.461264	99
Es	0.051746	-0.822781	0.006064	99
Es	2.167666	1.715052	-0.520735	99
37
Properties=species:S:1:pos:R:3:Z:I:1 energy=-268.91188652425717 field_type=dipole dipole="0.000000 0.000000 0.000000" charge=0
C	-1.769588	-0.324592	0.479869	6
C	-0.278958	-0.324072	0.502169	6
C	0.494422	-0.954132	-0.624701	6
C	0.494132	0.547978	-0.460691	6
C	1.730462	1.235008	-0.023611	6
O	2.558732	1.614978	-0.840561	8
H	-2.154688	0.491888	1.098609	1
H	-2.151608	-1.267642	0.883019	1
H	-2.167188	-0.201202	-0.532901	1
H	0.104502	-0.459272	1.507619	1
H	-0.048058	-1.366262	-1.468521	1
H	1.401172	-1.498102	-0.382411	1
H	-0.071458	1.110568	-1.197361	1
H	1.858122	1.394858	1.059469	1
Es	1.730446	1.234994	-0.023607	99
Es	-1.021369	-0.322137	0.472821	99
Es	1.086224	-1.298746	-0.460603	99
Es	0.133180	-1.230877	-1.192136	99
Es	0.052651	0.278094	0.117598	99
Es	-1.769561	-0.324591	0.479869	99
Es	-0.003463	-0.408269	1.177317	99
Es	1.102460	0.886761	-0.228527	99
Es	0.127502	0.914032	-0.931655	99
Es	2.635095	1.638452	-1.146078	99
Es	-0.278874	-0.324046	0.502023	99
Es	0.048901	-0.824381	0.007930	99
Es	0.494119	0.547819	-0.460617	99