35
Properties=species:S:1:pos:R:3:Z:I:1 energy=-304.7519356424962 field_type=dipole dipole="0.000000 0.000000 0.000000" charge=0
C	-1.373682	-0.000998	0.966272	6
C	0.117058	-0.007938	0.668172	6
O	0.449808	-1.203828	-0.079618	8
C	1.039528	-0.652618	-1.190789	6
C	1.048218	0.663822	-1.176978	6
O	0.465888	1.198932	-0.054228	8
H	-1.652572	0.887362	1.541192	1
H	-1.665662	-0.899358	1.518692	1
H	-1.953142	0.014932	0.036412	1
H	0.689648	-0.021588	1.604012	1
H	1.408398	-1.339438	-1.930658	1
H	1.426508	1.360722	-1.902478	1
Es	-0.635278	-0.004432	0.816284	99
Es	1.287555	-1.113574	-1.687310	99
Es	1.302483	1.131628	-1.663820	99
Es	0.676909	-0.986036	-0.503359	99
Es	1.371559	0.002175	-1.068211	99
Es	0.194555	-1.321612	-0.178080	99
Es	0.668745	-1.339868	0.066480	99
Es	-1.756000	0.009808	0.333769	99
Es	-1.373653	-0.000996	0.966276	99
Es	1.039430	-0.652842	-1.190596	99
Es	0.765978	0.009528	-1.383415	99
Es	0.117154	-0.007936	0.667851	99
Es	0.330352	-0.740767	0.185735	99
Es	-1.551752	0.599634	1.360214	99
Es	-1.560676	-0.608727	1.345111	99
Es	0.212205	1.322696	-0.149178	99
Es	0.449869	-1.203459	-0.079719	99
Es	1.048126	0.664039	-1.176791	99
Es	0.512529	-0.017342	1.310499	99
Es	0.465962	1.198627	-0.054310	99
Es	0.686335	1.328239	0.093406	99
Es	0.340879	0.732039	0.202248	99
Es	0.689742	0.987340	-0.483262	99
35
Properties=species:S:1:pos:R:3:Z:I:1 energy=-304.7519356424962 field_type=dipole dipole="0.000000 0.000000 0.000000" charge=0
C	-1.373682	-0.000998	0.966272	6
C	0.117058	-0.007938	0.668172	6
O	0.449808	-1.203828	-0.079618	8
C	1.039528	-0.652618	-1.190789	6
C	1.048218	0.663822	-1.176978	6
O	0.465888	1.198932	-0.054228	8
H	-1.652572	0.887362	1.541192	1
H	-1.665662	-0.899358	1.518692	1
H	-1.953142	0.014932	0.036412	1
H	0.689648	-0.021588	1.604012	1
H	1.408398	-1.339438	-1.930658	1
H	1.426508	1.360722	-1.902478	1
Es	0.679186	1.340262	0.095084	99
Es	0.117160	-0.007937	0.667849	99
Es	0.449862	-1.203452	-0.079738	99
Es	0.216735	1.310519	-0.153525	99
Es	1.369182	0.002200	-1.068179	99
Es	-1.552039	0.602697	1.360000	99
Es	0.330561	-0.739633	0.189013	99
Es	1.302790	1.131812	-1.664811	99
Es	1.039433	-0.652845	-1.190595	99
Es	0.678061	-0.988544	-0.504717	99
Es	-1.560801	-0.611775	1.344711	99
Es	0.465993	1.198564	-0.054325	99
Es	0.340991	0.730851	0.204693	99
Es	0.767250	0.009492	-1.381062	99
Es	-1.373649	-0.000997	0.966272	99
Es	0.511735	-0.017328	1.310202	99
Es	-1.752727	0.009696	0.335501	99
Es	1.287846	-1.113754	-1.688335	99
Es	0.662338	-1.350147	0.066468	99
Es	0.692427	0.989709	-0.483242	99
Es	0.199777	-1.310936	-0.180203	99
Es	-0.637222	-0.004339	0.815539	99
Es	1.048119	0.664046	-1.176779	99
35
Properties=species:S:1:pos:R:3:Z:I:1 energy=-304.7519356424962 field_type=dipole dipole="0.000000 0.000000 0.000000" charge=0
C	-1.373682	-0.000998	0.966272	6
C	0.117058	-0.007938	0.668172	6
O	0.449808	-1.203828	-0.079618	8
C	1.039528	-0.652618	-1.190789	6
C	1.048218	0.663822	-1.176978	6
O	0.465888	1.198932	-0.054228	8
H	-1.652572	0.887362	1.541192	1
H	-1.665662	-0.899358	1.518692	1
H	-1.953142	0.014932	0.036412	1
H	0.689648	-0.021588	1.604012	1
H	1.408398	-1.339438	-1.930658	1
H	1.426508	1.360722	-1.902478	1
Es	0.767684	0.009504	-1.379984	99
Es	0.450015	-1.203438	-0.079676	99
Es	0.639788	-1.386304	0.073169	99
Es	1.039427	-0.652848	-1.190594	99
Es	1.288092	-1.113849	-1.688758	99
Es	0.332952	-0.738982	0.191260	99
Es	1.048119	0.664048	-1.176782	99
Es	1.367869	0.002202	-1.067993	99
Es	-1.373652	-0.000998	0.966273	99
Es	0.227751	1.280664	-0.163881	99
Es	-1.561078	-0.613662	1.344177	99
Es	0.663329	1.369790	0.101493	99
Es	0.341287	0.730236	0.206326	99
Es	0.686209	-0.990683	-0.500779	99
Es	0.465954	1.198565	-0.054334	99
Es	1.303276	1.131859	-1.665074	99
Es	-0.638687	-0.004393	0.815116	99
Es	0.697102	0.991265	-0.481107	99
Es	-1.750344	0.009596	0.337286	99
Es	0.511234	-0.017312	1.309754	99
Es	0.117153	-0.007935	0.667852	99
Es	-1.552277	0.604719	1.359471	99
Es	0.211806	-1.273884	-0.193394	99
35
Properties=species:S:1:pos:R:3:Z:I:1 energy=-304.7519356424962 field_type=dipole dipole="0.000000 0.000000 0.000000" charge=0
C	-1.373682	-0.000998	0.966272	6
C	0.117058	-0.007938	0.668172	6
O	0.449808	-1.203828	-0.079618	8
C	1.039528	-0.652618	-1.190789	6
C	1.048218	0.663822	-1.176978	6
O	0.465888	1.198932	-0.054228	8
H	-1.652572	0.887362	1.541192	1
H	-1.665662	-0.899358	1.518692	1
H	-1.953142	0.014932	0.036412	1
H	0.689648	-0.021588	1.604012	1
H	1.408398	-1.339438	-1.930658	1
H	1.426508	1.360722	-1.902478	1
Es	0.670071	0.993087	-0.493941	99
Es	0.327062	-0.738655	0.188954	99
Es	1.286670	-1.113794	-1.689613	99
Es	0.332850	0.729689	0.203164	99
Es	1.367836	0.002209	-1.067747	99
Es	0.202783	-1.365190	-0.151731	99
Es	1.303282	1.132010	-1.665371	99
Es	-1.560058	-0.614935	1.344396	99
Es	1.039430	-0.652847	-1.190592	99
Es	0.117155	-0.007935	0.667847	99
Es	0.768126	0.009421	-1.378914	99
Es	1.048113	0.664046	-1.176784	99
Es	0.689958	1.247611	0.049889	99
Es	0.674808	-1.296124	0.043700	99
Es	0.666004	-0.990402	-0.510848	99
Es	0.465815	1.198527	-0.054446	99
Es	-1.749290	0.009760	0.336351	99
Es	0.449826	-1.203455	-0.079750	99
Es	0.237081	1.402018	-0.096321	99
Es	-1.550842	0.605857	1.359568	99
Es	-1.373653	-0.000998	0.966274	99
Es	-0.640749	-0.004383	0.815091	99
Es	0.510732	-0.017357	1.310645	99
35
Properties=species:S:1:pos:R:3:Z:I:1 energy=-304.7519356424962 field_type=dipole dipole="0.000000 0.000000 0.000000" charge=0
C	-1.373682	-0.000998	0.966272	6
C	0.117058	-0.007938	0.668172	6
O	0.449808	-1.203828	-0.079618	8
C	1.039528	-0.652618	-1.190789	6
C	1.048218	0.663822	-1.176978	6
O	0.465888	1.198932	-0.054228	8
H	-1.652572	0.887362	1.541192	1
H	-1.665662	-0.899358	1.518692	1
H	-1.953142	0.014932	0.036412	1
H	0.689648	-0.021588	1.604012	1
H	1.408398	-1.339438	-1.930658	1
H	1.426508	1.360722	-1.902478	1
Es	0.644339	-0.993256	-0.519265	99
Es	1.368794	0.002254	-1.067374	99
Es	0.676291	0.991472	-0.489207	99
Es	0.449774	-1.203445	-0.079797	99
Es	1.288335	-1.114085	-1.688565	99
Es	0.648121	-1.206829	-0.014972	99
Es	0.220110	1.373406	-0.118369	99
Es	0.259161	-1.452050	-0.083421	99
Es	0.465860	1.198533	-0.054412	99
Es	-1.559334	-0.614310	1.344311	99
Es	1.039429	-0.652848	-1.190593	99
Es	0.117154	-0.007934	0.667850	99
Es	0.767406	0.009538	-1.379571	99
Es	0.319917	-0.738120	0.187607	99
Es	-1.373648	-0.000998	0.966273	99
Es	-1.749843	0.009309	0.335553	99
Es	0.510802	-0.017269	1.311016	99
Es	-0.640776	-0.004455	0.815080	99
Es	1.301010	1.131779	-1.665766	99
Es	-1.551010	0.605761	1.360130	99
Es	0.339385	0.729485	0.204181	99
Es	1.048116	0.664048	-1.176781	99
Es	0.693613	1.278178	0.065911	99
35
Properties=species:S:1:pos:R:3:Z:I:1 energy=-304.7519356424962 field_type=dipole dipole="0.000000 0.000000 0.000000" charge=0
C	-1.373682	-0.000998	0.966272	6
C	0.117058	-0.007938	0.668172	6
O	0.449808	-1.203828	-0.079618	8
C	1.039528	-0.652618	-1.190789	6
C	1.048218	0.663822	-1.176978	6
O	0.465888	1.198932	-0.054228	8
H	-1.652572	0.887362	1.541192	1
H	-1.665662	-0.899358	1.518692	1
H	-1.953142	0.014932	0.036412	1
H	0.689648	-0.021588	1.604012	1
H	1.408398	-1.339438	-1.930658	1
H	1.426508	1.360722	-1.902478	1
Es	0.465851	1.198555	-0.054410	99
Es	0.214327	1.356073	-0.130305	99
Es	0.449809	-1.203093	-0.080192	99
Es	0.341225	0.729187	0.203273	99
Es	0.289695	-1.472847	-0.060226	99
Es	1.048112	0.664048	-1.176784	99
Es	0.641780	-0.994878	-0.520699	99
Es	1.288771	-1.114289	-1.688292	99
Es	0.767006	0.009547	-1.379833	99
Es	0.621408	-1.185309	-0.036754	99
Es	-1.551351	0.605951	1.360250	99
Es	-0.640928	-0.004458	0.815268	99
Es	0.692738	1.295949	0.075670	99
Es	1.300572	1.131651	-1.665618	99
Es	-1.749618	0.009114	0.335649	99
Es	1.039429	-0.652849	-1.190592	99
Es	0.318910	-0.737531	0.187718	99
Es	-1.559179	-0.614316	1.344038	99
Es	0.510911	-0.017198	1.310845	99
Es	0.680939	0.991463	-0.486180	99
Es	-1.373651	-0.000998	0.966274	99
Es	0.117154	-0.007935	0.667850	99
Es	1.369100	0.002324	-1.067129	99
35
Properties=species:S:1:pos:R:3:Z:I:1 energy=-304.7519356424962 field_type=dipole dipole="0.000000 0.000000 0.000000" charge=0
C	-1.373682	-0.000998	0.966272	6
C	0.117058	-0.007938	0.668172	6
O	0.449808	-1.203828	-0.079618	8
C	1.039528	-0.652618	-1.190789	6
C	1.048218	0.663822	-1.176978	6
O	0.465888	1.198932	-0.054228	8
H	-1.652572	0.887362	1.541192	1
H	-1.665662	-0.899358	1.518692	1
H	-1.953142	0.014932	0.036412	1
H	0.689648	-0.021588	1.604012	1
H	1.408398	-1.339438	-1.930658	1
H	1.426508	1.360722	-1.902478	1
Es	0.593831	-1.171252	-0.055242	99
Es	0.318197	-0.737204	0.188065	99
Es	0.511018	-0.017187	1.310627	99
Es	-1.559330	-0.614018	1.343816	99
Es	1.039436	-0.652846	-1.190591	99
Es	0.449417	-1.202549	-0.080782	99
Es	1.300615	1.131528	-1.665249	99
Es	0.640703	-0.995249	-0.520443	99
Es	-1.749820	0.008941	0.336085	99
Es	1.288975	-1.114388	-1.688097	99
Es	1.369360	0.002368	-1.066883	99
Es	0.342841	0.729422	0.202880	99
Es	0.465945	1.198555	-0.054342	99
Es	-1.373653	-0.000998	0.966275	99
Es	0.683384	0.990898	-0.483723	99
Es	0.766524	0.009545	-1.380276	99
Es	0.319558	-1.487374	-0.042031	99
Es	1.048119	0.664050	-1.176778	99
Es	0.117155	-0.007935	0.667849	99
Es	0.691654	1.311401	0.082825	99
Es	-0.640420	-0.004563	0.815117	99
Es	-1.551729	0.605942	1.360342	99
Es	0.211229	1.341075	-0.139625	99
35
Properties=species:S:1:pos:R:3:Z:I:1 energy=-304.7519356424962 field_type=dipole dipole="0.000000 0.000000 0.000000" charge=0
C	-1.373682	-0.000998	0.966272	6
C	0.117058	-0.007938	0.668172	6
O	0.449808	-1.203828	-0.079618	8
C	1.039528	-0.652618	-1.190789	6
C	1.048218	0.663822	-1.176978	6
O	0.465888	1.198932	-0.054228	8
H	-1.652572	0.887362	1.541192	1
H	-1.665662	-0.899358	1.518692	1
H	-1.953142	0.014932	0.036412	1
H	0.689648	-0.021588	1.604012	1
H	1.408398	-1.339438	-1.930658	1
H	1.426508	1.360722	-1.902478	1
Es	-1.561759	-0.615115	1.343369	99
Es	1.039427	-0.652846	-1.190595	99
Es	0.274874	1.210947	-0.175555	99
Es	1.048118	0.664049	-1.176780	99
Es	0.600201	1.438875	0.101519	99
Es	1.368291	0.002186	-1.067031	99
Es	0.259653	-1.209990	-0.203462	99
Es	-0.639443	-0.004363	0.814792	99
Es	1.288483	-1.113992	-1.688035	99
Es	0.450198	-1.203394	-0.079652	99
Es	0.510901	-0.017332	1.309041	99
Es	0.335386	-0.737382	0.192366	99
Es	0.466020	1.198575	-0.054294	99
Es	0.347134	0.728333	0.208347	99
Es	0.696828	-0.993475	-0.490612	99
Es	1.303472	1.132057	-1.664445	99
Es	-1.373654	-0.000998	0.966274	99
Es	0.579045	-1.449748	0.071205	99
Es	-1.552885	0.606179	1.358705	99
Es	0.707681	0.994440	-0.472252	99
Es	0.766094	0.009510	-1.380484	99
Es	-1.748210	0.009582	0.339550	99
Es	0.117154	-0.007934	0.667847	99
35
Properties=species:S:1:pos:R:3:Z:I:1 energy=-304.7519356424962 field_type=dipole dipole="0.000000 0.000000 0.000000" charge=0
C	-1.373682	-0.000998	0.966272	6
C	0.117058	-0.007938	0.668172	6
O	0.449808	-1.203828	-0.079618	8
C	1.039528	-0.652618	-1.190789	6
C	1.048218	0.663822	-1.176978	6
O	0.465888	1.198932	-0.054228	8
H	-1.652572	0.887362	1.541192	1
H	-1.665662	-0.899358	1.518692	1
H	-1.953142	0.014932	0.036412	1
H	0.689648	-0.021588	1.604012	1
H	1.408398	-1.339438	-1.930658	1
H	1.426508	1.360722	-1.902478	1
Es	0.336525	0.728991	0.200999	99
Es	0.299033	-1.479459	-0.054446	99
Es	1.048111	0.664045	-1.176786	99
Es	0.697401	1.261068	0.057754	99
Es	0.117164	-0.007935	0.667848	99
Es	-1.373652	-0.000996	0.966276	99
Es	0.638838	-0.994622	-0.519232	99
Es	1.287562	-1.114418	-1.688748	99
Es	0.510832	-0.017231	1.311030	99
Es	-1.749309	0.009232	0.335381	99
Es	-0.641898	-0.004485	0.815295	99
Es	0.226038	1.391122	-0.107379	99
Es	1.039436	-0.652842	-1.190598	99
Es	1.369622	0.002328	-1.066653	99
Es	0.449408	-1.203179	-0.080223	99
Es	-1.558613	-0.614825	1.343899	99
Es	0.669493	0.991799	-0.489077	99
Es	-1.550742	0.606346	1.360524	99
Es	0.611407	-1.180016	-0.046341	99
Es	0.322747	-0.736550	0.189541	99
Es	1.301186	1.131680	-1.664968	99
Es	0.766555	0.009538	-1.379870	99
Es	0.465867	1.198569	-0.054404	99
35
Properties=species:S:1:pos:R:3:Z:I:1 energy=-304.7519356424962 field_type=dipole dipole="0.000000 0.000000 0.000000" charge=0
C	-1.373682	-0.000998	0.966272	6
C	0.117058	-0.007938	0.668172	6
O	0.449808	-1.203828	-0.079618	8
C	1.039528	-0.652618	-1.190789	6
C	1.048218	0.663822	-1.176978	6
O	0.465888	1.198932	-0.054228	8
H	-1.652572	0.887362	1.541192	1
H	-1.665662	-0.899358	1.518692	1
H	-1.953142	0.014932	0.036412	1
H	0.689648	-0.021588	1.604012	1
H	1.408398	-1.339438	-1.930658	1
H	1.426508	1.360722	-1.902478	1
Es	0.589055	1.447572	0.099263	99
Es	0.285881	1.202662	-0.174957	99
Es	0.346130	0.727863	0.208063	99
Es	0.510832	-0.017304	1.308892	99
Es	-1.561955	-0.615440	1.343351	99
Es	1.288564	-1.114052	-1.687781	99
Es	0.117159	-0.007935	0.667850	99
Es	0.336881	-0.736918	0.191941	99
Es	0.582165	-1.449010	0.071397	99
Es	0.449955	-1.203465	-0.079669	99
Es	-1.373653	-0.000998	0.966275	99
Es	-1.747755	0.009585	0.340078	99
Es	0.466267	1.198491	-0.054252	99
Es	1.039428	-0.652847	-1.190595	99
Es	1.048119	0.664050	-1.176777	99
Es	0.708559	0.994656	-0.470574	99
Es	0.693788	-0.993612	-0.492167	99
Es	-1.552924	0.606480	1.358358	99
Es	1.303492	1.132156	-1.664402	99
Es	0.765814	0.009505	-1.380555	99
Es	-0.639630	-0.004374	0.814700	99
Es	0.258416	-1.211101	-0.201813	99
Es	1.368419	0.002197	-1.066806	99
35
Properties=species:S:1:pos:R:3:Z:I:1 energy=-304.7519356424962 field_type=dipole dipole="0.000000 0.000000 0.000000" charge=0
C	-1.373682	-0.000998	0.966272	6
C	0.117058	-0.007938	0.668172	6
O	0.449808	-1.203828	-0.079618	8
C	1.039528	-0.652618	-1.190789	6
C	1.048218	0.663822	-1.176978	6
O	0.465888	1.198932	-0.054228	8
H	-1.652572	0.887362	1.541192	1
H	-1.665662	-0.899358	1.518692	1
H	-1.953142	0.014932	0.036412	1
H	0.689648	-0.021588	1.604012	1
H	1.408398	-1.339438	-1.930658	1
H	1.426508	1.360722	-1.902478	1
Es	0.450166	-1.203375	-0.079658	99
Es	0.707076	0.994659	-0.470347	99
Es	-0.639827	-0.004406	0.814801	99
Es	-1.561763	-0.615463	1.343078	99
Es	1.288642	-1.114181	-1.687883	99
Es	1.048120	0.664048	-1.176779	99
Es	0.600638	1.439970	0.101426	99
Es	0.117151	-0.007935	0.667846	99
Es	1.368452	0.002190	-1.066753	99
Es	1.039427	-0.652847	-1.190595	99
Es	0.274868	1.210676	-0.176685	99
Es	0.696806	-0.993710	-0.489840	99
Es	0.347079	0.727607	0.207468	99
Es	0.510824	-0.017277	1.308843	99
Es	0.564547	-1.460711	0.067056	99
Es	0.765757	0.009531	-1.380537	99
Es	-1.373654	-0.000998	0.966274	99
Es	-1.747589	0.009459	0.340088	99
Es	1.303328	1.132025	-1.664302	99
Es	0.272714	-1.199039	-0.201220	99
Es	0.466236	1.198469	-0.054258	99
Es	-1.553089	0.606684	1.358551	99
Es	0.337095	-0.737218	0.193245	99
35
Properties=species:S:1:pos:R:3:Z:I:1 energy=-304.7519356424962 field_type=dipole dipole="0.000000 0.000000 0.000000" charge=0
C	-1.373682	-0.000998	0.966272	6
C	0.117058	-0.007938	0.668172	6
O	0.449808	-1.203828	-0.079618	8
C	1.039528	-0.652618	-1.190789	6
C	1.048218	0.663822	-1.176978	6
O	0.465888	1.198932	-0.054228	8
H	-1.652572	0.887362	1.541192	1
H	-1.665662	-0.899358	1.518692	1
H	-1.953142	0.014932	0.036412	1
H	0.689648	-0.021588	1.604012	1
H	1.408398	-1.339438	-1.930658	1
H	1.426508	1.360722	-1.902478	1
Es	-1.551519	0.604763	1.358462	99
Es	0.684271	-0.991051	-0.492204	99
Es	1.039425	-0.652845	-1.190597	99
Es	0.449990	-1.203443	-0.079683	99
Es	0.481460	1.493805	0.060361	99
Es	0.764747	0.009420	-1.381279	99
Es	0.337543	-0.737138	0.186441	99
Es	-0.639474	-0.003969	0.815022	99
Es	0.511178	-0.017419	1.309891	99
Es	1.370309	0.002021	-1.066328	99
Es	1.287229	-1.113444	-1.687084	99
Es	1.048121	0.664046	-1.176783	99
Es	0.445805	1.175178	-0.088185	99
Es	0.204467	-1.272206	-0.200281	99
Es	-1.561528	-0.614945	1.344867	99
Es	1.303243	1.132776	-1.664372	99
Es	-1.749554	0.010325	0.337398	99
Es	-1.373653	-0.000999	0.966274	99
Es	0.694335	0.997357	-0.483555	99
Es	0.435208	1.178832	-0.089944	99
Es	0.117154	-0.007935	0.667848	99
Es	0.644619	-1.390506	0.075596	99
Es	0.339630	0.725537	0.207952	99
35
Properties=species:S:1:pos:R:3:Z:I:1 energy=-304.7519356424962 field_type=dipole dipole="0.000000 0.000000 0.000000" charge=0
C	-1.373682	-0.000998	0.966272	6
C	0.117058	-0.007938	0.668172	6
O	0.449808	-1.203828	-0.079618	8
C	1.039528	-0.652618	-1.190789	6
C	1.048218	0.663822	-1.176978	6
O	0.465888	1.198932	-0.054228	8
H	-1.652572	0.887362	1.541192	1
H	-1.665662	-0.899358	1.518692	1
H	-1.953142	0.014932	0.036412	1
H	0.689648	-0.021588	1.604012	1
H	1.408398	-1.339438	-1.930658	1
H	1.426508	1.360722	-1.902478	1
Es	0.270865	1.212413	-0.179537	99
Es	0.449914	-1.203486	-0.079710	99
Es	0.347523	0.727541	0.207015	99
Es	0.551284	-1.468243	0.064040	99
Es	-0.639988	-0.004497	0.814698	99
Es	0.765494	0.009546	-1.380535	99
Es	-1.373653	-0.000998	0.966274	99
Es	0.117154	-0.007935	0.667849	99
Es	-1.561654	-0.615426	1.343035	99
Es	1.288497	-1.114253	-1.687902	99
Es	0.466065	1.198553	-0.054325	99
Es	1.039429	-0.652847	-1.190596	99
Es	-1.552936	0.606766	1.358702	99
Es	0.285411	-1.191065	-0.198631	99
Es	0.337045	-0.736000	0.192822	99
Es	0.602799	1.438352	0.102237	99
Es	0.697755	-0.995249	-0.489126	99
Es	0.510811	-0.017274	1.309028	99
Es	0.708674	0.994568	-0.467826	99
Es	-1.747637	0.009448	0.339894	99
Es	1.368782	0.002197	-1.066664	99
Es	1.048119	0.664049	-1.176781	99
Es	1.303257	1.132001	-1.664142	99
35
Properties=species:S:1:pos:R:3:Z:I:1 energy=-304.7519356424962 field_type=dipole dipole="0.000000 0.000000 0.000000" charge=0
C	-1.373682	-0.000998	0.966272	6
C	0.117058	-0.007938	0.668172	6
O	0.449808	-1.203828	-0.079618	8
C	1.039528	-0.652618	-1.190789	6
C	1.048218	0.663822	-1.176978	6
O	0.465888	1.198932	-0.054228	8
H	-1.652572	0.887362	1.541192	1
H	-1.665662	-0.899358	1.518692	1
H	-1.953142	0.014932	0.036412	1
H	0.689648	-0.021588	1.604012	1
H	1.408398	-1.339438	-1.930658	1
H	1.426508	1.360722	-1.902478	1
Es	1.288383	-1.114151	-1.687718	99
Es	0.765352	0.009514	-1.380657	99
Es	0.510876	-0.017302	1.309014	99
Es	0.697531	-0.994455	-0.487678	99
Es	0.450037	-1.203431	-0.079718	99
Es	0.117154	-0.007935	0.667844	99
Es	-1.561760	-0.615548	1.343115	99
Es	0.274137	-1.197621	-0.202383	99
Es	-1.747733	0.009667	0.339856	99
Es	0.587910	1.449258	0.098922	99
Es	1.048122	0.664046	-1.176780	99
Es	1.303324	1.132132	-1.664175	99
Es	1.039426	-0.652847	-1.190595	99
Es	-1.373654	-0.000998	0.966274	99
Es	0.347520	0.727591	0.207796	99
Es	0.562663	-1.462338	0.067078	99
Es	1.368911	0.002183	-1.066601	99
Es	0.709658	0.994727	-0.467633	99
Es	0.465853	1.198596	-0.054456	99
Es	0.336973	-0.736260	0.192156	99
Es	-0.639875	-0.004357	0.814740	99
Es	0.285066	1.201193	-0.177246	99
Es	-1.552867	0.606499	1.358661	99
35
Properties=species:S:1:pos:R:3:Z:I:1 energy=-304.7519356424962 field_type=dipole dipole="0.000000 0.000000 0.000000" charge=0
C	-1.373682	-0.000998	0.966272	6
C	0.117058	-0.007938	0.668172	6
O	0.449808	-1.203828	-0.079618	8
C	1.039528	-0.652618	-1.190789	6
C	1.048218	0.663822	-1.176978	6
O	0.465888	1.198932	-0.054228	8
H	-1.652572	0.887362	1.541192	1
H	-1.665662	-0.899358	1.518692	1
H	-1.953142	0.014932	0.036412	1
H	0.689648	-0.021588	1.604012	1
H	1.408398	-1.339438	-1.930658	1
H	1.426508	1.360722	-1.902478	1
Es	1.301480	1.131581	-1.664376	99
Es	0.326235	-0.734823	0.190914	99
Es	1.287256	-1.114808	-1.688822	99
Es	0.326307	-1.492156	-0.039473	99
Es	1.039428	-0.652845	-1.190597	99
Es	0.765861	0.009573	-1.380050	99
Es	0.466004	1.198545	-0.054359	99
Es	1.048121	0.664047	-1.176780	99
Es	0.117153	-0.007935	0.667848	99
Es	-1.558306	-0.615223	1.343471	99
Es	-1.550800	0.607154	1.360535	99
Es	-0.642600	-0.004547	0.815008	99
Es	0.670613	0.991973	-0.486741	99
Es	0.449895	-1.203432	-0.079725	99
Es	0.578241	-1.168073	-0.066067	99
Es	0.641009	-0.995330	-0.516995	99
Es	0.510649	-0.017205	1.311055	99
Es	-1.373654	-0.000998	0.966274	99
Es	-1.748608	0.008948	0.335955	99
Es	0.336452	0.728476	0.199216	99
Es	1.369798	0.002361	-1.066158	99
Es	0.699582	1.266729	0.062172	99
Es	0.222892	1.386151	-0.112487	99
35
Properties=species:S:1:pos:R:3:Z:I:1 energy=-304.7519356424962 field_type=dipole dipole="0.000000 0.000000 0.000000" charge=0
C	-1.373682	-0.000998	0.966272	6
C	0.117058	-0.007938	0.668172	6
O	0.449808	-1.203828	-0.079618	8
C	1.039528	-0.652618	-1.190789	6
C	1.048218	0.663822	-1.176978	6
O	0.465888	1.198932	-0.054228	8
H	-1.652572	0.887362	1.541192	1
H	-1.665662	-0.899358	1.518692	1
H	-1.953142	0.014932	0.036412	1
H	0.689648	-0.021588	1.604012	1
H	1.408398	-1.339438	-1.930658	1
H	1.426508	1.360722	-1.902478	1
Es	0.592039	1.446914	0.099817	99
Es	0.281339	1.203920	-0.177133	99
Es	-1.373653	-0.000998	0.966274	99
Es	-0.640000	-0.004443	0.814514	99
Es	1.288496	-1.114205	-1.687673	99
Es	0.708062	0.995058	-0.468228	99
Es	0.279775	-1.194208	-0.201281	99
Es	0.336739	-0.736026	0.192076	99
Es	0.556483	-1.465872	0.065567	99
Es	0.510742	-0.017291	1.309010	99
Es	1.368942	0.002187	-1.066513	99
Es	0.765240	0.009522	-1.380568	99
Es	0.348327	0.727107	0.207169	99
Es	-1.552987	0.606892	1.358502	99
Es	1.039426	-0.652847	-1.190596	99
Es	1.048121	0.664047	-1.176781	99
Es	0.698069	-0.994849	-0.487288	99
Es	0.466261	1.198489	-0.054280	99
Es	-1.747422	0.009457	0.340267	99
Es	0.117154	-0.007934	0.667846	99
Es	-1.561739	-0.615632	1.343030	99
Es	0.450375	-1.203219	-0.079723	99
Es	1.303219	1.132093	-1.664191	99
35
Properties=species:S:1:pos:R:3:Z:I:1 energy=-304.7519356424962 field_type=dipole dipole="0.000000 0.000000 0.000000" charge=0
C	-1.373682	-0.000998	0.966272	6
C	0.117058	-0.007938	0.668172	6
O	0.449808	-1.203828	-0.079618	8
C	1.039528	-0.652618	-1.190789	6
C	1.048218	0.663822	-1.176978	6
O	0.465888	1.198932	-0.054228	8
H	-1.652572	0.887362	1.541192	1
H	-1.665662	-0.899358	1.518692	1
H	-1.953142	0.014932	0.036412	1
H	0.689648	-0.021588	1.604012	1
H	1.408398	-1.339438	-1.930658	1
H	1.426508	1.360722	-1.902478	1
Es	-1.747423	0.009682	0.340111	99
Es	0.298071	1.191626	-0.175323	99
Es	-1.552865	0.606646	1.358320	99
Es	0.337871	-0.736204	0.191879	99
Es	1.048128	0.664045	-1.176782	99
Es	1.288201	-1.113966	-1.687661	99
Es	0.573015	1.458807	0.095145	99
Es	0.117154	-0.007935	0.667848	99
Es	0.710697	0.995654	-0.466216	99
Es	1.039425	-0.652849	-1.190593	99
Es	1.368917	0.002179	-1.066380	99
Es	0.449938	-1.203448	-0.079697	99
Es	0.572284	-1.456820	0.069037	99
Es	0.510814	-0.017311	1.308984	99
Es	0.265497	-1.203550	-0.203567	99
Es	-0.640020	-0.004319	0.814688	99
Es	-1.373652	-0.000999	0.966273	99
Es	0.466262	1.198490	-0.054256	99
Es	0.765117	0.009495	-1.380767	99
Es	1.303640	1.132268	-1.664050	99
Es	0.348125	0.726774	0.207835	99
Es	0.695730	-0.994322	-0.488229	99
Es	-1.561915	-0.615781	1.343221	99
35
Properties=species:S:1:pos:R:3:Z:I:1 energy=-304.7519356424962 field_type=dipole dipole="0.000000 0.000000 0.000000" charge=0
C	-1.373682	-0.000998	0.966272	6
C	0.117058	-0.007938	0.668172	6
O	0.449808	-1.203828	-0.079618	8
C	1.039528	-0.652618	-1.190789	6
C	1.048218	0.663822	-1.176978	6
O	0.465888	1.198932	-0.054228	8
H	-1.652572	0.887362	1.541192	1
H	-1.665662	-0.899358	1.518692	1
H	-1.953142	0.014932	0.036412	1
H	0.689648	-0.021588	1.604012	1
H	1.408398	-1.339438	-1.930658	1
H	1.426508	1.360722	-1.902478	1
Es	0.289991	1.197406	-0.176551	99
Es	0.337377	-0.735982	0.191755	99
Es	0.117153	-0.007935	0.667846	99
Es	0.765204	0.009536	-1.380415	99
Es	1.369121	0.002185	-1.066560	99
Es	0.698592	-0.994861	-0.485774	99
Es	1.048120	0.664048	-1.176780	99
Es	-1.561846	-0.615763	1.343090	99
Es	0.709473	0.995401	-0.466890	99
Es	0.561219	-1.463326	0.066956	99
Es	0.510770	-0.017314	1.309033	99
Es	-0.640032	-0.004391	0.814712	99
Es	-1.373653	-0.000998	0.966274	99
Es	1.303158	1.132207	-1.664188	99
Es	-1.747378	0.009653	0.340048	99
Es	0.274046	-1.196700	-0.203982	99
Es	0.582250	1.453285	0.097458	99
Es	0.450131	-1.203404	-0.079655	99
Es	1.039424	-0.652846	-1.190596	99
Es	0.347986	0.726849	0.207489	99
Es	1.288404	-1.114136	-1.687686	99
Es	-1.552808	0.606763	1.358473	99
Es	0.466306	1.198486	-0.054239	99
35
Properties=species:S:1:pos:R:3:Z:I:1 energy=-304.7519356424962 field_type=dipole dipole="0.000000 0.000000 0.000000" charge=0
C	-1.373682	-0.000998	0.966272	6
C	0.117058	-0.007938	0.668172	6
O	0.449808	-1.203828	-0.079618	8
C	1.039528	-0.652618	-1.190789	6
C	1.048218	0.663822	-1.176978	6
O	0.465888	1.198932	-0.054228	8
H	-1.652572	0.887362	1.541192	1
H	-1.665662	-0.899358	1.518692	1
H	-1.953142	0.014932	0.036412	1
H	0.689648	-0.021588	1.604012	1
H	1.408398	-1.339438	-1.930658	1
H	1.426508	1.360722	-1.902478	1
Es	0.465892	1.198554	-0.054373	99
Es	0.579650	1.454942	0.096710	99
Es	0.711154	0.995240	-0.464970	99
Es	0.338792	-0.735762	0.192065	99
Es	0.562824	-1.463037	0.066566	99
Es	0.291916	1.195730	-0.177849	99
Es	0.273498	-1.197191	-0.202017	99
Es	0.765124	0.009511	-1.380573	99
Es	0.347512	0.726947	0.207721	99
Es	0.696044	-0.994887	-0.487655	99
Es	-1.747375	0.009547	0.340268	99
Es	1.369114	0.002181	-1.066439	99
Es	0.450180	-1.203367	-0.079678	99
Es	0.510846	-0.017330	1.308946	99
Es	-1.552914	0.606854	1.358423	99
Es	1.039425	-0.652848	-1.190596	99
Es	0.117155	-0.007936	0.667846	99
Es	-1.561726	-0.615798	1.343093	99
Es	-0.640180	-0.004344	0.814610	99
Es	1.303286	1.132216	-1.664093	99
Es	1.288325	-1.114116	-1.687683	99
Es	1.048119	0.664052	-1.176775	99
Es	-1.373653	-0.000998	0.966273	99
35
Properties=species:S:1:pos:R:3:Z:I:1 energy=-304.7519356424962 field_type=dipole dipole="0.000000 0.000000 0.000000" charge=0
C	-1.373682	-0.000998	0.966272	6
C	0.117058	-0.007938	0.668172	6
O	0.449808	-1.203828	-0.079618	8
C	1.039528	-0.652618	-1.190789	6
C	1.048218	0.663822	-1.176978	6
O	0.465888	1.198932	-0.054228	8
H	-1.652572	0.887362	1.541192	1
H	-1.665662	-0.899358	1.518692	1
H	-1.953142	0.014932	0.036412	1
H	0.689648	-0.021588	1.604012	1
H	1.408398	-1.339438	-1.930658	1
H	1.426508	1.360722	-1.902478	1
Es	0.696762	-0.994787	-0.486173	99
Es	0.270100	-1.199228	-0.204004	99
Es	1.369181	0.002174	-1.066345	99
Es	0.117153	-0.007935	0.667847	99
Es	-1.561885	-0.615863	1.343175	99
Es	1.303334	1.132218	-1.664073	99
Es	-1.747367	0.009703	0.340180	99
Es	1.288310	-1.114088	-1.687576	99
Es	0.510815	-0.017359	1.308980	99
Es	0.347854	0.726502	0.207645	99
Es	0.297411	1.192530	-0.175240	99
Es	0.710178	0.995959	-0.466495	99
Es	0.574657	1.457911	0.095536	99
Es	0.338297	-0.735699	0.191721	99
Es	-1.373655	-0.000998	0.966274	99
Es	-1.552859	0.606683	1.358333	99
Es	0.466086	1.198549	-0.054293	99
Es	0.764980	0.009511	-1.380690	99
Es	-0.640057	-0.004250	0.814658	99
Es	0.566067	-1.461155	0.067469	99
Es	0.450094	-1.203417	-0.079734	99
Es	1.048122	0.664048	-1.176779	99
Es	1.039428	-0.652846	-1.190595	99
35
Properties=species:S:1:pos:R:3:Z:I:1 energy=-304.7519356424962 field_type=dipole dipole="0.000000 0.000000 0.000000" charge=0
C	-1.373682	-0.000998	0.966272	6
C	0.117058	-0.007938	0.668172	6
O	0.449808	-1.203828	-0.079618	8
C	1.039528	-0.652618	-1.190789	6
C	1.048218	0.663822	-1.176978	6
O	0.465888	1.198932	-0.054228	8
H	-1.652572	0.887362	1.541192	1
H	-1.665662	-0.899358	1.518692	1
H	-1.953142	0.014932	0.036412	1
H	0.689648	-0.021588	1.604012	1
H	1.408398	-1.339438	-1.930658	1
H	1.426508	1.360722	-1.902478	1
Es	0.696344	-0.994788	-0.486951	99
Es	-1.747305	0.009682	0.340262	99
Es	0.572776	1.459044	0.095243	99
Es	0.711394	0.995624	-0.465187	99
Es	0.338701	-0.735816	0.191733	99
Es	-0.640325	-0.004411	0.814562	99
Es	1.048121	0.664049	-1.176777	99
Es	0.117153	-0.007935	0.667847	99
Es	0.510770	-0.017300	1.308971	99
Es	1.039426	-0.652848	-1.190594	99
Es	0.347434	0.726651	0.207487	99
Es	0.466155	1.198519	-0.054317	99
Es	1.369092	0.002160	-1.066278	99
Es	0.298412	1.191533	-0.176187	99
Es	1.288256	-1.114082	-1.687604	99
Es	0.449781	-1.203419	-0.079790	99
Es	-1.373653	-0.000998	0.966274	99
Es	0.268881	-1.200326	-0.203694	99
Es	1.303416	1.132347	-1.664058	99
Es	0.765025	0.009506	-1.380637	99
Es	-1.561868	-0.615929	1.343210	99
Es	0.567635	-1.460007	0.068001	99
Es	-1.552611	0.606908	1.358302	99
35
Properties=species:S:1:pos:R:3:Z:I:1 energy=-304.7519356424962 field_type=dipole dipole="0.000000 0.000000 0.000000" charge=0
C	-1.373682	-0.000998	0.966272	6
C	0.117058	-0.007938	0.668172	6
O	0.449808	-1.203828	-0.079618	8
C	1.039528	-0.652618	-1.190789	6
C	1.048218	0.663822	-1.176978	6
O	0.465888	1.198932	-0.054228	8
H	-1.652572	0.887362	1.541192	1
H	-1.665662	-0.899358	1.518692	1
H	-1.953142	0.014932	0.036412	1
H	0.689648	-0.021588	1.604012	1
H	1.408398	-1.339438	-1.930658	1
H	1.426508	1.360722	-1.902478	1
Es	0.349201	0.726706	0.207482	99
Es	-1.553124	0.606958	1.358293	99
Es	0.586906	1.451232	0.097784	99
Es	0.698926	-0.995396	-0.484807	99
Es	0.466445	1.198414	-0.054247	99
Es	1.288553	-1.114253	-1.687490	99
Es	1.369247	0.002185	-1.066316	99
Es	0.552216	-1.468898	0.064106	99
Es	0.283008	-1.191297	-0.202119	99
Es	1.303087	1.132120	-1.664054	99
Es	-0.640103	-0.004356	0.814765	99
Es	0.707323	0.995329	-0.467700	99
Es	0.337069	-0.735330	0.191746	99
Es	0.510813	-0.017291	1.308939	99
Es	-1.373653	-0.000998	0.966274	99
Es	1.048129	0.664044	-1.176777	99
Es	0.286162	1.199865	-0.176173	99
Es	1.039425	-0.652845	-1.190598	99
Es	0.764854	0.009538	-1.380709	99
Es	-1.747196	0.009387	0.340217	99
Es	0.117154	-0.007935	0.667848	99
Es	0.450305	-1.203295	-0.079746	99
Es	-1.561738	-0.615724	1.343101	99
35
Properties=species:S:1:pos:R:3:Z:I:1 energy=-304.7519356424962 field_type=dipole dipole="0.000000 0.000000 0.000000" charge=0
C	-1.373682	-0.000998	0.966272	6
C	0.117058	-0.007938	0.668172	6
O	0.449808	-1.203828	-0.079618	8
C	1.039528	-0.652618	-1.190789	6
C	1.048218	0.663822	-1.176978	6
O	0.465888	1.198932	-0.054228	8
H	-1.652572	0.887362	1.541192	1
H	-1.665662	-0.899358	1.518692	1
H	-1.953142	0.014932	0.036412	1
H	0.689648	-0.021588	1.604012	1
H	1.408398	-1.339438	-1.930658	1
H	1.426508	1.360722	-1.902478	1
Es	0.765015	0.009544	-1.380527	99
Es	-1.747006	0.009424	0.340354	99
Es	-1.561631	-0.615920	1.342905	99
Es	1.369057	0.002199	-1.066349	99
Es	0.279938	1.203994	-0.179986	99
Es	0.697274	-0.995492	-0.486313	99
Es	0.348327	0.726893	0.206677	99
Es	0.337614	-0.735190	0.192140	99
Es	0.592064	1.447011	0.100178	99
Es	1.048119	0.664047	-1.176782	99
Es	-1.553009	0.607178	1.358412	99
Es	-1.373653	-0.000998	0.966274	99
Es	1.303087	1.132078	-1.664079	99
Es	0.449930	-1.203443	-0.079681	99
Es	0.510729	-0.017283	1.308942	99
Es	0.117154	-0.007936	0.667848	99
Es	0.465791	1.198518	-0.054437	99
Es	-0.640403	-0.004412	0.814687	99
Es	0.709908	0.995210	-0.465162	99
Es	0.289180	-1.188130	-0.199087	99
Es	1.039428	-0.652847	-1.190595	99