37
Properties=species:S:1:pos:R:3:Z:I:1 energy=-268.8807872660419 field_type=dipole dipole="0.000000 0.000000 0.000000" charge=0
C	-2.686553	-0.653159	-0.557703	6
C	-1.494143	-0.573689	0.035267	6
O	-0.667393	0.503471	-0.150414	8
C	0.560037	0.385781	0.596357	6
C	1.706437	-0.298589	-0.097733	6
C	1.709076	1.193971	0.057186	6
H	-3.329073	-1.512869	-0.406294	1
H	-3.037643	0.142101	-1.206743	1
H	-1.111213	-1.348839	0.684757	1
H	0.493967	0.312801	1.678476	1
H	1.533057	-0.705139	-1.087233	1
H	2.391916	-0.876129	0.509916	1
H	2.397237	1.632161	0.769646	1
H	1.534297	1.798131	-0.825483	1
Es	2.170785	-0.686355	0.319116	99
Es	-1.493876	-0.573494	0.035301	99
Es	1.709002	1.193797	0.057226	99
Es	-0.827675	0.721911	-0.036098	99
Es	-2.926932	-0.120500	-0.995426	99
Es	-0.214798	0.428521	0.146081	99
Es	0.503716	0.325474	1.329429	99
Es	-2.265183	-0.479470	-0.011798	99
Es	-0.667277	0.503092	-0.150217	99
Es	-1.987450	-0.779353	-0.529763	99
Es	2.173638	1.484944	0.544817	99
Es	-0.598989	0.484360	-0.434979	99
Es	-2.686615	-0.653168	-0.557730	99
Es	1.050865	-0.140527	0.283611	99
Es	-0.958960	0.073409	-0.058536	99
Es	1.054125	0.950357	0.390423	99
Es	1.583938	-0.568645	-0.761185	99
Es	1.588256	1.594461	-0.535672	99
Es	-3.119677	-1.232934	-0.455259	99
Es	1.706364	-0.298436	-0.097663	99
Es	1.873132	0.455383	-0.104705	99
Es	-1.225519	-1.095379	0.480580	99
Es	0.559973	0.385800	0.596119	99
37
Properties=species:S:1:pos:R:3:Z:I:1 energy=-268.8807872660419 field_type=dipole dipole="0.000000 0.000000 0.000000" charge=0
C	-2.686553	-0.653159	-0.557703	6
C	-1.494143	-0.573689	0.035267	6
O	-0.667393	0.503471	-0.150414	8
C	0.560037	0.385781	0.596357	6
C	1.706437	-0.298589	-0.097733	6
C	1.709076	1.193971	0.057186	6
H	-3.329073	-1.512869	-0.406294	1
H	-3.037643	0.142101	-1.206743	1
H	-1.111213	-1.348839	0.684757	1
H	0.493967	0.312801	1.678476	1
H	1.533057	-0.705139	-1.087233	1
H	2.391916	-0.876129	0.509916	1
H	2.397237	1.632161	0.769646	1
H	1.534297	1.798131	-0.825483	1
Es	-0.210883	0.430311	0.145595	99
Es	2.171267	-0.686301	0.318383	99
Es	-0.824171	0.728964	-0.049553	99
Es	1.706359	-0.298433	-0.097660	99
Es	-1.225369	-1.095472	0.479530	99
Es	-3.121041	-1.233307	-0.454740	99
Es	0.559964	0.385821	0.596119	99
Es	-1.493874	-0.573496	0.035301	99
Es	1.708999	1.193794	0.057227	99
Es	1.049107	-0.140742	0.285352	99
Es	0.503875	0.324891	1.328284	99
Es	-0.667320	0.503130	-0.150157	99
Es	2.175948	1.485532	0.544906	99
Es	-1.987061	-0.778696	-0.530559	99
Es	1.583658	-0.568562	-0.759855	99
Es	-0.964565	0.074033	-0.057372	99
Es	-2.686623	-0.653164	-0.557722	99
Es	-2.926584	-0.120596	-0.993760	99
Es	1.053812	0.949992	0.390369	99
Es	1.588431	1.592716	-0.534716	99
Es	-2.265180	-0.479455	-0.012298	99
Es	1.872936	0.457855	-0.106752	99
Es	-0.600842	0.474435	-0.422250	99
37
Properties=species:S:1:pos:R:3:Z:I:1 energy=-268.8807872660419 field_type=dipole dipole="0.000000 0.000000 0.000000" charge=0
C	-2.686553	-0.653159	-0.557703	6
C	-1.494143	-0.573689	0.035267	6
O	-0.667393	0.503471	-0.150414	8
C	0.560037	0.385781	0.596357	6
C	1.706437	-0.298589	-0.097733	6
C	1.709076	1.193971	0.057186	6
H	-3.329073	-1.512869	-0.406294	1
H	-3.037643	0.142101	-1.206743	1
H	-1.111213	-1.348839	0.684757	1
H	0.493967	0.312801	1.678476	1
H	1.533057	-0.705139	-1.087233	1
H	2.391916	-0.876129	0.509916	1
H	2.397237	1.632161	0.769646	1
H	1.534297	1.798131	-0.825483	1
Es	1.583612	-0.568369	-0.759045	99
Es	0.559962	0.385809	0.596118	99
Es	-2.265425	-0.479507	-0.012387	99
Es	-1.225284	-1.095506	0.478815	99
Es	-1.986680	-0.778254	-0.531107	99
Es	1.047932	-0.140918	0.286310	99
Es	-2.926301	-0.120696	-0.992646	99
Es	-1.493865	-0.573490	0.035298	99
Es	-0.966765	0.072557	-0.060359	99
Es	1.588494	1.591524	-0.533854	99
Es	-0.822395	0.726656	-0.051228	99
Es	2.171797	-0.686295	0.318162	99
Es	-0.667329	0.503183	-0.150159	99
Es	2.177453	1.485897	0.544811	99
Es	0.504029	0.324672	1.327485	99
Es	-3.121856	-1.233426	-0.454662	99
Es	-0.604121	0.476952	-0.415205	99
Es	-0.207259	0.431176	0.143316	99
Es	1.706351	-0.298438	-0.097655	99
Es	1.709002	1.193805	0.057225	99
Es	1.872431	0.459555	-0.108035	99
Es	-2.686620	-0.653171	-0.557734	99
Es	1.053678	0.949533	0.390208	99
37
Properties=species:S:1:pos:R:3:Z:I:1 energy=-268.8807872660419 field_type=dipole dipole="0.000000 0.000000 0.000000" charge=0
C	-2.686553	-0.653159	-0.557703	6
C	-1.494143	-0.573689	0.035267	6
O	-0.667393	0.503471	-0.150414	8
C	0.560037	0.385781	0.596357	6
C	1.706437	-0.298589	-0.097733	6
C	1.709076	1.193971	0.057186	6
H	-3.329073	-1.512869	-0.406294	1
H	-3.037643	0.142101	-1.206743	1
H	-1.111213	-1.348839	0.684757	1
H	0.493967	0.312801	1.678476	1
H	1.533057	-0.705139	-1.087233	1
H	2.391916	-0.876129	0.509916	1
H	2.397237	1.632161	0.769646	1
H	1.534297	1.798131	-0.825483	1
Es	1.046736	-0.140949	0.287238	99
Es	1.872024	0.460957	-0.108958	99
Es	2.178579	1.486027	0.544724	99
Es	-0.970363	0.073192	-0.061445	99
Es	1.709001	1.193800	0.057226	99
Es	-0.604901	0.473387	-0.407009	99
Es	1.053572	0.948928	0.390029	99
Es	-2.686621	-0.653169	-0.557735	99
Es	-2.265411	-0.479478	-0.012462	99
Es	1.588643	1.590651	-0.533302	99
Es	-1.493868	-0.573492	0.035299	99
Es	-1.986528	-0.778133	-0.531623	99
Es	1.706366	-0.298433	-0.097663	99
Es	-0.819676	0.729158	-0.057766	99
Es	0.559956	0.385813	0.596118	99
Es	-0.205703	0.431385	0.142889	99
Es	1.583693	-0.568209	-0.758428	99
Es	-3.122450	-1.233461	-0.454672	99
Es	2.172298	-0.686150	0.318013	99
Es	-0.667268	0.503087	-0.150228	99
Es	-1.225301	-1.095413	0.478480	99
Es	-2.926039	-0.120800	-0.991874	99
Es	0.504102	0.324551	1.326821	99
37
Properties=species:S:1:pos:R:3:Z:I:1 energy=-268.8807872660419 field_type=dipole dipole="0.000000 0.000000 0.000000" charge=0
C	-2.686553	-0.653159	-0.557703	6
C	-1.494143	-0.573689	0.035267	6
O	-0.667393	0.503471	-0.150414	8
C	0.560037	0.385781	0.596357	6
C	1.706437	-0.298589	-0.097733	6
C	1.709076	1.193971	0.057186	6
H	-3.329073	-1.512869	-0.406294	1
H	-3.037643	0.142101	-1.206743	1
H	-1.111213	-1.348839	0.684757	1
H	0.493967	0.312801	1.678476	1
H	1.533057	-0.705139	-1.087233	1
H	2.391916	-0.876129	0.509916	1
H	2.397237	1.632161	0.769646	1
H	1.534297	1.798131	-0.825483	1
Es	0.559956	0.385818	0.596119	99
Es	-2.925845	-0.120939	-0.991398	99
Es	-1.986272	-0.777873	-0.531856	99
Es	-1.493869	-0.573495	0.035298	99
Es	2.179632	1.486139	0.544593	99
Es	1.709004	1.193802	0.057225	99
Es	-0.667393	0.503185	-0.150027	99
Es	1.588779	1.589790	-0.532789	99
Es	1.053384	0.948749	0.390085	99
Es	0.504173	0.324163	1.326234	99
Es	-0.819403	0.729482	-0.062024	99
Es	-3.122824	-1.233474	-0.454715	99
Es	-0.605875	0.471278	-0.401608	99
Es	-1.225316	-1.095406	0.478130	99
Es	-2.265654	-0.479484	-0.012451	99
Es	1.046147	-0.140731	0.287744	99
Es	-0.204371	0.433440	0.142605	99
Es	-2.686621	-0.653170	-0.557733	99
Es	1.583539	-0.567997	-0.758012	99
Es	1.706366	-0.298427	-0.097661	99
Es	1.871438	0.461947	-0.109533	99
Es	-0.970872	0.072672	-0.062409	99
Es	2.172739	-0.686221	0.317858	99
37
Properties=species:S:1:pos:R:3:Z:I:1 energy=-268.8807872660419 field_type=dipole dipole="0.000000 0.000000 0.000000" charge=0
C	-2.686553	-0.653159	-0.557703	6
C	-1.494143	-0.573689	0.035267	6
O	-0.667393	0.503471	-0.150414	8
C	0.560037	0.385781	0.596357	6
C	1.706437	-0.298589	-0.097733	6
C	1.709076	1.193971	0.057186	6
H	-3.329073	-1.512869	-0.406294	1
H	-3.037643	0.142101	-1.206743	1
H	-1.111213	-1.348839	0.684757	1
H	0.493967	0.312801	1.678476	1
H	1.533057	-0.705139	-1.087233	1
H	2.391916	-0.876129	0.509916	1
H	2.397237	1.632161	0.769646	1
H	1.534297	1.798131	-0.825483	1
Es	-0.818016	0.728025	-0.062269	99
Es	-0.972305	0.072666	-0.063883	99
Es	1.708998	1.193804	0.057228	99
Es	1.045520	-0.140891	0.288130	99
Es	1.870822	0.462910	-0.110008	99
Es	-0.607455	0.472761	-0.398016	99
Es	-0.202967	0.433359	0.141176	99
Es	1.053355	0.948348	0.389848	99
Es	2.180345	1.486221	0.544575	99
Es	-1.493871	-0.573494	0.035299	99
Es	-2.925542	-0.120998	-0.991111	99
Es	1.588901	1.589173	-0.532369	99
Es	-1.986295	-0.777723	-0.531944	99
Es	-3.123175	-1.233473	-0.454880	99
Es	0.559954	0.385813	0.596119	99
Es	0.504256	0.324165	1.325740	99
Es	2.173165	-0.686081	0.317930	99
Es	-1.225336	-1.095436	0.477931	99
Es	-2.686623	-0.653169	-0.557730	99
Es	-2.265678	-0.479440	-0.012443	99
Es	1.583648	-0.567906	-0.757638	99
Es	1.706363	-0.298435	-0.097663	99
Es	-0.667221	0.503048	-0.150349	99
37
Properties=species:S:1:pos:R:3:Z:I:1 energy=-268.8807872660419 field_type=dipole dipole="0.000000 0.000000 0.000000" charge=0
C	-2.686553	-0.653159	-0.557703	6
C	-1.494143	-0.573689	0.035267	6
O	-0.667393	0.503471	-0.150414	8
C	0.560037	0.385781	0.596357	6
C	1.706437	-0.298589	-0.097733	6
C	1.709076	1.193971	0.057186	6
H	-3.329073	-1.512869	-0.406294	1
H	-3.037643	0.142101	-1.206743	1
H	-1.111213	-1.348839	0.684757	1
H	0.493967	0.312801	1.678476	1
H	1.533057	-0.705139	-1.087233	1
H	2.391916	-0.876129	0.509916	1
H	2.397237	1.632161	0.769646	1
H	1.534297	1.798131	-0.825483	1
Es	-1.986167	-0.777678	-0.532295	99
Es	-1.493873	-0.573503	0.035299	99
Es	1.583677	-0.567783	-0.757464	99
Es	2.173563	-0.685960	0.317887	99
Es	0.504316	0.323963	1.325395	99
Es	2.180979	1.486103	0.544565	99
Es	-2.686625	-0.653168	-0.557728	99
Es	-0.974116	0.073608	-0.063186	99
Es	1.589082	1.588727	-0.531978	99
Es	1.045117	-0.140806	0.288408	99
Es	1.706362	-0.298432	-0.097662	99
Es	-3.123371	-1.233456	-0.454980	99
Es	1.053143	0.948049	0.389742	99
Es	-0.202715	0.434837	0.141804	99
Es	-0.607146	0.467008	-0.392342	99
Es	-0.816684	0.731120	-0.069340	99
Es	1.870264	0.463674	-0.110346	99
Es	-2.265747	-0.479237	-0.012358	99
Es	-1.225388	-1.095354	0.477874	99
Es	0.559950	0.385800	0.596118	99
Es	-2.925436	-0.121254	-0.990794	99
Es	-0.667340	0.503186	-0.150174	99
Es	1.708996	1.193802	0.057228	99
37
Properties=species:S:1:pos:R:3:Z:I:1 energy=-268.8807872660419 field_type=dipole dipole="0.000000 0.000000 0.000000" charge=0
C	-2.686553	-0.653159	-0.557703	6
C	-1.494143	-0.573689	0.035267	6
O	-0.667393	0.503471	-0.150414	8
C	0.560037	0.385781	0.596357	6
C	1.706437	-0.298589	-0.097733	6
C	1.709076	1.193971	0.057186	6
H	-3.329073	-1.512869	-0.406294	1
H	-3.037643	0.142101	-1.206743	1
H	-1.111213	-1.348839	0.684757	1
H	0.493967	0.312801	1.678476	1
H	1.533057	-0.705139	-1.087233	1
H	2.391916	-0.876129	0.509916	1
H	2.397237	1.632161	0.769646	1
H	1.534297	1.798131	-0.825483	1
Es	1.053049	0.947745	0.389516	99
Es	1.709005	1.193802	0.057225	99
Es	-0.975560	0.074220	-0.063449	99
Es	-1.985932	-0.777572	-0.532224	99
Es	-0.667312	0.503122	-0.150129	99
Es	-2.266035	-0.479296	-0.012433	99
Es	-0.815387	0.732963	-0.073719	99
Es	-1.493867	-0.573494	0.035295	99
Es	2.174022	-0.685862	0.317895	99
Es	1.583572	-0.567712	-0.757256	99
Es	-0.607372	0.464133	-0.387625	99
Es	1.044722	-0.140583	0.288803	99
Es	1.869760	0.464115	-0.110757	99
Es	-0.202314	0.435128	0.141751	99
Es	0.559957	0.385809	0.596117	99
Es	-2.686623	-0.653169	-0.557731	99
Es	2.181548	1.486149	0.544429	99
Es	0.504350	0.323985	1.325214	99
Es	-3.123662	-1.233399	-0.455097	99
Es	-1.225484	-1.095277	0.477802	99
Es	1.589170	1.588207	-0.531571	99
Es	-2.925123	-0.121338	-0.990725	99
Es	1.706360	-0.298428	-0.097660	99
37
Properties=species:S:1:pos:R:3:Z:I:1 energy=-268.8807872660419 field_type=dipole dipole="0.000000 0.000000 0.000000" charge=0
C	-2.686553	-0.653159	-0.557703	6
C	-1.494143	-0.573689	0.035267	6
O	-0.667393	0.503471	-0.150414	8
C	0.560037	0.385781	0.596357	6
C	1.706437	-0.298589	-0.097733	6
C	1.709076	1.193971	0.057186	6
H	-3.329073	-1.512869	-0.406294	1
H	-3.037643	0.142101	-1.206743	1
H	-1.111213	-1.348839	0.684757	1
H	0.493967	0.312801	1.678476	1
H	1.533057	-0.705139	-1.087233	1
H	2.391916	-0.876129	0.509916	1
H	2.397237	1.632161	0.769646	1
H	1.534297	1.798131	-0.825483	1
Es	0.504384	0.323929	1.325088	99
Es	1.708999	1.193803	0.057228	99
Es	-0.201433	0.435703	0.140909	99
Es	-1.985913	-0.777580	-0.532571	99
Es	1.583593	-0.567647	-0.757140	99
Es	-0.975760	0.073765	-0.065033	99
Es	1.706361	-0.298426	-0.097658	99
Es	-1.493869	-0.573493	0.035298	99
Es	-2.686625	-0.653168	-0.557728	99
Es	1.869308	0.464789	-0.110855	99
Es	1.589302	1.587915	-0.531456	99
Es	1.044279	-0.140390	0.289079	99
Es	2.182061	1.485966	0.544413	99
Es	-3.123798	-1.233376	-0.455222	99
Es	-2.266006	-0.479132	-0.012301	99
Es	1.053073	0.947295	0.389256	99
Es	-2.925077	-0.121467	-0.990395	99
Es	-1.225470	-1.095242	0.477758	99
Es	2.174264	-0.685770	0.317907	99
Es	-0.815245	0.733117	-0.075232	99
Es	0.559951	0.385810	0.596118	99
Es	-0.608210	0.463663	-0.383598	99
Es	-0.667327	0.503183	-0.150194	99
37
Properties=species:S:1:pos:R:3:Z:I:1 energy=-268.8807872660419 field_type=dipole dipole="0.000000 0.000000 0.000000" charge=0
C	-2.686553	-0.653159	-0.557703	6
C	-1.494143	-0.573689	0.035267	6
O	-0.667393	0.503471	-0.150414	8
C	0.560037	0.385781	0.596357	6
C	1.706437	-0.298589	-0.097733	6
C	1.709076	1.193971	0.057186	6
H	-3.329073	-1.512869	-0.406294	1
H	-3.037643	0.142101	-1.206743	1
H	-1.111213	-1.348839	0.684757	1
H	0.493967	0.312801	1.678476	1
H	1.533057	-0.705139	-1.087233	1
H	2.391916	-0.876129	0.509916	1
H	2.397237	1.632161	0.769646	1
H	1.534297	1.798131	-0.825483	1
Es	0.559953	0.385811	0.596118	99
Es	1.709003	1.193795	0.057225	99
Es	0.504395	0.323594	1.324753	99
Es	-1.493867	-0.573495	0.035294	99
Es	1.706361	-0.298429	-0.097660	99
Es	-1.225558	-1.095215	0.477644	99
Es	-1.986071	-0.777746	-0.532756	99
Es	1.868820	0.464929	-0.110879	99
Es	2.182416	1.486042	0.544392	99
Es	2.174520	-0.685776	0.317899	99
Es	-0.608645	0.462164	-0.381302	99
Es	-2.686625	-0.653167	-0.557728	99
Es	-2.265832	-0.479000	-0.012155	99
Es	-3.123901	-1.233272	-0.455276	99
Es	-0.201005	0.435632	0.140450	99
Es	-0.667291	0.503103	-0.150190	99
Es	-0.977697	0.075044	-0.064188	99
Es	1.589545	1.587393	-0.531193	99
Es	1.044267	-0.140206	0.289144	99
Es	-0.813293	0.733427	-0.077823	99
Es	-2.925006	-0.121505	-0.990311	99
Es	1.583473	-0.567584	-0.757057	99
Es	1.052881	0.947708	0.389268	99
37
Properties=species:S:1:pos:R:3:Z:I:1 energy=-268.8807872660419 field_type=dipole dipole="0.000000 0.000000 0.000000" charge=0
C	-2.686553	-0.653159	-0.557703	6
C	-1.494143	-0.573689	0.035267	6
O	-0.667393	0.503471	-0.150414	8
C	0.560037	0.385781	0.596357	6
C	1.706437	-0.298589	-0.097733	6
C	1.709076	1.193971	0.057186	6
H	-3.329073	-1.512869	-0.406294	1
H	-3.037643	0.142101	-1.206743	1
H	-1.111213	-1.348839	0.684757	1
H	0.493967	0.312801	1.678476	1
H	1.533057	-0.705139	-1.087233	1
H	2.391916	-0.876129	0.509916	1
H	2.397237	1.632161	0.769646	1
H	1.534297	1.798131	-0.825483	1
Es	-0.667420	0.503059	-0.150182	99
Es	1.868498	0.465289	-0.111077	99
Es	0.559953	0.385810	0.596118	99
Es	-2.686622	-0.653170	-0.557733	99
Es	1.043870	-0.140072	0.289425	99
Es	1.583589	-0.567573	-0.757032	99
Es	0.504403	0.323783	1.324673	99
Es	2.182803	1.485804	0.544272	99
Es	2.174793	-0.685567	0.318002	99
Es	1.706361	-0.298430	-0.097661	99
Es	-2.924729	-0.121822	-0.990236	99
Es	1.709002	1.193802	0.057226	99
Es	1.589573	1.587293	-0.531091	99
Es	-1.985799	-0.777550	-0.532747	99
Es	-1.493869	-0.573492	0.035298	99
Es	-1.225587	-1.095151	0.477590	99
Es	-0.201128	0.436528	0.141168	99
Es	-3.124127	-1.233282	-0.455416	99
Es	-2.266197	-0.478838	-0.012083	99
Es	-0.978355	0.075137	-0.065125	99
Es	-0.812552	0.735573	-0.082951	99
Es	1.052809	0.947145	0.389199	99
Es	-0.608428	0.458971	-0.375962	99
37
Properties=species:S:1:pos:R:3:Z:I:1 energy=-268.8807872660419 field_type=dipole dipole="0.000000 0.000000 0.000000" charge=0
C	-2.686553	-0.653159	-0.557703	6
C	-1.494143	-0.573689	0.035267	6
O	-0.667393	0.503471	-0.150414	8
C	0.560037	0.385781	0.596357	6
C	1.706437	-0.298589	-0.097733	6
C	1.709076	1.193971	0.057186	6
H	-3.329073	-1.512869	-0.406294	1
H	-3.037643	0.142101	-1.206743	1
H	-1.111213	-1.348839	0.684757	1
H	0.493967	0.312801	1.678476	1
H	1.533057	-0.705139	-1.087233	1
H	2.391916	-0.876129	0.509916	1
H	2.397237	1.632161	0.769646	1
H	1.534297	1.798131	-0.825483	1
Es	-2.924583	-0.121740	-0.990068	99
Es	-0.608595	0.460607	-0.376199	99
Es	1.708999	1.193802	0.057225	99
Es	0.559964	0.385827	0.596118	99
Es	1.867945	0.465712	-0.111409	99
Es	0.504441	0.323797	1.324354	99
Es	1.589565	1.587041	-0.530673	99
Es	-1.225580	-1.095188	0.477583	99
Es	-2.266172	-0.478951	-0.012114	99
Es	1.706362	-0.298426	-0.097662	99
Es	-0.812566	0.734012	-0.081415	99
Es	1.043535	-0.140340	0.289584	99
Es	-1.493869	-0.573491	0.035299	99
Es	-0.667390	0.503177	-0.150156	99
Es	-0.978354	0.074776	-0.066402	99
Es	-2.686625	-0.653168	-0.557729	99
Es	-0.201035	0.436638	0.141150	99
Es	2.183174	1.485751	0.544215	99
Es	-3.124284	-1.233234	-0.455588	99
Es	1.583642	-0.567355	-0.756780	99
Es	1.052830	0.947025	0.389103	99
Es	-1.985822	-0.777517	-0.532739	99
Es	2.175260	-0.685509	0.317976	99
37
Properties=species:S:1:pos:R:3:Z:I:1 energy=-268.8807872660419 field_type=dipole dipole="0.000000 0.000000 0.000000" charge=0
C	-2.686553	-0.653159	-0.557703	6
C	-1.494143	-0.573689	0.035267	6
O	-0.667393	0.503471	-0.150414	8
C	0.560037	0.385781	0.596357	6
C	1.706437	-0.298589	-0.097733	6
C	1.709076	1.193971	0.057186	6
H	-3.329073	-1.512869	-0.406294	1
H	-3.037643	0.142101	-1.206743	1
H	-1.111213	-1.348839	0.684757	1
H	0.493967	0.312801	1.678476	1
H	1.533057	-0.705139	-1.087233	1
H	2.391916	-0.876129	0.509916	1
H	2.397237	1.632161	0.769646	1
H	1.534297	1.798131	-0.825483	1
Es	-0.608899	0.458190	-0.372338	99
Es	2.175315	-0.685460	0.318077	99
Es	1.043323	-0.139839	0.289743	99
Es	-2.924535	-0.121804	-0.990045	99
Es	1.706361	-0.298430	-0.097661	99
Es	1.589746	1.586745	-0.530609	99
Es	2.183359	1.485773	0.544221	99
Es	-1.493869	-0.573491	0.035298	99
Es	0.559947	0.385809	0.596118	99
Es	1.709005	1.193798	0.057223	99
Es	1.583657	-0.567349	-0.756907	99
Es	-2.686622	-0.653170	-0.557733	99
Es	-1.985515	-0.777410	-0.532722	99
Es	-2.266536	-0.479047	-0.012033	99
Es	-0.811753	0.735656	-0.084933	99
Es	1.052758	0.946780	0.388815	99
Es	-3.124286	-1.233215	-0.455722	99
Es	-0.979126	0.075202	-0.066614	99
Es	0.504470	0.323751	1.324344	99
Es	-0.200775	0.436858	0.140981	99
Es	1.867818	0.465839	-0.111287	99
Es	-0.667364	0.503165	-0.150064	99
Es	-1.225637	-1.095101	0.477521	99
37
Properties=species:S:1:pos:R:3:Z:I:1 energy=-268.8807872660419 field_type=dipole dipole="0.000000 0.000000 0.000000" charge=0
C	-2.686553	-0.653159	-0.557703	6
C	-1.494143	-0.573689	0.035267	6
O	-0.667393	0.503471	-0.150414	8
C	0.560037	0.385781	0.596357	6
C	1.706437	-0.298589	-0.097733	6
C	1.709076	1.193971	0.057186	6
H	-3.329073	-1.512869	-0.406294	1
H	-3.037643	0.142101	-1.206743	1
H	-1.111213	-1.348839	0.684757	1
H	0.493967	0.312801	1.678476	1
H	1.533057	-0.705139	-1.087233	1
H	2.391916	-0.876129	0.509916	1
H	2.397237	1.632161	0.769646	1
H	1.534297	1.798131	-0.825483	1
Es	2.175597	-0.685301	0.318024	99
Es	-0.811033	0.735483	-0.085703	99
Es	1.589806	1.586547	-0.530341	99
Es	-2.924495	-0.121781	-0.989970	99
Es	-0.667236	0.503026	-0.150275	99
Es	-1.225712	-1.095055	0.477563	99
Es	1.052776	0.946686	0.388722	99
Es	-1.985810	-0.777652	-0.532938	99
Es	-0.979821	0.075689	-0.066383	99
Es	0.504481	0.323727	1.324112	99
Es	1.583545	-0.567407	-0.756810	99
Es	-2.266146	-0.478868	-0.012083	99
Es	0.559954	0.385825	0.596119	99
Es	-1.493869	-0.573493	0.035297	99
Es	2.183613	1.485690	0.544204	99
Es	-3.124394	-1.233160	-0.455659	99
Es	1.706353	-0.298432	-0.097660	99
Es	-0.609317	0.457939	-0.371177	99
Es	-2.686622	-0.653170	-0.557734	99
Es	1.867452	0.466221	-0.111498	99
Es	-0.200501	0.436962	0.140670	99
Es	1.708997	1.193803	0.057228	99
Es	1.043225	-0.140032	0.289965	99
37
Properties=species:S:1:pos:R:3:Z:I:1 energy=-268.8807872660419 field_type=dipole dipole="0.000000 0.000000 0.000000" charge=0
C	-2.686553	-0.653159	-0.557703	6
C	-1.494143	-0.573689	0.035267	6
O	-0.667393	0.503471	-0.150414	8
C	0.560037	0.385781	0.596357	6
C	1.706437	-0.298589	-0.097733	6
C	1.709076	1.193971	0.057186	6
H	-3.329073	-1.512869	-0.406294	1
H	-3.037643	0.142101	-1.206743	1
H	-1.111213	-1.348839	0.684757	1
H	0.493967	0.312801	1.678476	1
H	1.533057	-0.705139	-1.087233	1
H	2.391916	-0.876129	0.509916	1
H	2.397237	1.632161	0.769646	1
H	1.534297	1.798131	-0.825483	1
Es	-2.924426	-0.121866	-0.989872	99
Es	0.504483	0.323494	1.324024	99
Es	1.043067	-0.139612	0.289838	99
Es	1.583651	-0.567317	-0.756684	99
Es	-0.667338	0.503257	-0.150447	99
Es	1.867306	0.466281	-0.111639	99
Es	-1.493863	-0.573488	0.035297	99
Es	-1.985776	-0.777585	-0.532983	99
Es	1.706354	-0.298426	-0.097657	99
Es	-2.266209	-0.478809	-0.012025	99
Es	1.709006	1.193799	0.057224	99
Es	-0.200475	0.437473	0.140924	99
Es	-2.686624	-0.653168	-0.557729	99
Es	-3.124447	-1.233185	-0.455773	99
Es	-1.225699	-1.095044	0.477572	99
Es	0.559950	0.385812	0.596118	99
Es	1.052513	0.946600	0.388886	99
Es	-0.980031	0.075541	-0.067625	99
Es	1.589875	1.586387	-0.530284	99
Es	-0.609298	0.457030	-0.368474	99
Es	-0.810774	0.735706	-0.087285	99
Es	2.183812	1.485627	0.544130	99
Es	2.175785	-0.685260	0.318136	99
37
Properties=species:S:1:pos:R:3:Z:I:1 energy=-268.8807872660419 field_type=dipole dipole="0.000000 0.000000 0.000000" charge=0
C	-2.686553	-0.653159	-0.557703	6
C	-1.494143	-0.573689	0.035267	6
O	-0.667393	0.503471	-0.150414	8
C	0.560037	0.385781	0.596357	6
C	1.706437	-0.298589	-0.097733	6
C	1.709076	1.193971	0.057186	6
H	-3.329073	-1.512869	-0.406294	1
H	-3.037643	0.142101	-1.206743	1
H	-1.111213	-1.348839	0.684757	1
H	0.493967	0.312801	1.678476	1
H	1.533057	-0.705139	-1.087233	1
H	2.391916	-0.876129	0.509916	1
H	2.397237	1.632161	0.769646	1
H	1.534297	1.798131	-0.825483	1
Es	-1.225700	-1.094999	0.477509	99
Es	-2.686624	-0.653168	-0.557730	99
Es	1.583734	-0.567293	-0.756817	99
Es	-2.924292	-0.121987	-0.989744	99
Es	-2.265897	-0.478529	-0.011836	99
Es	1.042745	-0.139542	0.290132	99
Es	-0.667281	0.503080	-0.150174	99
Es	-0.609148	0.454006	-0.364980	99
Es	0.559947	0.385811	0.596118	99
Es	-0.200818	0.437743	0.141707	99
Es	1.052485	0.946314	0.388488	99
Es	2.175918	-0.685094	0.318108	99
Es	1.706362	-0.298430	-0.097661	99
Es	0.504513	0.323685	1.324129	99
Es	-0.980779	0.076056	-0.067541	99
Es	-3.124658	-1.233026	-0.455755	99
Es	1.590033	1.586181	-0.530081	99
Es	1.867006	0.466535	-0.111596	99
Es	2.184086	1.485456	0.544053	99
Es	1.709003	1.193800	0.057225	99
Es	-1.986036	-0.777898	-0.533284	99
Es	-0.809890	0.738041	-0.091893	99
Es	-1.493868	-0.573495	0.035295	99
37
Properties=species:S:1:pos:R:3:Z:I:1 energy=-268.8807872660419 field_type=dipole dipole="0.000000 0.000000 0.000000" charge=0
C	-2.686553	-0.653159	-0.557703	6
C	-1.494143	-0.573689	0.035267	6
O	-0.667393	0.503471	-0.150414	8
C	0.560037	0.385781	0.596357	6
C	1.706437	-0.298589	-0.097733	6
C	1.709076	1.193971	0.057186	6
H	-3.329073	-1.512869	-0.406294	1
H	-3.037643	0.142101	-1.206743	1
H	-1.111213	-1.348839	0.684757	1
H	0.493967	0.312801	1.678476	1
H	1.533057	-0.705139	-1.087233	1
H	2.391916	-0.876129	0.509916	1
H	2.397237	1.632161	0.769646	1
H	1.534297	1.798131	-0.825483	1
Es	1.052399	0.946356	0.388477	99
Es	-2.924149	-0.122025	-0.989702	99
Es	0.559954	0.385808	0.596120	99
Es	1.709003	1.193803	0.057226	99
Es	-0.200515	0.437896	0.141288	99
Es	-1.225755	-1.094950	0.477533	99
Es	0.504509	0.323644	1.324048	99
Es	-1.985800	-0.777706	-0.533188	99
Es	-0.808932	0.738500	-0.093767	99
Es	1.042825	-0.139662	0.290128	99
Es	-0.667294	0.503121	-0.150194	99
Es	1.866541	0.466641	-0.111564	99
Es	-0.609459	0.452682	-0.363082	99
Es	1.583728	-0.567308	-0.756840	99
Es	-2.686625	-0.653170	-0.557731	99
Es	-0.981688	0.076703	-0.067059	99
Es	-1.493868	-0.573493	0.035297	99
Es	2.176167	-0.684904	0.318115	99
Es	-3.124709	-1.233072	-0.455991	99
Es	-2.266204	-0.478631	-0.011831	99
Es	1.706362	-0.298422	-0.097659	99
Es	1.590073	1.586060	-0.530020	99
Es	2.184280	1.485377	0.544069	99
37
Properties=species:S:1:pos:R:3:Z:I:1 energy=-268.8807872660419 field_type=dipole dipole="0.000000 0.000000 0.000000" charge=0
C	-2.686553	-0.653159	-0.557703	6
C	-1.494143	-0.573689	0.035267	6
O	-0.667393	0.503471	-0.150414	8
C	0.560037	0.385781	0.596357	6
C	1.706437	-0.298589	-0.097733	6
C	1.709076	1.193971	0.057186	6
H	-3.329073	-1.512869	-0.406294	1
H	-3.037643	0.142101	-1.206743	1
H	-1.111213	-1.348839	0.684757	1
H	0.493967	0.312801	1.678476	1
H	1.533057	-0.705139	-1.087233	1
H	2.391916	-0.876129	0.509916	1
H	2.397237	1.632161	0.769646	1
H	1.534297	1.798131	-0.825483	1
Es	1.706358	-0.298428	-0.097659	99
Es	0.504537	0.323504	1.323926	99
Es	2.176336	-0.684850	0.318150	99
Es	1.866484	0.466581	-0.111501	99
Es	-2.686626	-0.653170	-0.557728	99
Es	-0.667161	0.502826	-0.150403	99
Es	2.184267	1.485468	0.544039	99
Es	-3.124716	-1.233020	-0.455957	99
Es	-1.225837	-1.094889	0.477540	99
Es	1.709001	1.193800	0.057226	99
Es	-2.924152	-0.122075	-0.989727	99
Es	-0.200176	0.438110	0.140864	99
Es	-1.493869	-0.573494	0.035297	99
Es	-2.266238	-0.478589	-0.011856	99
Es	-0.808755	0.738645	-0.094788	99
Es	-1.985733	-0.777775	-0.533252	99
Es	-0.610080	0.452569	-0.361042	99
Es	-0.981688	0.076681	-0.067398	99
Es	1.052362	0.946297	0.388430	99
Es	1.583650	-0.567298	-0.756928	99
Es	0.559944	0.385806	0.596118	99
Es	1.042712	-0.139317	0.290298	99
Es	1.590222	1.585865	-0.529975	99
