39
Properties=species:S:1:pos:R:3:Z:I:1 energy=-286.07605335829555 field_type=dipole dipole="0.000000 0.000000 0.000000" charge=0
C	-1.666705	0.041625	-0.024597	6
C	-0.175184	-0.053385	0.162073	6
N	0.291036	-0.058855	1.570223	7
C	0.625096	-0.836235	-0.850097	6
C	0.701005	0.661115	-0.851787	6
O	1.907776	1.229195	-0.312427	8
H	-1.947064	0.066575	-1.083037	1
H	-2.052875	0.951175	0.446893	1
H	-2.162575	-0.821165	0.432343	1
H	1.216176	-0.485135	1.629153	1
H	-0.310674	-0.660845	2.133873	1
H	0.102206	-1.310225	-1.672727	1
H	1.504845	-1.381975	-0.530917	1
H	0.222235	1.189395	-1.669347	1
H	1.744705	1.468745	0.620383	1
Es	0.625047	-0.836097	-0.850051	99
Es	0.160570	-0.623195	-0.287100	99
Es	1.907474	1.229124	-0.312235	99
Es	-1.666672	0.041615	-0.024596	99
Es	0.841541	-0.326553	1.591273	99
Es	-1.844541	0.057173	-0.745395	99
Es	-0.072616	-0.433851	1.888999	99
Es	-0.175042	-0.053396	0.162100	99
Es	-2.000516	-0.548358	0.289974	99
Es	0.774190	-0.106261	-0.999997	99
Es	-0.919738	-0.010851	0.069330	99
Es	0.097504	-0.083060	0.955143	99
Es	0.297130	0.273179	1.698724	99
Es	0.261807	-1.154797	-1.407378	99
Es	0.701160	0.661054	-0.851611	99
Es	-1.925597	0.657636	0.296277	99
Es	0.291035	-0.059394	1.569972	99
Es	0.375928	1.023696	-1.406072	99
Es	2.108122	1.000972	-0.306490	99
Es	1.956966	1.485898	-0.464851	99
Es	1.434762	1.015545	-0.498126	99
Es	0.202703	0.477787	-0.277990	99
Es	1.799048	1.349437	0.177829	99
Es	1.216735	-1.200108	-0.621277	99
39
Properties=species:S:1:pos:R:3:Z:I:1 energy=-286.07605335829555 field_type=dipole dipole="0.000000 0.000000 0.000000" charge=0
C	-1.666705	0.041625	-0.024597	6
C	-0.175184	-0.053385	0.162073	6
N	0.291036	-0.058855	1.570223	7
C	0.625096	-0.836235	-0.850097	6
C	0.701005	0.661115	-0.851787	6
O	1.907776	1.229195	-0.312427	8
H	-1.947064	0.066575	-1.083037	1
H	-2.052875	0.951175	0.446893	1
H	-2.162575	-0.821165	0.432343	1
H	1.216176	-0.485135	1.629153	1
H	-0.310674	-0.660845	2.133873	1
H	0.102206	-1.310225	-1.672727	1
H	1.504845	-1.381975	-0.530917	1
H	0.222235	1.189395	-1.669347	1
H	1.744705	1.468745	0.620383	1
Es	0.201564	0.478097	-0.277344	99
Es	-1.844024	0.057263	-0.745649	99
Es	1.798039	1.350864	0.178742	99
Es	2.105638	1.002375	-0.304590	99
Es	0.097829	-0.083298	0.955381	99
Es	1.215925	-1.199603	-0.621732	99
Es	-2.000401	-0.548883	0.290139	99
Es	0.299893	0.274251	1.698234	99
Es	0.701176	0.661048	-0.851625	99
Es	0.262719	-1.154815	-1.407464	99
Es	0.291035	-0.059392	1.569967	99
Es	1.907514	1.229182	-0.312266	99
Es	0.839143	-0.327419	1.590268	99
Es	-1.925273	0.658052	0.296527	99
Es	-0.175043	-0.053401	0.162101	99
Es	0.159315	-0.623493	-0.286039	99
Es	0.376681	1.023243	-1.406212	99
Es	1.957583	1.486388	-0.469460	99
Es	-0.920009	-0.010860	0.069233	99
Es	-0.073594	-0.433816	1.890511	99
Es	0.775570	-0.106172	-1.001125	99
Es	-1.666672	0.041615	-0.024596	99
Es	1.437345	1.012067	-0.496497	99
Es	0.625047	-0.836094	-0.850052	99
39
Properties=species:S:1:pos:R:3:Z:I:1 energy=-286.07605335829555 field_type=dipole dipole="0.000000 0.000000 0.000000" charge=0
C	-1.666705	0.041625	-0.024597	6
C	-0.175184	-0.053385	0.162073	6
N	0.291036	-0.058855	1.570223	7
C	0.625096	-0.836235	-0.850097	6
C	0.701005	0.661115	-0.851787	6
O	1.907776	1.229195	-0.312427	8
H	-1.947064	0.066575	-1.083037	1
H	-2.052875	0.951175	0.446893	1
H	-2.162575	-0.821165	0.432343	1
H	1.216176	-0.485135	1.629153	1
H	-0.310674	-0.660845	2.133873	1
H	0.102206	-1.310225	-1.672727	1
H	1.504845	-1.381975	-0.530917	1
H	0.222235	1.189395	-1.669347	1
H	1.744705	1.468745	0.620383	1
Es	0.302049	0.274505	1.697969	99
Es	-0.175042	-0.053399	0.162101	99
Es	0.377132	1.022877	-1.406287	99
Es	0.291037	-0.059366	1.569988	99
Es	0.776188	-0.106316	-1.001506	99
Es	0.201073	0.478475	-0.276926	99
Es	0.097791	-0.083032	0.955276	99
Es	1.797181	1.351670	0.179355	99
Es	1.962665	1.485924	-0.472882	99
Es	0.158585	-0.624155	-0.284999	99
Es	0.837524	-0.328327	1.589561	99
Es	-2.000042	-0.549141	0.290267	99
Es	0.625046	-0.836092	-0.850049	99
Es	1.215505	-1.199088	-0.622466	99
Es	-0.074272	-0.433396	1.891584	99
Es	0.263328	-1.154661	-1.407559	99
Es	0.701168	0.661038	-0.851621	99
Es	2.100494	1.000708	-0.302008	99
Es	1.907476	1.229108	-0.312224	99
Es	-1.843810	0.057085	-0.745785	99
Es	-1.925191	0.658444	0.296778	99
Es	-1.666672	0.041615	-0.024596	99
Es	1.438165	1.013410	-0.496584	99
Es	-0.920378	-0.010691	0.069066	99
39
Properties=species:S:1:pos:R:3:Z:I:1 energy=-286.07605335829555 field_type=dipole dipole="0.000000 0.000000 0.000000" charge=0
C	-1.666705	0.041625	-0.024597	6
C	-0.175184	-0.053385	0.162073	6
N	0.291036	-0.058855	1.570223	7
C	0.625096	-0.836235	-0.850097	6
C	0.701005	0.661115	-0.851787	6
O	1.907776	1.229195	-0.312427	8
H	-1.947064	0.066575	-1.083037	1
H	-2.052875	0.951175	0.446893	1
H	-2.162575	-0.821165	0.432343	1
H	1.216176	-0.485135	1.629153	1
H	-0.310674	-0.660845	2.133873	1
H	0.102206	-1.310225	-1.672727	1
H	1.504845	-1.381975	-0.530917	1
H	0.222235	1.189395	-1.669347	1
H	1.744705	1.468745	0.620383	1
Es	0.701173	0.661055	-0.851620	99
Es	-2.000027	-0.549423	0.290316	99
Es	0.158229	-0.623946	-0.284429	99
Es	1.796244	1.352557	0.179690	99
Es	-0.074818	-0.433260	1.892330	99
Es	0.302516	0.274945	1.697029	99
Es	0.291037	-0.059383	1.569972	99
Es	0.625046	-0.836084	-0.850051	99
Es	0.200462	0.478484	-0.276417	99
Es	0.263639	-1.154698	-1.407500	99
Es	0.377368	1.022769	-1.406104	99
Es	0.837059	-0.328133	1.589556	99
Es	1.439042	1.013745	-0.496518	99
Es	0.777049	-0.106638	-1.002500	99
Es	-1.843416	0.057119	-0.745902	99
Es	1.907521	1.229122	-0.312208	99
Es	1.215119	-1.198810	-0.622760	99
Es	-1.666672	0.041611	-0.024595	99
Es	1.964202	1.485311	-0.474545	99
Es	-0.175044	-0.053399	0.162105	99
Es	-1.925022	0.658707	0.296870	99
Es	2.098777	1.000036	-0.300900	99
Es	-0.920632	-0.010750	0.069067	99
Es	0.098147	-0.083741	0.955566	99
39
Properties=species:S:1:pos:R:3:Z:I:1 energy=-286.07605335829555 field_type=dipole dipole="0.000000 0.000000 0.000000" charge=0
C	-1.666705	0.041625	-0.024597	6
C	-0.175184	-0.053385	0.162073	6
N	0.291036	-0.058855	1.570223	7
C	0.625096	-0.836235	-0.850097	6
C	0.701005	0.661115	-0.851787	6
O	1.907776	1.229195	-0.312427	8
H	-1.947064	0.066575	-1.083037	1
H	-2.052875	0.951175	0.446893	1
H	-2.162575	-0.821165	0.432343	1
H	1.216176	-0.485135	1.629153	1
H	-0.310674	-0.660845	2.133873	1
H	0.102206	-1.310225	-1.672727	1
H	1.504845	-1.381975	-0.530917	1
H	0.222235	1.189395	-1.669347	1
H	1.744705	1.468745	0.620383	1
Es	-1.843277	0.057006	-0.746016	99
Es	-0.075122	-0.433040	1.892936	99
Es	1.214861	-1.198556	-0.623054	99
Es	0.200019	0.478490	-0.276049	99
Es	0.291028	-0.059325	1.569990	99
Es	0.625048	-0.836101	-0.850050	99
Es	1.440534	1.012108	-0.495728	99
Es	0.777546	-0.106661	-1.003037	99
Es	0.701182	0.661051	-0.851626	99
Es	-1.999836	-0.549530	0.290399	99
Es	0.836364	-0.328359	1.589313	99
Es	0.377678	1.022610	-1.406133	99
Es	0.157808	-0.623967	-0.283940	99
Es	-0.920831	-0.010750	0.068943	99
Es	-1.666672	0.041615	-0.024596	99
Es	2.098027	1.000659	-0.299855	99
Es	1.964292	1.485543	-0.476575	99
Es	0.098226	-0.084208	0.955755	99
Es	-0.175045	-0.053405	0.162104	99
Es	-1.924912	0.658962	0.297027	99
Es	1.907434	1.229192	-0.312286	99
Es	1.795371	1.353159	0.179842	99
Es	0.263964	-1.154659	-1.407453	99
Es	0.303315	0.275361	1.696539	99
39
Properties=species:S:1:pos:R:3:Z:I:1 energy=-286.07605335829555 field_type=dipole dipole="0.000000 0.000000 0.000000" charge=0
C	-1.666705	0.041625	-0.024597	6
C	-0.175184	-0.053385	0.162073	6
N	0.291036	-0.058855	1.570223	7
C	0.625096	-0.836235	-0.850097	6
C	0.701005	0.661115	-0.851787	6
O	1.907776	1.229195	-0.312427	8
H	-1.947064	0.066575	-1.083037	1
H	-2.052875	0.951175	0.446893	1
H	-2.162575	-0.821165	0.432343	1
H	1.216176	-0.485135	1.629153	1
H	-0.310674	-0.660845	2.133873	1
H	0.102206	-1.310225	-1.672727	1
H	1.504845	-1.381975	-0.530917	1
H	0.222235	1.189395	-1.669347	1
H	1.744705	1.468745	0.620383	1
Es	-1.924917	0.659131	0.297041	99
Es	0.701170	0.661053	-0.851619	99
Es	-1.666671	0.041615	-0.024594	99
Es	1.907444	1.229166	-0.312231	99
Es	0.157631	-0.624071	-0.283613	99
Es	2.099258	1.001971	-0.301963	99
Es	-1.999741	-0.549627	0.290443	99
Es	-0.175043	-0.053407	0.162101	99
Es	0.625046	-0.836094	-0.850049	99
Es	-1.843137	0.056903	-0.746017	99
Es	0.098203	-0.083988	0.955783	99
Es	0.291037	-0.059370	1.569980	99
Es	0.199661	0.478699	-0.275787	99
Es	1.961431	1.486514	-0.476614	99
Es	-0.075579	-0.432694	1.893453	99
Es	0.304462	0.275411	1.696366	99
Es	1.796034	1.351915	0.180869	99
Es	0.264236	-1.154594	-1.407450	99
Es	1.441433	1.011064	-0.494773	99
Es	1.214674	-1.198341	-0.623319	99
Es	0.835600	-0.328922	1.588964	99
Es	0.377863	1.022459	-1.406055	99
Es	0.777840	-0.106797	-1.003371	99
Es	-0.920933	-0.010802	0.068907	99
39
Properties=species:S:1:pos:R:3:Z:I:1 energy=-286.07605335829555 field_type=dipole dipole="0.000000 0.000000 0.000000" charge=0
C	-1.666705	0.041625	-0.024597	6
C	-0.175184	-0.053385	0.162073	6
N	0.291036	-0.058855	1.570223	7
C	0.625096	-0.836235	-0.850097	6
C	0.701005	0.661115	-0.851787	6
O	1.907776	1.229195	-0.312427	8
H	-1.947064	0.066575	-1.083037	1
H	-2.052875	0.951175	0.446893	1
H	-2.162575	-0.821165	0.432343	1
H	1.216176	-0.485135	1.629153	1
H	-0.310674	-0.660845	2.133873	1
H	0.102206	-1.310225	-1.672727	1
H	1.504845	-1.381975	-0.530917	1
H	0.222235	1.189395	-1.669347	1
H	1.744705	1.468745	0.620383	1
Es	1.967594	1.484385	-0.479537	99
Es	0.701180	0.661043	-0.851628	99
Es	-0.175045	-0.053401	0.162104	99
Es	0.625045	-0.836093	-0.850049	99
Es	-1.666674	0.041615	-0.024597	99
Es	0.199505	0.478661	-0.275548	99
Es	0.157306	-0.624064	-0.283407	99
Es	1.907474	1.229195	-0.312261	99
Es	-1.924886	0.659233	0.297185	99
Es	1.794370	1.354600	0.180242	99
Es	-0.920974	-0.010655	0.068903	99
Es	-1.999635	-0.549659	0.290404	99
Es	1.441607	1.012969	-0.495385	99
Es	2.094392	0.999485	-0.297855	99
Es	-1.843056	0.056881	-0.746095	99
Es	0.098407	-0.084546	0.955927	99
Es	0.377961	1.022399	-1.405970	99
Es	-0.075862	-0.432455	1.893756	99
Es	0.264406	-1.154509	-1.407399	99
Es	1.214602	-1.198279	-0.623446	99
Es	0.291041	-0.059381	1.569990	99
Es	0.835619	-0.328796	1.589167	99
Es	0.778197	-0.107036	-1.003777	99
Es	0.304424	0.275603	1.695727	99
39
Properties=species:S:1:pos:R:3:Z:I:1 energy=-286.07605335829555 field_type=dipole dipole="0.000000 0.000000 0.000000" charge=0
C	-1.666705	0.041625	-0.024597	6
C	-0.175184	-0.053385	0.162073	6
N	0.291036	-0.058855	1.570223	7
C	0.625096	-0.836235	-0.850097	6
C	0.701005	0.661115	-0.851787	6
O	1.907776	1.229195	-0.312427	8
H	-1.947064	0.066575	-1.083037	1
H	-2.052875	0.951175	0.446893	1
H	-2.162575	-0.821165	0.432343	1
H	1.216176	-0.485135	1.629153	1
H	-0.310674	-0.660845	2.133873	1
H	0.102206	-1.310225	-1.672727	1
H	1.504845	-1.381975	-0.530917	1
H	0.222235	1.189395	-1.669347	1
H	1.744705	1.468745	0.620383	1
Es	0.264598	-1.154523	-1.407351	99
Es	0.778375	-0.107069	-1.004050	99
Es	0.701171	0.661051	-0.851619	99
Es	1.441683	1.013583	-0.495299	99
Es	-1.999616	-0.549811	0.290331	99
Es	0.098150	-0.084626	0.956072	99
Es	1.967822	1.484495	-0.479657	99
Es	-1.666670	0.041615	-0.024598	99
Es	0.199157	0.478837	-0.275304	99
Es	1.794458	1.354244	0.180509	99
Es	0.291048	-0.059383	1.569988	99
Es	1.214452	-1.198109	-0.623590	99
Es	-0.076060	-0.432102	1.894473	99
Es	-0.920972	-0.010705	0.068806	99
Es	0.625049	-0.836097	-0.850053	99
Es	0.835033	-0.329073	1.588793	99
Es	2.093863	0.999052	-0.298153	99
Es	0.378122	1.022320	-1.405903	99
Es	-0.175044	-0.053400	0.162103	99
Es	0.157278	-0.624195	-0.283316	99
Es	-1.842852	0.056872	-0.746018	99
Es	0.305315	0.275648	1.695336	99
Es	1.907566	1.229181	-0.312266	99
Es	-1.924926	0.659388	0.297218	99
39
Properties=species:S:1:pos:R:3:Z:I:1 energy=-286.07605335829555 field_type=dipole dipole="0.000000 0.000000 0.000000" charge=0
C	-1.666705	0.041625	-0.024597	6
C	-0.175184	-0.053385	0.162073	6
N	0.291036	-0.058855	1.570223	7
C	0.625096	-0.836235	-0.850097	6
C	0.701005	0.661115	-0.851787	6
O	1.907776	1.229195	-0.312427	8
H	-1.947064	0.066575	-1.083037	1
H	-2.052875	0.951175	0.446893	1
H	-2.162575	-0.821165	0.432343	1
H	1.216176	-0.485135	1.629153	1
H	-0.310674	-0.660845	2.133873	1
H	0.102206	-1.310225	-1.672727	1
H	1.504845	-1.381975	-0.530917	1
H	0.222235	1.189395	-1.669347	1
H	1.744705	1.468745	0.620383	1
Es	0.157075	-0.624347	-0.282869	99
Es	1.214307	-1.197783	-0.623830	99
Es	1.794435	1.353247	0.180840	99
Es	1.963488	1.485746	-0.478734	99
Es	0.378305	1.022184	-1.405909	99
Es	0.264826	-1.154528	-1.407509	99
Es	0.291033	-0.059328	1.570003	99
Es	0.098247	-0.084364	0.956001	99
Es	0.834621	-0.329348	1.588639	99
Es	0.305840	0.275599	1.695463	99
Es	-1.666672	0.041615	-0.024596	99
Es	1.907470	1.229169	-0.312250	99
Es	-1.999599	-0.549970	0.290396	99
Es	2.097299	1.000408	-0.300222	99
Es	-0.175046	-0.053408	0.162107	99
Es	1.442669	1.011925	-0.494610	99
Es	0.701171	0.661049	-0.851620	99
Es	-1.842585	0.056897	-0.746169	99
Es	0.625045	-0.836091	-0.850047	99
Es	0.778468	-0.107128	-1.004068	99
Es	-1.924881	0.659428	0.297200	99
Es	-0.076260	-0.432075	1.894531	99
Es	0.199034	0.478980	-0.275247	99
Es	-0.921288	-0.010683	0.068952	99
39
Properties=species:S:1:pos:R:3:Z:I:1 energy=-286.07605335829555 field_type=dipole dipole="0.000000 0.000000 0.000000" charge=0
C	-1.666705	0.041625	-0.024597	6
C	-0.175184	-0.053385	0.162073	6
N	0.291036	-0.058855	1.570223	7
C	0.625096	-0.836235	-0.850097	6
C	0.701005	0.661115	-0.851787	6
O	1.907776	1.229195	-0.312427	8
H	-1.947064	0.066575	-1.083037	1
H	-2.052875	0.951175	0.446893	1
H	-2.162575	-0.821165	0.432343	1
H	1.216176	-0.485135	1.629153	1
H	-0.310674	-0.660845	2.133873	1
H	0.102206	-1.310225	-1.672727	1
H	1.504845	-1.381975	-0.530917	1
H	0.222235	1.189395	-1.669347	1
H	1.744705	1.468745	0.620383	1
Es	-0.921217	-0.010752	0.068824	99
Es	0.834470	-0.329105	1.588706	99
Es	0.778795	-0.107166	-1.004387	99
Es	1.793805	1.354122	0.180724	99
Es	-1.999495	-0.549859	0.290398	99
Es	-1.666674	0.041614	-0.024595	99
Es	2.095720	0.999762	-0.299002	99
Es	-1.842692	0.056789	-0.746180	99
Es	1.907470	1.229046	-0.312211	99
Es	1.965305	1.485093	-0.479925	99
Es	1.442993	1.012488	-0.494562	99
Es	-0.076333	-0.432134	1.894739	99
Es	0.264977	-1.154371	-1.407386	99
Es	0.156858	-0.624411	-0.282723	99
Es	0.625041	-0.836088	-0.850048	99
Es	0.701170	0.661048	-0.851620	99
Es	-1.924823	0.659546	0.297318	99
Es	1.214158	-1.197818	-0.623968	99
Es	0.378397	1.022121	-1.405850	99
Es	0.098428	-0.084729	0.956138	99
Es	0.305829	0.275879	1.695136	99
Es	-0.175047	-0.053401	0.162112	99
Es	0.198826	0.478904	-0.275171	99
Es	0.291038	-0.059385	1.569987	99
39
Properties=species:S:1:pos:R:3:Z:I:1 energy=-286.07605335829555 field_type=dipole dipole="0.000000 0.000000 0.000000" charge=0
C	-1.666705	0.041625	-0.024597	6
C	-0.175184	-0.053385	0.162073	6
N	0.291036	-0.058855	1.570223	7
C	0.625096	-0.836235	-0.850097	6
C	0.701005	0.661115	-0.851787	6
O	1.907776	1.229195	-0.312427	8
H	-1.947064	0.066575	-1.083037	1
H	-2.052875	0.951175	0.446893	1
H	-2.162575	-0.821165	0.432343	1
H	1.216176	-0.485135	1.629153	1
H	-0.310674	-0.660845	2.133873	1
H	0.102206	-1.310225	-1.672727	1
H	1.504845	-1.381975	-0.530917	1
H	0.222235	1.189395	-1.669347	1
H	1.744705	1.468745	0.620383	1
Es	-1.666672	0.041615	-0.024596	99
Es	0.265012	-1.154479	-1.407345	99
Es	-1.842644	0.056717	-0.746189	99
Es	0.378416	1.022106	-1.405781	99
Es	0.198818	0.478810	-0.274933	99
Es	0.834029	-0.329420	1.588714	99
Es	1.793526	1.354906	0.180545	99
Es	-0.921373	-0.010538	0.068736	99
Es	0.625051	-0.836092	-0.850058	99
Es	1.907470	1.229109	-0.312230	99
Es	0.156810	-0.624386	-0.282685	99
Es	-1.999327	-0.549943	0.290402	99
Es	0.306557	0.276233	1.694017	99
Es	2.092877	0.998005	-0.297412	99
Es	0.098486	-0.085751	0.956279	99
Es	1.214159	-1.197702	-0.623977	99
Es	0.291038	-0.059322	1.570008	99
Es	1.968696	1.484232	-0.481157	99
Es	0.778912	-0.107210	-1.004636	99
Es	1.442617	1.014243	-0.494814	99
Es	0.701169	0.661041	-0.851622	99
Es	-0.175046	-0.053391	0.162108	99
Es	-1.924866	0.659651	0.297407	99
Es	-0.076713	-0.431239	1.895670	99
39
Properties=species:S:1:pos:R:3:Z:I:1 energy=-286.07605335829555 field_type=dipole dipole="0.000000 0.000000 0.000000" charge=0
C	-1.666705	0.041625	-0.024597	6
C	-0.175184	-0.053385	0.162073	6
N	0.291036	-0.058855	1.570223	7
C	0.625096	-0.836235	-0.850097	6
C	0.701005	0.661115	-0.851787	6
O	1.907776	1.229195	-0.312427	8
H	-1.947064	0.066575	-1.083037	1
H	-2.052875	0.951175	0.446893	1
H	-2.162575	-0.821165	0.432343	1
H	1.216176	-0.485135	1.629153	1
H	-0.310674	-0.660845	2.133873	1
H	0.102206	-1.310225	-1.672727	1
H	1.504845	-1.381975	-0.530917	1
H	0.222235	1.189395	-1.669347	1
H	1.744705	1.468745	0.620383	1
Es	0.378511	1.021994	-1.405648	99
Es	0.701168	0.661046	-0.851619	99
Es	1.214120	-1.197731	-0.624059	99
Es	0.098430	-0.085112	0.956288	99
Es	1.442830	1.015476	-0.495245	99
Es	0.291033	-0.059315	1.570007	99
Es	-0.175045	-0.053400	0.162105	99
Es	2.089819	0.997073	-0.295766	99
Es	0.156905	-0.624185	-0.282769	99
Es	0.265060	-1.154386	-1.407313	99
Es	0.198476	0.479118	-0.274773	99
Es	1.792960	1.355659	0.180643	99
Es	0.779005	-0.107548	-1.004808	99
Es	0.306564	0.275926	1.694509	99
Es	-1.666674	0.041614	-0.024596	99
Es	1.907488	1.229153	-0.312268	99
Es	-0.076715	-0.431593	1.895381	99
Es	0.625045	-0.836095	-0.850047	99
Es	-0.921434	-0.010770	0.068771	99
Es	1.972107	1.483154	-0.482471	99
Es	0.834077	-0.329448	1.588525	99
Es	-1.842456	0.056698	-0.746101	99
Es	-1.999422	-0.549971	0.290284	99
Es	-1.924851	0.659835	0.297423	99
39
Properties=species:S:1:pos:R:3:Z:I:1 energy=-286.07605335829555 field_type=dipole dipole="0.000000 0.000000 0.000000" charge=0
C	-1.666705	0.041625	-0.024597	6
C	-0.175184	-0.053385	0.162073	6
N	0.291036	-0.058855	1.570223	7
C	0.625096	-0.836235	-0.850097	6
C	0.701005	0.661115	-0.851787	6
O	1.907776	1.229195	-0.312427	8
H	-1.947064	0.066575	-1.083037	1
H	-2.052875	0.951175	0.446893	1
H	-2.162575	-0.821165	0.432343	1
H	1.216176	-0.485135	1.629153	1
H	-0.310674	-0.660845	2.133873	1
H	0.102206	-1.310225	-1.672727	1
H	1.504845	-1.381975	-0.530917	1
H	0.222235	1.189395	-1.669347	1
H	1.744705	1.468745	0.620383	1
Es	1.907433	1.229183	-0.312255	99
Es	0.701168	0.661045	-0.851620	99
Es	-1.842420	0.056748	-0.746311	99
Es	0.833997	-0.329250	1.588678	99
Es	0.291041	-0.059373	1.569980	99
Es	0.625049	-0.836091	-0.850054	99
Es	-1.924728	0.659749	0.297455	99
Es	0.156736	-0.624517	-0.282589	99
Es	0.098614	-0.085316	0.956214	99
Es	0.306647	0.275812	1.694094	99
Es	-0.921633	-0.010599	0.068814	99
Es	-0.076955	-0.431430	1.895718	99
Es	-1.666673	0.041614	-0.024596	99
Es	1.213894	-1.197573	-0.624179	99
Es	0.779176	-0.107366	-1.004776	99
Es	0.265230	-1.154356	-1.407385	99
Es	1.443669	1.012583	-0.494344	99
Es	-1.999354	-0.550029	0.290428	99
Es	1.965996	1.484739	-0.481088	99
Es	-0.175047	-0.053394	0.162111	99
Es	0.378681	1.021926	-1.405711	99
Es	0.198436	0.479203	-0.274617	99
Es	2.094702	0.999295	-0.298435	99
Es	1.793341	1.354590	0.180919	99
39
Properties=species:S:1:pos:R:3:Z:I:1 energy=-286.07605335829555 field_type=dipole dipole="0.000000 0.000000 0.000000" charge=0
C	-1.666705	0.041625	-0.024597	6
C	-0.175184	-0.053385	0.162073	6
N	0.291036	-0.058855	1.570223	7
C	0.625096	-0.836235	-0.850097	6
C	0.701005	0.661115	-0.851787	6
O	1.907776	1.229195	-0.312427	8
H	-1.947064	0.066575	-1.083037	1
H	-2.052875	0.951175	0.446893	1
H	-2.162575	-0.821165	0.432343	1
H	1.216176	-0.485135	1.629153	1
H	-0.310674	-0.660845	2.133873	1
H	0.102206	-1.310225	-1.672727	1
H	1.504845	-1.381975	-0.530917	1
H	0.222235	1.189395	-1.669347	1
H	1.744705	1.468745	0.620383	1
Es	1.969016	1.483801	-0.482432	99
Es	0.779249	-0.107592	-1.004993	99
Es	-0.076883	-0.431726	1.895579	99
Es	-1.842285	0.056667	-0.746248	99
Es	0.098656	-0.085194	0.956229	99
Es	1.214010	-1.197632	-0.624241	99
Es	1.443920	1.013402	-0.494624	99
Es	1.792679	1.355427	0.180858	99
Es	0.291054	-0.059359	1.569993	99
Es	-0.175047	-0.053403	0.162109	99
Es	-1.924885	0.659866	0.297491	99
Es	0.701173	0.661046	-0.851623	99
Es	0.306415	0.275842	1.694199	99
Es	0.834041	-0.329039	1.588687	99
Es	0.625047	-0.836092	-0.850050	99
Es	-1.666671	0.041614	-0.024596	99
Es	0.265238	-1.154265	-1.407312	99
Es	0.378658	1.021942	-1.405681	99
Es	-0.921630	-0.010622	0.068827	99
Es	2.092071	0.998516	-0.296753	99
Es	0.198363	0.479090	-0.274569	99
Es	-1.999286	-0.550057	0.290295	99
Es	0.156694	-0.624304	-0.282463	99
Es	1.907405	1.229266	-0.312232	99
39
Properties=species:S:1:pos:R:3:Z:I:1 energy=-286.07605335829555 field_type=dipole dipole="0.000000 0.000000 0.000000" charge=0
C	-1.666705	0.041625	-0.024597	6
C	-0.175184	-0.053385	0.162073	6
N	0.291036	-0.058855	1.570223	7
C	0.625096	-0.836235	-0.850097	6
C	0.701005	0.661115	-0.851787	6
O	1.907776	1.229195	-0.312427	8
H	-1.947064	0.066575	-1.083037	1
H	-2.052875	0.951175	0.446893	1
H	-2.162575	-0.821165	0.432343	1
H	1.216176	-0.485135	1.629153	1
H	-0.310674	-0.660845	2.133873	1
H	0.102206	-1.310225	-1.672727	1
H	1.504845	-1.381975	-0.530917	1
H	0.222235	1.189395	-1.669347	1
H	1.744705	1.468745	0.620383	1
Es	1.968142	1.484361	-0.482017	99
Es	1.444420	1.013236	-0.494690	99
Es	0.701170	0.661048	-0.851619	99
Es	0.265409	-1.154411	-1.407352	99
Es	-1.924837	0.659813	0.297512	99
Es	-1.666672	0.041615	-0.024596	99
Es	0.098525	-0.085059	0.956269	99
Es	0.156645	-0.624632	-0.282384	99
Es	-0.077048	-0.431449	1.895840	99
Es	0.779163	-0.107508	-1.004938	99
Es	0.291049	-0.059373	1.569983	99
Es	1.792130	1.354828	0.180850	99
Es	-0.175046	-0.053403	0.162107	99
Es	1.907406	1.229291	-0.312245	99
Es	0.378818	1.021781	-1.405701	99
Es	-1.999230	-0.549990	0.290380	99
Es	-0.921580	-0.010611	0.068858	99
Es	0.306916	0.275775	1.694093	99
Es	1.213930	-1.197338	-0.624309	99
Es	-1.842369	0.056645	-0.746350	99
Es	0.625047	-0.836094	-0.850051	99
Es	0.198197	0.479341	-0.274534	99
Es	0.833817	-0.329351	1.588492	99
Es	2.092998	0.998679	-0.297147	99
39
Properties=species:S:1:pos:R:3:Z:I:1 energy=-286.07605335829555 field_type=dipole dipole="0.000000 0.000000 0.000000" charge=0
C	-1.666705	0.041625	-0.024597	6
C	-0.175184	-0.053385	0.162073	6
N	0.291036	-0.058855	1.570223	7
C	0.625096	-0.836235	-0.850097	6
C	0.701005	0.661115	-0.851787	6
O	1.907776	1.229195	-0.312427	8
H	-1.947064	0.066575	-1.083037	1
H	-2.052875	0.951175	0.446893	1
H	-2.162575	-0.821165	0.432343	1
H	1.216176	-0.485135	1.629153	1
H	-0.310674	-0.660845	2.133873	1
H	0.102206	-1.310225	-1.672727	1
H	1.504845	-1.381975	-0.530917	1
H	0.222235	1.189395	-1.669347	1
H	1.744705	1.468745	0.620383	1
Es	0.098449	-0.085116	0.956259	99
Es	2.090124	0.997567	-0.295024	99
Es	1.791983	1.356659	0.180485	99
Es	0.701167	0.661046	-0.851618	99
Es	-0.175048	-0.053399	0.162103	99
Es	1.443912	1.014181	-0.494884	99
Es	0.198199	0.479262	-0.274345	99
Es	0.779399	-0.107654	-1.005202	99
Es	0.307153	0.275716	1.693918	99
Es	-1.666672	0.041615	-0.024596	99
Es	-1.924825	0.659935	0.297582	99
Es	0.291031	-0.059360	1.569985	99
Es	-1.999203	-0.550076	0.290323	99
Es	-0.077130	-0.431237	1.896046	99
Es	1.907455	1.229124	-0.312278	99
Es	-0.921683	-0.010576	0.068790	99
Es	0.378752	1.021881	-1.405581	99
Es	0.625047	-0.836095	-0.850051	99
Es	0.265392	-1.154218	-1.407261	99
Es	1.213906	-1.197542	-0.624355	99
Es	-1.842280	0.056640	-0.746291	99
Es	1.971540	1.482817	-0.483584	99
Es	0.156604	-0.624526	-0.282427	99
Es	0.833726	-0.329450	1.588458	99
39
Properties=species:S:1:pos:R:3:Z:I:1 energy=-286.07605335829555 field_type=dipole dipole="0.000000 0.000000 0.000000" charge=0
C	-1.666705	0.041625	-0.024597	6
C	-0.175184	-0.053385	0.162073	6
N	0.291036	-0.058855	1.570223	7
C	0.625096	-0.836235	-0.850097	6
C	0.701005	0.661115	-0.851787	6
O	1.907776	1.229195	-0.312427	8
H	-1.947064	0.066575	-1.083037	1
H	-2.052875	0.951175	0.446893	1
H	-2.162575	-0.821165	0.432343	1
H	1.216176	-0.485135	1.629153	1
H	-0.310674	-0.660845	2.133873	1
H	0.102206	-1.310225	-1.672727	1
H	1.504845	-1.381975	-0.530917	1
H	0.222235	1.189395	-1.669347	1
H	1.744705	1.468745	0.620383	1
Es	1.444519	1.013478	-0.493761	99
Es	1.907475	1.229121	-0.312248	99
Es	0.378779	1.021835	-1.405485	99
Es	0.701171	0.661053	-0.851619	99
Es	-0.175045	-0.053400	0.162106	99
Es	0.307127	0.275994	1.693180	99
Es	-1.999242	-0.550131	0.290344	99
Es	-0.077375	-0.431140	1.896489	99
Es	-1.924830	0.660001	0.297506	99
Es	-0.921797	-0.010565	0.068761	99
Es	0.098809	-0.085835	0.956436	99
Es	0.625047	-0.836096	-0.850051	99
Es	0.291050	-0.059376	1.569982	99
Es	0.779789	-0.107684	-1.005480	99
Es	0.833591	-0.329120	1.588589	99
Es	0.198253	0.479044	-0.274497	99
Es	1.793228	1.353322	0.181766	99
Es	0.156495	-0.624359	-0.282052	99
Es	0.265524	-1.154529	-1.407379	99
Es	1.964959	1.485498	-0.481136	99
Es	-1.842176	0.056609	-0.746249	99
Es	-1.666672	0.041615	-0.024596	99
Es	2.094814	0.999032	-0.299819	99
Es	1.213508	-1.197171	-0.624335	99
39
Properties=species:S:1:pos:R:3:Z:I:1 energy=-286.07605335829555 field_type=dipole dipole="0.000000 0.000000 0.000000" charge=0
C	-1.666705	0.041625	-0.024597	6
C	-0.175184	-0.053385	0.162073	6
N	0.291036	-0.058855	1.570223	7
C	0.625096	-0.836235	-0.850097	6
C	0.701005	0.661115	-0.851787	6
O	1.907776	1.229195	-0.312427	8
H	-1.947064	0.066575	-1.083037	1
H	-2.052875	0.951175	0.446893	1
H	-2.162575	-0.821165	0.432343	1
H	1.216176	-0.485135	1.629153	1
H	-0.310674	-0.660845	2.133873	1
H	0.102206	-1.310225	-1.672727	1
H	1.504845	-1.381975	-0.530917	1
H	0.222235	1.189395	-1.669347	1
H	1.744705	1.468745	0.620383	1
Es	0.291023	-0.059327	1.569994	99
Es	-1.924817	0.659951	0.297560	99
Es	-0.175046	-0.053399	0.162107	99
Es	0.265508	-1.154379	-1.407379	99
Es	1.970107	1.483359	-0.484127	99
Es	0.307297	0.275923	1.693487	99
Es	-0.077391	-0.430994	1.896237	99
Es	1.444765	1.013920	-0.493951	99
Es	0.833655	-0.329549	1.588507	99
Es	0.156596	-0.624331	-0.282263	99
Es	1.907491	1.229206	-0.312210	99
Es	1.791810	1.356462	0.180551	99
Es	0.098623	-0.085526	0.956486	99
Es	-0.921627	-0.010658	0.068831	99
Es	0.378892	1.021785	-1.405626	99
Es	1.213678	-1.197256	-0.624410	99
Es	-1.999240	-0.550064	0.290316	99
Es	0.701164	0.661050	-0.851616	99
Es	0.197928	0.479251	-0.274259	99
Es	2.090848	0.997393	-0.295534	99
Es	-1.842230	0.056633	-0.746301	99
Es	-1.666674	0.041615	-0.024597	99
Es	0.625048	-0.836095	-0.850051	99
Es	0.779592	-0.107777	-1.005300	99
39
Properties=species:S:1:pos:R:3:Z:I:1 energy=-286.07605335829555 field_type=dipole dipole="0.000000 0.000000 0.000000" charge=0
C	-1.666705	0.041625	-0.024597	6
C	-0.175184	-0.053385	0.162073	6
N	0.291036	-0.058855	1.570223	7
C	0.625096	-0.836235	-0.850097	6
C	0.701005	0.661115	-0.851787	6
O	1.907776	1.229195	-0.312427	8
H	-1.947064	0.066575	-1.083037	1
H	-2.052875	0.951175	0.446893	1
H	-2.162575	-0.821165	0.432343	1
H	1.216176	-0.485135	1.629153	1
H	-0.310674	-0.660845	2.133873	1
H	0.102206	-1.310225	-1.672727	1
H	1.504845	-1.381975	-0.530917	1
H	0.222235	1.189395	-1.669347	1
H	1.744705	1.468745	0.620383	1
Es	2.090926	0.998528	-0.295713	99
Es	1.213668	-1.197306	-0.624487	99
Es	0.701169	0.661047	-0.851619	99
Es	-1.924813	0.660053	0.297624	99
Es	0.779651	-0.107880	-1.005302	99
Es	1.791833	1.356118	0.180868	99
Es	0.378974	1.021717	-1.405557	99
Es	0.265565	-1.154250	-1.407355	99
Es	0.834104	-0.329425	1.588556	99
Es	0.625046	-0.836094	-0.850050	99
Es	-1.842052	0.056655	-0.746301	99
Es	-0.921844	-0.010675	0.068733	99
Es	1.907419	1.229244	-0.312256	99
Es	0.098490	-0.085054	0.956557	99
Es	-0.175046	-0.053402	0.162108	99
Es	-1.666673	0.041614	-0.024596	99
Es	0.197749	0.479486	-0.274118	99
Es	0.306978	0.275453	1.693449	99
Es	1.969841	1.483433	-0.484081	99
Es	-0.077495	-0.430983	1.896216	99
Es	0.156728	-0.624469	-0.282338	99
Es	0.291049	-0.059411	1.569976	99
Es	1.444916	1.013007	-0.494134	99
Es	-1.999182	-0.550213	0.290273	99
39
Properties=species:S:1:pos:R:3:Z:I:1 energy=-286.07605335829555 field_type=dipole dipole="0.000000 0.000000 0.000000" charge=0
C	-1.666705	0.041625	-0.024597	6
C	-0.175184	-0.053385	0.162073	6
N	0.291036	-0.058855	1.570223	7
C	0.625096	-0.836235	-0.850097	6
C	0.701005	0.661115	-0.851787	6
O	1.907776	1.229195	-0.312427	8
H	-1.947064	0.066575	-1.083037	1
H	-2.052875	0.951175	0.446893	1
H	-2.162575	-0.821165	0.432343	1
H	1.216176	-0.485135	1.629153	1
H	-0.310674	-0.660845	2.133873	1
H	0.102206	-1.310225	-1.672727	1
H	1.504845	-1.381975	-0.530917	1
H	0.222235	1.189395	-1.669347	1
H	1.744705	1.468745	0.620383	1
Es	1.791955	1.355813	0.180871	99
Es	0.265604	-1.154615	-1.407381	99
Es	-0.921813	-0.010576	0.068787	99
Es	-1.999103	-0.550185	0.290268	99
Es	0.098587	-0.085433	0.956222	99
Es	1.213637	-1.196953	-0.624448	99
Es	1.907465	1.229084	-0.312210	99
Es	0.379012	1.021630	-1.405470	99
Es	0.291048	-0.059363	1.569984	99
Es	-1.842106	0.056605	-0.746307	99
Es	0.625043	-0.836095	-0.850049	99
Es	1.444969	1.014117	-0.493675	99
Es	-1.666673	0.041615	-0.024596	99
Es	2.091719	0.997452	-0.296551	99
Es	0.156589	-0.624538	-0.282118	99
Es	0.833519	-0.329353	1.588575	99
Es	0.197884	0.479477	-0.274205	99
Es	1.968850	1.483891	-0.483787	99
Es	-1.924882	0.660038	0.297644	99
Es	-0.175046	-0.053400	0.162108	99
Es	0.701170	0.661048	-0.851621	99
Es	0.307492	0.275475	1.693229	99
Es	0.779589	-0.107730	-1.005492	99
Es	-0.077508	-0.430809	1.896671	99
39
Properties=species:S:1:pos:R:3:Z:I:1 energy=-286.07605335829555 field_type=dipole dipole="0.000000 0.000000 0.000000" charge=0
C	-1.666705	0.041625	-0.024597	6
C	-0.175184	-0.053385	0.162073	6
N	0.291036	-0.058855	1.570223	7
C	0.625096	-0.836235	-0.850097	6
C	0.701005	0.661115	-0.851787	6
O	1.907776	1.229195	-0.312427	8
H	-1.947064	0.066575	-1.083037	1
H	-2.052875	0.951175	0.446893	1
H	-2.162575	-0.821165	0.432343	1
H	1.216176	-0.485135	1.629153	1
H	-0.310674	-0.660845	2.133873	1
H	0.102206	-1.310225	-1.672727	1
H	1.504845	-1.381975	-0.530917	1
H	0.222235	1.189395	-1.669347	1
H	1.744705	1.468745	0.620383	1
Es	0.265643	-1.154329	-1.407263	99
Es	0.701171	0.661047	-0.851620	99
Es	0.625045	-0.836096	-0.850050	99
Es	2.090112	0.996808	-0.295039	99
Es	0.378982	1.021697	-1.405525	99
Es	1.444369	1.014617	-0.494271	99
Es	0.098501	-0.085745	0.956689	99
Es	1.907403	1.229241	-0.312241	99
Es	0.779783	-0.107850	-1.005581	99
Es	-0.077665	-0.430517	1.896896	99
Es	0.156485	-0.624425	-0.282088	99
Es	0.307782	0.275867	1.692887	99
Es	-1.999093	-0.550238	0.290254	99
Es	-1.842032	0.056639	-0.746338	99
Es	0.291046	-0.059400	1.569972	99