42
Properties=species:S:1:pos:R:3:Z:I:1 energy=-287.2922583064605 field_type=dipole dipole="0.000000 0.000000 0.000000" charge=0
C	-1.796992	-0.319050	-0.247007	6
C	-0.270242	-0.327390	-0.197277	6
C	0.214118	-1.161640	0.990103	6
O	0.206018	-0.954710	-1.394937	8
C	0.277838	1.120550	-0.161737	6
N	1.736208	1.148930	-0.359697	7
H	-2.156042	0.220560	-1.131057	1
H	-2.226692	0.150100	0.644383	1
H	-2.191822	-1.338390	-0.328477	1
H	-0.080902	-0.712000	1.944093	1
H	1.303158	-1.281100	0.981363	1
H	-0.199222	-2.176280	0.944843	1
H	1.096268	-0.568270	-1.538117	1
H	0.017548	1.617500	0.779463	1
H	-0.166212	1.697570	-0.981017	1
H	2.196758	0.761370	0.464213	1
H	2.040208	2.122250	-0.409137	1
Es	-0.020633	-0.739565	0.417659	99
Es	0.011135	-0.846741	1.641788	99
Es	1.736065	1.149151	-0.359319	99
Es	-0.072201	-1.844161	0.958536	99
Es	0.214126	-1.161623	0.990119	99
Es	1.908335	1.738191	-0.376441	99
Es	-2.081541	0.003558	0.366201	99
Es	0.041168	-0.705917	-0.938992	99
Es	1.827563	0.960280	-0.657229	99
Es	-2.058658	-1.011571	-0.293692	99
Es	2.002616	0.925357	0.149639	99
Es	-1.796979	-0.319039	-0.246988	99
Es	-0.270171	-0.327459	-0.197433	99
Es	-1.041636	-0.316695	-0.216021	99
Es	0.091342	1.457368	0.493126	99
Es	-0.027157	1.514430	-0.720308	99
Es	0.206163	-0.954506	-1.394759	99
Es	1.113108	1.143786	-0.249269	99
Es	0.013245	0.405726	-0.167456	99
Es	0.960551	-1.228712	0.983421	99
Es	0.027048	-0.849947	-1.623109	99
Es	0.278005	1.120535	-0.161743	99
Es	0.236161	-1.254286	-1.329444	99
Es	-2.036252	0.056361	-0.843637	99
Es	0.673703	-0.750357	-1.457240	99
42
Properties=species:S:1:pos:R:3:Z:I:1 energy=-287.2922583064605 field_type=dipole dipole="0.000000 0.000000 0.000000" charge=0
C	-1.796992	-0.319050	-0.247007	6
C	-0.270242	-0.327390	-0.197277	6
C	0.214118	-1.161640	0.990103	6
O	0.206018	-0.954710	-1.394937	8
C	0.277838	1.120550	-0.161737	6
N	1.736208	1.148930	-0.359697	7
H	-2.156042	0.220560	-1.131057	1
H	-2.226692	0.150100	0.644383	1
H	-2.191822	-1.338390	-0.328477	1
H	-0.080902	-0.712000	1.944093	1
H	1.303158	-1.281100	0.981363	1
H	-0.199222	-2.176280	0.944843	1
H	1.096268	-0.568270	-1.538117	1
H	0.017548	1.617500	0.779463	1
H	-0.166212	1.697570	-0.981017	1
H	2.196758	0.761370	0.464213	1
H	2.040208	2.122250	-0.409137	1
Es	1.112869	1.143625	-0.249525	99
Es	0.011214	-0.846505	1.641640	99
Es	-2.058975	-1.011848	-0.294030	99
Es	-0.270168	-0.327460	-0.197434	99
Es	-0.072535	-1.844625	0.958328	99
Es	1.828181	0.959634	-0.656793	99
Es	0.214128	-1.161623	0.990117	99
Es	-2.036043	0.056343	-0.843067	99
Es	0.091253	1.457628	0.493011	99
Es	1.908744	1.738561	-0.376483	99
Es	0.278004	1.120534	-0.161743	99
Es	0.013214	0.405651	-0.167479	99
Es	0.232539	-1.256826	-1.332977	99
Es	-2.081546	0.003699	0.366141	99
Es	0.960581	-1.228365	0.983233	99
Es	0.040826	-0.706514	-0.938814	99
Es	0.674718	-0.751158	-1.456529	99
Es	0.029993	-0.846119	-1.620446	99
Es	2.001919	0.925999	0.149287	99
Es	-1.796978	-0.319039	-0.246988	99
Es	-0.020544	-0.739560	0.417865	99
Es	-1.041603	-0.316785	-0.216049	99
Es	1.736047	1.149182	-0.359242	99
Es	-0.026910	1.514242	-0.719889	99
Es	0.206177	-0.954506	-1.394723	99
42
Properties=species:S:1:pos:R:3:Z:I:1 energy=-287.2922583064605 field_type=dipole dipole="0.000000 0.000000 0.000000" charge=0
C	-1.796992	-0.319050	-0.247007	6
C	-0.270242	-0.327390	-0.197277	6
C	0.214118	-1.161640	0.990103	6
O	0.206018	-0.954710	-1.394937	8
C	0.277838	1.120550	-0.161737	6
N	1.736208	1.148930	-0.359697	7
H	-2.156042	0.220560	-1.131057	1
H	-2.226692	0.150100	0.644383	1
H	-2.191822	-1.338390	-0.328477	1
H	-0.080902	-0.712000	1.944093	1
H	1.303158	-1.281100	0.981363	1
H	-0.199222	-2.176280	0.944843	1
H	1.096268	-0.568270	-1.538117	1
H	0.017548	1.617500	0.779463	1
H	-0.166212	1.697570	-0.981017	1
H	2.196758	0.761370	0.464213	1
H	2.040208	2.122250	-0.409137	1
Es	0.039876	-0.706030	-0.939361	99
Es	0.030693	-0.846898	-1.620090	99
Es	0.278000	1.120536	-0.161744	99
Es	2.001332	0.926716	0.149257	99
Es	0.960655	-1.228298	0.983015	99
Es	0.232105	-1.256608	-1.332709	99
Es	-0.270169	-0.327459	-0.197430	99
Es	0.011282	-0.846146	1.641555	99
Es	-2.059178	-1.012113	-0.294068	99
Es	-0.020500	-0.739843	0.417895	99
Es	-0.072843	-1.844787	0.958318	99
Es	-0.026722	1.514070	-0.719663	99
Es	1.112666	1.143332	-0.249914	99
Es	-1.041593	-0.316700	-0.216010	99
Es	-2.035845	0.056125	-0.842782	99
Es	0.091135	1.457820	0.492947	99
Es	0.206212	-0.954491	-1.394711	99
Es	0.013265	0.405656	-0.167401	99
Es	-1.796979	-0.319039	-0.246987	99
Es	1.909025	1.738794	-0.376807	99
Es	0.675349	-0.751082	-1.456606	99
Es	0.214126	-1.161623	0.990118	99
Es	1.828782	0.959046	-0.656114	99
Es	1.736045	1.149197	-0.359226	99
Es	-2.081614	0.003991	0.365931	99
42
Properties=species:S:1:pos:R:3:Z:I:1 energy=-287.2922583064605 field_type=dipole dipole="0.000000 0.000000 0.000000" charge=0
C	-1.796992	-0.319050	-0.247007	6
C	-0.270242	-0.327390	-0.197277	6
C	0.214118	-1.161640	0.990103	6
O	0.206018	-0.954710	-1.394937	8
C	0.277838	1.120550	-0.161737	6
N	1.736208	1.148930	-0.359697	7
H	-2.156042	0.220560	-1.131057	1
H	-2.226692	0.150100	0.644383	1
H	-2.191822	-1.338390	-0.328477	1
H	-0.080902	-0.712000	1.944093	1
H	1.303158	-1.281100	0.981363	1
H	-0.199222	-2.176280	0.944843	1
H	1.096268	-0.568270	-1.538117	1
H	0.017548	1.617500	0.779463	1
H	-0.166212	1.697570	-0.981017	1
H	2.196758	0.761370	0.464213	1
H	2.040208	2.122250	-0.409137	1
Es	-1.041641	-0.316665	-0.216080	99
Es	0.214127	-1.161624	0.990119	99
Es	0.278001	1.120537	-0.161744	99
Es	-0.270169	-0.327461	-0.197436	99
Es	0.040428	-0.706751	-0.938747	99
Es	-2.059282	-1.012298	-0.294015	99
Es	-0.072942	-1.844926	0.958319	99
Es	0.674863	-0.749568	-1.458325	99
Es	1.736059	1.149168	-0.359277	99
Es	0.960732	-1.228149	0.983021	99
Es	-0.020414	-0.739806	0.417968	99
Es	1.908962	1.738997	-0.376384	99
Es	0.029645	-0.847795	-1.618782	99
Es	-0.026568	1.513975	-0.719488	99
Es	2.001197	0.926832	0.148860	99
Es	-2.081555	0.004180	0.365833	99
Es	0.206212	-0.954491	-1.394707	99
Es	-1.796979	-0.319040	-0.246987	99
Es	-2.035825	0.055976	-0.842606	99
Es	0.091100	1.457975	0.492900	99
Es	0.233094	-1.256512	-1.332885	99
Es	1.112767	1.143216	-0.249600	99
Es	0.013109	0.405603	-0.167489	99
Es	1.828904	0.958895	-0.656459	99
Es	0.011278	-0.846105	1.641400	99
42
Properties=species:S:1:pos:R:3:Z:I:1 energy=-287.2922583064605 field_type=dipole dipole="0.000000 0.000000 0.000000" charge=0
C	-1.796992	-0.319050	-0.247007	6
C	-0.270242	-0.327390	-0.197277	6
C	0.214118	-1.161640	0.990103	6
O	0.206018	-0.954710	-1.394937	8
C	0.277838	1.120550	-0.161737	6
N	1.736208	1.148930	-0.359697	7
H	-2.156042	0.220560	-1.131057	1
H	-2.226692	0.150100	0.644383	1
H	-2.191822	-1.338390	-0.328477	1
H	-0.080902	-0.712000	1.944093	1
H	1.303158	-1.281100	0.981363	1
H	-0.199222	-2.176280	0.944843	1
H	1.096268	-0.568270	-1.538117	1
H	0.017548	1.617500	0.779463	1
H	-0.166212	1.697570	-0.981017	1
H	2.196758	0.761370	0.464213	1
H	2.040208	2.122250	-0.409137	1
Es	0.231776	-1.256479	-1.334101	99
Es	0.214126	-1.161623	0.990118	99
Es	0.013129	0.405669	-0.167449	99
Es	-2.059460	-1.012486	-0.294209	99
Es	0.960713	-1.227910	0.983097	99
Es	0.011141	-0.846122	1.641365	99
Es	-1.796979	-0.319039	-0.246988	99
Es	-2.035637	0.056041	-0.842355	99
Es	1.829339	0.958583	-0.656236	99
Es	1.736052	1.149186	-0.359239	99
Es	-2.081615	0.004187	0.365666	99
Es	0.030387	-0.845925	-1.619311	99
Es	0.040292	-0.707441	-0.938425	99
Es	0.277998	1.120537	-0.161743	99
Es	-1.041576	-0.316695	-0.215913	99
Es	0.206192	-0.954487	-1.394752	99
Es	-0.026525	1.513899	-0.719327	99
Es	-0.020331	-0.739781	0.418006	99
Es	1.112577	1.143161	-0.249846	99
Es	1.909214	1.739094	-0.376304	99
Es	0.091098	1.458056	0.492832	99
Es	2.000749	0.927177	0.148688	99
Es	-0.072943	-1.845147	0.958079	99
Es	0.675554	-0.750831	-1.456807	99
Es	-0.270168	-0.327460	-0.197434	99
42
Properties=species:S:1:pos:R:3:Z:I:1 energy=-287.2922583064605 field_type=dipole dipole="0.000000 0.000000 0.000000" charge=0
C	-1.796992	-0.319050	-0.247007	6
C	-0.270242	-0.327390	-0.197277	6
C	0.214118	-1.161640	0.990103	6
O	0.206018	-0.954710	-1.394937	8
C	0.277838	1.120550	-0.161737	6
N	1.736208	1.148930	-0.359697	7
H	-2.156042	0.220560	-1.131057	1
H	-2.226692	0.150100	0.644383	1
H	-2.191822	-1.338390	-0.328477	1
H	-0.080902	-0.712000	1.944093	1
H	1.303158	-1.281100	0.981363	1
H	-0.199222	-2.176280	0.944843	1
H	1.096268	-0.568270	-1.538117	1
H	0.017548	1.617500	0.779463	1
H	-0.166212	1.697570	-0.981017	1
H	2.196758	0.761370	0.464213	1
H	2.040208	2.122250	-0.409137	1
Es	-2.059528	-1.012500	-0.294155	99
Es	-0.270168	-0.327460	-0.197434	99
Es	-0.073164	-1.845141	0.958113	99
Es	1.909125	1.739326	-0.375890	99
Es	0.234279	-1.254723	-1.331239	99
Es	1.112606	1.142899	-0.250027	99
Es	1.829911	0.958295	-0.656372	99
Es	-1.796980	-0.319039	-0.246988	99
Es	0.011279	-0.846028	1.641316	99
Es	0.040493	-0.706647	-0.938749	99
Es	0.214126	-1.161623	0.990117	99
Es	-1.041507	-0.316692	-0.215963	99
Es	-2.081544	0.004182	0.365612	99
Es	0.278002	1.120535	-0.161744	99
Es	0.675069	-0.749185	-1.459379	99
Es	0.028242	-0.850038	-1.619225	99
Es	0.206123	-0.954559	-1.394806	99
Es	0.091127	1.458035	0.492818	99
Es	-0.026401	1.514017	-0.719212	99
Es	2.000223	0.927505	0.148630	99
Es	-2.035716	0.056027	-0.842287	99
Es	0.013080	0.405605	-0.167492	99
Es	1.736040	1.149177	-0.359247	99
Es	0.960711	-1.228036	0.983036	99
Es	-0.020323	-0.739769	0.417978	99
42
Properties=species:S:1:pos:R:3:Z:I:1 energy=-287.2922583064605 field_type=dipole dipole="0.000000 0.000000 0.000000" charge=0
C	-1.796992	-0.319050	-0.247007	6
C	-0.270242	-0.327390	-0.197277	6
C	0.214118	-1.161640	0.990103	6
O	0.206018	-0.954710	-1.394937	8
C	0.277838	1.120550	-0.161737	6
N	1.736208	1.148930	-0.359697	7
H	-2.156042	0.220560	-1.131057	1
H	-2.226692	0.150100	0.644383	1
H	-2.191822	-1.338390	-0.328477	1
H	-0.080902	-0.712000	1.944093	1
H	1.303158	-1.281100	0.981363	1
H	-0.199222	-2.176280	0.944843	1
H	1.096268	-0.568270	-1.538117	1
H	0.017548	1.617500	0.779463	1
H	-0.166212	1.697570	-0.981017	1
H	2.196758	0.761370	0.464213	1
H	2.040208	2.122250	-0.409137	1
Es	0.278004	1.120535	-0.161747	99
Es	-0.020233	-0.739714	0.417930	99
Es	0.676079	-0.750734	-1.457343	99
Es	0.013220	0.405614	-0.167536	99
Es	0.011204	-0.846006	1.641395	99
Es	0.214126	-1.161624	0.990118	99
Es	0.031772	-0.843361	-1.616479	99
Es	-2.035713	0.055918	-0.842127	99
Es	0.229475	-1.257948	-1.337221	99
Es	-0.026495	1.513882	-0.719157	99
Es	2.000587	0.927283	0.148767	99
Es	-0.073080	-1.845150	0.958036	99
Es	0.091125	1.458061	0.492949	99
Es	1.909319	1.739208	-0.376474	99
Es	-1.796980	-0.319039	-0.246988	99
Es	-1.041537	-0.316627	-0.215999	99
Es	-2.081591	0.004245	0.365635	99
Es	0.960670	-1.227988	0.983029	99
Es	0.040635	-0.708639	-0.937693	99
Es	0.206238	-0.954529	-1.394656	99
Es	1.829587	0.958642	-0.655690	99
Es	1.736056	1.149186	-0.359257	99
Es	-2.059537	-1.012547	-0.294226	99
Es	-0.270165	-0.327460	-0.197436	99
Es	1.112339	1.142954	-0.250419	99
42
Properties=species:S:1:pos:R:3:Z:I:1 energy=-287.2922583064605 field_type=dipole dipole="0.000000 0.000000 0.000000" charge=0
C	-1.796992	-0.319050	-0.247007	6
C	-0.270242	-0.327390	-0.197277	6
C	0.214118	-1.161640	0.990103	6
O	0.206018	-0.954710	-1.394937	8
C	0.277838	1.120550	-0.161737	6
N	1.736208	1.148930	-0.359697	7
H	-2.156042	0.220560	-1.131057	1
H	-2.226692	0.150100	0.644383	1
H	-2.191822	-1.338390	-0.328477	1
H	-0.080902	-0.712000	1.944093	1
H	1.303158	-1.281100	0.981363	1
H	-0.199222	-2.176280	0.944843	1
H	1.096268	-0.568270	-1.538117	1
H	0.017548	1.617500	0.779463	1
H	-0.166212	1.697570	-0.981017	1
H	2.196758	0.761370	0.464213	1
H	2.040208	2.122250	-0.409137	1
Es	0.011259	-0.845868	1.641232	99
Es	-1.796977	-0.319039	-0.246988	99
Es	2.000137	0.927880	0.148851	99
Es	0.039880	-0.706839	-0.938957	99
Es	0.214126	-1.161624	0.990118	99
Es	1.829961	0.958078	-0.655612	99
Es	-2.059657	-1.012612	-0.294389	99
Es	0.091079	1.458142	0.492804	99
Es	-2.081598	0.004304	0.365658	99
Es	0.029702	-0.848335	-1.619100	99
Es	-0.270167	-0.327460	-0.197434	99
Es	-1.041549	-0.316759	-0.215967	99
Es	1.112392	1.142945	-0.250305	99
Es	0.960683	-1.227907	0.983034	99
Es	0.206197	-0.954451	-1.394737	99
Es	0.675712	-0.749978	-1.458037	99
Es	-0.073251	-1.845308	0.958082	99
Es	1.909343	1.739274	-0.376538	99
Es	1.736075	1.149123	-0.359358	99
Es	-0.026341	1.513892	-0.719107	99
Es	-0.020211	-0.739825	0.417923	99
Es	-2.035539	0.055967	-0.842000	99
Es	0.013165	0.405612	-0.167464	99
Es	0.232680	-1.255585	-1.332554	99
Es	0.278002	1.120535	-0.161744	99
42
Properties=species:S:1:pos:R:3:Z:I:1 energy=-287.2922583064605 field_type=dipole dipole="0.000000 0.000000 0.000000" charge=0
C	-1.796992	-0.319050	-0.247007	6
C	-0.270242	-0.327390	-0.197277	6
C	0.214118	-1.161640	0.990103	6
O	0.206018	-0.954710	-1.394937	8
C	0.277838	1.120550	-0.161737	6
N	1.736208	1.148930	-0.359697	7
H	-2.156042	0.220560	-1.131057	1
H	-2.226692	0.150100	0.644383	1
H	-2.191822	-1.338390	-0.328477	1
H	-0.080902	-0.712000	1.944093	1
H	1.303158	-1.281100	0.981363	1
H	-0.199222	-2.176280	0.944843	1
H	1.096268	-0.568270	-1.538117	1
H	0.017548	1.617500	0.779463	1
H	-0.166212	1.697570	-0.981017	1
H	2.196758	0.761370	0.464213	1
H	2.040208	2.122250	-0.409137	1
Es	-2.081525	0.004281	0.365587	99
Es	0.011304	-0.845871	1.641218	99
Es	-0.270168	-0.327460	-0.197434	99
Es	-1.041568	-0.316778	-0.215974	99
Es	0.676778	-0.751752	-1.457110	99
Es	0.227528	-1.258105	-1.339653	99
Es	0.091022	1.458186	0.492846	99
Es	0.206232	-0.954486	-1.394696	99
Es	-2.035621	0.055986	-0.842044	99
Es	0.041397	-0.709944	-0.936579	99
Es	2.000336	0.927178	0.148625	99
Es	0.278002	1.120535	-0.161743	99
Es	0.214126	-1.161624	0.990119	99
Es	1.908959	1.739278	-0.375471	99
Es	-0.026304	1.513819	-0.719101	99
Es	0.960687	-1.227893	0.982999	99
Es	-1.796980	-0.319039	-0.246988	99
Es	-0.073288	-1.845328	0.958082	99
Es	1.830426	0.959234	-0.655945	99
Es	1.112157	1.142408	-0.250916	99
Es	1.736059	1.149173	-0.359266	99
Es	-0.020218	-0.739758	0.417961	99
Es	-2.059686	-1.012605	-0.294277	99
Es	0.032273	-0.840915	-1.615315	99
Es	0.013174	0.405643	-0.167515	99
42
Properties=species:S:1:pos:R:3:Z:I:1 energy=-287.2922583064605 field_type=dipole dipole="0.000000 0.000000 0.000000" charge=0
C	-1.796992	-0.319050	-0.247007	6
C	-0.270242	-0.327390	-0.197277	6
C	0.214118	-1.161640	0.990103	6
O	0.206018	-0.954710	-1.394937	8
C	0.277838	1.120550	-0.161737	6
N	1.736208	1.148930	-0.359697	7
H	-2.156042	0.220560	-1.131057	1
H	-2.226692	0.150100	0.644383	1
H	-2.191822	-1.338390	-0.328477	1
H	-0.080902	-0.712000	1.944093	1
H	1.303158	-1.281100	0.981363	1
H	-0.199222	-2.176280	0.944843	1
H	1.096268	-0.568270	-1.538117	1
H	0.017548	1.617500	0.779463	1
H	-0.166212	1.697570	-0.981017	1
H	2.196758	0.761370	0.464213	1
H	2.040208	2.122250	-0.409137	1
Es	-2.035517	0.055949	-0.841974	99
Es	-2.081660	0.004285	0.365575	99
Es	1.830458	0.958087	-0.655525	99
Es	-2.059670	-1.012634	-0.294406	99
Es	0.011280	-0.845824	1.641216	99
Es	0.230899	-1.256317	-1.335377	99
Es	1.112213	1.142634	-0.250718	99
Es	-0.026219	1.513772	-0.719044	99
Es	0.206237	-0.954487	-1.394685	99
Es	1.909294	1.739328	-0.376343	99
Es	-0.073324	-1.845468	0.957964	99
Es	0.013132	0.405663	-0.167498	99
Es	-0.270168	-0.327460	-0.197433	99
Es	0.030301	-0.845520	-1.617585	99
Es	-1.796980	-0.319039	-0.246988	99
Es	1.999893	0.928059	0.148857	99
Es	0.278000	1.120536	-0.161744	99
Es	0.091025	1.458289	0.492808	99
Es	0.676251	-0.750303	-1.457757	99
Es	-1.041492	-0.316774	-0.215868	99
Es	0.214126	-1.161624	0.990117	99
Es	0.960651	-1.227770	0.982974	99
Es	0.040449	-0.708567	-0.937950	99
Es	-0.020134	-0.739836	0.418055	99
Es	1.736061	1.149182	-0.359260	99
42
Properties=species:S:1:pos:R:3:Z:I:1 energy=-287.2922583064605 field_type=dipole dipole="0.000000 0.000000 0.000000" charge=0
C	-1.796992	-0.319050	-0.247007	6
C	-0.270242	-0.327390	-0.197277	6
C	0.214118	-1.161640	0.990103	6
O	0.206018	-0.954710	-1.394937	8
C	0.277838	1.120550	-0.161737	6
N	1.736208	1.148930	-0.359697	7
H	-2.156042	0.220560	-1.131057	1
H	-2.226692	0.150100	0.644383	1
H	-2.191822	-1.338390	-0.328477	1
H	-0.080902	-0.712000	1.944093	1
H	1.303158	-1.281100	0.981363	1
H	-0.199222	-2.176280	0.944843	1
H	1.096268	-0.568270	-1.538117	1
H	0.017548	1.617500	0.779463	1
H	-0.166212	1.697570	-0.981017	1
H	2.196758	0.761370	0.464213	1
H	2.040208	2.122250	-0.409137	1
Es	1.909302	1.739493	-0.376314	99
Es	0.041458	-0.710788	-0.936682	99
Es	-0.073317	-1.845453	0.957929	99
Es	1.112268	1.142487	-0.251124	99
Es	0.029810	-0.843563	-1.616556	99
Es	0.214125	-1.161622	0.990116	99
Es	-0.026221	1.513771	-0.718945	99
Es	0.011190	-0.845804	1.641197	99
Es	0.230650	-1.256672	-1.337594	99
Es	0.013201	0.405601	-0.167541	99
Es	-1.796978	-0.319037	-0.246989	99
Es	0.960710	-1.227735	0.982999	99
Es	-0.020149	-0.739820	0.418006	99
Es	-0.270167	-0.327460	-0.197435	99
Es	-2.081623	0.004427	0.365540	99
Es	0.676086	-0.749766	-1.457769	99
Es	-2.059746	-1.012684	-0.294348	99
Es	1.999598	0.928178	0.148948	99
Es	0.278003	1.120535	-0.161744	99
Es	0.206186	-0.954450	-1.394744	99
Es	-2.035490	0.055848	-0.841917	99
Es	1.830747	0.957981	-0.655305	99
Es	1.736043	1.149203	-0.359229	99
Es	-1.041576	-0.316746	-0.215921	99
Es	0.090994	1.458243	0.492833	99
42
Properties=species:S:1:pos:R:3:Z:I:1 energy=-287.2922583064605 field_type=dipole dipole="0.000000 0.000000 0.000000" charge=0
C	-1.796992	-0.319050	-0.247007	6
C	-0.270242	-0.327390	-0.197277	6
C	0.214118	-1.161640	0.990103	6
O	0.206018	-0.954710	-1.394937	8
C	0.277838	1.120550	-0.161737	6
N	1.736208	1.148930	-0.359697	7
H	-2.156042	0.220560	-1.131057	1
H	-2.226692	0.150100	0.644383	1
H	-2.191822	-1.338390	-0.328477	1
H	-0.080902	-0.712000	1.944093	1
H	1.303158	-1.281100	0.981363	1
H	-0.199222	-2.176280	0.944843	1
H	1.096268	-0.568270	-1.538117	1
H	0.017548	1.617500	0.779463	1
H	-0.166212	1.697570	-0.981017	1
H	2.196758	0.761370	0.464213	1
H	2.040208	2.122250	-0.409137	1
Es	0.960624	-1.227721	0.982911	99
Es	0.011330	-0.845754	1.641207	99
Es	0.090974	1.458321	0.492830	99
Es	0.677199	-0.751694	-1.457254	99
Es	-0.270167	-0.327460	-0.197435	99
Es	1.112328	1.142831	-0.250729	99
Es	0.228664	-1.256696	-1.336868	99
Es	-2.081546	0.004377	0.365474	99
Es	1.909430	1.739369	-0.376719	99
Es	-1.041580	-0.316764	-0.215828	99
Es	-0.020186	-0.739770	0.417952	99
Es	1.999720	0.928322	0.149030	99
Es	0.206204	-0.954500	-1.394726	99
Es	0.030792	-0.843145	-1.616864	99
Es	-0.026185	1.513707	-0.718963	99
Es	0.041325	-0.709225	-0.937670	99
Es	1.830386	0.957659	-0.655332	99
Es	0.278004	1.120534	-0.161745	99
Es	0.013207	0.405602	-0.167490	99
Es	-1.796980	-0.319039	-0.246988	99
Es	1.736063	1.149183	-0.359270	99
Es	-0.073342	-1.845527	0.958000	99
Es	-2.035490	0.055944	-0.841878	99
Es	-2.059796	-1.012770	-0.294349	99
Es	0.214126	-1.161622	0.990116	99
42
Properties=species:S:1:pos:R:3:Z:I:1 energy=-287.2922583064605 field_type=dipole dipole="0.000000 0.000000 0.000000" charge=0
C	-1.796992	-0.319050	-0.247007	6
C	-0.270242	-0.327390	-0.197277	6
C	0.214118	-1.161640	0.990103	6
O	0.206018	-0.954710	-1.394937	8
C	0.277838	1.120550	-0.161737	6
N	1.736208	1.148930	-0.359697	7
H	-2.156042	0.220560	-1.131057	1
H	-2.226692	0.150100	0.644383	1
H	-2.191822	-1.338390	-0.328477	1
H	-0.080902	-0.712000	1.944093	1
H	1.303158	-1.281100	0.981363	1
H	-0.199222	-2.176280	0.944843	1
H	1.096268	-0.568270	-1.538117	1
H	0.017548	1.617500	0.779463	1
H	-0.166212	1.697570	-0.981017	1
H	2.196758	0.761370	0.464213	1
H	2.040208	2.122250	-0.409137	1
Es	-2.035448	0.055917	-0.841752	99
Es	-0.270168	-0.327460	-0.197434	99
Es	-1.041544	-0.316756	-0.215871	99
Es	0.960618	-1.227771	0.982938	99
Es	-0.073359	-1.845484	0.957916	99
Es	-0.020130	-0.739827	0.417905	99
Es	0.011259	-0.845722	1.641252	99
Es	-2.081556	0.004415	0.365450	99
Es	0.040816	-0.709224	-0.937459	99
Es	0.231950	-1.255603	-1.335094	99
Es	-1.796982	-0.319039	-0.246988	99
Es	0.029269	-0.846348	-1.617520	99
Es	0.675974	-0.749590	-1.458525	99
Es	0.278002	1.120535	-0.161744	99
Es	-2.059853	-1.012833	-0.294416	99
Es	0.214126	-1.161624	0.990118	99
Es	0.206155	-0.954487	-1.394756	99
Es	0.090948	1.458275	0.492864	99
Es	1.830509	0.957958	-0.655088	99
Es	0.013251	0.405691	-0.167541	99
Es	1.909503	1.739478	-0.376573	99
Es	1.736068	1.149190	-0.359245	99
Es	1.999731	0.928199	0.148784	99
Es	1.112123	1.142532	-0.250875	99
Es	-0.026160	1.513742	-0.718936	99
42
Properties=species:S:1:pos:R:3:Z:I:1 energy=-287.2922583064605 field_type=dipole dipole="0.000000 0.000000 0.000000" charge=0
C	-1.796992	-0.319050	-0.247007	6
C	-0.270242	-0.327390	-0.197277	6
C	0.214118	-1.161640	0.990103	6
O	0.206018	-0.954710	-1.394937	8
C	0.277838	1.120550	-0.161737	6
N	1.736208	1.148930	-0.359697	7
H	-2.156042	0.220560	-1.131057	1
H	-2.226692	0.150100	0.644383	1
H	-2.191822	-1.338390	-0.328477	1
H	-0.080902	-0.712000	1.944093	1
H	1.303158	-1.281100	0.981363	1
H	-0.199222	-2.176280	0.944843	1
H	1.096268	-0.568270	-1.538117	1
H	0.017548	1.617500	0.779463	1
H	-0.166212	1.697570	-0.981017	1
H	2.196758	0.761370	0.464213	1
H	2.040208	2.122250	-0.409137	1
Es	-0.026120	1.513709	-0.718840	99
Es	-1.041585	-0.316740	-0.215861	99
Es	1.909548	1.739632	-0.376230	99
Es	1.112117	1.142466	-0.250963	99
Es	0.214128	-1.161619	0.990116	99
Es	-2.059869	-1.012894	-0.294434	99
Es	0.011329	-0.845644	1.641154	99
Es	0.041014	-0.709142	-0.937429	99
Es	-0.020081	-0.739884	0.417966	99
Es	0.013181	0.405592	-0.167530	99
Es	0.675471	-0.748465	-1.459662	99
Es	1.999452	0.928243	0.148585	99
Es	0.960576	-1.227662	0.982923	99
Es	-2.035401	0.055920	-0.841729	99
Es	0.206199	-0.954491	-1.394750	99
Es	-2.081551	0.004447	0.365431	99
Es	1.736057	1.149178	-0.359251	99
Es	-0.270168	-0.327460	-0.197433	99
Es	1.830762	0.957895	-0.655185	99
Es	0.027381	-0.848994	-1.618257	99
Es	0.090975	1.458346	0.492797	99
Es	-1.796979	-0.319039	-0.246988	99
Es	-0.073415	-1.845640	0.957971	99
Es	0.278003	1.120536	-0.161744	99
Es	0.234079	-1.254125	-1.333245	99
42
Properties=species:S:1:pos:R:3:Z:I:1 energy=-287.2922583064605 field_type=dipole dipole="0.000000 0.000000 0.000000" charge=0
C	-1.796992	-0.319050	-0.247007	6
C	-0.270242	-0.327390	-0.197277	6
C	0.214118	-1.161640	0.990103	6
O	0.206018	-0.954710	-1.394937	8
C	0.277838	1.120550	-0.161737	6
N	1.736208	1.148930	-0.359697	7
H	-2.156042	0.220560	-1.131057	1
H	-2.226692	0.150100	0.644383	1
H	-2.191822	-1.338390	-0.328477	1
H	-0.080902	-0.712000	1.944093	1
H	1.303158	-1.281100	0.981363	1
H	-0.199222	-2.176280	0.944843	1
H	1.096268	-0.568270	-1.538117	1
H	0.017548	1.617500	0.779463	1
H	-0.166212	1.697570	-0.981017	1
H	2.196758	0.761370	0.464213	1
H	2.040208	2.122250	-0.409137	1
Es	-2.035420	0.055886	-0.841726	99
Es	1.830501	0.957823	-0.655133	99
Es	0.040765	-0.709291	-0.937571	99
Es	1.736058	1.149171	-0.359263	99
Es	0.013207	0.405627	-0.167562	99
Es	0.011330	-0.845637	1.641239	99
Es	-2.081598	0.004428	0.365410	99
Es	-1.796979	-0.319039	-0.246988	99
Es	1.112180	1.142694	-0.250864	99
Es	0.090944	1.458378	0.492813	99
Es	0.278001	1.120536	-0.161744	99
Es	0.676098	-0.749191	-1.458842	99
Es	-2.059873	-1.012847	-0.294432	99
Es	1.999665	0.928278	0.148850	99
Es	0.206144	-0.954370	-1.394813	99
Es	0.214126	-1.161624	0.990118	99
Es	0.232227	-1.255196	-1.334690	99
Es	-0.020063	-0.739901	0.417982	99
Es	-0.026090	1.513664	-0.718830	99
Es	0.028876	-0.847163	-1.617419	99
Es	-0.073386	-1.845641	0.957904	99
Es	-0.270168	-0.327459	-0.197433	99
Es	0.960529	-1.227662	0.982883	99
Es	-1.041514	-0.316738	-0.215846	99
Es	1.909542	1.739437	-0.376633	99
42
Properties=species:S:1:pos:R:3:Z:I:1 energy=-287.2922583064605 field_type=dipole dipole="0.000000 0.000000 0.000000" charge=0
C	-1.796992	-0.319050	-0.247007	6
C	-0.270242	-0.327390	-0.197277	6
C	0.214118	-1.161640	0.990103	6
O	0.206018	-0.954710	-1.394937	8
C	0.277838	1.120550	-0.161737	6
N	1.736208	1.148930	-0.359697	7
H	-2.156042	0.220560	-1.131057	1
H	-2.226692	0.150100	0.644383	1
H	-2.191822	-1.338390	-0.328477	1
H	-0.080902	-0.712000	1.944093	1
H	1.303158	-1.281100	0.981363	1
H	-0.199222	-2.176280	0.944843	1
H	1.096268	-0.568270	-1.538117	1
H	0.017548	1.617500	0.779463	1
H	-0.166212	1.697570	-0.981017	1
H	2.196758	0.761370	0.464213	1
H	2.040208	2.122250	-0.409137	1
Es	1.999435	0.928549	0.148772	99
Es	-2.081548	0.004391	0.365425	99
Es	0.011274	-0.845643	1.641186	99
Es	0.676131	-0.749458	-1.458477	99
Es	0.214126	-1.161624	0.990118	99
Es	-2.035398	0.055968	-0.841652	99
Es	0.041121	-0.710288	-0.936848	99
Es	0.960579	-1.227600	0.982915	99
Es	0.090961	1.458339	0.492849	99
Es	0.013379	0.405577	-0.167500	99
Es	-0.020067	-0.739925	0.418003	99
Es	-1.041578	-0.316667	-0.215846	99
Es	-0.073401	-1.845673	0.957871	99
Es	0.206207	-0.954484	-1.394730	99
Es	0.278002	1.120535	-0.161744	99
Es	-0.270168	-0.327460	-0.197433	99
Es	-1.796979	-0.319039	-0.246988	99
Es	1.830981	0.957788	-0.654976	99
Es	0.029099	-0.845413	-1.616983	99
Es	1.112045	1.142276	-0.251153	99
Es	-0.026157	1.513675	-0.718892	99
Es	1.736050	1.149187	-0.359230	99
Es	0.231533	-1.255587	-1.336302	99
Es	1.909418	1.739606	-0.376467	99
Es	-2.059938	-1.012866	-0.294506	99
42
Properties=species:S:1:pos:R:3:Z:I:1 energy=-287.2922583064605 field_type=dipole dipole="0.000000 0.000000 0.000000" charge=0
C	-1.796992	-0.319050	-0.247007	6
C	-0.270242	-0.327390	-0.197277	6
C	0.214118	-1.161640	0.990103	6
O	0.206018	-0.954710	-1.394937	8
C	0.277838	1.120550	-0.161737	6
N	1.736208	1.148930	-0.359697	7
H	-2.156042	0.220560	-1.131057	1
H	-2.226692	0.150100	0.644383	1
H	-2.191822	-1.338390	-0.328477	1
H	-0.080902	-0.712000	1.944093	1
H	1.303158	-1.281100	0.981363	1
H	-0.199222	-2.176280	0.944843	1
H	1.096268	-0.568270	-1.538117	1
H	0.017548	1.617500	0.779463	1
H	-0.166212	1.697570	-0.981017	1
H	2.196758	0.761370	0.464213	1
H	2.040208	2.122250	-0.409137	1
Es	1.736063	1.149164	-0.359287	99
Es	0.676267	-0.749549	-1.458778	99
Es	0.214126	-1.161623	0.990118	99
Es	-1.041637	-0.316779	-0.215869	99
Es	-0.020139	-0.739929	0.417909	99
Es	-2.081542	0.004499	0.365505	99
Es	1.909468	1.739638	-0.376557	99
Es	-1.796979	-0.319039	-0.246988	99
Es	0.011338	-0.845628	1.641199	99
Es	-0.270167	-0.327460	-0.197434	99
Es	-0.073361	-1.845774	0.957893	99
Es	1.111943	1.142103	-0.251407	99
Es	0.040787	-0.709001	-0.937745	99
Es	0.278002	1.120535	-0.161744	99
Es	-2.035372	0.055886	-0.841693	99
Es	-0.026079	1.513694	-0.718834	99
Es	0.028378	-0.847683	-1.618159	99
Es	0.013278	0.405749	-0.167518	99
Es	0.206182	-0.954437	-1.394764	99
Es	1.831161	0.957785	-0.654660	99
Es	1.999301	0.928669	0.148857	99
Es	-2.059839	-1.012945	-0.294474	99
Es	0.090949	1.458353	0.492881	99
Es	0.232470	-1.254544	-1.333904	99
Es	0.960504	-1.227519	0.982865	99
42
Properties=species:S:1:pos:R:3:Z:I:1 energy=-287.2922583064605 field_type=dipole dipole="0.000000 0.000000 0.000000" charge=0
C	-1.796992	-0.319050	-0.247007	6
C	-0.270242	-0.327390	-0.197277	6
C	0.214118	-1.161640	0.990103	6
O	0.206018	-0.954710	-1.394937	8
C	0.277838	1.120550	-0.161737	6
N	1.736208	1.148930	-0.359697	7
H	-2.156042	0.220560	-1.131057	1
H	-2.226692	0.150100	0.644383	1
H	-2.191822	-1.338390	-0.328477	1
H	-0.080902	-0.712000	1.944093	1
H	1.303158	-1.281100	0.981363	1
H	-0.199222	-2.176280	0.944843	1
H	1.096268	-0.568270	-1.538117	1
H	0.017548	1.617500	0.779463	1
H	-0.166212	1.697570	-0.981017	1
H	2.196758	0.761370	0.464213	1
H	2.040208	2.122250	-0.409137	1
Es	-2.081636	0.004546	0.365361	99
Es	0.090915	1.458425	0.492834	99
Es	0.040559	-0.709513	-0.937558	99
Es	0.214126	-1.161624	0.990118	99
Es	-0.270170	-0.327460	-0.197434	99
Es	-2.059936	-1.012997	-0.294528	99
Es	0.232894	-1.254158	-1.334100	99
Es	0.206216	-0.954495	-1.394710	99
Es	-0.025996	1.513643	-0.718746	99
Es	1.830898	0.957489	-0.654404	99
Es	0.960421	-1.227569	0.982839	99
Es	-1.796979	-0.319039	-0.246988	99
Es	0.013155	0.405603	-0.167660	99
Es	-0.019992	-0.739871	0.418034	99
Es	1.999263	0.928752	0.148981	99
Es	1.909708	1.739636	-0.377024	99
Es	0.278003	1.120535	-0.161744	99
Es	-1.041519	-0.316650	-0.215808	99
Es	-0.073411	-1.845792	0.957859	99
Es	1.112006	1.142376	-0.251322	99
Es	0.011385	-0.845560	1.641248	99
Es	0.676233	-0.749144	-1.458746	99
Es	1.736060	1.149167	-0.359283	99
Es	-2.035290	0.055818	-0.841564	99
Es	0.028190	-0.847954	-1.618244	99
42
Properties=species:S:1:pos:R:3:Z:I:1 energy=-287.2922583064605 field_type=dipole dipole="0.000000 0.000000 0.000000" charge=0
C	-1.796992	-0.319050	-0.247007	6
C	-0.270242	-0.327390	-0.197277	6
C	0.214118	-1.161640	0.990103	6
O	0.206018	-0.954710	-1.394937	8
C	0.277838	1.120550	-0.161737	6
N	1.736208	1.148930	-0.359697	7
H	-2.156042	0.220560	-1.131057	1
H	-2.226692	0.150100	0.644383	1
H	-2.191822	-1.338390	-0.328477	1
H	-0.080902	-0.712000	1.944093	1
H	1.303158	-1.281100	0.981363	1
H	-0.199222	-2.176280	0.944843	1
H	1.096268	-0.568270	-1.538117	1
H	0.017548	1.617500	0.779463	1
H	-0.166212	1.697570	-0.981017	1
H	2.196758	0.761370	0.464213	1
H	2.040208	2.122250	-0.409137	1
Es	0.278002	1.120537	-0.161743	99
Es	0.090981	1.458440	0.492837	99
Es	-2.059869	-1.012991	-0.294462	99
Es	0.214126	-1.161624	0.990118	99
Es	1.736053	1.149187	-0.359239	99
Es	-0.270168	-0.327460	-0.197433	99
Es	0.676162	-0.749232	-1.458680	99
Es	1.111909	1.142460	-0.251370	99
Es	-2.081584	0.004470	0.365379	99
Es	-1.796979	-0.319039	-0.246988	99
Es	0.233026	-1.254057	-1.333854	99
Es	1.831079	0.957543	-0.654736	99
Es	0.013193	0.405620	-0.167549	99
Es	0.206235	-0.954535	-1.394717	99
Es	0.960440	-1.227553	0.982904	99
Es	-0.019989	-0.739906	0.417938	99
Es	0.040871	-0.709518	-0.937586	99
Es	0.011323	-0.845538	1.641199	99
Es	1.909842	1.739626	-0.376473	99
Es	-0.026038	1.513636	-0.718713	99
Es	1.999041	0.928616	0.148681	99
Es	-0.073415	-1.845803	0.957856	99
Es	0.027806	-0.847898	-1.618513	99
Es	-2.035376	0.055874	-0.841650	99
Es	-1.041565	-0.316691	-0.215796	99
42
Properties=species:S:1:pos:R:3:Z:I:1 energy=-287.2922583064605 field_type=dipole dipole="0.000000 0.000000 0.000000" charge=0
C	-1.796992	-0.319050	-0.247007	6
C	-0.270242	-0.327390	-0.197277	6
C	0.214118	-1.161640	0.990103	6
O	0.206018	-0.954710	-1.394937	8
C	0.277838	1.120550	-0.161737	6
N	1.736208	1.148930	-0.359697	7
H	-2.156042	0.220560	-1.131057	1
H	-2.226692	0.150100	0.644383	1
H	-2.191822	-1.338390	-0.328477	1
H	-0.080902	-0.712000	1.944093	1
H	1.303158	-1.281100	0.981363	1
H	-0.199222	-2.176280	0.944843	1
H	1.096268	-0.568270	-1.538117	1
H	0.017548	1.617500	0.779463	1