33
Properties=species:S:1:pos:R:3:Z:I:1 energy=-283.7448625598307 field_type=dipole dipole="0.000000 0.000000 0.000000" charge=0
O	-1.939671	-0.230148	0.365575	8
C	-0.514941	-0.232358	0.544865	6
C	0.250199	-0.982358	-0.505215	6
C	0.278999	0.524762	-0.489705	6
C	1.475179	1.201072	-0.079755	6
N	2.440759	1.744982	0.261975	7
H	-2.390841	0.233102	1.093895	1
H	-0.133521	-0.287738	1.560806	1
H	-0.313361	-1.470488	-1.292305	1
H	1.132979	-1.528778	-0.192735	1
H	-0.285781	1.027952	-1.267405	1
Es	0.279112	0.524662	-0.489586	99
Es	-0.127781	-1.295061	-1.032422	99
Es	-0.262017	-0.257344	1.229682	99
Es	0.845388	-1.336584	-0.291795	99
Es	1.886632	1.533824	0.391321	99
Es	0.402151	-0.191406	-0.631790	99
Es	-0.515088	-0.232298	0.544656	99
Es	2.440392	1.744772	0.261845	99
Es	-1.986906	-0.072952	0.110959	99
Es	1.948690	1.708620	-0.110613	99
Es	2.746452	1.917814	0.370119	99
Es	-0.185286	-0.771437	0.087393	99
Es	0.910741	0.875240	-0.274375	99
Es	-1.939509	-0.229953	0.365836	99
Es	-2.015841	-0.518965	0.394109	99
Es	-0.082900	0.862551	-0.996191	99
Es	-0.120733	0.345980	0.095120	99
Es	0.250177	-0.982148	-0.505155	99
Es	-1.395795	-0.205090	0.461506	99
Es	-2.151173	0.027393	0.764104	99
Es	2.170573	1.246166	0.044692	99
Es	1.474889	1.200903	-0.079855	99
33
Properties=species:S:1:pos:R:3:Z:I:1 energy=-283.7448625598307 field_type=dipole dipole="0.000000 0.000000 0.000000" charge=0
O	-1.939671	-0.230148	0.365575	8
C	-0.514941	-0.232358	0.544865	6
C	0.250199	-0.982358	-0.505215	6
C	0.278999	0.524762	-0.489705	6
C	1.475179	1.201072	-0.079755	6
N	2.440759	1.744982	0.261975	7
H	-2.390841	0.233102	1.093895	1
H	-0.133521	-0.287738	1.560806	1
H	-0.313361	-1.470488	-1.292305	1
H	1.132979	-1.528778	-0.192735	1
H	-0.285781	1.027952	-1.267405	1
Es	2.749923	1.920222	0.368019	99
Es	-0.515086	-0.232301	0.544654	99
Es	1.844530	1.665691	0.310298	99
Es	-0.082128	0.860384	-0.994283	99
Es	-1.979697	-0.068561	0.133297	99
Es	0.844385	-1.335415	-0.292002	99
Es	-0.183321	-0.771702	0.088404	99
Es	-1.393102	-0.200354	0.458192	99
Es	-0.262253	-0.257137	1.228914	99
Es	0.912519	0.876056	-0.273551	99
Es	2.116469	1.229548	0.192408	99
Es	1.474876	1.200901	-0.079855	99
Es	-0.121768	0.345982	0.093995	99
Es	2.440380	1.744769	0.261842	99
Es	0.279116	0.524669	-0.489587	99
Es	2.042028	1.592060	-0.176082	99
Es	-1.939481	-0.229908	0.365848	99
Es	-2.025478	-0.528340	0.376759	99
Es	-2.151928	0.027054	0.762328	99
Es	0.400855	-0.190164	-0.632292	99
Es	0.250179	-0.982148	-0.505158	99
Es	-0.128848	-1.296616	-1.032588	99
33
Properties=species:S:1:pos:R:3:Z:I:1 energy=-283.7448625598307 field_type=dipole dipole="0.000000 0.000000 0.000000" charge=0
O	-1.939671	-0.230148	0.365575	8
C	-0.514941	-0.232358	0.544865	6
C	0.250199	-0.982358	-0.505215	6
C	0.278999	0.524762	-0.489705	6
C	1.475179	1.201072	-0.079755	6
N	2.440759	1.744982	0.261975	7
H	-2.390841	0.233102	1.093895	1
H	-0.133521	-0.287738	1.560806	1
H	-0.313361	-1.470488	-1.292305	1
H	1.132979	-1.528778	-0.192735	1
H	-0.285781	1.027952	-1.267405	1
Es	0.250172	-0.982146	-0.505153	99
Es	-0.262438	-0.257038	1.228549	99
Es	-0.122376	0.345639	0.093028	99
Es	-1.973637	-0.065118	0.152023	99
Es	-0.182098	-0.771922	0.089368	99
Es	-2.151432	0.024886	0.761927	99
Es	1.474883	1.200879	-0.079856	99
Es	2.750299	1.923776	0.366599	99
Es	0.279106	0.524659	-0.489579	99
Es	2.440380	1.744768	0.261843	99
Es	-0.081419	0.859015	-0.993195	99
Es	0.913613	0.876175	-0.273332	99
Es	0.843412	-1.334685	-0.292222	99
Es	1.944211	1.702217	-0.093585	99
Es	0.400488	-0.188624	-0.632442	99
Es	-0.515091	-0.232296	0.544658	99
Es	2.168891	1.257235	0.030637	99
Es	-2.034034	-0.532126	0.360342	99
Es	-1.939481	-0.229956	0.365860	99
Es	-1.391347	-0.198201	0.456066	99
Es	1.889680	1.525101	0.390717	99
Es	-0.129613	-1.297547	-1.032694	99
33
Properties=species:S:1:pos:R:3:Z:I:1 energy=-283.7448625598307 field_type=dipole dipole="0.000000 0.000000 0.000000" charge=0
O	-1.939671	-0.230148	0.365575	8
C	-0.514941	-0.232358	0.544865	6
C	0.250199	-0.982358	-0.505215	6
C	0.278999	0.524762	-0.489705	6
C	1.475179	1.201072	-0.079755	6
N	2.440759	1.744982	0.261975	7
H	-2.390841	0.233102	1.093895	1
H	-0.133521	-0.287738	1.560806	1
H	-0.313361	-1.470488	-1.292305	1
H	1.132979	-1.528778	-0.192735	1
H	-0.285781	1.027952	-1.267405	1
Es	1.994153	1.647786	-0.144264	99
Es	0.914168	0.876479	-0.273045	99
Es	2.145041	1.236697	0.114633	99
Es	-0.081086	0.858192	-0.992619	99
Es	0.279114	0.524665	-0.489585	99
Es	-2.150990	0.022522	0.761969	99
Es	-0.262474	-0.257056	1.228200	99
Es	-0.130058	-1.298106	-1.032749	99
Es	-1.939512	-0.230016	0.365827	99
Es	0.400220	-0.187317	-0.632493	99
Es	-2.040806	-0.533181	0.345820	99
Es	0.250179	-0.982141	-0.505149	99
Es	-1.390016	-0.195868	0.453744	99
Es	1.474872	1.200887	-0.079855	99
Es	1.861935	1.601065	0.358157	99
Es	-1.968849	-0.064311	0.168800	99
Es	0.842944	-1.334156	-0.292411	99
Es	-0.122744	0.344970	0.092517	99
Es	2.752190	1.922952	0.365482	99
Es	-0.181412	-0.771847	0.090083	99
Es	2.440383	1.744770	0.261844	99
Es	-0.515083	-0.232296	0.544653	99
33
Properties=species:S:1:pos:R:3:Z:I:1 energy=-283.7448625598307 field_type=dipole dipole="0.000000 0.000000 0.000000" charge=0
O	-1.939671	-0.230148	0.365575	8
C	-0.514941	-0.232358	0.544865	6
C	0.250199	-0.982358	-0.505215	6
C	0.278999	0.524762	-0.489705	6
C	1.475179	1.201072	-0.079755	6
N	2.440759	1.744982	0.261975	7
H	-2.390841	0.233102	1.093895	1
H	-0.133521	-0.287738	1.560806	1
H	-0.313361	-1.470488	-1.292305	1
H	1.132979	-1.528778	-0.192735	1
H	-0.285781	1.027952	-1.267405	1
Es	0.400059	-0.186613	-0.632144	99
Es	0.279111	0.524676	-0.489582	99
Es	-1.964859	-0.065547	0.179631	99
Es	1.474862	1.200884	-0.079843	99
Es	0.914321	0.877047	-0.272913	99
Es	2.124954	1.453631	-0.164341	99
Es	0.250177	-0.982143	-0.505152	99
Es	-0.123077	0.344485	0.092009	99
Es	-2.045325	-0.533147	0.336380	99
Es	-0.130743	-1.298646	-1.032752	99
Es	-0.180699	-0.771101	0.090174	99
Es	-0.262367	-0.257144	1.228313	99
Es	1.844897	1.740474	0.171240	99
Es	2.752133	1.922770	0.368498	99
Es	2.440384	1.744770	0.261844	99
Es	-1.939502	-0.230068	0.365908	99
Es	2.031733	1.291367	0.318342	99
Es	-0.080770	0.857484	-0.992461	99
Es	-1.389350	-0.194444	0.453342	99
Es	-0.515091	-0.232293	0.544658	99
Es	0.842604	-1.333849	-0.292314	99
Es	-2.151281	0.022096	0.760720	99
33
Properties=species:S:1:pos:R:3:Z:I:1 energy=-283.7448625598307 field_type=dipole dipole="0.000000 0.000000 0.000000" charge=0
O	-1.939671	-0.230148	0.365575	8
C	-0.514941	-0.232358	0.544865	6
C	0.250199	-0.982358	-0.505215	6
C	0.278999	0.524762	-0.489705	6
C	1.475179	1.201072	-0.079755	6
N	2.440759	1.744982	0.261975	7
H	-2.390841	0.233102	1.093895	1
H	-0.133521	-0.287738	1.560806	1
H	-0.313361	-1.470488	-1.292305	1
H	1.132979	-1.528778	-0.192735	1
H	-0.285781	1.027952	-1.267405	1
Es	0.842240	-1.333779	-0.292290	99
Es	-0.131169	-1.298908	-1.032600	99
Es	-1.388718	-0.194014	0.452548	99
Es	-2.150849	0.019144	0.761582	99
Es	-0.123145	0.344235	0.091664	99
Es	0.279117	0.524665	-0.489587	99
Es	2.132076	1.437989	-0.157215	99
Es	0.914590	0.877134	-0.272829	99
Es	2.440383	1.744769	0.261843	99
Es	-0.262430	-0.257393	1.228130	99
Es	1.848506	1.744245	0.151532	99
Es	0.250175	-0.982139	-0.505151	99
Es	2.752364	1.923267	0.368079	99
Es	-0.080546	0.857146	-0.992078	99
Es	-1.960164	-0.065360	0.194178	99
Es	-0.515091	-0.232295	0.544658	99
Es	0.400100	-0.185638	-0.632275	99
Es	-2.051171	-0.531079	0.321679	99
Es	2.020840	1.302795	0.331217	99
Es	1.474868	1.200893	-0.079855	99
Es	-1.939499	-0.230086	0.365884	99
Es	-0.180306	-0.770901	0.090446	99
33
Properties=species:S:1:pos:R:3:Z:I:1 energy=-283.7448625598307 field_type=dipole dipole="0.000000 0.000000 0.000000" charge=0
O	-1.939671	-0.230148	0.365575	8
C	-0.514941	-0.232358	0.544865	6
C	0.250199	-0.982358	-0.505215	6
C	0.278999	0.524762	-0.489705	6
C	1.475179	1.201072	-0.079755	6
N	2.440759	1.744982	0.261975	7
H	-2.390841	0.233102	1.093895	1
H	-0.133521	-0.287738	1.560806	1
H	-0.313361	-1.470488	-1.292305	1
H	1.132979	-1.528778	-0.192735	1
H	-0.285781	1.027952	-1.267405	1
Es	-0.080338	0.856815	-0.991356	99
Es	-2.053595	-0.531706	0.320726	99
Es	-0.123236	0.344127	0.091486	99
Es	-1.959291	-0.066860	0.197410	99
Es	0.250175	-0.982143	-0.505151	99
Es	-0.515089	-0.232295	0.544656	99
Es	-2.149510	0.019873	0.759748	99
Es	1.886249	1.742743	0.019559	99
Es	1.474864	1.200897	-0.079851	99
Es	0.400092	-0.184975	-0.632550	99
Es	-0.179614	-0.771235	0.090489	99
Es	-0.262618	-0.257244	1.227790	99
Es	-0.131552	-1.299184	-1.032493	99
Es	2.440384	1.744769	0.261844	99
Es	2.751888	1.925488	0.366726	99
Es	0.841826	-1.333673	-0.292277	99
Es	-1.939528	-0.230053	0.365865	99
Es	1.948315	1.404531	0.390067	99
Es	-1.388535	-0.192820	0.452050	99
Es	0.914795	0.877331	-0.272948	99
Es	0.279118	0.524663	-0.489593	99
Es	2.167369	1.335640	-0.082640	99
33
Properties=species:S:1:pos:R:3:Z:I:1 energy=-283.7448625598307 field_type=dipole dipole="0.000000 0.000000 0.000000" charge=0
O	-1.939671	-0.230148	0.365575	8
C	-0.514941	-0.232358	0.544865	6
C	0.250199	-0.982358	-0.505215	6
C	0.278999	0.524762	-0.489705	6
C	1.475179	1.201072	-0.079755	6
N	2.440759	1.744982	0.261975	7
H	-2.390841	0.233102	1.093895	1
H	-0.133521	-0.287738	1.560806	1
H	-0.313361	-1.470488	-1.292305	1
H	1.132979	-1.528778	-0.192735	1
H	-0.285781	1.027952	-1.267405	1
Es	2.029935	1.293837	0.319012	99
Es	2.440383	1.744769	0.261844	99
Es	1.474868	1.200897	-0.079858	99
Es	-2.149504	0.017971	0.759954	99
Es	-2.056615	-0.529667	0.312546	99
Es	2.753339	1.923321	0.366993	99
Es	-1.956864	-0.067794	0.205674	99
Es	0.250176	-0.982142	-0.505152	99
Es	0.400126	-0.184073	-0.632202	99
Es	-0.262516	-0.257407	1.227902	99
Es	0.279117	0.524667	-0.489588	99
Es	-0.131835	-1.299324	-1.032399	99
Es	-0.080082	0.856350	-0.991691	99
Es	0.914978	0.877393	-0.272653	99
Es	2.123841	1.453117	-0.162450	99
Es	0.841671	-1.333572	-0.292328	99
Es	-0.179559	-0.770669	0.090836	99
Es	-1.939492	-0.230050	0.365887	99
Es	-0.515087	-0.232291	0.544655	99
Es	1.846912	1.738021	0.169773	99
Es	-1.388076	-0.192164	0.451640	99
Es	-0.123547	0.343501	0.091163	99
33
Properties=species:S:1:pos:R:3:Z:I:1 energy=-283.7448625598307 field_type=dipole dipole="0.000000 0.000000 0.000000" charge=0
O	-1.939671	-0.230148	0.365575	8
C	-0.514941	-0.232358	0.544865	6
C	0.250199	-0.982358	-0.505215	6
C	0.278999	0.524762	-0.489705	6
C	1.475179	1.201072	-0.079755	6
N	2.440759	1.744982	0.261975	7
H	-2.390841	0.233102	1.093895	1
H	-0.133521	-0.287738	1.560806	1
H	-0.313361	-1.470488	-1.292305	1
H	1.132979	-1.528778	-0.192735	1
H	-0.285781	1.027952	-1.267405	1
Es	1.898981	1.501153	0.393981	99
Es	1.474868	1.200886	-0.079855	99
Es	0.400200	-0.183659	-0.632369	99
Es	-0.080086	0.856194	-0.991236	99
Es	-0.515082	-0.232287	0.544653	99
Es	1.933909	1.706230	-0.070429	99
Es	-1.957142	-0.068841	0.207741	99
Es	0.250174	-0.982134	-0.505149	99
Es	2.440384	1.744770	0.261844	99
Es	-0.132281	-1.299690	-1.031963	99
Es	0.915245	0.877235	-0.272726	99
Es	-1.388067	-0.190105	0.450349	99
Es	-2.148522	0.017419	0.759255	99
Es	2.753210	1.925343	0.364109	99
Es	2.167742	1.275958	0.005725	99
Es	0.279116	0.524669	-0.489587	99
Es	-1.939499	-0.230055	0.365901	99
Es	-2.057357	-0.530297	0.312441	99
Es	-0.178972	-0.770954	0.090897	99
Es	0.841124	-1.333512	-0.292323	99
Es	-0.123071	0.344089	0.090860	99
Es	-0.262706	-0.257721	1.227440	99
33
Properties=species:S:1:pos:R:3:Z:I:1 energy=-283.7448625598307 field_type=dipole dipole="0.000000 0.000000 0.000000" charge=0
O	-1.939671	-0.230148	0.365575	8
C	-0.514941	-0.232358	0.544865	6
C	0.250199	-0.982358	-0.505215	6
C	0.278999	0.524762	-0.489705	6
C	1.475179	1.201072	-0.079755	6
N	2.440759	1.744982	0.261975	7
H	-2.390841	0.233102	1.093895	1
H	-0.133521	-0.287738	1.560806	1
H	-0.313361	-1.470488	-1.292305	1
H	1.132979	-1.528778	-0.192735	1
H	-0.285781	1.027952	-1.267405	1
Es	2.754116	1.924327	0.363404	99
Es	-1.387804	-0.189295	0.449567	99
Es	0.915457	0.877033	-0.272571	99
Es	-2.148303	0.017296	0.758701	99
Es	-2.059540	-0.529180	0.308316	99
Es	1.474866	1.200896	-0.079859	99
Es	0.400409	-0.182644	-0.632634	99
Es	1.974484	1.666354	-0.121908	99
Es	2.152730	1.249555	0.078652	99
Es	0.250175	-0.982147	-0.505153	99
Es	-0.123446	0.343472	0.090885	99
Es	-0.132484	-1.299833	-1.031840	99
Es	2.440384	1.744769	0.261844	99
Es	0.840870	-1.333430	-0.292353	99
Es	-1.939526	-0.230062	0.365863	99
Es	1.872589	1.568553	0.372874	99
Es	-0.515089	-0.232293	0.544656	99
Es	-0.079780	0.855918	-0.991091	99
Es	0.279123	0.524667	-0.489593	99
Es	-0.178885	-0.770644	0.091245	99
Es	-0.262710	-0.257830	1.227370	99
Es	-1.955466	-0.070791	0.213184	99
33
Properties=species:S:1:pos:R:3:Z:I:1 energy=-283.7448625598307 field_type=dipole dipole="0.000000 0.000000 0.000000" charge=0
O	-1.939671	-0.230148	0.365575	8
C	-0.514941	-0.232358	0.544865	6
C	0.250199	-0.982358	-0.505215	6
C	0.278999	0.524762	-0.489705	6
C	1.475179	1.201072	-0.079755	6
N	2.440759	1.744982	0.261975	7
H	-2.390841	0.233102	1.093895	1
H	-0.133521	-0.287738	1.560806	1
H	-0.313361	-1.470488	-1.292305	1
H	1.132979	-1.528778	-0.192735	1
H	-0.285781	1.027952	-1.267405	1
Es	0.250175	-0.982145	-0.505152	99
Es	-2.062091	-0.528584	0.307147	99
Es	2.046700	1.279211	0.294946	99
Es	1.474865	1.200889	-0.079850	99
Es	-1.939525	-0.230057	0.365818	99
Es	-0.123934	0.342321	0.090691	99
Es	2.754203	1.923066	0.366303	99
Es	0.841013	-1.333395	-0.292357	99
Es	0.400473	-0.181979	-0.632437	99
Es	-0.515091	-0.232293	0.544657	99
Es	-1.953589	-0.072970	0.215750	99
Es	-0.178968	-0.769956	0.091460	99
Es	2.109709	1.478979	-0.169647	99
Es	-2.147922	0.019643	0.756601	99
Es	-0.262534	-0.257696	1.227721	99
Es	-0.079603	0.855671	-0.991293	99
Es	0.915351	0.877502	-0.272598	99
Es	-0.132660	-1.299773	-1.032045	99
Es	2.440383	1.744769	0.261844	99
Es	-1.387558	-0.190165	0.450174	99
Es	1.843655	1.726985	0.201412	99
Es	0.279118	0.524666	-0.489588	99
33
Properties=species:S:1:pos:R:3:Z:I:1 energy=-283.7448625598307 field_type=dipole dipole="0.000000 0.000000 0.000000" charge=0
O	-1.939671	-0.230148	0.365575	8
C	-0.514941	-0.232358	0.544865	6
C	0.250199	-0.982358	-0.505215	6
C	0.278999	0.524762	-0.489705	6
C	1.475179	1.201072	-0.079755	6
N	2.440759	1.744982	0.261975	7
H	-2.390841	0.233102	1.093895	1
H	-0.133521	-0.287738	1.560806	1
H	-0.313361	-1.470488	-1.292305	1
H	1.132979	-1.528778	-0.192735	1
H	-0.285781	1.027952	-1.267405	1
Es	-1.387516	-0.188138	0.448643	99
Es	-1.951874	-0.075017	0.223368	99
Es	1.474864	1.200888	-0.079852	99
Es	2.002058	1.325288	0.349636	99
Es	-2.063548	-0.526669	0.299984	99
Es	2.141000	1.414062	-0.142837	99
Es	-1.939516	-0.230075	0.365871	99
Es	0.841231	-1.333449	-0.292174	99
Es	-0.515092	-0.232291	0.544663	99
Es	0.250176	-0.982144	-0.505152	99
Es	1.857426	1.744928	0.119995	99
Es	0.399972	-0.182417	-0.632121	99
Es	0.279125	0.524661	-0.489597	99
Es	-0.079718	0.855707	-0.991116	99
Es	-0.262673	-0.257772	1.227473	99
Es	-0.123557	0.343079	0.090677	99
Es	-2.148241	0.017799	0.757633	99
Es	0.915291	0.877625	-0.272579	99
Es	2.753759	1.924012	0.366295	99
Es	-0.132898	-1.299872	-1.031941	99
Es	-0.178483	-0.770285	0.090843	99
Es	2.440384	1.744769	0.261844	99
33
Properties=species:S:1:pos:R:3:Z:I:1 energy=-283.7448625598307 field_type=dipole dipole="0.000000 0.000000 0.000000" charge=0
O	-1.939671	-0.230148	0.365575	8
C	-0.514941	-0.232358	0.544865	6
C	0.250199	-0.982358	-0.505215	6
C	0.278999	0.524762	-0.489705	6
C	1.475179	1.201072	-0.079755	6
N	2.440759	1.744982	0.261975	7
H	-2.390841	0.233102	1.093895	1
H	-0.133521	-0.287738	1.560806	1
H	-0.313361	-1.470488	-1.292305	1
H	1.132979	-1.528778	-0.192735	1
H	-0.285781	1.027952	-1.267405	1
Es	-0.133205	-1.299963	-1.031812	99
Es	-0.123711	0.343060	0.090685	99
Es	0.841032	-1.333396	-0.292285	99
Es	0.400010	-0.182276	-0.632439	99
Es	0.279113	0.524673	-0.489583	99
Es	-1.939482	-0.230095	0.365927	99
Es	-2.064486	-0.526142	0.298731	99
Es	1.474864	1.200886	-0.079849	99
Es	0.915422	0.877630	-0.272624	99
Es	-0.262760	-0.257686	1.227310	99
Es	2.440383	1.744770	0.261844	99
Es	-2.147665	0.016927	0.757496	99
Es	2.000833	1.326867	0.350634	99
Es	2.753920	1.923972	0.366178	99
Es	-1.387407	-0.188062	0.448564	99
Es	1.857983	1.745047	0.117709	99
Es	-1.951691	-0.074855	0.224704	99
Es	-0.079506	0.855600	-0.990709	99
Es	-0.178116	-0.770245	0.091028	99
Es	2.141537	1.412401	-0.141448	99
Es	0.250175	-0.982145	-0.505153	99
Es	-0.515074	-0.232278	0.544649	99
33
Properties=species:S:1:pos:R:3:Z:I:1 energy=-283.7448625598307 field_type=dipole dipole="0.000000 0.000000 0.000000" charge=0
O	-1.939671	-0.230148	0.365575	8
C	-0.514941	-0.232358	0.544865	6
C	0.250199	-0.982358	-0.505215	6
C	0.278999	0.524762	-0.489705	6
C	1.475179	1.201072	-0.079755	6
N	2.440759	1.744982	0.261975	7
H	-2.390841	0.233102	1.093895	1
H	-0.133521	-0.287738	1.560806	1
H	-0.313361	-1.470488	-1.292305	1
H	1.132979	-1.528778	-0.192735	1
H	-0.285781	1.027952	-1.267405	1
Es	2.754748	1.924396	0.362656	99
Es	-0.133405	-1.300239	-1.031436	99
Es	-0.079387	0.855263	-0.990812	99
Es	-0.177980	-0.770118	0.091232	99
Es	-1.952372	-0.075710	0.223656	99
Es	0.840377	-1.333348	-0.292277	99
Es	0.250174	-0.982141	-0.505150	99
Es	1.973046	1.667049	-0.119127	99
Es	-2.064509	-0.527397	0.301910	99
Es	0.279117	0.524667	-0.489588	99
Es	1.873775	1.564123	0.374701	99
Es	-2.146883	0.017611	0.756176	99
Es	-0.123530	0.343372	0.090617	99
Es	-1.939528	-0.229994	0.365769	99
Es	-0.515093	-0.232291	0.544658	99
Es	-0.262859	-0.258268	1.226965	99
Es	0.400430	-0.181423	-0.632342	99
Es	-1.387469	-0.186919	0.447898	99
Es	2.152558	1.253153	0.074572	99
Es	0.915710	0.877249	-0.272520	99
Es	1.474865	1.200885	-0.079846	99
Es	2.440384	1.744769	0.261844	99
33
Properties=species:S:1:pos:R:3:Z:I:1 energy=-283.7448625598307 field_type=dipole dipole="0.000000 0.000000 0.000000" charge=0
O	-1.939671	-0.230148	0.365575	8
C	-0.514941	-0.232358	0.544865	6
C	0.250199	-0.982358	-0.505215	6
C	0.278999	0.524762	-0.489705	6
C	1.475179	1.201072	-0.079755	6
N	2.440759	1.744982	0.261975	7
H	-2.390841	0.233102	1.093895	1
H	-0.133521	-0.287738	1.560806	1
H	-0.313361	-1.470488	-1.292305	1
H	1.132979	-1.528778	-0.192735	1
H	-0.285781	1.027952	-1.267405	1
Es	-2.065989	-0.525468	0.295955	99
Es	0.915511	0.877759	-0.272689	99
Es	1.474863	1.200891	-0.079845	99
Es	1.972690	1.365732	0.374469	99
Es	-0.079466	0.855318	-0.990582	99
Es	-0.515083	-0.232289	0.544653	99
Es	-0.123559	0.343354	0.090541	99
Es	1.871952	1.744996	0.067265	99
Es	-1.387429	-0.186907	0.448804	99
Es	2.440385	1.744771	0.261845	99
Es	-0.133568	-1.300254	-1.031493	99
Es	2.155812	1.372792	-0.114067	99
Es	-1.950445	-0.076769	0.228471	99
Es	2.753829	1.924817	0.365393	99
Es	0.399945	-0.181861	-0.632218	99
Es	-1.939486	-0.230036	0.365901	99
Es	-0.177571	-0.770306	0.090811	99
Es	0.840745	-1.333339	-0.292212	99
Es	-0.262842	-0.257824	1.227039	99
Es	0.250177	-0.982143	-0.505155	99
Es	0.279126	0.524668	-0.489596	99
Es	-2.147430	0.016791	0.756269	99
33
Properties=species:S:1:pos:R:3:Z:I:1 energy=-283.7448625598307 field_type=dipole dipole="0.000000 0.000000 0.000000" charge=0
O	-1.939671	-0.230148	0.365575	8
C	-0.514941	-0.232358	0.544865	6
C	0.250199	-0.982358	-0.505215	6
C	0.278999	0.524762	-0.489705	6
C	1.475179	1.201072	-0.079755	6
N	2.440759	1.744982	0.261975	7
H	-2.390841	0.233102	1.093895	1
H	-0.133521	-0.287738	1.560806	1
H	-0.313361	-1.470488	-1.292305	1
H	1.132979	-1.528778	-0.192735	1
H	-0.285781	1.027952	-1.267405	1
Es	0.400242	-0.181084	-0.632187	99
Es	-0.262807	-0.257869	1.227130	99
Es	-2.067505	-0.524088	0.292739	99
Es	0.279112	0.524671	-0.489584	99
Es	-1.939449	-0.229864	0.365813	99
Es	-0.079154	0.855051	-0.990764	99
Es	1.999659	1.328980	0.350880	99
Es	-0.515088	-0.232290	0.544656	99
Es	2.754182	1.924181	0.365739	99
Es	0.250175	-0.982143	-0.505153	99
Es	0.915554	0.877729	-0.272486	99
Es	-0.177735	-0.770033	0.091122	99
Es	-2.147063	0.016427	0.756632	99
Es	-0.133624	-1.300236	-1.031535	99
Es	2.142164	1.410006	-0.139310	99
Es	0.840629	-1.333329	-0.292200	99
Es	2.440384	1.744769	0.261844	99
Es	1.474861	1.200893	-0.079852	99
Es	-0.123977	0.342731	0.090388	99
Es	-1.949469	-0.077717	0.231866	99
Es	1.858375	1.745120	0.115529	99
Es	-1.387295	-0.187217	0.448291	99
33
Properties=species:S:1:pos:R:3:Z:I:1 energy=-283.7448625598307 field_type=dipole dipole="0.000000 0.000000 0.000000" charge=0
O	-1.939671	-0.230148	0.365575	8
C	-0.514941	-0.232358	0.544865	6
C	0.250199	-0.982358	-0.505215	6
C	0.278999	0.524762	-0.489705	6
C	1.475179	1.201072	-0.079755	6
N	2.440759	1.744982	0.261975	7
H	-2.390841	0.233102	1.093895	1
H	-0.133521	-0.287738	1.560806	1
H	-0.313361	-1.470488	-1.292305	1
H	1.132979	-1.528778	-0.192735	1
H	-0.285781	1.027952	-1.267405	1
Es	-0.133881	-1.300311	-1.031345	99
Es	0.279119	0.524669	-0.489589	99
Es	-1.939506	-0.230048	0.365881	99
Es	-0.123541	0.343067	0.090448	99
Es	-2.146601	0.016949	0.755295	99
Es	-0.262884	-0.258045	1.226873	99
Es	-1.949440	-0.078736	0.232147	99
Es	1.474865	1.200886	-0.079854	99
Es	2.440384	1.744770	0.261844	99
Es	-1.387386	-0.185894	0.447996	99
Es	1.961826	1.382312	0.381517	99
Es	2.753945	1.924847	0.365201	99
Es	2.159942	1.358244	-0.101070	99
Es	-0.079369	0.855299	-0.990277	99
Es	0.250174	-0.982142	-0.505151	99
Es	-0.177349	-0.770150	0.090834	99
Es	0.915637	0.877662	-0.272571	99
Es	1.878558	1.743038	0.047353	99
Es	0.840503	-1.333390	-0.292183	99
Es	0.400141	-0.181290	-0.632497	99
Es	-2.067875	-0.524756	0.294047	99
Es	-0.515091	-0.232289	0.544658	99
33
Properties=species:S:1:pos:R:3:Z:I:1 energy=-283.7448625598307 field_type=dipole dipole="0.000000 0.000000 0.000000" charge=0
O	-1.939671	-0.230148	0.365575	8
C	-0.514941	-0.232358	0.544865	6
C	0.250199	-0.982358	-0.505215	6
C	0.278999	0.524762	-0.489705	6
C	1.475179	1.201072	-0.079755	6
N	2.440759	1.744982	0.261975	7
H	-2.390841	0.233102	1.093895	1
H	-0.133521	-0.287738	1.560806	1
H	-0.313361	-1.470488	-1.292305	1
H	1.132979	-1.528778	-0.192735	1
H	-0.285781	1.027952	-1.267405	1
Es	2.440384	1.744770	0.261844	99
Es	-0.079195	0.855032	-0.990778	99
Es	-0.123985	0.342039	0.090400	99
Es	2.754886	1.923345	0.365332	99
Es	-1.387254	-0.185751	0.447181	99
Es	-2.146836	0.016695	0.755734	99
Es	-2.069001	-0.523113	0.290303	99
Es	-0.177655	-0.769727	0.091442	99
Es	0.250176	-0.982141	-0.505153	99
Es	-0.133860	-1.300234	-1.031469	99
Es	2.026208	1.297983	0.321828	99
Es	0.279118	0.524669	-0.489588	99
Es	-0.262785	-0.258007	1.227082	99
Es	-1.939481	-0.230100	0.365958	99
Es	-1.948261	-0.080320	0.236100	99
Es	-0.515089	-0.232290	0.544656	99
Es	0.915634	0.877721	-0.272502	99
Es	1.849525	1.736903	0.163518	99
Es	1.474862	1.200892	-0.079855	99
Es	0.400429	-0.180305	-0.632238	99
Es	2.123880	1.449930	-0.157908	99
Es	0.840469	-1.333301	-0.292329	99
33
Properties=species:S:1:pos:R:3:Z:I:1 energy=-283.7448625598307 field_type=dipole dipole="0.000000 0.000000 0.000000" charge=0
O	-1.939671	-0.230148	0.365575	8
C	-0.514941	-0.232358	0.544865	6
C	0.250199	-0.982358	-0.505215	6
C	0.278999	0.524762	-0.489705	6
C	1.475179	1.201072	-0.079755	6
N	2.440759	1.744982	0.261975	7
H	-2.390841	0.233102	1.093895	1
H	-0.133521	-0.287738	1.560806	1
H	-0.313361	-1.470488	-1.292305	1
H	1.132979	-1.528778	-0.192735	1
H	-0.285781	1.027952	-1.267405	1
Es	-0.123758	0.342334	0.090360	99
Es	-1.387321	-0.185016	0.446988	99
Es	2.041043	1.584627	-0.167051	99
Es	1.847842	1.655513	0.311365	99
Es	-2.068475	-0.524946	0.295039	99
Es	0.400325	-0.179857	-0.632359	99
Es	2.440383	1.744769	0.261844	99
Es	0.250174	-0.982145	-0.505152	99
Es	-0.177479	-0.769504	0.091174	99
Es	0.915829	0.877501	-0.272293	99
Es	1.474862	1.200887	-0.079847	99
Es	2.755977	1.922719	0.362805	99
Es	-0.134198	-1.300340	-1.030983	99
Es	-0.262885	-0.258456	1.226715	99
Es	0.279118	0.524671	-0.489587	99
Es	2.109584	1.245580	0.185329	99
Es	-1.939473	-0.229973	0.365877	99
Es	-0.079148	0.854858	-0.990625	99
Es	-0.515088	-0.232295	0.544655	99
Es	-2.145648	0.016314	0.754906	99
Es	0.840462	-1.333535	-0.292111	99
Es	-1.949957	-0.079018	0.232509	99
33
Properties=species:S:1:pos:R:3:Z:I:1 energy=-283.7448625598307 field_type=dipole dipole="0.000000 0.000000 0.000000" charge=0
O	-1.939671	-0.230148	0.365575	8
C	-0.514941	-0.232358	0.544865	6
C	0.250199	-0.982358	-0.505215	6
C	0.278999	0.524762	-0.489705	6
C	1.475179	1.201072	-0.079755	6
N	2.440759	1.744982	0.261975	7
H	-2.390841	0.233102	1.093895	1
H	-0.133521	-0.287738	1.560806	1
H	-0.313361	-1.470488	-1.292305	1
H	1.132979	-1.528778	-0.192735	1
H	-0.285781	1.027952	-1.267405	1
Es	2.755109	1.923130	0.365066	99
Es	-0.262809	-0.258183	1.226965	99
Es	-0.177546	-0.769547	0.091478	99
Es	-1.387174	-0.185181	0.446671	99
Es	2.440382	1.744769	0.261844	99
Es	1.474862	1.200890	-0.079853	99
Es	2.119876	1.457766	-0.160677	99
Es	-0.079045	0.854887	-0.990714	99
Es	-1.939521	-0.230097	0.365958	99
Es	-0.515093	-0.232295	0.544658	99
Es	0.840484	-1.333229	-0.292297	99
Es	0.400279	-0.180066	-0.632293	99
Es	-2.070648	-0.521986	0.287753	99
Es	0.250174	-0.982144	-0.505151	99
Es	0.915734	0.877649	-0.272370	99
Es	-0.134020	-1.300403	-1.031273	99
Es	-2.146105	0.016098	0.755456	99
Es	-1.947406	-0.081473	0.239424	99
Es	0.279112	0.524664	-0.489584	99
Es	2.031125	1.292925	0.315698	99
Es	-0.124014	0.342117	0.090263	99
Es	1.848413	1.734400	0.172535	99
33
Properties=species:S:1:pos:R:3:Z:I:1 energy=-283.7448625598307 field_type=dipole dipole="0.000000 0.000000 0.000000" charge=0
O	-1.939671	-0.230148	0.365575	8
C	-0.514941	-0.232358	0.544865	6
C	0.250199	-0.982358	-0.505215	6
C	0.278999	0.524762	-0.489705	6
C	1.475179	1.201072	-0.079755	6
N	2.440759	1.744982	0.261975	7
H	-2.390841	0.233102	1.093895	1
H	-0.133521	-0.287738	1.560806	1
H	-0.313361	-1.470488	-1.292305	1
H	1.132979	-1.528778	-0.192735	1
H	-0.285781	1.027952	-1.267405	1
Es	-1.939489	-0.229679	0.365746	99
Es	2.440385	1.744771	0.261845	99
Es	-0.134218	-1.300403	-1.031138	99
Es	-0.079186	0.854821	-0.990787	99
Es	-0.262894	-0.258234	1.226808	99
Es	0.840506	-1.333375	-0.292179	99
Es	0.250175	-0.982140	-0.505151	99
Es	2.754988	1.923469	0.364968	99
Es	0.279120	0.524675	-0.489589	99
Es	0.915734	0.877737	-0.272449	99
Es	-1.946989	-0.082696	0.241140	99
Es	-2.145937	0.016078	0.755275	99
Es	1.853451	1.740141	0.144244	99
Es	0.400149	-0.179980	-0.631909	99
Es	-2.071201	-0.521545	0.286678	99
Es	-0.123789	0.342400	0.090334	99
Es	1.474863	1.200888	-0.079853	99
Es	-0.515090	-0.232293	0.544657	99
Es	2.014559	1.311113	0.334956	99
Es	2.131499	1.433518	-0.151497	99
Es	-0.177222	-0.769799	0.091024	99
Es	-1.387245	-0.184777	0.446434	99
33
Properties=species:S:1:pos:R:3:Z:I:1 energy=-283.7448625598307 field_type=dipole dipole="0.000000 0.000000 0.000000" charge=0
O	-1.939671	-0.230148	0.365575	8
C	-0.514941	-0.232358	0.544865	6
C	0.250199	-0.982358	-0.505215	6
C	0.278999	0.524762	-0.489705	6
C	1.475179	1.201072	-0.079755	6
N	2.440759	1.744982	0.261975	7
H	-2.390841	0.233102	1.093895	1
H	-0.133521	-0.287738	1.560806	1
H	-0.313361	-1.470488	-1.292305	1
H	1.132979	-1.528778	-0.192735	1
H	-0.285781	1.027952	-1.267405	1
Es	-2.145331	0.016305	0.754117	99
Es	-0.515090	-0.232293	0.544657	99
Es	-0.123696	0.342601	0.090347	99
Es	-2.069780	-0.524265	0.292842	99
Es	-0.134389	-1.300628	-1.030873	99
Es	-1.939503	-0.230076	0.365891	99
Es	2.152427	1.255351	0.071743	99
Es	1.875518	1.560203	0.375441	99
Es	-0.078969	0.854645	-0.990061	99
Es	1.474863	1.200887	-0.079852	99
Es	2.440384	1.744769	0.261844	99
Es	0.839937	-1.333263	-0.292239	99
Es	-1.948880	-0.081062	0.236184	99
Es	1.971046	1.668719	-0.116529	99
Es	0.915851	0.877676	-0.272422	99
Es	-1.387382	-0.183656	0.446238	99
Es	0.250175	-0.982143	-0.505153	99
Es	-0.263062	-0.258529	1.226382	99
Es	2.755376	1.924298	0.361916	99
Es	-0.177013	-0.769848	0.091306	99
Es	0.400572	-0.179671	-0.632634	99
Es	0.279115	0.524669	-0.489588	99
33
Properties=species:S:1:pos:R:3:Z:I:1 energy=-283.7448625598307 field_type=dipole dipole="0.000000 0.000000 0.000000" charge=0
O	-1.939671	-0.230148	0.365575	8
C	-0.514941	-0.232358	0.544865	6
C	0.250199	-0.982358	-0.505215	6
C	0.278999	0.524762	-0.489705	6
C	1.475179	1.201072	-0.079755	6
N	2.440759	1.744982	0.261975	7
H	-2.390841	0.233102	1.093895	1
H	-0.133521	-0.287738	1.560806	1
H	-0.313361	-1.470488	-1.292305	1
H	1.132979	-1.528778	-0.192735	1
H	-0.285781	1.027952	-1.267405	1
Es	-0.515092	-0.232292	0.544657	99
Es	-0.123715	0.343318	0.090092	99
Es	0.399883	-0.180638	-0.632131	99
Es	-1.939516	-0.229991	0.365800	99
Es	-0.176560	-0.770004	0.090560	99
Es	2.440384	1.744770	0.261844	99
Es	1.882463	1.741173	0.036792	99
Es	1.474862	1.200888	-0.079850	99
Es	2.754420	1.924892	0.364277	99
Es	0.250173	-0.982144	-0.505150	99
Es	0.840304	-1.333319	-0.292075	99
Es	-0.262974	-0.258152	1.226628	99
Es	-1.387431	-0.183884	0.446271	99
Es	-0.078940	0.854848	-0.990137	99
Es	0.915699	0.877797	-0.272322	99
Es	1.956736	1.389980	0.384629	99
Es	-1.947032	-0.082913	0.241013	99
Es	2.160840	1.352297	-0.092984	99
Es	-0.134564	-1.300646	-1.030914	99
Es	-2.071177	-0.522360	0.287655	99
Es	0.279121	0.524671	-0.489592	99
Es	-2.145716	0.016399	0.754495	99
33
Properties=species:S:1:pos:R:3:Z:I:1 energy=-283.7448625598307 field_type=dipole dipole="0.000000 0.000000 0.000000" charge=0
O	-1.939671	-0.230148	0.365575	8
C	-0.514941	-0.232358	0.544865	6
C	0.250199	-0.982358	-0.505215	6
C	0.278999	0.524762	-0.489705	6
C	1.475179	1.201072	-0.079755	6
N	2.440759	1.744982	0.261975	7
H	-2.390841	0.233102	1.093895	1
H	-0.133521	-0.287738	1.560806	1
H	-0.313361	-1.470488	-1.292305	1
H	1.132979	-1.528778	-0.192735	1
H	-0.285781	1.027952	-1.267405	1
Es	-2.145364	0.017851	0.753156	99
Es	0.279117	0.524672	-0.489586	99
Es	-0.515089	-0.232295	0.544656	99
Es	0.915735	0.877958	-0.272613	99
Es	-0.262981	-0.258106	1.226635	99
Es	1.872364	1.743900	0.068206	99
Es	-1.939467	-0.229843	0.365801	99
Es	2.154539	1.374609	-0.113740	99
Es	1.973103	1.365028	0.373694	99
Es	1.474862	1.200888	-0.079850	99
Es	-0.134628	-1.300620	-1.031026	99
Es	-0.078935	0.854750	-0.990067	99
Es	-0.176568	-0.769897	0.090841	99
Es	2.754527	1.924625	0.364681	99
Es	-2.072081	-0.522412	0.288823	99
Es	-0.123944	0.342595	0.090319	99
Es	0.400231	-0.180073	-0.632318	99
Es	2.440384	1.744770	0.261844	99
Es	-1.946736	-0.083963	0.240745	99
Es	-1.387223	-0.184375	0.446706	99
Es	0.250176	-0.982143	-0.505152	99
Es	0.840148	-1.333230	-0.292196	99
33