47
Properties=species:S:1:pos:R:3:Z:I:1 energy=-305.3236668345006 field_type=dipole dipole="0.000000 0.000000 0.000000" charge=0
C	-2.271140	-1.458291	-0.067806	6
C	-0.963950	-0.955641	0.526324	6
C	-0.670620	0.483979	0.095724	6
C	0.601980	1.048389	0.726904	6
N	1.785240	0.343149	0.285624	7
C	2.436930	0.513509	-0.895926	6
N	2.223690	1.385089	-1.809316	7
H	-2.457710	-2.490131	0.245304	1
H	-2.239450	-1.435811	-1.161686	1
H	-3.114850	-0.845321	0.264514	1
H	-0.152030	-1.619231	0.207344	1
H	-1.021340	-1.013321	1.619204	1
H	-1.512760	1.121969	0.391534	1
H	-0.603170	0.533909	-0.997936	1
H	0.536749	0.976419	1.818624	1
H	0.689579	2.115839	0.493734	1
H	2.031139	-0.477791	0.829094	1
H	3.253580	-0.217641	-1.032576	1
H	1.448140	1.990929	-1.538676	1
Es	1.747461	1.743403	-1.628320	99
Es	2.436885	0.513425	-0.895739	99
Es	1.916558	-0.159699	0.597171	99
Es	-0.028644	0.762757	0.408585	99
Es	-2.844964	-1.035634	0.160901	99
Es	1.784970	0.342843	0.285188	99
Es	0.602127	1.048281	0.726832	99
Es	2.404795	1.425192	-2.114603	99
Es	2.987199	0.008667	-0.975901	99
Es	2.045367	0.521010	0.258732	99
Es	-0.619299	0.517199	-0.647876	99
Es	1.915187	0.316688	-0.248246	99
Es	0.666205	1.773540	0.558547	99
Es	-1.619952	-1.203834	0.227151	99
Es	-0.963972	-0.955619	0.526304	99
Es	2.223456	1.384998	-1.808862	99
Es	-2.271117	-1.458283	-0.067793	99
Es	-1.247297	0.921800	0.304141	99
Es	2.113505	0.873125	-1.573276	99
Es	-1.001143	-0.990052	1.280136	99
Es	-2.245822	-1.439872	-0.813677	99
Es	1.274159	0.635626	0.450932	99
Es	-2.397517	-2.162891	0.146960	99
Es	-0.809000	-0.234276	0.313701	99
Es	0.560502	0.988437	1.470891	99
Es	2.473988	1.225505	-1.315108	99
Es	-0.670598	0.483973	0.095753	99
Es	-0.404436	-1.408198	0.308065	99
47
Properties=species:S:1:pos:R:3:Z:I:1 energy=-305.3236668345006 field_type=dipole dipole="0.000000 0.000000 0.000000" charge=0
C	-2.271140	-1.458291	-0.067806	6
C	-0.963950	-0.955641	0.526324	6
C	-0.670620	0.483979	0.095724	6
C	0.601980	1.048389	0.726904	6
N	1.785240	0.343149	0.285624	7
C	2.436930	0.513509	-0.895926	6
N	2.223690	1.385089	-1.809316	7
H	-2.457710	-2.490131	0.245304	1
H	-2.239450	-1.435811	-1.161686	1
H	-3.114850	-0.845321	0.264514	1
H	-0.152030	-1.619231	0.207344	1
H	-1.021340	-1.013321	1.619204	1
H	-1.512760	1.121969	0.391534	1
H	-0.603170	0.533909	-0.997936	1
H	0.536749	0.976419	1.818624	1
H	0.689579	2.115839	0.493734	1
H	2.031139	-0.477791	0.829094	1
H	3.253580	-0.217641	-1.032576	1
H	1.448140	1.990929	-1.538676	1
Es	-2.271119	-1.458283	-0.067794	99
Es	1.273328	0.635945	0.449069	99
Es	-0.670597	0.483970	0.095754	99
Es	-1.001396	-0.991175	1.281452	99
Es	-0.963972	-0.955620	0.526304	99
Es	-0.619159	0.518149	-0.649078	99
Es	2.470871	1.225547	-1.314758	99
Es	2.223448	1.385002	-1.808841	99
Es	2.436884	0.513424	-0.895738	99
Es	-0.809025	-0.234223	0.313848	99
Es	0.665927	1.774234	0.557222	99
Es	-1.619943	-1.203697	0.227106	99
Es	-0.028384	0.762834	0.408423	99
Es	1.748220	1.742377	-1.628333	99
Es	0.559837	0.987501	1.471947	99
Es	-2.397695	-2.163904	0.148358	99
Es	2.008396	0.495926	0.266592	99
Es	1.920817	-0.160525	0.601399	99
Es	2.112653	0.873694	-1.571855	99
Es	0.602120	1.048288	0.726835	99
Es	1.948340	0.342084	-0.258594	99
Es	-2.245602	-1.438816	-0.814913	99
Es	-2.843250	-1.035795	0.161035	99
Es	1.784947	0.342854	0.285270	99
Es	-0.405904	-1.407978	0.307606	99
Es	-1.245864	0.921682	0.304529	99
Es	2.407552	1.425852	-2.116597	99
Es	2.987172	0.008763	-0.975660	99
47
Properties=species:S:1:pos:R:3:Z:I:1 energy=-305.3236668345006 field_type=dipole dipole="0.000000 0.000000 0.000000" charge=0
C	-2.271140	-1.458291	-0.067806	6
C	-0.963950	-0.955641	0.526324	6
C	-0.670620	0.483979	0.095724	6
C	0.601980	1.048389	0.726904	6
N	1.785240	0.343149	0.285624	7
C	2.436930	0.513509	-0.895926	6
N	2.223690	1.385089	-1.809316	7
H	-2.457710	-2.490131	0.245304	1
H	-2.239450	-1.435811	-1.161686	1
H	-3.114850	-0.845321	0.264514	1
H	-0.152030	-1.619231	0.207344	1
H	-1.021340	-1.013321	1.619204	1
H	-1.512760	1.121969	0.391534	1
H	-0.603170	0.533909	-0.997936	1
H	0.536749	0.976419	1.818624	1
H	0.689579	2.115839	0.493734	1
H	2.031139	-0.477791	0.829094	1
H	3.253580	-0.217641	-1.032576	1
H	1.448140	1.990929	-1.538676	1
Es	2.111997	0.874985	-1.572339	99
Es	1.923865	-0.160099	0.604501	99
Es	-1.001381	-0.991738	1.282056	99
Es	1.986052	0.479024	0.266347	99
Es	-0.406889	-1.407648	0.307668	99
Es	-1.244732	0.921416	0.304588	99
Es	1.273092	0.636802	0.448326	99
Es	-0.963972	-0.955620	0.526305	99
Es	-1.620171	-1.203743	0.226828	99
Es	0.559636	0.986718	1.472412	99
Es	-2.841975	-1.036013	0.161032	99
Es	-0.808924	-0.234390	0.314016	99
Es	0.602124	1.048285	0.726833	99
Es	-0.619223	0.518863	-0.649733	99
Es	-0.670597	0.483971	0.095753	99
Es	2.407410	1.425547	-2.117260	99
Es	-2.397851	-2.164643	0.149301	99
Es	1.784911	0.342790	0.285154	99
Es	0.665888	1.774752	0.556554	99
Es	-2.245682	-1.438026	-0.815507	99
Es	2.987122	0.008824	-0.975464	99
Es	-2.271118	-1.458283	-0.067793	99
Es	-0.028419	0.763011	0.408274	99
Es	1.748316	1.741616	-1.628986	99
Es	2.436885	0.513424	-0.895735	99
Es	1.967535	0.357727	-0.260636	99
Es	2.223465	1.385009	-1.808860	99
Es	2.471237	1.225547	-1.313045	99
47
Properties=species:S:1:pos:R:3:Z:I:1 energy=-305.3236668345006 field_type=dipole dipole="0.000000 0.000000 0.000000" charge=0
C	-2.271140	-1.458291	-0.067806	6
C	-0.963950	-0.955641	0.526324	6
C	-0.670620	0.483979	0.095724	6
C	0.601980	1.048389	0.726904	6
N	1.785240	0.343149	0.285624	7
C	2.436930	0.513509	-0.895926	6
N	2.223690	1.385089	-1.809316	7
H	-2.457710	-2.490131	0.245304	1
H	-2.239450	-1.435811	-1.161686	1
H	-3.114850	-0.845321	0.264514	1
H	-0.152030	-1.619231	0.207344	1
H	-1.021340	-1.013321	1.619204	1
H	-1.512760	1.121969	0.391534	1
H	-0.603170	0.533909	-0.997936	1
H	0.536749	0.976419	1.818624	1
H	0.689579	2.115839	0.493734	1
H	2.031139	-0.477791	0.829094	1
H	3.253580	-0.217641	-1.032576	1
H	1.448140	1.990929	-1.538676	1
Es	-2.245766	-1.437318	-0.815859	99
Es	0.602125	1.048287	0.726832	99
Es	-1.001222	-0.992308	1.282399	99
Es	2.471807	1.226067	-1.312897	99
Es	-0.963972	-0.955620	0.526303	99
Es	-1.620293	-1.203804	0.226842	99
Es	2.223448	1.384997	-1.808849	99
Es	1.974551	0.363915	-0.260839	99
Es	1.926661	-0.158893	0.607244	99
Es	1.749033	1.742121	-1.629443	99
Es	-2.271124	-1.458281	-0.067792	99
Es	1.976031	0.471371	0.263935	99
Es	1.273048	0.636885	0.448125	99
Es	-2.397991	-2.165184	0.149840	99
Es	2.111109	0.875511	-1.571451	99
Es	-2.841036	-1.036332	0.160987	99
Es	-1.244070	0.921057	0.304644	99
Es	-0.407648	-1.407303	0.307646	99
Es	0.665800	1.775137	0.555892	99
Es	1.784938	0.342846	0.285269	99
Es	2.406673	1.424210	-2.117868	99
Es	2.436886	0.513418	-0.895739	99
Es	-0.028226	0.763117	0.408408	99
Es	-0.670597	0.483970	0.095753	99
Es	-0.808861	-0.234410	0.313901	99
Es	2.987178	0.008860	-0.975331	99
Es	-0.619361	0.519498	-0.650021	99
Es	0.559483	0.986298	1.472658	99
47
Properties=species:S:1:pos:R:3:Z:I:1 energy=-305.3236668345006 field_type=dipole dipole="0.000000 0.000000 0.000000" charge=0
C	-2.271140	-1.458291	-0.067806	6
C	-0.963950	-0.955641	0.526324	6
C	-0.670620	0.483979	0.095724	6
C	0.601980	1.048389	0.726904	6
N	1.785240	0.343149	0.285624	7
C	2.436930	0.513509	-0.895926	6
N	2.223690	1.385089	-1.809316	7
H	-2.457710	-2.490131	0.245304	1
H	-2.239450	-1.435811	-1.161686	1
H	-3.114850	-0.845321	0.264514	1
H	-0.152030	-1.619231	0.207344	1
H	-1.021340	-1.013321	1.619204	1
H	-1.512760	1.121969	0.391534	1
H	-0.603170	0.533909	-0.997936	1
H	0.536749	0.976419	1.818624	1
H	0.689579	2.115839	0.493734	1
H	2.031139	-0.477791	0.829094	1
H	3.253580	-0.217641	-1.032576	1
H	1.448140	1.990929	-1.538676	1
Es	-2.271117	-1.458284	-0.067793	99
Es	0.602121	1.048287	0.726835	99
Es	2.436884	0.513423	-0.895736	99
Es	1.784887	0.342777	0.285171	99
Es	1.748682	1.741987	-1.630503	99
Es	-0.808959	-0.234374	0.313903	99
Es	2.471736	1.227272	-1.312749	99
Es	-0.408184	-1.407079	0.307686	99
Es	-0.670597	0.483971	0.095754	99
Es	1.966526	0.463660	0.261811	99
Es	-1.243398	0.920907	0.304722	99
Es	-2.840303	-1.036655	0.161128	99
Es	0.665794	1.775383	0.555545	99
Es	-2.398061	-2.165462	0.150168	99
Es	0.559424	0.985843	1.472855	99
Es	1.273065	0.637302	0.447860	99
Es	-1.001213	-0.992671	1.282678	99
Es	-1.620139	-1.203868	0.226757	99
Es	-0.619508	0.519899	-0.650340	99
Es	2.406736	1.423919	-2.117249	99
Es	1.981919	0.370353	-0.260464	99
Es	-2.246078	-1.436778	-0.816164	99
Es	-0.028132	0.763102	0.408334	99
Es	2.987200	0.008848	-0.975227	99
Es	-0.963972	-0.955619	0.526304	99
Es	2.223450	1.385000	-1.808855	99
Es	1.928747	-0.157913	0.609315	99
Es	2.111090	0.874879	-1.571157	99
47
Properties=species:S:1:pos:R:3:Z:I:1 energy=-305.3236668345006 field_type=dipole dipole="0.000000 0.000000 0.000000" charge=0
C	-2.271140	-1.458291	-0.067806	6
C	-0.963950	-0.955641	0.526324	6
C	-0.670620	0.483979	0.095724	6
C	0.601980	1.048389	0.726904	6
N	1.785240	0.343149	0.285624	7
C	2.436930	0.513509	-0.895926	6
N	2.223690	1.385089	-1.809316	7
H	-2.457710	-2.490131	0.245304	1
H	-2.239450	-1.435811	-1.161686	1
H	-3.114850	-0.845321	0.264514	1
H	-0.152030	-1.619231	0.207344	1
H	-1.021340	-1.013321	1.619204	1
H	-1.512760	1.121969	0.391534	1
H	-0.603170	0.533909	-0.997936	1
H	0.536749	0.976419	1.818624	1
H	0.689579	2.115839	0.493734	1
H	2.031139	-0.477791	0.829094	1
H	3.253580	-0.217641	-1.032576	1
H	1.448140	1.990929	-1.538676	1
Es	-0.963972	-0.955620	0.526304	99
Es	2.406878	1.423751	-2.116936	99
Es	1.272420	0.636330	0.447043	99
Es	0.602123	1.048285	0.726834	99
Es	-2.271117	-1.458284	-0.067793	99
Es	-1.242920	0.920810	0.304708	99
Es	0.559311	0.985550	1.473001	99
Es	1.964469	0.462660	0.260209	99
Es	-1.620287	-1.203727	0.226750	99
Es	-0.408724	-1.406956	0.307589	99
Es	2.436884	0.513423	-0.895739	99
Es	2.471658	1.226798	-1.311994	99
Es	1.930668	-0.156625	0.611152	99
Es	-0.619522	0.520226	-0.650520	99
Es	1.748484	1.742131	-1.630873	99
Es	2.110951	0.875525	-1.571832	99
Es	-2.398007	-2.165871	0.150736	99
Es	-1.001103	-0.993022	1.282932	99
Es	2.223459	1.384987	-1.808846	99
Es	1.981863	0.370184	-0.260492	99
Es	1.785521	0.343420	0.285799	99
Es	-0.670597	0.483970	0.095754	99
Es	-0.027923	0.763068	0.408474	99
Es	-2.839742	-1.036760	0.160972	99
Es	-0.809036	-0.234376	0.313861	99
Es	0.665598	1.775666	0.554962	99
Es	-2.246036	-1.436433	-0.816296	99
Es	2.987301	0.008999	-0.975171	99
47
Properties=species:S:1:pos:R:3:Z:I:1 energy=-305.3236668345006 field_type=dipole dipole="0.000000 0.000000 0.000000" charge=0
C	-2.271140	-1.458291	-0.067806	6
C	-0.963950	-0.955641	0.526324	6
C	-0.670620	0.483979	0.095724	6
C	0.601980	1.048389	0.726904	6
N	1.785240	0.343149	0.285624	7
C	2.436930	0.513509	-0.895926	6
N	2.223690	1.385089	-1.809316	7
H	-2.457710	-2.490131	0.245304	1
H	-2.239450	-1.435811	-1.161686	1
H	-3.114850	-0.845321	0.264514	1
H	-0.152030	-1.619231	0.207344	1
H	-1.021340	-1.013321	1.619204	1
H	-1.512760	1.121969	0.391534	1
H	-0.603170	0.533909	-0.997936	1
H	0.536749	0.976419	1.818624	1
H	0.689579	2.115839	0.493734	1
H	2.031139	-0.477791	0.829094	1
H	3.253580	-0.217641	-1.032576	1
H	1.448140	1.990929	-1.538676	1
Es	-2.246232	-1.436213	-0.816521	99
Es	-2.271117	-1.458283	-0.067793	99
Es	-0.409095	-1.406717	0.307585	99
Es	1.272364	0.636643	0.446890	99
Es	1.955664	0.455273	0.258844	99
Es	0.602123	1.048287	0.726834	99
Es	-0.619663	0.520475	-0.650696	99
Es	-2.839241	-1.036949	0.160973	99
Es	-0.963972	-0.955619	0.526304	99
Es	2.987218	0.008929	-0.975054	99
Es	-0.809015	-0.234360	0.313922	99
Es	2.110315	0.875735	-1.571509	99
Es	0.559402	0.985281	1.473051	99
Es	-1.620333	-1.203773	0.226657	99
Es	-1.242545	0.920499	0.304638	99
Es	1.989882	0.377358	-0.259582	99
Es	-0.027941	0.763203	0.408578	99
Es	2.436885	0.513424	-0.895733	99
Es	-1.000949	-0.993301	1.283076	99
Es	1.748693	1.743042	-1.631834	99
Es	-0.670596	0.483971	0.095754	99
Es	2.406057	1.422175	-2.116513	99
Es	2.472687	1.227331	-1.311789	99
Es	2.223449	1.385003	-1.808859	99
Es	0.665634	1.775850	0.554759	99
Es	1.784864	0.342750	0.285134	99
Es	-2.398066	-2.165962	0.151086	99
Es	1.932130	-0.155941	0.612388	99
47
Properties=species:S:1:pos:R:3:Z:I:1 energy=-305.3236668345006 field_type=dipole dipole="0.000000 0.000000 0.000000" charge=0
C	-2.271140	-1.458291	-0.067806	6
C	-0.963950	-0.955641	0.526324	6
C	-0.670620	0.483979	0.095724	6
C	0.601980	1.048389	0.726904	6
N	1.785240	0.343149	0.285624	7
C	2.436930	0.513509	-0.895926	6
N	2.223690	1.385089	-1.809316	7
H	-2.457710	-2.490131	0.245304	1
H	-2.239450	-1.435811	-1.161686	1
H	-3.114850	-0.845321	0.264514	1
H	-0.152030	-1.619231	0.207344	1
H	-1.021340	-1.013321	1.619204	1
H	-1.512760	1.121969	0.391534	1
H	-0.603170	0.533909	-0.997936	1
H	0.536749	0.976419	1.818624	1
H	0.689579	2.115839	0.493734	1
H	2.031139	-0.477791	0.829094	1
H	3.253580	-0.217641	-1.032576	1
H	1.448140	1.990929	-1.538676	1
Es	-1.000979	-0.993524	1.283227	99
Es	-1.242257	0.920477	0.304831	99
Es	-1.620431	-1.203737	0.226676	99
Es	0.665429	1.775994	0.554380	99
Es	1.958352	0.457981	0.258976	99
Es	2.110600	0.875753	-1.571877	99
Es	-0.670597	0.483970	0.095753	99
Es	2.471771	1.227317	-1.311325	99
Es	1.932698	-0.155412	0.613259	99
Es	-0.409345	-1.406658	0.307515	99
Es	2.223444	1.384991	-1.808853	99
Es	-2.246129	-1.435841	-0.816570	99
Es	-2.397924	-2.166294	0.151341	99
Es	-0.619682	0.520808	-0.650850	99
Es	2.436884	0.513424	-0.895733	99
Es	0.602123	1.048286	0.726834	99
Es	-0.963971	-0.955620	0.526304	99
Es	-0.808978	-0.234400	0.313898	99
Es	1.272095	0.635935	0.446123	99
Es	-2.838938	-1.037035	0.160956	99
Es	0.559192	0.985000	1.473197	99
Es	2.406849	1.422704	-2.116131	99
Es	1.784898	0.342793	0.285192	99
Es	-0.027813	0.763159	0.408471	99
Es	-2.271117	-1.458284	-0.067794	99
Es	1.748248	1.742589	-1.632287	99
Es	2.987378	0.008990	-0.975054	99
Es	1.986802	0.374743	-0.259870	99
47
Properties=species:S:1:pos:R:3:Z:I:1 energy=-305.3236668345006 field_type=dipole dipole="0.000000 0.000000 0.000000" charge=0
C	-2.271140	-1.458291	-0.067806	6
C	-0.963950	-0.955641	0.526324	6
C	-0.670620	0.483979	0.095724	6
C	0.601980	1.048389	0.726904	6
N	1.785240	0.343149	0.285624	7
C	2.436930	0.513509	-0.895926	6
N	2.223690	1.385089	-1.809316	7
H	-2.457710	-2.490131	0.245304	1
H	-2.239450	-1.435811	-1.161686	1
H	-3.114850	-0.845321	0.264514	1
H	-0.152030	-1.619231	0.207344	1
H	-1.021340	-1.013321	1.619204	1
H	-1.512760	1.121969	0.391534	1
H	-0.603170	0.533909	-0.997936	1
H	0.536749	0.976419	1.818624	1
H	0.689579	2.115839	0.493734	1
H	2.031139	-0.477791	0.829094	1
H	3.253580	-0.217641	-1.032576	1
H	1.448140	1.990929	-1.538676	1
Es	-0.027753	0.763259	0.408490	99
Es	2.436884	0.513424	-0.895734	99
Es	2.406643	1.421653	-2.115437	99
Es	1.785178	0.343114	0.285587	99
Es	0.602123	1.048286	0.726833	99
Es	1.272130	0.636373	0.446348	99
Es	-0.409665	-1.406466	0.307502	99
Es	1.933867	-0.154707	0.614199	99
Es	1.990555	0.378191	-0.259446	99
Es	-0.619929	0.521049	-0.650940	99
Es	2.223460	1.384999	-1.808863	99
Es	2.110129	0.876661	-1.572619	99
Es	-0.670597	0.483970	0.095753	99
Es	-1.241905	0.920240	0.304838	99
Es	-2.246378	-1.435447	-0.816692	99
Es	-1.000726	-0.993725	1.283284	99
Es	0.665449	1.776136	0.554185	99
Es	2.472260	1.226632	-1.310454	99
Es	-2.271114	-1.458282	-0.067792	99
Es	2.987484	0.009040	-0.974911	99
Es	-1.620517	-1.203749	0.226761	99
Es	-2.397957	-2.166476	0.151487	99
Es	1.952937	0.453073	0.256930	99
Es	-2.838475	-1.037369	0.160971	99
Es	-0.808976	-0.234404	0.313899	99
Es	-0.963974	-0.955622	0.526305	99
Es	0.559257	0.984801	1.473209	99
Es	1.748210	1.743454	-1.633107	99
47
Properties=species:S:1:pos:R:3:Z:I:1 energy=-305.3236668345006 field_type=dipole dipole="0.000000 0.000000 0.000000" charge=0
C	-2.271140	-1.458291	-0.067806	6
C	-0.963950	-0.955641	0.526324	6
C	-0.670620	0.483979	0.095724	6
C	0.601980	1.048389	0.726904	6
N	1.785240	0.343149	0.285624	7
C	2.436930	0.513509	-0.895926	6
N	2.223690	1.385089	-1.809316	7
H	-2.457710	-2.490131	0.245304	1
H	-2.239450	-1.435811	-1.161686	1
H	-3.114850	-0.845321	0.264514	1
H	-0.152030	-1.619231	0.207344	1
H	-1.021340	-1.013321	1.619204	1
H	-1.512760	1.121969	0.391534	1
H	-0.603170	0.533909	-0.997936	1
H	0.536749	0.976419	1.818624	1
H	0.689579	2.115839	0.493734	1
H	2.031139	-0.477791	0.829094	1
H	3.253580	-0.217641	-1.032576	1
H	1.448140	1.990929	-1.538676	1
Es	2.223441	1.385006	-1.808852	99
Es	0.559231	0.984641	1.473299	99
Es	1.271677	0.635467	0.445646	99
Es	-0.027731	0.763238	0.408471	99
Es	-1.620530	-1.203739	0.226679	99
Es	-1.000547	-0.994043	1.283463	99
Es	0.602124	1.048285	0.726833	99
Es	-0.670597	0.483970	0.095754	99
Es	2.436890	0.513430	-0.895729	99
Es	-0.620017	0.521280	-0.651087	99
Es	1.951166	0.452052	0.257144	99
Es	1.747984	1.743578	-1.633346	99
Es	-0.809012	-0.234387	0.313947	99
Es	2.987478	0.008918	-0.974862	99
Es	1.992502	0.380201	-0.259181	99
Es	-2.838164	-1.037433	0.161049	99
Es	2.406440	1.421644	-2.114934	99
Es	1.934240	-0.154570	0.614451	99
Es	1.785078	0.343025	0.285499	99
Es	2.472655	1.225814	-1.309584	99
Es	-1.241649	0.920127	0.304942	99
Es	-0.409967	-1.406282	0.307312	99
Es	-2.271118	-1.458284	-0.067795	99
Es	2.110007	0.877428	-1.573726	99
Es	0.665347	1.776216	0.553941	99
Es	-2.246496	-1.435234	-0.816781	99
Es	-2.397859	-2.166619	0.151732	99
Es	-0.963973	-0.955620	0.526305	99
47
Properties=species:S:1:pos:R:3:Z:I:1 energy=-305.3236668345006 field_type=dipole dipole="0.000000 0.000000 0.000000" charge=0
C	-2.271140	-1.458291	-0.067806	6
C	-0.963950	-0.955641	0.526324	6
C	-0.670620	0.483979	0.095724	6
C	0.601980	1.048389	0.726904	6
N	1.785240	0.343149	0.285624	7
C	2.436930	0.513509	-0.895926	6
N	2.223690	1.385089	-1.809316	7
H	-2.457710	-2.490131	0.245304	1
H	-2.239450	-1.435811	-1.161686	1
H	-3.114850	-0.845321	0.264514	1
H	-0.152030	-1.619231	0.207344	1
H	-1.021340	-1.013321	1.619204	1
H	-1.512760	1.121969	0.391534	1
H	-0.603170	0.533909	-0.997936	1
H	0.536749	0.976419	1.818624	1
H	0.689579	2.115839	0.493734	1
H	2.031139	-0.477791	0.829094	1
H	3.253580	-0.217641	-1.032576	1
H	1.448140	1.990929	-1.538676	1
Es	2.223489	1.384974	-1.808875	99
Es	2.110263	0.875812	-1.571579	99
Es	-0.027693	0.763228	0.408613	99
Es	2.987460	0.008962	-0.974859	99
Es	-2.837978	-1.037599	0.161012	99
Es	-2.246584	-1.435034	-0.816790	99
Es	0.665376	1.776314	0.553889	99
Es	-0.963972	-0.955621	0.526304	99
Es	-1.620524	-1.203749	0.226585	99
Es	1.785458	0.343366	0.285768	99
Es	1.945372	0.446405	0.254349	99
Es	1.272135	0.636592	0.446271	99
Es	2.436886	0.513425	-0.895733	99
Es	1.995983	0.383347	-0.258541	99
Es	1.747864	1.744023	-1.634513	99
Es	0.602121	1.048288	0.726835	99
Es	2.405690	1.420293	-2.114478	99
Es	1.935709	-0.153496	0.615757	99
Es	-1.000452	-0.994233	1.283587	99
Es	0.559340	0.984502	1.473284	99
Es	-0.410171	-1.406023	0.307335	99
Es	-0.809073	-0.234376	0.313865	99
Es	-0.670596	0.483971	0.095753	99
Es	2.473070	1.228419	-1.310983	99
Es	-1.241428	0.919855	0.304947	99
Es	-0.620168	0.521492	-0.651201	99
Es	-2.271118	-1.458284	-0.067793	99
Es	-2.397856	-2.166746	0.151780	99
47
Properties=species:S:1:pos:R:3:Z:I:1 energy=-305.3236668345006 field_type=dipole dipole="0.000000 0.000000 0.000000" charge=0
C	-2.271140	-1.458291	-0.067806	6
C	-0.963950	-0.955641	0.526324	6
C	-0.670620	0.483979	0.095724	6
C	0.601980	1.048389	0.726904	6
N	1.785240	0.343149	0.285624	7
C	2.436930	0.513509	-0.895926	6
N	2.223690	1.385089	-1.809316	7
H	-2.457710	-2.490131	0.245304	1
H	-2.239450	-1.435811	-1.161686	1
H	-3.114850	-0.845321	0.264514	1
H	-0.152030	-1.619231	0.207344	1
H	-1.021340	-1.013321	1.619204	1
H	-1.512760	1.121969	0.391534	1
H	-0.603170	0.533909	-0.997936	1
H	0.536749	0.976419	1.818624	1
H	0.689579	2.115839	0.493734	1
H	2.031139	-0.477791	0.829094	1
H	3.253580	-0.217641	-1.032576	1
H	1.448140	1.990929	-1.538676	1
Es	-1.241419	0.919973	0.304827	99
Es	-0.410467	-1.406085	0.307248	99
Es	-2.271116	-1.458283	-0.067794	99
Es	2.472739	1.226593	-1.309573	99
Es	2.436886	0.513426	-0.895733	99
Es	2.223452	1.384989	-1.808846	99
Es	-2.246677	-1.434891	-0.817000	99
Es	-0.027592	0.763274	0.408675	99
Es	-2.397766	-2.166776	0.152134	99
Es	-0.619896	0.521534	-0.651169	99
Es	0.665262	1.776412	0.553624	99
Es	-0.963971	-0.955619	0.526305	99
Es	2.406378	1.420354	-2.113899	99
Es	-2.837630	-1.037745	0.161031	99
Es	2.109815	0.877150	-1.573293	99
Es	-1.620589	-1.203611	0.226663	99
Es	-0.670597	0.483970	0.095753	99
Es	0.559195	0.984274	1.473368	99
Es	1.994553	0.382111	-0.258770	99
Es	1.947401	0.448633	0.255273	99
Es	0.602123	1.048286	0.726833	99
Es	1.271677	0.635795	0.445556	99
Es	-0.809045	-0.234365	0.313821	99
Es	1.747824	1.744469	-1.634807	99
Es	1.785122	0.343062	0.285534	99
Es	1.935752	-0.153448	0.615916	99
Es	-1.000418	-0.994412	1.283656	99
Es	2.987607	0.009040	-0.974746	99
