48
Properties=species:S:1:pos:R:3:Z:I:1 energy=-289.306153946902 field_type=dipole dipole="0.000000 0.000000 0.000000" charge=0
C	-0.739416	-2.140707	-0.326061	6
C	-1.491646	-0.988567	0.329779	6
C	-0.981666	0.395653	-0.109041	6
N	-1.810466	1.441683	0.488849	7
C	0.444704	0.638823	0.298799	6
C	1.447464	0.871423	-0.565401	6
C	2.863134	1.112162	-0.155591	6
H	-1.192956	-3.094847	-0.039991	1
H	0.308664	-2.164797	-0.014301	1
H	-0.775676	-2.061857	-1.416661	1
H	-1.424326	-1.097007	1.420769	1
H	-2.554456	-1.083207	0.069959	1
H	-1.078776	0.476773	-1.198731	1
H	-1.842396	1.314213	1.498389	1
H	-2.769356	1.333593	0.164359	1
H	0.657444	0.619732	1.364749	1
H	1.243194	0.902003	-1.632931	1
H	2.995404	1.059923	0.929819	1
H	3.185544	2.102082	-0.492071	1
H	3.515584	0.362933	-0.614691	1
Es	-1.491622	-0.988595	0.329762	99
Es	-0.981723	0.395729	-0.108940	99
Es	-0.766251	-2.082021	-1.072281	99
Es	-1.831923	1.339801	1.099575	99
Es	-1.463035	0.972657	0.242975	99
Es	-2.391709	1.350636	0.297659	99
Es	2.155764	0.991361	-0.355920	99
Es	2.947307	1.075204	0.583148	99
Es	-1.052166	-2.791963	-0.130299	99
Es	-2.222937	-1.045416	0.147704	99
Es	-1.222640	-0.308437	0.114689	99
Es	-0.739439	-2.140691	-0.326052	99
Es	3.298506	0.603579	-0.470084	99
Es	-1.810668	1.441178	0.488977	99
Es	-1.107764	-1.564802	-0.001475	99
Es	-0.260767	0.509337	0.098228	99
Es	0.881846	1.073064	-0.113471	99
Es	3.075114	1.780300	-0.387013	99
Es	0.578720	0.622181	1.030945	99
Es	0.444619	0.638801	0.298865	99
Es	-1.046698	0.446487	-0.856995	99
Es	1.314738	0.891277	-1.295446	99
Es	-0.027988	-2.154747	-0.112881	99
Es	1.447578	0.871445	-0.565465	99
Es	-1.441137	-1.054082	1.082202	99
Es	-1.693903	1.767480	0.411146	99
Es	1.002345	0.423855	-0.148212	99
Es	2.863103	1.112155	-0.155606	99
48
Properties=species:S:1:pos:R:3:Z:I:1 energy=-289.306153946902 field_type=dipole dipole="0.000000 0.000000 0.000000" charge=0
C	-0.739416	-2.140707	-0.326061	6
C	-1.491646	-0.988567	0.329779	6
C	-0.981666	0.395653	-0.109041	6
N	-1.810466	1.441683	0.488849	7
C	0.444704	0.638823	0.298799	6
C	1.447464	0.871423	-0.565401	6
C	2.863134	1.112162	-0.155591	6
H	-1.192956	-3.094847	-0.039991	1
H	0.308664	-2.164797	-0.014301	1
H	-0.775676	-2.061857	-1.416661	1
H	-1.424326	-1.097007	1.420769	1
H	-2.554456	-1.083207	0.069959	1
H	-1.078776	0.476773	-1.198731	1
H	-1.842396	1.314213	1.498389	1
H	-2.769356	1.333593	0.164359	1
H	0.657444	0.619732	1.364749	1
H	1.243194	0.902003	-1.632931	1
H	2.995404	1.059923	0.929819	1
H	3.185544	2.102082	-0.492071	1
H	3.515584	0.362933	-0.614691	1
Es	-1.107496	-1.565031	-0.001474	99
Es	-1.831959	1.338568	1.100763	99
Es	-1.046900	0.446493	-0.857404	99
Es	-1.698405	1.766192	0.413433	99
Es	-2.390882	1.349471	0.297238	99
Es	-0.766416	-2.081549	-1.073176	99
Es	-0.739439	-2.140691	-0.326053	99
Es	3.298437	0.604287	-0.470194	99
Es	1.447579	0.871445	-0.565466	99
Es	-1.491621	-0.988594	0.329761	99
Es	0.881872	1.072999	-0.113445	99
Es	-1.440803	-1.054272	1.082766	99
Es	1.314614	0.891251	-1.295479	99
Es	-0.981722	0.395729	-0.108941	99
Es	0.444610	0.638792	0.298867	99
Es	-1.810702	1.441130	0.489011	99
Es	3.075130	1.779406	-0.387147	99
Es	0.578898	0.622261	1.030879	99
Es	-1.459218	0.975943	0.240070	99
Es	-0.028171	-2.154520	-0.112347	99
Es	2.155530	0.991329	-0.356544	99
Es	2.947671	1.075358	0.583756	99
Es	-1.052455	-2.791749	-0.129779	99
Es	-0.260845	0.509252	0.098628	99
Es	-2.223094	-1.045607	0.147383	99
Es	-1.222382	-0.308282	0.114433	99
Es	1.002340	0.424008	-0.148195	99
Es	2.863104	1.112157	-0.155608	99
48
Properties=species:S:1:pos:R:3:Z:I:1 energy=-289.306153946902 field_type=dipole dipole="0.000000 0.000000 0.000000" charge=0
C	-0.739416	-2.140707	-0.326061	6
C	-1.491646	-0.988567	0.329779	6
C	-0.981666	0.395653	-0.109041	6
N	-1.810466	1.441683	0.488849	7
C	0.444704	0.638823	0.298799	6
C	1.447464	0.871423	-0.565401	6
C	2.863134	1.112162	-0.155591	6
H	-1.192956	-3.094847	-0.039991	1
H	0.308664	-2.164797	-0.014301	1
H	-0.775676	-2.061857	-1.416661	1
H	-1.424326	-1.097007	1.420769	1
H	-2.554456	-1.083207	0.069959	1
H	-1.078776	0.476773	-1.198731	1
H	-1.842396	1.314213	1.498389	1
H	-2.769356	1.333593	0.164359	1
H	0.657444	0.619732	1.364749	1
H	1.243194	0.902003	-1.632931	1
H	2.995404	1.059923	0.929819	1
H	3.185544	2.102082	-0.492071	1
H	3.515584	0.362933	-0.614691	1
Es	-2.389633	1.348023	0.297168	99
Es	-1.810705	1.441144	0.489006	99
Es	-1.107186	-1.565199	-0.001675	99
Es	-1.052861	-2.791822	-0.129161	99
Es	0.881878	1.073147	-0.113409	99
Es	-1.454613	0.979907	0.236642	99
Es	2.947960	1.075372	0.583987	99
Es	-0.260896	0.509137	0.098925	99
Es	-0.739439	-2.140690	-0.326053	99
Es	0.444605	0.638802	0.298869	99
Es	1.447580	0.871444	-0.565467	99
Es	2.155342	0.991435	-0.356998	99
Es	-0.981722	0.395728	-0.108941	99
Es	2.863103	1.112156	-0.155608	99
Es	-0.028525	-2.154146	-0.111929	99
Es	3.298436	0.604744	-0.470381	99
Es	-1.832326	1.337370	1.101659	99
Es	0.579061	0.622248	1.030707	99
Es	1.314512	0.891219	-1.295350	99
Es	-1.222094	-0.308155	0.114210	99
Es	-1.440738	-1.054555	1.083115	99
Es	3.075085	1.778884	-0.387095	99
Es	1.002386	0.423944	-0.148139	99
Es	-1.047014	0.446602	-0.857509	99
Es	-0.766326	-2.081158	-1.073799	99
Es	-1.703822	1.764501	0.416148	99
Es	-2.223155	-1.045712	0.147053	99
Es	-1.491622	-0.988595	0.329762	99
48
Properties=species:S:1:pos:R:3:Z:I:1 energy=-289.306153946902 field_type=dipole dipole="0.000000 0.000000 0.000000" charge=0
C	-0.739416	-2.140707	-0.326061	6
C	-1.491646	-0.988567	0.329779	6
C	-0.981666	0.395653	-0.109041	6
N	-1.810466	1.441683	0.488849	7
C	0.444704	0.638823	0.298799	6
C	1.447464	0.871423	-0.565401	6
C	2.863134	1.112162	-0.155591	6
H	-1.192956	-3.094847	-0.039991	1
H	0.308664	-2.164797	-0.014301	1
H	-0.775676	-2.061857	-1.416661	1
H	-1.424326	-1.097007	1.420769	1
H	-2.554456	-1.083207	0.069959	1
H	-1.078776	0.476773	-1.198731	1
H	-1.842396	1.314213	1.498389	1
H	-2.769356	1.333593	0.164359	1
H	0.657444	0.619732	1.364749	1
H	1.243194	0.902003	-1.632931	1
H	2.995404	1.059923	0.929819	1
H	3.185544	2.102082	-0.492071	1
H	3.515584	0.362933	-0.614691	1
Es	-1.709928	1.760814	0.420126	99
Es	3.298358	0.605060	-0.470326	99
Es	-2.223169	-1.045927	0.146812	99
Es	-2.388434	1.347248	0.296851	99
Es	-0.766043	-2.080728	-1.074243	99
Es	2.155153	0.991362	-0.357247	99
Es	0.444609	0.638788	0.298868	99
Es	0.881723	1.073633	-0.113369	99
Es	1.314562	0.891165	-1.295181	99
Es	-1.053585	-2.792023	-0.128437	99
Es	-1.810666	1.441178	0.488975	99
Es	3.075129	1.778655	-0.387202	99
Es	-1.440765	-1.054777	1.083313	99
Es	-0.739439	-2.140690	-0.326053	99
Es	-1.106735	-1.565347	-0.001862	99
Es	-0.028989	-2.153808	-0.111569	99
Es	1.002489	0.423757	-0.148159	99
Es	-1.491622	-0.988595	0.329762	99
Es	-1.448774	0.985378	0.232436	99
Es	0.579128	0.622124	1.030429	99
Es	-1.046960	0.446722	-0.857534	99
Es	-1.221811	-0.308054	0.113901	99
Es	-1.833117	1.336122	1.102194	99
Es	-0.981722	0.395730	-0.108940	99
Es	-0.260989	0.508966	0.099251	99
Es	1.447580	0.871444	-0.565466	99
Es	2.948184	1.075418	0.584014	99
Es	2.863102	1.112155	-0.155608	99
48
Properties=species:S:1:pos:R:3:Z:I:1 energy=-289.306153946902 field_type=dipole dipole="0.000000 0.000000 0.000000" charge=0
C	-0.739416	-2.140707	-0.326061	6
C	-1.491646	-0.988567	0.329779	6
C	-0.981666	0.395653	-0.109041	6
N	-1.810466	1.441683	0.488849	7
C	0.444704	0.638823	0.298799	6
C	1.447464	0.871423	-0.565401	6
C	2.863134	1.112162	-0.155591	6
H	-1.192956	-3.094847	-0.039991	1
H	0.308664	-2.164797	-0.014301	1
H	-0.775676	-2.061857	-1.416661	1
H	-1.424326	-1.097007	1.420769	1
H	-2.554456	-1.083207	0.069959	1
H	-1.078776	0.476773	-1.198731	1
H	-1.842396	1.314213	1.498389	1
H	-2.769356	1.333593	0.164359	1
H	0.657444	0.619732	1.364749	1
H	1.243194	0.902003	-1.632931	1
H	2.995404	1.059923	0.929819	1
H	3.185544	2.102082	-0.492071	1
H	3.515584	0.362933	-0.614691	1
Es	-1.106309	-1.565643	-0.002146	99
Es	-0.765715	-2.080350	-1.074545	99
Es	2.155219	0.991427	-0.357777	99
Es	-1.716813	1.755610	0.424182	99
Es	-1.810685	1.441125	0.489009	99
Es	-1.491621	-0.988593	0.329762	99
Es	-1.054431	-2.792183	-0.127688	99
Es	3.075149	1.778580	-0.387185	99
Es	0.881727	1.073902	-0.113442	99
Es	-0.261359	0.508906	0.099611	99
Es	1.314336	0.891143	-1.294775	99
Es	0.579293	0.622252	1.030027	99
Es	-0.981722	0.395728	-0.108941	99
Es	-1.442439	0.993072	0.227572	99
Es	1.447581	0.871444	-0.565465	99
Es	2.863103	1.112156	-0.155607	99
Es	-1.046829	0.446817	-0.857532	99
Es	2.948223	1.075426	0.583913	99
Es	-2.386762	1.346119	0.297023	99
Es	-1.440751	-1.054900	1.083349	99
Es	-1.833978	1.334688	1.102634	99
Es	-1.221474	-0.308061	0.113676	99
Es	1.002581	0.423289	-0.148032	99
Es	3.298423	0.605284	-0.470230	99
Es	-0.739438	-2.140691	-0.326053	99
Es	0.444607	0.638792	0.298868	99
Es	-2.223197	-1.046024	0.146823	99
Es	-0.029448	-2.153543	-0.111294	99
48
Properties=species:S:1:pos:R:3:Z:I:1 energy=-289.306153946902 field_type=dipole dipole="0.000000 0.000000 0.000000" charge=0
C	-0.739416	-2.140707	-0.326061	6
C	-1.491646	-0.988567	0.329779	6
C	-0.981666	0.395653	-0.109041	6
N	-1.810466	1.441683	0.488849	7
C	0.444704	0.638823	0.298799	6
C	1.447464	0.871423	-0.565401	6
C	2.863134	1.112162	-0.155591	6
H	-1.192956	-3.094847	-0.039991	1
H	0.308664	-2.164797	-0.014301	1
H	-0.775676	-2.061857	-1.416661	1
H	-1.424326	-1.097007	1.420769	1
H	-2.554456	-1.083207	0.069959	1
H	-1.078776	0.476773	-1.198731	1
H	-1.842396	1.314213	1.498389	1
H	-2.769356	1.333593	0.164359	1
H	0.657444	0.619732	1.364749	1
H	1.243194	0.902003	-1.632931	1
H	2.995404	1.059923	0.929819	1
H	3.185544	2.102082	-0.492071	1
H	3.515584	0.362933	-0.614691	1
Es	-1.435958	1.002676	0.223172	99
Es	3.075340	1.778679	-0.387291	99
Es	-2.223021	-1.046083	0.146759	99
Es	-1.441041	-1.055007	1.083364	99
Es	-1.810684	1.441141	0.489003	99
Es	2.863103	1.112155	-0.155608	99
Es	-0.765051	-2.080056	-1.074776	99
Es	-1.723687	1.748062	0.428064	99
Es	-1.491622	-0.988595	0.329762	99
Es	2.948276	1.075449	0.583656	99
Es	0.881603	1.074354	-0.113408	99
Es	1.314305	0.891180	-1.294435	99
Es	1.002705	0.422874	-0.148057	99
Es	-0.261450	0.508811	0.099767	99
Es	-2.384870	1.344913	0.297054	99
Es	-0.981724	0.395733	-0.108938	99
Es	0.444605	0.638799	0.298872	99
Es	0.579279	0.622268	1.029705	99
Es	-1.105795	-1.565848	-0.002434	99
Es	-0.030200	-2.153338	-0.111092	99
Es	1.447579	0.871447	-0.565465	99
Es	-0.739439	-2.140690	-0.326053	99
Es	-1.835237	1.333699	1.103018	99
Es	-1.046769	0.446975	-0.857395	99
Es	-1.221204	-0.308031	0.113415	99
Es	3.298277	0.605178	-0.470112	99
Es	2.155223	0.991463	-0.357868	99
Es	-1.055272	-2.792435	-0.126940	99
48
Properties=species:S:1:pos:R:3:Z:I:1 energy=-289.306153946902 field_type=dipole dipole="0.000000 0.000000 0.000000" charge=0
C	-0.739416	-2.140707	-0.326061	6
C	-1.491646	-0.988567	0.329779	6
C	-0.981666	0.395653	-0.109041	6
N	-1.810466	1.441683	0.488849	7
C	0.444704	0.638823	0.298799	6
C	1.447464	0.871423	-0.565401	6
C	2.863134	1.112162	-0.155591	6
H	-1.192956	-3.094847	-0.039991	1
H	0.308664	-2.164797	-0.014301	1
H	-0.775676	-2.061857	-1.416661	1
H	-1.424326	-1.097007	1.420769	1
H	-2.554456	-1.083207	0.069959	1
H	-1.078776	0.476773	-1.198731	1
H	-1.842396	1.314213	1.498389	1
H	-2.769356	1.333593	0.164359	1
H	0.657444	0.619732	1.364749	1
H	1.243194	0.902003	-1.632931	1
H	2.995404	1.059923	0.929819	1
H	3.185544	2.102082	-0.492071	1
H	3.515584	0.362933	-0.614691	1
Es	-2.223003	-1.046154	0.146874	99
Es	-2.383064	1.344333	0.297133	99
Es	-1.810709	1.441071	0.489023	99
Es	-1.729024	1.739964	0.431394	99
Es	-0.261776	0.508589	0.100155	99
Es	-0.764397	-2.079836	-1.074901	99
Es	2.155535	0.991641	-0.358347	99
Es	-1.430658	1.012585	0.219311	99
Es	-1.046534	0.447036	-0.857271	99
Es	2.947924	1.075336	0.583567	99
Es	-1.836627	1.332627	1.103169	99
Es	-1.105403	-1.565947	-0.002761	99
Es	-1.441086	-1.055107	1.083269	99
Es	3.298294	0.605073	-0.469995	99
Es	1.314274	0.891060	-1.294012	99
Es	-0.981721	0.395731	-0.108941	99
Es	-0.739438	-2.140690	-0.326053	99
Es	-1.056023	-2.792606	-0.126341	99
Es	0.881442	1.074918	-0.113422	99
Es	-0.030871	-2.153214	-0.110938	99
Es	1.447579	0.871448	-0.565466	99
Es	1.002877	0.422404	-0.148009	99
Es	-1.221263	-0.308003	0.113334	99
Es	0.444609	0.638783	0.298867	99
Es	2.863103	1.112155	-0.155607	99
Es	0.579387	0.622290	1.029189	99
Es	-1.491623	-0.988595	0.329763	99
Es	3.075468	1.778883	-0.387248	99
48
Properties=species:S:1:pos:R:3:Z:I:1 energy=-289.306153946902 field_type=dipole dipole="0.000000 0.000000 0.000000" charge=0
C	-0.739416	-2.140707	-0.326061	6
C	-1.491646	-0.988567	0.329779	6
C	-0.981666	0.395653	-0.109041	6
N	-1.810466	1.441683	0.488849	7
C	0.444704	0.638823	0.298799	6
C	1.447464	0.871423	-0.565401	6
C	2.863134	1.112162	-0.155591	6
H	-1.192956	-3.094847	-0.039991	1
H	0.308664	-2.164797	-0.014301	1
H	-0.775676	-2.061857	-1.416661	1
H	-1.424326	-1.097007	1.420769	1
H	-2.554456	-1.083207	0.069959	1
H	-1.078776	0.476773	-1.198731	1
H	-1.842396	1.314213	1.498389	1
H	-2.769356	1.333593	0.164359	1
H	0.657444	0.619732	1.364749	1
H	1.243194	0.902003	-1.632931	1
H	2.995404	1.059923	0.929819	1
H	3.185544	2.102082	-0.492071	1
H	3.515584	0.362933	-0.614691	1
Es	-1.046552	0.447038	-0.857060	99
Es	2.948057	1.075436	0.583151	99
Es	-2.380412	1.343791	0.297286	99
Es	-0.981722	0.395731	-0.108939	99
Es	-2.223073	-1.046244	0.147153	99
Es	1.314118	0.890931	-1.293548	99
Es	-1.104990	-1.566160	-0.002997	99
Es	3.075510	1.779078	-0.387346	99
Es	-1.221127	-0.307938	0.113266	99
Es	-1.733500	1.731771	0.433936	99
Es	-0.031465	-2.153102	-0.110905	99
Es	-1.441043	-1.055145	1.082993	99
Es	-0.261994	0.508566	0.100375	99
Es	0.444607	0.638792	0.298868	99
Es	-0.739439	-2.140690	-0.326053	99
Es	0.881356	1.075365	-0.113455	99
Es	1.447581	0.871443	-0.565465	99
Es	-1.056579	-2.792751	-0.125812	99
Es	2.863101	1.112156	-0.155609	99
Es	1.003011	0.421863	-0.147948	99
Es	3.298264	0.604884	-0.469911	99
Es	-0.763906	-2.079636	-1.075004	99
Es	-1.491623	-0.988595	0.329762	99
Es	-1.810752	1.441172	0.488977	99
Es	-1.838651	1.331447	1.103491	99
Es	0.579515	0.622459	1.028675	99
Es	2.155565	0.991645	-0.358433	99
Es	-1.426584	1.022470	0.216286	99
48
Properties=species:S:1:pos:R:3:Z:I:1 energy=-289.306153946902 field_type=dipole dipole="0.000000 0.000000 0.000000" charge=0
C	-0.739416	-2.140707	-0.326061	6
C	-1.491646	-0.988567	0.329779	6
C	-0.981666	0.395653	-0.109041	6
N	-1.810466	1.441683	0.488849	7
C	0.444704	0.638823	0.298799	6
C	1.447464	0.871423	-0.565401	6
C	2.863134	1.112162	-0.155591	6
H	-1.192956	-3.094847	-0.039991	1
H	0.308664	-2.164797	-0.014301	1
H	-0.775676	-2.061857	-1.416661	1
H	-1.424326	-1.097007	1.420769	1
H	-2.554456	-1.083207	0.069959	1
H	-1.078776	0.476773	-1.198731	1
H	-1.842396	1.314213	1.498389	1
H	-2.769356	1.333593	0.164359	1
H	0.657444	0.619732	1.364749	1
H	1.243194	0.902003	-1.632931	1
H	2.995404	1.059923	0.929819	1
H	3.185544	2.102082	-0.492071	1
H	3.515584	0.362933	-0.614691	1
Es	-1.736792	1.724155	0.435629	99
Es	-1.810702	1.441141	0.488988	99
Es	1.003134	0.421408	-0.147914	99
Es	-2.378513	1.343675	0.297442	99
Es	1.314004	0.890815	-1.293036	99
Es	2.155695	0.991726	-0.358634	99
Es	-0.763037	-2.079578	-1.075249	99
Es	3.298387	0.604674	-0.469875	99
Es	-1.104713	-1.566327	-0.003192	99
Es	-1.423609	1.030811	0.213990	99
Es	0.579636	0.622579	1.028144	99
Es	-1.441199	-1.055128	1.082849	99
Es	-1.840116	1.330952	1.103800	99
Es	-1.057184	-2.792743	-0.125228	99
Es	-0.981721	0.395728	-0.108941	99
Es	-2.222984	-1.046134	0.147315	99
Es	-1.220900	-0.307981	0.113052	99
Es	1.447580	0.871445	-0.565465	99
Es	2.947998	1.075495	0.582769	99
Es	2.863102	1.112155	-0.155609	99
Es	-1.491622	-0.988596	0.329763	99
Es	-0.262233	0.508427	0.100695	99
Es	0.444608	0.638787	0.298869	99
Es	-0.739438	-2.140690	-0.326053	99
Es	-1.046445	0.447069	-0.856852	99
Es	-0.032407	-2.153160	-0.110759	99
Es	3.075510	1.779249	-0.387273	99
Es	0.881234	1.075816	-0.113490	99
48
Properties=species:S:1:pos:R:3:Z:I:1 energy=-289.306153946902 field_type=dipole dipole="0.000000 0.000000 0.000000" charge=0
C	-0.739416	-2.140707	-0.326061	6
C	-1.491646	-0.988567	0.329779	6
C	-0.981666	0.395653	-0.109041	6
N	-1.810466	1.441683	0.488849	7
C	0.444704	0.638823	0.298799	6
C	1.447464	0.871423	-0.565401	6
C	2.863134	1.112162	-0.155591	6
H	-1.192956	-3.094847	-0.039991	1
H	0.308664	-2.164797	-0.014301	1
H	-0.775676	-2.061857	-1.416661	1
H	-1.424326	-1.097007	1.420769	1
H	-2.554456	-1.083207	0.069959	1
H	-1.078776	0.476773	-1.198731	1
H	-1.842396	1.314213	1.498389	1
H	-2.769356	1.333593	0.164359	1
H	0.657444	0.619732	1.364749	1
H	1.243194	0.902003	-1.632931	1
H	2.995404	1.059923	0.929819	1
H	3.185544	2.102082	-0.492071	1
H	3.515584	0.362933	-0.614691	1
Es	-1.841997	1.329567	1.103684	99
Es	0.444607	0.638798	0.298869	99
Es	-0.762104	-2.079410	-1.075477	99
Es	2.947984	1.075462	0.582437	99
Es	-1.421091	1.039261	0.212005	99
Es	-1.441408	-1.055012	1.082674	99
Es	-1.221135	-0.307968	0.113183	99
Es	-2.376570	1.343933	0.297391	99
Es	1.313898	0.890646	-1.292575	99
Es	-0.262450	0.508279	0.100975	99
Es	1.003338	0.421052	-0.147864	99
Es	-2.222939	-1.046223	0.147338	99
Es	-1.491623	-0.988597	0.329762	99
Es	-0.981721	0.395730	-0.108941	99
Es	-1.739123	1.716894	0.437623	99
Es	-0.033363	-2.153172	-0.110529	99
Es	3.298786	0.604653	-0.470129	99
Es	-1.810731	1.441141	0.489011	99
Es	0.881044	1.076210	-0.113517	99
Es	-0.739439	-2.140689	-0.326053	99
Es	-1.046357	0.447106	-0.856673	99
Es	0.579692	0.622731	1.027617	99
Es	2.863102	1.112155	-0.155609	99
Es	-1.104179	-1.566522	-0.003327	99
Es	2.155841	0.991766	-0.358798	99
Es	3.075167	1.779385	-0.386938	99
Es	-1.057542	-2.792843	-0.124941	99
Es	1.447582	0.871441	-0.565464	99
48
Properties=species:S:1:pos:R:3:Z:I:1 energy=-289.306153946902 field_type=dipole dipole="0.000000 0.000000 0.000000" charge=0
C	-0.739416	-2.140707	-0.326061	6
C	-1.491646	-0.988567	0.329779	6
C	-0.981666	0.395653	-0.109041	6
N	-1.810466	1.441683	0.488849	7
C	0.444704	0.638823	0.298799	6
C	1.447464	0.871423	-0.565401	6
C	2.863134	1.112162	-0.155591	6
H	-1.192956	-3.094847	-0.039991	1
H	0.308664	-2.164797	-0.014301	1
H	-0.775676	-2.061857	-1.416661	1
H	-1.424326	-1.097007	1.420769	1
H	-2.554456	-1.083207	0.069959	1
H	-1.078776	0.476773	-1.198731	1
H	-1.842396	1.314213	1.498389	1
H	-2.769356	1.333593	0.164359	1
H	0.657444	0.619732	1.364749	1
H	1.243194	0.902003	-1.632931	1
H	2.995404	1.059923	0.929819	1
H	3.185544	2.102082	-0.492071	1
H	3.515584	0.362933	-0.614691	1
Es	-0.034432	-2.153315	-0.110175	99
Es	0.580072	0.622949	1.026712	99
Es	-1.103931	-1.566595	-0.003731	99
Es	-0.981722	0.395731	-0.108939	99
Es	-1.810767	1.441192	0.488984	99
Es	-1.741292	1.710386	0.438464	99
Es	-1.441352	-1.055032	1.082479	99
Es	2.947987	1.075509	0.582147	99
Es	3.075174	1.779436	-0.386835	99
Es	-0.263101	0.508261	0.101821	99
Es	-1.491623	-0.988595	0.329763	99
Es	-1.221065	-0.307922	0.113139	99
Es	-2.374430	1.343791	0.297785	99
Es	1.313706	0.890526	-1.292068	99
Es	-1.046164	0.447113	-0.856638	99
Es	3.298881	0.604482	-0.470154	99
Es	1.447580	0.871446	-0.565464	99
Es	-1.058127	-2.792780	-0.124656	99
Es	-0.739438	-2.140691	-0.326054	99
Es	1.003391	0.420592	-0.147790	99
Es	2.155937	0.991948	-0.359111	99
Es	-1.419408	1.046319	0.210473	99
Es	0.444607	0.638791	0.298866	99
Es	-2.222975	-1.046201	0.147599	99
Es	0.881094	1.076450	-0.113535	99
Es	-1.843549	1.329173	1.103923	99
Es	2.863103	1.112155	-0.155608	99
Es	-0.760883	-2.079346	-1.075662	99
48
Properties=species:S:1:pos:R:3:Z:I:1 energy=-289.306153946902 field_type=dipole dipole="0.000000 0.000000 0.000000" charge=0
C	-0.739416	-2.140707	-0.326061	6
C	-1.491646	-0.988567	0.329779	6
C	-0.981666	0.395653	-0.109041	6
N	-1.810466	1.441683	0.488849	7
C	0.444704	0.638823	0.298799	6
C	1.447464	0.871423	-0.565401	6
C	2.863134	1.112162	-0.155591	6
H	-1.192956	-3.094847	-0.039991	1
H	0.308664	-2.164797	-0.014301	1
H	-0.775676	-2.061857	-1.416661	1
H	-1.424326	-1.097007	1.420769	1
H	-2.554456	-1.083207	0.069959	1
H	-1.078776	0.476773	-1.198731	1
H	-1.842396	1.314213	1.498389	1
H	-2.769356	1.333593	0.164359	1
H	0.657444	0.619732	1.364749	1
H	1.243194	0.902003	-1.632931	1
H	2.995404	1.059923	0.929819	1
H	3.185544	2.102082	-0.492071	1
H	3.515584	0.362933	-0.614691	1
Es	3.298819	0.604231	-0.469934	99
Es	2.863102	1.112155	-0.155609	99
Es	-1.103981	-1.566681	-0.003792	99
Es	0.580033	0.623061	1.026456	99
Es	-1.441386	-1.055090	1.082368	99
Es	-1.810708	1.441101	0.489014	99
Es	-1.058214	-2.792877	-0.124557	99
Es	2.155967	0.991935	-0.359185	99
Es	1.003536	0.420332	-0.147785	99
Es	-1.220868	-0.308005	0.113072	99
Es	-0.034980	-2.153342	-0.110159	99
Es	0.880895	1.076803	-0.113572	99
Es	1.447579	0.871443	-0.565466	99
Es	-1.417758	1.052818	0.209883	99
Es	-1.046267	0.447121	-0.856354	99
Es	-2.372056	1.343925	0.297559	99
Es	2.948085	1.075731	0.581742	99
Es	1.313616	0.890364	-1.291548	99
Es	-1.491623	-0.988595	0.329763	99
Es	-2.222951	-1.046018	0.147729	99
Es	-0.263018	0.508188	0.101739	99
Es	-0.739436	-2.140687	-0.326052	99
Es	-1.743014	1.704371	0.439148	99
Es	-0.981721	0.395730	-0.108941	99
Es	3.075315	1.779535	-0.387011	99
Es	-0.760392	-2.079265	-1.075736	99
Es	0.444603	0.638791	0.298865	99
Es	-1.845906	1.328699	1.104098	99
48
Properties=species:S:1:pos:R:3:Z:I:1 energy=-289.306153946902 field_type=dipole dipole="0.000000 0.000000 0.000000" charge=0
C	-0.739416	-2.140707	-0.326061	6
C	-1.491646	-0.988567	0.329779	6
C	-0.981666	0.395653	-0.109041	6
N	-1.810466	1.441683	0.488849	7
C	0.444704	0.638823	0.298799	6
C	1.447464	0.871423	-0.565401	6
C	2.863134	1.112162	-0.155591	6
H	-1.192956	-3.094847	-0.039991	1
H	0.308664	-2.164797	-0.014301	1
H	-0.775676	-2.061857	-1.416661	1
H	-1.424326	-1.097007	1.420769	1
H	-2.554456	-1.083207	0.069959	1
H	-1.078776	0.476773	-1.198731	1
H	-1.842396	1.314213	1.498389	1
H	-2.769356	1.333593	0.164359	1
H	0.657444	0.619732	1.364749	1
H	1.243194	0.902003	-1.632931	1
H	2.995404	1.059923	0.929819	1
H	3.185544	2.102082	-0.492071	1
H	3.515584	0.362933	-0.614691	1
Es	-1.441425	-1.055057	1.082230	99
Es	-1.810703	1.441155	0.488989	99
Es	1.313308	0.890209	-1.290939	99
Es	-1.744258	1.698735	0.439992	99
Es	-1.046323	0.447153	-0.856209	99
Es	2.156283	0.991951	-0.359551	99
Es	-1.058249	-2.793010	-0.124535	99
Es	0.580257	0.623216	1.025847	99
Es	-1.221083	-0.307900	0.113139	99
Es	3.074971	1.779656	-0.386756	99
Es	3.299137	0.604219	-0.470187	99
Es	0.880833	1.076971	-0.113584	99
Es	-0.263235	0.508079	0.102173	99
Es	-0.739438	-2.140689	-0.326053	99
Es	2.863102	1.112155	-0.155610	99
Es	-0.759651	-2.079139	-1.075869	99
Es	-1.491624	-0.988595	0.329762	99
Es	1.003622	0.420184	-0.147740	99
Es	-0.035793	-2.153453	-0.110112	99
Es	0.444607	0.638792	0.298868	99
Es	-0.981720	0.395730	-0.108940	99
Es	-1.416663	1.058804	0.208738	99
Es	-1.103758	-1.566583	-0.003686	99
Es	-2.370215	1.344219	0.297804	99
Es	1.447579	0.871442	-0.565464	99
Es	2.948117	1.075706	0.581486	99
Es	-1.847454	1.327979	1.104121	99
Es	-2.222951	-1.046155	0.147823	99
48
Properties=species:S:1:pos:R:3:Z:I:1 energy=-289.306153946902 field_type=dipole dipole="0.000000 0.000000 0.000000" charge=0
C	-0.739416	-2.140707	-0.326061	6
C	-1.491646	-0.988567	0.329779	6
C	-0.981666	0.395653	-0.109041	6
N	-1.810466	1.441683	0.488849	7
C	0.444704	0.638823	0.298799	6
C	1.447464	0.871423	-0.565401	6
C	2.863134	1.112162	-0.155591	6
H	-1.192956	-3.094847	-0.039991	1
H	0.308664	-2.164797	-0.014301	1
H	-0.775676	-2.061857	-1.416661	1
H	-1.424326	-1.097007	1.420769	1
H	-2.554456	-1.083207	0.069959	1
H	-1.078776	0.476773	-1.198731	1
H	-1.842396	1.314213	1.498389	1
H	-2.769356	1.333593	0.164359	1
H	0.657444	0.619732	1.364749	1
H	1.243194	0.902003	-1.632931	1
H	2.995404	1.059923	0.929819	1
H	3.185544	2.102082	-0.492071	1
H	3.515584	0.362933	-0.614691	1
Es	-1.810730	1.441124	0.489008	99
Es	-1.221271	-0.307838	0.113338	99
Es	-0.758834	-2.079070	-1.075984	99
Es	-1.103251	-1.566860	-0.004114	99
Es	-1.441270	-1.055003	1.081891	99
Es	0.580341	0.623316	1.025456	99
Es	1.447582	0.871442	-0.565464	99
Es	1.003683	0.419986	-0.147699	99
Es	-1.849084	1.327693	1.104186	99
Es	0.880795	1.077131	-0.113607	99
Es	-2.223157	-1.046121	0.148112	99
Es	3.074561	1.779529	-0.386229	99
Es	-1.745322	1.694331	0.440242	99
Es	-1.058827	-2.792831	-0.124202	99
Es	1.313305	0.890160	-1.290664	99
Es	-1.491620	-0.988593	0.329762	99
Es	2.863102	1.112155	-0.155609	99
Es	-0.036542	-2.153576	-0.109917	99
Es	2.948079	1.075670	0.581295	99
Es	0.444606	0.638798	0.298865	99
Es	-1.415859	1.063464	0.207696	99
Es	-0.263301	0.508043	0.102345	99
Es	-0.739438	-2.140690	-0.326053	99
Es	3.299694	0.604320	-0.470552	99
Es	-1.046328	0.447044	-0.855981	99
Es	2.156230	0.992048	-0.359746	99
Es	-0.981720	0.395729	-0.108940	99
Es	-2.368152	1.344375	0.298303	99
48
Properties=species:S:1:pos:R:3:Z:I:1 energy=-289.306153946902 field_type=dipole dipole="0.000000 0.000000 0.000000" charge=0
C	-0.739416	-2.140707	-0.326061	6
C	-1.491646	-0.988567	0.329779	6
C	-0.981666	0.395653	-0.109041	6
N	-1.810466	1.441683	0.488849	7
C	0.444704	0.638823	0.298799	6
C	1.447464	0.871423	-0.565401	6
C	2.863134	1.112162	-0.155591	6
H	-1.192956	-3.094847	-0.039991	1
H	0.308664	-2.164797	-0.014301	1
H	-0.775676	-2.061857	-1.416661	1
H	-1.424326	-1.097007	1.420769	1
H	-2.554456	-1.083207	0.069959	1
H	-1.078776	0.476773	-1.198731	1
H	-1.842396	1.314213	1.498389	1
H	-2.769356	1.333593	0.164359	1
H	0.657444	0.619732	1.364749	1
H	1.243194	0.902003	-1.632931	1
H	2.995404	1.059923	0.929819	1
H	3.185544	2.102082	-0.492071	1
H	3.515584	0.362933	-0.614691	1
Es	-1.491626	-0.988595	0.329762	99
Es	-1.441312	-1.054986	1.081823	99
Es	1.003779	0.419901	-0.147617	99
Es	-0.758077	-2.079020	-1.076207	99
Es	-0.739438	-2.140692	-0.326053	99
Es	1.447582	0.871444	-0.565464	99
Es	-1.103079	-1.566975	-0.004218	99
Es	3.074316	1.779511	-0.386033	99
Es	-1.046371	0.447125	-0.855854	99
Es	2.863103	1.112155	-0.155608	99
Es	-0.037360	-2.153566	-0.109763	99
Es	0.444607	0.638794	0.298867	99
Es	-1.745917	1.690093	0.440932	99
Es	0.880713	1.077189	-0.113682	99
Es	-2.366222	1.345077	0.298298	99
Es	-1.221235	-0.307852	0.113211	99
Es	-1.415221	1.067543	0.207278	99
Es	1.313066	0.890012	-1.290198	99
Es	0.580487	0.623515	1.024974	99
Es	-0.263411	0.507893	0.102732	99
Es	-1.851128	1.326998	1.104049	99
Es	-1.810643	1.441237	0.488956	99
Es	-2.223165	-1.046134	0.148139	99
Es	-0.981720	0.395730	-0.108942	99
Es	2.948319	1.075782	0.580875	99
Es	3.299968	0.604299	-0.470724	99
Es	-1.058944	-2.792792	-0.123970	99
Es	2.156203	0.992088	-0.359825	99
48
Properties=species:S:1:pos:R:3:Z:I:1 energy=-289.306153946902 field_type=dipole dipole="0.000000 0.000000 0.000000" charge=0
C	-0.739416	-2.140707	-0.326061	6
C	-1.491646	-0.988567	0.329779	6
C	-0.981666	0.395653	-0.109041	6
N	-1.810466	1.441683	0.488849	7
C	0.444704	0.638823	0.298799	6
C	1.447464	0.871423	-0.565401	6
C	2.863134	1.112162	-0.155591	6
H	-1.192956	-3.094847	-0.039991	1
H	0.308664	-2.164797	-0.014301	1
H	-0.775676	-2.061857	-1.416661	1
H	-1.424326	-1.097007	1.420769	1
H	-2.554456	-1.083207	0.069959	1
H	-1.078776	0.476773	-1.198731	1
H	-1.842396	1.314213	1.498389	1
H	-2.769356	1.333593	0.164359	1
H	0.657444	0.619732	1.364749	1
H	1.243194	0.902003	-1.632931	1
H	2.995404	1.059923	0.929819	1
H	3.185544	2.102082	-0.492071	1
H	3.515584	0.362933	-0.614691	1
Es	-0.739438	-2.140691	-0.326053	99
Es	2.156417	0.992062	-0.360277	99
Es	2.863103	1.112155	-0.155609	99
Es	0.580725	0.623619	1.024311	99
Es	-1.441269	-1.054942	1.081691	99
Es	3.074124	1.779460	-0.385965	99
Es	-1.414875	1.071098	0.206697	99
Es	3.300150	0.604324	-0.470813	99
Es	-0.038645	-2.153644	-0.109424	99
Es	-1.103155	-1.567016	-0.004221	99
Es	2.948371	1.075875	0.580787	99
Es	1.003769	0.419796	-0.147612	99
Es	-0.756700	-2.078926	-1.076423	99
Es	0.444607	0.638791	0.298866	99
Es	1.447582	0.871447	-0.565462	99
Es	-1.810770	1.441221	0.488974	99
Es	-1.059082	-2.792787	-0.123941	99
Es	-0.263810	0.507839	0.103454	99
Es	-2.365314	1.344999	0.298684	99
Es	-2.223284	-1.046110	0.148212	99
Es	-0.981721	0.395731	-0.108940	99
Es	0.880704	1.077330	-0.113703	99
Es	-1.221049	-0.307879	0.113102	99
Es	-1.491623	-0.988595	0.329763	99
Es	-1.046205	0.447132	-0.855895	99
Es	-1.851678	1.327047	1.104114	99
Es	-1.746535	1.686578	0.441019	99
Es	1.312873	0.889859	-1.289600	99
48
Properties=species:S:1:pos:R:3:Z:I:1 energy=-289.306153946902 field_type=dipole dipole="0.000000 0.000000 0.000000" charge=0
C	-0.739416	-2.140707	-0.326061	6
C	-1.491646	-0.988567	0.329779	6
C	-0.981666	0.395653	-0.109041	6
N	-1.810466	1.441683	0.488849	7
C	0.444704	0.638823	0.298799	6
C	1.447464	0.871423	-0.565401	6
C	2.863134	1.112162	-0.155591	6
H	-1.192956	-3.094847	-0.039991	1
H	0.308664	-2.164797	-0.014301	1
H	-0.775676	-2.061857	-1.416661	1
H	-1.424326	-1.097007	1.420769	1
H	-2.554456	-1.083207	0.069959	1
H	-1.078776	0.476773	-1.198731	1
H	-1.842396	1.314213	1.498389	1
H	-2.769356	1.333593	0.164359	1
H	0.657444	0.619732	1.364749	1
H	1.243194	0.902003	-1.632931	1
H	2.995404	1.059923	0.929819	1
H	3.185544	2.102082	-0.492071	1
H	3.515584	0.362933	-0.614691	1
Es	1.312855	0.889803	-1.289448	99
Es	-1.854150	1.326313	1.103840	99
Es	0.444606	0.638798	0.298866	99
Es	-1.046271	0.447104	-0.855829	99
Es	-1.747119	1.683196	0.441340	99
Es	2.948517	1.075835	0.580493	99
Es	-2.362871	1.345443	0.298842	99
Es	1.447580	0.871444	-0.565463	99
Es	3.300525	0.604451	-0.471137	99
Es	0.580767	0.623700	1.024069	99
Es	0.880643	1.077361	-0.113759	99
Es	2.156274	0.992136	-0.360165	99
Es	-1.440994	-1.054940	1.081476	99
Es	-1.102890	-1.566983	-0.004396	99
Es	3.073783	1.779400	-0.385581	99
Es	-1.810740	1.441121	0.489005	99
Es	-2.223518	-1.046175	0.148469	99
Es	-0.263801	0.507755	0.103610	99
Es	-1.221253	-0.307769	0.113207	99
Es	2.863102	1.112155	-0.155609	99
Es	-0.981720	0.395730	-0.108941	99
Es	-0.739438	-2.140690	-0.326053	99
Es	-1.414249	1.074850	0.206459	99
Es	-1.059239	-2.792783	-0.123915	99
Es	-0.038787	-2.153721	-0.109466	99
Es	1.003835	0.419705	-0.147564	99
Es	-0.756554	-2.078871	-1.076377	99
Es	-1.491623	-0.988595	0.329763	99
48
Properties=species:S:1:pos:R:3:Z:I:1 energy=-289.306153946902 field_type=dipole dipole="0.000000 0.000000 0.000000" charge=0
C	-0.739416	-2.140707	-0.326061	6
C	-1.491646	-0.988567	0.329779	6
C	-0.981666	0.395653	-0.109041	6
N	-1.810466	1.441683	0.488849	7
C	0.444704	0.638823	0.298799	6
C	1.447464	0.871423	-0.565401	6
C	2.863134	1.112162	-0.155591	6