40
Properties=species:S:1:pos:R:3:Z:I:1 energy=-318.9971102144874 field_type=dipole dipole="0.000000 0.000000 0.000000" charge=0
C	-1.425059	-0.728852	0.227165	6
C	0.095061	-0.641362	0.307135	6
C	0.725241	-1.424342	-0.763155	6
N	1.215041	-2.032442	-1.623605	7
C	0.528251	0.820318	0.226385	6
N	0.435371	1.528508	-0.936455	7
N	0.968151	1.459338	1.265065	7
H	-1.891709	-0.132972	1.019295	1
H	-1.764499	-1.764922	0.336395	1
H	-1.803059	-0.355882	-0.732035	1
H	0.416201	-1.044822	1.274945	1
H	0.578031	1.039208	-1.814415	1
H	0.935571	2.412218	-0.887515	1
H	0.987401	0.866008	2.100795	1
Es	1.214848	-2.032201	-1.623269	99
Es	0.430533	-1.053040	-0.264115	99
Es	-1.666525	-0.477726	-0.420434	99
Es	1.195179	-1.526403	-1.275360	99
Es	0.321392	0.068245	0.229582	99
Es	0.141810	1.547042	-0.852295	99
Es	1.069528	1.813854	1.265621	99
Es	0.533911	1.224977	-1.443691	99
Es	0.967985	1.458851	1.265014	99
Es	-0.628616	-0.686087	0.246127	99
Es	0.320218	-0.913948	0.936140	99
Es	-1.640604	-1.429476	0.303509	99
Es	0.435929	1.528228	-0.936275	99
Es	0.970033	1.084113	1.763549	99
Es	-1.723189	-0.326882	0.764745	99
Es	0.725091	-1.424158	-0.762881	99
Es	0.742535	2.033999	-0.910358	99
Es	0.523248	1.254271	0.924213	99
Es	0.549027	1.189279	-0.464946	99
Es	0.528178	0.820268	0.226219	99
Es	1.369675	-2.223122	-1.894794	99
Es	1.050927	-1.980293	-1.031716	99
Es	1.058840	1.105277	0.814039	99
Es	0.095126	-0.641397	0.306970	99
Es	0.725594	-1.752351	-1.389418	99
Es	-1.424952	-0.728850	0.227169	99
40
Properties=species:S:1:pos:R:3:Z:I:1 energy=-318.9971102144874 field_type=dipole dipole="0.000000 0.000000 0.000000" charge=0
C	-1.425059	-0.728852	0.227165	6
C	0.095061	-0.641362	0.307135	6
C	0.725241	-1.424342	-0.763155	6
N	1.215041	-2.032442	-1.623605	7
C	0.528251	0.820318	0.226385	6
N	0.435371	1.528508	-0.936455	7
N	0.968151	1.459338	1.265065	7
H	-1.891709	-0.132972	1.019295	1
H	-1.764499	-1.764922	0.336395	1
H	-1.803059	-0.355882	-0.732035	1
H	0.416201	-1.044822	1.274945	1
H	0.578031	1.039208	-1.814415	1
H	0.935571	2.412218	-0.887515	1
H	0.987401	0.866008	2.100795	1
Es	-1.724433	-0.325982	0.768195	99
Es	1.364425	-2.223525	-1.902318	99
Es	0.435918	1.528239	-0.936288	99
Es	0.544653	1.189771	-0.461919	99
Es	0.723051	-1.773157	-1.371968	99
Es	1.059457	1.811545	1.265319	99
Es	-1.638075	-1.427097	0.302446	99
Es	1.079901	-1.963209	-1.028673	99
Es	0.321212	0.066892	0.229513	99
Es	0.739669	2.033364	-0.908358	99
Es	0.725096	-1.424148	-0.762874	99
Es	1.214848	-2.032200	-1.623268	99
Es	0.968392	1.087891	1.767030	99
Es	0.528188	0.820264	0.226216	99
Es	0.155547	1.546202	-0.850259	99
Es	-1.424959	-0.728849	0.227169	99
Es	-1.666086	-0.479485	-0.421986	99
Es	0.433689	-1.054401	-0.264425	99
Es	0.319231	-0.912881	0.937871	99
Es	-0.627644	-0.685798	0.245824	99
Es	1.171377	-1.522139	-1.291071	99
Es	1.065967	1.105946	0.809824	99
Es	0.527900	1.224423	-1.451129	99
Es	0.967991	1.458890	1.265029	99
Es	0.095120	-0.641397	0.306969	99
Es	0.525285	1.253315	0.926479	99
40
Properties=species:S:1:pos:R:3:Z:I:1 energy=-318.9971102144874 field_type=dipole dipole="0.000000 0.000000 0.000000" charge=0
C	-1.425059	-0.728852	0.227165	6
C	0.095061	-0.641362	0.307135	6
C	0.725241	-1.424342	-0.763155	6
N	1.215041	-2.032442	-1.623605	7
C	0.528251	0.820318	0.226385	6
N	0.435371	1.528508	-0.936455	7
N	0.968151	1.459338	1.265065	7
H	-1.891709	-0.132972	1.019295	1
H	-1.764499	-1.764922	0.336395	1
H	-1.803059	-0.355882	-0.732035	1
H	0.416201	-1.044822	1.274945	1
H	0.578031	1.039208	-1.814415	1
H	0.935571	2.412218	-0.887515	1
H	0.987401	0.866008	2.100795	1
Es	0.435383	-1.055074	-0.264792	99
Es	0.967979	1.458841	1.265015	99
Es	0.725097	-1.424144	-0.762869	99
Es	1.214849	-2.032201	-1.623270	99
Es	0.720854	-1.833002	-1.329885	99
Es	0.967932	1.090846	1.769197	99
Es	0.318591	-0.912208	0.938811	99
Es	0.528188	0.820263	0.226213	99
Es	1.147368	-1.917905	-1.024887	99
Es	1.107996	-1.507820	-1.334156	99
Es	1.360834	-2.223238	-1.906427	99
Es	0.526036	1.223803	-1.453551	99
Es	0.526968	1.253281	0.929448	99
Es	-1.724988	-0.325534	0.769922	99
Es	0.541593	1.190480	-0.460406	99
Es	-1.665844	-0.480849	-0.423061	99
Es	0.095121	-0.641396	0.306971	99
Es	-0.627058	-0.685487	0.245753	99
Es	0.435911	1.528251	-0.936305	99
Es	1.067628	1.105314	0.806757	99
Es	0.739471	2.031774	-0.907376	99
Es	-1.424955	-0.728849	0.227168	99
Es	0.321252	0.065954	0.229491	99
Es	0.160889	1.546709	-0.850421	99
Es	1.055160	1.809990	1.263839	99
Es	-1.636535	-1.425327	0.302166	99
40
Properties=species:S:1:pos:R:3:Z:I:1 energy=-318.9971102144874 field_type=dipole dipole="0.000000 0.000000 0.000000" charge=0
C	-1.425059	-0.728852	0.227165	6
C	0.095061	-0.641362	0.307135	6
C	0.725241	-1.424342	-0.763155	6
N	1.215041	-2.032442	-1.623605	7
C	0.528251	0.820318	0.226385	6
N	0.435371	1.528508	-0.936455	7
N	0.968151	1.459338	1.265065	7
H	-1.891709	-0.132972	1.019295	1
H	-1.764499	-1.764922	0.336395	1
H	-1.803059	-0.355882	-0.732035	1
H	0.416201	-1.044822	1.274945	1
H	0.578031	1.039208	-1.814415	1
H	0.935571	2.412218	-0.887515	1
H	0.987401	0.866008	2.100795	1
Es	-1.665668	-0.481880	-0.423986	99
Es	-0.626813	-0.685590	0.245876	99
Es	0.321169	0.065247	0.229203	99
Es	1.070503	1.105745	0.806615	99
Es	1.214849	-2.032202	-1.623272	99
Es	0.528343	1.251974	0.929332	99
Es	0.528190	0.820265	0.226212	99
Es	1.050823	1.808493	1.262217	99
Es	0.435898	1.528263	-0.936316	99
Es	0.318378	-0.911460	0.939493	99
Es	0.435807	-1.055753	-0.265156	99
Es	1.356087	-2.224218	-1.908862	99
Es	0.524217	1.223826	-1.455310	99
Es	1.254795	-1.779958	-1.067133	99
Es	0.725097	-1.424142	-0.762865	99
Es	0.539577	1.190805	-0.459017	99
Es	0.779143	-1.949977	-1.211477	99
Es	0.967066	1.093684	1.771411	99
Es	-1.725247	-0.325402	0.771283	99
Es	-1.635373	-1.423623	0.301942	99
Es	0.166554	1.545457	-0.850548	99
Es	-1.424955	-0.728850	0.227169	99
Es	0.967972	1.458828	1.265012	99
Es	0.095122	-0.641398	0.306968	99
Es	0.946388	-1.527627	-1.408562	99
Es	0.737798	2.031967	-0.906884	99
40
Properties=species:S:1:pos:R:3:Z:I:1 energy=-318.9971102144874 field_type=dipole dipole="0.000000 0.000000 0.000000" charge=0
C	-1.425059	-0.728852	0.227165	6
C	0.095061	-0.641362	0.307135	6
C	0.725241	-1.424342	-0.763155	6
N	1.215041	-2.032442	-1.623605	7
C	0.528251	0.820318	0.226385	6
N	0.435371	1.528508	-0.936455	7
N	0.968151	1.459338	1.265065	7
H	-1.891709	-0.132972	1.019295	1
H	-1.764499	-1.764922	0.336395	1
H	-1.803059	-0.355882	-0.732035	1
H	0.416201	-1.044822	1.274945	1
H	0.578031	1.039208	-1.814415	1
H	0.935571	2.412218	-0.887515	1
H	0.987401	0.866008	2.100795	1
Es	-1.424955	-0.728850	0.227169	99
Es	0.730089	-1.876505	-1.292017	99
Es	0.436593	-1.055868	-0.265549	99
Es	-1.634694	-1.422621	0.301912	99
Es	1.355471	-2.223714	-1.910042	99
Es	1.050217	-1.514795	-1.361029	99
Es	0.528195	0.820265	0.226211	99
Es	-1.665574	-0.482733	-0.424392	99
Es	1.199625	-1.867047	-1.033337	99
Es	0.170391	1.544572	-0.851190	99
Es	0.095121	-0.641399	0.306970	99
Es	0.529717	1.252084	0.931030	99
Es	-1.725340	-0.325146	0.771984	99
Es	0.318176	-0.910856	0.939798	99
Es	-0.626449	-0.685473	0.245967	99
Es	0.537132	1.191119	-0.458245	99
Es	0.967981	1.458829	1.265009	99
Es	0.321068	0.064597	0.229182	99
Es	0.966898	1.095689	1.772610	99
Es	0.523604	1.223483	-1.456092	99
Es	1.048872	1.807421	1.261011	99
Es	0.725096	-1.424143	-0.762872	99
Es	0.737089	2.032269	-0.906189	99
Es	0.435933	1.528250	-0.936312	99
Es	1.214848	-2.032201	-1.623271	99
Es	1.070614	1.105244	0.805028	99
40
Properties=species:S:1:pos:R:3:Z:I:1 energy=-318.9971102144874 field_type=dipole dipole="0.000000 0.000000 0.000000" charge=0
C	-1.425059	-0.728852	0.227165	6
C	0.095061	-0.641362	0.307135	6
C	0.725241	-1.424342	-0.763155	6
N	1.215041	-2.032442	-1.623605	7
C	0.528251	0.820318	0.226385	6
N	0.435371	1.528508	-0.936455	7
N	0.968151	1.459338	1.265065	7
H	-1.891709	-0.132972	1.019295	1
H	-1.764499	-1.764922	0.336395	1
H	-1.803059	-0.355882	-0.732035	1
H	0.416201	-1.044822	1.274945	1
H	0.578031	1.039208	-1.814415	1
H	0.935571	2.412218	-0.887515	1
H	0.987401	0.866008	2.100795	1
Es	-0.626180	-0.685576	0.245914	99
Es	0.967980	1.458838	1.265008	99
Es	-1.424954	-0.728850	0.227168	99
Es	1.214844	-2.032200	-1.623268	99
Es	1.167261	-1.898332	-1.028137	99
Es	0.531431	1.251678	0.932481	99
Es	0.722596	-1.839395	-1.321678	99
Es	1.046785	1.806973	1.259865	99
Es	0.537536	1.191622	-0.459057	99
Es	-1.665570	-0.483521	-0.424659	99
Es	0.528191	0.820261	0.226214	99
Es	0.966765	1.097568	1.773500	99
Es	0.437193	-1.056053	-0.265655	99
Es	0.725101	-1.424147	-0.762861	99
Es	0.320908	0.064340	0.229150	99
Es	1.354186	-2.224045	-1.910838	99
Es	0.170769	1.544811	-0.849981	99
Es	-1.634131	-1.421646	0.301871	99
Es	1.070759	1.104619	0.803895	99
Es	0.318041	-0.910476	0.939970	99
Es	1.090551	-1.520353	-1.336161	99
Es	0.095123	-0.641397	0.306968	99
Es	0.522312	1.223200	-1.456755	99
Es	0.435884	1.528268	-0.936310	99
Es	-1.725415	-0.324967	0.772571	99
Es	0.737754	2.031251	-0.905867	99
40
Properties=species:S:1:pos:R:3:Z:I:1 energy=-318.9971102144874 field_type=dipole dipole="0.000000 0.000000 0.000000" charge=0
C	-1.425059	-0.728852	0.227165	6
C	0.095061	-0.641362	0.307135	6
C	0.725241	-1.424342	-0.763155	6
N	1.215041	-2.032442	-1.623605	7
C	0.528251	0.820318	0.226385	6
N	0.435371	1.528508	-0.936455	7
N	0.968151	1.459338	1.265065	7
H	-1.891709	-0.132972	1.019295	1
H	-1.764499	-1.764922	0.336395	1
H	-1.803059	-0.355882	-0.732035	1
H	0.416201	-1.044822	1.274945	1
H	0.578031	1.039208	-1.814415	1
H	0.935571	2.412218	-0.887515	1
H	0.987401	0.866008	2.100795	1
Es	1.044434	1.805306	1.258480	99
Es	0.522188	1.223271	-1.457148	99
Es	-1.633399	-1.420733	0.301987	99
Es	0.318012	-0.909971	0.940514	99
Es	-1.424955	-0.728850	0.227170	99
Es	1.351947	-2.224616	-1.911636	99
Es	-1.665588	-0.484120	-0.425341	99
Es	0.535661	1.191605	-0.458231	99
Es	0.435985	1.528172	-0.936220	99
Es	0.095121	-0.641398	0.306967	99
Es	-1.725195	-0.324985	0.773220	99
Es	1.214848	-2.032201	-1.623270	99
Es	0.736642	2.032080	-0.905398	99
Es	1.233606	-1.821244	-1.046992	99
Es	0.747216	-1.908291	-1.259164	99
Es	1.071065	1.105008	0.803061	99
Es	0.966993	1.099480	1.775113	99
Es	0.437024	-1.056164	-0.266136	99
Es	0.725105	-1.424141	-0.762859	99
Es	0.320854	0.063849	0.228827	99
Es	0.967981	1.458871	1.265030	99
Es	1.001600	-1.528094	-1.379096	99
Es	-0.625989	-0.685613	0.246001	99
Es	0.528192	0.820263	0.226213	99
Es	0.532529	1.251170	0.933198	99
Es	0.173844	1.543820	-0.850943	99
40
Properties=species:S:1:pos:R:3:Z:I:1 energy=-318.9971102144874 field_type=dipole dipole="0.000000 0.000000 0.000000" charge=0
C	-1.425059	-0.728852	0.227165	6
C	0.095061	-0.641362	0.307135	6
C	0.725241	-1.424342	-0.763155	6
N	1.215041	-2.032442	-1.623605	7
C	0.528251	0.820318	0.226385	6
N	0.435371	1.528508	-0.936455	7
N	0.968151	1.459338	1.265065	7
H	-1.891709	-0.132972	1.019295	1
H	-1.764499	-1.764922	0.336395	1
H	-1.803059	-0.355882	-0.732035	1
H	0.416201	-1.044822	1.274945	1
H	0.578031	1.039208	-1.814415	1
H	0.935571	2.412218	-0.887515	1
H	0.987401	0.866008	2.100795	1
Es	0.826794	-1.606048	-1.422804	99
Es	0.736585	2.032056	-0.905256	99
Es	0.966777	1.101240	1.776061	99
Es	0.967977	1.458841	1.265021	99
Es	-1.633023	-1.420055	0.302103	99
Es	1.350220	-2.226532	-1.911235	99
Es	-1.424955	-0.728851	0.227170	99
Es	1.275781	-1.675446	-1.128109	99
Es	0.532987	1.191963	-0.456884	99
Es	0.725094	-1.424162	-0.762852	99
Es	0.437163	-1.056628	-0.266187	99
Es	0.095123	-0.641396	0.306965	99
Es	0.320720	0.063316	0.228716	99
Es	1.044366	1.804145	1.257309	99
Es	-1.665508	-0.484852	-0.425566	99
Es	1.069816	1.104012	0.801886	99
Es	0.522114	1.222674	-1.457147	99
Es	0.176729	1.543690	-0.852217	99
Es	-1.725204	-0.324691	0.773475	99
Es	0.881326	-1.973913	-1.135046	99
Es	0.317861	-0.909565	0.940779	99
Es	-0.625812	-0.685573	0.245928	99
Es	0.436012	1.528215	-0.936294	99
Es	1.214848	-2.032202	-1.623270	99
Es	0.528195	0.820263	0.226212	99
Es	0.533729	1.251971	0.934587	99
40
Properties=species:S:1:pos:R:3:Z:I:1 energy=-318.9971102144874 field_type=dipole dipole="0.000000 0.000000 0.000000" charge=0
C	-1.425059	-0.728852	0.227165	6
C	0.095061	-0.641362	0.307135	6
C	0.725241	-1.424342	-0.763155	6
N	1.215041	-2.032442	-1.623605	7
C	0.528251	0.820318	0.226385	6
N	0.435371	1.528508	-0.936455	7
N	0.968151	1.459338	1.265065	7
H	-1.891709	-0.132972	1.019295	1
H	-1.764499	-1.764922	0.336395	1
H	-1.803059	-0.355882	-0.732035	1
H	0.416201	-1.044822	1.274945	1
H	0.578031	1.039208	-1.814415	1
H	0.935571	2.412218	-0.887515	1
H	0.987401	0.866008	2.100795	1
Es	0.175060	1.543421	-0.850256	99
Es	1.071641	1.104237	0.802587	99
Es	0.317921	-0.909061	0.941002	99
Es	-1.424954	-0.728851	0.227169	99
Es	0.521478	1.222794	-1.457597	99
Es	0.736949	2.031573	-0.904665	99
Es	0.528197	0.820259	0.226212	99
Es	1.042169	1.802536	1.255898	99
Es	-0.625590	-0.685608	0.245925	99
Es	0.437245	-1.056530	-0.266471	99
Es	-1.725185	-0.324627	0.773817	99
Es	0.725106	-1.424142	-0.762857	99
Es	0.095127	-0.641389	0.306967	99
Es	1.348550	-2.225999	-1.912276	99
Es	0.435951	1.528230	-0.936292	99
Es	0.533636	1.250991	0.934126	99
Es	0.320559	0.062899	0.228494	99
Es	0.967153	1.103840	1.777274	99
Es	0.816828	-1.960325	-1.182203	99
Es	0.534943	1.192195	-0.458886	99
Es	0.898302	-1.560804	-1.414010	99
Es	1.270097	-1.735150	-1.088689	99
Es	-1.632439	-1.418721	0.302386	99
Es	-1.665845	-0.485925	-0.426038	99
Es	1.214848	-2.032200	-1.623269	99
Es	0.967975	1.458831	1.264998	99
40
Properties=species:S:1:pos:R:3:Z:I:1 energy=-318.9971102144874 field_type=dipole dipole="0.000000 0.000000 0.000000" charge=0
C	-1.425059	-0.728852	0.227165	6
C	0.095061	-0.641362	0.307135	6
C	0.725241	-1.424342	-0.763155	6
N	1.215041	-2.032442	-1.623605	7
C	0.528251	0.820318	0.226385	6
N	0.435371	1.528508	-0.936455	7
N	0.968151	1.459338	1.265065	7
H	-1.891709	-0.132972	1.019295	1
H	-1.764499	-1.764922	0.336395	1
H	-1.803059	-0.355882	-0.732035	1
H	0.416201	-1.044822	1.274945	1
H	0.578031	1.039208	-1.814415	1
H	0.935571	2.412218	-0.887515	1
H	0.987401	0.866008	2.100795	1
Es	0.967379	1.104318	1.777438	99
Es	0.320484	0.062304	0.228296	99
Es	0.534275	1.251196	0.935179	99
Es	0.521110	1.222667	-1.457785	99
Es	1.041679	1.802191	1.255695	99
Es	-1.424957	-0.728851	0.227167	99
Es	0.317879	-0.908560	0.941436	99
Es	0.437438	-1.056574	-0.266627	99
Es	0.528195	0.820264	0.226212	99
Es	0.924470	-1.551317	-1.406102	99
Es	1.214846	-2.032199	-1.623269	99
Es	-1.725178	-0.324677	0.774064	99
Es	0.736769	2.031736	-0.904399	99
Es	0.725108	-1.424141	-0.762856	99
Es	1.348107	-2.225835	-1.912736	99
Es	0.095123	-0.641398	0.306968	99
Es	-1.631958	-1.418005	0.302526	99
Es	1.070866	1.104101	0.801589	99
Es	0.796801	-1.949666	-1.201525	99
Es	0.175002	1.542851	-0.849380	99
Es	0.967967	1.458821	1.265009	99
Es	-0.625301	-0.685431	0.245884	99
Es	0.535601	1.192494	-0.459818	99
Es	-1.665983	-0.486509	-0.426397	99
Es	0.435966	1.528227	-0.936294	99
Es	1.264032	-1.755536	-1.076930	99
40
Properties=species:S:1:pos:R:3:Z:I:1 energy=-318.9971102144874 field_type=dipole dipole="0.000000 0.000000 0.000000" charge=0
C	-1.425059	-0.728852	0.227165	6
C	0.095061	-0.641362	0.307135	6
C	0.725241	-1.424342	-0.763155	6
N	1.215041	-2.032442	-1.623605	7
C	0.528251	0.820318	0.226385	6
N	0.435371	1.528508	-0.936455	7
N	0.968151	1.459338	1.265065	7
H	-1.891709	-0.132972	1.019295	1
H	-1.764499	-1.764922	0.336395	1
H	-1.803059	-0.355882	-0.732035	1
H	0.416201	-1.044822	1.274945	1
H	0.578031	1.039208	-1.814415	1
H	0.935571	2.412218	-0.887515	1
H	0.987401	0.866008	2.100795	1
Es	0.734502	2.034292	-0.904039	99
Es	0.967958	1.458814	1.265011	99
Es	0.809134	-1.624821	-1.419990	99
Es	-1.665624	-0.486409	-0.426298	99
Es	0.182455	1.540824	-0.853152	99
Es	0.528190	0.820259	0.226214	99
Es	1.214848	-2.032200	-1.623270	99
Es	0.725106	-1.424145	-0.762854	99
Es	0.437347	-1.056953	-0.266555	99
Es	0.900695	-1.967572	-1.129040	99
Es	0.529846	1.192304	-0.456586	99
Es	1.348840	-2.227027	-1.911800	99
Es	-1.424956	-0.728851	0.227170	99
Es	0.521813	1.222307	-1.457574	99
Es	0.966970	1.105800	1.778358	99
Es	0.095123	-0.641398	0.306968	99
Es	1.041029	1.801400	1.254621	99
Es	-1.725139	-0.324438	0.774054	99
Es	0.320508	0.062586	0.228416	99
Es	0.536238	1.251371	0.936155	99
Es	-1.632006	-1.418378	0.302442	99
Es	0.317747	-0.908699	0.941169	99
Es	1.274656	-1.662697	-1.136652	99
Es	1.069767	1.103411	0.800740	99
Es	-0.625344	-0.685490	0.246086	99
Es	0.436013	1.528184	-0.936250	99
40
Properties=species:S:1:pos:R:3:Z:I:1 energy=-318.9971102144874 field_type=dipole dipole="0.000000 0.000000 0.000000" charge=0
C	-1.425059	-0.728852	0.227165	6
C	0.095061	-0.641362	0.307135	6
C	0.725241	-1.424342	-0.763155	6
N	1.215041	-2.032442	-1.623605	7
C	0.528251	0.820318	0.226385	6
N	0.435371	1.528508	-0.936455	7
N	0.968151	1.459338	1.265065	7
H	-1.891709	-0.132972	1.019295	1
H	-1.764499	-1.764922	0.336395	1
H	-1.803059	-0.355882	-0.732035	1
H	0.416201	-1.044822	1.274945	1
H	0.578031	1.039208	-1.814415	1
H	0.935571	2.412218	-0.887515	1
H	0.987401	0.866008	2.100795	1
Es	0.736695	2.032697	-0.903605	99
Es	1.070114	1.103407	0.800819	99
Es	0.814279	-1.620241	-1.420244	99
Es	0.537348	1.250854	0.936133	99
Es	1.348091	-2.227006	-1.912165	99
Es	0.437354	-1.057028	-0.266672	99
Es	0.967976	1.458837	1.264996	99
Es	-1.665689	-0.486834	-0.426350	99
Es	-1.631805	-1.418026	0.302528	99
Es	0.528197	0.820263	0.226212	99
Es	-0.625142	-0.685517	0.245924	99
Es	0.435936	1.528243	-0.936310	99
Es	0.320393	0.062353	0.228247	99
Es	-1.424957	-0.728850	0.227170	99
Es	0.895065	-1.963274	-1.135908	99
Es	0.095122	-0.641397	0.306969	99
Es	0.725106	-1.424139	-0.762855	99
Es	0.521452	1.221950	-1.457531	99
Es	0.527490	1.192377	-0.455921	99
Es	0.317612	-0.908447	0.941319	99
Es	0.966227	1.105778	1.778218	99
Es	0.183171	1.542518	-0.854085	99
Es	1.040093	1.802138	1.254672	99
Es	1.275721	-1.671725	-1.129163	99
Es	1.214848	-2.032200	-1.623270	99
Es	-1.724979	-0.324259	0.774219	99
40
Properties=species:S:1:pos:R:3:Z:I:1 energy=-318.9971102144874 field_type=dipole dipole="0.000000 0.000000 0.000000" charge=0
C	-1.425059	-0.728852	0.227165	6
C	0.095061	-0.641362	0.307135	6
C	0.725241	-1.424342	-0.763155	6
N	1.215041	-2.032442	-1.623605	7
C	0.528251	0.820318	0.226385	6
N	0.435371	1.528508	-0.936455	7
N	0.968151	1.459338	1.265065	7
H	-1.891709	-0.132972	1.019295	1
H	-1.764499	-1.764922	0.336395	1
H	-1.803059	-0.355882	-0.732035	1
H	0.416201	-1.044822	1.274945	1
H	0.578031	1.039208	-1.814415	1
H	0.935571	2.412218	-0.887515	1
H	0.987401	0.866008	2.100795	1
Es	0.966581	1.106968	1.779132	99
Es	0.968011	1.458926	1.265033	99
Es	1.348242	-2.227285	-1.912001	99
Es	1.273367	-1.652945	-1.143630	99
Es	1.214847	-2.032200	-1.623270	99
Es	0.095120	-0.641398	0.306971	99
Es	-1.424958	-0.728850	0.227170	99
Es	0.437263	-1.057081	-0.266831	99
Es	0.528984	1.192498	-0.456207	99
Es	0.915730	-1.962021	-1.124834	99
Es	0.725110	-1.424141	-0.762854	99
Es	0.435994	1.528215	-0.936286	99
Es	0.528202	0.820260	0.226211	99
Es	0.183197	1.541041	-0.853456	99
Es	0.734820	2.033877	-0.903875	99
Es	0.521740	1.222110	-1.457615	99
Es	0.320227	0.062300	0.228134	99
Es	0.538415	1.250836	0.936931	99
Es	1.039085	1.800874	1.253806	99
Es	-0.624741	-0.685469	0.245915	99
Es	0.317562	-0.908300	0.941599	99
Es	0.795586	-1.639992	-1.417106	99
Es	-1.665805	-0.487167	-0.426597	99
Es	-1.724848	-0.324274	0.774384	99
Es	1.069402	1.103477	0.799946	99
Es	-1.631415	-1.417786	0.302676	99
40
Properties=species:S:1:pos:R:3:Z:I:1 energy=-318.9971102144874 field_type=dipole dipole="0.000000 0.000000 0.000000" charge=0
C	-1.425059	-0.728852	0.227165	6
C	0.095061	-0.641362	0.307135	6
C	0.725241	-1.424342	-0.763155	6
N	1.215041	-2.032442	-1.623605	7
C	0.528251	0.820318	0.226385	6
N	0.435371	1.528508	-0.936455	7
N	0.968151	1.459338	1.265065	7
H	-1.891709	-0.132972	1.019295	1
H	-1.764499	-1.764922	0.336395	1
H	-1.803059	-0.355882	-0.732035	1
H	0.416201	-1.044822	1.274945	1
H	0.578031	1.039208	-1.814415	1
H	0.935571	2.412218	-0.887515	1
H	0.987401	0.866008	2.100795	1
Es	0.182786	1.540448	-0.852572	99
Es	0.435689	1.528373	-0.936408	99
Es	1.038342	1.799753	1.252717	99
Es	0.967971	1.458823	1.264991	99
Es	0.538542	1.250498	0.937008	99
Es	0.734527	2.034000	-0.903711	99
Es	-0.624947	-0.685580	0.245935	99
Es	0.737395	-1.887446	-1.278441	99
Es	-1.424956	-0.728854	0.227169	99
Es	0.725114	-1.424137	-0.762855	99
Es	-1.724741	-0.324123	0.774491	99
Es	0.530020	1.192756	-0.457010	99
Es	0.521754	1.222035	-1.457676	99
Es	1.214848	-2.032200	-1.623270	99
Es	-1.665650	-0.487350	-0.426689	99
Es	1.348250	-2.226012	-1.912879	99
Es	0.437427	-1.056702	-0.267080	99
Es	1.017265	-1.544430	-1.361190	99
Es	0.095124	-0.641397	0.306969	99
Es	0.528195	0.820261	0.226214	99
Es	-1.631370	-1.417534	0.302664	99
Es	0.966879	1.109029	1.779888	99
Es	0.317457	-0.908254	0.941507	99
Es	1.069632	1.103086	0.800248	99
Es	0.320347	0.062265	0.228174	99
Es	1.229818	-1.824837	-1.044848	99
40
Properties=species:S:1:pos:R:3:Z:I:1 energy=-318.9971102144874 field_type=dipole dipole="0.000000 0.000000 0.000000" charge=0
C	-1.425059	-0.728852	0.227165	6
C	0.095061	-0.641362	0.307135	6
C	0.725241	-1.424342	-0.763155	6
N	1.215041	-2.032442	-1.623605	7
C	0.528251	0.820318	0.226385	6
N	0.435371	1.528508	-0.936455	7
N	0.968151	1.459338	1.265065	7
H	-1.891709	-0.132972	1.019295	1
H	-1.764499	-1.764922	0.336395	1
H	-1.803059	-0.355882	-0.732035	1
H	0.416201	-1.044822	1.274945	1
H	0.578031	1.039208	-1.814415	1
H	0.935571	2.412218	-0.887515	1
H	0.987401	0.866008	2.100795	1
Es	1.214849	-2.032202	-1.623272	99
Es	0.435917	1.528267	-0.936335	99
Es	0.320346	0.062074	0.228089	99
Es	1.348100	-2.226295	-1.912782	99
Es	1.015173	-1.547616	-1.360446	99
Es	0.539438	1.250805	0.937663	99
Es	0.967980	1.458853	1.265025	99
Es	-1.631110	-1.417059	0.302781	99
Es	1.068887	1.102907	0.799520	99
Es	1.038430	1.800303	1.253042	99
Es	0.528192	0.820264	0.226215	99
Es	0.437439	-1.056675	-0.267218	99
Es	-1.724725	-0.324116	0.774597	99
Es	-0.624753	-0.685592	0.245924	99
Es	0.184145	1.541363	-0.854038	99
Es	0.966433	1.108440	1.779585	99
Es	0.725117	-1.424136	-0.762856	99
Es	0.521874	1.221834	-1.457586	99
Es	0.737743	-1.886479	-1.279121	99
Es	0.317405	-0.908033	0.941633	99
Es	-1.424953	-0.728852	0.227170	99
Es	1.231613	-1.822439	-1.044970	99
Es	0.095123	-0.641396	0.306968	99
Es	0.527299	1.192617	-0.456076	99
Es	-1.665761	-0.487785	-0.426883	99
Es	0.735517	2.033422	-0.903283	99
40
Properties=species:S:1:pos:R:3:Z:I:1 energy=-318.9971102144874 field_type=dipole dipole="0.000000 0.000000 0.000000" charge=0
C	-1.425059	-0.728852	0.227165	6
C	0.095061	-0.641362	0.307135	6
C	0.725241	-1.424342	-0.763155	6
N	1.215041	-2.032442	-1.623605	7
C	0.528251	0.820318	0.226385	6
N	0.435371	1.528508	-0.936455	7
N	0.968151	1.459338	1.265065	7
H	-1.891709	-0.132972	1.019295	1
H	-1.764499	-1.764922	0.336395	1
H	-1.803059	-0.355882	-0.732035	1
H	0.416201	-1.044822	1.274945	1
H	0.578031	1.039208	-1.814415	1
H	0.935571	2.412218	-0.887515	1
H	0.987401	0.866008	2.100795	1
Es	-0.624702	-0.685517	0.245961	99
Es	0.734144	2.034703	-0.903165	99
Es	1.347185	-2.227713	-1.912232	99
Es	0.521483	1.221919	-1.457782	99
Es	-1.665707	-0.488070	-0.426990	99
Es	0.317367	-0.907850	0.941745	99
Es	-1.424953	-0.728850	0.227169	99
Es	0.436050	1.528190	-0.936273	99
Es	0.917415	-1.958659	-1.126505	99
Es	0.528199	0.820261	0.226212	99
Es	0.966553	1.110279	1.780574	99
Es	0.320191	0.062030	0.228055	99
Es	-1.630926	-1.416903	0.302871	99
Es	-1.724683	-0.323996	0.774637	99
Es	1.214848	-2.032200	-1.623270	99
Es	1.273488	-1.652903	-1.143067	99
Es	0.527904	1.192650	-0.456608	99
Es	0.725110	-1.424143	-0.762853	99
Es	0.967998	1.458938	1.265040	99
Es	0.437251	-1.057263	-0.267024	99
Es	1.069194	1.102890	0.799685	99
Es	1.037833	1.798509	1.252024	99
Es	0.185283	1.539827	-0.853504	99
Es	0.539491	1.250821	0.937495	99
Es	0.794581	-1.643081	-1.415819	99
Es	0.095122	-0.641398	0.306970	99
40
Properties=species:S:1:pos:R:3:Z:I:1 energy=-318.9971102144874 field_type=dipole dipole="0.000000 0.000000 0.000000" charge=0
C	-1.425059	-0.728852	0.227165	6
C	0.095061	-0.641362	0.307135	6
C	0.725241	-1.424342	-0.763155	6
N	1.215041	-2.032442	-1.623605	7
C	0.528251	0.820318	0.226385	6
N	0.435371	1.528508	-0.936455	7
N	0.968151	1.459338	1.265065	7
H	-1.891709	-0.132972	1.019295	1
H	-1.764499	-1.764922	0.336395	1
H	-1.803059	-0.355882	-0.732035	1
H	0.416201	-1.044822	1.274945	1
H	0.578031	1.039208	-1.814415	1
H	0.935571	2.412218	-0.887515	1
H	0.987401	0.866008	2.100795	1
Es	0.319958	0.061705	0.227863	99
Es	-0.624712	-0.685471	0.245856	99
Es	0.436024	1.528207	-0.936290	99
Es	-1.665706	-0.488223	-0.426942	99
Es	0.725110	-1.424138	-0.762857	99
Es	0.802734	-1.633863	-1.417485	99
Es	0.966567	1.110835	1.780732	99
Es	0.522071	1.221448	-1.457444	99
Es	0.735870	2.034288	-0.901932	99
Es	-1.424955	-0.728850	0.227170	99
Es	0.524698	1.192731	-0.456576	99
Es	0.967970	1.458822	1.265001	99
Es	-1.724758	-0.323946	0.774630	99
Es	1.214848	-2.032201	-1.623270	99
Es	-1.630873	-1.416813	0.302867	99
Es	0.186335	1.540573	-0.854877	99
Es	0.528198	0.820263	0.226212	99
Es	1.037396	1.798400	1.251791	99
Es	0.908328	-1.956436	-1.133699	99
Es	1.275045	-1.664613	-1.133828	99
Es	1.346509	-2.227540	-1.912576	99
Es	1.068450	1.102576	0.798920	99
Es	0.540728	1.250960	0.938316	99
Es	0.317357	-0.907685	0.941836	99
Es	0.095123	-0.641398	0.306967	99
Es	0.437403	-1.057160	-0.267041	99
40
Properties=species:S:1:pos:R:3:Z:I:1 energy=-318.9971102144874 field_type=dipole dipole="0.000000 0.000000 0.000000" charge=0
C	-1.425059	-0.728852	0.227165	6
C	0.095061	-0.641362	0.307135	6
C	0.725241	-1.424342	-0.763155	6
N	1.215041	-2.032442	-1.623605	7
C	0.528251	0.820318	0.226385	6
N	0.435371	1.528508	-0.936455	7
N	0.968151	1.459338	1.265065	7
H	-1.891709	-0.132972	1.019295	1
H	-1.764499	-1.764922	0.336395	1
H	-1.803059	-0.355882	-0.732035	1
H	0.416201	-1.044822	1.274945	1
H	0.578031	1.039208	-1.814415	1
H	0.935571	2.412218	-0.887515	1
H	0.987401	0.866008	2.100795	1
Es	0.435991	1.528190	-0.936252	99
Es	0.523922	1.192691	-0.455601	99
Es	1.037062	1.797792	1.251439	99
Es	-1.630724	-1.416721	0.302870	99
Es	0.725112	-1.424141	-0.762852	99
Es	-1.724731	-0.323887	0.774706	99
Es	1.068595	1.102614	0.799058	99
Es	-1.665694	-0.488400	-0.426944	99
Es	0.735011	2.034695	-0.902198	99
Es	-0.624682	-0.685375	0.245933	99
Es	0.437239	-1.057299	-0.267105	99
Es	0.798084	-1.639305	-1.416424	99
Es	1.346614	-2.227863	-1.912384	99
Es	0.095121	-0.641397	0.306969	99
Es	1.274739	-1.661149	-1.136050	99
Es	0.966516	1.111595	1.781063	99
Es	0.317335	-0.907724	0.941700	99
Es	-1.424957	-0.728850	0.227170	99
Es	0.967976	1.458847	1.264977	99
Es	0.528199	0.820261	0.226213	99
Es	0.188125	1.540102	-0.855472	99
Es	0.521932	1.221521	-1.457552	99
Es	1.214848	-2.032202	-1.623271	99
Es	0.540770	1.250833	0.938212	99
Es	0.320199	0.061745	0.227925	99
Es	0.913118	-1.954100	-1.132782	99
40
Properties=species:S:1:pos:R:3:Z:I:1 energy=-318.9971102144874 field_type=dipole dipole="0.000000 0.000000 0.000000" charge=0
C	-1.425059	-0.728852	0.227165	6
C	0.095061	-0.641362	0.307135	6
C	0.725241	-1.424342	-0.763155	6
N	1.215041	-2.032442	-1.623605	7
C	0.528251	0.820318	0.226385	6
N	0.435371	1.528508	-0.936455	7
N	0.968151	1.459338	1.265065	7
H	-1.891709	-0.132972	1.019295	1
H	-1.764499	-1.764922	0.336395	1
H	-1.803059	-0.355882	-0.732035	1
H	0.416201	-1.044822	1.274945	1
H	0.578031	1.039208	-1.814415	1
H	0.935571	2.412218	-0.887515	1
H	0.987401	0.866008	2.100795	1
Es	0.966330	1.110313	1.780404	99
Es	0.731497	-1.873377	-1.291054	99
Es	0.095123	-0.641398	0.306968	99
Es	0.436183	1.528093	-0.936187	99
Es	1.347842	-2.226772	-1.912736	99
Es	1.214848	-2.032201	-1.623270	99
Es	-1.665617	-0.488249	-0.426964	99
Es	-1.724594	-0.323862	0.774747	99
Es	0.725115	-1.424135	-0.762856	99
Es	1.067353	1.102384	0.798001	99
Es	0.317284	-0.907620	0.941795	99
Es	0.542335	1.250720	0.939368	99
Es	1.229383	-1.824853	-1.043853	99
Es	-1.424954	-0.728853	0.227171	99
Es	0.521882	1.221581	-1.457606	99
Es	0.967965	1.458814	1.265017	99
Es	1.023673	-1.557838	-1.349791	99
Es	0.320093	0.061913	0.227924	99
Es	-1.630763	-1.416872	0.302849	99
Es	0.523717	1.192740	-0.455124	99
Es	1.036771	1.799355	1.252007	99
Es	0.188791	1.539928	-0.855736	99
Es	0.734390	2.034901	-0.902544	99
Es	-0.624455	-0.685551	0.245943	99
Es	0.528198	0.820260	0.226213	99
Es	0.437328	-1.056950	-0.267343	99
40
Properties=species:S:1:pos:R:3:Z:I:1 energy=-318.9971102144874 field_type=dipole dipole="0.000000 0.000000 0.000000" charge=0
C	-1.425059	-0.728852	0.227165	6
C	0.095061	-0.641362	0.307135	6
C	0.725241	-1.424342	-0.763155	6
N	1.215041	-2.032442	-1.623605	7
C	0.528251	0.820318	0.226385	6
N	0.435371	1.528508	-0.936455	7
N	0.968151	1.459338	1.265065	7
H	-1.891709	-0.132972	1.019295	1
H	-1.764499	-1.764922	0.336395	1
H	-1.803059	-0.355882	-0.732035	1
H	0.416201	-1.044822	1.274945	1
H	0.578031	1.039208	-1.814415	1
H	0.935571	2.412218	-0.887515	1
H	0.987401	0.866008	2.100795	1
Es	1.346854	-2.227749	-1.912448	99
Es	0.188554	1.539586	-0.854987	99
Es	0.734084	2.034930	-0.902659	99
Es	0.966083	1.111733	1.781247	99
Es	0.436034	1.528182	-0.936254	99
Es	-1.424955	-0.728849	0.227170	99
Es	0.095123	-0.641398	0.306968	99
Es	0.783584	-1.655980	-1.412741	99
Es	-1.630634	-1.416594	0.302853	99
Es	1.036088	1.797926	1.251305	99
Es	-1.724447	-0.323887	0.774910	99
Es	0.437205	-1.057269	-0.267252	99
Es	1.068073	1.102543	0.798392	99
Es	1.272883	-1.649705	-1.144933	99
Es	0.542415	1.250559	0.938893	99
Es	0.317004	-0.907625	0.942084	99
Es	1.214846	-2.032198	-1.623270	99
Es	-1.665597	-0.488388	-0.427123	99
Es	0.528196	0.820261	0.226214	99
Es	0.524894	1.192908	-0.455407	99
Es	0.929069	-1.949110	-1.127498	99
Es	0.521467	1.221658	-1.457784	99
Es	-0.624202	-0.685587	0.245772	99
Es	0.320019	0.061840	0.227757	99
Es	0.967972	1.458827	1.264994	99
Es	0.725107	-1.424142	-0.762855	99
40
Properties=species:S:1:pos:R:3:Z:I:1 energy=-318.9971102144874 field_type=dipole dipole="0.000000 0.000000 0.000000" charge=0
C	-1.425059	-0.728852	0.227165	6
C	0.095061	-0.641362	0.307135	6
C	0.725241	-1.424342	-0.763155	6
N	1.215041	-2.032442	-1.623605	7
C	0.528251	0.820318	0.226385	6
N	0.435371	1.528508	-0.936455	7
N	0.968151	1.459338	1.265065	7
H	-1.891709	-0.132972	1.019295	1
H	-1.764499	-1.764922	0.336395	1
H	-1.803059	-0.355882	-0.732035	1
H	0.416201	-1.044822	1.274945	1
H	0.578031	1.039208	-1.814415	1
H	0.935571	2.412218	-0.887515	1