47
Properties=species:S:1:pos:R:3:Z:I:1 energy=-305.2762679844236 field_type=dipole dipole="0.000000 0.000000 0.000000" charge=0
C	-0.562998	-1.378086	-1.388218	6
C	-0.375748	-0.914016	0.054662	6
N	0.354282	-1.934146	0.810972	7
C	0.392852	0.401624	0.085882	6
C	-0.345168	1.660293	-0.425968	6
N	0.282672	2.430774	0.673082	7
C	0.419782	1.162584	1.432102	6
H	-1.138288	-0.643436	-1.962648	1
H	-1.104708	-2.329596	-1.429788	1
H	0.398912	-1.510746	-1.897478	1
H	-1.362088	-0.786286	0.515362	1
H	1.232322	-2.153026	0.340972	1
H	-0.180308	-2.802836	0.811822	1
H	1.397912	0.309944	-0.355668	1
H	-1.438758	1.622304	-0.355098	1
H	-0.071678	1.992184	-1.431848	1
H	1.184172	2.833774	0.415112	1
H	1.345482	1.072384	2.008101	1
H	-0.428648	0.966314	2.098652	1
Es	0.079792	2.693583	0.824748	99
Es	1.056701	1.106127	1.829859	99
Es	0.374338	1.909450	1.043370	99
Es	-0.563003	-1.378085	-1.388238	99
Es	-0.932488	-2.030804	-1.411501	99
Es	0.026771	-2.459274	0.788179	99
Es	-0.168682	1.027527	1.874826	99
Es	0.042038	-1.510285	0.465115	99
Es	0.838355	2.633872	0.499946	99
Es	0.354178	-1.934312	0.810432	99
Es	0.419776	1.162700	1.432001	99
Es	-1.092673	1.624678	-0.367723	99
Es	-0.956653	-0.873495	-1.779794	99
Es	0.429736	0.695038	0.803116	99
Es	-0.375662	-0.914132	0.054686	99
Es	-0.345095	1.660346	-0.425862	99
Es	0.392828	0.401643	0.085884	99
Es	0.419395	-1.830616	1.145909	99
Es	0.010397	2.143167	0.157278	99
Es	-0.473610	-1.147799	-0.687178	99
Es	0.100970	-1.468480	-1.728299	99
Es	0.013228	-0.266150	0.064281	99
Es	-0.158815	1.891895	-1.120594	99
Es	1.081750	0.338215	-0.217778	99
Es	0.282935	2.430393	0.672868	99
Es	-0.007640	0.975190	-0.255724	99
Es	-1.053428	-0.823060	0.370181	99
Es	0.875725	-2.065461	0.502773	99
47
Properties=species:S:1:pos:R:3:Z:I:1 energy=-305.2762679844236 field_type=dipole dipole="0.000000 0.000000 0.000000" charge=0
C	-0.562998	-1.378086	-1.388218	6
C	-0.375748	-0.914016	0.054662	6
N	0.354282	-1.934146	0.810972	7
C	0.392852	0.401624	0.085882	6
C	-0.345168	1.660293	-0.425968	6
N	0.282672	2.430774	0.673082	7
C	0.419782	1.162584	1.432102	6
H	-1.138288	-0.643436	-1.962648	1
H	-1.104708	-2.329596	-1.429788	1
H	0.398912	-1.510746	-1.897478	1
H	-1.362088	-0.786286	0.515362	1
H	1.232322	-2.153026	0.340972	1
H	-0.180308	-2.802836	0.811822	1
H	1.397912	0.309944	-0.355668	1
H	-1.438758	1.622304	-0.355098	1
H	-0.071678	1.992184	-1.431848	1
H	1.184172	2.833774	0.415112	1
H	1.345482	1.072384	2.008101	1
H	-0.428648	0.966314	2.098652	1
Es	0.026305	-2.459615	0.790012	99
Es	0.417533	-1.830340	1.142796	99
Es	0.839653	2.635886	0.500018	99
Es	-0.007676	0.975779	-0.255306	99
Es	0.372814	1.909548	1.044670	99
Es	-0.375663	-0.914131	0.054685	99
Es	-0.932833	-2.030622	-1.411305	99
Es	0.429559	0.695658	0.802796	99
Es	0.080507	2.691031	0.822689	99
Es	0.282999	2.430343	0.672833	99
Es	0.392827	0.401643	0.085885	99
Es	0.013146	-0.266179	0.064402	99
Es	0.354182	-1.934314	0.810443	99
Es	-1.093433	1.624576	-0.367615	99
Es	-0.473510	-1.147758	-0.687211	99
Es	0.009993	2.142933	0.157671	99
Es	0.419776	1.162700	1.432001	99
Es	-0.169284	1.027228	1.874894	99
Es	0.041999	-1.510537	0.464913	99
Es	-0.158262	1.891824	-1.120524	99
Es	-0.345093	1.660344	-0.425862	99
Es	0.101676	-1.468412	-1.728652	99
Es	-1.054092	-0.823150	0.370238	99
Es	-0.563004	-1.378085	-1.388240	99
Es	-0.956732	-0.873580	-1.779189	99
Es	1.082411	0.338217	-0.217872	99
Es	1.057193	1.106026	1.829640	99
Es	0.878172	-2.065143	0.503951	99
47
Properties=species:S:1:pos:R:3:Z:I:1 energy=-305.2762679844236 field_type=dipole dipole="0.000000 0.000000 0.000000" charge=0
C	-0.562998	-1.378086	-1.388218	6
C	-0.375748	-0.914016	0.054662	6
N	0.354282	-1.934146	0.810972	7
C	0.392852	0.401624	0.085882	6
C	-0.345168	1.660293	-0.425968	6
N	0.282672	2.430774	0.673082	7
C	0.419782	1.162584	1.432102	6
H	-1.138288	-0.643436	-1.962648	1
H	-1.104708	-2.329596	-1.429788	1
H	0.398912	-1.510746	-1.897478	1
H	-1.362088	-0.786286	0.515362	1
H	1.232322	-2.153026	0.340972	1
H	-0.180308	-2.802836	0.811822	1
H	1.397912	0.309944	-0.355668	1
H	-1.438758	1.622304	-0.355098	1
H	-0.071678	1.992184	-1.431848	1
H	1.184172	2.833774	0.415112	1
H	1.345482	1.072384	2.008101	1
H	-0.428648	0.966314	2.098652	1
Es	1.057529	1.105865	1.829381	99
Es	-0.158040	1.891780	-1.120608	99
Es	0.354185	-1.934331	0.810394	99
Es	-1.054386	-0.823082	0.370368	99
Es	0.840302	2.636383	0.499726	99
Es	-0.563004	-1.378085	-1.388238	99
Es	0.392829	0.401640	0.085884	99
Es	0.879298	-2.064921	0.504563	99
Es	-0.345090	1.660343	-0.425862	99
Es	1.082869	0.338175	-0.217945	99
Es	-0.007690	0.976066	-0.255124	99
Es	0.372572	1.909365	1.044292	99
Es	0.042122	-1.510627	0.464879	99
Es	0.419776	1.162699	1.432001	99
Es	0.429201	0.696111	0.802881	99
Es	0.283022	2.430327	0.672814	99
Es	0.025939	-2.459868	0.790937	99
Es	-0.375663	-0.914133	0.054687	99
Es	0.102068	-1.468413	-1.728786	99
Es	0.416664	-1.830097	1.141233	99
Es	-0.956824	-0.873612	-1.778941	99
Es	0.008436	2.143520	0.157850	99
Es	-0.932951	-2.030480	-1.411165	99
Es	0.013207	-0.266085	0.064242	99
Es	-0.473606	-1.147938	-0.687228	99
Es	-0.169697	1.027112	1.875026	99
Es	0.081856	2.689730	0.822936	99
Es	-1.093761	1.624427	-0.367435	99
47
Properties=species:S:1:pos:R:3:Z:I:1 energy=-305.2762679844236 field_type=dipole dipole="0.000000 0.000000 0.000000" charge=0
C	-0.562998	-1.378086	-1.388218	6
C	-0.375748	-0.914016	0.054662	6
N	0.354282	-1.934146	0.810972	7
C	0.392852	0.401624	0.085882	6
C	-0.345168	1.660293	-0.425968	6
N	0.282672	2.430774	0.673082	7
C	0.419782	1.162584	1.432102	6
H	-1.138288	-0.643436	-1.962648	1
H	-1.104708	-2.329596	-1.429788	1
H	0.398912	-1.510746	-1.897478	1
H	-1.362088	-0.786286	0.515362	1
H	1.232322	-2.153026	0.340972	1
H	-0.180308	-2.802836	0.811822	1
H	1.397912	0.309944	-0.355668	1
H	-1.438758	1.622304	-0.355098	1
H	-0.071678	1.992184	-1.431848	1
H	1.184172	2.833774	0.415112	1
H	1.345482	1.072384	2.008101	1
H	-0.428648	0.966314	2.098652	1
Es	-0.375663	-0.914132	0.054685	99
Es	0.007893	2.143589	0.157975	99
Es	0.354172	-1.934331	0.810400	99
Es	-0.473576	-1.147970	-0.687246	99
Es	-0.170027	1.026928	1.874951	99
Es	1.083082	0.338222	-0.218057	99
Es	0.880198	-2.064715	0.505229	99
Es	0.102363	-1.468437	-1.728924	99
Es	0.415873	-1.829637	1.140104	99
Es	0.419775	1.162699	1.432000	99
Es	0.392827	0.401644	0.085885	99
Es	0.429255	0.696427	0.802855	99
Es	-0.563004	-1.378084	-1.388239	99
Es	-0.956919	-0.873628	-1.778729	99
Es	-0.345093	1.660345	-0.425863	99
Es	0.283004	2.430327	0.672821	99
Es	0.372112	1.909342	1.044452	99
Es	-0.157762	1.891739	-1.120626	99
Es	-0.933054	-2.030356	-1.411012	99
Es	-1.094102	1.624272	-0.367352	99
Es	0.013253	-0.266115	0.064252	99
Es	1.057796	1.105773	1.829328	99
Es	-1.054643	-0.823079	0.370376	99
Es	-0.007809	0.976475	-0.254881	99
Es	0.025965	-2.460051	0.791759	99
Es	0.042049	-1.511107	0.464442	99
Es	0.082428	2.688646	0.822467	99
Es	0.840770	2.637085	0.499707	99
47
Properties=species:S:1:pos:R:3:Z:I:1 energy=-305.2762679844236 field_type=dipole dipole="0.000000 0.000000 0.000000" charge=0
C	-0.562998	-1.378086	-1.388218	6
C	-0.375748	-0.914016	0.054662	6
N	0.354282	-1.934146	0.810972	7
C	0.392852	0.401624	0.085882	6
C	-0.345168	1.660293	-0.425968	6
N	0.282672	2.430774	0.673082	7
C	0.419782	1.162584	1.432102	6
H	-1.138288	-0.643436	-1.962648	1
H	-1.104708	-2.329596	-1.429788	1
H	0.398912	-1.510746	-1.897478	1
H	-1.362088	-0.786286	0.515362	1
H	1.232322	-2.153026	0.340972	1
H	-0.180308	-2.802836	0.811822	1
H	1.397912	0.309944	-0.355668	1
H	-1.438758	1.622304	-0.355098	1
H	-0.071678	1.992184	-1.431848	1
H	1.184172	2.833774	0.415112	1
H	1.345482	1.072384	2.008101	1
H	-0.428648	0.966314	2.098652	1
Es	0.429070	0.696727	0.803113	99
Es	0.042267	-1.511235	0.464365	99
Es	-0.473636	-1.148027	-0.687278	99
Es	0.371616	1.909402	1.044880	99
Es	0.880699	-2.064668	0.505519	99
Es	0.025642	-2.460162	0.792205	99
Es	-0.170236	1.026806	1.874937	99
Es	-0.933035	-2.030349	-1.410964	99
Es	0.007392	2.143655	0.158010	99
Es	0.419776	1.162701	1.432002	99
Es	0.415459	-1.829405	1.139396	99
Es	0.283026	2.430329	0.672817	99
Es	-0.563006	-1.378085	-1.388238	99
Es	-1.054817	-0.823111	0.370357	99
Es	-0.956987	-0.873684	-1.778655	99
Es	1.058054	1.105736	1.829241	99
Es	-0.157568	1.891657	-1.120648	99
Es	-1.094331	1.624155	-0.367301	99
Es	0.102595	-1.468344	-1.728895	99
Es	0.013246	-0.265949	0.064134	99
Es	0.083165	2.687850	0.821854	99
Es	1.083282	0.338195	-0.218184	99
Es	-0.007787	0.976640	-0.254756	99
Es	0.392826	0.401646	0.085887	99
Es	0.354180	-1.934316	0.810415	99
Es	0.841030	2.637494	0.499728	99
Es	-0.345094	1.660344	-0.425866	99
Es	-0.375663	-0.914132	0.054685	99
47
Properties=species:S:1:pos:R:3:Z:I:1 energy=-305.2762679844236 field_type=dipole dipole="0.000000 0.000000 0.000000" charge=0
C	-0.562998	-1.378086	-1.388218	6
C	-0.375748	-0.914016	0.054662	6
N	0.354282	-1.934146	0.810972	7
C	0.392852	0.401624	0.085882	6
C	-0.345168	1.660293	-0.425968	6
N	0.282672	2.430774	0.673082	7
C	0.419782	1.162584	1.432102	6
H	-1.138288	-0.643436	-1.962648	1
H	-1.104708	-2.329596	-1.429788	1
H	0.398912	-1.510746	-1.897478	1
H	-1.362088	-0.786286	0.515362	1
H	1.232322	-2.153026	0.340972	1
H	-0.180308	-2.802836	0.811822	1
H	1.397912	0.309944	-0.355668	1
H	-1.438758	1.622304	-0.355098	1
H	-0.071678	1.992184	-1.431848	1
H	1.184172	2.833774	0.415112	1
H	1.345482	1.072384	2.008101	1
H	-0.428648	0.966314	2.098652	1
Es	0.102728	-1.468475	-1.729070	99
Es	1.058200	1.105727	1.829203	99
Es	0.006840	2.143812	0.157919	99
Es	0.013196	-0.266103	0.064145	99
Es	-0.563003	-1.378085	-1.388237	99
Es	0.415562	-1.830001	1.138287	99
Es	0.429032	0.696816	0.803039	99
Es	-0.157452	1.891633	-1.120759	99
Es	0.025568	-2.460025	0.792866	99
Es	-0.170351	1.026802	1.874942	99
Es	1.083355	0.338225	-0.218183	99
Es	-0.473569	-1.147988	-0.687294	99
Es	0.841357	2.638258	0.499997	99
Es	0.283015	2.430334	0.672826	99
Es	-0.345094	1.660345	-0.425865	99
Es	-1.094423	1.624117	-0.367195	99
Es	-0.956955	-0.873742	-1.778514	99
Es	0.371125	1.909452	1.045230	99
Es	-0.007904	0.976874	-0.254646	99
Es	0.354180	-1.934315	0.810460	99
Es	-0.375662	-0.914133	0.054686	99
Es	-1.054947	-0.823057	0.370416	99
Es	0.083962	2.686618	0.821281	99
Es	0.041962	-1.510562	0.464793	99
Es	-0.933178	-2.030161	-1.410914	99
Es	0.392826	0.401644	0.085885	99
Es	0.881016	-2.064840	0.505460	99
Es	0.419778	1.162700	1.432001	99
47
Properties=species:S:1:pos:R:3:Z:I:1 energy=-305.2762679844236 field_type=dipole dipole="0.000000 0.000000 0.000000" charge=0
C	-0.562998	-1.378086	-1.388218	6
C	-0.375748	-0.914016	0.054662	6
N	0.354282	-1.934146	0.810972	7
C	0.392852	0.401624	0.085882	6
C	-0.345168	1.660293	-0.425968	6
N	0.282672	2.430774	0.673082	7
C	0.419782	1.162584	1.432102	6
H	-1.138288	-0.643436	-1.962648	1
H	-1.104708	-2.329596	-1.429788	1
H	0.398912	-1.510746	-1.897478	1
H	-1.362088	-0.786286	0.515362	1
H	1.232322	-2.153026	0.340972	1
H	-0.180308	-2.802836	0.811822	1
H	1.397912	0.309944	-0.355668	1
H	-1.438758	1.622304	-0.355098	1
H	-0.071678	1.992184	-1.431848	1
H	1.184172	2.833774	0.415112	1
H	1.345482	1.072384	2.008101	1
H	-0.428648	0.966314	2.098652	1
Es	-0.170480	1.026763	1.874888	99
Es	-0.375662	-0.914132	0.054686	99
Es	0.841512	2.638338	0.499751	99
Es	1.083635	0.338151	-0.218103	99
Es	0.006108	2.144034	0.158024	99
Es	1.058298	1.105640	1.829194	99
Es	0.392827	0.401645	0.085885	99
Es	0.881495	-2.064616	0.505847	99
Es	0.354178	-1.934322	0.810414	99
Es	0.042182	-1.511579	0.464286	99
Es	0.025558	-2.460140	0.792971	99
Es	-0.157334	1.891639	-1.120679	99
Es	0.102868	-1.468469	-1.729186	99
Es	-0.007935	0.976972	-0.254611	99
Es	-0.345091	1.660344	-0.425865	99
Es	-0.957045	-0.873833	-1.778420	99
Es	0.085021	2.686044	0.820605	99
Es	-1.055020	-0.822973	0.370363	99
Es	-0.563003	-1.378085	-1.388239	99
Es	0.013229	-0.266019	0.064144	99
Es	0.414857	-1.829148	1.138383	99
Es	-0.933174	-2.030077	-1.410811	99
Es	0.419775	1.162700	1.432000	99
Es	-1.094585	1.624141	-0.367195	99
Es	0.283033	2.430352	0.672807	99
Es	0.370671	1.909557	1.046031	99
Es	-0.473588	-1.147962	-0.687278	99
Es	0.428834	0.696906	0.802869	99
47
Properties=species:S:1:pos:R:3:Z:I:1 energy=-305.2762679844236 field_type=dipole dipole="0.000000 0.000000 0.000000" charge=0
C	-0.562998	-1.378086	-1.388218	6
C	-0.375748	-0.914016	0.054662	6
N	0.354282	-1.934146	0.810972	7
C	0.392852	0.401624	0.085882	6
C	-0.345168	1.660293	-0.425968	6
N	0.282672	2.430774	0.673082	7
C	0.419782	1.162584	1.432102	6
H	-1.138288	-0.643436	-1.962648	1
H	-1.104708	-2.329596	-1.429788	1
H	0.398912	-1.510746	-1.897478	1
H	-1.362088	-0.786286	0.515362	1
H	1.232322	-2.153026	0.340972	1
H	-0.180308	-2.802836	0.811822	1
H	1.397912	0.309944	-0.355668	1
H	-1.438758	1.622304	-0.355098	1
H	-0.071678	1.992184	-1.431848	1
H	1.184172	2.833774	0.415112	1
H	1.345482	1.072384	2.008101	1
H	-0.428648	0.966314	2.098652	1
Es	0.414302	-1.828904	1.138063	99
Es	-1.094625	1.624070	-0.367154	99
Es	0.102949	-1.468415	-1.729224	99
Es	1.083684	0.338188	-0.218219	99
Es	0.013174	-0.266027	0.064201	99
Es	0.370449	1.909538	1.046197	99
Es	0.354164	-1.934297	0.810391	99
Es	-0.345093	1.660346	-0.425865	99
Es	0.042337	-1.511927	0.463990	99
Es	-0.007928	0.976972	-0.254491	99
Es	-1.055206	-0.823088	0.370393	99
Es	0.419776	1.162699	1.432002	99
Es	0.392827	0.401645	0.085888	99
Es	0.882027	-2.064530	0.506155	99
Es	-0.170527	1.026709	1.874954	99
Es	-0.957128	-0.873797	-1.778318	99
Es	-0.563002	-1.378085	-1.388237	99
Es	-0.473466	-1.147978	-0.687300	99
Es	1.058425	1.105609	1.829070	99
Es	-0.157266	1.891653	-1.120734	99
Es	0.085849	2.685813	0.820493	99
Es	0.005312	2.144354	0.158056	99
Es	0.428769	0.697096	0.802966	99
Es	0.841610	2.638214	0.499587	99
Es	0.025531	-2.460086	0.793198	99
Es	-0.375663	-0.914132	0.054686	99
Es	-0.933163	-2.030077	-1.410784	99
Es	0.283044	2.430307	0.672799	99
47
Properties=species:S:1:pos:R:3:Z:I:1 energy=-305.2762679844236 field_type=dipole dipole="0.000000 0.000000 0.000000" charge=0
C	-0.562998	-1.378086	-1.388218	6
C	-0.375748	-0.914016	0.054662	6
N	0.354282	-1.934146	0.810972	7
C	0.392852	0.401624	0.085882	6
C	-0.345168	1.660293	-0.425968	6
N	0.282672	2.430774	0.673082	7
C	0.419782	1.162584	1.432102	6
H	-1.138288	-0.643436	-1.962648	1
H	-1.104708	-2.329596	-1.429788	1
H	0.398912	-1.510746	-1.897478	1
H	-1.362088	-0.786286	0.515362	1
H	1.232322	-2.153026	0.340972	1
H	-0.180308	-2.802836	0.811822	1
H	1.397912	0.309944	-0.355668	1
H	-1.438758	1.622304	-0.355098	1
H	-0.071678	1.992184	-1.431848	1
H	1.184172	2.833774	0.415112	1
H	1.345482	1.072384	2.008101	1
H	-0.428648	0.966314	2.098652	1
Es	-0.473609	-1.148027	-0.687290	99
Es	0.370500	1.909439	1.045974	99
Es	-1.055208	-0.823075	0.370418	99
Es	0.428801	0.697236	0.803034	99
Es	0.283027	2.430315	0.672802	99
Es	0.882306	-2.064404	0.506393	99
Es	1.058556	1.105618	1.829148	99
Es	-0.007955	0.977127	-0.254443	99
Es	0.841621	2.638705	0.499816	99
Es	-0.157288	1.891707	-1.120891	99
Es	0.419777	1.162699	1.432000	99
Es	-0.375661	-0.914133	0.054686	99
Es	-0.957126	-0.873875	-1.778289	99
Es	0.013182	-0.265891	0.064237	99
Es	-1.094595	1.623910	-0.367009	99
Es	0.025455	-2.460207	0.793302	99
Es	0.005295	2.144287	0.157966	99
Es	1.083789	0.338095	-0.218289	99
Es	-0.933194	-2.029937	-1.410764	99
Es	-0.563003	-1.378085	-1.388237	99
Es	-0.345094	1.660344	-0.425864	99
Es	0.392826	0.401645	0.085884	99
Es	0.103103	-1.468480	-1.729266	99
Es	0.414115	-1.829151	1.137469	99
Es	0.354183	-1.934291	0.810473	99
Es	0.085792	2.685316	0.820527	99
Es	0.042250	-1.511657	0.464150	99
Es	-0.170682	1.026639	1.874823	99
47
Properties=species:S:1:pos:R:3:Z:I:1 energy=-305.2762679844236 field_type=dipole dipole="0.000000 0.000000 0.000000" charge=0
C	-0.562998	-1.378086	-1.388218	6
C	-0.375748	-0.914016	0.054662	6
N	0.354282	-1.934146	0.810972	7
C	0.392852	0.401624	0.085882	6
C	-0.345168	1.660293	-0.425968	6
N	0.282672	2.430774	0.673082	7
C	0.419782	1.162584	1.432102	6
H	-1.138288	-0.643436	-1.962648	1
H	-1.104708	-2.329596	-1.429788	1
H	0.398912	-1.510746	-1.897478	1
H	-1.362088	-0.786286	0.515362	1
H	1.232322	-2.153026	0.340972	1
H	-0.180308	-2.802836	0.811822	1
H	1.397912	0.309944	-0.355668	1
H	-1.438758	1.622304	-0.355098	1
H	-0.071678	1.992184	-1.431848	1
H	1.184172	2.833774	0.415112	1
H	1.345482	1.072384	2.008101	1
H	-0.428648	0.966314	2.098652	1
Es	0.042238	-1.511780	0.464191	99
Es	-1.055282	-0.823066	0.370439	99
Es	-0.345094	1.660342	-0.425864	99
Es	-0.008045	0.977281	-0.254458	99
Es	0.283007	2.430310	0.672827	99
Es	1.083767	0.338152	-0.218252	99
Es	1.058673	1.105536	1.829021	99
Es	-0.375662	-0.914133	0.054686	99
Es	0.392826	0.401646	0.085886	99
Es	-0.933158	-2.029908	-1.410719	99
Es	-0.563003	-1.378084	-1.388238	99
Es	0.419776	1.162699	1.432002	99
Es	-0.157063	1.891602	-1.120868	99
Es	0.882386	-2.064457	0.506237	99
Es	0.354180	-1.934321	0.810419	99
Es	0.005404	2.143982	0.157969	99
Es	-0.473537	-1.148049	-0.687309	99
Es	0.841753	2.639445	0.499983	99
Es	-0.957186	-0.873810	-1.778318	99
Es	0.013245	-0.265996	0.064212	99
Es	0.428696	0.697418	0.803150	99
Es	0.085765	2.684568	0.820052	99
Es	-1.094797	1.623930	-0.367022	99
Es	0.025440	-2.460098	0.793429	99
Es	0.103104	-1.468526	-1.729241	99
Es	0.414101	-1.829035	1.137492	99
Es	0.370386	1.909603	1.046166	99
Es	-0.170755	1.026619	1.874888	99
47
Properties=species:S:1:pos:R:3:Z:I:1 energy=-305.2762679844236 field_type=dipole dipole="0.000000 0.000000 0.000000" charge=0
C	-0.562998	-1.378086	-1.388218	6
C	-0.375748	-0.914016	0.054662	6
N	0.354282	-1.934146	0.810972	7
C	0.392852	0.401624	0.085882	6
C	-0.345168	1.660293	-0.425968	6
N	0.282672	2.430774	0.673082	7
C	0.419782	1.162584	1.432102	6
H	-1.138288	-0.643436	-1.962648	1
H	-1.104708	-2.329596	-1.429788	1
H	0.398912	-1.510746	-1.897478	1
H	-1.362088	-0.786286	0.515362	1
H	1.232322	-2.153026	0.340972	1
H	-0.180308	-2.802836	0.811822	1
H	1.397912	0.309944	-0.355668	1
H	-1.438758	1.622304	-0.355098	1
H	-0.071678	1.992184	-1.431848	1
H	1.184172	2.833774	0.415112	1
H	1.345482	1.072384	2.008101	1
H	-0.428648	0.966314	2.098652	1
Es	0.882343	-2.064361	0.506244	99
Es	0.841907	2.639062	0.499847	99
Es	-0.008026	0.977333	-0.254398	99
Es	0.369820	1.909652	1.046716	99
Es	-0.957167	-0.873948	-1.778245	99
Es	0.005198	2.144207	0.158002	99
Es	-0.375662	-0.914132	0.054687	99
Es	-0.933161	-2.029875	-1.410769	99
Es	0.013163	-0.265929	0.064114	99
Es	0.428633	0.697478	0.803219	99
Es	0.086425	2.684595	0.819529	99
Es	0.025549	-2.460149	0.793443	99
Es	1.058766	1.105509	1.829024	99
Es	0.042153	-1.511436	0.464319	99
Es	-0.345093	1.660344	-0.425864	99
Es	1.083847	0.338150	-0.218326	99
Es	-1.094928	1.623937	-0.367001	99
Es	-1.055340	-0.823110	0.370492	99
Es	0.419773	1.162702	1.432000	99
Es	0.392826	0.401644	0.085887	99
Es	0.354159	-1.934320	0.810363	99
Es	0.283021	2.430330	0.672818	99
Es	0.414215	-1.829345	1.137374	99
Es	0.103180	-1.468456	-1.729317	99
Es	-0.170789	1.026583	1.874842	99
Es	-0.157031	1.891546	-1.120795	99
Es	-0.563002	-1.378085	-1.388237	99
Es	-0.473613	-1.148056	-0.687206	99
47
Properties=species:S:1:pos:R:3:Z:I:1 energy=-305.2762679844236 field_type=dipole dipole="0.000000 0.000000 0.000000" charge=0
C	-0.562998	-1.378086	-1.388218	6
C	-0.375748	-0.914016	0.054662	6
N	0.354282	-1.934146	0.810972	7
C	0.392852	0.401624	0.085882	6
C	-0.345168	1.660293	-0.425968	6
N	0.282672	2.430774	0.673082	7
C	0.419782	1.162584	1.432102	6
H	-1.138288	-0.643436	-1.962648	1
H	-1.104708	-2.329596	-1.429788	1
H	0.398912	-1.510746	-1.897478	1
H	-1.362088	-0.786286	0.515362	1
H	1.232322	-2.153026	0.340972	1
H	-0.180308	-2.802836	0.811822	1
H	1.397912	0.309944	-0.355668	1
H	-1.438758	1.622304	-0.355098	1
H	-0.071678	1.992184	-1.431848	1
H	1.184172	2.833774	0.415112	1
H	1.345482	1.072384	2.008101	1
H	-0.428648	0.966314	2.098652	1
Es	0.013246	-0.265916	0.064184	99
Es	-1.055427	-0.823112	0.370416	99
Es	0.414025	-1.828845	1.137289	99
Es	0.025463	-2.460182	0.793632	99
Es	1.058821	1.105515	1.829017	99
Es	-0.563003	-1.378085	-1.388238	99
Es	0.354182	-1.934338	0.810431	99
Es	0.103247	-1.468505	-1.729307	99
Es	0.392827	0.401646	0.085887	99
Es	-0.375662	-0.914135	0.054685	99
Es	0.042263	-1.511830	0.464000	99
Es	0.882431	-2.064433	0.506403	99
Es	-0.345094	1.660345	-0.425864	99
Es	0.369924	1.909523	1.046377	99
Es	0.841964	2.639264	0.499886	99
Es	-0.957234	-0.873884	-1.778236	99
Es	-0.156964	1.891544	-1.120911	99
Es	-1.094879	1.623870	-0.366997	99
Es	-0.933160	-2.029840	-1.410685	99
Es	0.086363	2.684362	0.819802	99
Es	0.005033	2.144295	0.158119	99
Es	1.083898	0.338129	-0.218265	99
Es	-0.008168	0.977457	-0.254400	99
Es	0.428651	0.697558	0.803224	99
Es	-0.473509	-1.148066	-0.687284	99
Es	-0.170919	1.026533	1.874808	99
Es	0.419777	1.162699	1.432002	99
Es	0.283068	2.430299	0.672785	99
47
Properties=species:S:1:pos:R:3:Z:I:1 energy=-305.2762679844236 field_type=dipole dipole="0.000000 0.000000 0.000000" charge=0
C	-0.562998	-1.378086	-1.388218	6
C	-0.375748	-0.914016	0.054662	6
N	0.354282	-1.934146	0.810972	7
C	0.392852	0.401624	0.085882	6
C	-0.345168	1.660293	-0.425968	6
N	0.282672	2.430774	0.673082	7
C	0.419782	1.162584	1.432102	6
H	-1.138288	-0.643436	-1.962648	1
H	-1.104708	-2.329596	-1.429788	1
H	0.398912	-1.510746	-1.897478	1
H	-1.362088	-0.786286	0.515362	1
H	1.232322	-2.153026	0.340972	1
H	-0.180308	-2.802836	0.811822	1
H	1.397912	0.309944	-0.355668	1
H	-1.438758	1.622304	-0.355098	1
H	-0.071678	1.992184	-1.431848	1
H	1.184172	2.833774	0.415112	1
H	1.345482	1.072384	2.008101	1
H	-0.428648	0.966314	2.098652	1
Es	0.428654	0.697609	0.803139	99
Es	0.392826	0.401646	0.085886	99
Es	-0.933188	-2.029863	-1.410708	99
Es	0.282999	2.430327	0.672824	99
Es	1.083936	0.338125	-0.218281	99
Es	-1.055450	-0.823057	0.370451	99
Es	0.103291	-1.468465	-1.729279	99
Es	0.883056	-2.064269	0.507024	99
Es	-1.094885	1.623832	-0.366924	99
Es	-0.375662	-0.914133	0.054685	99
Es	0.042316	-1.512128	0.463667	99
Es	0.842078	2.638661	0.499697	99
Es	-0.957200	-0.873894	-1.778212	99
Es	-0.156943	1.891631	-1.120965	99
Es	0.419775	1.162700	1.432000	99
Es	0.369772	1.909780	1.046642	99
Es	-0.473574	-1.148064	-0.687292	99
Es	0.413305	-1.828723	1.136944	99
Es	0.013223	-0.265980	0.064192	99
Es	0.087301	2.684490	0.819760	99
Es	-0.345093	1.660345	-0.425863	99
Es	1.058753	1.105455	1.829014	99
Es	0.025514	-2.460206	0.793687	99
Es	-0.170933	1.026532	1.874810	99
Es	-0.008092	0.977455	-0.254360	99
Es	0.354175	-1.934314	0.810414	99
Es	0.004212	2.144463	0.158045	99
Es	-0.563003	-1.378085	-1.388237	99
47
Properties=species:S:1:pos:R:3:Z:I:1 energy=-305.2762679844236 field_type=dipole dipole="0.000000 0.000000 0.000000" charge=0
C	-0.562998	-1.378086	-1.388218	6
C	-0.375748	-0.914016	0.054662	6
N	0.354282	-1.934146	0.810972	7
C	0.392852	0.401624	0.085882	6
C	-0.345168	1.660293	-0.425968	6
N	0.282672	2.430774	0.673082	7
C	0.419782	1.162584	1.432102	6
H	-1.138288	-0.643436	-1.962648	1
H	-1.104708	-2.329596	-1.429788	1
H	0.398912	-1.510746	-1.897478	1
H	-1.362088	-0.786286	0.515362	1
H	1.232322	-2.153026	0.340972	1
H	-0.180308	-2.802836	0.811822	1
H	1.397912	0.309944	-0.355668	1
H	-1.438758	1.622304	-0.355098	1
H	-0.071678	1.992184	-1.431848	1
H	1.184172	2.833774	0.415112	1
H	1.345482	1.072384	2.008101	1
H	-0.428648	0.966314	2.098652	1
Es	0.354183	-1.934322	0.810447	99
Es	-0.933096	-2.029823	-1.410697	99
Es	-0.563003	-1.378085	-1.388237	99
Es	-0.473574	-1.148025	-0.687286	99
Es	-0.957286	-0.873912	-1.778238	99
Es	0.042329	-1.511992	0.463959	99
Es	0.087287	2.684077	0.819503	99
Es	0.428620	0.697619	0.803179	99
Es	-0.156864	1.891567	-1.120961	99
Es	0.103304	-1.468461	-1.729289	99
Es	0.413177	-1.829041	1.136951	99
Es	0.283030	2.430317	0.672802	99
Es	0.842153	2.639071	0.499735	99
Es	-0.345093	1.660345	-0.425864	99
Es	1.083998	0.338195	-0.218275	99
Es	0.419776	1.162699	1.432002	99
Es	-0.375662	-0.914133	0.054686	99
Es	-0.008242	0.977618	-0.254356	99
Es	-0.171006	1.026530	1.874771	99
Es	0.004309	2.144501	0.158220	99
Es	-1.055490	-0.823057	0.370511	99
Es	0.013202	-0.266074	0.064203	99
Es	0.025573	-2.460244	0.793352	99
Es	-1.094941	1.623743	-0.366963	99
Es	0.392827	0.401645	0.085886	99
Es	0.883192	-2.064038	0.506988	99
Es	1.058859	1.105503	1.829039	99
Es	0.369602	1.909644	1.046693	99
47
Properties=species:S:1:pos:R:3:Z:I:1 energy=-305.2762679844236 field_type=dipole dipole="0.000000 0.000000 0.000000" charge=0
C	-0.562998	-1.378086	-1.388218	6
C	-0.375748	-0.914016	0.054662	6
N	0.354282	-1.934146	0.810972	7
C	0.392852	0.401624	0.085882	6
C	-0.345168	1.660293	-0.425968	6
N	0.282672	2.430774	0.673082	7
C	0.419782	1.162584	1.432102	6
H	-1.138288	-0.643436	-1.962648	1
H	-1.104708	-2.329596	-1.429788	1
H	0.398912	-1.510746	-1.897478	1
H	-1.362088	-0.786286	0.515362	1
H	1.232322	-2.153026	0.340972	1
H	-0.180308	-2.802836	0.811822	1
H	1.397912	0.309944	-0.355668	1
H	-1.438758	1.622304	-0.355098	1
H	-0.071678	1.992184	-1.431848	1
H	1.184172	2.833774	0.415112	1
H	1.345482	1.072384	2.008101	1
H	-0.428648	0.966314	2.098652	1
Es	-0.156841	1.891663	-1.121009	99
Es	0.004092	2.144368	0.157924	99
Es	-1.055508	-0.822932	0.370497	99
Es	0.883348	-2.064020	0.507018	99
Es	-0.563003	-1.378085	-1.388238	99
Es	0.428560	0.697773	0.803269	99
Es	0.842155	2.639348	0.499912	99
Es	-0.008125	0.977456	-0.254244	99
Es	0.369634	1.909640	1.046532	99
Es	0.413064	-1.828590	1.136653	99
Es	0.025333	-2.460341	0.793752	99
Es	0.392826	0.401646	0.085887	99
Es	0.042513	-1.512362	0.463924	99
Es	0.354178	-1.934300	0.810440	99
Es	0.103237	-1.468460	-1.729296	99
Es	-0.473491	-1.148062	-0.687272	99
Es	0.419775	1.162700	1.432002	99
Es	-0.375663	-0.914132	0.054685	99
Es	-0.345094	1.660345	-0.425864	99
Es	1.084001	0.338253	-0.218306	99
Es	1.058964	1.105513	1.829025	99
Es	-0.171047	1.026497	1.874750	99
Es	0.013218	-0.266215	0.064172	99
Es	0.283052	2.430318	0.672800	99
Es	-1.094972	1.623843	-0.366831	99
Es	-0.957336	-0.873917	-1.778286	99
Es	0.087317	2.683743	0.819564	99
Es	-0.933023	-2.029822	-1.410702	99
47
Properties=species:S:1:pos:R:3:Z:I:1 energy=-305.2762679844236 field_type=dipole dipole="0.000000 0.000000 0.000000" charge=0
C	-0.562998	-1.378086	-1.388218	6
C	-0.375748	-0.914016	0.054662	6
N	0.354282	-1.934146	0.810972	7
C	0.392852	0.401624	0.085882	6
C	-0.345168	1.660293	-0.425968	6
N	0.282672	2.430774	0.673082	7
C	0.419782	1.162584	1.432102	6
H	-1.138288	-0.643436	-1.962648	1
H	-1.104708	-2.329596	-1.429788	1
H	0.398912	-1.510746	-1.897478	1
H	-1.362088	-0.786286	0.515362	1
H	1.232322	-2.153026	0.340972	1
H	-0.180308	-2.802836	0.811822	1
H	1.397912	0.309944	-0.355668	1
H	-1.438758	1.622304	-0.355098	1
H	-0.071678	1.992184	-1.431848	1
H	1.184172	2.833774	0.415112	1
H	1.345482	1.072384	2.008101	1
H	-0.428648	0.966314	2.098652	1
Es	-1.095042	1.623732	-0.366882	99
Es	0.392827	0.401645	0.085886	99
Es	0.883132	-2.064461	0.506924	99
Es	0.354176	-1.934340	0.810430	99
Es	-1.055557	-0.823036	0.370533	99
Es	1.084047	0.338102	-0.218292	99
Es	0.042338	-1.512127	0.463622	99
Es	0.283024	2.430316	0.672817	99
Es	-0.933111	-2.029815	-1.410643	99
Es	0.003891	2.144780	0.158124	99
Es	-0.563003	-1.378085	-1.388237	99
Es	0.103399	-1.468401	-1.729373	99
Es	1.058989	1.105488	1.828939	99
Es	-0.473577	-1.148087	-0.687325	99
Es	0.428595	0.697798	0.803291	99
Es	0.419776	1.162701	1.432001	99
Es	-0.156824	1.891549	-1.120963	99
Es	-0.345093	1.660346	-0.425862	99
Es	0.013251	-0.265991	0.064161	99
Es	0.369581	1.909415	1.046828	99
Es	-0.171120	1.026446	1.874787	99
Es	-0.957332	-0.873988	-1.778130	99
Es	-0.008146	0.977703	-0.254326	99
Es	0.025443	-2.460010	0.793821	99
Es	0.413286	-1.828630	1.136878	99
Es	0.087788	2.683600	0.819354	99
Es	0.842088	2.639352	0.499710	99
Es	-0.375662	-0.914134	0.054686	99
47
Properties=species:S:1:pos:R:3:Z:I:1 energy=-305.2762679844236 field_type=dipole dipole="0.000000 0.000000 0.000000" charge=0
C	-0.562998	-1.378086	-1.388218	6
C	-0.375748	-0.914016	0.054662	6
N	0.354282	-1.934146	0.810972	7
C	0.392852	0.401624	0.085882	6
C	-0.345168	1.660293	-0.425968	6
N	0.282672	2.430774	0.673082	7
C	0.419782	1.162584	1.432102	6
H	-1.138288	-0.643436	-1.962648	1
H	-1.104708	-2.329596	-1.429788	1
H	0.398912	-1.510746	-1.897478	1
H	-1.362088	-0.786286	0.515362	1
H	1.232322	-2.153026	0.340972	1
H	-0.180308	-2.802836	0.811822	1
H	1.397912	0.309944	-0.355668	1
H	-1.438758	1.622304	-0.355098	1
H	-0.071678	1.992184	-1.431848	1
H	1.184172	2.833774	0.415112	1
H	1.345482	1.072384	2.008101	1
H	-0.428648	0.966314	2.098652	1
Es	-0.345094	1.660346	-0.425863	99
Es	0.883026	-2.064376	0.506482	99
Es	-0.563003	-1.378085	-1.388238	99
Es	0.103379	-1.468473	-1.729357	99
Es	0.013247	-0.265949	0.064135	99
Es	-0.008144	0.977624	-0.254281	99
Es	0.088543	2.683541	0.819377	99
Es	0.369195	1.909590	1.046928	99
Es	1.059000	1.105531	1.828962	99
Es	-1.055544	-0.823061	0.370481	99
Es	0.003159	2.145092	0.158184	99
Es	-0.933153	-2.029776	-1.410662	99
Es	0.419776	1.162699	1.432002	99
Es	0.842355	2.638868	0.499557	99
Es	0.354177	-1.934323	0.810465	99
Es	0.025491	-2.460158	0.794549	99
Es	0.283055	2.430348	0.672808	99
Es	0.042037	-1.512266	0.463826	99
Es	-0.473552	-1.148081	-0.687286	99
Es	-0.156826	1.891580	-1.120931	99
Es	0.392827	0.401645	0.085886	99
Es	1.084045	0.338147	-0.218344	99
Es	-0.375662	-0.914134	0.054686	99
Es	-0.171066	1.026439	1.874786	99
Es	0.428581	0.697744	0.803268	99
Es	0.413653	-1.828468	1.136383	99
Es	-0.957282	-0.873949	-1.778158	99
Es	-1.095055	1.623771	-0.366885	99
47
Properties=species:S:1:pos:R:3:Z:I:1 energy=-305.2762679844236 field_type=dipole dipole="0.000000 0.000000 0.000000" charge=0
C	-0.562998	-1.378086	-1.388218	6
C	-0.375748	-0.914016	0.054662	6
N	0.354282	-1.934146	0.810972	7
C	0.392852	0.401624	0.085882	6
C	-0.345168	1.660293	-0.425968	6
N	0.282672	2.430774	0.673082	7
C	0.419782	1.162584	1.432102	6
H	-1.138288	-0.643436	-1.962648	1
H	-1.104708	-2.329596	-1.429788	1
H	0.398912	-1.510746	-1.897478	1
H	-1.362088	-0.786286	0.515362	1
H	1.232322	-2.153026	0.340972	1
H	-0.180308	-2.802836	0.811822	1
H	1.397912	0.309944	-0.355668	1
H	-1.438758	1.622304	-0.355098	1
H	-0.071678	1.992184	-1.431848	1
H	1.184172	2.833774	0.415112	1
H	1.345482	1.072384	2.008101	1
H	-0.428648	0.966314	2.098652	1
Es	0.088418	2.683087	0.819039	99
Es	0.042108	-1.511923	0.463644	99
Es	-0.563003	-1.378085	-1.388239	99
Es	-0.933236	-2.029724	-1.410611	99
Es	0.419776	1.162699	1.432003	99
Es	-1.095067	1.623702	-0.366885	99
Es	0.883263	-2.064448	0.507069	99
Es	0.413208	-1.828919	1.136561	99