45
Properties=species:S:1:pos:R:3:Z:I:1 energy=-288.07699163704604 field_type=dipole dipole="0.000000 0.000000 0.000000" charge=0
C	-0.249756	-2.186123	-0.089959	6
C	-0.876656	-0.817893	0.157381	6
N	-0.378816	0.228757	-0.745829	7
C	-1.148746	1.462507	-0.581129	6
C	1.067874	0.478547	-0.652909	6
C	1.533854	0.907237	0.676681	6
C	1.921004	1.256217	1.760011	6
H	-0.767196	-2.945513	0.505801	1
H	0.805804	-2.209053	0.197121	1
H	-0.331826	-2.474453	-1.143149	1
H	-0.746386	-0.540293	1.210491	1
H	-1.956726	-0.931913	-0.002269	1
H	-2.207566	1.283517	-0.800229	1
H	-0.813196	2.228367	-1.289429	1
H	-1.077816	1.872457	0.432451	1
H	1.345524	1.240347	-1.392879	1
H	1.618183	-0.417273	-0.962699	1
H	2.262444	1.564567	2.720551	1
Es	1.067792	0.478571	-0.652774	99
Es	-0.605374	-2.697489	0.319442	99
Es	1.439797	-0.123247	-0.837151	99
Es	1.533769	0.907161	0.676459	99
Es	1.631634	0.769256	1.371121	99
Es	-0.782778	-0.625331	0.882807	99
Es	-0.699552	0.771791	-0.640753	99
Es	1.252443	1.002029	-1.131275	99
Es	2.143824	1.457658	2.387057	99
Es	-0.876583	-0.817835	0.157272	99
Es	-0.546028	-1.499090	0.028315	99
Es	-0.426125	0.117317	-1.069619	99
Es	-1.870693	1.332924	-0.725486	99
Es	-0.378686	0.228976	-0.745215	99
Es	1.500107	1.361083	1.225525	99
Es	1.307643	0.704208	0.052053	99
Es	-0.249766	-2.186100	-0.089944	99
Es	-1.616301	-0.887383	0.044073	99
Es	2.059761	1.123631	1.089412	99
Es	1.921094	1.256301	1.760236	99
Es	-1.148677	1.462396	-0.581153	99
Es	-0.305923	-2.379328	-0.806366	99
Es	0.471446	-2.196597	0.103792	99
Es	-0.571649	-0.206300	-0.325186	99
Es	-1.098463	1.742239	0.116644	99
Es	0.261451	0.351483	-0.646635	99
Es	-0.909402	1.983927	-1.062621	99
45
Properties=species:S:1:pos:R:3:Z:I:1 energy=-288.07699163704604 field_type=dipole dipole="0.000000 0.000000 0.000000" charge=0
C	-0.249756	-2.186123	-0.089959	6
C	-0.876656	-0.817893	0.157381	6
N	-0.378816	0.228757	-0.745829	7
C	-1.148746	1.462507	-0.581129	6
C	1.067874	0.478547	-0.652909	6
C	1.533854	0.907237	0.676681	6
C	1.921004	1.256217	1.760011	6
H	-0.767196	-2.945513	0.505801	1
H	0.805804	-2.209053	0.197121	1
H	-0.331826	-2.474453	-1.143149	1
H	-0.746386	-0.540293	1.210491	1
H	-1.956726	-0.931913	-0.002269	1
H	-2.207566	1.283517	-0.800229	1
H	-0.813196	2.228367	-1.289429	1
H	-1.077816	1.872457	0.432451	1
H	1.345524	1.240347	-1.392879	1
H	1.618183	-0.417273	-0.962699	1
H	2.262444	1.564567	2.720551	1
Es	-0.249766	-2.186099	-0.089944	99
Es	1.067787	0.478571	-0.652771	99
Es	2.144416	1.457985	2.388427	99
Es	1.644903	0.767695	1.367386	99
Es	-0.604485	-2.694477	0.319611	99
Es	1.252157	0.999878	-1.131853	99
Es	-1.615540	-0.888355	0.042335	99
Es	-1.870168	1.332604	-0.727359	99
Es	1.438207	-0.121453	-0.837995	99
Es	1.492749	1.346745	1.232052	99
Es	-1.097967	1.743655	0.118954	99
Es	1.533769	0.907161	0.676452	99
Es	-0.546638	-1.499251	0.028306	99
Es	-0.429638	0.112254	-1.086209	99
Es	-1.148676	1.462394	-0.581154	99
Es	-0.909804	1.981638	-1.062467	99
Es	1.921084	1.256290	1.760240	99
Es	0.471122	-2.196149	0.105881	99
Es	-0.307031	-2.380625	-0.809565	99
Es	-0.568925	-0.199711	-0.322541	99
Es	2.053838	1.139525	1.086526	99
Es	0.257403	0.353342	-0.640448	99
Es	1.308580	0.704528	0.053266	99
Es	-0.695062	0.768274	-0.634762	99
Es	-0.782252	-0.625328	0.885607	99
Es	-0.378718	0.228995	-0.745220	99
Es	-0.876584	-0.817836	0.157273	99
45
Properties=species:S:1:pos:R:3:Z:I:1 energy=-288.07699163704604 field_type=dipole dipole="0.000000 0.000000 0.000000" charge=0
C	-0.249756	-2.186123	-0.089959	6
C	-0.876656	-0.817893	0.157381	6
N	-0.378816	0.228757	-0.745829	7
C	-1.148746	1.462507	-0.581129	6
C	1.067874	0.478547	-0.652909	6
C	1.533854	0.907237	0.676681	6
C	1.921004	1.256217	1.760011	6
H	-0.767196	-2.945513	0.505801	1
H	0.805804	-2.209053	0.197121	1
H	-0.331826	-2.474453	-1.143149	1
H	-0.746386	-0.540293	1.210491	1
H	-1.956726	-0.931913	-0.002269	1
H	-2.207566	1.283517	-0.800229	1
H	-0.813196	2.228367	-1.289429	1
H	-1.077816	1.872457	0.432451	1
H	1.345524	1.240347	-1.392879	1
H	1.618183	-0.417273	-0.962699	1
H	2.262444	1.564567	2.720551	1
Es	1.309764	0.704584	0.053530	99
Es	1.394312	1.133511	1.322756	99
Es	0.255462	0.354095	-0.637406	99
Es	1.251793	0.998816	-1.131991	99
Es	1.067784	0.478571	-0.652770	99
Es	1.437549	-0.120488	-0.838411	99
Es	1.921087	1.256293	1.760241	99
Es	1.533779	0.907154	0.676452	99
Es	-0.603812	-2.692741	0.319570	99
Es	1.879329	0.774300	1.284683	99
Es	-1.615145	-0.888705	0.041557	99
Es	-1.148676	1.462396	-0.581154	99
Es	-0.307832	-2.381224	-0.811171	99
Es	-0.692103	0.765415	-0.631304	99
Es	-0.378715	0.228975	-0.745265	99
Es	-0.567514	-0.196137	-0.321760	99
Es	1.917245	1.346435	1.078679	99
Es	-0.910065	1.980244	-1.062386	99
Es	-0.546855	-1.499607	0.028391	99
Es	-1.869848	1.332410	-0.728269	99
Es	2.144355	1.458028	2.389154	99
Es	-0.876580	-0.817834	0.157270	99
Es	-0.249765	-2.186101	-0.089945	99
Es	0.470835	-2.195886	0.106940	99
Es	-0.781772	-0.625291	0.886847	99
Es	-1.097503	1.744455	0.120042	99
Es	-0.432347	0.110580	-1.094254	99
45
Properties=species:S:1:pos:R:3:Z:I:1 energy=-288.07699163704604 field_type=dipole dipole="0.000000 0.000000 0.000000" charge=0
C	-0.249756	-2.186123	-0.089959	6
C	-0.876656	-0.817893	0.157381	6
N	-0.378816	0.228757	-0.745829	7
C	-1.148746	1.462507	-0.581129	6
C	1.067874	0.478547	-0.652909	6
C	1.533854	0.907237	0.676681	6
C	1.921004	1.256217	1.760011	6
H	-0.767196	-2.945513	0.505801	1
H	0.805804	-2.209053	0.197121	1
H	-0.331826	-2.474453	-1.143149	1
H	-0.746386	-0.540293	1.210491	1
H	-1.956726	-0.931913	-0.002269	1
H	-2.207566	1.283517	-0.800229	1
H	-0.813196	2.228367	-1.289429	1
H	-1.077816	1.872457	0.432451	1
H	1.345524	1.240347	-1.392879	1
H	1.618183	-0.417273	-0.962699	1
H	2.262444	1.564567	2.720551	1
Es	1.067783	0.478572	-0.652770	99
Es	1.921072	1.256289	1.760246	99
Es	-0.378687	0.228971	-0.745236	99
Es	-0.603370	-2.691361	0.319368	99
Es	0.253756	0.354841	-0.634564	99
Es	1.595973	1.404103	1.182872	99
Es	-0.433761	0.109363	-1.099254	99
Es	-0.781424	-0.625517	0.887677	99
Es	1.309462	0.705346	0.054008	99
Es	-0.910155	1.979187	-1.061994	99
Es	0.470936	-2.195607	0.107801	99
Es	-0.566662	-0.193242	-0.321394	99
Es	1.534698	0.829684	1.379473	99
Es	-1.869959	1.332217	-0.729059	99
Es	-1.148679	1.462399	-0.581153	99
Es	-1.097069	1.744981	0.120538	99
Es	1.436822	-0.119549	-0.838412	99
Es	2.145256	1.457662	2.389264	99
Es	-1.615084	-0.889416	0.040801	99
Es	-0.249766	-2.186099	-0.089945	99
Es	1.251819	0.998116	-1.132335	99
Es	-0.689937	0.763057	-0.630008	99
Es	-0.547114	-1.499434	0.028539	99
Es	1.533770	0.907166	0.676446	99
Es	-0.308575	-2.381672	-0.812024	99
Es	2.060237	1.020026	1.123871	99
Es	-0.876581	-0.817834	0.157273	99
45
Properties=species:S:1:pos:R:3:Z:I:1 energy=-288.07699163704604 field_type=dipole dipole="0.000000 0.000000 0.000000" charge=0
C	-0.249756	-2.186123	-0.089959	6
C	-0.876656	-0.817893	0.157381	6
N	-0.378816	0.228757	-0.745829	7
C	-1.148746	1.462507	-0.581129	6
C	1.067874	0.478547	-0.652909	6
C	1.533854	0.907237	0.676681	6
C	1.921004	1.256217	1.760011	6
H	-0.767196	-2.945513	0.505801	1
H	0.805804	-2.209053	0.197121	1
H	-0.331826	-2.474453	-1.143149	1
H	-0.746386	-0.540293	1.210491	1
H	-1.956726	-0.931913	-0.002269	1
H	-2.207566	1.283517	-0.800229	1
H	-0.813196	2.228367	-1.289429	1
H	-1.077816	1.872457	0.432451	1
H	1.345524	1.240347	-1.392879	1
H	1.618183	-0.417273	-0.962699	1
H	2.262444	1.564567	2.720551	1
Es	-1.148676	1.462397	-0.581154	99
Es	1.436575	-0.119203	-0.838601	99
Es	-0.435720	0.109114	-1.102584	99
Es	1.418324	1.228442	1.287844	99
Es	-0.308775	-2.382143	-0.812581	99
Es	1.533764	0.907155	0.676448	99
Es	1.251566	0.997475	-1.132284	99
Es	-0.781315	-0.625393	0.888145	99
Es	-0.547302	-1.499581	0.028521	99
Es	-1.614732	-0.889546	0.040502	99
Es	-0.602890	-2.690536	0.319175	99
Es	1.309877	0.704694	0.054429	99
Es	-1.096819	1.745292	0.121018	99
Es	0.470633	-2.195470	0.108332	99
Es	-0.688160	0.761041	-0.628254	99
Es	0.252936	0.355248	-0.633353	99
Es	-0.876584	-0.817836	0.157275	99
Es	1.986461	1.272460	1.072433	99
Es	-1.869767	1.332179	-0.729564	99
Es	1.786428	0.753075	1.325770	99
Es	1.921077	1.256298	1.760248	99
Es	1.067782	0.478574	-0.652766	99
Es	-0.378707	0.228950	-0.745274	99
Es	2.144733	1.458541	2.389426	99
Es	-0.565914	-0.191354	-0.321369	99
Es	-0.249767	-2.186099	-0.089945	99
Es	-0.910267	1.978475	-1.061810	99
45
Properties=species:S:1:pos:R:3:Z:I:1 energy=-288.07699163704604 field_type=dipole dipole="0.000000 0.000000 0.000000" charge=0
C	-0.249756	-2.186123	-0.089959	6
C	-0.876656	-0.817893	0.157381	6
N	-0.378816	0.228757	-0.745829	7
C	-1.148746	1.462507	-0.581129	6
C	1.067874	0.478547	-0.652909	6
C	1.533854	0.907237	0.676681	6
C	1.921004	1.256217	1.760011	6
H	-0.767196	-2.945513	0.505801	1
H	0.805804	-2.209053	0.197121	1
H	-0.331826	-2.474453	-1.143149	1
H	-0.746386	-0.540293	1.210491	1
H	-1.956726	-0.931913	-0.002269	1
H	-2.207566	1.283517	-0.800229	1
H	-0.813196	2.228367	-1.289429	1
H	-1.077816	1.872457	0.432451	1
H	1.345524	1.240347	-1.392879	1
H	1.618183	-0.417273	-0.962699	1
H	2.262444	1.564567	2.720551	1
Es	-0.249767	-2.186102	-0.089944	99
Es	-1.869911	1.332255	-0.730155	99
Es	2.035674	1.180829	1.080541	99
Es	1.921084	1.256290	1.760247	99
Es	1.067785	0.478570	-0.652769	99
Es	1.684139	0.758748	1.357719	99
Es	-0.309306	-2.382366	-0.812961	99
Es	-0.547466	-1.499636	0.028465	99
Es	-0.876583	-0.817836	0.157275	99
Es	-0.780926	-0.625579	0.888512	99
Es	0.470778	-2.195480	0.108937	99
Es	-0.687073	0.759445	-0.627924	99
Es	1.309853	0.705034	0.054664	99
Es	0.252165	0.355875	-0.631899	99
Es	-0.910197	1.977743	-1.061404	99
Es	-0.436834	0.108317	-1.104743	99
Es	-0.378678	0.228973	-0.745249	99
Es	-0.602614	-2.689596	0.318798	99
Es	-1.148676	1.462395	-0.581153	99
Es	1.251553	0.996997	-1.132325	99
Es	-0.565497	-0.189451	-0.321202	99
Es	1.533775	0.907159	0.676443	99
Es	-1.096450	1.745525	0.121293	99
Es	-1.614718	-0.889729	0.040215	99
Es	1.471185	1.314183	1.247919	99
Es	2.145274	1.458463	2.389391	99
Es	1.436191	-0.118774	-0.838663	99
45
Properties=species:S:1:pos:R:3:Z:I:1 energy=-288.07699163704604 field_type=dipole dipole="0.000000 0.000000 0.000000" charge=0
C	-0.249756	-2.186123	-0.089959	6
C	-0.876656	-0.817893	0.157381	6
N	-0.378816	0.228757	-0.745829	7
C	-1.148746	1.462507	-0.581129	6
C	1.067874	0.478547	-0.652909	6
C	1.533854	0.907237	0.676681	6
C	1.921004	1.256217	1.760011	6
H	-0.767196	-2.945513	0.505801	1
H	0.805804	-2.209053	0.197121	1
H	-0.331826	-2.474453	-1.143149	1
H	-0.746386	-0.540293	1.210491	1
H	-1.956726	-0.931913	-0.002269	1
H	-2.207566	1.283517	-0.800229	1
H	-0.813196	2.228367	-1.289429	1
H	-1.077816	1.872457	0.432451	1
H	1.345524	1.240347	-1.392879	1
H	1.618183	-0.417273	-0.962699	1
H	2.262444	1.564567	2.720551	1
Es	0.470748	-2.195419	0.109372	99
Es	1.475526	1.317556	1.245692	99
Es	-0.249766	-2.186098	-0.089943	99
Es	1.251418	0.996844	-1.132469	99
Es	-0.910343	1.977167	-1.061296	99
Es	-0.378691	0.228965	-0.745268	99
Es	1.309890	0.705041	0.054820	99
Es	-0.309568	-2.382645	-0.813221	99
Es	-1.148678	1.462397	-0.581154	99
Es	2.036436	1.176506	1.081567	99
Es	1.533761	0.907167	0.676446	99
Es	-1.096278	1.745856	0.121534	99
Es	-0.547573	-1.499588	0.028523	99
Es	-0.565031	-0.188376	-0.321449	99
Es	2.145409	1.458497	2.389452	99
Es	-0.686240	0.758288	-0.627286	99
Es	-0.437365	0.108036	-1.106538	99
Es	-0.876580	-0.817837	0.157272	99
Es	1.678980	0.759640	1.358956	99
Es	1.067786	0.478570	-0.652769	99
Es	-1.614601	-0.889973	0.039869	99
Es	-0.780849	-0.625549	0.888807	99
Es	-0.602379	-2.688934	0.318581	99
Es	0.251444	0.356136	-0.630534	99
Es	1.921087	1.256284	1.760250	99
Es	1.435968	-0.118426	-0.838695	99
Es	-1.869751	1.332141	-0.730493	99
45
Properties=species:S:1:pos:R:3:Z:I:1 energy=-288.07699163704604 field_type=dipole dipole="0.000000 0.000000 0.000000" charge=0
C	-0.249756	-2.186123	-0.089959	6
C	-0.876656	-0.817893	0.157381	6
N	-0.378816	0.228757	-0.745829	7
C	-1.148746	1.462507	-0.581129	6
C	1.067874	0.478547	-0.652909	6
C	1.533854	0.907237	0.676681	6
C	1.921004	1.256217	1.760011	6
H	-0.767196	-2.945513	0.505801	1
H	0.805804	-2.209053	0.197121	1
H	-0.331826	-2.474453	-1.143149	1
H	-0.746386	-0.540293	1.210491	1
H	-1.956726	-0.931913	-0.002269	1
H	-2.207566	1.283517	-0.800229	1
H	-0.813196	2.228367	-1.289429	1
H	-1.077816	1.872457	0.432451	1
H	1.345524	1.240347	-1.392879	1
H	1.618183	-0.417273	-0.962699	1
H	2.262444	1.564567	2.720551	1
Es	1.698844	1.422534	1.141145	99
Es	2.145257	1.457312	2.389968	99
Es	1.462740	0.908126	1.374056	99
Es	-0.309784	-2.382607	-0.813578	99
Es	-0.437777	0.108246	-1.108003	99
Es	2.028843	0.923554	1.171068	99
Es	1.310631	0.705516	0.054547	99
Es	-0.547546	-1.499902	0.028603	99
Es	0.470688	-2.195389	0.109867	99
Es	-0.685107	0.757234	-0.627160	99
Es	-0.564961	-0.187593	-0.320724	99
Es	-0.602250	-2.688386	0.318311	99
Es	-1.614371	-0.890125	0.039685	99
Es	1.251511	0.996709	-1.132841	99
Es	-0.910351	1.977172	-1.061395	99
Es	1.921087	1.256278	1.760250	99
Es	-0.780872	-0.625592	0.889064	99
Es	-1.148680	1.462400	-0.581153	99
Es	-0.876583	-0.817836	0.157273	99
Es	1.533756	0.907160	0.676446	99
Es	1.067784	0.478567	-0.652768	99
Es	-0.249766	-2.186100	-0.089945	99
Es	-1.869450	1.332057	-0.730607	99
Es	0.250681	0.356259	-0.630103	99
Es	1.435517	-0.118021	-0.838505	99
Es	-0.378700	0.228962	-0.745279	99
Es	-1.096379	1.745718	0.121806	99
45
Properties=species:S:1:pos:R:3:Z:I:1 energy=-288.07699163704604 field_type=dipole dipole="0.000000 0.000000 0.000000" charge=0
C	-0.249756	-2.186123	-0.089959	6
C	-0.876656	-0.817893	0.157381	6
N	-0.378816	0.228757	-0.745829	7
C	-1.148746	1.462507	-0.581129	6
C	1.067874	0.478547	-0.652909	6
C	1.533854	0.907237	0.676681	6
C	1.921004	1.256217	1.760011	6
H	-0.767196	-2.945513	0.505801	1
H	0.805804	-2.209053	0.197121	1
H	-0.331826	-2.474453	-1.143149	1
H	-0.746386	-0.540293	1.210491	1
H	-1.956726	-0.931913	-0.002269	1
H	-2.207566	1.283517	-0.800229	1
H	-0.813196	2.228367	-1.289429	1
H	-1.077816	1.872457	0.432451	1
H	1.345524	1.240347	-1.392879	1
H	1.618183	-0.417273	-0.962699	1
H	2.262444	1.564567	2.720551	1
Es	1.973192	1.287716	1.073232	99
Es	1.310526	0.704856	0.054928	99
Es	-1.148678	1.462396	-0.581154	99
Es	1.067782	0.478569	-0.652768	99
Es	1.417091	1.211427	1.292967	99
Es	-0.876584	-0.817836	0.157275	99
Es	-0.910372	1.976635	-1.061187	99
Es	1.800868	0.754728	1.319905	99
Es	1.921092	1.256287	1.760250	99
Es	-1.869511	1.332011	-0.730920	99
Es	0.250200	0.356223	-0.628795	99
Es	2.144668	1.458779	2.389804	99
Es	-0.378696	0.228947	-0.745267	99
Es	-1.614167	-0.890089	0.039541	99
Es	0.470427	-2.195308	0.109899	99
Es	1.251133	0.996364	-1.132510	99
Es	-0.684564	0.756444	-0.626467	99
Es	1.435747	-0.117954	-0.838787	99
Es	-0.547743	-1.499762	0.028545	99
Es	-0.780869	-0.625521	0.889227	99
Es	-0.601899	-2.688068	0.318321	99
Es	-0.438301	0.107854	-1.109204	99
Es	-0.249767	-2.186099	-0.089944	99
Es	-1.096165	1.746047	0.121875	99
Es	-0.309808	-2.383073	-0.813678	99
Es	1.533770	0.907160	0.676445	99
Es	-0.564611	-0.186485	-0.321505	99
45
Properties=species:S:1:pos:R:3:Z:I:1 energy=-288.07699163704604 field_type=dipole dipole="0.000000 0.000000 0.000000" charge=0
C	-0.249756	-2.186123	-0.089959	6
C	-0.876656	-0.817893	0.157381	6
N	-0.378816	0.228757	-0.745829	7
C	-1.148746	1.462507	-0.581129	6
C	1.067874	0.478547	-0.652909	6
C	1.533854	0.907237	0.676681	6
C	1.921004	1.256217	1.760011	6
H	-0.767196	-2.945513	0.505801	1
H	0.805804	-2.209053	0.197121	1
H	-0.331826	-2.474453	-1.143149	1
H	-0.746386	-0.540293	1.210491	1
H	-1.956726	-0.931913	-0.002269	1
H	-2.207566	1.283517	-0.800229	1
H	-0.813196	2.228367	-1.289429	1
H	-1.077816	1.872457	0.432451	1
H	1.345524	1.240347	-1.392879	1
H	1.618183	-0.417273	-0.962699	1
H	2.262444	1.564567	2.720551	1
Es	0.470299	-2.195358	0.110176	99
Es	-1.869271	1.332019	-0.731079	99
Es	1.311021	0.704907	0.054818	99
Es	-0.876574	-0.817836	0.157266	99
Es	1.435445	-0.118095	-0.838835	99
Es	-0.309895	-2.382918	-0.813951	99
Es	-0.601805	-2.687814	0.318121	99
Es	-0.910469	1.976471	-1.061146	99
Es	-0.378716	0.228974	-0.745242	99
Es	1.067784	0.478573	-0.652770	99
Es	-0.438678	0.107788	-1.110055	99
Es	-0.547738	-1.499794	0.028670	99
Es	-0.564236	-0.185952	-0.321214	99
Es	0.249790	0.356770	-0.628704	99
Es	2.144443	1.458310	2.390067	99
Es	-1.614005	-0.890223	0.039353	99
Es	1.896797	1.359647	1.082821	99
Es	-1.096135	1.746003	0.122133	99
Es	1.251181	0.996271	-1.132578	99
Es	-0.249768	-2.186099	-0.089943	99
Es	-0.780850	-0.625621	0.889451	99
Es	-1.148678	1.462396	-0.581153	99
Es	1.533759	0.907161	0.676447	99
Es	1.921090	1.256297	1.760246	99
Es	1.400935	1.110669	1.327323	99
Es	1.893118	0.783851	1.276012	99
Es	-0.684085	0.755850	-0.626202	99
45
Properties=species:S:1:pos:R:3:Z:I:1 energy=-288.07699163704604 field_type=dipole dipole="0.000000 0.000000 0.000000" charge=0
C	-0.249756	-2.186123	-0.089959	6
C	-0.876656	-0.817893	0.157381	6
N	-0.378816	0.228757	-0.745829	7
C	-1.148746	1.462507	-0.581129	6
C	1.067874	0.478547	-0.652909	6
C	1.533854	0.907237	0.676681	6
C	1.921004	1.256217	1.760011	6
H	-0.767196	-2.945513	0.505801	1
H	0.805804	-2.209053	0.197121	1
H	-0.331826	-2.474453	-1.143149	1
H	-0.746386	-0.540293	1.210491	1
H	-1.956726	-0.931913	-0.002269	1
H	-2.207566	1.283517	-0.800229	1
H	-0.813196	2.228367	-1.289429	1
H	-1.077816	1.872457	0.432451	1
H	1.345524	1.240347	-1.392879	1
H	1.618183	-0.417273	-0.962699	1
H	2.262444	1.564567	2.720551	1
Es	2.144453	1.458206	2.390141	99
Es	-1.148677	1.462395	-0.581153	99
Es	-1.096148	1.746115	0.122197	99
Es	1.921084	1.256285	1.760253	99
Es	1.251056	0.996160	-1.132691	99
Es	0.249193	0.356999	-0.627529	99
Es	-0.601534	-2.687302	0.317960	99
Es	-0.378709	0.228939	-0.745291	99
Es	-0.547960	-1.499924	0.028573	99
Es	0.470257	-2.195283	0.110431	99
Es	1.533758	0.907160	0.676447	99
Es	-0.910541	1.976329	-1.061150	99
Es	1.886403	1.366924	1.084810	99
Es	-0.780767	-0.625601	0.889556	99
Es	-0.564242	-0.185265	-0.321359	99
Es	-1.869150	1.331986	-0.731143	99
Es	1.067787	0.478570	-0.652769	99
Es	1.311096	0.705002	0.054861	99
Es	-0.876581	-0.817835	0.157272	99
Es	1.903016	0.789632	1.270208	99
Es	1.401426	1.097712	1.331094	99
Es	-0.310067	-2.383316	-0.814015	99
Es	-0.683427	0.754809	-0.626215	99
Es	-0.249766	-2.186100	-0.089945	99
Es	-0.438687	0.107790	-1.111055	99
Es	-1.613854	-0.890192	0.039362	99
Es	1.435340	-0.117945	-0.838819	99
45
Properties=species:S:1:pos:R:3:Z:I:1 energy=-288.07699163704604 field_type=dipole dipole="0.000000 0.000000 0.000000" charge=0
C	-0.249756	-2.186123	-0.089959	6
C	-0.876656	-0.817893	0.157381	6
N	-0.378816	0.228757	-0.745829	7
C	-1.148746	1.462507	-0.581129	6
C	1.067874	0.478547	-0.652909	6
C	1.533854	0.907237	0.676681	6
C	1.921004	1.256217	1.760011	6
H	-0.767196	-2.945513	0.505801	1
H	0.805804	-2.209053	0.197121	1
H	-0.331826	-2.474453	-1.143149	1
H	-0.746386	-0.540293	1.210491	1
H	-1.956726	-0.931913	-0.002269	1
H	-2.207566	1.283517	-0.800229	1
H	-0.813196	2.228367	-1.289429	1
H	-1.077816	1.872457	0.432451	1
H	1.345524	1.240347	-1.392879	1
H	1.618183	-0.417273	-0.962699	1
H	2.262444	1.564567	2.720551	1
Es	-0.910448	1.976106	-1.061066	99
Es	1.533762	0.907155	0.676445	99
Es	1.826604	1.397968	1.099473	99
Es	1.435073	-0.117775	-0.838620	99
Es	0.248725	0.357158	-0.627005	99
Es	-0.310087	-2.383248	-0.814173	99
Es	-0.876584	-0.817836	0.157275	99
Es	2.144527	1.457812	2.390276	99
Es	-0.780730	-0.625593	0.889673	99
Es	0.470306	-2.195330	0.110987	99
Es	1.311229	0.705236	0.054775	99
Es	-0.547962	-1.500008	0.028615	99
Es	-1.148676	1.462397	-0.581155	99
Es	-1.613806	-0.890419	0.039174	99
Es	-0.249767	-2.186099	-0.089945	99
Es	1.067787	0.478572	-0.652771	99
Es	-1.096083	1.746126	0.122315	99
Es	1.921083	1.256291	1.760250	99
Es	-0.438502	0.107815	-1.111671	99
Es	1.410132	1.031113	1.349240	99
Es	1.953881	0.825216	1.237491	99
Es	1.251174	0.996136	-1.132967	99
Es	-1.869118	1.331958	-0.731378	99
Es	-0.378705	0.228952	-0.745302	99
Es	-0.564251	-0.185035	-0.321287	99
Es	-0.683208	0.754480	-0.626208	99
Es	-0.601596	-2.686899	0.317585	99
45
Properties=species:S:1:pos:R:3:Z:I:1 energy=-288.07699163704604 field_type=dipole dipole="0.000000 0.000000 0.000000" charge=0
C	-0.249756	-2.186123	-0.089959	6
C	-0.876656	-0.817893	0.157381	6
N	-0.378816	0.228757	-0.745829	7
C	-1.148746	1.462507	-0.581129	6
C	1.067874	0.478547	-0.652909	6
C	1.533854	0.907237	0.676681	6
C	1.921004	1.256217	1.760011	6
H	-0.767196	-2.945513	0.505801	1
H	0.805804	-2.209053	0.197121	1
H	-0.331826	-2.474453	-1.143149	1
H	-0.746386	-0.540293	1.210491	1
H	-1.956726	-0.931913	-0.002269	1
H	-2.207566	1.283517	-0.800229	1
H	-0.813196	2.228367	-1.289429	1
H	-1.077816	1.872457	0.432451	1
H	1.345524	1.240347	-1.392879	1
H	1.618183	-0.417273	-0.962699	1
H	2.262444	1.564567	2.720551	1
Es	-0.876583	-0.817835	0.157273	99
Es	-1.148678	1.462397	-0.581153	99
Es	1.927137	1.335916	1.077542	99
Es	-1.095891	1.746310	0.122295	99
Es	-0.547989	-1.500144	0.028709	99
Es	-0.439532	0.107791	-1.112225	99
Es	2.144378	1.458559	2.390129	99
Es	-0.249766	-2.186099	-0.089945	99
Es	1.921083	1.256295	1.760249	99
Es	1.311125	0.704981	0.054978	99
Es	0.470260	-2.195283	0.110936	99
Es	1.533763	0.907158	0.676445	99
Es	1.435196	-0.117713	-0.838748	99
Es	0.248627	0.357417	-0.626601	99
Es	1.067785	0.478571	-0.652770	99
Es	-0.563808	-0.184388	-0.321661	99
Es	-1.869260	1.331925	-0.731599	99
Es	-0.378690	0.228941	-0.745277	99
Es	-0.682593	0.753556	-0.625743	99
Es	1.858047	0.768990	1.294313	99
Es	1.251035	0.995858	-1.132738	99
Es	-0.601219	-2.686593	0.317529	99
Es	-0.780841	-0.625397	0.889693	99
Es	1.405742	1.149177	1.314296	99
Es	-0.910508	1.975790	-1.060802	99
Es	-0.310347	-2.383594	-0.814185	99
Es	-1.613712	-0.890339	0.039089	99
45
Properties=species:S:1:pos:R:3:Z:I:1 energy=-288.07699163704604 field_type=dipole dipole="0.000000 0.000000 0.000000" charge=0
C	-0.249756	-2.186123	-0.089959	6
C	-0.876656	-0.817893	0.157381	6
N	-0.378816	0.228757	-0.745829	7
C	-1.148746	1.462507	-0.581129	6
C	1.067874	0.478547	-0.652909	6
C	1.533854	0.907237	0.676681	6
C	1.921004	1.256217	1.760011	6
H	-0.767196	-2.945513	0.505801	1
H	0.805804	-2.209053	0.197121	1
H	-0.331826	-2.474453	-1.143149	1
H	-0.746386	-0.540293	1.210491	1
H	-1.956726	-0.931913	-0.002269	1
H	-2.207566	1.283517	-0.800229	1
H	-0.813196	2.228367	-1.289429	1
H	-1.077816	1.872457	0.432451	1
H	1.345524	1.240347	-1.392879	1
H	1.618183	-0.417273	-0.962699	1
H	2.262444	1.564567	2.720551	1
Es	-0.780433	-0.625718	0.889839	99
Es	-1.095891	1.746150	0.122407	99
Es	-0.682003	0.752803	-0.625530	99
Es	1.921079	1.256297	1.760248	99
Es	-0.601260	-2.686117	0.317042	99
Es	1.434642	-0.117355	-0.838562	99
Es	1.067785	0.478574	-0.652770	99
Es	1.251212	0.996000	-1.133187	99
Es	2.022987	0.919619	1.174991	99
Es	-1.869196	1.332118	-0.731740	99
Es	-0.310644	-2.383374	-0.814287	99
Es	-0.439782	0.108704	-1.112818	99
Es	-0.876584	-0.817838	0.157274	99
Es	1.533764	0.907160	0.676444	99
Es	1.462195	0.911541	1.372988	99
Es	-0.378752	0.228947	-0.745303	99
Es	-0.548140	-1.500078	0.028703	99
Es	2.145066	1.457145	2.390343	99
Es	1.705191	1.423256	1.138274	99
Es	-0.249769	-2.186099	-0.089943	99
Es	-1.613832	-0.890581	0.039010	99
Es	0.248662	0.357348	-0.626096	99
Es	-0.564084	-0.184489	-0.321851	99
Es	1.311161	0.705500	0.054890	99
Es	0.470536	-2.195424	0.111495	99
Es	-0.910479	1.975763	-1.060676	99
Es	-1.148674	1.462396	-0.581155	99
45
Properties=species:S:1:pos:R:3:Z:I:1 energy=-288.07699163704604 field_type=dipole dipole="0.000000 0.000000 0.000000" charge=0
C	-0.249756	-2.186123	-0.089959	6
C	-0.876656	-0.817893	0.157381	6
N	-0.378816	0.228757	-0.745829	7
C	-1.148746	1.462507	-0.581129	6
C	1.067874	0.478547	-0.652909	6
C	1.533854	0.907237	0.676681	6
C	1.921004	1.256217	1.760011	6
H	-0.767196	-2.945513	0.505801	1
H	0.805804	-2.209053	0.197121	1
H	-0.331826	-2.474453	-1.143149	1
H	-0.746386	-0.540293	1.210491	1
H	-1.956726	-0.931913	-0.002269	1
H	-2.207566	1.283517	-0.800229	1
H	-0.813196	2.228367	-1.289429	1
H	-1.077816	1.872457	0.432451	1
H	1.345524	1.240347	-1.392879	1
H	1.618183	-0.417273	-0.962699	1
H	2.262444	1.564567	2.720551	1
Es	-0.910541	1.975331	-1.060546	99
Es	0.470260	-2.195109	0.111233	99
Es	-0.876584	-0.817836	0.157272	99
Es	1.921088	1.256293	1.760248	99
Es	-0.440266	0.107502	-1.112970	99
Es	-0.563349	-0.183458	-0.322039	99
Es	-0.378683	0.228955	-0.745274	99
Es	1.415869	1.191829	1.298845	99
Es	1.250878	0.995657	-1.132521	99
Es	-0.780668	-0.625512	0.889860	99
Es	-1.869229	1.331926	-0.731948	99
Es	1.067784	0.478572	-0.652769	99
Es	-0.249767	-2.186099	-0.089945	99
Es	-0.682117	0.752580	-0.625486	99
Es	-1.095700	1.746451	0.122439	99
Es	1.311126	0.704929	0.055121	99
Es	1.435141	-0.117669	-0.838990	99
Es	-0.310519	-2.383774	-0.814289	99
Es	1.817456	0.756679	1.313086	99
Es	1.957610	1.305436	1.074266	99
Es	0.248336	0.357958	-0.625793	99
Es	1.533767	0.907161	0.676445	99
Es	-1.148678	1.462397	-0.581153	99
Es	-0.548223	-1.500038	0.028720	99
Es	-1.613712	-0.890523	0.038844	99
Es	-0.600965	-2.686200	0.317306	99
Es	2.144444	1.458812	2.390068	99
45
Properties=species:S:1:pos:R:3:Z:I:1 energy=-288.07699163704604 field_type=dipole dipole="0.000000 0.000000 0.000000" charge=0
C	-0.249756	-2.186123	-0.089959	6
C	-0.876656	-0.817893	0.157381	6
N	-0.378816	0.228757	-0.745829	7
C	-1.148746	1.462507	-0.581129	6
C	1.067874	0.478547	-0.652909	6
C	1.533854	0.907237	0.676681	6
C	1.921004	1.256217	1.760011	6
H	-0.767196	-2.945513	0.505801	1
H	0.805804	-2.209053	0.197121	1
H	-0.331826	-2.474453	-1.143149	1
H	-0.746386	-0.540293	1.210491	1
H	-1.956726	-0.931913	-0.002269	1
H	-2.207566	1.283517	-0.800229	1
H	-0.813196	2.228367	-1.289429	1
H	-1.077816	1.872457	0.432451	1
H	1.345524	1.240347	-1.392879	1
H	1.618183	-0.417273	-0.962699	1
H	2.262444	1.564567	2.720551	1
Es	-0.563683	-0.183366	-0.321399	99
Es	0.247887	0.358099	-0.625409	99
Es	1.311240	0.705510	0.054912	99
Es	0.470338	-2.195345	0.111667	99
Es	-0.310656	-2.383523	-0.814437	99
Es	1.533768	0.907159	0.676443	99
Es	-1.148678	1.462395	-0.581153	99
Es	-1.869071	1.332051	-0.731926	99
Es	2.002658	0.883316	1.196613	99
Es	-0.910462	1.975526	-1.060651	99
Es	1.251165	0.995799	-1.133225	99
Es	1.921087	1.256289	1.760252	99
Es	-0.681630	0.751936	-0.625890	99
Es	-0.876581	-0.817835	0.157272	99
Es	2.144773	1.457231	2.390471	99
Es	-0.439850	0.107910	-1.113545	99
Es	1.440378	0.951015	1.366244	99
Es	-0.780441	-0.625747	0.889979	99
Es	-1.095862	1.746231	0.122533	99
Es	1.747409	1.420229	1.123332	99
Es	-0.601159	-2.685831	0.317030	99
Es	-0.249766	-2.186099	-0.089945	99
Es	1.067784	0.478567	-0.652767	99
Es	-1.613693	-0.890672	0.038836	99
Es	-0.548106	-1.500061	0.028643	99
Es	1.434596	-0.117457	-0.838509	99
Es	-0.378683	0.228920	-0.745343	99
45
Properties=species:S:1:pos:R:3:Z:I:1 energy=-288.07699163704604 field_type=dipole dipole="0.000000 0.000000 0.000000" charge=0
C	-0.249756	-2.186123	-0.089959	6
C	-0.876656	-0.817893	0.157381	6
N	-0.378816	0.228757	-0.745829	7
C	-1.148746	1.462507	-0.581129	6
C	1.067874	0.478547	-0.652909	6
C	1.533854	0.907237	0.676681	6
C	1.921004	1.256217	1.760011	6
H	-0.767196	-2.945513	0.505801	1
H	0.805804	-2.209053	0.197121	1
H	-0.331826	-2.474453	-1.143149	1
H	-0.746386	-0.540293	1.210491	1
H	-1.956726	-0.931913	-0.002269	1
H	-2.207566	1.283517	-0.800229	1
H	-0.813196	2.228367	-1.289429	1
H	-1.077816	1.872457	0.432451	1
H	1.345524	1.240347	-1.392879	1
H	1.618183	-0.417273	-0.962699	1
H	2.262444	1.564567	2.720551	1
Es	-0.310998	-2.383850	-0.814321	99
Es	1.310864	0.705475	0.055144	99
Es	-0.249767	-2.186098	-0.089945	99
Es	-0.910416	1.975020	-1.060285	99
Es	-1.148679	1.462399	-0.581153	99
Es	-0.440507	0.108094	-1.113792	99
Es	-0.876583	-0.817837	0.157275	99
Es	1.560230	1.386805	1.199225	99
Es	-0.681124	0.751355	-0.625924	99
Es	1.434540	-0.117076	-0.838400	99
Es	-0.780309	-0.625631	0.889912	99
Es	2.050023	1.068448	1.111173	99
Es	-0.563953	-0.182859	-0.322194	99
Es	1.580007	0.798664	1.376034	99
Es	-1.613976	-0.891052	0.038615	99
Es	1.067790	0.478567	-0.652771	99
Es	-0.600998	-2.685344	0.316784	99
Es	1.251246	0.995567	-1.133223	99
Es	0.470617	-2.195263	0.111933	99
Es	1.921091	1.256300	1.760247	99
Es	-0.378693	0.228965	-0.745311	99
Es	-1.095499	1.746465	0.122441	99
Es	-1.869415	1.331892	-0.732290	99
Es	-0.548080	-1.499882	0.028728	99
Es	1.533761	0.907161	0.676444	99
Es	2.145580	1.457962	2.389964	99
Es	0.248006	0.358002	-0.624278	99
45
Properties=species:S:1:pos:R:3:Z:I:1 energy=-288.07699163704604 field_type=dipole dipole="0.000000 0.000000 0.000000" charge=0
C	-0.249756	-2.186123	-0.089959	6
C	-0.876656	-0.817893	0.157381	6
N	-0.378816	0.228757	-0.745829	7
C	-1.148746	1.462507	-0.581129	6
C	1.067874	0.478547	-0.652909	6
C	1.533854	0.907237	0.676681	6
C	1.921004	1.256217	1.760011	6
H	-0.767196	-2.945513	0.505801	1
H	0.805804	-2.209053	0.197121	1
H	-0.331826	-2.474453	-1.143149	1
H	-0.746386	-0.540293	1.210491	1
H	-1.956726	-0.931913	-0.002269	1
H	-2.207566	1.283517	-0.800229	1
H	-0.813196	2.228367	-1.289429	1
H	-1.077816	1.872457	0.432451	1
H	1.345524	1.240347	-1.392879	1
H	1.618183	-0.417273	-0.962699	1
H	2.262444	1.564567	2.720551	1
Es	-0.378728	0.228976	-0.745327	99
Es	0.247926	0.358185	-0.624705	99
Es	1.598524	1.405656	1.180861	99
Es	1.311088	0.705603	0.055062	99
Es	0.470539	-2.195291	0.112180	99
Es	-0.600963	-2.685121	0.316620	99
Es	1.067784	0.478572	-0.652769	99
Es	-1.613905	-0.890984	0.038544	99
Es	-0.548148	-1.500017	0.028701	99
Es	1.251235	0.995594	-1.133271	99
Es	-0.680708	0.750812	-0.625478	99
Es	2.145521	1.457725	2.390058	99
Es	-0.780236	-0.625731	0.890019	99
Es	1.543184	0.824675	1.378366	99
Es	-0.910429	1.974984	-1.060244	99
Es	-1.095526	1.746460	0.122484	99
Es	-0.249766	-2.186099	-0.089945	99
Es	1.434436	-0.116978	-0.838433	99
Es	-0.563510	-0.182773	-0.321912	99
Es	-0.311031	-2.383798	-0.814447	99
Es	1.921085	1.256294	1.760247	99
Es	-0.876582	-0.817835	0.157273	99
Es	-0.441174	0.108268	-1.114069	99
Es	1.533758	0.907165	0.676444	99
Es	-1.869362	1.331936	-0.732347	99
Es	2.048425	1.023576	1.127268	99
Es	-1.148677	1.462396	-0.581153	99
45
Properties=species:S:1:pos:R:3:Z:I:1 energy=-288.07699163704604 field_type=dipole dipole="0.000000 0.000000 0.000000" charge=0
C	-0.249756	-2.186123	-0.089959	6
C	-0.876656	-0.817893	0.157381	6
N	-0.378816	0.228757	-0.745829	7
C	-1.148746	1.462507	-0.581129	6
C	1.067874	0.478547	-0.652909	6
C	1.533854	0.907237	0.676681	6
C	1.921004	1.256217	1.760011	6