48
Properties=species:S:1:pos:R:3:Z:I:1 energy=-289.2975337297573 field_type=dipole dipole="0.000000 0.000000 0.000000" charge=0
C	-2.825525	-0.074224	0.647761	6
C	-1.325905	0.136367	0.795561	6
N	-0.626215	-0.545503	-0.290928	7
C	0.831205	-0.474913	-0.168339	6
C	1.445555	-1.400303	-1.221828	6
C	1.345585	0.927157	-0.370288	6
C	2.055235	1.608297	0.539791	6
H	-3.358915	0.441846	1.452561	1
H	-3.082825	-1.137414	0.700232	1
H	-3.190835	0.321717	-0.305779	1
H	-1.007615	-0.261754	1.765801	1
H	-1.121145	1.212567	0.784052	1
H	-0.918895	-0.168743	-1.190258	1
H	1.130105	-0.857574	0.816082	1
H	1.175745	-1.096413	-2.240579	1
H	1.108335	-2.433513	-1.079558	1
H	2.539575	-1.398504	-1.152878	1
H	1.123905	1.404137	-1.322489	1
H	2.303565	1.179337	1.505912	1
H	2.399065	2.617436	0.335172	1
Es	-1.325881	0.136286	0.795446	99
Es	-3.068766	0.198800	-0.008090	99
Es	-2.081949	0.029438	0.717550	99
Es	1.184753	1.240799	-1.023724	99
Es	1.143987	-0.928653	-0.704319	99
Es	-1.186054	0.880916	0.790057	99
Es	1.432921	1.396508	0.219856	99
Es	-3.187275	0.281808	1.198123	99
Es	-0.626054	-0.544922	-0.290937	99
Es	1.445555	-1.400281	-1.221826	99
Es	2.292974	2.293981	0.408379	99
Es	1.985656	1.154704	-0.030921	99
Es	-0.791405	-0.287618	-0.829899	99
Es	-2.825512	-0.074206	0.647763	99
Es	1.215749	-2.098971	-1.121971	99
Es	2.055292	1.608350	0.539865	99
Es	-1.099952	-0.139214	1.458521	99
Es	1.032856	-0.726268	0.509810	99
Es	0.008844	-0.471667	-0.237825	99
Es	-2.999659	-0.796839	0.683989	99
Es	1.095218	0.243094	-0.268819	99
Es	1.255266	-1.182709	-1.915496	99
Es	-0.715659	-0.884280	-0.281753	99
Es	-0.910560	-0.219286	0.172788	99
Es	2.226450	1.320181	1.197607	99
Es	2.191368	-1.393300	-1.172796	99
Es	1.345528	0.927112	-0.370360	99
Es	0.831101	-0.474888	-0.168405	99
48
Properties=species:S:1:pos:R:3:Z:I:1 energy=-289.2975337297573 field_type=dipole dipole="0.000000 0.000000 0.000000" charge=0
C	-2.825525	-0.074224	0.647761	6
C	-1.325905	0.136367	0.795561	6
N	-0.626215	-0.545503	-0.290928	7
C	0.831205	-0.474913	-0.168339	6
C	1.445555	-1.400303	-1.221828	6
C	1.345585	0.927157	-0.370288	6
C	2.055235	1.608297	0.539791	6
H	-3.358915	0.441846	1.452561	1
H	-3.082825	-1.137414	0.700232	1
H	-3.190835	0.321717	-0.305779	1
H	-1.007615	-0.261754	1.765801	1
H	-1.121145	1.212567	0.784052	1
H	-0.918895	-0.168743	-1.190258	1
H	1.130105	-0.857574	0.816082	1
H	1.175745	-1.096413	-2.240579	1
H	1.108335	-2.433513	-1.079558	1
H	2.539575	-1.398504	-1.152878	1
H	1.123905	1.404137	-1.322489	1
H	2.303565	1.179337	1.505912	1
H	2.399065	2.617436	0.335172	1
Es	2.055298	1.608348	0.539862	99
Es	1.986114	1.154648	-0.031094	99
Es	-2.999705	-0.796506	0.684435	99
Es	-3.187038	0.281297	1.197695	99
Es	1.254829	-1.182650	-1.916347	99
Es	1.144093	-0.928665	-0.704190	99
Es	2.292598	2.293560	0.408480	99
Es	2.191164	-1.393548	-1.172555	99
Es	1.432689	1.396538	0.220047	99
Es	-2.082066	0.029634	0.717880	99
Es	1.345526	0.927112	-0.370360	99
Es	-1.185752	0.880617	0.789884	99
Es	0.831101	-0.474887	-0.168405	99
Es	1.095176	0.243298	-0.269211	99
Es	1.184685	1.240841	-1.023826	99
Es	0.008765	-0.469606	-0.238403	99
Es	-0.794281	-0.292318	-0.833094	99
Es	-0.713402	-0.883228	-0.276544	99
Es	-1.099564	-0.139467	1.458735	99
Es	2.226548	1.320307	1.198009	99
Es	-0.626029	-0.544849	-0.290927	99
Es	-1.325883	0.136287	0.795454	99
Es	-0.909972	-0.217515	0.171178	99
Es	-3.069126	0.198994	-0.008733	99
Es	1.032908	-0.726427	0.510281	99
Es	-2.825513	-0.074205	0.647762	99
Es	1.445554	-1.400278	-1.221824	99
Es	1.216078	-2.098455	-1.121580	99
48
Properties=species:S:1:pos:R:3:Z:I:1 energy=-289.2975337297573 field_type=dipole dipole="0.000000 0.000000 0.000000" charge=0
C	-2.825525	-0.074224	0.647761	6
C	-1.325905	0.136367	0.795561	6
N	-0.626215	-0.545503	-0.290928	7
C	0.831205	-0.474913	-0.168339	6
C	1.445555	-1.400303	-1.221828	6
C	1.345585	0.927157	-0.370288	6
C	2.055235	1.608297	0.539791	6
H	-3.358915	0.441846	1.452561	1
H	-3.082825	-1.137414	0.700232	1
H	-3.190835	0.321717	-0.305779	1
H	-1.007615	-0.261754	1.765801	1
H	-1.121145	1.212567	0.784052	1
H	-0.918895	-0.168743	-1.190258	1
H	1.130105	-0.857574	0.816082	1
H	1.175745	-1.096413	-2.240579	1
H	1.108335	-2.433513	-1.079558	1
H	2.539575	-1.398504	-1.152878	1
H	1.123905	1.404137	-1.322489	1
H	2.303565	1.179337	1.505912	1
H	2.399065	2.617436	0.335172	1
Es	2.292365	2.293363	0.408620	99
Es	-2.825513	-0.074205	0.647762	99
Es	2.190880	-1.393955	-1.172514	99
Es	1.095129	0.243366	-0.269525	99
Es	0.831100	-0.474888	-0.168405	99
Es	-1.099321	-0.139627	1.458748	99
Es	-0.796732	-0.296317	-0.835619	99
Es	1.254534	-1.182660	-1.917003	99
Es	-3.069531	0.199026	-0.009048	99
Es	-3.186841	0.280894	1.197181	99
Es	-2.082075	0.029915	0.718073	99
Es	1.032904	-0.726470	0.510622	99
Es	-0.711355	-0.881672	-0.272544	99
Es	1.432399	1.396789	0.220333	99
Es	-1.325881	0.136285	0.795450	99
Es	1.144402	-0.928503	-0.703994	99
Es	-0.626066	-0.544933	-0.290892	99
Es	1.445554	-1.400279	-1.221824	99
Es	-0.909392	-0.216349	0.170007	99
Es	-1.185583	0.880505	0.789852	99
Es	0.008709	-0.468056	-0.238826	99
Es	1.986355	1.154552	-0.031293	99
Es	1.345526	0.927111	-0.370362	99
Es	-2.999687	-0.796435	0.684863	99
Es	2.055292	1.608352	0.539869	99
Es	2.226586	1.320375	1.198160	99
Es	1.216240	-2.097994	-1.121255	99
Es	1.184796	1.240686	-1.023824	99
48
Properties=species:S:1:pos:R:3:Z:I:1 energy=-289.2975337297573 field_type=dipole dipole="0.000000 0.000000 0.000000" charge=0
C	-2.825525	-0.074224	0.647761	6
C	-1.325905	0.136367	0.795561	6
N	-0.626215	-0.545503	-0.290928	7
C	0.831205	-0.474913	-0.168339	6
C	1.445555	-1.400303	-1.221828	6
C	1.345585	0.927157	-0.370288	6
C	2.055235	1.608297	0.539791	6
H	-3.358915	0.441846	1.452561	1
H	-3.082825	-1.137414	0.700232	1
H	-3.190835	0.321717	-0.305779	1
H	-1.007615	-0.261754	1.765801	1
H	-1.121145	1.212567	0.784052	1
H	-0.918895	-0.168743	-1.190258	1
H	1.130105	-0.857574	0.816082	1
H	1.175745	-1.096413	-2.240579	1
H	1.108335	-2.433513	-1.079558	1
H	2.539575	-1.398504	-1.152878	1
H	1.123905	1.404137	-1.322489	1
H	2.303565	1.179337	1.505912	1
H	2.399065	2.617436	0.335172	1
Es	-2.825513	-0.074206	0.647762	99
Es	-0.908714	-0.214785	0.168492	99
Es	-1.325880	0.136285	0.795449	99
Es	1.032784	-0.726426	0.510804	99
Es	-3.069710	0.199207	-0.009048	99
Es	1.432198	1.396868	0.220452	99
Es	2.190762	-1.393968	-1.172515	99
Es	1.216517	-2.097754	-1.120998	99
Es	-0.626046	-0.544882	-0.290905	99
Es	-3.186827	0.280443	1.196718	99
Es	1.184956	1.240499	-1.023584	99
Es	1.445552	-1.400278	-1.221824	99
Es	0.831099	-0.474887	-0.168404	99
Es	-2.999781	-0.796473	0.684865	99
Es	1.986871	1.154489	-0.031515	99
Es	-0.799429	-0.301626	-0.838143	99
Es	2.291968	2.293324	0.408691	99
Es	2.055298	1.608351	0.539867	99
Es	-1.099001	-0.139601	1.458772	99
Es	1.095091	0.243269	-0.269790	99
Es	1.144550	-0.928484	-0.703905	99
Es	2.226413	1.320665	1.198368	99
Es	-1.185431	0.880396	0.789623	99
Es	1.254245	-1.182827	-1.917375	99
Es	0.008313	-0.465967	-0.239489	99
Es	-0.709000	-0.880018	-0.267833	99
Es	-2.082022	0.030158	0.718439	99
Es	1.345530	0.927108	-0.370364	99
48
Properties=species:S:1:pos:R:3:Z:I:1 energy=-289.2975337297573 field_type=dipole dipole="0.000000 0.000000 0.000000" charge=0
C	-2.825525	-0.074224	0.647761	6
C	-1.325905	0.136367	0.795561	6
N	-0.626215	-0.545503	-0.290928	7
C	0.831205	-0.474913	-0.168339	6
C	1.445555	-1.400303	-1.221828	6
C	1.345585	0.927157	-0.370288	6
C	2.055235	1.608297	0.539791	6
H	-3.358915	0.441846	1.452561	1
H	-3.082825	-1.137414	0.700232	1
H	-3.190835	0.321717	-0.305779	1
H	-1.007615	-0.261754	1.765801	1
H	-1.121145	1.212567	0.784052	1
H	-0.918895	-0.168743	-1.190258	1
H	1.130105	-0.857574	0.816082	1
H	1.175745	-1.096413	-2.240579	1
H	1.108335	-2.433513	-1.079558	1
H	2.539575	-1.398504	-1.152878	1
H	1.123905	1.404137	-1.322489	1
H	2.303565	1.179337	1.505912	1
H	2.399065	2.617436	0.335172	1
Es	-2.825512	-0.074206	0.647762	99
Es	-3.186783	0.280103	1.196214	99
Es	1.095147	0.243424	-0.269894	99
Es	1.445553	-1.400280	-1.221824	99
Es	2.055297	1.608352	0.539868	99
Es	-3.069771	0.199389	-0.009057	99
Es	-1.098882	-0.139734	1.458627	99
Es	-0.626037	-0.544896	-0.290915	99
Es	-0.908096	-0.213566	0.167401	99
Es	-0.801831	-0.306616	-0.840428	99
Es	-2.999821	-0.796706	0.684927	99
Es	2.291911	2.293315	0.408767	99
Es	-0.706982	-0.877303	-0.263978	99
Es	1.185046	1.240374	-1.023670	99
Es	1.032686	-0.726379	0.510905	99
Es	-1.185188	0.880426	0.789631	99
Es	1.431933	1.396892	0.220658	99
Es	1.254166	-1.182908	-1.917775	99
Es	-1.325880	0.136285	0.795449	99
Es	1.345534	0.927104	-0.370368	99
Es	1.216728	-2.097628	-1.120816	99
Es	2.226421	1.320724	1.198321	99
Es	0.831097	-0.474886	-0.168405	99
Es	-2.082177	0.030392	0.718626	99
Es	0.008185	-0.464769	-0.239747	99
Es	2.190369	-1.394121	-1.172560	99
Es	1.144744	-0.928351	-0.703640	99
Es	1.986938	1.154447	-0.031469	99
48
Properties=species:S:1:pos:R:3:Z:I:1 energy=-289.2975337297573 field_type=dipole dipole="0.000000 0.000000 0.000000" charge=0
C	-2.825525	-0.074224	0.647761	6
C	-1.325905	0.136367	0.795561	6
N	-0.626215	-0.545503	-0.290928	7
C	0.831205	-0.474913	-0.168339	6
C	1.445555	-1.400303	-1.221828	6
C	1.345585	0.927157	-0.370288	6
C	2.055235	1.608297	0.539791	6
H	-3.358915	0.441846	1.452561	1
H	-3.082825	-1.137414	0.700232	1
H	-3.190835	0.321717	-0.305779	1
H	-1.007615	-0.261754	1.765801	1
H	-1.121145	1.212567	0.784052	1
H	-0.918895	-0.168743	-1.190258	1
H	1.130105	-0.857574	0.816082	1
H	1.175745	-1.096413	-2.240579	1
H	1.108335	-2.433513	-1.079558	1
H	2.539575	-1.398504	-1.152878	1
H	1.123905	1.404137	-1.322489	1
H	2.303565	1.179337	1.505912	1
H	2.399065	2.617436	0.335172	1
Es	-0.907745	-0.212719	0.166448	99
Es	1.216941	-2.097575	-1.120492	99
Es	1.445555	-1.400280	-1.221826	99
Es	2.055295	1.608350	0.539871	99
Es	-0.804869	-0.313043	-0.842659	99
Es	-2.825511	-0.074205	0.647762	99
Es	-1.098716	-0.139789	1.458446	99
Es	-0.704139	-0.873153	-0.260212	99
Es	1.095112	0.243322	-0.270143	99
Es	1.987166	1.154458	-0.031651	99
Es	-3.186775	0.279767	1.195533	99
Es	1.431856	1.396956	0.220762	99
Es	1.032600	-0.726371	0.511014	99
Es	0.008096	-0.463242	-0.240176	99
Es	1.145078	-0.928025	-0.703265	99
Es	-3.069880	0.199422	-0.009049	99
Es	0.831101	-0.474887	-0.168404	99
Es	-0.626035	-0.544965	-0.290880	99
Es	2.291605	2.293319	0.408743	99
Es	-2.082135	0.030649	0.719001	99
Es	2.226403	1.320976	1.198416	99
Es	-1.325881	0.136286	0.795450	99
Es	1.345527	0.927110	-0.370362	99
Es	1.254028	-1.183084	-1.918122	99
Es	-2.999869	-0.796932	0.685097	99
Es	1.185178	1.240265	-1.023397	99
Es	2.189840	-1.394291	-1.172840	99
Es	-1.185036	0.880561	0.789546	99
48
Properties=species:S:1:pos:R:3:Z:I:1 energy=-289.2975337297573 field_type=dipole dipole="0.000000 0.000000 0.000000" charge=0
C	-2.825525	-0.074224	0.647761	6
C	-1.325905	0.136367	0.795561	6
N	-0.626215	-0.545503	-0.290928	7
C	0.831205	-0.474913	-0.168339	6
C	1.445555	-1.400303	-1.221828	6
C	1.345585	0.927157	-0.370288	6
C	2.055235	1.608297	0.539791	6
H	-3.358915	0.441846	1.452561	1
H	-3.082825	-1.137414	0.700232	1
H	-3.190835	0.321717	-0.305779	1
H	-1.007615	-0.261754	1.765801	1
H	-1.121145	1.212567	0.784052	1
H	-0.918895	-0.168743	-1.190258	1
H	1.130105	-0.857574	0.816082	1
H	1.175745	-1.096413	-2.240579	1
H	1.108335	-2.433513	-1.079558	1
H	2.539575	-1.398504	-1.152878	1
H	1.123905	1.404137	-1.322489	1
H	2.303565	1.179337	1.505912	1
H	2.399065	2.617436	0.335172	1
Es	2.189379	-1.394510	-1.173144	99
Es	-1.184784	0.880766	0.789694	99
Es	-0.701236	-0.868771	-0.256479	99
Es	-1.098757	-0.140051	1.458200	99
Es	0.007826	-0.461383	-0.240396	99
Es	-2.082002	0.030888	0.719435	99
Es	-1.325880	0.136286	0.795450	99
Es	-3.186741	0.279331	1.194728	99
Es	1.145478	-0.927789	-0.702957	99
Es	2.226165	1.320990	1.198392	99
Es	1.217100	-2.097486	-1.120282	99
Es	1.032424	-0.726411	0.511020	99
Es	1.431851	1.396926	0.220781	99
Es	1.987239	1.154473	-0.031637	99
Es	1.345529	0.927109	-0.370362	99
Es	-0.907321	-0.211760	0.165164	99
Es	1.185357	1.240222	-1.023231	99
Es	-2.825511	-0.074206	0.647762	99
Es	1.253862	-1.183202	-1.918390	99
Es	2.291543	2.293497	0.408849	99
Es	-0.807772	-0.320156	-0.844630	99
Es	1.445553	-1.400279	-1.221825	99
Es	-3.069882	0.199614	-0.009023	99
Es	1.095087	0.243335	-0.270239	99
Es	-3.000077	-0.797126	0.685159	99
Es	-0.626033	-0.544895	-0.290891	99
Es	2.055296	1.608353	0.539868	99
Es	0.831100	-0.474887	-0.168404	99
48
Properties=species:S:1:pos:R:3:Z:I:1 energy=-289.2975337297573 field_type=dipole dipole="0.000000 0.000000 0.000000" charge=0
C	-2.825525	-0.074224	0.647761	6
C	-1.325905	0.136367	0.795561	6
N	-0.626215	-0.545503	-0.290928	7
C	0.831205	-0.474913	-0.168339	6
C	1.445555	-1.400303	-1.221828	6
C	1.345585	0.927157	-0.370288	6
C	2.055235	1.608297	0.539791	6
H	-3.358915	0.441846	1.452561	1
H	-3.082825	-1.137414	0.700232	1
H	-3.190835	0.321717	-0.305779	1
H	-1.007615	-0.261754	1.765801	1
H	-1.121145	1.212567	0.784052	1
H	-0.918895	-0.168743	-1.190258	1
H	1.130105	-0.857574	0.816082	1
H	1.175745	-1.096413	-2.240579	1
H	1.108335	-2.433513	-1.079558	1
H	2.539575	-1.398504	-1.152878	1
H	1.123905	1.404137	-1.322489	1
H	2.303565	1.179337	1.505912	1
H	2.399065	2.617436	0.335172	1
Es	-0.907203	-0.211498	0.163984	99
Es	-3.069841	0.199837	-0.008875	99
Es	0.007802	-0.459688	-0.240238	99
Es	-2.081870	0.031368	0.720040	99
Es	-1.098818	-0.140295	1.457936	99
Es	-1.184494	0.880985	0.789805	99
Es	1.145933	-0.927464	-0.702643	99
Es	1.253789	-1.183323	-1.918658	99
Es	-3.000219	-0.797447	0.685086	99
Es	1.431947	1.397139	0.220983	99
Es	1.345527	0.927109	-0.370363	99
Es	-1.325879	0.136285	0.795449	99
Es	2.291426	2.293553	0.408923	99
Es	1.032327	-0.726417	0.511033	99
Es	-2.825512	-0.074206	0.647762	99
Es	1.986996	1.154346	-0.031748	99
Es	-0.698412	-0.863589	-0.253625	99
Es	1.445551	-1.400279	-1.221824	99
Es	-3.186768	0.278801	1.193864	99
Es	2.055298	1.608354	0.539866	99
Es	1.217249	-2.097489	-1.120015	99
Es	0.831102	-0.474887	-0.168404	99
Es	-0.810591	-0.327238	-0.846189	99
Es	-0.626046	-0.544877	-0.290895	99
Es	2.188719	-1.394747	-1.173507	99
Es	1.185664	1.240265	-1.023044	99
Es	1.095030	0.243232	-0.270474	99
Es	2.226089	1.321047	1.198384	99
48
Properties=species:S:1:pos:R:3:Z:I:1 energy=-289.2975337297573 field_type=dipole dipole="0.000000 0.000000 0.000000" charge=0
C	-2.825525	-0.074224	0.647761	6
C	-1.325905	0.136367	0.795561	6
N	-0.626215	-0.545503	-0.290928	7
C	0.831205	-0.474913	-0.168339	6
C	1.445555	-1.400303	-1.221828	6
C	1.345585	0.927157	-0.370288	6
C	2.055235	1.608297	0.539791	6
H	-3.358915	0.441846	1.452561	1
H	-3.082825	-1.137414	0.700232	1
H	-3.190835	0.321717	-0.305779	1
H	-1.007615	-0.261754	1.765801	1
H	-1.121145	1.212567	0.784052	1
H	-0.918895	-0.168743	-1.190258	1
H	1.130105	-0.857574	0.816082	1
H	1.175745	-1.096413	-2.240579	1
H	1.108335	-2.433513	-1.079558	1
H	2.539575	-1.398504	-1.152878	1
H	1.123905	1.404137	-1.322489	1
H	2.303565	1.179337	1.505912	1
H	2.399065	2.617436	0.335172	1
Es	-0.626024	-0.544856	-0.290898	99
Es	1.432034	1.396991	0.220961	99
Es	2.291350	2.293749	0.409044	99
Es	-0.812825	-0.333744	-0.847135	99
Es	2.055300	1.608351	0.539866	99
Es	0.831104	-0.474888	-0.168404	99
Es	1.032183	-0.726484	0.511078	99
Es	-1.098839	-0.140451	1.457779	99
Es	1.217490	-2.097395	-1.119763	99
Es	-2.081811	0.031816	0.720636	99
Es	1.987007	1.154406	-0.031691	99
Es	-1.325880	0.136286	0.795451	99
Es	2.225890	1.321013	1.198339	99
Es	0.007550	-0.458501	-0.240485	99
Es	-3.186784	0.278206	1.192907	99
Es	1.185858	1.240376	-1.022855	99
Es	-3.000282	-0.797700	0.685096	99
Es	-0.906829	-0.210700	0.163250	99
Es	2.188161	-1.394925	-1.173924	99
Es	1.146287	-0.927200	-0.702200	99
Es	1.094999	0.243229	-0.270739	99
Es	1.445553	-1.400278	-1.221824	99
Es	-3.069815	0.200016	-0.008843	99
Es	-0.696141	-0.858933	-0.251387	99
Es	-1.184323	0.881138	0.789847	99
Es	-2.825511	-0.074210	0.647762	99
Es	1.345529	0.927109	-0.370363	99
Es	1.253565	-1.183542	-1.918894	99
48
Properties=species:S:1:pos:R:3:Z:I:1 energy=-289.2975337297573 field_type=dipole dipole="0.000000 0.000000 0.000000" charge=0
C	-2.825525	-0.074224	0.647761	6
C	-1.325905	0.136367	0.795561	6
N	-0.626215	-0.545503	-0.290928	7
C	0.831205	-0.474913	-0.168339	6
C	1.445555	-1.400303	-1.221828	6
C	1.345585	0.927157	-0.370288	6
C	2.055235	1.608297	0.539791	6
H	-3.358915	0.441846	1.452561	1
H	-3.082825	-1.137414	0.700232	1
H	-3.190835	0.321717	-0.305779	1
H	-1.007615	-0.261754	1.765801	1
H	-1.121145	1.212567	0.784052	1
H	-0.918895	-0.168743	-1.190258	1
H	1.130105	-0.857574	0.816082	1
H	1.175745	-1.096413	-2.240579	1
H	1.108335	-2.433513	-1.079558	1
H	2.539575	-1.398504	-1.152878	1
H	1.123905	1.404137	-1.322489	1
H	2.303565	1.179337	1.505912	1
H	2.399065	2.617436	0.335172	1
Es	-3.000481	-0.797915	0.685131	99
Es	-0.906611	-0.210662	0.161808	99
Es	2.055296	1.608353	0.539868	99
Es	-0.626051	-0.544916	-0.290890	99
Es	1.094958	0.243177	-0.270810	99
Es	2.187484	-1.395053	-1.174221	99
Es	1.186086	1.240351	-1.022721	99
Es	-0.694208	-0.853131	-0.249487	99
Es	-1.325881	0.136286	0.795452	99
Es	-2.081751	0.031987	0.721101	99
Es	1.253607	-1.183423	-1.919009	99
Es	0.008054	-0.457071	-0.239465	99
Es	1.217546	-2.097611	-1.119701	99
Es	1.146454	-0.927134	-0.702218	99
Es	1.986769	1.154412	-0.031718	99
Es	-0.815040	-0.340693	-0.847918	99
Es	1.432146	1.397097	0.221030	99
Es	0.831104	-0.474886	-0.168404	99
Es	-1.184154	0.881328	0.789874	99
Es	-1.098915	-0.140564	1.457608	99
Es	1.345528	0.927109	-0.370363	99
Es	-2.825512	-0.074205	0.647761	99
Es	1.032146	-0.726601	0.511061	99
Es	-3.069662	0.200142	-0.008830	99
Es	-3.186743	0.277873	1.192103	99
Es	2.225816	1.321041	1.198322	99
Es	1.445553	-1.400279	-1.221825	99
Es	2.291257	2.293866	0.409071	99
48
Properties=species:S:1:pos:R:3:Z:I:1 energy=-289.2975337297573 field_type=dipole dipole="0.000000 0.000000 0.000000" charge=0
C	-2.825525	-0.074224	0.647761	6
C	-1.325905	0.136367	0.795561	6
N	-0.626215	-0.545503	-0.290928	7
C	0.831205	-0.474913	-0.168339	6
C	1.445555	-1.400303	-1.221828	6
C	1.345585	0.927157	-0.370288	6
C	2.055235	1.608297	0.539791	6
H	-3.358915	0.441846	1.452561	1
H	-3.082825	-1.137414	0.700232	1
H	-3.190835	0.321717	-0.305779	1
H	-1.007615	-0.261754	1.765801	1
H	-1.121145	1.212567	0.784052	1
H	-0.918895	-0.168743	-1.190258	1
H	1.130105	-0.857574	0.816082	1
H	1.175745	-1.096413	-2.240579	1
H	1.108335	-2.433513	-1.079558	1
H	2.539575	-1.398504	-1.152878	1
H	1.123905	1.404137	-1.322489	1
H	2.303565	1.179337	1.505912	1
H	2.399065	2.617436	0.335172	1
Es	-3.000475	-0.798233	0.685018	99
Es	1.186113	1.240414	-1.022630	99
Es	1.253699	-1.183255	-1.919081	99
Es	1.095047	0.243266	-0.270848	99
Es	-1.098964	-0.140792	1.457472	99
Es	-0.691908	-0.847522	-0.248338	99
Es	2.055292	1.608354	0.539869	99
Es	1.445553	-1.400275	-1.221821	99
Es	1.345527	0.927106	-0.370368	99
Es	0.831103	-0.474887	-0.168404	99
Es	-3.186703	0.277073	1.191024	99
Es	1.217456	-2.097770	-1.119692	99
Es	1.147255	-0.926679	-0.701540	99
Es	2.291146	2.294021	0.409142	99
Es	-2.081661	0.032634	0.721798	99
Es	1.986837	1.154502	-0.031693	99
Es	-0.626033	-0.544867	-0.290900	99
Es	1.432278	1.396906	0.220969	99
Es	0.007728	-0.456259	-0.239901	99
Es	-0.906328	-0.210147	0.161579	99
Es	-0.817259	-0.347519	-0.848189	99
Es	-3.069695	0.200376	-0.008671	99
Es	-2.825512	-0.074206	0.647761	99
Es	-1.184026	0.881532	0.789945	99
Es	1.031994	-0.726723	0.511035	99
Es	2.225650	1.321014	1.198344	99
Es	2.186561	-1.395473	-1.174720	99
Es	-1.325881	0.136287	0.795452	99
48
Properties=species:S:1:pos:R:3:Z:I:1 energy=-289.2975337297573 field_type=dipole dipole="0.000000 0.000000 0.000000" charge=0
C	-2.825525	-0.074224	0.647761	6
C	-1.325905	0.136367	0.795561	6
N	-0.626215	-0.545503	-0.290928	7
C	0.831205	-0.474913	-0.168339	6
C	1.445555	-1.400303	-1.221828	6
C	1.345585	0.927157	-0.370288	6
C	2.055235	1.608297	0.539791	6
H	-3.358915	0.441846	1.452561	1
H	-3.082825	-1.137414	0.700232	1
H	-3.190835	0.321717	-0.305779	1
H	-1.007615	-0.261754	1.765801	1
H	-1.121145	1.212567	0.784052	1
H	-0.918895	-0.168743	-1.190258	1
H	1.130105	-0.857574	0.816082	1
H	1.175745	-1.096413	-2.240579	1
H	1.108335	-2.433513	-1.079558	1
H	2.539575	-1.398504	-1.152878	1
H	1.123905	1.404137	-1.322489	1
H	2.303565	1.179337	1.505912	1
H	2.399065	2.617436	0.335172	1
Es	1.434837	1.395643	0.220240	99
Es	-0.822390	-0.366006	-0.847651	99
Es	2.224910	1.319582	1.197314	99
Es	0.008718	-0.455202	-0.238680	99
Es	-0.655679	-0.681349	-0.271498	99
Es	1.031345	-0.727961	0.510104	99
Es	-3.068943	0.202293	-0.007409	99
Es	1.216147	-2.101378	-1.120266	99
Es	-1.099783	-0.141979	1.456724	99
Es	1.096019	0.243527	-0.270572	99
Es	-0.657380	-0.693087	-0.267433	99
Es	2.183298	-1.395102	-1.175754	99
Es	1.984287	1.155830	-0.030988	99
Es	-1.183651	0.883212	0.790321	99
Es	-1.325882	0.136287	0.795452	99
Es	-2.825512	-0.074205	0.647761	99
Es	1.345528	0.927109	-0.370363	99
Es	-3.001448	-0.800726	0.684624	99
Es	1.148556	-0.926096	-0.700841	99
Es	1.255621	-1.180979	-1.917633	99
Es	0.831102	-0.474888	-0.168404	99
Es	1.186452	1.241236	-1.022283	99
Es	1.445553	-1.400279	-1.221827	99
Es	-0.906661	-0.210496	0.160756	99
Es	-3.185258	0.275962	1.188453	99
Es	2.055292	1.608355	0.539869	99
Es	2.291376	2.296140	0.409689	99
Es	-2.081661	0.033434	0.722902	99
48
Properties=species:S:1:pos:R:3:Z:I:1 energy=-289.2975337297573 field_type=dipole dipole="0.000000 0.000000 0.000000" charge=0
C	-2.825525	-0.074224	0.647761	6
C	-1.325905	0.136367	0.795561	6
N	-0.626215	-0.545503	-0.290928	7
C	0.831205	-0.474913	-0.168339	6
C	1.445555	-1.400303	-1.221828	6
C	1.345585	0.927157	-0.370288	6
C	2.055235	1.608297	0.539791	6
H	-3.358915	0.441846	1.452561	1
H	-3.082825	-1.137414	0.700232	1
H	-3.190835	0.321717	-0.305779	1
H	-1.007615	-0.261754	1.765801	1
H	-1.121145	1.212567	0.784052	1
H	-0.918895	-0.168743	-1.190258	1
H	1.130105	-0.857574	0.816082	1
H	1.175745	-1.096413	-2.240579	1
H	1.108335	-2.433513	-1.079558	1
H	2.539575	-1.398504	-1.152878	1
H	1.123905	1.404137	-1.322489	1
H	2.303565	1.179337	1.505912	1
H	2.399065	2.617436	0.335172	1
Es	-1.325880	0.136287	0.795450	99
Es	2.225616	1.320937	1.198287	99
Es	1.445552	-1.400279	-1.221825	99
Es	1.986477	1.154586	-0.031680	99
Es	1.094884	0.243039	-0.271351	99
Es	-2.825511	-0.074206	0.647761	99
Es	1.253438	-1.183596	-1.919498	99
Es	0.831103	-0.474887	-0.168404	99
Es	1.345530	0.927110	-0.370364	99
Es	-3.186569	0.275836	1.189107	99
Es	0.008369	-0.454082	-0.238366	99
Es	-0.906211	-0.210594	0.159000	99
Es	-2.081614	0.033825	0.723568	99
Es	2.184424	-1.396283	-1.175923	99
Es	-3.069625	0.200603	-0.008656	99
Es	-0.626058	-0.544924	-0.290916	99
Es	-3.000520	-0.798542	0.684973	99
Es	1.031911	-0.726727	0.511147	99
Es	2.055296	1.608353	0.539868	99
Es	2.291032	2.294198	0.409218	99
Es	-0.689525	-0.838491	-0.246882	99
Es	-1.099105	-0.141084	1.457142	99
Es	-1.183737	0.881798	0.790150	99
Es	1.148849	-0.925922	-0.700636	99
Es	1.217729	-2.097599	-1.119232	99
Es	1.186491	1.240579	-1.022279	99
Es	1.432470	1.396897	0.221064	99
Es	-0.820023	-0.357956	-0.848111	99
