43
Properties=species:S:1:pos:R:3:Z:I:1 energy=-270.94399524612396 field_type=dipole dipole="0.000000 0.000000 0.000000" charge=0
C	-1.638201	-1.611799	-0.451494	6
C	-0.783901	-1.339719	0.543716	6
C	0.471999	-0.488479	0.492696	6
C	1.017119	-0.107479	-0.900564	6
C	0.598999	1.318061	-1.064704	6
C	0.181999	1.847291	0.089196	6
C	0.245519	0.859521	1.210546	6
H	-2.507231	-2.238939	-0.274244	1
H	-1.519921	-1.211929	-1.452464	1
H	-1.001771	-1.768799	1.521996	1
H	1.243879	-1.062789	1.022316	1
H	0.642709	-0.739559	-1.709334	1
H	2.112099	-0.163129	-0.914784	1
H	0.663619	1.855241	-2.000784	1
H	-0.140501	2.871581	0.215576	1
H	1.087879	1.102341	1.867926	1
H	-0.674291	0.878591	1.804406	1
Es	1.760470	-0.139250	-0.905241	99
Es	0.599037	1.317992	-1.064812	99
Es	0.346645	0.169912	0.866416	99
Es	0.245528	0.859515	1.210507	99
Es	0.821020	1.026951	1.652129	99
Es	-0.038958	2.543086	0.187020	99
Es	-0.923267	-1.624861	1.215611	99
Es	0.685642	1.688431	-0.429428	99
Es	0.181966	1.847329	0.089323	99
Es	0.759584	-0.536361	-1.448374	99
Es	-0.167922	-0.910788	0.491734	99
Es	-1.042123	-1.746391	-0.048674	99
Es	-1.558388	-1.344961	-1.133139	99
Es	0.992929	-0.885643	0.857176	99
Es	1.017098	-0.107454	-0.900538	99
Es	0.735073	-0.318614	-0.215016	99
Es	-1.393965	-1.215174	0.109707	99
Es	-2.229613	-2.036251	-0.336880	99
Es	-1.638269	-1.611811	-0.451568	99
Es	-0.379091	0.868573	1.614931	99
Es	0.196614	1.377019	0.669498	99
Es	0.471947	-0.488472	0.492678	99
Es	0.647378	1.674724	-1.707758	99
Es	0.809376	0.604688	-1.021039	99
Es	-0.783815	-1.339686	0.543793	99
Es	0.075661	1.507796	-0.567138	99
43
Properties=species:S:1:pos:R:3:Z:I:1 energy=-270.94399524612396 field_type=dipole dipole="0.000000 0.000000 0.000000" charge=0
C	-1.638201	-1.611799	-0.451494	6
C	-0.783901	-1.339719	0.543716	6
C	0.471999	-0.488479	0.492696	6
C	1.017119	-0.107479	-0.900564	6
C	0.598999	1.318061	-1.064704	6
C	0.181999	1.847291	0.089196	6
C	0.245519	0.859521	1.210546	6
H	-2.507231	-2.238939	-0.274244	1
H	-1.519921	-1.211929	-1.452464	1
H	-1.001771	-1.768799	1.521996	1
H	1.243879	-1.062789	1.022316	1
H	0.642709	-0.739559	-1.709334	1
H	2.112099	-0.163129	-0.914784	1
H	0.663619	1.855241	-2.000784	1
H	-0.140501	2.871581	0.215576	1
H	1.087879	1.102341	1.867926	1
H	-0.674291	0.878591	1.804406	1
Es	0.992099	-0.885869	0.857025	99
Es	0.599042	1.317993	-1.064813	99
Es	0.245525	0.859517	1.210506	99
Es	-0.168097	-0.910696	0.492727	99
Es	0.644506	1.672629	-1.708732	99
Es	1.017102	-0.107451	-0.900539	99
Es	0.198356	1.376812	0.671200	99
Es	-0.037206	2.542252	0.188016	99
Es	0.822292	1.027973	1.653467	99
Es	-1.394695	-1.212216	0.109726	99
Es	-1.557406	-1.347931	-1.134622	99
Es	-0.379433	0.869069	1.613418	99
Es	-2.227540	-2.035847	-0.337444	99
Es	-0.783814	-1.339679	0.543798	99
Es	0.345773	0.170647	0.866065	99
Es	-0.924357	-1.622506	1.216429	99
Es	-1.042163	-1.748676	-0.048298	99
Es	0.735424	-0.317746	-0.215454	99
Es	-1.638264	-1.611817	-0.451568	99
Es	0.809324	0.603449	-1.020135	99
Es	0.758350	-0.537308	-1.451057	99
Es	0.073102	1.506074	-0.567337	99
Es	0.471947	-0.488474	0.492680	99
Es	0.181971	1.847329	0.089320	99
Es	1.759841	-0.137477	-0.904663	99
Es	0.688876	1.690250	-0.428795	99
43
Properties=species:S:1:pos:R:3:Z:I:1 energy=-270.94399524612396 field_type=dipole dipole="0.000000 0.000000 0.000000" charge=0
C	-1.638201	-1.611799	-0.451494	6
C	-0.783901	-1.339719	0.543716	6
C	0.471999	-0.488479	0.492696	6
C	1.017119	-0.107479	-0.900564	6
C	0.598999	1.318061	-1.064704	6
C	0.181999	1.847291	0.089196	6
C	0.245519	0.859521	1.210546	6
H	-2.507231	-2.238939	-0.274244	1
H	-1.519921	-1.211929	-1.452464	1
H	-1.001771	-1.768799	1.521996	1
H	1.243879	-1.062789	1.022316	1
H	0.642709	-0.739559	-1.709334	1
H	2.112099	-0.163129	-0.914784	1
H	0.663619	1.855241	-2.000784	1
H	-0.140501	2.871581	0.215576	1
H	1.087879	1.102341	1.867926	1
H	-0.674291	0.878591	1.804406	1
Es	0.642902	1.671295	-1.709500	99
Es	0.735295	-0.317036	-0.215819	99
Es	0.809529	0.602193	-1.019262	99
Es	0.345106	0.171180	0.865648	99
Es	-1.556961	-1.349744	-1.135744	99
Es	-0.379665	0.869293	1.612367	99
Es	-1.638260	-1.611822	-0.451575	99
Es	0.181961	1.847337	0.089320	99
Es	-1.042313	-1.750047	-0.047948	99
Es	0.823148	1.028697	1.654319	99
Es	0.690629	1.691084	-0.428507	99
Es	0.245525	0.859517	1.210505	99
Es	0.757449	-0.537336	-1.452817	99
Es	-0.168046	-0.910713	0.493257	99
Es	-0.924892	-1.621116	1.217081	99
Es	0.471947	-0.488472	0.492681	99
Es	0.599040	1.317991	-1.064812	99
Es	-1.395160	-1.210538	0.109682	99
Es	0.991483	-0.886072	0.856955	99
Es	-2.225929	-2.035107	-0.337609	99
Es	-0.036401	2.541695	0.188516	99
Es	-0.783813	-1.339684	0.543799	99
Es	1.017102	-0.107451	-0.900538	99
Es	0.071628	1.504807	-0.567177	99
Es	0.199626	1.376470	0.672576	99
Es	1.759626	-0.136120	-0.904479	99
43
Properties=species:S:1:pos:R:3:Z:I:1 energy=-270.94399524612396 field_type=dipole dipole="0.000000 0.000000 0.000000" charge=0
C	-1.638201	-1.611799	-0.451494	6
C	-0.783901	-1.339719	0.543716	6
C	0.471999	-0.488479	0.492696	6
C	1.017119	-0.107479	-0.900564	6
C	0.598999	1.318061	-1.064704	6
C	0.181999	1.847291	0.089196	6
C	0.245519	0.859521	1.210546	6
H	-2.507231	-2.238939	-0.274244	1
H	-1.519921	-1.211929	-1.452464	1
H	-1.001771	-1.768799	1.521996	1
H	1.243879	-1.062789	1.022316	1
H	0.642709	-0.739559	-1.709334	1
H	2.112099	-0.163129	-0.914784	1
H	0.663619	1.855241	-2.000784	1
H	-0.140501	2.871581	0.215576	1
H	1.087879	1.102341	1.867926	1
H	-0.674291	0.878591	1.804406	1
Es	-0.925094	-1.620122	1.217615	99
Es	0.245526	0.859517	1.210507	99
Es	0.471948	-0.488472	0.492679	99
Es	0.641856	1.670205	-1.710175	99
Es	1.017101	-0.107446	-0.900542	99
Es	-0.035842	2.541182	0.188852	99
Es	0.823663	1.029162	1.654954	99
Es	0.344537	0.171644	0.865116	99
Es	0.809778	0.601090	-1.018483	99
Es	-2.224395	-2.034462	-0.337601	99
Es	0.181961	1.847328	0.089319	99
Es	0.756812	-0.537117	-1.454090	99
Es	-1.395711	-1.209076	0.109649	99
Es	-1.042161	-1.751028	-0.047860	99
Es	1.759563	-0.135083	-0.904269	99
Es	-1.556974	-1.351160	-1.136603	99
Es	-0.783813	-1.339679	0.543797	99
Es	0.734827	-0.316407	-0.216119	99
Es	0.991081	-0.886298	0.856863	99
Es	0.599045	1.317995	-1.064813	99
Es	0.691894	1.691691	-0.428373	99
Es	-0.168102	-0.910847	0.493635	99
Es	-0.379934	0.869606	1.611501	99
Es	0.200678	1.376017	0.673910	99
Es	-1.638251	-1.611825	-0.451565	99
Es	0.070566	1.503889	-0.566987	99
43
Properties=species:S:1:pos:R:3:Z:I:1 energy=-270.94399524612396 field_type=dipole dipole="0.000000 0.000000 0.000000" charge=0
C	-1.638201	-1.611799	-0.451494	6
C	-0.783901	-1.339719	0.543716	6
C	0.471999	-0.488479	0.492696	6
C	1.017119	-0.107479	-0.900564	6
C	0.598999	1.318061	-1.064704	6
C	0.181999	1.847291	0.089196	6
C	0.245519	0.859521	1.210546	6
H	-2.507231	-2.238939	-0.274244	1
H	-1.519921	-1.211929	-1.452464	1
H	-1.001771	-1.768799	1.521996	1
H	1.243879	-1.062789	1.022316	1
H	0.642709	-0.739559	-1.709334	1
H	2.112099	-0.163129	-0.914784	1
H	0.663619	1.855241	-2.000784	1
H	-0.140501	2.871581	0.215576	1
H	1.087879	1.102341	1.867926	1
H	-0.674291	0.878591	1.804406	1
Es	-1.557348	-1.352061	-1.137297	99
Es	0.599037	1.317993	-1.064816	99
Es	0.810148	0.600113	-1.017928	99
Es	0.823971	1.029592	1.655551	99
Es	1.759458	-0.134386	-0.903987	99
Es	0.201360	1.375614	0.675376	99
Es	-0.167865	-0.910876	0.494119	99
Es	-0.035506	2.540774	0.188994	99
Es	1.017102	-0.107451	-0.900538	99
Es	-0.783810	-1.339682	0.543797	99
Es	-1.042010	-1.752049	-0.047839	99
Es	-2.223074	-2.033559	-0.337521	99
Es	0.181967	1.847339	0.089321	99
Es	0.990884	-0.886465	0.856827	99
Es	0.756359	-0.536901	-1.455061	99
Es	-1.638262	-1.611818	-0.451574	99
Es	0.245526	0.859519	1.210507	99
Es	0.069918	1.503190	-0.566772	99
Es	0.692973	1.692098	-0.428281	99
Es	-0.380055	0.869817	1.610693	99
Es	0.471947	-0.488472	0.492680	99
Es	-1.396009	-1.208128	0.109704	99
Es	0.344053	0.172115	0.864236	99
Es	0.641017	1.669228	-1.710684	99
Es	-0.925281	-1.619473	1.217896	99
Es	0.734060	-0.315769	-0.216485	99
43
Properties=species:S:1:pos:R:3:Z:I:1 energy=-270.94399524612396 field_type=dipole dipole="0.000000 0.000000 0.000000" charge=0
C	-1.638201	-1.611799	-0.451494	6
C	-0.783901	-1.339719	0.543716	6
C	0.471999	-0.488479	0.492696	6
C	1.017119	-0.107479	-0.900564	6
C	0.598999	1.318061	-1.064704	6
C	0.181999	1.847291	0.089196	6
C	0.245519	0.859521	1.210546	6
H	-2.507231	-2.238939	-0.274244	1
H	-1.519921	-1.211929	-1.452464	1
H	-1.001771	-1.768799	1.521996	1
H	1.243879	-1.062789	1.022316	1
H	0.642709	-0.739559	-1.709334	1
H	2.112099	-0.163129	-0.914784	1
H	0.663619	1.855241	-2.000784	1
H	-0.140501	2.871581	0.215576	1
H	1.087879	1.102341	1.867926	1
H	-0.674291	0.878591	1.804406	1
Es	-1.638261	-1.611823	-0.451574	99
Es	0.755853	-0.536555	-1.455727	99
Es	0.824157	1.029935	1.656056	99
Es	-0.783816	-1.339674	0.543799	99
Es	-2.221807	-2.032933	-0.337418	99
Es	0.599046	1.317999	-1.064807	99
Es	-0.167921	-0.911159	0.494140	99
Es	-0.035288	2.540442	0.189163	99
Es	1.017102	-0.107451	-0.900539	99
Es	-1.041941	-1.752541	-0.047688	99
Es	0.181961	1.847333	0.089322	99
Es	0.471947	-0.488472	0.492680	99
Es	-0.925005	-1.618826	1.218349	99
Es	1.759448	-0.133822	-0.903966	99
Es	0.810429	0.599271	-1.017271	99
Es	0.069359	1.502619	-0.566594	99
Es	0.245525	0.859516	1.210507	99
Es	0.343609	0.172467	0.863476	99
Es	0.733573	-0.315186	-0.216647	99
Es	0.990694	-0.886518	0.856820	99
Es	0.202235	1.375127	0.676600	99
Es	-1.557584	-1.353097	-1.137918	99
Es	0.693648	1.692520	-0.428297	99
Es	0.640441	1.668261	-1.711211	99
Es	-0.380245	0.870067	1.609963	99
Es	-1.396603	-1.207197	0.109700	99
43
Properties=species:S:1:pos:R:3:Z:I:1 energy=-270.94399524612396 field_type=dipole dipole="0.000000 0.000000 0.000000" charge=0
C	-1.638201	-1.611799	-0.451494	6
C	-0.783901	-1.339719	0.543716	6
C	0.471999	-0.488479	0.492696	6
C	1.017119	-0.107479	-0.900564	6
C	0.598999	1.318061	-1.064704	6
C	0.181999	1.847291	0.089196	6
C	0.245519	0.859521	1.210546	6
H	-2.507231	-2.238939	-0.274244	1
H	-1.519921	-1.211929	-1.452464	1
H	-1.001771	-1.768799	1.521996	1
H	1.243879	-1.062789	1.022316	1
H	0.642709	-0.739559	-1.709334	1
H	2.112099	-0.163129	-0.914784	1
H	0.663619	1.855241	-2.000784	1
H	-0.140501	2.871581	0.215576	1
H	1.087879	1.102341	1.867926	1
H	-0.674291	0.878591	1.804406	1
Es	0.639887	1.667721	-1.711522	99
Es	0.343315	0.172996	0.862628	99
Es	-1.396796	-1.206606	0.109765	99
Es	0.755553	-0.536213	-1.456345	99
Es	0.810723	0.598426	-1.016916	99
Es	0.203084	1.374616	0.677736	99
Es	0.599036	1.317991	-1.064814	99
Es	1.017100	-0.107448	-0.900538	99
Es	-0.783817	-1.339674	0.543801	99
Es	-0.924880	-1.618369	1.218696	99
Es	-0.380511	0.870354	1.609345	99
Es	-0.035073	2.540184	0.189414	99
Es	0.068898	1.502025	-0.566378	99
Es	0.824286	1.030008	1.656489	99
Es	-1.558102	-1.353877	-1.138413	99
Es	0.990533	-0.886703	0.856766	99
Es	0.245527	0.859518	1.210508	99
Es	0.181971	1.847325	0.089319	99
Es	0.732991	-0.314782	-0.216848	99
Es	-0.167982	-0.911063	0.494249	99
Es	0.471947	-0.488473	0.492680	99
Es	-2.220668	-2.032144	-0.337273	99
Es	1.759428	-0.133230	-0.903865	99
Es	-1.041859	-1.753199	-0.047740	99
Es	-1.638255	-1.611825	-0.451572	99
Es	0.694222	1.692743	-0.428253	99
43
Properties=species:S:1:pos:R:3:Z:I:1 energy=-270.94399524612396 field_type=dipole dipole="0.000000 0.000000 0.000000" charge=0
C	-1.638201	-1.611799	-0.451494	6
C	-0.783901	-1.339719	0.543716	6
C	0.471999	-0.488479	0.492696	6
C	1.017119	-0.107479	-0.900564	6
C	0.598999	1.318061	-1.064704	6
C	0.181999	1.847291	0.089196	6
C	0.245519	0.859521	1.210546	6
H	-2.507231	-2.238939	-0.274244	1
H	-1.519921	-1.211929	-1.452464	1
H	-1.001771	-1.768799	1.521996	1
H	1.243879	-1.062789	1.022316	1
H	0.642709	-0.739559	-1.709334	1
H	2.112099	-0.163129	-0.914784	1
H	0.663619	1.855241	-2.000784	1
H	-0.140501	2.871581	0.215576	1
H	1.087879	1.102341	1.867926	1
H	-0.674291	0.878591	1.804406	1
Es	1.017101	-0.107452	-0.900538	99
Es	-0.168038	-0.911209	0.494406	99
Es	0.068793	1.501761	-0.566228	99
Es	0.471946	-0.488473	0.492680	99
Es	0.990419	-0.886661	0.856736	99
Es	0.343092	0.173410	0.861827	99
Es	-0.924740	-1.617915	1.218941	99
Es	0.639538	1.666981	-1.711887	99
Es	-1.041720	-1.753727	-0.047725	99
Es	0.732458	-0.314281	-0.217054	99
Es	-0.380459	0.870404	1.608946	99
Es	0.181971	1.847330	0.089323	99
Es	0.245522	0.859517	1.210508	99
Es	-0.034924	2.540086	0.189430	99
Es	0.203317	1.374198	0.678788	99
Es	0.811064	0.597657	-1.016392	99
Es	-1.638260	-1.611824	-0.451574	99
Es	1.759470	-0.132994	-0.903793	99
Es	-1.397009	-1.206144	0.109766	99
Es	0.755110	-0.535835	-1.456792	99
Es	-2.219692	-2.031457	-0.337114	99
Es	-1.558616	-1.354511	-1.138833	99
Es	-0.783815	-1.339681	0.543797	99
Es	0.824411	1.030249	1.656772	99
Es	0.599038	1.317990	-1.064812	99
Es	0.694580	1.692881	-0.428260	99
43
Properties=species:S:1:pos:R:3:Z:I:1 energy=-270.94399524612396 field_type=dipole dipole="0.000000 0.000000 0.000000" charge=0
C	-1.638201	-1.611799	-0.451494	6
C	-0.783901	-1.339719	0.543716	6
C	0.471999	-0.488479	0.492696	6
C	1.017119	-0.107479	-0.900564	6
C	0.598999	1.318061	-1.064704	6
C	0.181999	1.847291	0.089196	6
C	0.245519	0.859521	1.210546	6
H	-2.507231	-2.238939	-0.274244	1
H	-1.519921	-1.211929	-1.452464	1
H	-1.001771	-1.768799	1.521996	1
H	1.243879	-1.062789	1.022316	1
H	0.642709	-0.739559	-1.709334	1
H	2.112099	-0.163129	-0.914784	1
H	0.663619	1.855241	-2.000784	1
H	-0.140501	2.871581	0.215576	1
H	1.087879	1.102341	1.867926	1
H	-0.674291	0.878591	1.804406	1
Es	0.754856	-0.535627	-1.457077	99
Es	-1.638258	-1.611832	-0.451576	99
Es	-1.041714	-1.753624	-0.047782	99
Es	0.245526	0.859517	1.210507	99
Es	0.471948	-0.488472	0.492679	99
Es	-2.218694	-2.031081	-0.336890	99
Es	0.068518	1.501478	-0.566087	99
Es	-0.783816	-1.339676	0.543799	99
Es	-1.397288	-1.205784	0.109816	99
Es	0.731876	-0.313758	-0.217268	99
Es	1.017102	-0.107451	-0.900540	99
Es	-1.559146	-1.355180	-1.139257	99
Es	0.181963	1.847334	0.089319	99
Es	-0.924511	-1.617785	1.219136	99
Es	-0.167978	-0.911151	0.494513	99
Es	0.203881	1.373536	0.680229	99
Es	-0.034835	2.539811	0.189357	99
Es	0.811264	0.597151	-1.016145	99
Es	0.342750	0.173713	0.860810	99
Es	1.759463	-0.132833	-0.903717	99
Es	0.824500	1.030520	1.656987	99
Es	0.990489	-0.886731	0.856796	99
Es	0.599036	1.317990	-1.064812	99
Es	0.639402	1.666519	-1.712125	99
Es	0.694786	1.693051	-0.428271	99
Es	-0.380560	0.870668	1.608518	99
43
Properties=species:S:1:pos:R:3:Z:I:1 energy=-270.94399524612396 field_type=dipole dipole="0.000000 0.000000 0.000000" charge=0
C	-1.638201	-1.611799	-0.451494	6
C	-0.783901	-1.339719	0.543716	6
C	0.471999	-0.488479	0.492696	6
C	1.017119	-0.107479	-0.900564	6
C	0.598999	1.318061	-1.064704	6
C	0.181999	1.847291	0.089196	6
C	0.245519	0.859521	1.210546	6
H	-2.507231	-2.238939	-0.274244	1
H	-1.519921	-1.211929	-1.452464	1
H	-1.001771	-1.768799	1.521996	1
H	1.243879	-1.062789	1.022316	1
H	0.642709	-0.739559	-1.709334	1
H	2.112099	-0.163129	-0.914784	1
H	0.663619	1.855241	-2.000784	1
H	-0.140501	2.871581	0.215576	1
H	1.087879	1.102341	1.867926	1
H	-0.674291	0.878591	1.804406	1
Es	-1.638261	-1.611823	-0.451573	99
Es	0.639184	1.665967	-1.712392	99
Es	0.731283	-0.313440	-0.217345	99
Es	-0.380705	0.870758	1.608154	99
Es	-2.217924	-2.030396	-0.336840	99
Es	-0.034672	2.539764	0.189657	99
Es	-0.783814	-1.339669	0.543801	99
Es	0.181968	1.847328	0.089323	99
Es	0.990437	-0.886793	0.856724	99
Es	0.824488	1.030564	1.657257	99
Es	0.754780	-0.535524	-1.457344	99
Es	-0.167865	-0.911105	0.494561	99
Es	0.695212	1.693008	-0.428180	99
Es	0.204280	1.373027	0.680876	99
Es	-1.041766	-1.754083	-0.047674	99
Es	0.342716	0.174241	0.860105	99
Es	1.017100	-0.107444	-0.900542	99
Es	1.759359	-0.132584	-0.903647	99
Es	0.068293	1.501353	-0.566053	99
Es	-0.924294	-1.617474	1.219323	99
Es	0.471947	-0.488472	0.492679	99
Es	-1.397525	-1.205540	0.109866	99
Es	0.245527	0.859516	1.210506	99
Es	-1.559537	-1.355685	-1.139536	99
Es	0.811311	0.596812	-1.015973	99
Es	0.599037	1.317994	-1.064816	99
43
Properties=species:S:1:pos:R:3:Z:I:1 energy=-270.94399524612396 field_type=dipole dipole="0.000000 0.000000 0.000000" charge=0
C	-1.638201	-1.611799	-0.451494	6
C	-0.783901	-1.339719	0.543716	6
C	0.471999	-0.488479	0.492696	6
C	1.017119	-0.107479	-0.900564	6
C	0.598999	1.318061	-1.064704	6
C	0.181999	1.847291	0.089196	6
C	0.245519	0.859521	1.210546	6
H	-2.507231	-2.238939	-0.274244	1
H	-1.519921	-1.211929	-1.452464	1
H	-1.001771	-1.768799	1.521996	1
H	1.243879	-1.062789	1.022316	1
H	0.642709	-0.739559	-1.709334	1
H	2.112099	-0.163129	-0.914784	1
H	0.663619	1.855241	-2.000784	1
H	-0.140501	2.871581	0.215576	1
H	1.087879	1.102341	1.867926	1
H	-0.674291	0.878591	1.804406	1
Es	0.068230	1.501012	-0.565881	99
Es	-0.167889	-0.911194	0.494605	99
Es	0.599036	1.317993	-1.064815	99
Es	-1.638262	-1.611819	-0.451571	99
Es	-1.397693	-1.205232	0.109928	99
Es	0.181971	1.847321	0.089326	99
Es	0.245526	0.859518	1.210508	99
Es	0.730828	-0.312862	-0.217451	99
Es	0.695306	1.693192	-0.428270	99
Es	-0.924134	-1.617145	1.219487	99
Es	0.990431	-0.886803	0.856749	99
Es	-1.559754	-1.355960	-1.139665	99
Es	0.824564	1.030614	1.657423	99
Es	0.754437	-0.535191	-1.457608	99
Es	0.342307	0.174561	0.859539	99
Es	0.811787	0.596075	-1.015572	99
Es	1.017100	-0.107448	-0.900538	99
Es	0.204548	1.372789	0.681773	99
Es	-1.041586	-1.754453	-0.047745	99
Es	1.759422	-0.132435	-0.903630	99
Es	-0.783809	-1.339680	0.543800	99
Es	-0.034535	2.539670	0.189469	99
Es	-0.380710	0.870913	1.607890	99
Es	0.471947	-0.488472	0.492680	99
Es	-2.217396	-2.030095	-0.336884	99
Es	0.638885	1.665431	-1.712630	99
43
Properties=species:S:1:pos:R:3:Z:I:1 energy=-270.94399524612396 field_type=dipole dipole="0.000000 0.000000 0.000000" charge=0
C	-1.638201	-1.611799	-0.451494	6
C	-0.783901	-1.339719	0.543716	6
C	0.471999	-0.488479	0.492696	6
C	1.017119	-0.107479	-0.900564	6
C	0.598999	1.318061	-1.064704	6
C	0.181999	1.847291	0.089196	6
C	0.245519	0.859521	1.210546	6
H	-2.507231	-2.238939	-0.274244	1
H	-1.519921	-1.211929	-1.452464	1
H	-1.001771	-1.768799	1.521996	1
H	1.243879	-1.062789	1.022316	1
H	0.642709	-0.739559	-1.709334	1
H	2.112099	-0.163129	-0.914784	1
H	0.663619	1.855241	-2.000784	1
H	-0.140501	2.871581	0.215576	1
H	1.087879	1.102341	1.867926	1
H	-0.674291	0.878591	1.804406	1
Es	0.638645	1.664873	-1.712884	99
Es	-0.167848	-0.911326	0.494592	99
Es	-0.380815	0.871019	1.607547	99
Es	0.471947	-0.488472	0.492680	99
Es	0.695552	1.693270	-0.428272	99
Es	-1.041622	-1.754526	-0.047742	99
Es	0.754386	-0.535088	-1.457805	99
Es	0.068238	1.500916	-0.565828	99
Es	-2.216661	-2.029650	-0.336752	99
Es	0.730673	-0.312744	-0.217581	99
Es	0.599034	1.317993	-1.064814	99
Es	0.204871	1.372226	0.682332	99
Es	-1.638258	-1.611821	-0.451577	99
Es	0.342092	0.174905	0.858943	99
Es	1.017101	-0.107451	-0.900539	99
Es	-0.783813	-1.339678	0.543800	99
Es	0.181971	1.847329	0.089323	99
Es	-0.924016	-1.616986	1.219634	99
Es	0.990401	-0.886735	0.856817	99
Es	0.824573	1.030723	1.657644	99
Es	0.245527	0.859518	1.210507	99
Es	1.759343	-0.132330	-0.903544	99
Es	-0.034548	2.539595	0.189683	99
Es	0.811810	0.596196	-1.015266	99
Es	-1.560207	-1.356544	-1.139892	99
Es	-1.397817	-1.204908	0.109911	99
43
Properties=species:S:1:pos:R:3:Z:I:1 energy=-270.94399524612396 field_type=dipole dipole="0.000000 0.000000 0.000000" charge=0
C	-1.638201	-1.611799	-0.451494	6
C	-0.783901	-1.339719	0.543716	6
C	0.471999	-0.488479	0.492696	6
C	1.017119	-0.107479	-0.900564	6
C	0.598999	1.318061	-1.064704	6
C	0.181999	1.847291	0.089196	6
C	0.245519	0.859521	1.210546	6
H	-2.507231	-2.238939	-0.274244	1
H	-1.519921	-1.211929	-1.452464	1
H	-1.001771	-1.768799	1.521996	1
H	1.243879	-1.062789	1.022316	1
H	0.642709	-0.739559	-1.709334	1
H	2.112099	-0.163129	-0.914784	1
H	0.663619	1.855241	-2.000784	1
H	-0.140501	2.871581	0.215576	1
H	1.087879	1.102341	1.867926	1
H	-0.674291	0.878591	1.804406	1
Es	-1.560603	-1.356838	-1.140037	99
Es	1.759388	-0.132148	-0.903583	99
Es	-2.216139	-2.029297	-0.336681	99
Es	0.824611	1.030692	1.657646	99
Es	0.205132	1.372087	0.683026	99
Es	0.068051	1.500698	-0.565693	99
Es	-0.167858	-0.911262	0.494621	99
Es	0.990422	-0.886858	0.856762	99
Es	-0.783819	-1.339675	0.543798	99
Es	-0.034387	2.539540	0.189623	99
Es	-0.923856	-1.616797	1.219755	99
Es	-1.397919	-1.204742	0.109918	99
Es	0.471946	-0.488473	0.492680	99
Es	0.245527	0.859521	1.210506	99
Es	1.017101	-0.107451	-0.900539	99
Es	0.730233	-0.312394	-0.217625	99
Es	0.811920	0.595495	-1.015064	99
Es	0.599038	1.317985	-1.064808	99
Es	0.638613	1.664636	-1.713010	99
Es	-1.638260	-1.611823	-0.451575	99
Es	0.341974	0.175239	0.858366	99
Es	-0.380754	0.871097	1.607541	99
Es	0.754134	-0.534810	-1.457998	99
Es	-1.041515	-1.754730	-0.047771	99
Es	0.181969	1.847327	0.089322	99
Es	0.695609	1.693282	-0.428263	99
43
Properties=species:S:1:pos:R:3:Z:I:1 energy=-270.94399524612396 field_type=dipole dipole="0.000000 0.000000 0.000000" charge=0
C	-1.638201	-1.611799	-0.451494	6
C	-0.783901	-1.339719	0.543716	6
C	0.471999	-0.488479	0.492696	6
C	1.017119	-0.107479	-0.900564	6
C	0.598999	1.318061	-1.064704	6
C	0.181999	1.847291	0.089196	6
C	0.245519	0.859521	1.210546	6
H	-2.507231	-2.238939	-0.274244	1
H	-1.519921	-1.211929	-1.452464	1
H	-1.001771	-1.768799	1.521996	1
H	1.243879	-1.062789	1.022316	1
H	0.642709	-0.739559	-1.709334	1
H	2.112099	-0.163129	-0.914784	1
H	0.663619	1.855241	-2.000784	1
H	-0.140501	2.871581	0.215576	1
H	1.087879	1.102341	1.867926	1
H	-0.674291	0.878591	1.804406	1
Es	0.824628	1.030678	1.657904	99
Es	1.759494	-0.132159	-0.903456	99
Es	-0.380811	0.871186	1.607205	99
Es	0.181975	1.847328	0.089323	99
Es	1.017101	-0.107452	-0.900539	99
Es	-0.167911	-0.911404	0.494375	99
Es	0.812131	0.595192	-1.014849	99
Es	0.205404	1.371610	0.683493	99
Es	0.990429	-0.886927	0.856713	99
Es	-0.923544	-1.616555	1.219961	99
Es	0.695470	1.693241	-0.428291	99
Es	0.729880	-0.311896	-0.217757	99
Es	-1.560757	-1.357178	-1.140211	99
Es	-1.638257	-1.611828	-0.451575	99
Es	0.471947	-0.488471	0.492678	99
Es	-0.034133	2.539640	0.189814	99
Es	0.753984	-0.534649	-1.458104	99
Es	0.245527	0.859517	1.210507	99
Es	-0.783810	-1.339683	0.543797	99
Es	-2.215656	-2.029068	-0.336659	99
Es	0.638552	1.664321	-1.713175	99
Es	0.067940	1.500635	-0.565673	99
Es	0.341707	0.175553	0.857979	99
Es	-1.398197	-1.204669	0.109913	99
Es	-1.041567	-1.754654	-0.047642	99
Es	0.599036	1.317992	-1.064814	99
43
Properties=species:S:1:pos:R:3:Z:I:1 energy=-270.94399524612396 field_type=dipole dipole="0.000000 0.000000 0.000000" charge=0
C	-1.638201	-1.611799	-0.451494	6
C	-0.783901	-1.339719	0.543716	6
C	0.471999	-0.488479	0.492696	6
C	1.017119	-0.107479	-0.900564	6
C	0.598999	1.318061	-1.064704	6
C	0.181999	1.847291	0.089196	6
C	0.245519	0.859521	1.210546	6
H	-2.507231	-2.238939	-0.274244	1
H	-1.519921	-1.211929	-1.452464	1
H	-1.001771	-1.768799	1.521996	1
H	1.243879	-1.062789	1.022316	1
H	0.642709	-0.739559	-1.709334	1
H	2.112099	-0.163129	-0.914784	1
H	0.663619	1.855241	-2.000784	1
H	-0.140501	2.871581	0.215576	1
H	1.087879	1.102341	1.867926	1
H	-0.674291	0.878591	1.804406	1
Es	0.824543	1.030838	1.657993	99
Es	0.471943	-0.488479	0.492683	99
Es	0.753939	-0.534570	-1.458321	99
Es	1.759315	-0.132069	-0.903375	99
Es	-1.638271	-1.611826	-0.451569	99
Es	-0.380877	0.871308	1.607014	99
Es	-0.783817	-1.339678	0.543800	99
Es	0.067896	1.500569	-0.565652	99
Es	0.990427	-0.886889	0.856823	99
Es	-0.167802	-0.911293	0.494609	99
Es	0.341690	0.175753	0.857450	99
Es	0.245527	0.859518	1.210507	99
Es	0.729658	-0.311778	-0.217901	99
Es	-2.215249	-2.028898	-0.336633	99
Es	-1.398181	-1.204493	0.109942	99
Es	-1.561133	-1.357342	-1.140257	99
Es	0.599032	1.317993	-1.064819	99
Es	-1.041413	-1.754756	-0.047801	99
Es	1.017101	-0.107452	-0.900539	99
Es	0.205668	1.371245	0.684082	99
Es	-0.034241	2.539437	0.189789	99
Es	-0.923595	-1.616531	1.219996	99
Es	0.181965	1.847332	0.089319	99
Es	0.638470	1.664032	-1.713247	99
Es	0.812225	0.594990	-1.014706	99
Es	0.695738	1.693342	-0.428271	99
43
Properties=species:S:1:pos:R:3:Z:I:1 energy=-270.94399524612396 field_type=dipole dipole="0.000000 0.000000 0.000000" charge=0
C	-1.638201	-1.611799	-0.451494	6
C	-0.783901	-1.339719	0.543716	6
C	0.471999	-0.488479	0.492696	6
C	1.017119	-0.107479	-0.900564	6
C	0.598999	1.318061	-1.064704	6
C	0.181999	1.847291	0.089196	6
C	0.245519	0.859521	1.210546	6
H	-2.507231	-2.238939	-0.274244	1
H	-1.519921	-1.211929	-1.452464	1
H	-1.001771	-1.768799	1.521996	1
H	1.243879	-1.062789	1.022316	1
H	0.642709	-0.739559	-1.709334	1
H	2.112099	-0.163129	-0.914784	1
H	0.663619	1.855241	-2.000784	1
H	-0.140501	2.871581	0.215576	1
H	1.087879	1.102341	1.867926	1
H	-0.674291	0.878591	1.804406	1
Es	0.341804	0.176052	0.857008	99
Es	-1.561592	-1.357693	-1.140417	99
Es	1.017101	-0.107450	-0.900540	99
Es	0.638368	1.663676	-1.713398	99
Es	0.245526	0.859519	1.210501	99
Es	-0.167857	-0.911285	0.494745	99
Es	0.824502	1.030889	1.658150	99
Es	-0.034193	2.539393	0.189590	99
Es	0.812252	0.594895	-1.014566	99
Es	-1.041351	-1.754837	-0.047839	99
Es	-1.638273	-1.611829	-0.451569	99
Es	0.181969	1.847331	0.089322	99
Es	0.695728	1.693387	-0.428302	99
Es	0.753919	-0.534533	-1.458340	99
Es	0.471947	-0.488471	0.492680	99
Es	0.067908	1.500425	-0.565526	99
Es	-0.923525	-1.616486	1.219987	99
Es	0.205855	1.371047	0.684776	99
Es	-0.380898	0.871326	1.606817	99
Es	0.990376	-0.886868	0.856758	99
Es	-1.398286	-1.204360	0.109968	99
Es	-2.214692	-2.028536	-0.336519	99
Es	1.759340	-0.131991	-0.903408	99
Es	-0.783813	-1.339679	0.543803	99
Es	0.599030	1.317990	-1.064817	99
Es	0.729411	-0.311611	-0.217943	99
43
Properties=species:S:1:pos:R:3:Z:I:1 energy=-270.94399524612396 field_type=dipole dipole="0.000000 0.000000 0.000000" charge=0
C	-1.638201	-1.611799	-0.451494	6
C	-0.783901	-1.339719	0.543716	6
C	0.471999	-0.488479	0.492696	6
C	1.017119	-0.107479	-0.900564	6
C	0.598999	1.318061	-1.064704	6
C	0.181999	1.847291	0.089196	6
C	0.245519	0.859521	1.210546	6
H	-2.507231	-2.238939	-0.274244	1
H	-1.519921	-1.211929	-1.452464	1
H	-1.001771	-1.768799	1.521996	1
H	1.243879	-1.062789	1.022316	1
H	0.642709	-0.739559	-1.709334	1
H	2.112099	-0.163129	-0.914784	1
H	0.663619	1.855241	-2.000784	1
H	-0.140501	2.871581	0.215576	1
H	1.087879	1.102341	1.867926	1
H	-0.674291	0.878591	1.804406	1
Es	-0.168067	-0.911306	0.494634	99
Es	0.812236	0.594663	-1.014480	99
Es	-1.398478	-1.204228	0.109976	99
Es	-0.783815	-1.339681	0.543799	99
Es	1.759298	-0.131849	-0.903496	99
Es	1.017101	-0.107451	-0.900538	99
Es	0.824602	1.030865	1.658079	99
Es	0.245527	0.859519	1.210507	99
Es	-1.638263	-1.611830	-0.451578	99
Es	-2.214313	-2.028305	-0.336544	99
Es	-1.561733	-1.357968	-1.140491	99
Es	0.341677	0.176283	0.856605	99
Es	-0.380967	0.871452	1.606828	99
Es	0.638250	1.663568	-1.713475	99
Es	-0.034158	2.539356	0.189827	99
Es	0.206195	1.370679	0.684971	99
Es	-1.041314	-1.754958	-0.047783	99
Es	0.695758	1.693381	-0.428274	99
Es	0.181968	1.847330	0.089322	99
Es	0.067862	1.500378	-0.565507	99
Es	-0.923365	-1.616278	1.220112	99
Es	0.599034	1.317992	-1.064813	99
Es	0.471947	-0.488473	0.492680	99
Es	0.729426	-0.311536	-0.217871	99
Es	0.990357	-0.886913	0.856869	99
Es	0.753794	-0.534392	-1.458441	99
43
Properties=species:S:1:pos:R:3:Z:I:1 energy=-270.94399524612396 field_type=dipole dipole="0.000000 0.000000 0.000000" charge=0
C	-1.638201	-1.611799	-0.451494	6
C	-0.783901	-1.339719	0.543716	6
C	0.471999	-0.488479	0.492696	6
C	1.017119	-0.107479	-0.900564	6
C	0.598999	1.318061	-1.064704	6
C	0.181999	1.847291	0.089196	6
C	0.245519	0.859521	1.210546	6
H	-2.507231	-2.238939	-0.274244	1
H	-1.519921	-1.211929	-1.452464	1
H	-1.001771	-1.768799	1.521996	1
H	1.243879	-1.062789	1.022316	1
H	0.642709	-0.739559	-1.709334	1
H	2.112099	-0.163129	-0.914784	1
H	0.663619	1.855241	-2.000784	1
H	-0.140501	2.871581	0.215576	1
H	1.087879	1.102341	1.867926	1
H	-0.674291	0.878591	1.804406	1
Es	-2.213981	-2.028159	-0.336486	99
Es	0.824536	1.030904	1.658373	99
Es	-1.638256	-1.611828	-0.451573	99
Es	-0.783815	-1.339680	0.543798	99
Es	0.341514	0.176598	0.856239	99
Es	0.181970	1.847331	0.089324	99
Es	-1.398442	-1.204245	0.110022	99
Es	1.759396	-0.131723	-0.903299	99
Es	0.599030	1.317991	-1.064817	99
Es	0.067852	1.500328	-0.565481	99
Es	0.728940	-0.311308	-0.218109	99
Es	-0.034098	2.539314	0.189745	99
Es	0.471947	-0.488473	0.492680	99
Es	0.206167	1.370398	0.685556	99
Es	0.812306	0.594367	-1.014404	99
Es	1.017095	-0.107444	-0.900536	99
Es	-0.380906	0.871449	1.606498	99
Es	-0.923278	-1.616219	1.220210	99
Es	0.638186	1.663422	-1.713519	99
Es	-1.041354	-1.754925	-0.047838	99
Es	0.245527	0.859518	1.210508	99
Es	0.695853	1.693372	-0.428270	99
Es	-1.562005	-1.358119	-1.140595	99
Es	0.990448	-0.886877	0.856748	99
Es	0.753837	-0.534357	-1.458545	99
Es	-0.167911	-0.911336	0.494687	99
43
Properties=species:S:1:pos:R:3:Z:I:1 energy=-270.94399524612396 field_type=dipole dipole="0.000000 0.000000 0.000000" charge=0
C	-1.638201	-1.611799	-0.451494	6
C	-0.783901	-1.339719	0.543716	6
C	0.471999	-0.488479	0.492696	6
C	1.017119	-0.107479	-0.900564	6
C	0.598999	1.318061	-1.064704	6
C	0.181999	1.847291	0.089196	6
C	0.245519	0.859521	1.210546	6
H	-2.507231	-2.238939	-0.274244	1
H	-1.519921	-1.211929	-1.452464	1
H	-1.001771	-1.768799	1.521996	1
H	1.243879	-1.062789	1.022316	1
H	0.642709	-0.739559	-1.709334	1
H	2.112099	-0.163129	-0.914784	1
H	0.663619	1.855241	-2.000784	1
H	-0.140501	2.871581	0.215576	1
H	1.087879	1.102341	1.867926	1
H	-0.674291	0.878591	1.804406	1
Es	0.599036	1.317991	-1.064813	99
Es	0.181969	1.847328	0.089323	99
Es	-1.041354	-1.754951	-0.047853	99
Es	-0.168036	-0.911283	0.494700	99
Es	1.017101	-0.107452	-0.900539	99
Es	-2.213767	-2.028012	-0.336460	99
Es	0.753771	-0.534282	-1.458637	99
Es	-1.638259	-1.611827	-0.451575	99
Es	-1.562156	-1.358256	-1.140656	99
Es	-0.783812	-1.339671	0.543803	99
Es	-0.923129	-1.616142	1.220276	99
Es	0.245526	0.859517	1.210507	99
Es	0.067762	1.500244	-0.565430	99
Es	0.695813	1.693394	-0.428294	99
Es	0.728904	-0.311237	-0.218167	99
Es	0.638178	1.663176	-1.713611	99
Es	0.990292	-0.886911	0.856867	99
Es	0.341526	0.176706	0.855941	99
Es	0.206216	1.370167	0.685839	99
Es	0.471948	-0.488473	0.492680	99
Es	0.812468	0.594256	-1.014257	99
Es	1.759305	-0.131742	-0.903289	99
Es	-0.034052	2.539321	0.189738	99
Es	-0.380837	0.871496	1.606476	99
Es	-1.398476	-1.204119	0.110024	99
Es	0.824623	1.031063	1.658325	99
43