44
Properties=species:S:1:pos:R:3:Z:I:1 energy=-304.1250516542169 field_type=dipole dipole="0.000000 0.000000 0.000000" charge=0
N	-1.926395	0.415539	-0.604227	7
C	-0.472945	0.396899	-0.568937	6
C	0.140435	1.493119	0.314663	6
N	1.513664	1.030869	0.596753	7
C	1.359125	-0.421031	0.811453	6
C	0.128865	-0.830741	0.050733	6
C	-0.352475	-2.082931	0.018993	6
H	-2.249455	-0.275441	-1.278767	1
H	-2.245235	1.319549	-0.946237	1
H	-0.082695	0.501819	-1.590017	1
H	-0.404585	1.609979	1.260243	1
H	0.149105	2.465289	-0.188547	1
H	2.076215	1.158239	-0.244307	1
H	2.250605	-0.948481	0.459403	1
H	1.229325	-0.613471	1.881593	1
H	-1.266405	-2.327611	-0.510637	1
H	0.152855	-2.891591	0.537843	1
Es	1.835027	1.094389	0.069010	99
Es	-2.061128	0.354936	-0.287087	99
Es	1.359111	-0.420904	0.811400	99
Es	-0.352503	-2.083013	0.018982	99
Es	1.961902	-0.782392	0.568774	99
Es	-1.926159	0.415656	-0.604776	99
Es	-0.188648	0.463089	-1.265916	99
Es	0.057257	-1.541810	-0.247021	99
Es	-0.972004	-2.253954	-0.343579	99
Es	-0.193982	-0.240199	-0.270677	99
Es	1.445570	0.395323	0.677005	99
Es	-0.235204	1.561346	0.955909	99
Es	0.146579	2.158921	-0.035667	99
Es	-2.107947	0.005768	-1.026658	99
Es	0.745352	-0.645408	0.423752	99
Es	-0.297007	-1.419535	0.295950	99
Es	-2.100488	0.961805	-0.831914	99
Es	1.667662	1.200216	0.870042	99
Es	0.140559	1.493064	0.314654	99
Es	-1.293002	0.407971	-0.611303	99
Es	0.916294	1.231344	0.457734	99
Es	-0.010760	-2.634588	0.369249	99
Es	1.513395	1.030568	0.596254	99
Es	1.260120	-0.560341	1.533502	99
Es	0.128917	-0.830621	0.050732	99
Es	-0.195593	0.954769	-0.136396	99
Es	-0.473069	0.396871	-0.568914	99
44
Properties=species:S:1:pos:R:3:Z:I:1 energy=-304.1250516542169 field_type=dipole dipole="0.000000 0.000000 0.000000" charge=0
N	-1.926395	0.415539	-0.604227	7
C	-0.472945	0.396899	-0.568937	6
C	0.140435	1.493119	0.314663	6
N	1.513664	1.030869	0.596753	7
C	1.359125	-0.421031	0.811453	6
C	0.128865	-0.830741	0.050733	6
C	-0.352475	-2.082931	0.018993	6
H	-2.249455	-0.275441	-1.278767	1
H	-2.245235	1.319549	-0.946237	1
H	-0.082695	0.501819	-1.590017	1
H	-0.404585	1.609979	1.260243	1
H	0.149105	2.465289	-0.188547	1
H	2.076215	1.158239	-0.244307	1
H	2.250605	-0.948481	0.459403	1
H	1.229325	-0.613471	1.881593	1
H	-1.266405	-2.327611	-0.510637	1
H	0.152855	-2.891591	0.537843	1
Es	1.960881	-0.782530	0.569354	99
Es	1.446049	0.393612	0.678276	99
Es	0.146748	2.160924	-0.035646	99
Es	-0.189580	0.462874	-1.264997	99
Es	1.665892	1.201171	0.867798	99
Es	-2.110292	0.001532	-1.024267	99
Es	0.128921	-0.830618	0.050726	99
Es	1.513389	1.030571	0.596267	99
Es	-0.473068	0.396873	-0.568919	99
Es	1.359112	-0.420910	0.811402	99
Es	0.917156	1.231554	0.458098	99
Es	1.260259	-0.560797	1.532682	99
Es	0.744933	-0.645969	0.423189	99
Es	0.057875	-1.542298	-0.248168	99
Es	-0.971547	-2.253741	-0.342766	99
Es	-0.233774	1.560511	0.955020	99
Es	-2.101498	0.963991	-0.831293	99
Es	-0.297568	-1.419543	0.296919	99
Es	0.140558	1.493065	0.314654	99
Es	-2.055893	0.357122	-0.289371	99
Es	-0.011149	-2.634942	0.369451	99
Es	-0.193440	-0.241046	-0.271007	99
Es	-0.195775	0.955261	-0.136071	99
Es	-0.352505	-2.083021	0.018982	99
Es	-1.926164	0.415651	-0.604747	99
Es	-1.294039	0.407843	-0.612407	99
Es	1.834770	1.096130	0.069883	99
44
Properties=species:S:1:pos:R:3:Z:I:1 energy=-304.1250516542169 field_type=dipole dipole="0.000000 0.000000 0.000000" charge=0
N	-1.926395	0.415539	-0.604227	7
C	-0.472945	0.396899	-0.568937	6
C	0.140435	1.493119	0.314663	6
N	1.513664	1.030869	0.596753	7
C	1.359125	-0.421031	0.811453	6
C	0.128865	-0.830741	0.050733	6
C	-0.352475	-2.082931	0.018993	6
H	-2.249455	-0.275441	-1.278767	1
H	-2.245235	1.319549	-0.946237	1
H	-0.082695	0.501819	-1.590017	1
H	-0.404585	1.609979	1.260243	1
H	0.149105	2.465289	-0.188547	1
H	2.076215	1.158239	-0.244307	1
H	2.250605	-0.948481	0.459403	1
H	1.229325	-0.613471	1.881593	1
H	-1.266405	-2.327611	-0.510637	1
H	0.152855	-2.891591	0.537843	1
Es	-2.112305	-0.001688	-1.021975	99
Es	1.359111	-0.420906	0.811400	99
Es	0.058207	-1.542476	-0.248862	99
Es	-0.232812	1.559875	0.954304	99
Es	-0.352503	-2.083017	0.018980	99
Es	1.664037	1.201137	0.866788	99
Es	0.128924	-0.830619	0.050721	99
Es	0.146747	2.162216	-0.035512	99
Es	-0.011451	-2.635217	0.369586	99
Es	0.744550	-0.646478	0.422755	99
Es	-0.971361	-2.253475	-0.342134	99
Es	1.835439	1.097684	0.070537	99
Es	1.260417	-0.560999	1.531994	99
Es	-2.101646	0.965275	-0.831291	99
Es	-1.926174	0.415663	-0.604720	99
Es	-2.052355	0.359365	-0.291357	99
Es	-1.294870	0.407550	-0.612878	99
Es	-0.473062	0.396871	-0.568913	99
Es	-0.192778	-0.241597	-0.271409	99
Es	-0.195668	0.955522	-0.135980	99
Es	1.960189	-0.782600	0.569773	99
Es	1.513399	1.030564	0.596256	99
Es	0.140561	1.493063	0.314654	99
Es	-0.297996	-1.419675	0.297586	99
Es	0.917920	1.231694	0.458289	99
Es	1.446049	0.392812	0.678684	99
Es	-0.190320	0.462727	-1.264233	99
44
Properties=species:S:1:pos:R:3:Z:I:1 energy=-304.1250516542169 field_type=dipole dipole="0.000000 0.000000 0.000000" charge=0
N	-1.926395	0.415539	-0.604227	7
C	-0.472945	0.396899	-0.568937	6
C	0.140435	1.493119	0.314663	6
N	1.513664	1.030869	0.596753	7
C	1.359125	-0.421031	0.811453	6
C	0.128865	-0.830741	0.050733	6
C	-0.352475	-2.082931	0.018993	6
H	-2.249455	-0.275441	-1.278767	1
H	-2.245235	1.319549	-0.946237	1
H	-0.082695	0.501819	-1.590017	1
H	-0.404585	1.609979	1.260243	1
H	0.149105	2.465289	-0.188547	1
H	2.076215	1.158239	-0.244307	1
H	2.250605	-0.948481	0.459403	1
H	1.229325	-0.613471	1.881593	1
H	-1.266405	-2.327611	-0.510637	1
H	0.152855	-2.891591	0.537843	1
Es	-0.352505	-2.083016	0.018983	99
Es	0.128923	-0.830618	0.050724	99
Es	-0.011789	-2.635380	0.369740	99
Es	0.140560	1.493064	0.314654	99
Es	-2.114459	-0.004468	-1.019616	99
Es	-0.971119	-2.253310	-0.341668	99
Es	-2.049144	0.361515	-0.293169	99
Es	1.959736	-0.782499	0.570281	99
Es	1.661601	1.201307	0.866567	99
Es	-0.191027	0.462415	-1.263442	99
Es	-2.101825	0.966035	-0.831097	99
Es	-0.192337	-0.242077	-0.271864	99
Es	1.836617	1.099391	0.071005	99
Es	0.146896	2.163084	-0.035332	99
Es	0.918902	1.230906	0.457858	99
Es	-1.295345	0.407426	-0.613677	99
Es	0.058563	-1.542569	-0.249438	99
Es	-1.926141	0.415656	-0.604772	99
Es	-0.232029	1.559502	0.953826	99
Es	-0.195525	0.955952	-0.135995	99
Es	1.445820	0.392287	0.678929	99
Es	-0.473064	0.396871	-0.568914	99
Es	0.744528	-0.646916	0.422129	99
Es	1.359113	-0.420903	0.811398	99
Es	1.513388	1.030568	0.596259	99
Es	-0.298401	-1.419785	0.298163	99
Es	1.260312	-0.561168	1.531509	99
44
Properties=species:S:1:pos:R:3:Z:I:1 energy=-304.1250516542169 field_type=dipole dipole="0.000000 0.000000 0.000000" charge=0
N	-1.926395	0.415539	-0.604227	7
C	-0.472945	0.396899	-0.568937	6
C	0.140435	1.493119	0.314663	6
N	1.513664	1.030869	0.596753	7
C	1.359125	-0.421031	0.811453	6
C	0.128865	-0.830741	0.050733	6
C	-0.352475	-2.082931	0.018993	6
H	-2.249455	-0.275441	-1.278767	1
H	-2.245235	1.319549	-0.946237	1
H	-0.082695	0.501819	-1.590017	1
H	-0.404585	1.609979	1.260243	1
H	0.149105	2.465289	-0.188547	1
H	2.076215	1.158239	-0.244307	1
H	2.250605	-0.948481	0.459403	1
H	1.229325	-0.613471	1.881593	1
H	-1.266405	-2.327611	-0.510637	1
H	0.152855	-2.891591	0.537843	1
Es	-2.101903	0.966902	-0.830739	99
Es	-1.926131	0.415664	-0.604783	99
Es	0.744056	-0.647160	0.421954	99
Es	0.140558	1.493065	0.314653	99
Es	1.959208	-0.782589	0.570374	99
Es	0.128924	-0.830617	0.050721	99
Es	1.445815	0.391863	0.678509	99
Es	0.058862	-1.542680	-0.249947	99
Es	-0.473068	0.396873	-0.568916	99
Es	1.836470	1.100161	0.071296	99
Es	-0.191939	-0.242378	-0.272056	99
Es	-0.012147	-2.635450	0.369918	99
Es	1.359111	-0.420905	0.811400	99
Es	-0.971064	-2.253139	-0.341208	99
Es	-0.195775	0.955885	-0.135746	99
Es	-0.352496	-2.083020	0.018971	99
Es	-0.231337	1.559364	0.953430	99
Es	-2.046702	0.362619	-0.294519	99
Es	-2.115800	-0.006268	-1.018023	99
Es	1.513378	1.030555	0.596248	99
Es	-0.298624	-1.419888	0.298625	99
Es	-0.191314	0.462425	-1.263080	99
Es	1.260671	-0.561152	1.531082	99
Es	1.661249	1.201127	0.866244	99
Es	-1.295960	0.407188	-0.614382	99
Es	0.919062	1.231128	0.458302	99
Es	0.147148	2.163696	-0.035284	99
44
Properties=species:S:1:pos:R:3:Z:I:1 energy=-304.1250516542169 field_type=dipole dipole="0.000000 0.000000 0.000000" charge=0
N	-1.926395	0.415539	-0.604227	7
C	-0.472945	0.396899	-0.568937	6
C	0.140435	1.493119	0.314663	6
N	1.513664	1.030869	0.596753	7
C	1.359125	-0.421031	0.811453	6
C	0.128865	-0.830741	0.050733	6
C	-0.352475	-2.082931	0.018993	6
H	-2.249455	-0.275441	-1.278767	1
H	-2.245235	1.319549	-0.946237	1
H	-0.082695	0.501819	-1.590017	1
H	-0.404585	1.609979	1.260243	1
H	0.149105	2.465289	-0.188547	1
H	2.076215	1.158239	-0.244307	1
H	2.250605	-0.948481	0.459403	1
H	1.229325	-0.613471	1.881593	1
H	-1.266405	-2.327611	-0.510637	1
H	0.152855	-2.891591	0.537843	1
Es	-0.298690	-1.419820	0.299046	99
Es	-0.191687	-0.242627	-0.272145	99
Es	0.147300	2.164207	-0.035151	99
Es	-0.971024	-2.252959	-0.340823	99
Es	-0.195738	0.956084	-0.135775	99
Es	-0.012386	-2.635565	0.369904	99
Es	-2.101727	0.967361	-0.830855	99
Es	1.359112	-0.420909	0.811400	99
Es	-0.230801	1.559142	0.953146	99
Es	-0.352510	-2.083015	0.018990	99
Es	1.837402	1.100973	0.071568	99
Es	1.260647	-0.561260	1.530864	99
Es	0.744059	-0.647391	0.421597	99
Es	0.140560	1.493063	0.314654	99
Es	0.128922	-0.830617	0.050724	99
Es	-0.473066	0.396872	-0.568914	99
Es	1.659436	1.201418	0.865777	99
Es	1.445818	0.391693	0.679204	99
Es	1.958877	-0.782473	0.570576	99
Es	0.919471	1.230445	0.457656	99
Es	1.513408	1.030603	0.596316	99
Es	0.059020	-1.542931	-0.250440	99
Es	-1.296313	0.406965	-0.614734	99
Es	-1.926146	0.415673	-0.604770	99
Es	-0.191651	0.462208	-1.262598	99
Es	-2.117484	-0.008243	-1.015910	99
Es	-2.044558	0.364373	-0.296266	99
44
Properties=species:S:1:pos:R:3:Z:I:1 energy=-304.1250516542169 field_type=dipole dipole="0.000000 0.000000 0.000000" charge=0
N	-1.926395	0.415539	-0.604227	7
C	-0.472945	0.396899	-0.568937	6
C	0.140435	1.493119	0.314663	6
N	1.513664	1.030869	0.596753	7
C	1.359125	-0.421031	0.811453	6
C	0.128865	-0.830741	0.050733	6
C	-0.352475	-2.082931	0.018993	6
H	-2.249455	-0.275441	-1.278767	1
H	-2.245235	1.319549	-0.946237	1
H	-0.082695	0.501819	-1.590017	1
H	-0.404585	1.609979	1.260243	1
H	0.149105	2.465289	-0.188547	1
H	2.076215	1.158239	-0.244307	1
H	2.250605	-0.948481	0.459403	1
H	1.229325	-0.613471	1.881593	1
H	-1.266405	-2.327611	-0.510637	1
H	0.152855	-2.891591	0.537843	1
Es	-0.352505	-2.083017	0.018983	99
Es	0.743867	-0.647666	0.421324	99
Es	1.513421	1.030618	0.596362	99
Es	-0.191923	0.461974	-1.262243	99
Es	1.260689	-0.561278	1.530675	99
Es	-1.926170	0.415636	-0.604695	99
Es	0.059223	-1.542971	-0.250689	99
Es	-2.042811	0.365328	-0.297829	99
Es	1.958591	-0.782381	0.570799	99
Es	1.359111	-0.420906	0.811399	99
Es	-2.101705	0.967985	-0.830575	99
Es	-1.296628	0.406762	-0.615008	99
Es	-0.971007	-2.252884	-0.340588	99
Es	1.838625	1.102352	0.072013	99
Es	-0.298833	-1.419914	0.299275	99
Es	-0.473069	0.396871	-0.568914	99
Es	1.657736	1.200654	0.865413	99
Es	0.140560	1.493061	0.314659	99
Es	1.445638	0.391462	0.679009	99
Es	-0.012565	-2.635580	0.369983	99
Es	0.128925	-0.830619	0.050720	99
Es	0.147457	2.164574	-0.035037	99
Es	-0.195748	0.956237	-0.135790	99
Es	-0.191511	-0.242782	-0.272258	99
Es	0.919836	1.230281	0.457705	99
Es	-2.118588	-0.009562	-1.014501	99
Es	-0.230364	1.559035	0.952849	99
44
Properties=species:S:1:pos:R:3:Z:I:1 energy=-304.1250516542169 field_type=dipole dipole="0.000000 0.000000 0.000000" charge=0
N	-1.926395	0.415539	-0.604227	7
C	-0.472945	0.396899	-0.568937	6
C	0.140435	1.493119	0.314663	6
N	1.513664	1.030869	0.596753	7
C	1.359125	-0.421031	0.811453	6
C	0.128865	-0.830741	0.050733	6
C	-0.352475	-2.082931	0.018993	6
H	-2.249455	-0.275441	-1.278767	1
H	-2.245235	1.319549	-0.946237	1
H	-0.082695	0.501819	-1.590017	1
H	-0.404585	1.609979	1.260243	1
H	0.149105	2.465289	-0.188547	1
H	2.076215	1.158239	-0.244307	1
H	2.250605	-0.948481	0.459403	1
H	1.229325	-0.613471	1.881593	1
H	-1.266405	-2.327611	-0.510637	1
H	0.152855	-2.891591	0.537843	1
Es	1.958404	-0.782395	0.570933	99
Es	-0.191306	-0.242852	-0.272444	99
Es	-0.473069	0.396871	-0.568914	99
Es	-1.926144	0.415663	-0.604767	99
Es	-0.352506	-2.083017	0.018984	99
Es	1.359111	-0.420905	0.811400	99
Es	-0.229984	1.558910	0.952614	99
Es	0.140559	1.493065	0.314653	99
Es	-2.101510	0.968201	-0.830656	99
Es	0.920062	1.230358	0.457894	99
Es	1.513388	1.030557	0.596253	99
Es	-0.195651	0.956273	-0.135750	99
Es	-1.297167	0.406754	-0.615383	99
Es	0.743591	-0.647840	0.421170	99
Es	1.445390	0.391306	0.678772	99
Es	-0.192185	0.461843	-1.261912	99
Es	1.260796	-0.561260	1.530372	99
Es	-0.012766	-2.635628	0.370066	99
Es	-2.041301	0.366466	-0.298771	99
Es	0.147579	2.164890	-0.034903	99
Es	1.839655	1.103541	0.072397	99
Es	-2.119633	-0.010970	-1.013047	99
Es	0.128923	-0.830619	0.050723	99
Es	-0.970996	-2.252760	-0.340353	99
Es	0.059385	-1.543161	-0.250997	99
Es	1.656473	1.199848	0.865215	99
Es	-0.298849	-1.419867	0.299493	99
44
Properties=species:S:1:pos:R:3:Z:I:1 energy=-304.1250516542169 field_type=dipole dipole="0.000000 0.000000 0.000000" charge=0
N	-1.926395	0.415539	-0.604227	7
C	-0.472945	0.396899	-0.568937	6
C	0.140435	1.493119	0.314663	6
N	1.513664	1.030869	0.596753	7
C	1.359125	-0.421031	0.811453	6
C	0.128865	-0.830741	0.050733	6
C	-0.352475	-2.082931	0.018993	6
H	-2.249455	-0.275441	-1.278767	1
H	-2.245235	1.319549	-0.946237	1
H	-0.082695	0.501819	-1.590017	1
H	-0.404585	1.609979	1.260243	1
H	0.149105	2.465289	-0.188547	1
H	2.076215	1.158239	-0.244307	1
H	2.250605	-0.948481	0.459403	1
H	1.229325	-0.613471	1.881593	1
H	-1.266405	-2.327611	-0.510637	1
H	0.152855	-2.891591	0.537843	1
Es	-1.926149	0.415671	-0.604771	99
Es	-0.299034	-1.420010	0.299668	99
Es	0.059504	-1.543067	-0.251319	99
Es	1.445242	0.391193	0.678872	99
Es	-2.120866	-0.012308	-1.011223	99
Es	-2.101531	0.968537	-0.830619	99
Es	1.359111	-0.420905	0.811399	99
Es	0.920537	1.230045	0.458149	99
Es	-0.192331	0.461700	-1.261661	99
Es	-2.039598	0.367573	-0.300239	99
Es	1.839489	1.103912	0.072213	99
Es	-1.297453	0.406670	-0.615812	99
Es	1.260810	-0.561333	1.530224	99
Es	1.513362	1.030527	0.596212	99
Es	-0.473066	0.396871	-0.568914	99
Es	0.140560	1.493064	0.314653	99
Es	-0.970926	-2.252656	-0.340092	99
Es	-0.229801	1.558869	0.952495	99
Es	-0.352505	-2.083016	0.018985	99
Es	0.147714	2.165065	-0.034938	99
Es	-0.012953	-2.635686	0.370078	99
Es	1.656128	1.200090	0.865113	99
Es	0.128923	-0.830620	0.050721	99
Es	-0.195604	0.956385	-0.135823	99
Es	0.743621	-0.648008	0.421016	99
Es	1.958196	-0.782321	0.571031	99
Es	-0.191131	-0.242971	-0.272379	99
44
Properties=species:S:1:pos:R:3:Z:I:1 energy=-304.1250516542169 field_type=dipole dipole="0.000000 0.000000 0.000000" charge=0
N	-1.926395	0.415539	-0.604227	7
C	-0.472945	0.396899	-0.568937	6
C	0.140435	1.493119	0.314663	6
N	1.513664	1.030869	0.596753	7
C	1.359125	-0.421031	0.811453	6
C	0.128865	-0.830741	0.050733	6
C	-0.352475	-2.082931	0.018993	6
H	-2.249455	-0.275441	-1.278767	1
H	-2.245235	1.319549	-0.946237	1
H	-0.082695	0.501819	-1.590017	1
H	-0.404585	1.609979	1.260243	1
H	0.149105	2.465289	-0.188547	1
H	2.076215	1.158239	-0.244307	1
H	2.250605	-0.948481	0.459403	1
H	1.229325	-0.613471	1.881593	1
H	-1.266405	-2.327611	-0.510637	1
H	0.152855	-2.891591	0.537843	1
Es	0.128920	-0.830616	0.050728	99
Es	0.743395	-0.648155	0.421013	99
Es	-0.352506	-2.083017	0.018984	99
Es	1.513368	1.030581	0.596277	99
Es	-0.192566	0.461414	-1.261374	99
Es	-0.970964	-2.252637	-0.339942	99
Es	-2.121201	-0.012827	-1.010782	99
Es	0.920560	1.230084	0.457984	99
Es	-0.191000	-0.243070	-0.272361	99
Es	1.655040	1.199537	0.864546	99
Es	-0.195536	0.956580	-0.136035	99
Es	1.260951	-0.561334	1.530010	99
Es	-2.101402	0.968759	-0.830462	99
Es	-1.926151	0.415675	-0.604788	99
Es	1.840411	1.104611	0.072691	99
Es	0.059633	-1.543115	-0.251515	99
Es	-0.013028	-2.635655	0.370157	99
Es	0.140558	1.493065	0.314654	99
Es	-0.229566	1.558850	0.952308	99
Es	-1.297713	0.406714	-0.615937	99
Es	1.359111	-0.420905	0.811399	99
Es	-0.473070	0.396872	-0.568915	99
Es	-2.038919	0.367858	-0.300700	99
Es	0.147857	2.165230	-0.034826	99
Es	-0.299117	-1.420064	0.299744	99
Es	1.957963	-0.782288	0.571105	99
Es	1.445223	0.391123	0.679081	99
44
Properties=species:S:1:pos:R:3:Z:I:1 energy=-304.1250516542169 field_type=dipole dipole="0.000000 0.000000 0.000000" charge=0
N	-1.926395	0.415539	-0.604227	7
C	-0.472945	0.396899	-0.568937	6
C	0.140435	1.493119	0.314663	6
N	1.513664	1.030869	0.596753	7
C	1.359125	-0.421031	0.811453	6
C	0.128865	-0.830741	0.050733	6
C	-0.352475	-2.082931	0.018993	6
H	-2.249455	-0.275441	-1.278767	1
H	-2.245235	1.319549	-0.946237	1
H	-0.082695	0.501819	-1.590017	1
H	-0.404585	1.609979	1.260243	1
H	0.149105	2.465289	-0.188547	1
H	2.076215	1.158239	-0.244307	1
H	2.250605	-0.948481	0.459403	1
H	1.229325	-0.613471	1.881593	1
H	-1.266405	-2.327611	-0.510637	1
H	0.152855	-2.891591	0.537843	1
Es	0.920736	1.229783	0.457852	99
Es	1.957895	-0.782298	0.571218	99
Es	-0.473066	0.396872	-0.568913	99
Es	1.654070	1.199143	0.864719	99
Es	0.059646	-1.543242	-0.251563	99
Es	-0.013186	-2.635737	0.370167	99
Es	-2.101411	0.969010	-0.830294	99
Es	1.513377	1.030564	0.596261	99
Es	-0.299162	-1.419956	0.300011	99
Es	-1.926177	0.415639	-0.604690	99
Es	1.841131	1.105464	0.073011	99
Es	0.743461	-0.648215	0.420770	99
Es	1.444931	0.391025	0.678601	99
Es	-1.297885	0.406593	-0.616270	99
Es	-2.122012	-0.013580	-1.009688	99
Es	0.140560	1.493063	0.314655	99
Es	0.148059	2.165505	-0.034717	99
Es	-0.192700	0.461557	-1.261186	99
Es	1.359111	-0.420905	0.811400	99
Es	0.128924	-0.830619	0.050722	99
Es	1.260863	-0.561306	1.529948	99
Es	-2.037794	0.368492	-0.301754	99
Es	-0.190897	-0.243246	-0.272714	99
Es	-0.229208	1.558744	0.952121	99
Es	-0.970864	-2.252534	-0.339851	99
Es	-0.352500	-2.083020	0.018975	99
Es	-0.195652	0.956472	-0.135751	99
44
Properties=species:S:1:pos:R:3:Z:I:1 energy=-304.1250516542169 field_type=dipole dipole="0.000000 0.000000 0.000000" charge=0
N	-1.926395	0.415539	-0.604227	7
C	-0.472945	0.396899	-0.568937	6
C	0.140435	1.493119	0.314663	6
N	1.513664	1.030869	0.596753	7
C	1.359125	-0.421031	0.811453	6
C	0.128865	-0.830741	0.050733	6
C	-0.352475	-2.082931	0.018993	6
H	-2.249455	-0.275441	-1.278767	1
H	-2.245235	1.319549	-0.946237	1
H	-0.082695	0.501819	-1.590017	1
H	-0.404585	1.609979	1.260243	1
H	0.149105	2.465289	-0.188547	1
H	2.076215	1.158239	-0.244307	1
H	2.250605	-0.948481	0.459403	1
H	1.229325	-0.613471	1.881593	1
H	-1.266405	-2.327611	-0.510637	1
H	0.152855	-2.891591	0.537843	1
Es	-0.190820	-0.243234	-0.272685	99
Es	0.148157	2.165570	-0.034728	99
Es	0.059758	-1.542925	-0.251602	99
Es	1.841744	1.105952	0.073232	99
Es	0.921028	1.229491	0.457594	99
Es	-1.926140	0.415661	-0.604753	99
Es	-1.298185	0.406371	-0.616362	99
Es	-0.195551	0.956565	-0.135841	99
Es	1.653162	1.199135	0.864738	99
Es	0.140559	1.493065	0.314653	99
Es	-0.473068	0.396872	-0.568914	99
Es	-0.970799	-2.252485	-0.339799	99
Es	1.359111	-0.420905	0.811397	99
Es	1.957825	-0.782279	0.571335	99
Es	-2.101088	0.969088	-0.830778	99
Es	1.444746	0.391016	0.678704	99
Es	0.743444	-0.648285	0.420642	99
Es	-2.037045	0.369442	-0.302513	99
Es	-0.229126	1.558741	0.952065	99
Es	0.128924	-0.830618	0.050722	99
Es	-0.299316	-1.420298	0.300230	99
Es	-0.013206	-2.635809	0.370017	99
Es	1.513377	1.030545	0.596242	99
Es	-0.352504	-2.083017	0.018982	99
Es	-0.192813	0.461400	-1.261008	99
Es	-2.122747	-0.014473	-1.008304	99
Es	1.260821	-0.561314	1.529777	99
44
Properties=species:S:1:pos:R:3:Z:I:1 energy=-304.1250516542169 field_type=dipole dipole="0.000000 0.000000 0.000000" charge=0
N	-1.926395	0.415539	-0.604227	7
C	-0.472945	0.396899	-0.568937	6
C	0.140435	1.493119	0.314663	6
N	1.513664	1.030869	0.596753	7
C	1.359125	-0.421031	0.811453	6
C	0.128865	-0.830741	0.050733	6
C	-0.352475	-2.082931	0.018993	6
H	-2.249455	-0.275441	-1.278767	1
H	-2.245235	1.319549	-0.946237	1
H	-0.082695	0.501819	-1.590017	1
H	-0.404585	1.609979	1.260243	1
H	0.149105	2.465289	-0.188547	1
H	2.076215	1.158239	-0.244307	1
H	2.250605	-0.948481	0.459403	1
H	1.229325	-0.613471	1.881593	1
H	-1.266405	-2.327611	-0.510637	1
H	0.152855	-2.891591	0.537843	1
Es	1.957654	-0.782170	0.571329	99
Es	1.359110	-0.420904	0.811398	99
Es	1.260948	-0.561364	1.529790	99
Es	0.148177	2.165704	-0.034692	99
Es	-0.228962	1.558658	0.952003	99
Es	-2.035857	0.369799	-0.303562	99
Es	-0.352506	-2.083017	0.018984	99
Es	-0.970880	-2.252556	-0.339532	99
Es	-1.298293	0.406493	-0.616757	99
Es	-0.190699	-0.243224	-0.272613	99
Es	0.743260	-0.648508	0.420515	99
Es	-0.013246	-2.635675	0.370187	99
Es	-0.473065	0.396871	-0.568915	99
Es	-2.123507	-0.015114	-1.007327	99
Es	1.444513	0.390969	0.678554	99
Es	1.513433	1.030637	0.596391	99
Es	-0.195442	0.956551	-0.135933	99
Es	0.059757	-1.543207	-0.251932	99
Es	0.140558	1.493065	0.314653	99
Es	0.921200	1.229594	0.457838	99
Es	-1.926128	0.415672	-0.604778	99
Es	-0.299271	-1.420079	0.300222	99
Es	-0.192918	0.461296	-1.260886	99
Es	-2.101278	0.969329	-0.830283	99
Es	0.128924	-0.830618	0.050721	99
Es	1.841613	1.106104	0.073074	99
Es	1.653155	1.198964	0.864592	99
44
Properties=species:S:1:pos:R:3:Z:I:1 energy=-304.1250516542169 field_type=dipole dipole="0.000000 0.000000 0.000000" charge=0
N	-1.926395	0.415539	-0.604227	7
C	-0.472945	0.396899	-0.568937	6
C	0.140435	1.493119	0.314663	6
N	1.513664	1.030869	0.596753	7
C	1.359125	-0.421031	0.811453	6
C	0.128865	-0.830741	0.050733	6
C	-0.352475	-2.082931	0.018993	6
H	-2.249455	-0.275441	-1.278767	1
H	-2.245235	1.319549	-0.946237	1
H	-0.082695	0.501819	-1.590017	1
H	-0.404585	1.609979	1.260243	1
H	0.149105	2.465289	-0.188547	1
H	2.076215	1.158239	-0.244307	1
H	2.250605	-0.948481	0.459403	1
H	1.229325	-0.613471	1.881593	1
H	-1.266405	-2.327611	-0.510637	1
H	0.152855	-2.891591	0.537843	1
Es	0.921343	1.229412	0.457768	99
Es	1.652198	1.198502	0.864555	99
Es	-0.473066	0.396871	-0.568914	99
Es	0.059865	-1.543227	-0.251914	99
Es	1.444262	0.390906	0.678372	99
Es	-2.101130	0.969537	-0.830509	99
Es	0.743273	-0.648513	0.420454	99
Es	1.359111	-0.420904	0.811399	99
Es	-0.299286	-1.420128	0.300332	99
Es	-1.298515	0.406280	-0.616764	99
Es	0.128922	-0.830617	0.050724	99
Es	-0.192975	0.461135	-1.260667	99
Es	1.513371	1.030575	0.596267	99
Es	1.957635	-0.782163	0.571424	99
Es	-0.190709	-0.243300	-0.272649	99
Es	-0.352503	-2.083018	0.018980	99
Es	0.140559	1.493065	0.314652	99
Es	0.148384	2.165813	-0.034672	99
Es	1.842460	1.106906	0.073494	99
Es	-0.013420	-2.635786	0.370156	99
Es	-2.123695	-0.015514	-1.006746	99
Es	-1.926152	0.415657	-0.604757	99
Es	-0.228823	1.558666	0.951880	99
Es	-0.970818	-2.252406	-0.339541	99
Es	1.260916	-0.561325	1.529672	99
Es	-0.195464	0.956702	-0.135929	99
Es	-2.035493	0.370147	-0.304026	99
44
Properties=species:S:1:pos:R:3:Z:I:1 energy=-304.1250516542169 field_type=dipole dipole="0.000000 0.000000 0.000000" charge=0
N	-1.926395	0.415539	-0.604227	7
C	-0.472945	0.396899	-0.568937	6
C	0.140435	1.493119	0.314663	6
N	1.513664	1.030869	0.596753	7
C	1.359125	-0.421031	0.811453	6
C	0.128865	-0.830741	0.050733	6
C	-0.352475	-2.082931	0.018993	6
H	-2.249455	-0.275441	-1.278767	1
H	-2.245235	1.319549	-0.946237	1
H	-0.082695	0.501819	-1.590017	1
H	-0.404585	1.609979	1.260243	1
H	0.149105	2.465289	-0.188547	1
H	2.076215	1.158239	-0.244307	1
H	2.250605	-0.948481	0.459403	1
H	1.229325	-0.613471	1.881593	1
H	-1.266405	-2.327611	-0.510637	1
H	0.152855	-2.891591	0.537843	1
Es	1.513382	1.030580	0.596271	99
Es	-2.100988	0.969636	-0.830436	99
Es	-0.190649	-0.243359	-0.272661	99
Es	-0.299334	-1.420110	0.300426	99
Es	0.743121	-0.648560	0.420421	99
Es	-0.228645	1.558693	0.951815	99
Es	-0.013486	-2.635806	0.370187	99
Es	0.059925	-1.543280	-0.252105	99
Es	1.359111	-0.420904	0.811399	99
Es	1.260928	-0.561298	1.529564	99
Es	1.444427	0.390893	0.678673	99
Es	-0.970811	-2.252357	-0.339423	99
Es	0.140559	1.493064	0.314653	99
Es	0.148367	2.165842	-0.034631	99
Es	-0.473066	0.396872	-0.568913	99
Es	-2.034808	0.370712	-0.304938	99
Es	0.128921	-0.830618	0.050725	99
Es	1.957533	-0.782218	0.571471	99
Es	-0.195480	0.956587	-0.135870	99
Es	-1.926129	0.415663	-0.604782	99
Es	-2.124301	-0.016172	-1.005876	99
Es	1.842447	1.107059	0.073332	99
Es	-1.298625	0.406351	-0.616671	99
Es	-0.352506	-2.083016	0.018984	99
Es	0.921531	1.229261	0.457803	99
Es	1.651909	1.198620	0.864308	99
Es	-0.193081	0.461137	-1.260684	99
44
Properties=species:S:1:pos:R:3:Z:I:1 energy=-304.1250516542169 field_type=dipole dipole="0.000000 0.000000 0.000000" charge=0
N	-1.926395	0.415539	-0.604227	7
C	-0.472945	0.396899	-0.568937	6
C	0.140435	1.493119	0.314663	6
N	1.513664	1.030869	0.596753	7
C	1.359125	-0.421031	0.811453	6
C	0.128865	-0.830741	0.050733	6
C	-0.352475	-2.082931	0.018993	6
H	-2.249455	-0.275441	-1.278767	1
H	-2.245235	1.319549	-0.946237	1
H	-0.082695	0.501819	-1.590017	1
H	-0.404585	1.609979	1.260243	1
H	0.149105	2.465289	-0.188547	1
H	2.076215	1.158239	-0.244307	1
H	2.250605	-0.948481	0.459403	1
H	1.229325	-0.613471	1.881593	1
H	-1.266405	-2.327611	-0.510637	1
H	0.152855	-2.891591	0.537843	1
Es	0.148534	2.165871	-0.034652	99
Es	1.359111	-0.420905	0.811399	99
Es	1.260951	-0.561332	1.529438	99
Es	1.444281	0.390891	0.678551	99
Es	0.921667	1.229167	0.457985	99
Es	-0.190580	-0.243359	-0.272703	99
Es	1.651392	1.198336	0.864303	99
Es	-1.926157	0.415663	-0.604764	99
Es	0.140559	1.493064	0.314653	99
Es	-2.034495	0.370834	-0.304932	99
Es	-0.193144	0.461043	-1.260434	99
Es	-0.473067	0.396871	-0.568915	99
Es	-2.124457	-0.016309	-1.005577	99
Es	-0.013464	-2.635829	0.370115	99
Es	1.513371	1.030533	0.596225	99
Es	-0.228566	1.558790	0.951652	99
Es	0.128924	-0.830618	0.050722	99
Es	1.842849	1.107529	0.073491	99
Es	1.957440	-0.782114	0.571581	99
Es	-0.195490	0.956637	-0.135872	99
Es	0.743077	-0.648681	0.420245	99
Es	-0.352508	-2.083016	0.018987	99
Es	-0.299284	-1.420125	0.300555	99
Es	0.059894	-1.543312	-0.252233	99
Es	-1.298912	0.406205	-0.616964	99
Es	-2.100827	0.969759	-0.830550	99
Es	-0.970851	-2.252322	-0.339266	99
44
Properties=species:S:1:pos:R:3:Z:I:1 energy=-304.1250516542169 field_type=dipole dipole="0.000000 0.000000 0.000000" charge=0
N	-1.926395	0.415539	-0.604227	7
C	-0.472945	0.396899	-0.568937	6
C	0.140435	1.493119	0.314663	6
N	1.513664	1.030869	0.596753	7
C	1.359125	-0.421031	0.811453	6
C	0.128865	-0.830741	0.050733	6
C	-0.352475	-2.082931	0.018993	6
H	-2.249455	-0.275441	-1.278767	1
H	-2.245235	1.319549	-0.946237	1
H	-0.082695	0.501819	-1.590017	1
H	-0.404585	1.609979	1.260243	1
H	0.149105	2.465289	-0.188547	1
H	2.076215	1.158239	-0.244307	1
H	2.250605	-0.948481	0.459403	1
H	1.229325	-0.613471	1.881593	1
H	-1.266405	-2.327611	-0.510637	1
H	0.152855	-2.891591	0.537843	1
Es	-1.926125	0.415668	-0.604802	99
Es	-2.033871	0.371009	-0.305540	99
Es	0.148531	2.166005	-0.034540	99
Es	1.260920	-0.561251	1.529382	99
Es	1.359110	-0.420907	0.811397	99
Es	-2.100878	0.969958	-0.830310	99
Es	-0.299409	-1.420116	0.300566	99
Es	-0.352503	-2.083020	0.018984	99
Es	-1.299136	0.406220	-0.617174	99
Es	0.128921	-0.830617	0.050724	99
Es	0.060028	-1.543333	-0.252309	99
Es	1.957458	-0.782249	0.571567	99
Es	0.140558	1.493066	0.314652	99
Es	1.650657	1.198137	0.864381	99
Es	0.921873	1.228955	0.457553	99
Es	-0.473066	0.396872	-0.568913	99
Es	1.843445	1.108065	0.073930	99
Es	0.743042	-0.648622	0.420371	99
Es	-2.124776	-0.016713	-1.005035	99
Es	-0.970801	-2.252332	-0.339234	99
Es	1.513366	1.030566	0.596269	99
Es	-0.195533	0.956692	-0.135960	99
Es	-0.228379	1.558662	0.951642	99
Es	-0.013593	-2.635781	0.370212	99
Es	-0.190514	-0.243417	-0.272685	99
Es	-0.193159	0.460953	-1.260322	99
Es	1.444084	0.390802	0.678237	99
44
Properties=species:S:1:pos:R:3:Z:I:1 energy=-304.1250516542169 field_type=dipole dipole="0.000000 0.000000 0.000000" charge=0
N	-1.926395	0.415539	-0.604227	7
C	-0.472945	0.396899	-0.568937	6
C	0.140435	1.493119	0.314663	6
N	1.513664	1.030869	0.596753	7
C	1.359125	-0.421031	0.811453	6
C	0.128865	-0.830741	0.050733	6
C	-0.352475	-2.082931	0.018993	6
H	-2.249455	-0.275441	-1.278767	1
H	-2.245235	1.319549	-0.946237	1
H	-0.082695	0.501819	-1.590017	1
H	-0.404585	1.609979	1.260243	1
H	0.149105	2.465289	-0.188547	1
H	2.076215	1.158239	-0.244307	1
H	2.250605	-0.948481	0.459403	1
H	1.229325	-0.613471	1.881593	1
H	-1.266405	-2.327611	-0.510637	1
H	0.152855	-2.891591	0.537843	1
Es	-0.970857	-2.252215	-0.339201	99
Es	-2.100852	0.969908	-0.830229	99
Es	0.140558	1.493066	0.314653	99
Es	-0.473066	0.396872	-0.568914	99
Es	-0.013561	-2.635893	0.370152	99
Es	-0.193287	0.460945	-1.260249	99
Es	-0.228279	1.558568	0.951582	99
Es	1.650214	1.198018	0.864414	99
Es	-2.033316	0.371360	-0.305910	99
Es	1.513378	1.030539	0.596232	99
Es	-1.299150	0.406368	-0.617383	99
Es	-0.352506	-2.083018	0.018984	99
Es	0.059969	-1.543293	-0.252239	99
Es	0.148634	2.166123	-0.034456	99
Es	0.128929	-0.830618	0.050726	99
Es	1.843822	1.108310	0.074006	99
Es	-0.195417	0.956730	-0.135982	99
Es	-1.926145	0.415661	-0.604773	99
Es	-0.299306	-1.420206	0.300593	99
Es	0.921885	1.228831	0.457457	99
Es	1.443943	0.390830	0.678239	99
Es	1.957370	-0.782155	0.571568	99
Es	1.260970	-0.561279	1.529373	99
Es	-0.190512	-0.243444	-0.272758	99
Es	-2.125228	-0.017082	-1.004497	99
Es	1.359112	-0.420912	0.811402	99
Es	0.742947	-0.648744	0.420250	99
44
Properties=species:S:1:pos:R:3:Z:I:1 energy=-304.1250516542169 field_type=dipole dipole="0.000000 0.000000 0.000000" charge=0
N	-1.926395	0.415539	-0.604227	7
C	-0.472945	0.396899	-0.568937	6
C	0.140435	1.493119	0.314663	6
N	1.513664	1.030869	0.596753	7
C	1.359125	-0.421031	0.811453	6
C	0.128865	-0.830741	0.050733	6
C	-0.352475	-2.082931	0.018993	6
H	-2.249455	-0.275441	-1.278767	1
H	-2.245235	1.319549	-0.946237	1
H	-0.082695	0.501819	-1.590017	1
H	-0.404585	1.609979	1.260243	1
H	0.149105	2.465289	-0.188547	1
H	2.076215	1.158239	-0.244307	1
H	2.250605	-0.948481	0.459403	1
H	1.229325	-0.613471	1.881593	1
H	-1.266405	-2.327611	-0.510637	1
H	0.152855	-2.891591	0.537843	1
Es	-1.299152	0.405981	-0.616586	99
Es	1.513393	1.030563	0.596264	99
Es	1.260943	-0.561301	1.529363	99
Es	-0.193342	0.460953	-1.260216	99
Es	-0.195364	0.956680	-0.135901	99
Es	0.921965	1.228876	0.457728	99
Es	-2.100433	0.970119	-0.830634	99
Es	-0.013735	-2.635809	0.370139	99
Es	1.650437	1.198215	0.864091	99
Es	1.957311	-0.782265	0.571484	99