38
Properties=species:S:1:pos:R:3:Z:I:1 energy=-301.80079715992474 field_type=dipole dipole="0.000000 0.000000 0.000000" charge=0
N	-1.613431	0.517817	0.082657	7
C	-0.231681	0.407447	0.061277	6
C	0.328219	-0.930763	-0.125473	6
C	-0.336791	-2.001953	-0.582463	6
C	0.551489	1.491387	0.231857	6
C	1.957489	1.491387	0.231857	6
N	3.108499	1.491387	0.231857	7
H	-1.963591	1.367427	0.516177	1
H	-2.068411	-0.309893	0.462057	1
H	1.383539	-1.071983	0.106847	1
H	-1.377871	-1.961613	-0.883613	1
H	0.172749	-2.953753	-0.698523	1
H	0.089789	2.463107	0.365487	1
Es	-1.041488	-1.978042	-0.779158	99
Es	0.033362	-0.258516	-0.031557	99
Es	0.069850	-1.348794	-0.637396	99
Es	0.328218	-0.930639	-0.125433	99
Es	-1.606796	0.525784	-0.219545	99
Es	3.478677	1.490585	0.231322	99
Es	3.108059	1.491385	0.231858	99
Es	-1.011648	0.469973	0.137087	99
Es	1.285787	1.482091	0.226551	99
Es	-1.870525	0.030183	0.321858	99
Es	-0.231857	0.407358	0.061255	99
Es	0.272856	0.971252	0.473125	99
Es	-0.336844	-2.002015	-0.582497	99
Es	2.591506	1.507292	0.537613	99
Es	2.581600	1.745096	0.061438	99
Es	-1.807910	1.019961	0.355048	99
Es	2.576829	1.212463	0.098533	99
Es	1.957123	1.491389	0.231857	99
Es	-0.096676	-1.512642	-0.037953	99
Es	1.030200	-1.008126	0.035308	99
Es	-1.613107	0.517791	0.083169	99
Es	0.551630	1.491415	0.231809	99
Es	0.249649	2.142480	0.324396	99
Es	0.000014	-2.643270	-0.660704	99
Es	0.254392	1.048798	-0.155229	99
38
Properties=species:S:1:pos:R:3:Z:I:1 energy=-301.80079715992474 field_type=dipole dipole="0.000000 0.000000 0.000000" charge=0
N	-1.613431	0.517817	0.082657	7
C	-0.231681	0.407447	0.061277	6
C	0.328219	-0.930763	-0.125473	6
C	-0.336791	-2.001953	-0.582463	6
C	0.551489	1.491387	0.231857	6
C	1.957489	1.491387	0.231857	6
N	3.108499	1.491387	0.231857	7
H	-1.963591	1.367427	0.516177	1
H	-2.068411	-0.309893	0.462057	1
H	1.383539	-1.071983	0.106847	1
H	-1.377871	-1.961613	-0.883613	1
H	0.172749	-2.953753	-0.698523	1
H	0.089789	2.463107	0.365487	1
Es	1.289022	1.473797	0.226042	99
Es	0.276271	0.976438	0.469384	99
Es	3.108066	1.491387	0.231857	99
Es	-1.811126	1.020916	0.348076	99
Es	-1.003062	0.469478	0.124721	99
Es	1.033216	-1.007279	0.033041	99
Es	0.249432	2.139211	0.326591	99
Es	2.577897	1.179354	0.286137	99
Es	-0.095552	-1.513669	-0.040327	99
Es	0.069781	-1.347598	-0.635877	99
Es	3.482211	1.510339	0.237488	99
Es	-0.231862	0.407361	0.061236	99
Es	-1.045296	-1.980110	-0.776749	99
Es	0.328223	-0.930630	-0.125442	99
Es	-1.587428	0.533110	-0.160766	99
Es	0.248645	1.046393	-0.155187	99
Es	1.957112	1.491383	0.231845	99
Es	-0.336847	-2.002018	-0.582487	99
Es	2.596362	1.555153	-0.024205	99
Es	-1.612928	0.517779	0.083250	99
Es	-1.896003	0.020398	0.281958	99
Es	0.551650	1.491433	0.231815	99
Es	0.033370	-0.258373	-0.034602	99
Es	2.572346	1.719359	0.432769	99
Es	-0.000599	-2.640359	-0.657813	99
38
Properties=species:S:1:pos:R:3:Z:I:1 energy=-301.80079715992474 field_type=dipole dipole="0.000000 0.000000 0.000000" charge=0
N	-1.613431	0.517817	0.082657	7
C	-0.231681	0.407447	0.061277	6
C	0.328219	-0.930763	-0.125473	6
C	-0.336791	-2.001953	-0.582463	6
C	0.551489	1.491387	0.231857	6
C	1.957489	1.491387	0.231857	6
N	3.108499	1.491387	0.231857	7
H	-1.963591	1.367427	0.516177	1
H	-2.068411	-0.309893	0.462057	1
H	1.383539	-1.071983	0.106847	1
H	-1.377871	-1.961613	-0.883613	1
H	0.172749	-2.953753	-0.698523	1
H	0.089789	2.463107	0.365487	1
Es	2.599756	1.439144	0.436904	99
Es	0.551656	1.491436	0.231815	99
Es	-1.612719	0.517765	0.083259	99
Es	-0.336846	-2.002016	-0.582492	99
Es	0.070393	-1.346988	-0.635988	99
Es	-1.046765	-1.982365	-0.775614	99
Es	1.291119	1.469991	0.226663	99
Es	-0.999901	0.470794	0.116291	99
Es	-0.095531	-1.514451	-0.040457	99
Es	0.033379	-0.258562	-0.036427	99
Es	-1.580024	0.530265	-0.121804	99
Es	-0.001456	-2.637503	-0.655934	99
Es	0.249716	2.136321	0.326849	99
Es	3.108061	1.491387	0.231860	99
Es	1.034530	-1.005774	0.031892	99
Es	3.481185	1.522820	0.241451	99
Es	1.957110	1.491362	0.231839	99
Es	-1.811435	1.019724	0.343718	99
Es	0.238868	1.039763	-0.152979	99
Es	-1.906693	0.021467	0.255766	99
Es	2.567054	1.787271	0.190537	99
Es	0.328222	-0.930631	-0.125437	99
Es	2.579975	1.220640	0.062692	99
Es	-0.231860	0.407357	0.061246	99
Es	0.285105	0.984034	0.467105	99
38
Properties=species:S:1:pos:R:3:Z:I:1 energy=-301.80079715992474 field_type=dipole dipole="0.000000 0.000000 0.000000" charge=0
N	-1.613431	0.517817	0.082657	7
C	-0.231681	0.407447	0.061277	6
C	0.328219	-0.930763	-0.125473	6
C	-0.336791	-2.001953	-0.582463	6
C	0.551489	1.491387	0.231857	6
C	1.957489	1.491387	0.231857	6
N	3.108499	1.491387	0.231857	7
H	-1.963591	1.367427	0.516177	1
H	-2.068411	-0.309893	0.462057	1
H	1.383539	-1.071983	0.106847	1
H	-1.377871	-1.961613	-0.883613	1
H	0.172749	-2.953753	-0.698523	1
H	0.089789	2.463107	0.365487	1
Es	1.292558	1.469164	0.225800	99
Es	3.480039	1.529824	0.242716	99
Es	-0.002563	-2.634389	-0.654600	99
Es	0.289422	0.988024	0.465758	99
Es	-1.613304	0.517801	0.082893	99
Es	-0.336849	-2.002019	-0.582479	99
Es	-1.910536	0.023289	0.246384	99
Es	-0.999012	0.472047	0.115520	99
Es	1.957104	1.491344	0.231855	99
Es	0.071352	-1.346807	-0.636947	99
Es	0.328223	-0.930629	-0.125443	99
Es	-1.810059	1.016113	0.342856	99
Es	2.575863	1.188041	0.132563	99
Es	-0.096017	-1.514804	-0.039657	99
Es	-1.047395	-1.984662	-0.775603	99
Es	0.033428	-0.259287	-0.037478	99
Es	-1.578071	0.529377	-0.110549	99
Es	0.250500	2.133188	0.326324	99
Es	3.108057	1.491388	0.231858	99
Es	2.606636	1.470275	0.283762	99
Es	0.551659	1.491435	0.231831	99
Es	0.233942	1.036264	-0.151785	99
Es	1.035195	-1.003914	0.032055	99
Es	-0.231862	0.407360	0.061245	99
Es	2.564588	1.784827	0.273878	99
38
Properties=species:S:1:pos:R:3:Z:I:1 energy=-301.80079715992474 field_type=dipole dipole="0.000000 0.000000 0.000000" charge=0
N	-1.613431	0.517817	0.082657	7
C	-0.231681	0.407447	0.061277	6
C	0.328219	-0.930763	-0.125473	6
C	-0.336791	-2.001953	-0.582463	6
C	0.551489	1.491387	0.231857	6
C	1.957489	1.491387	0.231857	6
N	3.108499	1.491387	0.231857	7
H	-1.963591	1.367427	0.516177	1
H	-2.068411	-0.309893	0.462057	1
H	1.383539	-1.071983	0.106847	1
H	-1.377871	-1.961613	-0.883613	1
H	0.172749	-2.953753	-0.698523	1
H	0.089789	2.463107	0.365487	1
Es	-0.231865	0.407359	0.061244	99
Es	-1.913420	0.025335	0.236560	99
Es	0.033535	-0.259532	-0.038459	99
Es	-1.613320	0.517803	0.082853	99
Es	2.565830	1.767794	0.326072	99
Es	3.108059	1.491387	0.231859	99
Es	-1.811385	1.015768	0.337744	99
Es	0.071947	-1.346356	-0.636195	99
Es	0.328224	-0.930627	-0.125448	99
Es	0.551652	1.491436	0.231816	99
Es	3.478279	1.535776	0.243422	99
Es	-0.998279	0.473635	0.113151	99
Es	-0.003120	-2.632489	-0.653273	99
Es	1.293690	1.468437	0.225245	99
Es	1.957107	1.491325	0.231844	99
Es	-0.096304	-1.515377	-0.040748	99
Es	0.300943	0.998872	0.455564	99
Es	0.222072	1.025715	-0.141029	99
Es	-0.336850	-2.002018	-0.582487	99
Es	0.250622	2.131415	0.325787	99
Es	-1.574593	0.525061	-0.093232	99
Es	2.575382	1.177566	0.176753	99
Es	-1.047779	-1.986326	-0.775075	99
Es	1.035627	-1.002805	0.031589	99
Es	2.606846	1.494097	0.187199	99
38
Properties=species:S:1:pos:R:3:Z:I:1 energy=-301.80079715992474 field_type=dipole dipole="0.000000 0.000000 0.000000" charge=0
N	-1.613431	0.517817	0.082657	7
C	-0.231681	0.407447	0.061277	6
C	0.328219	-0.930763	-0.125473	6
C	-0.336791	-2.001953	-0.582463	6
C	0.551489	1.491387	0.231857	6
C	1.957489	1.491387	0.231857	6
N	3.108499	1.491387	0.231857	7
H	-1.963591	1.367427	0.516177	1
H	-2.068411	-0.309893	0.462057	1
H	1.383539	-1.071983	0.106847	1
H	-1.377871	-1.961613	-0.883613	1
H	0.172749	-2.953753	-0.698523	1
H	0.089789	2.463107	0.365487	1
Es	-1.047896	-1.987581	-0.774732	99
Es	-0.096474	-1.515625	-0.040895	99
Es	0.250840	2.129945	0.325341	99
Es	-0.231864	0.407359	0.061242	99
Es	0.328225	-0.930630	-0.125445	99
Es	-0.997901	0.474237	0.111294	99
Es	0.208667	1.012706	-0.121117	99
Es	2.575241	1.178663	0.175371	99
Es	2.606910	1.492246	0.193851	99
Es	1.957107	1.491334	0.231854	99
Es	3.108061	1.491386	0.231859	99
Es	0.313986	1.012155	0.436232	99
Es	-1.613086	0.517775	0.083245	99
Es	0.072264	-1.346236	-0.635932	99
Es	0.033732	-0.259893	-0.039178	99
Es	0.551660	1.491433	0.231841	99
Es	-1.574741	0.524230	-0.087157	99
Es	1.294518	1.467918	0.224937	99
Es	-0.336849	-2.002021	-0.582479	99
Es	1.035841	-1.001763	0.031289	99
Es	2.566599	1.766258	0.321044	99
Es	-1.810173	1.013716	0.337907	99
Es	-0.003599	-2.631036	-0.652589	99
Es	-1.915066	0.026764	0.231812	99
Es	3.476898	1.539910	0.243163	99
38
Properties=species:S:1:pos:R:3:Z:I:1 energy=-301.80079715992474 field_type=dipole dipole="0.000000 0.000000 0.000000" charge=0
N	-1.613431	0.517817	0.082657	7
C	-0.231681	0.407447	0.061277	6
C	0.328219	-0.930763	-0.125473	6
C	-0.336791	-2.001953	-0.582463	6
C	0.551489	1.491387	0.231857	6
C	1.957489	1.491387	0.231857	6
N	3.108499	1.491387	0.231857	7
H	-1.963591	1.367427	0.516177	1
H	-2.068411	-0.309893	0.462057	1
H	1.383539	-1.071983	0.106847	1
H	-1.377871	-1.961613	-0.883613	1
H	0.172749	-2.953753	-0.698523	1
H	0.089789	2.463107	0.365487	1
Es	3.108059	1.491387	0.231859	99
Es	-0.336848	-2.002015	-0.582488	99
Es	2.567279	1.764722	0.318017	99
Es	0.251105	2.128833	0.325056	99
Es	0.323583	1.022857	0.415271	99
Es	1.957107	1.491326	0.231842	99
Es	0.328225	-0.930627	-0.125451	99
Es	2.606922	1.490526	0.201241	99
Es	-1.613059	0.517779	0.083259	99
Es	-0.004137	-2.629472	-0.652043	99
Es	1.295112	1.467580	0.224615	99
Es	0.198761	1.002258	-0.099776	99
Es	0.072542	-1.346439	-0.636507	99
Es	-1.047871	-1.988894	-0.774694	99
Es	-1.574757	0.523715	-0.083723	99
Es	3.475648	1.543097	0.243570	99
Es	0.551660	1.491427	0.231867	99
Es	-0.997722	0.475375	0.110529	99
Es	-0.096645	-1.515539	-0.040286	99
Es	-1.915664	0.027304	0.229544	99
Es	0.034012	-0.260453	-0.039640	99
Es	-0.231862	0.407359	0.061245	99
Es	2.575266	1.180032	0.170657	99
Es	-1.809711	1.011936	0.337527	99
Es	1.035896	-1.000823	0.031268	99
38
Properties=species:S:1:pos:R:3:Z:I:1 energy=-301.80079715992474 field_type=dipole dipole="0.000000 0.000000 0.000000" charge=0
N	-1.613431	0.517817	0.082657	7
C	-0.231681	0.407447	0.061277	6
C	0.328219	-0.930763	-0.125473	6
C	-0.336791	-2.001953	-0.582463	6
C	0.551489	1.491387	0.231857	6
C	1.957489	1.491387	0.231857	6
N	3.108499	1.491387	0.231857	7
H	-1.963591	1.367427	0.516177	1
H	-2.068411	-0.309893	0.462057	1
H	1.383539	-1.071983	0.106847	1
H	-1.377871	-1.961613	-0.883613	1
H	0.172749	-2.953753	-0.698523	1
H	0.089789	2.463107	0.365487	1
Es	0.551659	1.491435	0.231830	99
Es	-0.997584	0.476387	0.110019	99
Es	3.108059	1.491387	0.231859	99
Es	3.474523	1.545862	0.243826	99
Es	2.575261	1.180040	0.172360	99
Es	0.328223	-0.930629	-0.125443	99
Es	-0.096723	-1.515781	-0.040279	99
Es	2.568030	1.762008	0.319411	99
Es	-1.574442	0.523025	-0.080229	99
Es	1.957116	1.491315	0.231838	99
Es	0.072686	-1.346270	-0.636395	99
Es	-1.047779	-1.989844	-0.774774	99
Es	-0.004475	-2.628368	-0.651838	99
Es	1.295488	1.467683	0.224751	99
Es	-1.613154	0.517789	0.083178	99
Es	-1.809463	1.010527	0.336924	99
Es	0.192116	0.994476	-0.081099	99
Es	-0.231865	0.407359	0.061244	99
Es	-1.916227	0.027932	0.227210	99
Es	-0.336850	-2.002020	-0.582476	99
Es	2.606879	1.491403	0.198070	99
Es	0.330103	1.030811	0.396339	99
Es	0.251310	2.127639	0.325018	99
Es	0.034082	-0.260987	-0.039892	99
Es	1.035926	-0.999929	0.031307	99
38
Properties=species:S:1:pos:R:3:Z:I:1 energy=-301.80079715992474 field_type=dipole dipole="0.000000 0.000000 0.000000" charge=0
N	-1.613431	0.517817	0.082657	7
C	-0.231681	0.407447	0.061277	6
C	0.328219	-0.930763	-0.125473	6
C	-0.336791	-2.001953	-0.582463	6
C	0.551489	1.491387	0.231857	6
C	1.957489	1.491387	0.231857	6
N	3.108499	1.491387	0.231857	7
H	-1.963591	1.367427	0.516177	1
H	-2.068411	-0.309893	0.462057	1
H	1.383539	-1.071983	0.106847	1
H	-1.377871	-1.961613	-0.883613	1
H	0.172749	-2.953753	-0.698523	1
H	0.089789	2.463107	0.365487	1
Es	-0.336851	-2.002021	-0.582476	99
Es	-1.575484	0.523088	-0.078544	99
Es	3.108059	1.491385	0.231859	99
Es	-1.612342	0.517746	0.083009	99
Es	0.072848	-1.346306	-0.637003	99
Es	0.251573	2.126595	0.325329	99
Es	-0.096719	-1.515888	-0.039865	99
Es	0.034223	-0.261221	-0.039933	99
Es	0.328221	-0.930623	-0.125447	99
Es	0.187020	0.988429	-0.064237	99
Es	0.334998	1.037134	0.378951	99
Es	2.568331	1.762876	0.312790	99
Es	-1.808555	1.009175	0.337694	99
Es	2.606981	1.489622	0.203733	99
Es	0.551661	1.491434	0.231836	99
Es	-0.997533	0.476451	0.110019	99
Es	1.295833	1.467608	0.224897	99
Es	3.473886	1.547282	0.244252	99
Es	1.957101	1.491332	0.231844	99
Es	-1.916879	0.028687	0.224955	99
Es	2.575107	1.180386	0.172944	99
Es	-1.047664	-1.990749	-0.774876	99
Es	1.035877	-0.999346	0.031544	99
Es	-0.004931	-2.627185	-0.651766	99
Es	-0.231863	0.407360	0.061247	99
38
Properties=species:S:1:pos:R:3:Z:I:1 energy=-301.80079715992474 field_type=dipole dipole="0.000000 0.000000 0.000000" charge=0
N	-1.613431	0.517817	0.082657	7
C	-0.231681	0.407447	0.061277	6
C	0.328219	-0.930763	-0.125473	6
C	-0.336791	-2.001953	-0.582463	6
C	0.551489	1.491387	0.231857	6
C	1.957489	1.491387	0.231857	6
N	3.108499	1.491387	0.231857	7
H	-1.963591	1.367427	0.516177	1
H	-2.068411	-0.309893	0.462057	1
H	1.383539	-1.071983	0.106847	1
H	-1.377871	-1.961613	-0.883613	1
H	0.172749	-2.953753	-0.698523	1
H	0.089789	2.463107	0.365487	1
Es	-1.808388	1.008273	0.337037	99
Es	0.251767	2.125788	0.325288	99
Es	3.108059	1.491385	0.231859	99
Es	2.575039	1.180581	0.173438	99
Es	0.034301	-0.261243	-0.040107	99
Es	-1.047583	-1.991442	-0.774958	99
Es	0.338521	1.042193	0.363930	99
Es	-0.096817	-1.515860	-0.039882	99
Es	0.328224	-0.930628	-0.125446	99
Es	1.035895	-0.999009	0.031525	99
Es	0.072917	-1.346347	-0.636845	99
Es	1.296101	1.467607	0.225009	99
Es	2.606846	1.491730	0.196871	99
Es	-0.336850	-2.002020	-0.582481	99
Es	1.957111	1.491310	0.231845	99
Es	-0.997547	0.476926	0.110485	99
Es	-1.612625	0.517753	0.083250	99
Es	-0.231861	0.407360	0.061243	99
Es	0.551661	1.491436	0.231821	99
Es	2.569073	1.759414	0.318846	99
Es	-0.005121	-2.626444	-0.651531	99
Es	3.473041	1.549076	0.244808	99
Es	0.183304	0.983630	-0.049528	99
Es	-1.574986	0.522790	-0.077870	99
Es	-1.917183	0.028991	0.224149	99
38
Properties=species:S:1:pos:R:3:Z:I:1 energy=-301.80079715992474 field_type=dipole dipole="0.000000 0.000000 0.000000" charge=0
N	-1.613431	0.517817	0.082657	7
C	-0.231681	0.407447	0.061277	6
C	0.328219	-0.930763	-0.125473	6
C	-0.336791	-2.001953	-0.582463	6
C	0.551489	1.491387	0.231857	6
C	1.957489	1.491387	0.231857	6
N	3.108499	1.491387	0.231857	7
H	-1.963591	1.367427	0.516177	1
H	-2.068411	-0.309893	0.462057	1
H	1.383539	-1.071983	0.106847	1
H	-1.377871	-1.961613	-0.883613	1
H	0.172749	-2.953753	-0.698523	1
H	0.089789	2.463107	0.365487	1
Es	2.606933	1.489266	0.205983	99
Es	-0.231859	0.407358	0.061243	99
Es	0.328223	-0.930628	-0.125443	99
Es	-1.613418	0.517814	0.082454	99
Es	1.035858	-0.998331	0.031591	99
Es	-0.096911	-1.516178	-0.040352	99
Es	1.296256	1.467796	0.225157	99
Es	0.034401	-0.261646	-0.040139	99
Es	-1.047456	-1.992194	-0.775106	99
Es	-1.808152	1.007611	0.337011	99
Es	0.340694	1.045388	0.353555	99
Es	-1.917565	0.029563	0.222036	99
Es	-0.336851	-2.002020	-0.582473	99
Es	-1.574041	0.522244	-0.074686	99
Es	2.575057	1.181442	0.170029	99
Es	0.251884	2.125007	0.325480	99
Es	0.181109	0.980556	-0.039601	99
Es	1.957112	1.491307	0.231843	99
Es	3.108057	1.491388	0.231858	99
Es	2.569231	1.760497	0.312782	99
Es	-0.997490	0.477105	0.110228	99
Es	-0.005422	-2.625578	-0.651275	99
Es	0.073057	-1.346036	-0.636559	99
Es	0.551660	1.491434	0.231865	99
Es	3.472532	1.550086	0.245273	99
38
Properties=species:S:1:pos:R:3:Z:I:1 energy=-301.80079715992474 field_type=dipole dipole="0.000000 0.000000 0.000000" charge=0
N	-1.613431	0.517817	0.082657	7
C	-0.231681	0.407447	0.061277	6
C	0.328219	-0.930763	-0.125473	6
C	-0.336791	-2.001953	-0.582463	6
C	0.551489	1.491387	0.231857	6
C	1.957489	1.491387	0.231857	6
N	3.108499	1.491387	0.231857	7
H	-1.963591	1.367427	0.516177	1
H	-2.068411	-0.309893	0.462057	1
H	1.383539	-1.071983	0.106847	1
H	-1.377871	-1.961613	-0.883613	1
H	0.172749	-2.953753	-0.698523	1
H	0.089789	2.463107	0.365487	1
Es	-1.807650	1.006418	0.337252	99
Es	3.471944	1.551254	0.245634	99
Es	0.073058	-1.346168	-0.636942	99
Es	0.034424	-0.261895	-0.040185	99
Es	-0.231862	0.407360	0.061245	99
Es	2.569571	1.759949	0.311430	99
Es	0.178508	0.976527	-0.026000	99
Es	-1.612732	0.517784	0.083255	99
Es	2.606914	1.487832	0.212238	99
Es	2.575061	1.182793	0.164884	99
Es	-1.047383	-1.992576	-0.775121	99
Es	-1.917743	0.029797	0.221288	99
Es	-0.997584	0.477591	0.111233	99
Es	-0.005560	-2.625170	-0.651175	99
Es	-0.336850	-2.002020	-0.582480	99
Es	0.328224	-0.930624	-0.125448	99
Es	0.551661	1.491435	0.231824	99
Es	0.252003	2.124548	0.325386	99
Es	1.296483	1.467617	0.225360	99
Es	-1.574941	0.522562	-0.075986	99
Es	3.108056	1.491386	0.231860	99
Es	-0.096915	-1.516030	-0.040012	99
Es	1.035833	-0.997918	0.031665	99
Es	0.343269	1.049489	0.339716	99
Es	1.957110	1.491313	0.231836	99
38
Properties=species:S:1:pos:R:3:Z:I:1 energy=-301.80079715992474 field_type=dipole dipole="0.000000 0.000000 0.000000" charge=0
N	-1.613431	0.517817	0.082657	7
C	-0.231681	0.407447	0.061277	6
C	0.328219	-0.930763	-0.125473	6
C	-0.336791	-2.001953	-0.582463	6
C	0.551489	1.491387	0.231857	6
C	1.957489	1.491387	0.231857	6
N	3.108499	1.491387	0.231857	7
H	-1.963591	1.367427	0.516177	1
H	-2.068411	-0.309893	0.462057	1
H	1.383539	-1.071983	0.106847	1
H	-1.377871	-1.961613	-0.883613	1
H	0.172749	-2.953753	-0.698523	1
H	0.089789	2.463107	0.365487	1
Es	-1.613292	0.517799	0.082931	99
Es	0.551658	1.491429	0.231859	99
Es	0.344472	1.051509	0.332374	99
Es	0.252128	2.123984	0.325648	99
Es	0.328222	-0.930628	-0.125441	99
Es	-1.047306	-1.993100	-0.775190	99
Es	0.034455	-0.262121	-0.040260	99
Es	3.471473	1.552230	0.246034	99
Es	-0.336849	-2.002020	-0.582481	99
Es	0.177249	0.974685	-0.019225	99
Es	-0.005741	-2.624547	-0.651130	99
Es	-1.807721	1.006106	0.336621	99
Es	1.957110	1.491313	0.231843	99
Es	-0.096934	-1.516136	-0.040210	99
Es	-1.918058	0.030299	0.219494	99
Es	2.574890	1.183682	0.162309	99
Es	1.035803	-0.997508	0.031846	99
Es	1.296598	1.467701	0.225491	99
Es	3.108061	1.491386	0.231860	99
Es	-0.997514	0.477982	0.110495	99
Es	0.073128	-1.346113	-0.636777	99
Es	2.606936	1.486069	0.218988	99
Es	2.569993	1.760197	0.306962	99
Es	-0.231862	0.407360	0.061245	99
Es	-1.574000	0.521694	-0.072530	99
38
Properties=species:S:1:pos:R:3:Z:I:1 energy=-301.80079715992474 field_type=dipole dipole="0.000000 0.000000 0.000000" charge=0
N	-1.613431	0.517817	0.082657	7
C	-0.231681	0.407447	0.061277	6
C	0.328219	-0.930763	-0.125473	6
C	-0.336791	-2.001953	-0.582463	6
C	0.551489	1.491387	0.231857	6
C	1.957489	1.491387	0.231857	6
N	3.108499	1.491387	0.231857	7
H	-1.963591	1.367427	0.516177	1
H	-2.068411	-0.309893	0.462057	1
H	1.383539	-1.071983	0.106847	1
H	-1.377871	-1.961613	-0.883613	1
H	0.172749	-2.953753	-0.698523	1
H	0.089789	2.463107	0.365487	1
Es	-0.997536	0.478079	0.110806	99
Es	-0.231862	0.407360	0.061245	99
Es	-1.918206	0.030577	0.218367	99
Es	-1.047206	-1.993441	-0.775363	99
Es	0.034481	-0.261937	-0.040189	99
Es	-0.096956	-1.516141	-0.040083	99
Es	-1.807376	1.005369	0.336937	99
Es	0.252356	2.123520	0.325510	99
Es	0.551658	1.491437	0.231794	99
Es	2.574949	1.183134	0.164858	99
Es	3.108053	1.491386	0.231858	99
Es	-1.574106	0.521717	-0.072026	99
Es	3.470970	1.553173	0.246513	99
Es	2.570340	1.758310	0.310748	99
Es	0.073164	-1.346111	-0.636932	99
Es	0.346309	1.054831	0.320208	99
Es	-0.336851	-2.002019	-0.582476	99
Es	1.957112	1.491307	0.231843	99
Es	1.035778	-0.997430	0.031943	99
Es	-1.613311	0.517800	0.082877	99
Es	0.328225	-0.930628	-0.125448	99
Es	1.296690	1.467732	0.225630	99
Es	-0.005890	-2.624137	-0.651119	99
Es	0.175220	0.971553	-0.007188	99
Es	2.606897	1.487809	0.212445	99
38
Properties=species:S:1:pos:R:3:Z:I:1 energy=-301.80079715992474 field_type=dipole dipole="0.000000 0.000000 0.000000" charge=0
N	-1.613431	0.517817	0.082657	7
C	-0.231681	0.407447	0.061277	6
C	0.328219	-0.930763	-0.125473	6
C	-0.336791	-2.001953	-0.582463	6
C	0.551489	1.491387	0.231857	6
C	1.957489	1.491387	0.231857	6
N	3.108499	1.491387	0.231857	7
H	-1.963591	1.367427	0.516177	1
H	-2.068411	-0.309893	0.462057	1
H	1.383539	-1.071983	0.106847	1
H	-1.377871	-1.961613	-0.883613	1
H	0.172749	-2.953753	-0.698523	1
H	0.089789	2.463107	0.365487	1
Es	-0.097044	-1.516344	-0.040720	99
Es	0.551661	1.491434	0.231839	99
Es	-0.005984	-2.623725	-0.651002	99
Es	1.957104	1.491330	0.231845	99
Es	0.328224	-0.930628	-0.125446	99
Es	-1.613491	0.517850	0.080549	99
Es	0.347123	1.056369	0.314251	99
Es	1.035721	-0.996899	0.032103	99
Es	2.574981	1.182914	0.165807	99
Es	0.034562	-0.262438	-0.040430	99
Es	-0.997487	0.478310	0.110575	99
Es	-1.918599	0.031222	0.216553	99
Es	0.073241	-1.345932	-0.636282	99
Es	2.606848	1.488784	0.208937	99
Es	3.470592	1.553813	0.246985	99
Es	-1.807066	1.004847	0.337009	99
Es	-0.336849	-2.002019	-0.582483	99
Es	-1.047144	-1.993847	-0.775366	99
Es	-1.573858	0.521260	-0.067724	99
Es	1.296756	1.467871	0.225771	99
Es	2.570588	1.757156	0.312875	99
Es	3.108059	1.491387	0.231859	99
Es	-0.231862	0.407359	0.061245	99
Es	0.174437	0.970040	-0.001471	99
Es	0.252387	2.123137	0.325477	99
38
Properties=species:S:1:pos:R:3:Z:I:1 energy=-301.80079715992474 field_type=dipole dipole="0.000000 0.000000 0.000000" charge=0
N	-1.613431	0.517817	0.082657	7
C	-0.231681	0.407447	0.061277	6
C	0.328219	-0.930763	-0.125473	6
C	-0.336791	-2.001953	-0.582463	6
C	0.551489	1.491387	0.231857	6
C	1.957489	1.491387	0.231857	6
N	3.108499	1.491387	0.231857	7
H	-1.963591	1.367427	0.516177	1
H	-2.068411	-0.309893	0.462057	1
H	1.383539	-1.071983	0.106847	1
H	-1.377871	-1.961613	-0.883613	1
H	0.172749	-2.953753	-0.698523	1
H	0.089789	2.463107	0.365487	1
Es	0.252401	2.122858	0.325892	99
Es	0.347891	1.057836	0.308250	99
Es	-0.336849	-2.002020	-0.582481	99
Es	-1.047058	-1.994365	-0.775319	99
Es	0.551661	1.491432	0.231839	99
Es	3.470231	1.554575	0.246913	99
Es	-1.807395	1.004770	0.335924	99
Es	1.957111	1.491309	0.231843	99
Es	-0.006133	-2.623175	-0.650929	99
Es	0.173697	0.968681	0.003940	99
Es	0.328225	-0.930628	-0.125451	99
Es	-1.609604	0.517656	0.078364	99
Es	1.035750	-0.996704	0.031998	99
Es	2.570945	1.755515	0.316022	99
Es	-0.096940	-1.516501	-0.041036	99
Es	0.073190	-1.345788	-0.636051	99
Es	0.034505	-0.262502	-0.040366	99
Es	2.606794	1.489980	0.204866	99
Es	2.574888	1.182884	0.166932	99
Es	3.108060	1.491386	0.231859	99
Es	-0.997523	0.478644	0.111097	99
Es	-0.231862	0.407360	0.061245	99
Es	1.296867	1.467770	0.225841	99
Es	-1.918742	0.031438	0.215954	99
Es	-1.577211	0.520839	-0.064391	99
38
Properties=species:S:1:pos:R:3:Z:I:1 energy=-301.80079715992474 field_type=dipole dipole="0.000000 0.000000 0.000000" charge=0
N	-1.613431	0.517817	0.082657	7
C	-0.231681	0.407447	0.061277	6
C	0.328219	-0.930763	-0.125473	6
C	-0.336791	-2.001953	-0.582463	6
C	0.551489	1.491387	0.231857	6
C	1.957489	1.491387	0.231857	6
N	3.108499	1.491387	0.231857	7
H	-1.963591	1.367427	0.516177	1
H	-2.068411	-0.309893	0.462057	1
H	1.383539	-1.071983	0.106847	1
H	-1.377871	-1.961613	-0.883613	1
H	0.172749	-2.953753	-0.698523	1
H	0.089789	2.463107	0.365487	1
Es	1.296931	1.467837	0.226068	99
Es	-0.096967	-1.516498	-0.040987	99
Es	2.570985	1.757224	0.309144	99
Es	0.348308	1.058684	0.304865	99
Es	-1.047018	-1.994525	-0.775373	99
Es	3.470011	1.554975	0.247194	99
Es	0.034515	-0.262756	-0.040450	99
Es	-0.231862	0.407360	0.061244	99
Es	1.957112	1.491304	0.231844	99
Es	0.252549	2.122458	0.325787	99
Es	0.073226	-1.345833	-0.636080	99
Es	0.551661	1.491433	0.231840	99
Es	-1.918924	0.031926	0.213958	99
Es	0.173238	0.967908	0.007188	99
Es	1.035668	-0.996202	0.032083	99
Es	-1.610315	0.517687	0.079813	99
Es	-0.006203	-2.622985	-0.650862	99
Es	2.606867	1.486833	0.216460	99
Es	0.328225	-0.930628	-0.125449	99
Es	-1.576115	0.519863	-0.062413	99
Es	2.574864	1.184179	0.161911	99
Es	-1.807583	1.004704	0.335392	99
Es	-0.997487	0.478952	0.110202	99
Es	3.108059	1.491386	0.231859	99
Es	-0.336846	-2.002036	-0.582482	99
38
Properties=species:S:1:pos:R:3:Z:I:1 energy=-301.80079715992474 field_type=dipole dipole="0.000000 0.000000 0.000000" charge=0
N	-1.613431	0.517817	0.082657	7
C	-0.231681	0.407447	0.061277	6
C	0.328219	-0.930763	-0.125473	6
C	-0.336791	-2.001953	-0.582463	6
C	0.551489	1.491387	0.231857	6
C	1.957489	1.491387	0.231857	6
N	3.108499	1.491387	0.231857	7
H	-1.963591	1.367427	0.516177	1
H	-2.068411	-0.309893	0.462057	1
H	1.383539	-1.071983	0.106847	1
H	-1.377871	-1.961613	-0.883613	1
H	0.172749	-2.953753	-0.698523	1
H	0.089789	2.463107	0.365487	1
Es	2.606853	1.485005	0.223575	99
Es	1.957111	1.491304	0.231866	99
Es	-1.573251	0.519792	-0.066037	99
Es	-0.231862	0.407358	0.061247	99
Es	-1.807356	1.004153	0.335393	99
Es	1.296952	1.468025	0.226156	99
Es	-1.919092	0.032215	0.213167	99
Es	0.172243	0.966297	0.014309	99
Es	3.108060	1.491386	0.231859	99
Es	0.034585	-0.262658	-0.040445	99
Es	0.349180	1.060459	0.297473	99
Es	-0.997541	0.479008	0.111186	99
Es	-1.613143	0.517793	0.083208	99
Es	1.035709	-0.996258	0.032092	99
Es	0.073255	-1.345681	-0.635579	99
Es	2.571121	1.757597	0.306144	99
Es	-1.046990	-1.994709	-0.775386	99
Es	3.469619	1.555646	0.247459	99
Es	0.252690	2.122003	0.325881	99
Es	0.328225	-0.930628	-0.125451	99
Es	-0.336848	-2.002020	-0.582483	99
Es	-0.097036	-1.516583	-0.041655	99
Es	-0.006284	-2.622802	-0.650692	99
Es	0.551660	1.491432	0.231842	99
Es	2.575040	1.185117	0.157626	99
38
Properties=species:S:1:pos:R:3:Z:I:1 energy=-301.80079715992474 field_type=dipole dipole="0.000000 0.000000 0.000000" charge=0
N	-1.613431	0.517817	0.082657	7
C	-0.231681	0.407447	0.061277	6
C	0.328219	-0.930763	-0.125473	6
C	-0.336791	-2.001953	-0.582463	6
C	0.551489	1.491387	0.231857	6
C	1.957489	1.491387	0.231857	6
N	3.108499	1.491387	0.231857	7
H	-1.963591	1.367427	0.516177	1
H	-2.068411	-0.309893	0.462057	1
H	1.383539	-1.071983	0.106847	1
H	-1.377871	-1.961613	-0.883613	1
H	0.172749	-2.953753	-0.698523	1
H	0.089789	2.463107	0.365487	1
Es	-0.006361	-2.622435	-0.650847	99
Es	1.297030	1.467929	0.226316	99
Es	2.606844	1.486423	0.218174	99
Es	0.034584	-0.262977	-0.040417	99
Es	-1.807273	1.003825	0.335080	99
Es	0.171416	0.964531	0.021796	99
Es	0.328224	-0.930628	-0.125448	99
Es	3.108060	1.491386	0.231859	99
Es	0.551661	1.491437	0.231838	99
Es	-1.919282	0.032553	0.212109	99
Es	-1.046903	-1.995031	-0.775470	99
Es	1.035637	-0.995957	0.032289	99
Es	-0.096988	-1.516522	-0.041143	99
Es	0.073211	-1.345764	-0.636088	99
Es	-0.231862	0.407360	0.061245	99
Es	0.350021	1.062319	0.289506	99
Es	3.469478	1.555862	0.247866	99
Es	1.957112	1.491306	0.231838	99
Es	-0.336850	-2.002019	-0.582482	99
Es	-1.613127	0.517787	0.083193	99
Es	-1.573082	0.519406	-0.064769	99
Es	2.574872	1.184550	0.160792	99
Es	0.252736	2.121801	0.326064	99
Es	2.571321	1.756712	0.308153	99
Es	-0.997581	0.479395	0.111303	99
38
Properties=species:S:1:pos:R:3:Z:I:1 energy=-301.80079715992474 field_type=dipole dipole="0.000000 0.000000 0.000000" charge=0
N	-1.613431	0.517817	0.082657	7
C	-0.231681	0.407447	0.061277	6
C	0.328219	-0.930763	-0.125473	6
C	-0.336791	-2.001953	-0.582463	6
C	0.551489	1.491387	0.231857	6
C	1.957489	1.491387	0.231857	6
N	3.108499	1.491387	0.231857	7
H	-1.963591	1.367427	0.516177	1
H	-2.068411	-0.309893	0.462057	1
H	1.383539	-1.071983	0.106847	1
H	-1.377871	-1.961613	-0.883613	1
H	0.172749	-2.953753	-0.698523	1
H	0.089789	2.463107	0.365487	1
Es	1.957113	1.491302	0.231841	99
Es	2.571421	1.757368	0.304693	99
Es	-1.572467	0.518733	-0.058693	99
Es	1.297098	1.467910	0.226419	99
Es	-1.807478	1.003795	0.334298	99
Es	-0.336851	-2.002020	-0.582476	99
Es	2.606844	1.484398	0.225931	99
Es	-0.231862	0.407359	0.061244	99
Es	-1.613359	0.517860	0.078790	99
Es	0.350002	1.062307	0.289572	99
Es	0.073175	-1.345610	-0.635409	99
Es	-1.046842	-1.995272	-0.775473	99
Es	3.108059	1.491387	0.231859	99
Es	-0.096970	-1.516700	-0.041697	99
Es	-1.919424	0.032799	0.211453	99
Es	0.252790	2.121540	0.326176	99
Es	2.574929	1.185672	0.156505	99
Es	3.469219	1.556338	0.247796	99
Es	0.034543	-0.263002	-0.040538	99
Es	0.328221	-0.930630	-0.125434	99
Es	0.171402	0.964621	0.021566	99
Es	-0.997563	0.479583	0.111087	99
Es	0.551660	1.491430	0.231852	99
Es	1.035664	-0.995709	0.032176	99
Es	-0.006426	-2.622209	-0.650785	99
38
Properties=species:S:1:pos:R:3:Z:I:1 energy=-301.80079715992474 field_type=dipole dipole="0.000000 0.000000 0.000000" charge=0
N	-1.613431	0.517817	0.082657	7
C	-0.231681	0.407447	0.061277	6
C	0.328219	-0.930763	-0.125473	6
C	-0.336791	-2.001953	-0.582463	6
C	0.551489	1.491387	0.231857	6
C	1.957489	1.491387	0.231857	6
N	3.108499	1.491387	0.231857	7
H	-1.963591	1.367427	0.516177	1
H	-2.068411	-0.309893	0.462057	1
H	1.383539	-1.071983	0.106847	1
H	-1.377871	-1.961613	-0.883613	1
H	0.172749	-2.953753	-0.698523	1
H	0.089789	2.463107	0.365487	1
Es	-0.097021	-1.516840	-0.042219	99
Es	1.957114	1.491301	0.231834	99
Es	-0.336851	-2.002021	-0.582472	99
Es	2.571507	1.756642	0.306978	99
Es	-1.612822	0.517890	0.074490	99
Es	0.073149	-1.345393	-0.634921	99
Es	-0.006440	-2.622107	-0.650737	99
Es	3.108058	1.491385	0.231859	99
Es	0.551660	1.491442	0.231851	99
Es	-1.807089	1.003356	0.334865	99
Es	0.171169	0.964042	0.023973	99
Es	0.252833	2.121351	0.326214	99
Es	-1.573194	0.518509	-0.052943	99
Es	-0.231861	0.407360	0.061243	99
Es	2.574763	1.185245	0.159097	99
Es	2.606838	1.485680	0.221079	99
Es	-1.919621	0.033263	0.209930	99
Es	0.350286	1.062870	0.287037	99
Es	1.297189	1.467853	0.226345	99
Es	1.035618	-0.995595	0.032179	99
Es	-1.046822	-1.995400	-0.775432	99
Es	-0.997547	0.479573	0.110567	99
Es	0.034611	-0.262985	-0.040531	99
Es	0.328223	-0.930630	-0.125442	99
Es	3.469152	1.556457	0.247913	99
38
Properties=species:S:1:pos:R:3:Z:I:1 energy=-301.80079715992474 field_type=dipole dipole="0.000000 0.000000 0.000000" charge=0
N	-1.613431	0.517817	0.082657	7
C	-0.231681	0.407447	0.061277	6
C	0.328219	-0.930763	-0.125473	6
C	-0.336791	-2.001953	-0.582463	6
C	0.551489	1.491387	0.231857	6
C	1.957489	1.491387	0.231857	6
N	3.108499	1.491387	0.231857	7
H	-1.963591	1.367427	0.516177	1
H	-2.068411	-0.309893	0.462057	1
H	1.383539	-1.071983	0.106847	1
H	-1.377871	-1.961613	-0.883613	1
H	0.172749	-2.953753	-0.698523	1
H	0.089789	2.463107	0.365487	1
Es	0.551658	1.491420	0.231886	99