42
Properties=species:S:1:pos:R:3:Z:I:1 energy=-343.79397954799214 field_type=dipole dipole="0.000000 0.000000 0.000000" charge=0
C	1.387186	-0.121086	-0.025347	6
C	0.472406	-1.156266	0.604843	6
O	-0.667044	-1.458186	-0.203967	8
C	-1.669634	-0.526686	-0.121247	6
C	-1.562664	0.781864	0.145183	6
O	-0.418904	1.531664	0.248273	8
C	0.642596	1.074964	-0.594137	6
H	1.970266	-0.577966	-0.833807	1
H	2.105056	0.211614	0.733533	1
H	1.031516	-2.089996	0.735043	1
H	0.157666	-0.853636	1.613153	1
H	-2.627924	-1.004876	-0.289027	1
H	-2.430564	1.413284	0.297733	1
H	1.345816	1.908394	-0.705797	1
H	0.264226	0.866914	-1.604437	1
Es	-0.256996	-1.307925	0.104222	99
Es	-1.669444	-0.526898	-0.121301	99
Es	0.472235	-1.156286	0.604675	99
Es	1.125519	1.642204	-0.665220	99
Es	-0.418951	1.531370	0.248078	99
Es	0.856860	-1.792586	0.688256	99
Es	1.002877	0.465658	-0.300120	99
Es	1.872204	0.103327	0.496968	99
Es	-2.321191	-0.840073	-0.232316	99
Es	-0.043874	1.326087	-0.072083	99
Es	0.920291	-0.625320	0.280713	99
Es	-0.504227	1.800882	0.144933	99
Es	-0.836071	1.208081	0.188287	99
Es	1.387159	-0.121083	-0.025347	99
Es	-0.587133	-1.428043	-0.482020	99
Es	1.780666	-0.429683	-0.580139	99
Es	0.252788	-0.939017	1.288510	99
Es	-0.340367	1.481834	0.525298	99
Es	-1.024459	-1.068774	-0.150713	99
Es	0.642430	1.075004	-0.593964	99
Es	-1.633971	0.054673	0.348002	99
Es	-0.794015	-1.707216	-0.093734	99
Es	0.377625	0.922834	-1.279948	99
Es	-1.562440	0.782046	0.145241	99
Es	-2.155074	1.199497	0.245642	99
Es	-0.667063	-1.457851	-0.203684	99
Es	-1.615365	0.204490	-0.324415	99
42
Properties=species:S:1:pos:R:3:Z:I:1 energy=-343.79397954799214 field_type=dipole dipole="0.000000 0.000000 0.000000" charge=0
C	1.387186	-0.121086	-0.025347	6
C	0.472406	-1.156266	0.604843	6
O	-0.667044	-1.458186	-0.203967	8
C	-1.669634	-0.526686	-0.121247	6
C	-1.562664	0.781864	0.145183	6
O	-0.418904	1.531664	0.248273	8
C	0.642596	1.074964	-0.594137	6
H	1.970266	-0.577966	-0.833807	1
H	2.105056	0.211614	0.733533	1
H	1.031516	-2.089996	0.735043	1
H	0.157666	-0.853636	1.613153	1
H	-2.627924	-1.004876	-0.289027	1
H	-2.430564	1.413284	0.297733	1
H	1.345816	1.908394	-0.705797	1
H	0.264226	0.866914	-1.604437	1
Es	0.642429	1.075005	-0.593961	99
Es	0.472228	-1.156288	0.604670	99
Es	-0.792925	-1.719192	-0.101275	99
Es	-1.614848	0.204279	-0.323883	99
Es	-0.043527	1.325364	-0.070244	99
Es	-1.562438	0.782048	0.145248	99
Es	1.126247	1.642699	-0.665494	99
Es	1.002203	0.465327	-0.300311	99
Es	-2.321359	-0.839828	-0.233442	99
Es	1.872166	0.103475	0.497212	99
Es	-1.633554	0.054798	0.347572	99
Es	1.780694	-0.429797	-0.580277	99
Es	0.919561	-0.625005	0.280774	99
Es	-1.025044	-1.067887	-0.151405	99
Es	-2.155301	1.199245	0.246720	99
Es	0.857625	-1.793146	0.688444	99
Es	-0.501091	1.813662	0.154494	99
Es	-0.257103	-1.307111	0.102338	99
Es	-0.343528	1.470529	0.514066	99
Es	-0.418969	1.531384	0.248040	99
Es	-1.669440	-0.526910	-0.121307	99
Es	-0.667009	-1.457797	-0.203767	99
Es	0.252692	-0.938589	1.287951	99
Es	1.387159	-0.121083	-0.025346	99
Es	-0.587780	-1.417961	-0.472181	99
Es	0.377462	0.922516	-1.279297	99
Es	-0.836537	1.207496	0.188483	99
42
Properties=species:S:1:pos:R:3:Z:I:1 energy=-343.79397954799214 field_type=dipole dipole="0.000000 0.000000 0.000000" charge=0
C	1.387186	-0.121086	-0.025347	6
C	0.472406	-1.156266	0.604843	6
O	-0.667044	-1.458186	-0.203967	8
C	-1.669634	-0.526686	-0.121247	6
C	-1.562664	0.781864	0.145183	6
O	-0.418904	1.531664	0.248273	8
C	0.642596	1.074964	-0.594137	6
H	1.970266	-0.577966	-0.833807	1
H	2.105056	0.211614	0.733533	1
H	1.031516	-2.089996	0.735043	1
H	0.157666	-0.853636	1.613153	1
H	-2.627924	-1.004876	-0.289027	1
H	-2.430564	1.413284	0.297733	1
H	1.345816	1.908394	-0.705797	1
H	0.264226	0.866914	-1.604437	1
Es	-0.666997	-1.457791	-0.203827	99
Es	1.780671	-0.429969	-0.580571	99
Es	-0.492805	1.829221	0.175917	99
Es	0.857924	-1.793333	0.688443	99
Es	1.387158	-0.121083	-0.025346	99
Es	-0.588648	-1.402658	-0.460041	99
Es	-0.349137	1.451133	0.497858	99
Es	-0.838971	1.211118	0.184261	99
Es	0.642434	1.075005	-0.593964	99
Es	-2.155320	1.198996	0.247776	99
Es	0.472237	-1.156290	0.604674	99
Es	0.252576	-0.938246	1.287879	99
Es	-1.633290	0.054848	0.347462	99
Es	-1.026263	-1.069505	-0.149680	99
Es	1.126542	1.642834	-0.665426	99
Es	-1.562438	0.782049	0.145246	99
Es	1.001805	0.465366	-0.300139	99
Es	-0.790434	-1.732212	-0.117172	99
Es	0.919401	-0.624928	0.280777	99
Es	0.377317	0.922251	-1.279279	99
Es	-0.043923	1.325759	-0.070915	99
Es	-0.418928	1.531249	0.248067	99
Es	-2.321315	-0.839561	-0.234423	99
Es	-1.614646	0.204213	-0.323876	99
Es	-1.669443	-0.526904	-0.121314	99
Es	-0.257653	-1.307845	0.104023	99
Es	1.872159	0.103516	0.497412	99
42
Properties=species:S:1:pos:R:3:Z:I:1 energy=-343.79397954799214 field_type=dipole dipole="0.000000 0.000000 0.000000" charge=0
C	1.387186	-0.121086	-0.025347	6
C	0.472406	-1.156266	0.604843	6
O	-0.667044	-1.458186	-0.203967	8
C	-1.669634	-0.526686	-0.121247	6
C	-1.562664	0.781864	0.145183	6
O	-0.418904	1.531664	0.248273	8
C	0.642596	1.074964	-0.594137	6
H	1.970266	-0.577966	-0.833807	1
H	2.105056	0.211614	0.733533	1
H	1.031516	-2.089996	0.735043	1
H	0.157666	-0.853636	1.613153	1
H	-2.627924	-1.004876	-0.289027	1
H	-2.430564	1.413284	0.297733	1
H	1.345816	1.908394	-0.705797	1
H	0.264226	0.866914	-1.604437	1
Es	-0.489364	1.836702	0.190767	99
Es	-0.839345	1.211713	0.183722	99
Es	1.001713	0.465258	-0.299975	99
Es	0.472233	-1.156285	0.604673	99
Es	0.919294	-0.624939	0.280423	99
Es	-0.418990	1.531366	0.248017	99
Es	0.377198	0.921998	-1.279225	99
Es	1.387159	-0.121082	-0.025346	99
Es	1.126655	1.642868	-0.665534	99
Es	-0.787449	-1.742011	-0.132028	99
Es	-1.614616	0.204186	-0.323914	99
Es	-2.321159	-0.839379	-0.235194	99
Es	0.642432	1.075006	-0.593963	99
Es	1.872030	0.103624	0.497820	99
Es	-0.258852	-1.308978	0.105788	99
Es	-0.667003	-1.457862	-0.203816	99
Es	-0.589407	-1.390263	-0.449307	99
Es	-0.351361	1.441183	0.486252	99
Es	0.858010	-1.793327	0.688365	99
Es	-1.027322	-1.070965	-0.147615	99
Es	-1.669441	-0.526908	-0.121313	99
Es	-1.633346	0.054814	0.347756	99
Es	-2.155177	1.198783	0.248304	99
Es	-1.562436	0.782053	0.145245	99
Es	1.780784	-0.430108	-0.580802	99
Es	0.252507	-0.937908	1.288045	99
Es	-0.044734	1.327693	-0.073324	99
42
Properties=species:S:1:pos:R:3:Z:I:1 energy=-343.79397954799214 field_type=dipole dipole="0.000000 0.000000 0.000000" charge=0
C	1.387186	-0.121086	-0.025347	6
C	0.472406	-1.156266	0.604843	6
O	-0.667044	-1.458186	-0.203967	8
C	-1.669634	-0.526686	-0.121247	6
C	-1.562664	0.781864	0.145183	6
O	-0.418904	1.531664	0.248273	8
C	0.642596	1.074964	-0.594137	6
H	1.970266	-0.577966	-0.833807	1
H	2.105056	0.211614	0.733533	1
H	1.031516	-2.089996	0.735043	1
H	0.157666	-0.853636	1.613153	1
H	-2.627924	-1.004876	-0.289027	1
H	-2.430564	1.413284	0.297733	1
H	1.345816	1.908394	-0.705797	1
H	0.264226	0.866914	-1.604437	1
Es	-0.590188	-1.385872	-0.444198	99
Es	0.642431	1.075006	-0.593963	99
Es	-0.259201	-1.309122	0.105863	99
Es	-0.786354	-1.746119	-0.137815	99
Es	1.126833	1.642844	-0.665278	99
Es	-1.614624	0.204230	-0.324128	99
Es	-1.669439	-0.526910	-0.121310	99
Es	-1.633240	0.054824	0.347720	99
Es	1.387158	-0.121082	-0.025346	99
Es	0.472230	-1.156285	0.604673	99
Es	-0.046134	1.328772	-0.074493	99
Es	-0.840203	1.214017	0.180588	99
Es	-2.155169	1.198606	0.248803	99
Es	-1.562436	0.782052	0.145246	99
Es	1.001405	0.465122	-0.299936	99
Es	1.780693	-0.430361	-0.580964	99
Es	-0.484812	1.841953	0.202540	99
Es	0.377179	0.922013	-1.279389	99
Es	0.858269	-1.793394	0.688246	99
Es	-2.321014	-0.839229	-0.235460	99
Es	0.252499	-0.937826	1.288044	99
Es	1.872092	0.103770	0.497858	99
Es	-0.667042	-1.457875	-0.203770	99
Es	0.919124	-0.624687	0.280586	99
Es	-0.418898	1.531218	0.248135	99
Es	-0.353808	1.432771	0.478708	99
Es	-1.027337	-1.071203	-0.147136	99
42
Properties=species:S:1:pos:R:3:Z:I:1 energy=-343.79397954799214 field_type=dipole dipole="0.000000 0.000000 0.000000" charge=0
C	1.387186	-0.121086	-0.025347	6
C	0.472406	-1.156266	0.604843	6
O	-0.667044	-1.458186	-0.203967	8
C	-1.669634	-0.526686	-0.121247	6
C	-1.562664	0.781864	0.145183	6
O	-0.418904	1.531664	0.248273	8
C	0.642596	1.074964	-0.594137	6
H	1.970266	-0.577966	-0.833807	1
H	2.105056	0.211614	0.733533	1
H	1.031516	-2.089996	0.735043	1
H	0.157666	-0.853636	1.613153	1
H	-2.627924	-1.004876	-0.289027	1
H	-2.430564	1.413284	0.297733	1
H	1.345816	1.908394	-0.705797	1
H	0.264226	0.866914	-1.604437	1
Es	0.642435	1.075006	-0.593966	99
Es	-0.418963	1.531341	0.248010	99
Es	-1.669440	-0.526908	-0.121312	99
Es	-2.154995	1.198488	0.249161	99
Es	1.780616	-0.430521	-0.581213	99
Es	-0.485506	1.842802	0.202976	99
Es	-1.614573	0.204266	-0.324406	99
Es	0.858267	-1.793380	0.688179	99
Es	-1.633280	0.054780	0.347949	99
Es	-2.320901	-0.839131	-0.235789	99
Es	0.919143	-0.624427	0.280483	99
Es	0.472233	-1.156286	0.604673	99
Es	1.126938	1.642866	-0.665300	99
Es	-0.839651	1.212661	0.182780	99
Es	-1.028280	-1.072003	-0.145657	99
Es	-0.046076	1.328487	-0.074533	99
Es	-0.783672	-1.751344	-0.148741	99
Es	0.252449	-0.937807	1.288133	99
Es	-0.667037	-1.457886	-0.203664	99
Es	-1.562437	0.782050	0.145251	99
Es	1.387158	-0.121082	-0.025346	99
Es	-0.591751	-1.378952	-0.435833	99
Es	-0.259474	-1.310053	0.106701	99
Es	1.872123	0.103820	0.498023	99
Es	1.001317	0.465047	-0.299798	99
Es	0.377096	0.921891	-1.279363	99
Es	-0.353729	1.433508	0.476426	99
42
Properties=species:S:1:pos:R:3:Z:I:1 energy=-343.79397954799214 field_type=dipole dipole="0.000000 0.000000 0.000000" charge=0
C	1.387186	-0.121086	-0.025347	6
C	0.472406	-1.156266	0.604843	6
O	-0.667044	-1.458186	-0.203967	8
C	-1.669634	-0.526686	-0.121247	6
C	-1.562664	0.781864	0.145183	6
O	-0.418904	1.531664	0.248273	8
C	0.642596	1.074964	-0.594137	6
H	1.970266	-0.577966	-0.833807	1
H	2.105056	0.211614	0.733533	1
H	1.031516	-2.089996	0.735043	1
H	0.157666	-0.853636	1.613153	1
H	-2.627924	-1.004876	-0.289027	1
H	-2.430564	1.413284	0.297733	1
H	1.345816	1.908394	-0.705797	1
H	0.264226	0.866914	-1.604437	1
Es	1.872010	0.103879	0.498045	99
Es	0.919052	-0.624538	0.280454	99
Es	-0.260187	-1.310689	0.108370	99
Es	1.780745	-0.430409	-0.581235	99
Es	1.126914	1.642813	-0.665189	99
Es	-0.592867	-1.372377	-0.428160	99
Es	-0.781255	-1.755804	-0.159302	99
Es	-1.614625	0.204351	-0.324643	99
Es	0.642433	1.075005	-0.593965	99
Es	-0.667066	-1.457893	-0.203764	99
Es	-0.482770	1.846187	0.212448	99
Es	1.387158	-0.121082	-0.025346	99
Es	-0.419027	1.531382	0.247940	99
Es	0.252439	-0.937869	1.288285	99
Es	-1.669440	-0.526910	-0.121311	99
Es	-2.320757	-0.839085	-0.235906	99
Es	-1.562437	0.782049	0.145251	99
Es	-0.839869	1.213774	0.181880	99
Es	0.858277	-1.793311	0.688021	99
Es	-1.633360	0.054697	0.348293	99
Es	-2.154859	1.198462	0.249170	99
Es	0.377081	0.921837	-1.279539	99
Es	-0.355312	1.428103	0.469483	99
Es	0.472239	-1.156286	0.604678	99
Es	1.001376	0.465101	-0.299743	99
Es	-0.047001	1.329361	-0.076080	99
Es	-1.028880	-1.073515	-0.144313	99
42
Properties=species:S:1:pos:R:3:Z:I:1 energy=-343.79397954799214 field_type=dipole dipole="0.000000 0.000000 0.000000" charge=0
C	1.387186	-0.121086	-0.025347	6
C	0.472406	-1.156266	0.604843	6
O	-0.667044	-1.458186	-0.203967	8
C	-1.669634	-0.526686	-0.121247	6
C	-1.562664	0.781864	0.145183	6
O	-0.418904	1.531664	0.248273	8
C	0.642596	1.074964	-0.594137	6
H	1.970266	-0.577966	-0.833807	1
H	2.105056	0.211614	0.733533	1
H	1.031516	-2.089996	0.735043	1
H	0.157666	-0.853636	1.613153	1
H	-2.627924	-1.004876	-0.289027	1
H	-2.430564	1.413284	0.297733	1
H	1.345816	1.908394	-0.705797	1
H	0.264226	0.866914	-1.604437	1
Es	-0.591623	-1.372160	-0.428218	99
Es	-1.669439	-0.526910	-0.121311	99
Es	-2.154848	1.198434	0.249306	99
Es	-0.356643	1.424718	0.463684	99
Es	-0.667110	-1.457872	-0.203683	99
Es	-0.840682	1.214423	0.181061	99
Es	1.126906	1.642816	-0.665160	99
Es	0.377079	0.921888	-1.279544	99
Es	0.472242	-1.156287	0.604680	99
Es	-1.029134	-1.073214	-0.144785	99
Es	1.780727	-0.430453	-0.581147	99
Es	1.387159	-0.121082	-0.025345	99
Es	0.642432	1.075006	-0.593962	99
Es	0.858324	-1.793371	0.688178	99
Es	-1.614643	0.204340	-0.324639	99
Es	-0.479613	1.848624	0.219388	99
Es	1.001276	0.464991	-0.299803	99
Es	-0.780853	-1.756095	-0.159646	99
Es	-1.562437	0.782050	0.145252	99
Es	-1.633296	0.054670	0.348375	99
Es	-2.320701	-0.839082	-0.236145	99
Es	-0.418905	1.531181	0.248179	99
Es	0.919061	-0.624702	0.280293	99
Es	1.872024	0.103914	0.498168	99
Es	-0.048159	1.329906	-0.076652	99
Es	-0.261563	-1.310938	0.109103	99
Es	0.252431	-0.937559	1.288196	99
42
Properties=species:S:1:pos:R:3:Z:I:1 energy=-343.79397954799214 field_type=dipole dipole="0.000000 0.000000 0.000000" charge=0
C	1.387186	-0.121086	-0.025347	6
C	0.472406	-1.156266	0.604843	6
O	-0.667044	-1.458186	-0.203967	8
C	-1.669634	-0.526686	-0.121247	6
C	-1.562664	0.781864	0.145183	6
O	-0.418904	1.531664	0.248273	8
C	0.642596	1.074964	-0.594137	6
H	1.970266	-0.577966	-0.833807	1
H	2.105056	0.211614	0.733533	1
H	1.031516	-2.089996	0.735043	1
H	0.157666	-0.853636	1.613153	1
H	-2.627924	-1.004876	-0.289027	1
H	-2.430564	1.413284	0.297733	1
H	1.345816	1.908394	-0.705797	1
H	0.264226	0.866914	-1.604437	1
Es	-0.839796	1.213327	0.181843	99
Es	0.918926	-0.624420	0.280293	99
Es	-1.614660	0.204346	-0.324714	99
Es	1.780678	-0.430547	-0.581282	99
Es	-0.779670	-1.758827	-0.165701	99
Es	-0.356363	1.425314	0.463858	99
Es	1.872045	0.103845	0.498255	99
Es	-0.591852	-1.368430	-0.423931	99
Es	-1.669441	-0.526906	-0.121315	99
Es	-1.028924	-1.073728	-0.144041	99
Es	-2.320670	-0.839005	-0.236253	99
Es	-2.154813	1.198334	0.249487	99
Es	-0.262705	-1.311494	0.110022	99
Es	1.001255	0.465029	-0.299747	99
Es	1.127032	1.642796	-0.665072	99
Es	-0.481060	1.848639	0.218610	99
Es	0.858400	-1.793341	0.688077	99
Es	0.472234	-1.156287	0.604674	99
Es	0.377036	0.921861	-1.279581	99
Es	-0.418993	1.531372	0.247994	99
Es	0.252357	-0.937670	1.288254	99
Es	1.387159	-0.121083	-0.025348	99
Es	-0.047772	1.330241	-0.076537	99
Es	-0.667104	-1.457874	-0.203639	99
Es	-1.562437	0.782050	0.145252	99
Es	-1.633283	0.054683	0.348329	99
Es	0.642433	1.075004	-0.593965	99
42
Properties=species:S:1:pos:R:3:Z:I:1 energy=-343.79397954799214 field_type=dipole dipole="0.000000 0.000000 0.000000" charge=0
C	1.387186	-0.121086	-0.025347	6
C	0.472406	-1.156266	0.604843	6
O	-0.667044	-1.458186	-0.203967	8
C	-1.669634	-0.526686	-0.121247	6
C	-1.562664	0.781864	0.145183	6
O	-0.418904	1.531664	0.248273	8
C	0.642596	1.074964	-0.594137	6
H	1.970266	-0.577966	-0.833807	1
H	2.105056	0.211614	0.733533	1
H	1.031516	-2.089996	0.735043	1
H	0.157666	-0.853636	1.613153	1
H	-2.627924	-1.004876	-0.289027	1
H	-2.430564	1.413284	0.297733	1
H	1.345816	1.908394	-0.705797	1
H	0.264226	0.866914	-1.604437	1
Es	-0.419000	1.531368	0.247961	99
Es	-1.669440	-0.526907	-0.121317	99
Es	0.376916	0.921720	-1.279521	99
Es	-0.594166	-1.367637	-0.422127	99
Es	1.001375	0.465115	-0.299713	99
Es	-0.667076	-1.457873	-0.203679	99
Es	-1.633737	0.054594	0.348863	99
Es	1.387158	-0.121082	-0.025346	99
Es	1.872119	0.103840	0.498179	99
Es	1.127000	1.642850	-0.665220	99
Es	-1.029090	-1.074202	-0.142795	99
Es	0.642433	1.075004	-0.593969	99
Es	-0.357793	1.424216	0.462715	99
Es	-0.047359	1.329706	-0.075685	99
Es	-2.320446	-0.838906	-0.236446	99
Es	0.472233	-1.156284	0.604677	99
Es	1.780561	-0.430774	-0.581344	99
Es	-1.614349	0.204400	-0.325012	99
Es	0.858397	-1.793360	0.688056	99
Es	0.252341	-0.937632	1.288287	99
Es	0.918873	-0.624229	0.280400	99
Es	-0.479641	1.849356	0.220322	99
Es	-1.562437	0.782049	0.145253	99
Es	-0.778874	-1.759855	-0.166953	99
Es	-0.840239	1.214358	0.180491	99
Es	-2.154589	1.198274	0.249518	99
Es	-0.261157	-1.310878	0.108226	99
42
Properties=species:S:1:pos:R:3:Z:I:1 energy=-343.79397954799214 field_type=dipole dipole="0.000000 0.000000 0.000000" charge=0
C	1.387186	-0.121086	-0.025347	6
C	0.472406	-1.156266	0.604843	6
O	-0.667044	-1.458186	-0.203967	8
C	-1.669634	-0.526686	-0.121247	6
C	-1.562664	0.781864	0.145183	6
O	-0.418904	1.531664	0.248273	8
C	0.642596	1.074964	-0.594137	6
H	1.970266	-0.577966	-0.833807	1
H	2.105056	0.211614	0.733533	1
H	1.031516	-2.089996	0.735043	1
H	0.157666	-0.853636	1.613153	1
H	-2.627924	-1.004876	-0.289027	1
H	-2.430564	1.413284	0.297733	1
H	1.345816	1.908394	-0.705797	1
H	0.264226	0.866914	-1.604437	1
Es	1.780706	-0.430838	-0.581517	99
Es	-1.614442	0.204402	-0.325035	99
Es	-0.479602	1.849981	0.221994	99
Es	0.858367	-1.793311	0.687906	99
Es	-1.562436	0.782050	0.145255	99
Es	1.001371	0.464898	-0.299598	99
Es	1.127002	1.642855	-0.665178	99
Es	-0.262353	-1.310569	0.109439	99
Es	-1.669439	-0.526908	-0.121316	99
Es	0.642434	1.075005	-0.593965	99
Es	-0.593793	-1.366284	-0.418606	99
Es	-0.357730	1.422745	0.462140	99
Es	1.871963	0.104013	0.498142	99
Es	-2.154628	1.198249	0.249613	99
Es	-0.667102	-1.457876	-0.203636	99
Es	0.918874	-0.624149	0.280475	99
Es	0.472233	-1.156285	0.604673	99
Es	-1.633473	0.054628	0.348700	99
Es	-2.320545	-0.838973	-0.236299	99
Es	1.387158	-0.121082	-0.025346	99
Es	-1.029125	-1.074138	-0.144133	99
Es	0.376964	0.921765	-1.279530	99
Es	-0.047993	1.330145	-0.076423	99
Es	-0.418985	1.531382	0.248051	99
Es	-0.839758	1.214742	0.180030	99
Es	0.252361	-0.937712	1.288413	99
Es	-0.778015	-1.761504	-0.170424	99
42
Properties=species:S:1:pos:R:3:Z:I:1 energy=-343.79397954799214 field_type=dipole dipole="0.000000 0.000000 0.000000" charge=0
C	1.387186	-0.121086	-0.025347	6
C	0.472406	-1.156266	0.604843	6
O	-0.667044	-1.458186	-0.203967	8
C	-1.669634	-0.526686	-0.121247	6
C	-1.562664	0.781864	0.145183	6
O	-0.418904	1.531664	0.248273	8
C	0.642596	1.074964	-0.594137	6
H	1.970266	-0.577966	-0.833807	1
H	2.105056	0.211614	0.733533	1
H	1.031516	-2.089996	0.735043	1
H	0.157666	-0.853636	1.613153	1
H	-2.627924	-1.004876	-0.289027	1
H	-2.430564	1.413284	0.297733	1
H	1.345816	1.908394	-0.705797	1
H	0.264226	0.866914	-1.604437	1
Es	-0.477485	1.851506	0.228577	99
Es	-1.562435	0.782051	0.145256	99
Es	-0.358686	1.420898	0.455874	99
Es	-1.614583	0.204474	-0.325205	99
Es	0.642429	1.075005	-0.593961	99
Es	-2.320384	-0.838941	-0.236405	99
Es	1.780616	-0.430958	-0.581325	99
Es	-0.778549	-1.760964	-0.170212	99
Es	-0.418999	1.531374	0.247949	99
Es	0.858436	-1.793386	0.688030	99
Es	0.472233	-1.156286	0.604674	99
Es	-0.667001	-1.457802	-0.203785	99
Es	0.918955	-0.624108	0.280438	99
Es	-0.262668	-1.311175	0.110103	99
Es	-1.633475	0.054525	0.349041	99
Es	1.001250	0.464996	-0.299741	99
Es	0.376963	0.921793	-1.279678	99
Es	1.126975	1.642760	-0.665084	99
Es	0.252326	-0.937594	1.288302	99
Es	-1.669440	-0.526909	-0.121313	99
Es	-0.048601	1.330884	-0.077393	99
Es	1.872042	0.103973	0.498235	99
Es	-1.029030	-1.073777	-0.144493	99
Es	-0.593178	-1.366697	-0.418953	99
Es	1.387159	-0.121082	-0.025345	99
Es	-2.154531	1.198279	0.249472	99
Es	-0.840327	1.214392	0.180764	99
42
Properties=species:S:1:pos:R:3:Z:I:1 energy=-343.79397954799214 field_type=dipole dipole="0.000000 0.000000 0.000000" charge=0
C	1.387186	-0.121086	-0.025347	6
C	0.472406	-1.156266	0.604843	6
O	-0.667044	-1.458186	-0.203967	8
C	-1.669634	-0.526686	-0.121247	6
C	-1.562664	0.781864	0.145183	6
O	-0.418904	1.531664	0.248273	8
C	0.642596	1.074964	-0.594137	6
H	1.970266	-0.577966	-0.833807	1
H	2.105056	0.211614	0.733533	1
H	1.031516	-2.089996	0.735043	1
H	0.157666	-0.853636	1.613153	1
H	-2.627924	-1.004876	-0.289027	1
H	-2.430564	1.413284	0.297733	1
H	1.345816	1.908394	-0.705797	1
H	0.264226	0.866914	-1.604437	1
Es	-1.669440	-0.526908	-0.121313	99
Es	-1.633094	0.054524	0.348862	99
Es	-1.614862	0.204537	-0.325328	99
Es	1.872100	0.103809	0.498263	99
Es	-0.263902	-1.311938	0.111144	99
Es	-1.562437	0.782050	0.145249	99
Es	1.780558	-0.430776	-0.581414	99
Es	1.126947	1.642880	-0.665178	99
Es	0.858415	-1.793376	0.688016	99
Es	-0.418909	1.531255	0.248091	99
Es	-1.029010	-1.073783	-0.144252	99
Es	-0.358882	1.420418	0.455169	99
Es	-2.154513	1.198239	0.249671	99
Es	-0.840209	1.214599	0.180665	99
Es	1.001380	0.465199	-0.299543	99
Es	-0.667120	-1.457873	-0.203637	99
Es	1.387161	-0.121083	-0.025345	99
Es	-0.777969	-1.761878	-0.173272	99
Es	0.252341	-0.937619	1.288311	99
Es	0.376908	0.921619	-1.279604	99
Es	0.918894	-0.624195	0.280320	99
Es	-2.320449	-0.838991	-0.236323	99
Es	-0.592460	-1.364917	-0.417310	99
Es	0.472234	-1.156286	0.604674	99
Es	-0.477279	1.851879	0.229495	99
Es	-0.048823	1.330841	-0.077623	99
Es	0.642434	1.075005	-0.593966	99
42
Properties=species:S:1:pos:R:3:Z:I:1 energy=-343.79397954799214 field_type=dipole dipole="0.000000 0.000000 0.000000" charge=0
C	1.387186	-0.121086	-0.025347	6
C	0.472406	-1.156266	0.604843	6
O	-0.667044	-1.458186	-0.203967	8
C	-1.669634	-0.526686	-0.121247	6
C	-1.562664	0.781864	0.145183	6
O	-0.418904	1.531664	0.248273	8
C	0.642596	1.074964	-0.594137	6
H	1.970266	-0.577966	-0.833807	1
H	2.105056	0.211614	0.733533	1
H	1.031516	-2.089996	0.735043	1
H	0.157666	-0.853636	1.613153	1
H	-2.627924	-1.004876	-0.289027	1
H	-2.430564	1.413284	0.297733	1
H	1.345816	1.908394	-0.705797	1
H	0.264226	0.866914	-1.604437	1
Es	1.127043	1.642816	-0.665088	99
Es	-0.477055	1.852091	0.228863	99
Es	-1.669441	-0.526909	-0.121309	99
Es	0.642432	1.075005	-0.593963	99
Es	-0.048936	1.330490	-0.077034	99
Es	-2.320290	-0.838859	-0.236631	99
Es	-0.358844	1.420703	0.455294	99
Es	-0.666987	-1.457768	-0.203829	99
Es	-1.562437	0.782050	0.145243	99
Es	-0.263647	-1.311510	0.110683	99
Es	0.252284	-0.937618	1.288381	99
Es	1.871983	0.103886	0.498312	99
Es	-0.592780	-1.366086	-0.416185	99
Es	1.780659	-0.430910	-0.581490	99
Es	-0.778515	-1.762151	-0.172461	99
Es	0.376909	0.921698	-1.279646	99
Es	-0.419059	1.531391	0.247859	99
Es	-1.633422	0.054531	0.349031	99
Es	1.387158	-0.121082	-0.025346	99
Es	-2.154537	1.198158	0.249810	99
Es	0.858397	-1.793318	0.687983	99
Es	0.472231	-1.156287	0.604667	99
Es	-1.614601	0.204481	-0.325276	99
Es	-1.028482	-1.072956	-0.145669	99
Es	1.001342	0.465062	-0.299586	99
Es	0.918850	-0.624067	0.280321	99
Es	-0.840242	1.214390	0.180886	99
42
Properties=species:S:1:pos:R:3:Z:I:1 energy=-343.79397954799214 field_type=dipole dipole="0.000000 0.000000 0.000000" charge=0
C	1.387186	-0.121086	-0.025347	6
C	0.472406	-1.156266	0.604843	6
O	-0.667044	-1.458186	-0.203967	8
C	-1.669634	-0.526686	-0.121247	6
C	-1.562664	0.781864	0.145183	6
O	-0.418904	1.531664	0.248273	8
C	0.642596	1.074964	-0.594137	6
H	1.970266	-0.577966	-0.833807	1
H	2.105056	0.211614	0.733533	1
H	1.031516	-2.089996	0.735043	1
H	0.157666	-0.853636	1.613153	1
H	-2.627924	-1.004876	-0.289027	1
H	-2.430564	1.413284	0.297733	1
H	1.345816	1.908394	-0.705797	1
H	0.264226	0.866914	-1.604437	1
Es	-2.154499	1.198162	0.249931	99
Es	-1.669440	-0.526909	-0.121312	99
Es	-2.320357	-0.838939	-0.236492	99
Es	0.918953	-0.624333	0.280407	99
Es	0.252307	-0.937470	1.288387	99
Es	-0.776817	-1.763907	-0.176813	99
Es	-1.028854	-1.074368	-0.143589	99
Es	1.001165	0.464941	-0.299653	99
Es	-0.839273	1.213711	0.181694	99
Es	-1.614740	0.204538	-0.325417	99
Es	-0.594468	-1.363042	-0.413457	99
Es	-0.263274	-1.311202	0.110198	99
Es	1.387158	-0.121082	-0.025346	99
Es	0.376907	0.921691	-1.279596	99
Es	1.780614	-0.430839	-0.581449	99
Es	0.858399	-1.793369	0.687990	99
Es	0.472234	-1.156286	0.604675	99
Es	-0.478954	1.851693	0.227137	99
Es	-0.418931	1.531355	0.248103	99
Es	-1.562437	0.782050	0.145252	99
Es	0.642432	1.075005	-0.593964	99
Es	1.127060	1.642882	-0.665098	99
Es	-0.357710	1.421300	0.456840	99
Es	-0.667058	-1.457898	-0.203772	99
Es	-0.049266	1.330935	-0.077917	99
Es	-1.633190	0.054551	0.348890	99
Es	1.872052	0.104063	0.498192	99
42
Properties=species:S:1:pos:R:3:Z:I:1 energy=-343.79397954799214 field_type=dipole dipole="0.000000 0.000000 0.000000" charge=0
C	1.387186	-0.121086	-0.025347	6
C	0.472406	-1.156266	0.604843	6
O	-0.667044	-1.458186	-0.203967	8
C	-1.669634	-0.526686	-0.121247	6
C	-1.562664	0.781864	0.145183	6
O	-0.418904	1.531664	0.248273	8
C	0.642596	1.074964	-0.594137	6
H	1.970266	-0.577966	-0.833807	1
H	2.105056	0.211614	0.733533	1
H	1.031516	-2.089996	0.735043	1
H	0.157666	-0.853636	1.613153	1
H	-2.627924	-1.004876	-0.289027	1
H	-2.430564	1.413284	0.297733	1
H	1.345816	1.908394	-0.705797	1
H	0.264226	0.866914	-1.604437	1
Es	-0.355949	1.422715	0.458621	99
Es	1.780777	-0.430843	-0.581611	99
Es	0.472234	-1.156286	0.604675	99
Es	-0.263116	-1.311772	0.110839	99
Es	1.871877	0.104123	0.498236	99
Es	-1.029340	-1.074088	-0.144137	99
Es	0.252216	-0.937535	1.288431	99
Es	-1.614583	0.204563	-0.325556	99
Es	-1.633327	0.054552	0.348997	99
Es	0.858366	-1.793394	0.687927	99
Es	-0.775638	-1.764778	-0.181405	99
Es	-1.562437	0.782049	0.145253	99
Es	-2.320302	-0.838835	-0.236464	99
Es	-0.839475	1.212708	0.182977	99
Es	-0.418971	1.531397	0.248100	99
Es	1.001338	0.464837	-0.299568	99
Es	-1.669439	-0.526909	-0.121312	99
Es	0.918745	-0.624170	0.280342	99
Es	-0.667135	-1.457871	-0.203628	99
Es	1.127130	1.642917	-0.665205	99
Es	0.642438	1.075006	-0.593966	99
Es	-0.049915	1.331349	-0.078247	99
Es	-2.154422	1.198093	0.250116	99
Es	-0.479895	1.850885	0.224407	99
Es	1.387159	-0.121082	-0.025346	99
Es	-0.595222	-1.362003	-0.409157	99
Es	0.376899	0.921605	-1.279496	99
42
Properties=species:S:1:pos:R:3:Z:I:1 energy=-343.79397954799214 field_type=dipole dipole="0.000000 0.000000 0.000000" charge=0
C	1.387186	-0.121086	-0.025347	6
C	0.472406	-1.156266	0.604843	6
O	-0.667044	-1.458186	-0.203967	8
C	-1.669634	-0.526686	-0.121247	6
C	-1.562664	0.781864	0.145183	6
O	-0.418904	1.531664	0.248273	8
C	0.642596	1.074964	-0.594137	6
H	1.970266	-0.577966	-0.833807	1
H	2.105056	0.211614	0.733533	1
H	1.031516	-2.089996	0.735043	1
H	0.157666	-0.853636	1.613153	1
H	-2.627924	-1.004876	-0.289027	1
H	-2.430564	1.413284	0.297733	1
H	1.345816	1.908394	-0.705797	1
H	0.264226	0.866914	-1.604437	1
Es	-0.773482	-1.766345	-0.185748	99
Es	0.376877	0.921609	-1.279570	99
Es	-0.478386	1.851454	0.227725	99
Es	-1.669439	-0.526909	-0.121315	99
Es	-0.419073	1.531425	0.247820	99
Es	0.252278	-0.937733	1.288475	99
Es	-0.595546	-1.359072	-0.407026	99
Es	1.127085	1.642899	-0.665165	99
Es	1.780809	-0.430638	-0.581509	99
Es	-0.839749	1.214151	0.181651	99
Es	0.472233	-1.156285	0.604675	99
Es	-1.633327	0.054510	0.349108	99
Es	-0.050327	1.331515	-0.078867	99
Es	-0.667203	-1.457919	-0.203450	99
Es	0.642434	1.075006	-0.593964	99
Es	-0.356577	1.420542	0.457477	99
Es	1.871874	0.103957	0.498126	99
Es	1.387159	-0.121082	-0.025346	99
Es	-2.320271	-0.838994	-0.236300	99
Es	1.001302	0.465065	-0.299519	99
Es	-1.614800	0.204632	-0.325683	99
Es	-2.154348	1.198104	0.249849	99
Es	-0.264372	-1.312019	0.110959	99
Es	-1.029874	-1.075076	-0.142086	99
Es	0.918953	-0.624319	0.280332	99
Es	0.858221	-1.793297	0.687924	99
Es	-1.562436	0.782051	0.145250	99
42
Properties=species:S:1:pos:R:3:Z:I:1 energy=-343.79397954799214 field_type=dipole dipole="0.000000 0.000000 0.000000" charge=0
C	1.387186	-0.121086	-0.025347	6
C	0.472406	-1.156266	0.604843	6
O	-0.667044	-1.458186	-0.203967	8
C	-1.669634	-0.526686	-0.121247	6
C	-1.562664	0.781864	0.145183	6
O	-0.418904	1.531664	0.248273	8
C	0.642596	1.074964	-0.594137	6
H	1.970266	-0.577966	-0.833807	1
H	2.105056	0.211614	0.733533	1
H	1.031516	-2.089996	0.735043	1
H	0.157666	-0.853636	1.613153	1
H	-2.627924	-1.004876	-0.289027	1
H	-2.430564	1.413284	0.297733	1
H	1.345816	1.908394	-0.705797	1
H	0.264226	0.866914	-1.604437	1
Es	-0.049922	1.331044	-0.077685	99
Es	-1.028742	-1.072898	-0.145452	99
Es	-1.614556	0.204558	-0.325607	99
Es	0.252258	-0.937456	1.288493	99
Es	-0.359199	1.419232	0.451351	99
Es	0.642434	1.075005	-0.593965	99
Es	-2.154342	1.198097	0.249848	99
Es	-0.777378	-1.763501	-0.176479	99
Es	-0.593032	-1.364232	-0.412978	99
Es	1.127071	1.642825	-0.665077	99
Es	0.472230	-1.156283	0.604676	99
Es	1.387159	-0.121082	-0.025346	99
Es	-2.320174	-0.838826	-0.236662	99
Es	-1.633505	0.054468	0.349303	99
Es	0.376853	0.921716	-1.279645	99
Es	1.780652	-0.430796	-0.581532	99
Es	-1.669440	-0.526908	-0.121315	99
Es	1.001082	0.464784	-0.299578	99
Es	-0.418999	1.531378	0.247990	99
Es	0.858469	-1.793358	0.687869	99
Es	-1.562436	0.782050	0.145252	99
Es	-0.475710	1.853379	0.232953	99
Es	-0.667088	-1.457869	-0.203663	99
Es	0.918911	-0.624304	0.280214	99
Es	-0.840352	1.214114	0.181324	99
Es	-0.264239	-1.312010	0.111123	99
Es	1.872010	0.104106	0.498408	99
42
Properties=species:S:1:pos:R:3:Z:I:1 energy=-343.79397954799214 field_type=dipole dipole="0.000000 0.000000 0.000000" charge=0
C	1.387186	-0.121086	-0.025347	6
C	0.472406	-1.156266	0.604843	6
O	-0.667044	-1.458186	-0.203967	8
C	-1.669634	-0.526686	-0.121247	6
C	-1.562664	0.781864	0.145183	6
O	-0.418904	1.531664	0.248273	8
C	0.642596	1.074964	-0.594137	6
H	1.970266	-0.577966	-0.833807	1
H	2.105056	0.211614	0.733533	1
H	1.031516	-2.089996	0.735043	1
H	0.157666	-0.853636	1.613153	1
H	-2.627924	-1.004876	-0.289027	1
H	-2.430564	1.413284	0.297733	1
H	1.345816	1.908394	-0.705797	1
H	0.264226	0.866914	-1.604437	1
Es	0.472233	-1.156286	0.604675	99
Es	-1.614804	0.204650	-0.325772	99
Es	-1.669440	-0.526908	-0.121313	99
Es	1.001294	0.464947	-0.299630	99
Es	0.858369	-1.793364	0.687916	99
Es	-0.594462	-1.360075	-0.408042	99
Es	0.252244	-0.937649	1.288424	99
Es	1.126995	1.642926	-0.665130	99
Es	-1.633268	0.054457	0.349238	99
Es	-0.667097	-1.457874	-0.203663	99
Es	-1.029354	-1.074570	-0.143370	99
Es	-2.154312	1.198097	0.249865	99
Es	-0.419033	1.531386	0.247924	99
Es	-0.051330	1.331651	-0.079891	99
Es	-0.264434	-1.312752	0.112296	99
Es	-0.476471	1.852918	0.232912	99
Es	-1.562438	0.782048	0.145253	99
Es	1.871965	0.103958	0.498188	99
Es	0.642432	1.075006	-0.593963	99
Es	1.387158	-0.121082	-0.025346	99
Es	0.918885	-0.624211	0.280375	99
Es	-0.357156	1.419072	0.452039	99
Es	1.780703	-0.430783	-0.581433	99
Es	-0.840177	1.214033	0.182836	99
Es	-0.775149	-1.765258	-0.184574	99
Es	-2.320218	-0.838867	-0.236418	99
Es	0.376877	0.921762	-1.279572	99
42
Properties=species:S:1:pos:R:3:Z:I:1 energy=-343.79397954799214 field_type=dipole dipole="0.000000 0.000000 0.000000" charge=0
C	1.387186	-0.121086	-0.025347	6
C	0.472406	-1.156266	0.604843	6
O	-0.667044	-1.458186	-0.203967	8
C	-1.669634	-0.526686	-0.121247	6
C	-1.562664	0.781864	0.145183	6
O	-0.418904	1.531664	0.248273	8
C	0.642596	1.074964	-0.594137	6
H	1.970266	-0.577966	-0.833807	1
H	2.105056	0.211614	0.733533	1
H	1.031516	-2.089996	0.735043	1
H	0.157666	-0.853636	1.613153	1
H	-2.627924	-1.004876	-0.289027	1