47
Properties=species:S:1:pos:R:3:Z:I:1 energy=-309.1370574950566 field_type=dipole dipole="0.000000 0.000000 0.000000" charge=0
C	-1.752576	0.461666	-0.844152	6
C	-0.236806	0.428066	-0.791612	6
C	0.442104	1.457056	0.143788	6
C	1.510784	0.393266	0.456708	6
C	0.488054	-0.700414	0.027738	6
C	-0.267846	-1.319784	1.197578	6
O	1.035454	-1.770064	-0.775532	8
H	-2.135496	-0.399944	-1.398682	1
H	-2.096536	1.367886	-1.351782	1
H	-2.198236	0.450116	0.154438	1
H	0.158574	0.497036	-1.817032	1
H	-0.157556	1.744786	1.015028	1
H	0.810224	2.364676	-0.342052	1
H	2.393894	0.454656	-0.189922	1
H	1.845764	0.365226	1.497468	1
H	-0.690376	-0.560284	1.863578	1
H	0.398254	-1.949904	1.796798	1
H	-1.090036	-1.948574	0.839908	1
H	1.542354	-1.335474	-1.482262	1
Es	0.188942	-1.739595	1.599113	99
Es	0.488142	-0.700547	0.027620	99
Es	-0.550971	-0.793050	1.643113	99
Es	1.063278	-0.204077	0.279418	99
Es	0.059930	-0.192521	-0.417981	99
Es	0.049476	0.469172	-1.489870	99
Es	1.510746	0.393296	0.456692	99
Es	1.743400	0.369887	1.171607	99
Es	-0.267835	-1.319749	1.197556	99
Es	1.305769	-1.518426	-1.152336	99
Es	0.795684	-1.909199	-0.910016	99
Es	-2.050032	0.454025	-0.159437	99
Es	0.442125	1.457000	0.143776	99
Es	2.104460	0.431560	-0.000294	99
Es	-0.236811	0.428079	-0.791577	99
Es	1.025754	0.987547	0.340794	99
Es	1.035497	-1.769741	-0.775590	99
Es	0.693115	2.082259	-0.188983	99
Es	-1.752560	0.461667	-0.844155	99
Es	1.238434	-1.918809	-0.597470	99
Es	-0.825681	-1.740799	0.951340	99
Es	0.051663	1.009979	-0.348732	99
Es	-1.004252	0.438834	-0.814207	99
Es	0.099141	-1.000722	0.614085	99
Es	-1.981477	1.081863	-1.190302	99
Es	-2.012468	-0.125997	-1.222131	99
Es	0.027344	1.641357	0.739483	99
Es	0.840616	-1.357228	-0.489203	99
47
Properties=species:S:1:pos:R:3:Z:I:1 energy=-309.1370574950566 field_type=dipole dipole="0.000000 0.000000 0.000000" charge=0
C	-1.752576	0.461666	-0.844152	6
C	-0.236806	0.428066	-0.791612	6
C	0.442104	1.457056	0.143788	6
C	1.510784	0.393266	0.456708	6
C	0.488054	-0.700414	0.027738	6
C	-0.267846	-1.319784	1.197578	6
O	1.035454	-1.770064	-0.775532	8
H	-2.135496	-0.399944	-1.398682	1
H	-2.096536	1.367886	-1.351782	1
H	-2.198236	0.450116	0.154438	1
H	0.158574	0.497036	-1.817032	1
H	-0.157556	1.744786	1.015028	1
H	0.810224	2.364676	-0.342052	1
H	2.393894	0.454656	-0.189922	1
H	1.845764	0.365226	1.497468	1
H	-0.690376	-0.560284	1.863578	1
H	0.398254	-1.949904	1.796798	1
H	-1.090036	-1.948574	0.839908	1
H	1.542354	-1.335474	-1.482262	1
Es	1.305408	-1.518558	-1.154162	99
Es	-1.752560	0.461668	-0.844155	99
Es	0.051928	1.009760	-0.348242	99
Es	0.027037	1.641278	0.740052	99
Es	-1.004345	0.438845	-0.814146	99
Es	0.099219	-1.000799	0.613993	99
Es	-0.551428	-0.792977	1.643686	99
Es	-2.050204	0.453970	-0.158620	99
Es	1.237639	-1.918005	-0.599533	99
Es	0.841457	-1.357425	-0.487274	99
Es	0.442124	1.456991	0.143778	99
Es	0.060022	-0.192366	-0.417894	99
Es	0.796099	-1.909650	-0.908113	99
Es	0.049455	0.469255	-1.490579	99
Es	0.693298	2.082274	-0.189430	99
Es	1.035511	-1.769738	-0.775607	99
Es	1.743127	0.369862	1.171660	99
Es	2.104773	0.431613	-0.000546	99
Es	0.488142	-0.700548	0.027620	99
Es	-0.825000	-1.740711	0.951671	99
Es	-1.981109	1.081770	-1.190634	99
Es	0.188464	-1.739674	1.598765	99
Es	1.062951	-0.203985	0.279181	99
Es	1.025374	0.987408	0.340471	99
Es	-2.012052	-0.125811	-1.222296	99
Es	1.510746	0.393291	0.456689	99
Es	-0.267835	-1.319749	1.197556	99
Es	-0.236810	0.428080	-0.791575	99
47
Properties=species:S:1:pos:R:3:Z:I:1 energy=-309.1370574950566 field_type=dipole dipole="0.000000 0.000000 0.000000" charge=0
C	-1.752576	0.461666	-0.844152	6
C	-0.236806	0.428066	-0.791612	6
C	0.442104	1.457056	0.143788	6
C	1.510784	0.393266	0.456708	6
C	0.488054	-0.700414	0.027738	6
C	-0.267846	-1.319784	1.197578	6
O	1.035454	-1.770064	-0.775532	8
H	-2.135496	-0.399944	-1.398682	1
H	-2.096536	1.367886	-1.351782	1
H	-2.198236	0.450116	0.154438	1
H	0.158574	0.497036	-1.817032	1
H	-0.157556	1.744786	1.015028	1
H	0.810224	2.364676	-0.342052	1
H	2.393894	0.454656	-0.189922	1
H	1.845764	0.365226	1.497468	1
H	-0.690376	-0.560284	1.863578	1
H	0.398254	-1.949904	1.796798	1
H	-1.090036	-1.948574	0.839908	1
H	1.542354	-1.335474	-1.482262	1
Es	-2.011862	-0.125799	-1.222478	99
Es	-1.980828	1.081774	-1.190741	99
Es	1.062825	-0.203861	0.279180	99
Es	-0.267836	-1.319749	1.197556	99
Es	1.743157	0.369886	1.171713	99
Es	0.049503	0.469268	-1.490963	99
Es	0.060073	-0.192308	-0.417646	99
Es	0.099283	-1.000819	0.613809	99
Es	0.693535	2.082339	-0.189598	99
Es	2.104789	0.431620	-0.000802	99
Es	0.051960	1.009721	-0.348074	99
Es	0.188177	-1.739566	1.598709	99
Es	1.236510	-1.918667	-0.599708	99
Es	1.510748	0.393291	0.456690	99
Es	-0.236810	0.428078	-0.791574	99
Es	1.035459	-1.769964	-0.775559	99
Es	0.442125	1.457000	0.143778	99
Es	-2.050223	0.453960	-0.158174	99
Es	-0.824480	-1.740781	0.951876	99
Es	-0.551862	-0.792997	1.643882	99
Es	-1.752560	0.461667	-0.844156	99
Es	0.840761	-1.357387	-0.487000	99
Es	-1.004455	0.438798	-0.814175	99
Es	1.306069	-1.519054	-1.154969	99
Es	0.797354	-1.908287	-0.907551	99
Es	0.026885	1.641150	0.740422	99
Es	1.024988	0.987309	0.340250	99
Es	0.488143	-0.700554	0.027617	99
47
Properties=species:S:1:pos:R:3:Z:I:1 energy=-309.1370574950566 field_type=dipole dipole="0.000000 0.000000 0.000000" charge=0
C	-1.752576	0.461666	-0.844152	6
C	-0.236806	0.428066	-0.791612	6
C	0.442104	1.457056	0.143788	6
C	1.510784	0.393266	0.456708	6
C	0.488054	-0.700414	0.027738	6
C	-0.267846	-1.319784	1.197578	6
O	1.035454	-1.770064	-0.775532	8
H	-2.135496	-0.399944	-1.398682	1
H	-2.096536	1.367886	-1.351782	1
H	-2.198236	0.450116	0.154438	1
H	0.158574	0.497036	-1.817032	1
H	-0.157556	1.744786	1.015028	1
H	0.810224	2.364676	-0.342052	1
H	2.393894	0.454656	-0.189922	1
H	1.845764	0.365226	1.497468	1
H	-0.690376	-0.560284	1.863578	1
H	0.398254	-1.949904	1.796798	1
H	-1.090036	-1.948574	0.839908	1
H	1.542354	-1.335474	-1.482262	1
Es	1.035473	-1.769765	-0.775606	99
Es	-1.004368	0.438858	-0.814122	99
Es	-0.236810	0.428079	-0.791575	99
Es	0.052014	1.009626	-0.347783	99
Es	0.187897	-1.739758	1.598373	99
Es	-1.980643	1.081673	-1.190879	99
Es	0.026756	1.641155	0.740608	99
Es	-0.824375	-1.740572	0.951992	99
Es	1.235439	-1.920842	-0.600242	99
Es	0.488143	-0.700554	0.027617	99
Es	0.049463	0.469328	-1.491298	99
Es	1.306313	-1.519040	-1.155285	99
Es	-2.050329	0.453998	-0.157865	99
Es	0.442126	1.457000	0.143778	99
Es	1.510748	0.393290	0.456684	99
Es	-2.011652	-0.125805	-1.222584	99
Es	1.742971	0.369944	1.171755	99
Es	-0.267836	-1.319750	1.197556	99
Es	2.104941	0.431686	-0.000794	99
Es	0.099433	-1.000810	0.613854	99
Es	-1.752557	0.461667	-0.844154	99
Es	-0.551812	-0.793001	1.644293	99
Es	1.062694	-0.203949	0.278981	99
Es	0.798287	-1.906270	-0.907386	99
Es	0.059976	-0.192260	-0.417678	99
Es	0.693650	2.082320	-0.189782	99
Es	0.840662	-1.357449	-0.486264	99
Es	1.024825	0.987267	0.340124	99
47
Properties=species:S:1:pos:R:3:Z:I:1 energy=-309.1370574950566 field_type=dipole dipole="0.000000 0.000000 0.000000" charge=0
C	-1.752576	0.461666	-0.844152	6
C	-0.236806	0.428066	-0.791612	6
C	0.442104	1.457056	0.143788	6
C	1.510784	0.393266	0.456708	6
C	0.488054	-0.700414	0.027738	6
C	-0.267846	-1.319784	1.197578	6
O	1.035454	-1.770064	-0.775532	8
H	-2.135496	-0.399944	-1.398682	1
H	-2.096536	1.367886	-1.351782	1
H	-2.198236	0.450116	0.154438	1
H	0.158574	0.497036	-1.817032	1
H	-0.157556	1.744786	1.015028	1
H	0.810224	2.364676	-0.342052	1
H	2.393894	0.454656	-0.189922	1
H	1.845764	0.365226	1.497468	1
H	-0.690376	-0.560284	1.863578	1
H	0.398254	-1.949904	1.796798	1
H	-1.090036	-1.948574	0.839908	1
H	1.542354	-1.335474	-1.482262	1
Es	1.742976	0.369933	1.171716	99
Es	0.799328	-1.911435	-0.903862	99
Es	0.060117	-0.192211	-0.417478	99
Es	0.442126	1.457000	0.143778	99
Es	-0.236811	0.428078	-0.791576	99
Es	-2.050248	0.453946	-0.157757	99
Es	0.049464	0.469327	-1.491435	99
Es	0.187754	-1.739702	1.598285	99
Es	-0.551930	-0.792937	1.644419	99
Es	0.099401	-1.000879	0.613711	99
Es	0.488141	-0.700548	0.027619	99
Es	0.693776	2.082396	-0.189833	99
Es	1.303960	-1.519445	-1.158137	99
Es	-0.824154	-1.740577	0.952236	99
Es	1.035479	-1.769863	-0.775577	99
Es	0.026741	1.641067	0.740742	99
Es	2.104936	0.431595	-0.000786	99
Es	-2.011548	-0.125845	-1.222574	99
Es	1.237722	-1.915149	-0.600395	99
Es	1.062613	-0.204023	0.278934	99
Es	0.839690	-1.357497	-0.486869	99
Es	-1.004425	0.438878	-0.814110	99
Es	0.051942	1.009693	-0.347809	99
Es	1.024649	0.987279	0.339949	99
Es	-1.980618	1.081781	-1.190962	99
Es	-1.752560	0.461667	-0.844156	99
Es	1.510745	0.393290	0.456690	99
Es	-0.267837	-1.319750	1.197555	99
47
Properties=species:S:1:pos:R:3:Z:I:1 energy=-309.1370574950566 field_type=dipole dipole="0.000000 0.000000 0.000000" charge=0
C	-1.752576	0.461666	-0.844152	6
C	-0.236806	0.428066	-0.791612	6
C	0.442104	1.457056	0.143788	6
C	1.510784	0.393266	0.456708	6
C	0.488054	-0.700414	0.027738	6
C	-0.267846	-1.319784	1.197578	6
O	1.035454	-1.770064	-0.775532	8
H	-2.135496	-0.399944	-1.398682	1
H	-2.096536	1.367886	-1.351782	1
H	-2.198236	0.450116	0.154438	1
H	0.158574	0.497036	-1.817032	1
H	-0.157556	1.744786	1.015028	1
H	0.810224	2.364676	-0.342052	1
H	2.393894	0.454656	-0.189922	1
H	1.845764	0.365226	1.497468	1
H	-0.690376	-0.560284	1.863578	1
H	0.398254	-1.949904	1.796798	1
H	-1.090036	-1.948574	0.839908	1
H	1.542354	-1.335474	-1.482262	1
Es	1.306750	-1.519743	-1.156444	99
Es	-0.824095	-1.740615	0.952213	99
Es	1.742958	0.370017	1.171815	99
Es	-0.551982	-0.792979	1.644495	99
Es	1.234566	-1.920832	-0.600221	99
Es	-1.980339	1.081728	-1.191023	99
Es	-0.267835	-1.319749	1.197555	99
Es	0.839863	-1.357229	-0.486286	99
Es	0.488142	-0.700553	0.027617	99
Es	0.187596	-1.739651	1.598256	99
Es	0.052064	1.009604	-0.347584	99
Es	0.060016	-0.192308	-0.417485	99
Es	0.799532	-1.905845	-0.906309	99
Es	0.049420	0.469286	-1.491582	99
Es	0.026700	1.641050	0.740898	99
Es	0.693897	2.082407	-0.189981	99
Es	-1.004475	0.438829	-0.814141	99
Es	1.510746	0.393292	0.456689	99
Es	1.062545	-0.203903	0.278838	99
Es	-2.050339	0.453985	-0.157482	99
Es	1.035467	-1.769717	-0.775604	99
Es	2.104953	0.431662	-0.000916	99
Es	0.442125	1.457000	0.143778	99
Es	-1.752562	0.461664	-0.844157	99
Es	-0.236810	0.428079	-0.791575	99
Es	1.024491	0.987245	0.339886	99
Es	-2.011455	-0.125789	-1.222730	99
Es	0.099488	-1.000868	0.613794	99
47
Properties=species:S:1:pos:R:3:Z:I:1 energy=-309.1370574950566 field_type=dipole dipole="0.000000 0.000000 0.000000" charge=0
C	-1.752576	0.461666	-0.844152	6
C	-0.236806	0.428066	-0.791612	6
C	0.442104	1.457056	0.143788	6
C	1.510784	0.393266	0.456708	6
C	0.488054	-0.700414	0.027738	6
C	-0.267846	-1.319784	1.197578	6
O	1.035454	-1.770064	-0.775532	8
H	-2.135496	-0.399944	-1.398682	1
H	-2.096536	1.367886	-1.351782	1
H	-2.198236	0.450116	0.154438	1
H	0.158574	0.497036	-1.817032	1
H	-0.157556	1.744786	1.015028	1
H	0.810224	2.364676	-0.342052	1
H	2.393894	0.454656	-0.189922	1
H	1.845764	0.365226	1.497468	1
H	-0.690376	-0.560284	1.863578	1
H	0.398254	-1.949904	1.796798	1
H	-1.090036	-1.948574	0.839908	1
H	1.542354	-1.335474	-1.482262	1
Es	1.742886	0.369946	1.171780	99
Es	1.024363	0.987422	0.339775	99
Es	1.510748	0.393290	0.456689	99
Es	-0.267836	-1.319749	1.197555	99
Es	-0.236810	0.428080	-0.791575	99
Es	1.062547	-0.203904	0.278781	99
Es	0.187547	-1.739679	1.598125	99
Es	0.049463	0.469321	-1.491637	99
Es	1.035501	-1.769710	-0.775582	99
Es	-1.004508	0.438943	-0.814181	99
Es	0.026716	1.641033	0.741058	99
Es	-1.980370	1.081731	-1.191062	99
Es	0.060032	-0.192295	-0.417441	99
Es	2.105015	0.431637	-0.000886	99
Es	-0.552104	-0.792956	1.644654	99
Es	0.052039	1.009504	-0.347485	99
Es	0.442128	1.457002	0.143779	99
Es	0.839791	-1.357514	-0.485846	99
Es	0.099449	-1.000882	0.613785	99
Es	-1.752559	0.461667	-0.844155	99
Es	0.488139	-0.700551	0.027616	99
Es	1.235817	-1.919433	-0.600842	99
Es	0.693887	2.082390	-0.190058	99
Es	-0.823914	-1.740591	0.952261	99
Es	0.799904	-1.907224	-0.905072	99
Es	-2.050320	0.453947	-0.157402	99
Es	1.305186	-1.519488	-1.157557	99
Es	-2.011311	-0.125871	-1.222762	99
47
Properties=species:S:1:pos:R:3:Z:I:1 energy=-309.1370574950566 field_type=dipole dipole="0.000000 0.000000 0.000000" charge=0
C	-1.752576	0.461666	-0.844152	6
C	-0.236806	0.428066	-0.791612	6
C	0.442104	1.457056	0.143788	6
C	1.510784	0.393266	0.456708	6
C	0.488054	-0.700414	0.027738	6
C	-0.267846	-1.319784	1.197578	6
O	1.035454	-1.770064	-0.775532	8
H	-2.135496	-0.399944	-1.398682	1
H	-2.096536	1.367886	-1.351782	1
H	-2.198236	0.450116	0.154438	1
H	0.158574	0.497036	-1.817032	1
H	-0.157556	1.744786	1.015028	1
H	0.810224	2.364676	-0.342052	1
H	2.393894	0.454656	-0.189922	1
H	1.845764	0.365226	1.497468	1
H	-0.690376	-0.560284	1.863578	1
H	0.398254	-1.949904	1.796798	1
H	-1.090036	-1.948574	0.839908	1
H	1.542354	-1.335474	-1.482262	1
Es	-0.267835	-1.319750	1.197556	99
Es	0.840566	-1.357326	-0.485344	99
Es	-1.004573	0.438900	-0.814114	99
Es	1.235442	-1.918899	-0.601480	99
Es	1.742859	0.369871	1.171769	99
Es	0.099355	-1.000917	0.613645	99
Es	-2.011208	-0.125866	-1.222726	99
Es	0.026571	1.640963	0.741073	99
Es	0.442126	1.457002	0.143777	99
Es	0.060074	-0.192292	-0.417353	99
Es	-1.980335	1.081845	-1.191171	99
Es	0.052104	1.009652	-0.347393	99
Es	1.062481	-0.203898	0.278659	99
Es	0.799395	-1.907738	-0.904969	99
Es	1.305387	-1.519707	-1.157514	99
Es	-2.050279	0.453890	-0.157322	99
Es	0.488145	-0.700552	0.027619	99
Es	-0.552146	-0.792964	1.644755	99
Es	1.510749	0.393292	0.456691	99
Es	2.105031	0.431684	-0.000852	99
Es	0.049463	0.469323	-1.491779	99
Es	1.035459	-1.769678	-0.775627	99
Es	1.024233	0.987266	0.339773	99
Es	0.187489	-1.739694	1.598049	99
Es	-0.236810	0.428078	-0.791573	99
Es	-0.823785	-1.740538	0.952448	99
Es	-1.752559	0.461663	-0.844158	99
Es	0.694030	2.082457	-0.190124	99
47
Properties=species:S:1:pos:R:3:Z:I:1 energy=-309.1370574950566 field_type=dipole dipole="0.000000 0.000000 0.000000" charge=0
C	-1.752576	0.461666	-0.844152	6
C	-0.236806	0.428066	-0.791612	6
C	0.442104	1.457056	0.143788	6
C	1.510784	0.393266	0.456708	6
C	0.488054	-0.700414	0.027738	6
C	-0.267846	-1.319784	1.197578	6
O	1.035454	-1.770064	-0.775532	8
H	-2.135496	-0.399944	-1.398682	1
H	-2.096536	1.367886	-1.351782	1
H	-2.198236	0.450116	0.154438	1
H	0.158574	0.497036	-1.817032	1
H	-0.157556	1.744786	1.015028	1
H	0.810224	2.364676	-0.342052	1
H	2.393894	0.454656	-0.189922	1
H	1.845764	0.365226	1.497468	1
H	-0.690376	-0.560284	1.863578	1
H	0.398254	-1.949904	1.796798	1
H	-1.090036	-1.948574	0.839908	1
H	1.542354	-1.335474	-1.482262	1
Es	1.510745	0.393293	0.456690	99
Es	-0.823772	-1.740721	0.952344	99
Es	1.024290	0.987419	0.339792	99
Es	-2.011434	-0.125873	-1.222813	99
Es	1.742812	0.369974	1.171740	99
Es	1.035515	-1.769684	-0.775566	99
Es	-1.980196	1.081857	-1.191035	99
Es	1.062350	-0.203943	0.278725	99
Es	0.052208	1.009516	-0.347304	99
Es	-1.004505	0.438729	-0.814178	99
Es	0.060035	-0.192239	-0.417465	99
Es	0.488141	-0.700556	0.027615	99
Es	1.306673	-1.520250	-1.157393	99
Es	1.233347	-1.923633	-0.601088	99
Es	0.049398	0.469304	-1.491866	99
Es	0.841216	-1.357095	-0.485171	99
Es	-1.752558	0.461667	-0.844155	99
Es	0.693999	2.082503	-0.190127	99
Es	0.799496	-1.902662	-0.905731	99
Es	-0.267836	-1.319750	1.197556	99
Es	0.026562	1.640887	0.741134	99
Es	2.105093	0.431693	-0.000897	99
Es	0.099532	-1.000981	0.613747	99
Es	-0.552203	-0.792930	1.644794	99
Es	-2.050148	0.453973	-0.157258	99
Es	0.442128	1.457001	0.143779	99
Es	-0.236809	0.428078	-0.791573	99
Es	0.187347	-1.739512	1.598019	99
47
Properties=species:S:1:pos:R:3:Z:I:1 energy=-309.1370574950566 field_type=dipole dipole="0.000000 0.000000 0.000000" charge=0
C	-1.752576	0.461666	-0.844152	6
C	-0.236806	0.428066	-0.791612	6
C	0.442104	1.457056	0.143788	6
C	1.510784	0.393266	0.456708	6
C	0.488054	-0.700414	0.027738	6
C	-0.267846	-1.319784	1.197578	6
O	1.035454	-1.770064	-0.775532	8
H	-2.135496	-0.399944	-1.398682	1
H	-2.096536	1.367886	-1.351782	1
H	-2.198236	0.450116	0.154438	1
H	0.158574	0.497036	-1.817032	1
H	-0.157556	1.744786	1.015028	1
H	0.810224	2.364676	-0.342052	1
H	2.393894	0.454656	-0.189922	1
H	1.845764	0.365226	1.497468	1
H	-0.690376	-0.560284	1.863578	1
H	0.398254	-1.949904	1.796798	1
H	-1.090036	-1.948574	0.839908	1
H	1.542354	-1.335474	-1.482262	1
Es	0.051946	1.009773	-0.347260	99
Es	0.840216	-1.357410	-0.485036	99
Es	-1.004577	0.438834	-0.814156	99
Es	0.026601	1.640979	0.741228	99
Es	-0.236809	0.428080	-0.791574	99
Es	0.800034	-1.908708	-0.903913	99
Es	0.187442	-1.739704	1.597920	99
Es	-2.011117	-0.125948	-1.222631	99
Es	1.235435	-1.917513	-0.601907	99
Es	-1.752559	0.461668	-0.844155	99
Es	0.694068	2.082411	-0.190169	99
Es	1.035468	-1.769768	-0.775606	99
Es	-0.552242	-0.792997	1.644916	99
Es	0.049364	0.469439	-1.491920	99
Es	1.742744	0.369883	1.171686	99
Es	2.105160	0.431596	-0.000824	99
Es	1.305091	-1.519978	-1.158451	99
Es	0.442127	1.456996	0.143776	99
Es	0.488142	-0.700553	0.027617	99
Es	-0.267835	-1.319749	1.197556	99
Es	0.099378	-1.000833	0.613737	99
Es	1.024223	0.987261	0.339602	99
Es	0.060121	-0.192373	-0.417366	99
Es	-1.980337	1.081930	-1.191316	99
Es	-0.823655	-1.740539	0.952449	99
Es	1.062375	-0.203903	0.278602	99
Es	-2.050123	0.453900	-0.157178	99
Es	1.510745	0.393292	0.456689	99
47
Properties=species:S:1:pos:R:3:Z:I:1 energy=-309.1370574950566 field_type=dipole dipole="0.000000 0.000000 0.000000" charge=0
C	-1.752576	0.461666	-0.844152	6
C	-0.236806	0.428066	-0.791612	6
C	0.442104	1.457056	0.143788	6
C	1.510784	0.393266	0.456708	6
C	0.488054	-0.700414	0.027738	6
C	-0.267846	-1.319784	1.197578	6
O	1.035454	-1.770064	-0.775532	8
H	-2.135496	-0.399944	-1.398682	1
H	-2.096536	1.367886	-1.351782	1
H	-2.198236	0.450116	0.154438	1
H	0.158574	0.497036	-1.817032	1
H	-0.157556	1.744786	1.015028	1
H	0.810224	2.364676	-0.342052	1
H	2.393894	0.454656	-0.189922	1
H	1.845764	0.365226	1.497468	1
H	-0.690376	-0.560284	1.863578	1
H	0.398254	-1.949904	1.796798	1
H	-1.090036	-1.948574	0.839908	1
H	1.542354	-1.335474	-1.482262	1
Es	0.800312	-1.906190	-0.905113	99
Es	0.049392	0.469311	-1.491996	99
Es	0.694121	2.082492	-0.190207	99
Es	1.234120	-1.920112	-0.601554	99
Es	0.026619	1.640919	0.741236	99
Es	1.024117	0.987356	0.339723	99
Es	0.051988	1.009611	-0.347262	99
Es	-1.752561	0.461668	-0.844155	99
Es	0.442125	1.457000	0.143779	99
Es	2.105088	0.431722	-0.000901	99
Es	0.060024	-0.192306	-0.417294	99
Es	-1.004522	0.438968	-0.814208	99
Es	0.839948	-1.357355	-0.485100	99
Es	0.488144	-0.700555	0.027617	99
Es	-0.552232	-0.792963	1.644984	99
Es	-0.236809	0.428079	-0.791574	99
Es	-0.823622	-1.740453	0.952480	99
Es	-0.267835	-1.319750	1.197555	99
Es	1.306358	-1.519979	-1.157627	99
Es	-2.050074	0.453802	-0.157134	99
Es	0.099405	-1.000922	0.613727	99
Es	0.187341	-1.739774	1.597876	99
Es	-1.980312	1.081939	-1.191123	99
Es	1.510746	0.393292	0.456689	99
Es	1.062318	-0.203940	0.278534	99
Es	1.742813	0.369888	1.171747	99
Es	1.035524	-1.769699	-0.775539	99
Es	-2.011106	-0.125984	-1.222844	99
47
Properties=species:S:1:pos:R:3:Z:I:1 energy=-309.1370574950566 field_type=dipole dipole="0.000000 0.000000 0.000000" charge=0
C	-1.752576	0.461666	-0.844152	6
C	-0.236806	0.428066	-0.791612	6
C	0.442104	1.457056	0.143788	6
C	1.510784	0.393266	0.456708	6
C	0.488054	-0.700414	0.027738	6
C	-0.267846	-1.319784	1.197578	6
O	1.035454	-1.770064	-0.775532	8
H	-2.135496	-0.399944	-1.398682	1
H	-2.096536	1.367886	-1.351782	1
H	-2.198236	0.450116	0.154438	1
H	0.158574	0.497036	-1.817032	1
H	-0.157556	1.744786	1.015028	1
H	0.810224	2.364676	-0.342052	1
H	2.393894	0.454656	-0.189922	1
H	1.845764	0.365226	1.497468	1
H	-0.690376	-0.560284	1.863578	1
H	0.398254	-1.949904	1.796798	1
H	-1.090036	-1.948574	0.839908	1
H	1.542354	-1.335474	-1.482262	1
Es	1.742794	0.369934	1.171720	99
Es	-1.752561	0.461667	-0.844155	99
Es	1.062305	-0.203967	0.278574	99
Es	0.488143	-0.700553	0.027617	99
Es	0.442127	1.457000	0.143779	99
Es	0.187255	-1.739663	1.597849	99
Es	-1.980119	1.081929	-1.191302	99
Es	0.839379	-1.357265	-0.484979	99
Es	0.800859	-1.907211	-0.904826	99
Es	0.049363	0.469418	-1.492033	99
Es	-2.050215	0.453871	-0.157025	99
Es	1.035563	-1.769713	-0.775533	99
Es	0.026608	1.640797	0.741220	99
Es	1.305612	-1.519967	-1.157770	99
Es	-0.267837	-1.319750	1.197554	99
Es	-0.236810	0.428077	-0.791574	99
Es	0.051996	1.009607	-0.347160	99
Es	-1.004648	0.438864	-0.814102	99
Es	-2.011017	-0.125930	-1.222829	99
Es	0.060098	-0.192354	-0.417303	99
Es	-0.823608	-1.740556	0.952430	99
Es	2.105122	0.431721	-0.000922	99
Es	0.694205	2.082635	-0.190256	99
Es	-0.552266	-0.792955	1.645019	99
Es	1.234851	-1.919200	-0.601844	99
Es	0.099492	-1.000905	0.613785	99
Es	1.023987	0.987246	0.339693	99
Es	1.510746	0.393292	0.456689	99
47
Properties=species:S:1:pos:R:3:Z:I:1 energy=-309.1370574950566 field_type=dipole dipole="0.000000 0.000000 0.000000" charge=0
C	-1.752576	0.461666	-0.844152	6
C	-0.236806	0.428066	-0.791612	6
C	0.442104	1.457056	0.143788	6
C	1.510784	0.393266	0.456708	6
C	0.488054	-0.700414	0.027738	6
C	-0.267846	-1.319784	1.197578	6
O	1.035454	-1.770064	-0.775532	8
H	-2.135496	-0.399944	-1.398682	1
H	-2.096536	1.367886	-1.351782	1
H	-2.198236	0.450116	0.154438	1
H	0.158574	0.497036	-1.817032	1
H	-0.157556	1.744786	1.015028	1
H	0.810224	2.364676	-0.342052	1
H	2.393894	0.454656	-0.189922	1
H	1.845764	0.365226	1.497468	1
H	-0.690376	-0.560284	1.863578	1
H	0.398254	-1.949904	1.796798	1
H	-1.090036	-1.948574	0.839908	1
H	1.542354	-1.335474	-1.482262	1
Es	0.049340	0.469487	-1.492060	99
Es	-1.004518	0.438770	-0.814167	99
Es	0.488140	-0.700554	0.027617	99
Es	-1.752558	0.461666	-0.844156	99
Es	0.442125	1.457000	0.143777	99
Es	-2.050138	0.453860	-0.157048	99
Es	1.305809	-1.519982	-1.158294	99
Es	-0.552327	-0.792951	1.645053	99
Es	1.510745	0.393291	0.456689	99
Es	0.840393	-1.357554	-0.484493	99
Es	0.060004	-0.192484	-0.417290	99
Es	1.035503	-1.769845	-0.775595	99
Es	0.187283	-1.739857	1.597843	99
Es	-0.236810	0.428080	-0.791573	99
Es	1.024086	0.987345	0.339621	99
Es	-1.980144	1.082035	-1.191381	99
Es	2.105150	0.431640	-0.000883	99
Es	0.694074	2.082511	-0.190369	99
Es	1.742752	0.369856	1.171713	99
Es	-2.011029	-0.125938	-1.222722	99
Es	-0.267836	-1.319750	1.197556	99
Es	0.026551	1.640896	0.741291	99
Es	1.234487	-1.918100	-0.602388	99
Es	0.051973	1.009664	-0.346957	99
Es	1.062346	-0.203864	0.278551	99
Es	-0.823493	-1.740363	0.952484	99
Es	0.099432	-1.000900	0.613698	99
Es	0.800089	-1.907892	-0.904202	99
47
Properties=species:S:1:pos:R:3:Z:I:1 energy=-309.1370574950566 field_type=dipole dipole="0.000000 0.000000 0.000000" charge=0
C	-1.752576	0.461666	-0.844152	6
C	-0.236806	0.428066	-0.791612	6
C	0.442104	1.457056	0.143788	6
C	1.510784	0.393266	0.456708	6
C	0.488054	-0.700414	0.027738	6
C	-0.267846	-1.319784	1.197578	6
O	1.035454	-1.770064	-0.775532	8
H	-2.135496	-0.399944	-1.398682	1
H	-2.096536	1.367886	-1.351782	1
H	-2.198236	0.450116	0.154438	1
H	0.158574	0.497036	-1.817032	1
H	-0.157556	1.744786	1.015028	1
H	0.810224	2.364676	-0.342052	1
H	2.393894	0.454656	-0.189922	1
H	1.845764	0.365226	1.497468	1
H	-0.690376	-0.560284	1.863578	1
H	0.398254	-1.949904	1.796798	1
H	-1.090036	-1.948574	0.839908	1
H	1.542354	-1.335474	-1.482262	1
Es	0.800270	-1.901525	-0.905479	99
Es	1.232696	-1.924445	-0.601220	99
Es	-0.552266	-0.792933	1.645208	99
Es	1.510745	0.393292	0.456689	99
Es	-0.267834	-1.319750	1.197556	99
Es	-0.236811	0.428080	-0.791574	99
Es	-2.011073	-0.126091	-1.222985	99
Es	0.488144	-0.700550	0.027619	99
Es	2.105185	0.431806	-0.000934	99
Es	-1.752560	0.461667	-0.844155	99
Es	0.694251	2.082545	-0.190277	99
Es	-2.050123	0.453951	-0.156992	99
Es	0.840816	-1.357228	-0.484937	99
Es	-1.979997	1.081937	-1.191187	99
Es	0.026580	1.640836	0.741370	99
Es	0.060080	-0.192421	-0.417284	99
Es	-1.004683	0.438903	-0.814085	99
Es	0.099382	-1.000929	0.613628	99
Es	1.306923	-1.520451	-1.157792	99
Es	1.023947	0.987335	0.339691	99
Es	1.062294	-0.203952	0.278621	99
Es	0.049299	0.469306	-1.492081	99
Es	0.052109	1.009639	-0.347121	99
Es	1.035540	-1.769714	-0.775561	99
Es	0.442126	1.457001	0.143778	99
Es	0.187177	-1.739542	1.597654	99
Es	-0.823543	-1.740673	0.952516	99
Es	1.742753	0.369971	1.171651	99
47
Properties=species:S:1:pos:R:3:Z:I:1 energy=-309.1370574950566 field_type=dipole dipole="0.000000 0.000000 0.000000" charge=0
C	-1.752576	0.461666	-0.844152	6
C	-0.236806	0.428066	-0.791612	6
C	0.442104	1.457056	0.143788	6
C	1.510784	0.393266	0.456708	6
C	0.488054	-0.700414	0.027738	6
C	-0.267846	-1.319784	1.197578	6
O	1.035454	-1.770064	-0.775532	8
H	-2.135496	-0.399944	-1.398682	1
H	-2.096536	1.367886	-1.351782	1
H	-2.198236	0.450116	0.154438	1
H	0.158574	0.497036	-1.817032	1
H	-0.157556	1.744786	1.015028	1
H	0.810224	2.364676	-0.342052	1
H	2.393894	0.454656	-0.189922	1
H	1.845764	0.365226	1.497468	1
H	-0.690376	-0.560284	1.863578	1
H	0.398254	-1.949904	1.796798	1
H	-1.090036	-1.948574	0.839908	1
H	1.542354	-1.335474	-1.482262	1
Es	1.229813	-1.937386	-0.601763	99
Es	0.917772	-1.825634	-0.841567	99
Es	0.694579	2.082544	-0.188691	99
Es	0.028261	1.641048	0.740550	99
Es	0.925321	-1.831550	-0.836461	99
Es	0.049566	0.468174	-1.490833	99
Es	1.304486	-1.520465	-1.161864	99
Es	1.743380	0.371140	1.172455	99
Es	0.099608	-1.000566	0.613864	99
Es	-0.236810	0.428079	-0.791574	99
Es	-2.013071	-0.126552	-1.223897	99
Es	0.051514	1.009129	-0.348565	99
Es	-0.549777	-0.793531	1.643960	99
Es	1.062547	-0.204106	0.278906	99
Es	0.442126	1.457000	0.143778	99
Es	-1.752560	0.461667	-0.844155	99
Es	-1.004343	0.438797	-0.814137	99
Es	-1.979948	1.080376	-1.189169	99
Es	0.059916	-0.191780	-0.418057	99
Es	1.510747	0.393292	0.456689	99
Es	-0.267835	-1.319749	1.197556	99
Es	0.187526	-1.737737	1.598036	99
Es	-2.050344	0.455116	-0.158422	99
Es	0.488143	-0.700553	0.027617	99
Es	-0.826816	-1.742432	0.951693	99
Es	0.838301	-1.358180	-0.483142	99
Es	1.025029	0.986844	0.340460	99
Es	2.104297	0.433082	-0.000951	99
47
Properties=species:S:1:pos:R:3:Z:I:1 energy=-309.1370574950566 field_type=dipole dipole="0.000000 0.000000 0.000000" charge=0
C	-1.752576	0.461666	-0.844152	6
C	-0.236806	0.428066	-0.791612	6
C	0.442104	1.457056	0.143788	6
C	1.510784	0.393266	0.456708	6
C	0.488054	-0.700414	0.027738	6
C	-0.267846	-1.319784	1.197578	6
O	1.035454	-1.770064	-0.775532	8
H	-2.135496	-0.399944	-1.398682	1
H	-2.096536	1.367886	-1.351782	1
H	-2.198236	0.450116	0.154438	1
H	0.158574	0.497036	-1.817032	1
H	-0.157556	1.744786	1.015028	1
H	0.810224	2.364676	-0.342052	1
H	2.393894	0.454656	-0.189922	1
H	1.845764	0.365226	1.497468	1
H	-0.690376	-0.560284	1.863578	1
H	0.398254	-1.949904	1.796798	1
H	-1.090036	-1.948574	0.839908	1
H	1.542354	-1.335474	-1.482262	1
Es	-0.267834	-1.319749	1.197555	99
Es	0.187182	-1.739804	1.597635	99
Es	-2.050156	0.453847	-0.156950	99
Es	0.801565	-1.910908	-0.903058	99
Es	-0.236810	0.428078	-0.791574	99
Es	-0.552426	-0.792888	1.645285	99
Es	0.049291	0.469373	-1.492180	99
Es	-1.004672	0.439005	-0.814016	99
Es	-0.823291	-1.740398	0.952613	99
Es	1.023894	0.987489	0.339619	99
Es	-1.980055	1.082027	-1.191374	99
Es	0.026509	1.640829	0.741384	99
Es	0.838154	-1.357587	-0.486401	99
Es	1.305112	-1.519958	-1.158994	99
Es	0.052075	1.009587	-0.347101	99
Es	0.442125	1.457001	0.143778	99
Es	1.235826	-1.915235	-0.600990	99
Es	-2.010810	-0.126115	-1.222908	99
Es	1.742764	0.369866	1.171695	99
Es	0.488144	-0.700554	0.027617	99
Es	1.035621	-1.769699	-0.775518	99
Es	0.060004	-0.192350	-0.417238	99
Es	0.099422	-1.000960	0.613611	99
Es	2.105155	0.431612	-0.000943	99
Es	-1.752559	0.461667	-0.844156	99
Es	0.694202	2.082552	-0.190354	99
Es	1.062253	-0.203953	0.278587	99
Es	1.510744	0.393292	0.456689	99
47
Properties=species:S:1:pos:R:3:Z:I:1 energy=-309.1370574950566 field_type=dipole dipole="0.000000 0.000000 0.000000" charge=0
C	-1.752576	0.461666	-0.844152	6
C	-0.236806	0.428066	-0.791612	6
C	0.442104	1.457056	0.143788	6
C	1.510784	0.393266	0.456708	6
C	0.488054	-0.700414	0.027738	6
C	-0.267846	-1.319784	1.197578	6
O	1.035454	-1.770064	-0.775532	8
H	-2.135496	-0.399944	-1.398682	1
H	-2.096536	1.367886	-1.351782	1
H	-2.198236	0.450116	0.154438	1
H	0.158574	0.497036	-1.817032	1
H	-0.157556	1.744786	1.015028	1
H	0.810224	2.364676	-0.342052	1
H	2.393894	0.454656	-0.189922	1
H	1.845764	0.365226	1.497468	1
H	-0.690376	-0.560284	1.863578	1
H	0.398254	-1.949904	1.796798	1
H	-1.090036	-1.948574	0.839908	1
H	1.542354	-1.335474	-1.482262	1
Es	0.099507	-1.000923	0.613643	99
Es	1.742671	0.369953	1.171570	99
Es	1.062242	-0.203963	0.278554	99
Es	0.488143	-0.700554	0.027617	99
Es	0.052175	1.009601	-0.346986	99
Es	1.304766	-1.520005	-1.158635	99
Es	1.234328	-1.922378	-0.603002	99
Es	-0.823374	-1.740581	0.952595	99
Es	-1.979986	1.082008	-1.191243	99
Es	0.442126	1.457001	0.143778	99
Es	0.060140	-0.192397	-0.417225	99
Es	1.023846	0.987371	0.339655	99
Es	0.049323	0.469387	-1.492139	99
Es	1.510746	0.393291	0.456690	99
Es	0.799863	-1.903784	-0.904329	99
Es	-1.004718	0.438870	-0.814039	99
Es	-0.267836	-1.319749	1.197556	99
Es	0.694267	2.082602	-0.190440	99
Es	-0.552383	-0.792971	1.645285	99
Es	1.035515	-1.769792	-0.775611	99
Es	-2.010983	-0.126024	-1.222976	99
Es	-2.050158	0.453858	-0.156956	99
Es	0.841796	-1.357409	-0.483428	99
Es	-0.236809	0.428079	-0.791573	99
Es	2.105274	0.431710	-0.000905	99
Es	0.187036	-1.739591	1.597634	99
Es	-1.752559	0.461667	-0.844155	99
Es	0.026469	1.640789	0.741383	99
47
Properties=species:S:1:pos:R:3:Z:I:1 energy=-309.1370574950566 field_type=dipole dipole="0.000000 0.000000 0.000000" charge=0
C	-1.752576	0.461666	-0.844152	6
C	-0.236806	0.428066	-0.791612	6
C	0.442104	1.457056	0.143788	6
C	1.510784	0.393266	0.456708	6
C	0.488054	-0.700414	0.027738	6
C	-0.267846	-1.319784	1.197578	6
O	1.035454	-1.770064	-0.775532	8
H	-2.135496	-0.399944	-1.398682	1
H	-2.096536	1.367886	-1.351782	1
H	-2.198236	0.450116	0.154438	1
H	0.158574	0.497036	-1.817032	1
H	-0.157556	1.744786	1.015028	1
H	0.810224	2.364676	-0.342052	1
H	2.393894	0.454656	-0.189922	1
H	1.845764	0.365226	1.497468	1
H	-0.690376	-0.560284	1.863578	1
H	0.398254	-1.949904	1.796798	1
H	-1.090036	-1.948574	0.839908	1
H	1.542354	-1.335474	-1.482262	1
Es	-0.236809	0.428078	-0.791573	99
Es	1.742741	0.369882	1.171695	99
Es	-1.004677	0.438866	-0.814064	99
Es	1.510747	0.393291	0.456689	99
Es	-2.010792	-0.126021	-1.222840	99
Es	-2.050118	0.453798	-0.156848	99