47
Properties=species:S:1:pos:R:3:Z:I:1 energy=-309.16246964095984 field_type=dipole dipole="0.000000 0.000000 0.000000" charge=0
C	-2.159310	0.144153	-0.662140	6
C	-0.640270	0.137143	-0.614770	6
C	-0.068430	1.263083	0.243200	6
C	1.345810	0.791133	0.528230	6
C	1.197100	-0.709757	0.759910	6
O	2.342300	-1.409887	0.303460	8
C	-0.064000	-1.141557	0.004130	6
H	-2.530210	-0.676197	-1.284010	1
H	-2.529560	1.085353	-1.082650	1
H	-2.590130	0.030833	0.337800	1
H	-0.251790	0.238983	-1.637730	1
H	-0.629630	1.372263	1.179640	1
H	-0.081500	2.226712	-0.277580	1
H	2.005100	0.998203	-0.323870	1
H	1.775850	1.294973	1.400660	1
H	1.079330	-0.921567	1.828650	1
H	2.434710	-1.244997	-0.650160	1
H	0.138880	-1.895037	-0.765490	1
H	-0.774260	-1.583827	0.712720	1
Es	-0.640287	0.137137	-0.614750	99
Es	2.279387	-1.711020	0.331510	99
Es	1.116469	-0.853013	1.493830	99
Es	1.197268	-0.709856	0.759803	99
Es	-0.068410	1.263070	0.243203	99
Es	-1.408292	0.139165	-0.638257	99
Es	-2.159302	0.144154	-0.662147	99
Es	-2.411471	-0.417934	-1.087682	99
Es	1.791118	0.920049	-0.065996	99
Es	1.907738	-1.136476	0.451413	99
Es	-0.064005	-1.141532	0.004131	99
Es	-0.366949	-0.516080	-0.309409	99
Es	0.082621	-1.652437	-0.522297	99
Es	-0.455302	1.328300	0.887513	99
Es	2.342079	-1.409710	0.303257	99
Es	2.370770	-1.304946	-0.213068	99
Es	1.283793	0.051510	0.646519	99
Es	-0.373005	0.716803	-0.187467	99
Es	1.641888	1.135436	1.124718	99
Es	-0.367337	0.209013	-1.318730	99
Es	-2.410526	0.788985	-0.950450	99
Es	2.589096	-1.279384	0.437853	99
Es	-0.553967	-1.438568	0.489701	99
Es	0.646835	1.054254	0.393739	99
Es	-0.080628	1.924900	-0.113105	99
Es	-2.447137	0.066146	0.025116	99
Es	0.563402	-0.940574	0.371707	99
Es	1.345785	0.791142	0.528223	99
47
Properties=species:S:1:pos:R:3:Z:I:1 energy=-309.16246964095984 field_type=dipole dipole="0.000000 0.000000 0.000000" charge=0
C	-2.159310	0.144153	-0.662140	6
C	-0.640270	0.137143	-0.614770	6
C	-0.068430	1.263083	0.243200	6
C	1.345810	0.791133	0.528230	6
C	1.197100	-0.709757	0.759910	6
O	2.342300	-1.409887	0.303460	8
C	-0.064000	-1.141557	0.004130	6
H	-2.530210	-0.676197	-1.284010	1
H	-2.529560	1.085353	-1.082650	1
H	-2.590130	0.030833	0.337800	1
H	-0.251790	0.238983	-1.637730	1
H	-0.629630	1.372263	1.179640	1
H	-0.081500	2.226712	-0.277580	1
H	2.005100	0.998203	-0.323870	1
H	1.775850	1.294973	1.400660	1
H	1.079330	-0.921567	1.828650	1
H	2.434710	-1.244997	-0.650160	1
H	0.138880	-1.895037	-0.765490	1
H	-0.774260	-1.583827	0.712720	1
Es	0.563370	-0.939961	0.370790	99
Es	-0.079833	1.924532	-0.113603	99
Es	-0.367096	0.208993	-1.320269	99
Es	1.115930	-0.853239	1.494802	99
Es	1.283020	0.051654	0.646204	99
Es	-1.408150	0.139078	-0.638145	99
Es	1.197273	-0.709859	0.759805	99
Es	-2.159303	0.144155	-0.662147	99
Es	-0.554485	-1.438514	0.490734	99
Es	1.345785	0.791142	0.528223	99
Es	2.587556	-1.284829	0.440307	99
Es	1.641170	1.135358	1.125113	99
Es	2.342088	-1.409627	0.303259	99
Es	-0.068411	1.263070	0.243203	99
Es	-2.447803	0.066159	0.026721	99
Es	0.646563	1.053583	0.393642	99
Es	-2.410802	-0.417431	-1.088222	99
Es	1.791580	0.920457	-0.067402	99
Es	1.908062	-1.135882	0.452526	99
Es	2.277261	-1.707184	0.330139	99
Es	-0.064005	-1.141533	0.004130	99
Es	-0.372615	0.716773	-0.187023	99
Es	-2.409653	0.788310	-0.950925	99
Es	0.083209	-1.652480	-0.523048	99
Es	2.373962	-1.303886	-0.215553	99
Es	-0.366894	-0.515780	-0.308694	99
Es	-0.640287	0.137136	-0.614750	99
Es	-0.455862	1.328338	0.889061	99
47
Properties=species:S:1:pos:R:3:Z:I:1 energy=-309.16246964095984 field_type=dipole dipole="0.000000 0.000000 0.000000" charge=0
C	-2.159310	0.144153	-0.662140	6
C	-0.640270	0.137143	-0.614770	6
C	-0.068430	1.263083	0.243200	6
C	1.345810	0.791133	0.528230	6
C	1.197100	-0.709757	0.759910	6
O	2.342300	-1.409887	0.303460	8
C	-0.064000	-1.141557	0.004130	6
H	-2.530210	-0.676197	-1.284010	1
H	-2.529560	1.085353	-1.082650	1
H	-2.590130	0.030833	0.337800	1
H	-0.251790	0.238983	-1.637730	1
H	-0.629630	1.372263	1.179640	1
H	-0.081500	2.226712	-0.277580	1
H	2.005100	0.998203	-0.323870	1
H	1.775850	1.294973	1.400660	1
H	1.079330	-0.921567	1.828650	1
H	2.434710	-1.244997	-0.650160	1
H	0.138880	-1.895037	-0.765490	1
H	-0.774260	-1.583827	0.712720	1
Es	1.197271	-0.709857	0.759804	99
Es	-0.372525	0.716656	-0.186993	99
Es	1.640764	1.135416	1.125530	99
Es	0.083484	-1.652395	-0.523530	99
Es	1.282623	0.051769	0.646014	99
Es	1.115709	-0.853254	1.495355	99
Es	0.563253	-0.939584	0.370128	99
Es	-0.068411	1.263070	0.243204	99
Es	1.908205	-1.135470	0.454523	99
Es	-0.640286	0.137137	-0.614750	99
Es	2.582103	-1.282889	0.435516	99
Es	1.791804	0.920538	-0.068179	99
Es	-2.409225	0.787782	-0.951008	99
Es	-2.448142	0.066163	0.027548	99
Es	-0.064006	-1.141531	0.004131	99
Es	2.374497	-1.303537	-0.216727	99
Es	2.342035	-1.409717	0.303246	99
Es	-2.159303	0.144154	-0.662147	99
Es	-2.410462	-0.417153	-1.088619	99
Es	2.282012	-1.709718	0.333933	99
Es	0.646485	1.053161	0.393407	99
Es	-0.366876	0.208874	-1.321129	99
Es	-0.366789	-0.515494	-0.308188	99
Es	-0.554819	-1.438488	0.491421	99
Es	-1.408098	0.139142	-0.638070	99
Es	-0.079415	1.924224	-0.113663	99
Es	-0.456043	1.328396	0.889897	99
Es	1.345785	0.791143	0.528226	99
47
Properties=species:S:1:pos:R:3:Z:I:1 energy=-309.16246964095984 field_type=dipole dipole="0.000000 0.000000 0.000000" charge=0
C	-2.159310	0.144153	-0.662140	6
C	-0.640270	0.137143	-0.614770	6
C	-0.068430	1.263083	0.243200	6
C	1.345810	0.791133	0.528230	6
C	1.197100	-0.709757	0.759910	6
O	2.342300	-1.409887	0.303460	8
C	-0.064000	-1.141557	0.004130	6
H	-2.530210	-0.676197	-1.284010	1
H	-2.529560	1.085353	-1.082650	1
H	-2.590130	0.030833	0.337800	1
H	-0.251790	0.238983	-1.637730	1
H	-0.629630	1.372263	1.179640	1
H	-0.081500	2.226712	-0.277580	1
H	2.005100	0.998203	-0.323870	1
H	1.775850	1.294973	1.400660	1
H	1.079330	-0.921567	1.828650	1
H	2.434710	-1.244997	-0.650160	1
H	0.138880	-1.895037	-0.765490	1
H	-0.774260	-1.583827	0.712720	1
Es	-0.068410	1.263071	0.243203	99
Es	-0.064005	-1.141532	0.004130	99
Es	1.345785	0.791142	0.528223	99
Es	2.373972	-1.305852	-0.218668	99
Es	1.197272	-0.709858	0.759802	99
Es	-0.555051	-1.438504	0.491705	99
Es	-0.640288	0.137136	-0.614751	99
Es	2.342140	-1.409621	0.303261	99
Es	-1.408083	0.139166	-0.638101	99
Es	-2.159302	0.144154	-0.662147	99
Es	-0.079116	1.924113	-0.113907	99
Es	2.577284	-1.279060	0.431162	99
Es	1.791850	0.920623	-0.068647	99
Es	0.646482	1.052932	0.393322	99
Es	0.563255	-0.939177	0.369953	99
Es	-0.372391	0.716446	-0.186820	99
Es	0.083741	-1.652325	-0.523799	99
Es	-2.410270	-0.416974	-1.088883	99
Es	-2.408833	0.787468	-0.951091	99
Es	1.640546	1.135466	1.125937	99
Es	1.115578	-0.853258	1.495726	99
Es	-2.448335	0.066222	0.028136	99
Es	-0.366742	0.208846	-1.321662	99
Es	2.288132	-1.710071	0.339140	99
Es	1.907306	-1.136643	0.455392	99
Es	-0.366873	-0.515541	-0.307887	99
Es	1.282142	0.051735	0.645741	99
Es	-0.456154	1.328429	0.890407	99
47
Properties=species:S:1:pos:R:3:Z:I:1 energy=-309.16246964095984 field_type=dipole dipole="0.000000 0.000000 0.000000" charge=0
C	-2.159310	0.144153	-0.662140	6
C	-0.640270	0.137143	-0.614770	6
C	-0.068430	1.263083	0.243200	6
C	1.345810	0.791133	0.528230	6
C	1.197100	-0.709757	0.759910	6
O	2.342300	-1.409887	0.303460	8
C	-0.064000	-1.141557	0.004130	6
H	-2.530210	-0.676197	-1.284010	1
H	-2.529560	1.085353	-1.082650	1
H	-2.590130	0.030833	0.337800	1
H	-0.251790	0.238983	-1.637730	1
H	-0.629630	1.372263	1.179640	1
H	-0.081500	2.226712	-0.277580	1
H	2.005100	0.998203	-0.323870	1
H	1.775850	1.294973	1.400660	1
H	1.079330	-0.921567	1.828650	1
H	2.434710	-1.244997	-0.650160	1
H	0.138880	-1.895037	-0.765490	1
H	-0.774260	-1.583827	0.712720	1
Es	-0.372343	0.716342	-0.186729	99
Es	-0.456181	1.328436	0.890861	99
Es	1.197270	-0.709857	0.759804	99
Es	-2.410081	-0.416795	-1.089024	99
Es	0.083932	-1.652333	-0.524047	99
Es	2.287563	-1.708929	0.339258	99
Es	-0.640291	0.137138	-0.614751	99
Es	-0.366804	-0.515433	-0.307635	99
Es	0.646482	1.052732	0.393178	99
Es	-2.159300	0.144154	-0.662146	99
Es	0.563181	-0.938946	0.369521	99
Es	1.791985	0.920721	-0.069047	99
Es	-2.408602	0.787265	-0.951180	99
Es	2.374078	-1.306603	-0.219197	99
Es	2.577704	-1.279214	0.431869	99
Es	-0.068401	1.263066	0.243205	99
Es	-0.064004	-1.141533	0.004130	99
Es	-1.408083	0.139160	-0.638040	99
Es	1.640257	1.135466	1.126080	99
Es	-0.366647	0.208839	-1.322062	99
Es	1.345784	0.791142	0.528224	99
Es	-0.078949	1.923976	-0.114009	99
Es	-0.555159	-1.438446	0.492125	99
Es	1.115377	-0.853326	1.496012	99
Es	1.281968	0.051798	0.645653	99
Es	2.342088	-1.409759	0.303218	99
Es	-2.448502	0.066208	0.028518	99
Es	1.907306	-1.136733	0.455086	99
47
Properties=species:S:1:pos:R:3:Z:I:1 energy=-309.16246964095984 field_type=dipole dipole="0.000000 0.000000 0.000000" charge=0
C	-2.159310	0.144153	-0.662140	6
C	-0.640270	0.137143	-0.614770	6
C	-0.068430	1.263083	0.243200	6
C	1.345810	0.791133	0.528230	6
C	1.197100	-0.709757	0.759910	6
O	2.342300	-1.409887	0.303460	8
C	-0.064000	-1.141557	0.004130	6
H	-2.530210	-0.676197	-1.284010	1
H	-2.529560	1.085353	-1.082650	1
H	-2.590130	0.030833	0.337800	1
H	-0.251790	0.238983	-1.637730	1
H	-0.629630	1.372263	1.179640	1
H	-0.081500	2.226712	-0.277580	1
H	2.005100	0.998203	-0.323870	1
H	1.775850	1.294973	1.400660	1
H	1.079330	-0.921567	1.828650	1
H	2.434710	-1.244997	-0.650160	1
H	0.138880	-1.895037	-0.765490	1
H	-0.774260	-1.583827	0.712720	1
Es	-2.448560	0.066192	0.028870	99
Es	-0.366618	0.208906	-1.322343	99
Es	-0.555179	-1.438381	0.492377	99
Es	-0.078671	1.923914	-0.114109	99
Es	1.345786	0.791140	0.528222	99
Es	0.563014	-0.938870	0.369371	99
Es	1.281606	0.051787	0.645478	99
Es	1.640266	1.135380	1.126185	99
Es	1.197271	-0.709857	0.759804	99
Es	-0.640287	0.137136	-0.614751	99
Es	2.342101	-1.409688	0.303243	99
Es	0.084157	-1.652402	-0.524293	99
Es	2.375499	-1.304862	-0.219151	99
Es	1.115259	-0.853366	1.496231	99
Es	-2.159301	0.144154	-0.662147	99
Es	-1.408059	0.139167	-0.638115	99
Es	-0.366762	-0.515383	-0.307364	99
Es	-2.409884	-0.416710	-1.089153	99
Es	1.791960	0.920736	-0.069331	99
Es	0.646352	1.052756	0.393211	99
Es	1.906859	-1.137534	0.455092	99
Es	2.285507	-1.707350	0.336336	99
Es	-0.372312	0.716352	-0.186655	99
Es	2.578733	-1.281777	0.434589	99
Es	-2.408412	0.787140	-0.951267	99
Es	-0.456278	1.328416	0.891214	99
Es	-0.064006	-1.141532	0.004130	99
Es	-0.068411	1.263070	0.243204	99
47
Properties=species:S:1:pos:R:3:Z:I:1 energy=-309.16246964095984 field_type=dipole dipole="0.000000 0.000000 0.000000" charge=0
C	-2.159310	0.144153	-0.662140	6
C	-0.640270	0.137143	-0.614770	6
C	-0.068430	1.263083	0.243200	6
C	1.345810	0.791133	0.528230	6
C	1.197100	-0.709757	0.759910	6
O	2.342300	-1.409887	0.303460	8
C	-0.064000	-1.141557	0.004130	6
H	-2.530210	-0.676197	-1.284010	1
H	-2.529560	1.085353	-1.082650	1
H	-2.590130	0.030833	0.337800	1
H	-0.251790	0.238983	-1.637730	1
H	-0.629630	1.372263	1.179640	1
H	-0.081500	2.226712	-0.277580	1
H	2.005100	0.998203	-0.323870	1
H	1.775850	1.294973	1.400660	1
H	1.079330	-0.921567	1.828650	1
H	2.434710	-1.244997	-0.650160	1
H	0.138880	-1.895037	-0.765490	1
H	-0.774260	-1.583827	0.712720	1
Es	-2.159301	0.144155	-0.662147	99
Es	1.345785	0.791142	0.528223	99
Es	1.907497	-1.136661	0.456322	99
Es	2.287724	-1.707517	0.339175	99
Es	0.563134	-0.938738	0.369163	99
Es	1.281671	0.051812	0.645459	99
Es	-0.068410	1.263071	0.243203	99
Es	-0.456170	1.328369	0.891482	99
Es	-0.372107	0.716155	-0.186668	99
Es	2.342164	-1.409757	0.303327	99
Es	1.639989	1.135508	1.126317	99
Es	-0.366625	0.208782	-1.322564	99
Es	2.576560	-1.280741	0.431481	99
Es	-0.064005	-1.141532	0.004130	99
Es	0.084130	-1.652340	-0.524354	99
Es	-2.448750	0.066292	0.029012	99
Es	-1.408009	0.139166	-0.637955	99
Es	1.115185	-0.853323	1.496349	99
Es	1.197271	-0.709858	0.759803	99
Es	-0.640287	0.137136	-0.614750	99
Es	-2.409952	-0.416564	-1.089316	99
Es	0.646229	1.052576	0.392983	99
Es	-0.366855	-0.515350	-0.307255	99
Es	-0.555220	-1.438403	0.492549	99
Es	1.792055	0.920809	-0.069494	99
Es	-0.078714	1.923876	-0.114206	99
Es	-2.408132	0.786949	-0.951212	99
Es	2.374776	-1.306480	-0.220177	99
47
Properties=species:S:1:pos:R:3:Z:I:1 energy=-309.16246964095984 field_type=dipole dipole="0.000000 0.000000 0.000000" charge=0
C	-2.159310	0.144153	-0.662140	6
C	-0.640270	0.137143	-0.614770	6
C	-0.068430	1.263083	0.243200	6
C	1.345810	0.791133	0.528230	6
C	1.197100	-0.709757	0.759910	6
O	2.342300	-1.409887	0.303460	8
C	-0.064000	-1.141557	0.004130	6
H	-2.530210	-0.676197	-1.284010	1
H	-2.529560	1.085353	-1.082650	1
H	-2.590130	0.030833	0.337800	1
H	-0.251790	0.238983	-1.637730	1
H	-0.629630	1.372263	1.179640	1
H	-0.081500	2.226712	-0.277580	1
H	2.005100	0.998203	-0.323870	1
H	1.775850	1.294973	1.400660	1
H	1.079330	-0.921567	1.828650	1
H	2.434710	-1.244997	-0.650160	1
H	0.138880	-1.895037	-0.765490	1
H	-0.774260	-1.583827	0.712720	1
Es	-2.159302	0.144154	-0.662147	99
Es	-0.366805	-0.515327	-0.307080	99
Es	1.791916	0.920878	-0.069746	99
Es	-2.409856	-0.416555	-1.089345	99
Es	1.197273	-0.709858	0.759803	99
Es	2.342168	-1.409633	0.303254	99
Es	-0.456215	1.328364	0.891599	99
Es	-0.640287	0.137136	-0.614751	99
Es	-0.366575	0.208845	-1.322787	99
Es	-0.068410	1.263070	0.243203	99
Es	-0.372293	0.716237	-0.186565	99
Es	1.907602	-1.136381	0.456856	99
Es	-2.448743	0.066315	0.029187	99
Es	-0.064006	-1.141532	0.004130	99
Es	2.375105	-1.306247	-0.220328	99
Es	-0.078498	1.923889	-0.114212	99
Es	1.281513	0.051731	0.645361	99
Es	-0.555314	-1.438425	0.492677	99
Es	1.115116	-0.853309	1.496497	99
Es	0.084154	-1.652245	-0.524509	99
Es	0.646350	1.052304	0.393085	99
Es	-2.408062	0.786884	-0.951278	99
Es	1.345785	0.791143	0.528223	99
Es	2.576757	-1.282299	0.431849	99
Es	1.639987	1.135571	1.126392	99
Es	2.287046	-1.706583	0.338464	99
Es	-1.407935	0.139113	-0.637978	99
Es	0.563157	-0.938706	0.369023	99
47
Properties=species:S:1:pos:R:3:Z:I:1 energy=-309.16246964095984 field_type=dipole dipole="0.000000 0.000000 0.000000" charge=0
C	-2.159310	0.144153	-0.662140	6
C	-0.640270	0.137143	-0.614770	6
C	-0.068430	1.263083	0.243200	6
C	1.345810	0.791133	0.528230	6
C	1.197100	-0.709757	0.759910	6
O	2.342300	-1.409887	0.303460	8
C	-0.064000	-1.141557	0.004130	6
H	-2.530210	-0.676197	-1.284010	1
H	-2.529560	1.085353	-1.082650	1
H	-2.590130	0.030833	0.337800	1
H	-0.251790	0.238983	-1.637730	1
H	-0.629630	1.372263	1.179640	1
H	-0.081500	2.226712	-0.277580	1
H	2.005100	0.998203	-0.323870	1
H	1.775850	1.294973	1.400660	1
H	1.079330	-0.921567	1.828650	1
H	2.434710	-1.244997	-0.650160	1
H	0.138880	-1.895037	-0.765490	1
H	-0.774260	-1.583827	0.712720	1
Es	1.197271	-0.709858	0.759805	99
Es	-0.064006	-1.141532	0.004130	99
Es	2.290851	-1.707210	0.341230	99
Es	1.345786	0.791140	0.528222	99
Es	1.906503	-1.138094	0.456430	99
Es	-2.408075	0.786780	-0.951330	99
Es	0.084197	-1.652236	-0.524658	99
Es	1.281315	0.051736	0.645237	99
Es	-1.408006	0.139226	-0.638023	99
Es	-2.159300	0.144155	-0.662147	99
Es	-2.448764	0.066259	0.029357	99
Es	-0.078445	1.923731	-0.114229	99
Es	0.646582	1.052234	0.392999	99
Es	1.792054	0.920838	-0.069839	99
Es	2.374512	-1.307576	-0.220957	99
Es	-0.640286	0.137136	-0.614751	99
Es	0.563064	-0.938679	0.368949	99
Es	-0.372280	0.716228	-0.186599	99
Es	2.342217	-1.409802	0.303344	99
Es	2.574559	-1.278445	0.430020	99
Es	-0.366507	0.208793	-1.322898	99
Es	-0.555358	-1.438387	0.492774	99
Es	-2.409678	-0.416525	-1.089382	99
Es	-0.456335	1.328459	0.891672	99
Es	-0.068411	1.263070	0.243204	99
Es	1.639804	1.135595	1.126587	99
Es	1.115145	-0.853213	1.496620	99
Es	-0.366779	-0.515289	-0.306889	99
47
Properties=species:S:1:pos:R:3:Z:I:1 energy=-309.16246964095984 field_type=dipole dipole="0.000000 0.000000 0.000000" charge=0
C	-2.159310	0.144153	-0.662140	6
C	-0.640270	0.137143	-0.614770	6
C	-0.068430	1.263083	0.243200	6
C	1.345810	0.791133	0.528230	6
C	1.197100	-0.709757	0.759910	6
O	2.342300	-1.409887	0.303460	8
C	-0.064000	-1.141557	0.004130	6
H	-2.530210	-0.676197	-1.284010	1
H	-2.529560	1.085353	-1.082650	1
H	-2.590130	0.030833	0.337800	1
H	-0.251790	0.238983	-1.637730	1
H	-0.629630	1.372263	1.179640	1
H	-0.081500	2.226712	-0.277580	1
H	2.005100	0.998203	-0.323870	1
H	1.775850	1.294973	1.400660	1
H	1.079330	-0.921567	1.828650	1
H	2.434710	-1.244997	-0.650160	1
H	0.138880	-1.895037	-0.765490	1
H	-0.774260	-1.583827	0.712720	1
Es	1.792026	0.920895	-0.069973	99
Es	1.907770	-1.136042	0.456486	99
Es	1.639817	1.135509	1.126593	99
Es	1.197273	-0.709859	0.759804	99
Es	1.281326	0.051799	0.645182	99
Es	2.576065	-1.282513	0.432054	99
Es	-0.366520	0.208845	-1.323013	99
Es	-0.078375	1.923773	-0.114289	99
Es	-0.555405	-1.438333	0.492939	99
Es	-2.448844	0.066307	0.029458	99
Es	2.286825	-1.706230	0.339060	99
Es	-2.159302	0.144154	-0.662146	99
Es	1.345786	0.791143	0.528224	99
Es	-2.409684	-0.416455	-1.089461	99
Es	1.115019	-0.853287	1.496703	99
Es	0.563096	-0.938613	0.368785	99
Es	-1.407957	0.139180	-0.637983	99
Es	-0.366739	-0.515299	-0.306914	99
Es	0.084245	-1.652251	-0.524706	99
Es	-0.456281	1.328370	0.891870	99
Es	-0.640287	0.137136	-0.614751	99
Es	2.375913	-1.306654	-0.220816	99
Es	-2.407917	0.786712	-0.951324	99
Es	2.342066	-1.409674	0.303265	99
Es	-0.064005	-1.141532	0.004130	99
Es	-0.068411	1.263070	0.243203	99
Es	-0.372170	0.716146	-0.186496	99
Es	0.646298	1.052236	0.392995	99
47
Properties=species:S:1:pos:R:3:Z:I:1 energy=-309.16246964095984 field_type=dipole dipole="0.000000 0.000000 0.000000" charge=0
C	-2.159310	0.144153	-0.662140	6
C	-0.640270	0.137143	-0.614770	6
C	-0.068430	1.263083	0.243200	6
C	1.345810	0.791133	0.528230	6
C	1.197100	-0.709757	0.759910	6
O	2.342300	-1.409887	0.303460	8
C	-0.064000	-1.141557	0.004130	6
H	-2.530210	-0.676197	-1.284010	1
H	-2.529560	1.085353	-1.082650	1
H	-2.590130	0.030833	0.337800	1
H	-0.251790	0.238983	-1.637730	1
H	-0.629630	1.372263	1.179640	1
H	-0.081500	2.226712	-0.277580	1
H	2.005100	0.998203	-0.323870	1
H	1.775850	1.294973	1.400660	1
H	1.079330	-0.921567	1.828650	1
H	2.434710	-1.244997	-0.650160	1
H	0.138880	-1.895037	-0.765490	1
H	-0.774260	-1.583827	0.712720	1
Es	2.287751	-1.706278	0.338455	99
Es	-0.078342	1.923720	-0.114275	99
Es	1.639797	1.135574	1.126778	99
Es	0.646406	1.052053	0.392959	99
Es	1.907198	-1.137095	0.457065	99
Es	2.575507	-1.282366	0.432021	99
Es	-2.407859	0.786684	-0.951349	99
Es	-0.555355	-1.438431	0.493005	99
Es	2.376066	-1.305666	-0.220756	99
Es	-2.409567	-0.416449	-1.089536	99
Es	2.342106	-1.409666	0.303245	99
Es	-0.372259	0.716159	-0.186426	99
Es	1.791973	0.920855	-0.070111	99
Es	-2.159301	0.144155	-0.662147	99
Es	-0.064005	-1.141532	0.004130	99
Es	0.084414	-1.652225	-0.524705	99
Es	-2.448816	0.066265	0.029615	99
Es	-0.068411	1.263069	0.243204	99
Es	-0.640287	0.137136	-0.614751	99
Es	-0.366535	0.208882	-1.323153	99
Es	-0.456299	1.328391	0.891937	99
Es	1.281300	0.051867	0.645135	99
Es	1.114975	-0.853302	1.496774	99
Es	1.197271	-0.709859	0.759804	99
Es	-0.366877	-0.515273	-0.306927	99
Es	1.345785	0.791143	0.528223	99
Es	0.562979	-0.938471	0.368653	99
Es	-1.407986	0.139196	-0.637988	99
47
Properties=species:S:1:pos:R:3:Z:I:1 energy=-309.16246964095984 field_type=dipole dipole="0.000000 0.000000 0.000000" charge=0
C	-2.159310	0.144153	-0.662140	6
C	-0.640270	0.137143	-0.614770	6
C	-0.068430	1.263083	0.243200	6
C	1.345810	0.791133	0.528230	6
C	1.197100	-0.709757	0.759910	6
O	2.342300	-1.409887	0.303460	8
C	-0.064000	-1.141557	0.004130	6
H	-2.530210	-0.676197	-1.284010	1
H	-2.529560	1.085353	-1.082650	1
H	-2.590130	0.030833	0.337800	1
H	-0.251790	0.238983	-1.637730	1
H	-0.629630	1.372263	1.179640	1
H	-0.081500	2.226712	-0.277580	1
H	2.005100	0.998203	-0.323870	1
H	1.775850	1.294973	1.400660	1
H	1.079330	-0.921567	1.828650	1
H	2.434710	-1.244997	-0.650160	1
H	0.138880	-1.895037	-0.765490	1
H	-0.774260	-1.583827	0.712720	1
Es	-1.407973	0.139063	-0.637891	99
Es	1.792023	0.920858	-0.070181	99
Es	2.374892	-1.307524	-0.221381	99
Es	1.639643	1.135693	1.126801	99
Es	-0.456238	1.328356	0.892039	99
Es	-0.064006	-1.141532	0.004130	99
Es	0.646284	1.052073	0.392887	99
Es	-0.078388	1.923711	-0.114316	99
Es	1.345784	0.791142	0.528223	99
Es	-2.407723	0.786628	-0.951311	99
Es	-0.068410	1.263070	0.243204	99
Es	-2.409643	-0.416414	-1.089606	99
Es	1.281389	0.051840	0.645190	99
Es	2.292665	-1.707354	0.342289	99
Es	0.084323	-1.652157	-0.524751	99
Es	-0.640287	0.137136	-0.614751	99
Es	1.115045	-0.853239	1.496854	99
Es	2.342185	-1.409771	0.303324	99
Es	-0.372123	0.715994	-0.186479	99
Es	-0.366475	0.208761	-1.323205	99
Es	-2.448933	0.066350	0.029580	99
Es	-0.366702	-0.515266	-0.306873	99
Es	2.572611	-1.278006	0.428733	99
Es	1.906227	-1.138422	0.457003	99
Es	0.563051	-0.938404	0.368654	99
Es	-2.159302	0.144154	-0.662147	99
Es	-0.555559	-1.438348	0.493056	99
Es	1.197271	-0.709857	0.759804	99
47
Properties=species:S:1:pos:R:3:Z:I:1 energy=-309.16246964095984 field_type=dipole dipole="0.000000 0.000000 0.000000" charge=0
C	-2.159310	0.144153	-0.662140	6
C	-0.640270	0.137143	-0.614770	6
C	-0.068430	1.263083	0.243200	6
C	1.345810	0.791133	0.528230	6
C	1.197100	-0.709757	0.759910	6
O	2.342300	-1.409887	0.303460	8
C	-0.064000	-1.141557	0.004130	6
H	-2.530210	-0.676197	-1.284010	1
H	-2.529560	1.085353	-1.082650	1
H	-2.590130	0.030833	0.337800	1
H	-0.251790	0.238983	-1.637730	1
H	-0.629630	1.372263	1.179640	1
H	-0.081500	2.226712	-0.277580	1
H	2.005100	0.998203	-0.323870	1
H	1.775850	1.294973	1.400660	1
H	1.079330	-0.921567	1.828650	1
H	2.434710	-1.244997	-0.650160	1
H	0.138880	-1.895037	-0.765490	1
H	-0.774260	-1.583827	0.712720	1
Es	0.084343	-1.652243	-0.524773	99
Es	-2.407729	0.786643	-0.951338	99
Es	-2.448833	0.066259	0.029749	99
Es	-0.064006	-1.141533	0.004130	99
Es	1.114926	-0.853315	1.496880	99
Es	-0.078241	1.923712	-0.114401	99
Es	-2.409467	-0.416448	-1.089677	99
Es	-0.366520	0.208896	-1.323326	99
Es	-1.408020	0.139239	-0.637924	99
Es	-2.159302	0.144154	-0.662146	99
Es	1.197271	-0.709858	0.759804	99
Es	-0.366882	-0.515293	-0.306874	99
Es	0.646361	1.052039	0.392886	99
Es	-0.555375	-1.438335	0.493241	99
Es	-0.456269	1.328382	0.892138	99
Es	1.792012	0.920846	-0.070276	99
Es	0.563066	-0.938382	0.368454	99
Es	-0.640286	0.137136	-0.614750	99
Es	2.288401	-1.705485	0.338226	99
Es	2.376901	-1.305638	-0.220890	99
Es	2.574926	-1.282345	0.432556	99
Es	1.639607	1.135706	1.126819	99
Es	1.906228	-1.138010	0.456840	99
Es	1.281154	0.051827	0.645181	99
Es	1.345784	0.791142	0.528223	99
Es	2.342128	-1.409604	0.303249	99
Es	-0.068411	1.263070	0.243203	99
Es	-0.372138	0.715973	-0.186326	99
47
Properties=species:S:1:pos:R:3:Z:I:1 energy=-309.16246964095984 field_type=dipole dipole="0.000000 0.000000 0.000000" charge=0
C	-2.159310	0.144153	-0.662140	6
C	-0.640270	0.137143	-0.614770	6
C	-0.068430	1.263083	0.243200	6
C	1.345810	0.791133	0.528230	6
C	1.197100	-0.709757	0.759910	6
O	2.342300	-1.409887	0.303460	8
C	-0.064000	-1.141557	0.004130	6
H	-2.530210	-0.676197	-1.284010	1
H	-2.529560	1.085353	-1.082650	1
H	-2.590130	0.030833	0.337800	1
H	-0.251790	0.238983	-1.637730	1
H	-0.629630	1.372263	1.179640	1
H	-0.081500	2.226712	-0.277580	1
H	2.005100	0.998203	-0.323870	1
H	1.775850	1.294973	1.400660	1
H	1.079330	-0.921567	1.828650	1
H	2.434710	-1.244997	-0.650160	1
H	0.138880	-1.895037	-0.765490	1
H	-0.774260	-1.583827	0.712720	1
Es	-0.366956	-0.515309	-0.306753	99
Es	1.907420	-1.136996	0.457098	99
Es	-0.372130	0.715996	-0.186352	99
Es	-2.448983	0.066321	0.029815	99
Es	0.563070	-0.938315	0.368511	99
Es	2.376192	-1.306034	-0.221227	99
Es	-0.456319	1.328466	0.892178	99
Es	1.281217	0.051900	0.644967	99
Es	-2.407625	0.786479	-0.951335	99
Es	1.114957	-0.853262	1.496942	99
Es	2.288664	-1.706294	0.339698	99
Es	-2.159301	0.144155	-0.662146	99
Es	1.197270	-0.709856	0.759804	99
Es	-0.366410	0.208776	-1.323352	99
Es	-2.409498	-0.416321	-1.089701	99
Es	0.646351	1.051863	0.392928	99
Es	1.345786	0.791141	0.528223	99
Es	1.792039	0.920978	-0.070338	99
Es	-0.640287	0.137136	-0.614750	99
Es	-0.078201	1.923608	-0.114419	99
Es	-0.555454	-1.438368	0.493225	99
Es	0.084416	-1.652182	-0.524857	99
Es	-0.068409	1.263070	0.243204	99
Es	1.639549	1.135580	1.126945	99
Es	2.341936	-1.409805	0.303205	99
Es	2.574343	-1.281918	0.431205	99
Es	-1.408000	0.139258	-0.637968	99
Es	-0.064005	-1.141532	0.004130	99
47
Properties=species:S:1:pos:R:3:Z:I:1 energy=-309.16246964095984 field_type=dipole dipole="0.000000 0.000000 0.000000" charge=0
C	-2.159310	0.144153	-0.662140	6
C	-0.640270	0.137143	-0.614770	6
C	-0.068430	1.263083	0.243200	6
C	1.345810	0.791133	0.528230	6
C	1.197100	-0.709757	0.759910	6
O	2.342300	-1.409887	0.303460	8
C	-0.064000	-1.141557	0.004130	6
H	-2.530210	-0.676197	-1.284010	1
H	-2.529560	1.085353	-1.082650	1
H	-2.590130	0.030833	0.337800	1
H	-0.251790	0.238983	-1.637730	1
H	-0.629630	1.372263	1.179640	1
H	-0.081500	2.226712	-0.277580	1
H	2.005100	0.998203	-0.323870	1
H	1.775850	1.294973	1.400660	1
H	1.079330	-0.921567	1.828650	1
H	2.434710	-1.244997	-0.650160	1
H	0.138880	-1.895037	-0.765490	1
H	-0.774260	-1.583827	0.712720	1
Es	-0.640287	0.137136	-0.614751	99
Es	1.114871	-0.853246	1.496955	99
Es	-0.064006	-1.141533	0.004130	99
Es	-0.372186	0.716020	-0.186387	99
Es	1.345785	0.791142	0.528223	99
Es	1.197268	-0.709856	0.759806	99
Es	0.563069	-0.938365	0.368386	99
Es	2.575336	-1.284283	0.431846	99
Es	-2.407626	0.786553	-0.951364	99
Es	-0.366439	0.208834	-1.323426	99
Es	1.639612	1.135608	1.126972	99
Es	1.907913	-1.136153	0.457925	99
Es	-0.456297	1.328352	0.892232	99
Es	-1.408073	0.139175	-0.637936	99
Es	2.286844	-1.705528	0.338029	99
Es	0.646389	1.051814	0.392959	99
Es	1.281060	0.051866	0.644975	99
Es	-2.159299	0.144154	-0.662147	99
Es	1.791953	0.920950	-0.070443	99
Es	2.376409	-1.305505	-0.221088	99
Es	0.084392	-1.652154	-0.524894	99
Es	-2.448951	0.066202	0.029891	99
Es	-0.366818	-0.515223	-0.306736	99
Es	-2.409404	-0.416267	-1.089711	99
Es	-0.068411	1.263070	0.243204	99
Es	2.342119	-1.409578	0.303283	99
Es	-0.078109	1.923710	-0.114371	99
Es	-0.555482	-1.438359	0.493316	99
47
Properties=species:S:1:pos:R:3:Z:I:1 energy=-309.16246964095984 field_type=dipole dipole="0.000000 0.000000 0.000000" charge=0
C	-2.159310	0.144153	-0.662140	6
C	-0.640270	0.137143	-0.614770	6
C	-0.068430	1.263083	0.243200	6
C	1.345810	0.791133	0.528230	6
C	1.197100	-0.709757	0.759910	6
O	2.342300	-1.409887	0.303460	8
C	-0.064000	-1.141557	0.004130	6
H	-2.530210	-0.676197	-1.284010	1
H	-2.529560	1.085353	-1.082650	1
H	-2.590130	0.030833	0.337800	1
H	-0.251790	0.238983	-1.637730	1
H	-0.629630	1.372263	1.179640	1
H	-0.081500	2.226712	-0.277580	1
H	2.005100	0.998203	-0.323870	1
H	1.775850	1.294973	1.400660	1
H	1.079330	-0.921567	1.828650	1
H	2.434710	-1.244997	-0.650160	1
H	0.138880	-1.895037	-0.765490	1
H	-0.774260	-1.583827	0.712720	1
Es	1.639571	1.135609	1.127028	99
Es	-2.407685	0.786452	-0.951340	99
Es	2.291546	-1.705967	0.341989	99
Es	2.572442	-1.279517	0.429486	99
Es	-0.372118	0.715908	-0.186382	99
Es	-0.068411	1.263070	0.243204	99
Es	-0.640287	0.137136	-0.614751	99
Es	-0.555599	-1.438405	0.493200	99
Es	0.646305	1.051857	0.392932	99
Es	-2.448899	0.066296	0.029893	99
Es	1.197271	-0.709857	0.759804	99
Es	1.345785	0.791142	0.528223	99
Es	-2.409480	-0.416315	-1.089673	99
Es	-0.078056	1.923691	-0.114411	99
Es	0.563086	-0.938310	0.368477	99
Es	1.114917	-0.853240	1.497022	99
Es	0.084435	-1.652078	-0.524875	99
Es	1.906551	-1.137979	0.457024	99
Es	2.375869	-1.307703	-0.221850	99
Es	1.281028	0.051846	0.644970	99
Es	-0.366423	0.208796	-1.323460	99
Es	-0.366847	-0.515250	-0.306751	99
Es	-2.159302	0.144154	-0.662147	99
Es	1.791988	0.920917	-0.070476	99
Es	2.342176	-1.409844	0.303312	99
Es	-0.456260	1.328399	0.892288	99
Es	-0.064005	-1.141532	0.004130	99
Es	-1.407968	0.139257	-0.637989	99
47
Properties=species:S:1:pos:R:3:Z:I:1 energy=-309.16246964095984 field_type=dipole dipole="0.000000 0.000000 0.000000" charge=0
C	-2.159310	0.144153	-0.662140	6
C	-0.640270	0.137143	-0.614770	6
C	-0.068430	1.263083	0.243200	6
C	1.345810	0.791133	0.528230	6
C	1.197100	-0.709757	0.759910	6
O	2.342300	-1.409887	0.303460	8
C	-0.064000	-1.141557	0.004130	6
H	-2.530210	-0.676197	-1.284010	1
H	-2.529560	1.085353	-1.082650	1
H	-2.590130	0.030833	0.337800	1
H	-0.251790	0.238983	-1.637730	1
H	-0.629630	1.372263	1.179640	1
H	-0.081500	2.226712	-0.277580	1
H	2.005100	0.998203	-0.323870	1
H	1.775850	1.294973	1.400660	1
H	1.079330	-0.921567	1.828650	1
H	2.434710	-1.244997	-0.650160	1
H	0.138880	-1.895037	-0.765490	1
H	-0.774260	-1.583827	0.712720	1
Es	2.342113	-1.409599	0.303254	99
Es	-0.068411	1.263070	0.243204	99
Es	0.563060	-0.938249	0.368305	99
Es	-1.407920	0.139145	-0.637929	99
Es	0.084461	-1.652095	-0.524928	99
Es	-0.555507	-1.438418	0.493363	99
Es	2.375714	-1.307178	-0.221542	99
Es	-0.640287	0.137136	-0.614751	99
Es	-0.372198	0.715999	-0.186386	99
Es	1.197271	-0.709857	0.759804	99
Es	0.646177	1.051737	0.392975	99
Es	1.791863	0.920949	-0.070590	99
Es	-0.078037	1.923704	-0.114467	99
Es	-2.407565	0.786441	-0.951375	99
Es	1.639669	1.135586	1.127044	99
Es	-0.366811	-0.515241	-0.306577	99
Es	1.281094	0.051870	0.644888	99
Es	1.345785	0.791142	0.528223	99
Es	2.574428	-1.281577	0.430703	99
Es	-0.456272	1.328336	0.892384	99
Es	2.289017	-1.705822	0.340309	99
Es	-2.409381	-0.416168	-1.089731	99
Es	1.114851	-0.853239	1.497100	99
Es	-0.366473	0.208856	-1.323590	99
Es	-2.449006	0.066208	0.030007	99
Es	1.907302	-1.136824	0.457195	99
Es	-0.064005	-1.141532	0.004130	99
Es	-2.159302	0.144154	-0.662147	99
47
Properties=species:S:1:pos:R:3:Z:I:1 energy=-309.16246964095984 field_type=dipole dipole="0.000000 0.000000 0.000000" charge=0
C	-2.159310	0.144153	-0.662140	6
C	-0.640270	0.137143	-0.614770	6
C	-0.068430	1.263083	0.243200	6
C	1.345810	0.791133	0.528230	6
C	1.197100	-0.709757	0.759910	6
O	2.342300	-1.409887	0.303460	8
C	-0.064000	-1.141557	0.004130	6
H	-2.530210	-0.676197	-1.284010	1
H	-2.529560	1.085353	-1.082650	1
H	-2.590130	0.030833	0.337800	1
H	-0.251790	0.238983	-1.637730	1
H	-0.629630	1.372263	1.179640	1
H	-0.081500	2.226712	-0.277580	1
H	2.005100	0.998203	-0.323870	1
H	1.775850	1.294973	1.400660	1
H	1.079330	-0.921567	1.828650	1
H	2.434710	-1.244997	-0.650160	1
H	0.138880	-1.895037	-0.765490	1
H	-0.774260	-1.583827	0.712720	1
Es	1.639363	1.135536	1.126959	99
Es	-0.366441	0.208795	-1.323559	99
Es	1.345785	0.791142	0.528223	99
Es	-0.068411	1.263070	0.243204	99
Es	-1.407990	0.139217	-0.637936	99