44
Properties=species:S:1:pos:R:3:Z:I:1 energy=-307.96725108159114 field_type=dipole dipole="0.000000 0.000000 0.000000" charge=0
C	-1.718583	0.504604	-0.633061	6
C	-0.200053	0.427964	-0.596781	6
C	0.412757	1.516764	0.272069	6
O	1.736067	1.056244	0.576629	8
C	1.637287	-0.364136	0.772969	6
C	0.407187	-0.791886	0.032059	6
C	-0.064273	-2.046066	-0.007721	6
H	-2.136323	-0.262646	-1.293071	1
H	-2.045433	1.480184	-1.008051	1
H	-2.152563	0.364134	0.363129	1
H	0.200457	0.518304	-1.614881	1
H	-0.130283	1.665154	1.213269	1
H	0.476197	2.477194	-0.248981	1
H	2.544657	-0.830936	0.380549	1
H	1.548067	-0.558456	1.846529	1
H	-0.966613	-2.300346	-0.554171	1
H	0.451447	-2.856076	0.499519	1
Es	-0.958675	0.454089	-0.609336	99
Es	-0.675930	-2.221872	-0.376624	99
Es	0.074387	0.483233	-1.281583	99
Es	1.674146	0.517076	0.654274	99
Es	-0.020225	-1.385011	0.283622	99
Es	1.023404	-0.598209	0.402317	99
Es	0.080259	-0.203864	-0.287677	99
Es	1.888230	1.085767	0.313944	99
Es	2.247084	-0.689188	0.506761	99
Es	0.412957	1.516680	0.272107	99
Es	-1.933097	1.171862	-0.889288	99
Es	0.453280	2.174499	-0.083843	99
Es	0.083109	0.981939	-0.167779	99
Es	1.637262	-0.363925	0.772915	99
Es	-0.064296	-2.046150	-0.007730	99
Es	0.407246	-0.791763	0.032059	99
Es	0.025208	1.609613	0.918545	99
Es	-1.999254	-0.018352	-1.082981	99
Es	1.830062	1.186457	0.840648	99
Es	0.338204	-1.498420	-0.259997	99
Es	1.566747	-0.509654	1.502854	99
Es	-1.718544	0.504605	-0.633069	99
Es	1.735717	1.056023	0.576663	99
Es	-2.007083	0.411005	0.046737	99
Es	1.224924	1.212839	0.470114	99
Es	0.284419	-2.598038	0.336044	99
Es	-0.200066	0.427941	-0.596741	99
44
Properties=species:S:1:pos:R:3:Z:I:1 energy=-307.96725108159114 field_type=dipole dipole="0.000000 0.000000 0.000000" charge=0
C	-1.718583	0.504604	-0.633061	6
C	-0.200053	0.427964	-0.596781	6
C	0.412757	1.516764	0.272069	6
O	1.736067	1.056244	0.576629	8
C	1.637287	-0.364136	0.772969	6
C	0.407187	-0.791886	0.032059	6
C	-0.064273	-2.046066	-0.007721	6
H	-2.136323	-0.262646	-1.293071	1
H	-2.045433	1.480184	-1.008051	1
H	-2.152563	0.364134	0.363129	1
H	0.200457	0.518304	-1.614881	1
H	-0.130283	1.665154	1.213269	1
H	0.476197	2.477194	-0.248981	1
H	2.544657	-0.830936	0.380549	1
H	1.548067	-0.558456	1.846529	1
H	-0.966613	-2.300346	-0.554171	1
H	0.451447	-2.856076	0.499519	1
Es	1.637261	-0.363923	0.772916	99
Es	2.246562	-0.689368	0.507294	99
Es	-0.020461	-1.384991	0.284185	99
Es	1.566955	-0.509674	1.501964	99
Es	0.453095	2.176540	-0.083702	99
Es	0.082962	0.982942	-0.167199	99
Es	1.735773	1.056010	0.576594	99
Es	-0.675394	-2.221451	-0.375995	99
Es	0.072966	0.482961	-1.280164	99
Es	-1.933340	1.173955	-0.889282	99
Es	0.407244	-0.791762	0.032065	99
Es	1.022345	-0.598767	0.402003	99
Es	-0.064296	-2.046145	-0.007724	99
Es	-1.718541	0.504604	-0.633071	99
Es	1.888189	1.090136	0.316695	99
Es	1.674999	0.513486	0.652597	99
Es	1.226731	1.213790	0.470758	99
Es	-1.999060	-0.020006	-1.082626	99
Es	0.026531	1.608586	0.917375	99
Es	0.412958	1.516678	0.272108	99
Es	0.284264	-2.598690	0.336267	99
Es	0.338689	-1.498979	-0.260856	99
Es	-0.200065	0.427940	-0.596741	99
Es	0.080465	-0.205236	-0.287811	99
Es	1.827025	1.185611	0.839169	99
Es	-0.958854	0.454057	-0.609313	99
Es	-2.005530	0.410879	0.045449	99
44
Properties=species:S:1:pos:R:3:Z:I:1 energy=-307.96725108159114 field_type=dipole dipole="0.000000 0.000000 0.000000" charge=0
C	-1.718583	0.504604	-0.633061	6
C	-0.200053	0.427964	-0.596781	6
C	0.412757	1.516764	0.272069	6
O	1.736067	1.056244	0.576629	8
C	1.637287	-0.364136	0.772969	6
C	0.407187	-0.791886	0.032059	6
C	-0.064273	-2.046066	-0.007721	6
H	-2.136323	-0.262646	-1.293071	1
H	-2.045433	1.480184	-1.008051	1
H	-2.152563	0.364134	0.363129	1
H	0.200457	0.518304	-1.614881	1
H	-0.130283	1.665154	1.213269	1
H	0.476197	2.477194	-0.248981	1
H	2.544657	-0.830936	0.380549	1
H	1.548067	-0.558456	1.846529	1
H	-0.966613	-2.300346	-0.554171	1
H	0.451447	-2.856076	0.499519	1
Es	0.453030	2.177924	-0.083354	99
Es	-0.959103	0.453830	-0.609420	99
Es	1.567079	-0.509651	1.501349	99
Es	-0.675137	-2.221070	-0.375268	99
Es	1.637262	-0.363924	0.772915	99
Es	0.407244	-0.791760	0.032063	99
Es	0.412958	1.516681	0.272105	99
Es	-2.004273	0.410991	0.044473	99
Es	1.675382	0.511993	0.653929	99
Es	0.080962	-0.206098	-0.288271	99
Es	1.831039	1.188520	0.835970	99
Es	-1.933251	1.175308	-0.888996	99
Es	1.882709	1.088692	0.316090	99
Es	-0.020698	-1.385126	0.284756	99
Es	1.021903	-0.599447	0.401462	99
Es	1.735735	1.056070	0.576670	99
Es	2.246206	-0.689323	0.507732	99
Es	0.338858	-1.499106	-0.261506	99
Es	-0.200065	0.427941	-0.596741	99
Es	0.027600	1.607926	0.916375	99
Es	0.284022	-2.599147	0.336306	99
Es	-1.718543	0.504606	-0.633070	99
Es	0.082668	0.983472	-0.166746	99
Es	-1.999240	-0.021209	-1.082421	99
Es	1.227436	1.214267	0.473265	99
Es	-0.064301	-2.046148	-0.007722	99
Es	0.071989	0.482969	-1.278989	99
44
Properties=species:S:1:pos:R:3:Z:I:1 energy=-307.96725108159114 field_type=dipole dipole="0.000000 0.000000 0.000000" charge=0
C	-1.718583	0.504604	-0.633061	6
C	-0.200053	0.427964	-0.596781	6
C	0.412757	1.516764	0.272069	6
O	1.736067	1.056244	0.576629	8
C	1.637287	-0.364136	0.772969	6
C	0.407187	-0.791886	0.032059	6
C	-0.064273	-2.046066	-0.007721	6
H	-2.136323	-0.262646	-1.293071	1
H	-2.045433	1.480184	-1.008051	1
H	-2.152563	0.364134	0.363129	1
H	0.200457	0.518304	-1.614881	1
H	-0.130283	1.665154	1.213269	1
H	0.476197	2.477194	-0.248981	1
H	2.544657	-0.830936	0.380549	1
H	1.548067	-0.558456	1.846529	1
H	-0.966613	-2.300346	-0.554171	1
H	0.451447	-2.856076	0.499519	1
Es	1.735752	1.056033	0.576597	99
Es	0.412958	1.516680	0.272107	99
Es	-1.933206	1.176382	-0.888695	99
Es	0.407245	-0.791759	0.032063	99
Es	-0.020813	-1.385265	0.285206	99
Es	-0.064295	-2.046146	-0.007728	99
Es	-0.675083	-2.220788	-0.374502	99
Es	1.675246	0.510805	0.652742	99
Es	-1.999380	-0.022145	-1.082167	99
Es	0.452922	2.178856	-0.083101	99
Es	1.021444	-0.599900	0.400927	99
Es	1.228583	1.214404	0.475223	99
Es	1.880046	1.089412	0.316105	99
Es	0.028514	1.607570	0.915453	99
Es	1.567066	-0.509616	1.500884	99
Es	0.081357	-0.206693	-0.288446	99
Es	0.339203	-1.499271	-0.262360	99
Es	2.245956	-0.689336	0.508059	99
Es	1.832433	1.189283	0.835347	99
Es	0.283728	-2.599390	0.336525	99
Es	1.637262	-0.363920	0.772914	99
Es	-0.200065	0.427942	-0.596741	99
Es	-1.718542	0.504606	-0.633068	99
Es	-0.959306	0.453804	-0.609368	99
Es	-2.003236	0.411063	0.043548	99
Es	0.082698	0.983994	-0.166629	99
Es	0.070988	0.482578	-1.277938	99
44
Properties=species:S:1:pos:R:3:Z:I:1 energy=-307.96725108159114 field_type=dipole dipole="0.000000 0.000000 0.000000" charge=0
C	-1.718583	0.504604	-0.633061	6
C	-0.200053	0.427964	-0.596781	6
C	0.412757	1.516764	0.272069	6
O	1.736067	1.056244	0.576629	8
C	1.637287	-0.364136	0.772969	6
C	0.407187	-0.791886	0.032059	6
C	-0.064273	-2.046066	-0.007721	6
H	-2.136323	-0.262646	-1.293071	1
H	-2.045433	1.480184	-1.008051	1
H	-2.152563	0.364134	0.363129	1
H	0.200457	0.518304	-1.614881	1
H	-0.130283	1.665154	1.213269	1
H	0.476197	2.477194	-0.248981	1
H	2.544657	-0.830936	0.380549	1
H	1.548067	-0.558456	1.846529	1
H	-0.966613	-2.300346	-0.554171	1
H	0.451447	-2.856076	0.499519	1
Es	1.834070	1.189788	0.832803	99
Es	-1.999548	-0.022945	-1.081932	99
Es	-0.674853	-2.220518	-0.374064	99
Es	1.021030	-0.600297	0.400669	99
Es	0.283501	-2.599688	0.336559	99
Es	1.637262	-0.363921	0.772914	99
Es	0.081453	-0.207184	-0.288522	99
Es	1.674359	0.510592	0.654670	99
Es	-0.021095	-1.385524	0.285584	99
Es	0.029167	1.607282	0.914824	99
Es	-1.933091	1.177099	-0.888465	99
Es	0.339411	-1.499151	-0.262815	99
Es	-2.002390	0.411253	0.042861	99
Es	-0.959447	0.453861	-0.609506	99
Es	-1.718545	0.504604	-0.633070	99
Es	0.082761	0.984505	-0.166730	99
Es	1.567140	-0.509482	1.500309	99
Es	0.407248	-0.791761	0.032060	99
Es	-0.200065	0.427941	-0.596741	99
Es	0.452964	2.179524	-0.082766	99
Es	-0.064299	-2.046149	-0.007725	99
Es	1.735732	1.056033	0.576655	99
Es	2.245813	-0.689367	0.508381	99
Es	0.412953	1.516683	0.272105	99
Es	1.878559	1.088297	0.315229	99
Es	0.070334	0.482156	-1.277021	99
Es	1.229051	1.215551	0.476688	99
44
Properties=species:S:1:pos:R:3:Z:I:1 energy=-307.96725108159114 field_type=dipole dipole="0.000000 0.000000 0.000000" charge=0
C	-1.718583	0.504604	-0.633061	6
C	-0.200053	0.427964	-0.596781	6
C	0.412757	1.516764	0.272069	6
O	1.736067	1.056244	0.576629	8
C	1.637287	-0.364136	0.772969	6
C	0.407187	-0.791886	0.032059	6
C	-0.064273	-2.046066	-0.007721	6
H	-2.136323	-0.262646	-1.293071	1
H	-2.045433	1.480184	-1.008051	1
H	-2.152563	0.364134	0.363129	1
H	0.200457	0.518304	-1.614881	1
H	-0.130283	1.665154	1.213269	1
H	0.476197	2.477194	-0.248981	1
H	2.544657	-0.830936	0.380549	1
H	1.548067	-0.558456	1.846529	1
H	-0.966613	-2.300346	-0.554171	1
H	0.451447	-2.856076	0.499519	1
Es	-0.064299	-2.046150	-0.007726	99
Es	0.407244	-0.791759	0.032063	99
Es	0.339597	-1.499498	-0.263227	99
Es	-1.932765	1.177759	-0.888274	99
Es	-2.001694	0.411634	0.041983	99
Es	0.452916	2.180171	-0.082396	99
Es	1.826678	1.186042	0.834169	99
Es	0.081572	-0.207661	-0.288771	99
Es	0.412957	1.516682	0.272105	99
Es	0.283182	-2.599801	0.336768	99
Es	2.245665	-0.689339	0.508716	99
Es	1.229662	1.214418	0.476332	99
Es	1.675385	0.509647	0.652368	99
Es	1.735677	1.056042	0.576824	99
Es	1.567322	-0.509299	1.499829	99
Es	0.029941	1.607053	0.914017	99
Es	-0.959548	0.453661	-0.609323	99
Es	0.082607	0.984810	-0.166626	99
Es	-0.020921	-1.385426	0.285663	99
Es	1.020592	-0.600659	0.400511	99
Es	-1.999870	-0.023749	-1.081647	99
Es	0.069653	0.481929	-1.276209	99
Es	-0.674899	-2.220288	-0.373652	99
Es	1.884169	1.094334	0.316352	99
Es	-1.718542	0.504606	-0.633068	99
Es	-0.200064	0.427942	-0.596745	99
Es	1.637258	-0.363917	0.772916	99
44
Properties=species:S:1:pos:R:3:Z:I:1 energy=-307.96725108159114 field_type=dipole dipole="0.000000 0.000000 0.000000" charge=0
C	-1.718583	0.504604	-0.633061	6
C	-0.200053	0.427964	-0.596781	6
C	0.412757	1.516764	0.272069	6
O	1.736067	1.056244	0.576629	8
C	1.637287	-0.364136	0.772969	6
C	0.407187	-0.791886	0.032059	6
C	-0.064273	-2.046066	-0.007721	6
H	-2.136323	-0.262646	-1.293071	1
H	-2.045433	1.480184	-1.008051	1
H	-2.152563	0.364134	0.363129	1
H	0.200457	0.518304	-1.614881	1
H	-0.130283	1.665154	1.213269	1
H	0.476197	2.477194	-0.248981	1
H	2.544657	-0.830936	0.380549	1
H	1.548067	-0.558456	1.846529	1
H	-0.966613	-2.300346	-0.554171	1
H	0.451447	-2.856076	0.499519	1
Es	1.674129	0.509941	0.655287	99
Es	0.082729	0.985075	-0.166636	99
Es	-0.959783	0.453551	-0.609412	99
Es	1.637260	-0.363919	0.772917	99
Es	-2.001138	0.411849	0.041497	99
Es	1.020338	-0.600931	0.400196	99
Es	2.245621	-0.689462	0.508853	99
Es	1.878168	1.089678	0.314687	99
Es	-1.932715	1.178160	-0.888236	99
Es	1.833205	1.190335	0.831105	99
Es	1.567190	-0.509207	1.499461	99
Es	0.412957	1.516681	0.272105	99
Es	-0.021145	-1.385633	0.286178	99
Es	0.339799	-1.499401	-0.263719	99
Es	0.452945	2.180625	-0.082220	99
Es	-0.674741	-2.219970	-0.373101	99
Es	1.230342	1.214697	0.477750	99
Es	0.069212	0.481769	-1.275465	99
Es	-0.064300	-2.046150	-0.007724	99
Es	-2.000020	-0.024265	-1.081280	99
Es	1.735479	1.056024	0.577199	99
Es	0.030344	1.606815	0.913581	99
Es	-0.200066	0.427939	-0.596740	99
Es	0.282896	-2.600087	0.336715	99
Es	-1.718541	0.504605	-0.633069	99
Es	0.407244	-0.791759	0.032064	99
Es	0.082067	-0.207780	-0.289042	99
44
Properties=species:S:1:pos:R:3:Z:I:1 energy=-307.96725108159114 field_type=dipole dipole="0.000000 0.000000 0.000000" charge=0
C	-1.718583	0.504604	-0.633061	6
C	-0.200053	0.427964	-0.596781	6
C	0.412757	1.516764	0.272069	6
O	1.736067	1.056244	0.576629	8
C	1.637287	-0.364136	0.772969	6
C	0.407187	-0.791886	0.032059	6
C	-0.064273	-2.046066	-0.007721	6
H	-2.136323	-0.262646	-1.293071	1
H	-2.045433	1.480184	-1.008051	1
H	-2.152563	0.364134	0.363129	1
H	0.200457	0.518304	-1.614881	1
H	-0.130283	1.665154	1.213269	1
H	0.476197	2.477194	-0.248981	1
H	2.544657	-0.830936	0.380549	1
H	1.548067	-0.558456	1.846529	1
H	-0.966613	-2.300346	-0.554171	1
H	0.451447	-2.856076	0.499519	1
Es	-0.674793	-2.219695	-0.372797	99
Es	-1.718543	0.504604	-0.633070	99
Es	1.637261	-0.363920	0.772915	99
Es	1.019899	-0.601210	0.400104	99
Es	1.879226	1.091448	0.314051	99
Es	-0.064299	-2.046150	-0.007725	99
Es	1.830986	1.189594	0.831873	99
Es	-2.000600	0.412098	0.041005	99
Es	2.245647	-0.689523	0.509172	99
Es	0.030872	1.606679	0.913066	99
Es	-0.200067	0.427942	-0.596742	99
Es	0.452891	2.181003	-0.081975	99
Es	0.082059	-0.208129	-0.289120	99
Es	-1.932512	1.178531	-0.888103	99
Es	0.340006	-1.499427	-0.263976	99
Es	0.282641	-2.600250	0.336874	99
Es	0.068665	0.481462	-1.274773	99
Es	1.231066	1.214215	0.478324	99
Es	-0.021043	-1.385808	0.286225	99
Es	0.412958	1.516681	0.272106	99
Es	-0.959808	0.453584	-0.609443	99
Es	1.567281	-0.508969	1.498929	99
Es	0.082822	0.985346	-0.166741	99
Es	-2.000294	-0.024744	-1.081009	99
Es	0.407243	-0.791758	0.032065	99
Es	1.735726	1.056065	0.576724	99
Es	1.674183	0.509513	0.654995	99
44
Properties=species:S:1:pos:R:3:Z:I:1 energy=-307.96725108159114 field_type=dipole dipole="0.000000 0.000000 0.000000" charge=0
C	-1.718583	0.504604	-0.633061	6
C	-0.200053	0.427964	-0.596781	6
C	0.412757	1.516764	0.272069	6
O	1.736067	1.056244	0.576629	8
C	1.637287	-0.364136	0.772969	6
C	0.407187	-0.791886	0.032059	6
C	-0.064273	-2.046066	-0.007721	6
H	-2.136323	-0.262646	-1.293071	1
H	-2.045433	1.480184	-1.008051	1
H	-2.152563	0.364134	0.363129	1
H	0.200457	0.518304	-1.614881	1
H	-0.130283	1.665154	1.213269	1
H	0.476197	2.477194	-0.248981	1
H	2.544657	-0.830936	0.380549	1
H	1.548067	-0.558456	1.846529	1
H	-0.966613	-2.300346	-0.554171	1
H	0.451447	-2.856076	0.499519	1
Es	0.412956	1.516683	0.272105	99
Es	0.031324	1.606560	0.912598	99
Es	1.876720	1.090628	0.313267	99
Es	0.082133	-0.208301	-0.289186	99
Es	-0.674724	-2.219523	-0.372318	99
Es	0.452888	2.181340	-0.081815	99
Es	-0.021159	-1.385830	0.286464	99
Es	-0.064299	-2.046150	-0.007727	99
Es	0.082863	0.985472	-0.166676	99
Es	-2.000376	-0.025173	-1.080783	99
Es	0.068415	0.481180	-1.274284	99
Es	0.407245	-0.791759	0.032062	99
Es	1.567271	-0.508918	1.498691	99
Es	1.019789	-0.601390	0.399845	99
Es	1.637261	-0.363919	0.772915	99
Es	1.673698	0.509307	0.655039	99
Es	-0.200065	0.427940	-0.596739	99
Es	-0.959984	0.453547	-0.609434	99
Es	-1.932310	1.178857	-0.888080	99
Es	0.282431	-2.600369	0.336930	99
Es	-1.718543	0.504606	-0.633069	99
Es	1.735809	1.056040	0.576624	99
Es	1.231266	1.215124	0.480423	99
Es	-2.000250	0.412294	0.040582	99
Es	0.340048	-1.499456	-0.264404	99
Es	1.833528	1.189904	0.830596	99
Es	2.245541	-0.689513	0.509327	99
44
Properties=species:S:1:pos:R:3:Z:I:1 energy=-307.96725108159114 field_type=dipole dipole="0.000000 0.000000 0.000000" charge=0
C	-1.718583	0.504604	-0.633061	6
C	-0.200053	0.427964	-0.596781	6
C	0.412757	1.516764	0.272069	6
O	1.736067	1.056244	0.576629	8
C	1.637287	-0.364136	0.772969	6
C	0.407187	-0.791886	0.032059	6
C	-0.064273	-2.046066	-0.007721	6
H	-2.136323	-0.262646	-1.293071	1
H	-2.045433	1.480184	-1.008051	1
H	-2.152563	0.364134	0.363129	1
H	0.200457	0.518304	-1.614881	1
H	-0.130283	1.665154	1.213269	1
H	0.476197	2.477194	-0.248981	1
H	2.544657	-0.830936	0.380549	1
H	1.548067	-0.558456	1.846529	1
H	-0.966613	-2.300346	-0.554171	1
H	0.451447	-2.856076	0.499519	1
Es	0.067972	0.480930	-1.273570	99
Es	-2.000807	-0.025814	-1.080464	99
Es	1.885920	1.097473	0.314507	99
Es	1.567597	-0.508842	1.498430	99
Es	0.282416	-2.600370	0.337003	99
Es	-1.931975	1.179271	-0.887823	99
Es	1.735844	1.056058	0.576630	99
Es	1.231712	1.214307	0.478969	99
Es	0.340089	-1.499555	-0.264357	99
Es	-0.200065	0.427941	-0.596741	99
Es	1.673858	0.509016	0.653294	99
Es	0.082807	0.985704	-0.166762	99
Es	-0.064303	-2.046150	-0.007721	99
Es	0.082097	-0.208558	-0.289324	99
Es	-0.674725	-2.219519	-0.372419	99
Es	1.823539	1.184239	0.832606	99
Es	1.637261	-0.363921	0.772914	99
Es	-1.718543	0.504606	-0.633069	99
Es	0.452920	2.181643	-0.081486	99
Es	-0.960223	0.453458	-0.609420	99
Es	1.019457	-0.601723	0.400001	99
Es	0.031827	1.606517	0.911987	99
Es	2.245342	-0.689323	0.509514	99
Es	0.407243	-0.791759	0.032063	99
Es	-0.021151	-1.385803	0.286269	99
Es	-1.999589	0.412674	0.039818	99
Es	0.412957	1.516681	0.272105	99
44
Properties=species:S:1:pos:R:3:Z:I:1 energy=-307.96725108159114 field_type=dipole dipole="0.000000 0.000000 0.000000" charge=0
C	-1.718583	0.504604	-0.633061	6
C	-0.200053	0.427964	-0.596781	6
C	0.412757	1.516764	0.272069	6
O	1.736067	1.056244	0.576629	8
C	1.637287	-0.364136	0.772969	6
C	0.407187	-0.791886	0.032059	6
C	-0.064273	-2.046066	-0.007721	6
H	-2.136323	-0.262646	-1.293071	1
H	-2.045433	1.480184	-1.008051	1
H	-2.152563	0.364134	0.363129	1
H	0.200457	0.518304	-1.614881	1
H	-0.130283	1.665154	1.213269	1
H	0.476197	2.477194	-0.248981	1
H	2.544657	-0.830936	0.380549	1
H	1.548067	-0.558456	1.846529	1
H	-0.966613	-2.300346	-0.554171	1
H	0.451447	-2.856076	0.499519	1
Es	0.452913	2.181919	-0.081137	99
Es	1.673572	0.508521	0.651234	99
Es	0.340094	-1.499797	-0.264422	99
Es	1.735725	1.056036	0.576700	99
Es	-0.674727	-2.219687	-0.372546	99
Es	-1.718543	0.504606	-0.633068	99
Es	0.067573	0.480728	-1.272954	99
Es	-2.000914	-0.026324	-1.080318	99
Es	0.082770	0.985964	-0.166970	99
Es	-0.064303	-2.046149	-0.007725	99
Es	1.567660	-0.508803	1.498305	99
Es	-1.999127	0.412863	0.039352	99
Es	-0.200066	0.427941	-0.596740	99
Es	0.407244	-0.791758	0.032062	99
Es	-0.021138	-1.385599	0.286288	99
Es	1.232538	1.214142	0.475193	99
Es	1.019410	-0.601838	0.399998	99
Es	0.032214	1.606385	0.911539	99
Es	0.412957	1.516681	0.272106	99
Es	1.637259	-0.363923	0.772914	99
Es	0.081935	-0.208921	-0.289317	99
Es	1.812735	1.178350	0.834089	99
Es	-1.931840	1.179522	-0.887627	99
Es	-0.960276	0.453575	-0.609480	99
Es	2.245226	-0.689207	0.509711	99
Es	1.896172	1.104166	0.318774	99
Es	0.282409	-2.600211	0.336994	99
44
Properties=species:S:1:pos:R:3:Z:I:1 energy=-307.96725108159114 field_type=dipole dipole="0.000000 0.000000 0.000000" charge=0
C	-1.718583	0.504604	-0.633061	6
C	-0.200053	0.427964	-0.596781	6
C	0.412757	1.516764	0.272069	6
O	1.736067	1.056244	0.576629	8
C	1.637287	-0.364136	0.772969	6
C	0.407187	-0.791886	0.032059	6
C	-0.064273	-2.046066	-0.007721	6
H	-2.136323	-0.262646	-1.293071	1
H	-2.045433	1.480184	-1.008051	1
H	-2.152563	0.364134	0.363129	1
H	0.200457	0.518304	-1.614881	1
H	-0.130283	1.665154	1.213269	1
H	0.476197	2.477194	-0.248981	1
H	2.544657	-0.830936	0.380549	1
H	1.548067	-0.558456	1.846529	1
H	-0.966613	-2.300346	-0.554171	1
H	0.451447	-2.856076	0.499519	1
Es	0.082680	0.986187	-0.166962	99
Es	1.232825	1.213606	0.475727	99
Es	-1.718544	0.504605	-0.633068	99
Es	0.340109	-1.499755	-0.264232	99
Es	-0.674707	-2.219562	-0.372720	99
Es	0.412957	1.516681	0.272105	99
Es	1.807034	1.174296	0.833646	99
Es	0.282435	-2.600358	0.336889	99
Es	0.407241	-0.791757	0.032068	99
Es	-2.001078	-0.026757	-1.080164	99
Es	2.244990	-0.688946	0.509984	99
Es	-1.998790	0.413124	0.038933	99
Es	-0.021178	-1.385667	0.286300	99
Es	-1.931594	1.179701	-0.887523	99
Es	1.901119	1.109078	0.319793	99
Es	0.452866	2.182050	-0.080957	99
Es	1.735764	1.056062	0.576686	99
Es	0.067280	0.480532	-1.272484	99
Es	1.567888	-0.508788	1.498177	99
Es	0.032517	1.606393	0.911166	99
Es	0.081854	-0.209077	-0.289433	99
Es	1.637262	-0.363920	0.772914	99
Es	-0.960319	0.453554	-0.609495	99
Es	-0.200066	0.427940	-0.596740	99
Es	1.674036	0.508263	0.650184	99
Es	1.019190	-0.602152	0.399888	99
Es	-0.064296	-2.046152	-0.007727	99
44
Properties=species:S:1:pos:R:3:Z:I:1 energy=-307.96725108159114 field_type=dipole dipole="0.000000 0.000000 0.000000" charge=0
C	-1.718583	0.504604	-0.633061	6
C	-0.200053	0.427964	-0.596781	6
C	0.412757	1.516764	0.272069	6
O	1.736067	1.056244	0.576629	8
C	1.637287	-0.364136	0.772969	6
C	0.407187	-0.791886	0.032059	6
C	-0.064273	-2.046066	-0.007721	6
H	-2.136323	-0.262646	-1.293071	1
H	-2.045433	1.480184	-1.008051	1
H	-2.152563	0.364134	0.363129	1
H	0.200457	0.518304	-1.614881	1
H	-0.130283	1.665154	1.213269	1
H	0.476197	2.477194	-0.248981	1
H	2.544657	-0.830936	0.380549	1
H	1.548067	-0.558456	1.846529	1
H	-0.966613	-2.300346	-0.554171	1
H	0.451447	-2.856076	0.499519	1
Es	0.082777	0.986331	-0.167102	99
Es	-0.021173	-1.385911	0.286432	99
Es	0.081963	-0.209175	-0.289496	99
Es	0.067026	0.480391	-1.272052	99
Es	1.812602	1.176891	0.832889	99
Es	-0.064301	-2.046151	-0.007722	99
Es	1.673288	0.508353	0.651116	99
Es	0.282182	-2.600475	0.336972	99
Es	1.018977	-0.602322	0.399784	99
Es	1.637261	-0.363924	0.772916	99
Es	0.340225	-1.499584	-0.264394	99
Es	1.895885	1.106271	0.316530	99
Es	1.233201	1.213821	0.478932	99
Es	0.412958	1.516680	0.272108	99
Es	1.567918	-0.508666	1.497845	99
Es	-0.960337	0.453527	-0.609441	99
Es	-0.200065	0.427941	-0.596741	99
Es	0.452938	2.182201	-0.080891	99
Es	-1.931497	1.179883	-0.887611	99
Es	-0.674712	-2.219348	-0.372414	99
Es	1.735686	1.055981	0.576601	99
Es	0.407242	-0.791758	0.032068	99
Es	-2.001153	-0.026928	-1.079874	99
Es	-1.998638	0.413254	0.038630	99
Es	-1.718546	0.504606	-0.633067	99
Es	2.245052	-0.689064	0.510030	99
Es	0.032716	1.606358	0.910906	99
44
Properties=species:S:1:pos:R:3:Z:I:1 energy=-307.96725108159114 field_type=dipole dipole="0.000000 0.000000 0.000000" charge=0
C	-1.718583	0.504604	-0.633061	6
C	-0.200053	0.427964	-0.596781	6
C	0.412757	1.516764	0.272069	6
O	1.736067	1.056244	0.576629	8
C	1.637287	-0.364136	0.772969	6
C	0.407187	-0.791886	0.032059	6
C	-0.064273	-2.046066	-0.007721	6
H	-2.136323	-0.262646	-1.293071	1
H	-2.045433	1.480184	-1.008051	1
H	-2.152563	0.364134	0.363129	1
H	0.200457	0.518304	-1.614881	1
H	-0.130283	1.665154	1.213269	1
H	0.476197	2.477194	-0.248981	1
H	2.544657	-0.830936	0.380549	1
H	1.548067	-0.558456	1.846529	1
H	-0.966613	-2.300346	-0.554171	1
H	0.451447	-2.856076	0.499519	1
Es	-1.931347	1.180130	-0.887389	99
Es	1.899808	1.108187	0.318510	99
Es	1.672920	0.508287	0.651066	99
Es	2.245032	-0.688962	0.510290	99
Es	1.567940	-0.508573	1.497697	99
Es	-0.960622	0.453478	-0.609353	99
Es	-0.200066	0.427941	-0.596740	99
Es	0.032998	1.606419	0.910661	99
Es	0.407246	-0.791760	0.032062	99
Es	1.018774	-0.602541	0.399647	99
Es	-2.001178	-0.027209	-1.079843	99
Es	0.082746	0.986361	-0.167061	99
Es	-1.998362	0.413288	0.038256	99
Es	1.637259	-0.363919	0.772908	99
Es	-0.674670	-2.219397	-0.372298	99
Es	1.233702	1.213576	0.476578	99
Es	-0.064301	-2.046150	-0.007723	99
Es	1.735718	1.056064	0.576623	99
Es	0.412958	1.516681	0.272105	99
Es	1.808373	1.175346	0.833214	99
Es	0.452938	2.182267	-0.080876	99
Es	0.066780	0.480275	-1.271651	99
Es	0.082153	-0.209242	-0.289544	99
Es	-0.021295	-1.385847	0.286611	99
Es	0.340299	-1.499671	-0.264656	99
Es	-1.718543	0.504606	-0.633068	99
Es	0.282214	-2.600454	0.336928	99
44
Properties=species:S:1:pos:R:3:Z:I:1 energy=-307.96725108159114 field_type=dipole dipole="0.000000 0.000000 0.000000" charge=0
C	-1.718583	0.504604	-0.633061	6
C	-0.200053	0.427964	-0.596781	6
C	0.412757	1.516764	0.272069	6
O	1.736067	1.056244	0.576629	8
C	1.637287	-0.364136	0.772969	6
C	0.407187	-0.791886	0.032059	6
C	-0.064273	-2.046066	-0.007721	6
H	-2.136323	-0.262646	-1.293071	1
H	-2.045433	1.480184	-1.008051	1
H	-2.152563	0.364134	0.363129	1
H	0.200457	0.518304	-1.614881	1
H	-0.130283	1.665154	1.213269	1
H	0.476197	2.477194	-0.248981	1
H	2.544657	-0.830936	0.380549	1
H	1.548067	-0.558456	1.846529	1
H	-0.966613	-2.300346	-0.554171	1
H	0.451447	-2.856076	0.499519	1
Es	1.568200	-0.508666	1.497699	99
Es	-0.064307	-2.046151	-0.007716	99
Es	-1.997995	0.413570	0.037876	99
Es	1.905977	1.113034	0.321395	99
Es	2.244757	-0.688778	0.510254	99
Es	1.801354	1.171510	0.833521	99
Es	1.018664	-0.602618	0.399755	99
Es	1.673216	0.508066	0.649761	99
Es	0.452964	2.182402	-0.080652	99
Es	1.234221	1.212878	0.474583	99
Es	-1.931207	1.180209	-0.887293	99
Es	-2.001532	-0.027521	-1.079554	99
Es	0.340217	-1.499882	-0.264605	99
Es	0.082731	0.986550	-0.167179	99
Es	-0.200066	0.427942	-0.596740	99
Es	-0.021260	-1.385638	0.286517	99
Es	0.033168	1.606335	0.910466	99
Es	-1.718544	0.504606	-0.633068	99
Es	1.735718	1.056012	0.576772	99
Es	0.081888	-0.209377	-0.289495	99
Es	0.407245	-0.791759	0.032062	99
Es	-0.960414	0.453453	-0.609418	99
Es	1.637263	-0.363921	0.772914	99
Es	-0.674540	-2.219338	-0.372450	99
Es	0.282211	-2.600564	0.336880	99
Es	0.412958	1.516681	0.272105	99
Es	0.066589	0.480144	-1.271437	99
44
Properties=species:S:1:pos:R:3:Z:I:1 energy=-307.96725108159114 field_type=dipole dipole="0.000000 0.000000 0.000000" charge=0
C	-1.718583	0.504604	-0.633061	6
C	-0.200053	0.427964	-0.596781	6
C	0.412757	1.516764	0.272069	6
O	1.736067	1.056244	0.576629	8
C	1.637287	-0.364136	0.772969	6
C	0.407187	-0.791886	0.032059	6
C	-0.064273	-2.046066	-0.007721	6
H	-2.136323	-0.262646	-1.293071	1
H	-2.045433	1.480184	-1.008051	1
H	-2.152563	0.364134	0.363129	1
H	0.200457	0.518304	-1.614881	1
H	-0.130283	1.665154	1.213269	1
H	0.476197	2.477194	-0.248981	1
H	2.544657	-0.830936	0.380549	1
H	1.548067	-0.558456	1.846529	1
H	-0.966613	-2.300346	-0.554171	1
H	0.451447	-2.856076	0.499519	1
Es	1.234316	1.212410	0.476396	99
Es	0.412957	1.516682	0.272105	99
Es	0.453013	2.182537	-0.080432	99
Es	-0.021316	-1.385867	0.286489	99
Es	1.907792	1.116105	0.321185	99
Es	1.798996	1.169098	0.832621	99
Es	0.082508	0.986609	-0.167121	99
Es	1.568274	-0.508617	1.497618	99
Es	-0.674517	-2.219397	-0.372793	99
Es	1.673562	0.507861	0.649095	99
Es	1.735754	1.056030	0.576716	99
Es	-0.064297	-2.046151	-0.007730	99
Es	0.340342	-1.499676	-0.264219	99
Es	-1.931145	1.180378	-0.887211	99
Es	1.018645	-0.602723	0.399720	99
Es	0.033459	1.606333	0.910087	99
Es	-0.200067	0.427943	-0.596741	99
Es	0.407246	-0.791759	0.032061	99
Es	0.081664	-0.209538	-0.289564	99
Es	0.282220	-2.600532	0.336844	99
Es	-2.001467	-0.027760	-1.079472	99
Es	0.066501	0.480062	-1.271167	99
Es	-1.718543	0.504604	-0.633070	99
Es	1.637260	-0.363920	0.772914	99
Es	-1.997769	0.413599	0.037657	99
Es	2.244663	-0.688639	0.510477	99
Es	-0.960575	0.453510	-0.609511	99
44
Properties=species:S:1:pos:R:3:Z:I:1 energy=-307.96725108159114 field_type=dipole dipole="0.000000 0.000000 0.000000" charge=0
C	-1.718583	0.504604	-0.633061	6
C	-0.200053	0.427964	-0.596781	6
C	0.412757	1.516764	0.272069	6
O	1.736067	1.056244	0.576629	8
C	1.637287	-0.364136	0.772969	6
C	0.407187	-0.791886	0.032059	6
C	-0.064273	-2.046066	-0.007721	6
H	-2.136323	-0.262646	-1.293071	1
H	-2.045433	1.480184	-1.008051	1
H	-2.152563	0.364134	0.363129	1
H	0.200457	0.518304	-1.614881	1
H	-0.130283	1.665154	1.213269	1
H	0.476197	2.477194	-0.248981	1
H	2.544657	-0.830936	0.380549	1
H	1.548067	-0.558456	1.846529	1
H	-0.966613	-2.300346	-0.554171	1
H	0.451447	-2.856076	0.499519	1
Es	-0.960553	0.453464	-0.609490	99
Es	1.234037	1.213168	0.478377	99
Es	0.407244	-0.791758	0.032065	99
Es	1.805204	1.172299	0.832373	99
Es	1.673050	0.508006	0.649938	99
Es	1.018381	-0.602906	0.399634	99
Es	-0.674633	-2.219173	-0.372260	99
Es	-1.930976	1.180432	-0.887333	99
Es	0.340445	-1.499639	-0.264583	99
Es	0.066205	0.479949	-1.270854	99
Es	1.902332	1.111953	0.318691	99
Es	0.281991	-2.600617	0.336972	99
Es	-2.001707	-0.027875	-1.079173	99
Es	0.033503	1.606321	0.910041	99
Es	0.412957	1.516682	0.272105	99
Es	1.568279	-0.508525	1.497366	99
Es	-0.021292	-1.385996	0.286604	99
Es	1.637261	-0.363920	0.772915	99
Es	-1.718541	0.504605	-0.633067	99
Es	-0.200064	0.427941	-0.596739	99
Es	0.082792	0.986703	-0.167309	99
Es	0.453069	2.182589	-0.080518	99
Es	-0.064301	-2.046150	-0.007725	99
Es	-1.997600	0.413801	0.037554	99
Es	0.081980	-0.209537	-0.289695	99
Es	1.735705	1.056142	0.576632	99
Es	2.244705	-0.688779	0.510436	99
44
Properties=species:S:1:pos:R:3:Z:I:1 energy=-307.96725108159114 field_type=dipole dipole="0.000000 0.000000 0.000000" charge=0
C	-1.718583	0.504604	-0.633061	6
C	-0.200053	0.427964	-0.596781	6
C	0.412757	1.516764	0.272069	6
O	1.736067	1.056244	0.576629	8
C	1.637287	-0.364136	0.772969	6
C	0.407187	-0.791886	0.032059	6
C	-0.064273	-2.046066	-0.007721	6
H	-2.136323	-0.262646	-1.293071	1
H	-2.045433	1.480184	-1.008051	1
H	-2.152563	0.364134	0.363129	1
H	0.200457	0.518304	-1.614881	1
H	-0.130283	1.665154	1.213269	1
H	0.476197	2.477194	-0.248981	1
H	2.544657	-0.830936	0.380549	1
H	1.548067	-0.558456	1.846529	1
H	-0.966613	-2.300346	-0.554171	1
H	0.451447	-2.856076	0.499519	1
Es	-1.718541	0.504604	-0.633069	99
Es	1.637260	-0.363920	0.772915	99
Es	1.735794	1.056060	0.576591	99
Es	-0.200065	0.427940	-0.596740	99
Es	0.340374	-1.499679	-0.264443	99
Es	1.798241	1.169625	0.832865	99
Es	-0.021342	-1.385919	0.286568	99
Es	0.412958	1.516681	0.272105	99
Es	0.407245	-0.791759	0.032062	99
Es	-1.997396	0.413821	0.037287	99
Es	1.908543	1.115674	0.321435	99
Es	1.234716	1.212303	0.475177	99
Es	2.244728	-0.688767	0.510542	99
Es	0.453039	2.182707	-0.080296	99
Es	-0.960587	0.453412	-0.609457	99
Es	0.066011	0.479954	-1.270611	99
Es	1.568310	-0.508468	1.497202	99
Es	-0.064301	-2.046150	-0.007723	99
Es	1.672926	0.508006	0.649923	99
Es	0.082752	0.986815	-0.167280	99
Es	1.018309	-0.602946	0.399743	99
Es	-1.930899	1.180565	-0.887136	99
Es	0.282092	-2.600614	0.336937	99
Es	-2.001710	-0.028086	-1.079189	99
Es	0.081870	-0.209639	-0.289817	99
Es	0.033658	1.606226	0.909879	99
Es	-0.674510	-2.219266	-0.372518	99
44
Properties=species:S:1:pos:R:3:Z:I:1 energy=-307.96725108159114 field_type=dipole dipole="0.000000 0.000000 0.000000" charge=0
C	-1.718583	0.504604	-0.633061	6
C	-0.200053	0.427964	-0.596781	6
C	0.412757	1.516764	0.272069	6
O	1.736067	1.056244	0.576629	8
C	1.637287	-0.364136	0.772969	6
C	0.407187	-0.791886	0.032059	6
C	-0.064273	-2.046066	-0.007721	6
H	-2.136323	-0.262646	-1.293071	1
H	-2.045433	1.480184	-1.008051	1
H	-2.152563	0.364134	0.363129	1
H	0.200457	0.518304	-1.614881	1
H	-0.130283	1.665154	1.213269	1
H	0.476197	2.477194	-0.248981	1
H	2.544657	-0.830936	0.380549	1
H	1.548067	-0.558456	1.846529	1
H	-0.966613	-2.300346	-0.554171	1
H	0.451447	-2.856076	0.499519	1
Es	-1.718543	0.504606	-0.633069	99
Es	1.234765	1.212113	0.477246	99
Es	1.800077	1.169940	0.832616	99
Es	-2.001903	-0.028288	-1.078903	99
Es	-1.930925	1.180617	-0.887116	99
Es	0.082836	0.986858	-0.167478	99
Es	0.081995	-0.209723	-0.289847	99
Es	1.568370	-0.508499	1.497269	99
Es	-0.960557	0.453491	-0.609412	99
Es	1.735718	1.056048	0.576580	99
Es	1.673094	0.507870	0.649408	99
Es	0.281947	-2.600773	0.336894	99