44
Properties=species:S:1:pos:R:3:Z:I:1 energy=-307.94862954217547 field_type=dipole dipole="0.000000 0.000000 0.000000" charge=0
C	-3.230485	-0.818485	-0.322484	6
C	-1.786485	-0.818485	-0.322484	6
C	-0.596326	-0.818485	-0.322484	6
C	0.847674	-0.818485	-0.322484	6
C	1.446084	0.595575	-0.346114	6
C	1.187524	1.376805	0.937567	6
O	2.860575	0.506315	-0.542304	8
H	-3.624365	0.202415	-0.308874	1
H	-3.624536	-1.340585	0.554837	1
H	-3.624585	-1.317085	-1.213344	1
H	1.218374	-1.372175	-1.194394	1
H	1.232324	-1.364765	0.547766	1
H	1.042735	1.158065	-1.195884	1
H	1.595535	0.849355	1.807416	1
H	0.119195	1.547505	1.102257	1
H	1.689845	2.349494	0.897466	1
H	3.246915	0.083025	0.243536	1
Es	-1.786768	-0.818482	-0.322489	99
Es	0.464479	1.487828	1.046712	99
Es	1.077564	-1.184704	-0.908974	99
Es	1.168996	0.974643	-0.925712	99
Es	-3.230377	-0.818484	-0.322483	99
Es	0.101241	-0.813292	-0.317269	99
Es	1.095532	-1.178621	0.272455	99
Es	2.964435	0.794438	-0.541550	99
Es	-0.596051	-0.818468	-0.322505	99
Es	1.470352	1.003970	1.526477	99
Es	3.045782	0.273640	-0.107138	99
Es	-1.186256	-1.174183	-0.381160	99
Es	1.446298	0.595505	-0.346089	99
Es	1.526750	2.035147	0.904670	99
Es	-3.478822	-1.152335	-0.919434	99
Es	0.847559	-0.818475	-0.322469	99
Es	-3.478441	-1.168399	0.265536	99
Es	2.331027	0.522789	-0.444487	99
Es	-1.186704	-0.586263	-0.603546	99
Es	-2.487434	-0.818308	-0.322613	99
Es	1.187526	1.376787	0.937566	99
Es	1.116951	-0.127288	-0.325317	99
Es	-1.193460	-0.688459	0.016609	99
Es	-3.478116	-0.134116	-0.312969	99
Es	1.304325	0.980931	0.309574	99
Es	2.860381	0.506181	-0.542013	99
Es	2.907376	0.311734	-0.777458	99
44
Properties=species:S:1:pos:R:3:Z:I:1 energy=-307.94862954217547 field_type=dipole dipole="0.000000 0.000000 0.000000" charge=0
C	-3.230485	-0.818485	-0.322484	6
C	-1.786485	-0.818485	-0.322484	6
C	-0.596326	-0.818485	-0.322484	6
C	0.847674	-0.818485	-0.322484	6
C	1.446084	0.595575	-0.346114	6
C	1.187524	1.376805	0.937567	6
O	2.860575	0.506315	-0.542304	8
H	-3.624365	0.202415	-0.308874	1
H	-3.624536	-1.340585	0.554837	1
H	-3.624585	-1.317085	-1.213344	1
H	1.218374	-1.372175	-1.194394	1
H	1.232324	-1.364765	0.547766	1
H	1.042735	1.158065	-1.195884	1
H	1.595535	0.849355	1.807416	1
H	0.119195	1.547505	1.102257	1
H	1.689845	2.349494	0.897466	1
H	3.246915	0.083025	0.243536	1
Es	-1.786780	-0.818479	-0.322486	99
Es	-3.480437	-1.151182	-0.916760	99
Es	2.907841	0.321454	-0.766675	99
Es	1.305834	0.981725	0.311834	99
Es	1.187528	1.376787	0.937565	99
Es	1.168064	0.975098	-0.925304	99
Es	1.098032	-1.178168	0.270716	99
Es	-1.186969	-0.603599	-0.613680	99
Es	1.472522	1.004290	1.524615	99
Es	-1.186196	-1.170522	-0.360219	99
Es	1.117883	-0.129342	-0.325412	99
Es	0.847555	-0.818472	-0.322468	99
Es	-0.596043	-0.818482	-0.322485	99
Es	0.459485	1.488581	1.046484	99
Es	-1.193358	-0.674422	0.005682	99
Es	-3.479987	-1.166704	0.263005	99
Es	1.446301	0.595504	-0.346090	99
Es	2.324038	0.521928	-0.448753	99
Es	1.527908	2.032065	0.903406	99
Es	2.860341	0.506048	-0.542038	99
Es	-3.230377	-0.818484	-0.322484	99
Es	0.098309	-0.814302	-0.316971	99
Es	1.078529	-1.182157	-0.906054	99
Es	3.052955	0.271973	-0.108806	99
Es	-3.479847	-0.136845	-0.313178	99
Es	2.965203	0.787200	-0.546127	99
Es	-2.484187	-0.817777	-0.323392	99
44
Properties=species:S:1:pos:R:3:Z:I:1 energy=-307.94862954217547 field_type=dipole dipole="0.000000 0.000000 0.000000" charge=0
C	-3.230485	-0.818485	-0.322484	6
C	-1.786485	-0.818485	-0.322484	6
C	-0.596326	-0.818485	-0.322484	6
C	0.847674	-0.818485	-0.322484	6
C	1.446084	0.595575	-0.346114	6
C	1.187524	1.376805	0.937567	6
O	2.860575	0.506315	-0.542304	8
H	-3.624365	0.202415	-0.308874	1
H	-3.624536	-1.340585	0.554837	1
H	-3.624585	-1.317085	-1.213344	1
H	1.218374	-1.372175	-1.194394	1
H	1.232324	-1.364765	0.547766	1
H	1.042735	1.158065	-1.195884	1
H	1.595535	0.849355	1.807416	1
H	0.119195	1.547505	1.102257	1
H	1.689845	2.349494	0.897466	1
H	3.246915	0.083025	0.243536	1
Es	0.457104	1.488608	1.046167	99
Es	2.860429	0.506289	-0.541926	99
Es	0.847557	-0.818474	-0.322467	99
Es	-3.481456	-1.150203	-0.915524	99
Es	-1.786781	-0.818479	-0.322483	99
Es	1.099257	-1.177343	0.269704	99
Es	1.167580	0.975308	-0.924941	99
Es	-3.230376	-0.818484	-0.322484	99
Es	2.321441	0.522421	-0.451149	99
Es	-0.596040	-0.818486	-0.322478	99
Es	0.096783	-0.814585	-0.317087	99
Es	1.473758	1.004285	1.523168	99
Es	-3.480648	-1.165643	0.261081	99
Es	-3.480408	-0.138685	-0.312779	99
Es	2.905452	0.323527	-0.757146	99
Es	-1.193303	-0.672690	0.002003	99
Es	-2.482566	-0.817652	-0.323509	99
Es	2.966023	0.781836	-0.553585	99
Es	1.446299	0.595505	-0.346089	99
Es	-1.186107	-1.166997	-0.353554	99
Es	1.079063	-1.180968	-0.904218	99
Es	1.306421	0.982703	0.313454	99
Es	1.187527	1.376786	0.937564	99
Es	1.118145	-0.130927	-0.325629	99
Es	1.528434	2.030362	0.902764	99
Es	3.057696	0.274520	-0.108427	99
Es	-1.187138	-0.608818	-0.616506	99
44
Properties=species:S:1:pos:R:3:Z:I:1 energy=-307.94862954217547 field_type=dipole dipole="0.000000 0.000000 0.000000" charge=0
C	-3.230485	-0.818485	-0.322484	6
C	-1.786485	-0.818485	-0.322484	6
C	-0.596326	-0.818485	-0.322484	6
C	0.847674	-0.818485	-0.322484	6
C	1.446084	0.595575	-0.346114	6
C	1.187524	1.376805	0.937567	6
O	2.860575	0.506315	-0.542304	8
H	-3.624365	0.202415	-0.308874	1
H	-3.624536	-1.340585	0.554837	1
H	-3.624585	-1.317085	-1.213344	1
H	1.218374	-1.372175	-1.194394	1
H	1.232324	-1.364765	0.547766	1
H	1.042735	1.158065	-1.195884	1
H	1.595535	0.849355	1.807416	1
H	0.119195	1.547505	1.102257	1
H	1.689845	2.349494	0.897466	1
H	3.246915	0.083025	0.243536	1
Es	1.118142	-0.132050	-0.325361	99
Es	-1.186794	-0.597948	-0.605781	99
Es	1.100293	-1.177199	0.268694	99
Es	-3.480973	-0.139772	-0.312893	99
Es	-3.481857	-1.149881	-0.914325	99
Es	1.474380	1.004452	1.521781	99
Es	-1.786782	-0.818478	-0.322492	99
Es	1.167227	0.975472	-0.924719	99
Es	-1.193510	-0.687446	0.007577	99
Es	-0.596036	-0.818485	-0.322482	99
Es	0.847559	-0.818474	-0.322467	99
Es	2.902010	0.326530	-0.749099	99
Es	1.187526	1.376787	0.937564	99
Es	1.446296	0.595506	-0.346088	99
Es	2.860369	0.506159	-0.542005	99
Es	-1.186287	-1.162860	-0.369831	99
Es	3.064447	0.277190	-0.108575	99
Es	0.455629	1.488282	1.045982	99
Es	1.528913	2.029345	0.902414	99
Es	-3.230376	-0.818483	-0.322484	99
Es	1.306809	0.983308	0.314781	99
Es	1.079164	-1.179623	-0.903282	99
Es	0.095938	-0.814799	-0.317000	99
Es	2.964483	0.776169	-0.560363	99
Es	-3.480912	-1.164696	0.259716	99
Es	2.320131	0.522522	-0.452001	99
Es	-2.481642	-0.817809	-0.323335	99
44
Properties=species:S:1:pos:R:3:Z:I:1 energy=-307.94862954217547 field_type=dipole dipole="0.000000 0.000000 0.000000" charge=0
C	-3.230485	-0.818485	-0.322484	6
C	-1.786485	-0.818485	-0.322484	6
C	-0.596326	-0.818485	-0.322484	6
C	0.847674	-0.818485	-0.322484	6
C	1.446084	0.595575	-0.346114	6
C	1.187524	1.376805	0.937567	6
O	2.860575	0.506315	-0.542304	8
H	-3.624365	0.202415	-0.308874	1
H	-3.624536	-1.340585	0.554837	1
H	-3.624585	-1.317085	-1.213344	1
H	1.218374	-1.372175	-1.194394	1
H	1.232324	-1.364765	0.547766	1
H	1.042735	1.158065	-1.195884	1
H	1.595535	0.849355	1.807416	1
H	0.119195	1.547505	1.102257	1
H	1.689845	2.349494	0.897466	1
H	3.246915	0.083025	0.243536	1
Es	0.095327	-0.814949	-0.317346	99
Es	-3.481511	-0.140680	-0.312562	99
Es	2.963918	0.771082	-0.568729	99
Es	3.070632	0.280628	-0.109141	99
Es	0.454658	1.488096	1.045573	99
Es	2.860625	0.506204	-0.542549	99
Es	1.100614	-1.176464	0.268014	99
Es	1.446303	0.595503	-0.346090	99
Es	1.079571	-1.179167	-0.902325	99
Es	-1.786784	-0.818484	-0.322486	99
Es	1.306946	0.983934	0.316129	99
Es	-3.480663	-1.164078	0.258520	99
Es	-0.596033	-0.818488	-0.322484	99
Es	1.187526	1.376784	0.937564	99
Es	-1.186075	-1.162163	-0.355166	99
Es	-2.481075	-0.817559	-0.323034	99
Es	-3.230376	-0.818484	-0.322484	99
Es	1.118028	-0.133101	-0.325359	99
Es	2.897214	0.328388	-0.738694	99
Es	-1.187295	-0.612888	-0.614912	99
Es	1.167095	0.975596	-0.924350	99
Es	0.847557	-0.818474	-0.322468	99
Es	-1.193228	-0.673192	0.002038	99
Es	1.474886	1.004589	1.520904	99
Es	2.319311	0.522306	-0.452866	99
Es	1.529307	2.028457	0.901788	99
Es	-3.482329	-1.149679	-0.913561	99
44
Properties=species:S:1:pos:R:3:Z:I:1 energy=-307.94862954217547 field_type=dipole dipole="0.000000 0.000000 0.000000" charge=0
C	-3.230485	-0.818485	-0.322484	6
C	-1.786485	-0.818485	-0.322484	6
C	-0.596326	-0.818485	-0.322484	6
C	0.847674	-0.818485	-0.322484	6
C	1.446084	0.595575	-0.346114	6
C	1.187524	1.376805	0.937567	6
O	2.860575	0.506315	-0.542304	8
H	-3.624365	0.202415	-0.308874	1
H	-3.624536	-1.340585	0.554837	1
H	-3.624585	-1.317085	-1.213344	1
H	1.218374	-1.372175	-1.194394	1
H	1.232324	-1.364765	0.547766	1
H	1.042735	1.158065	-1.195884	1
H	1.595535	0.849355	1.807416	1
H	0.119195	1.547505	1.102257	1
H	1.689845	2.349494	0.897466	1
H	3.246915	0.083025	0.243536	1
Es	1.117784	-0.133884	-0.325275	99
Es	1.306896	0.984529	0.316989	99
Es	0.094956	-0.815080	-0.317331	99
Es	2.860482	0.506228	-0.542097	99
Es	3.075748	0.285587	-0.109209	99
Es	0.454054	1.487984	1.045581	99
Es	-3.230377	-0.818484	-0.322483	99
Es	-1.193297	-0.679169	0.003338	99
Es	0.847556	-0.818473	-0.322468	99
Es	-3.483179	-1.149688	-0.913139	99
Es	2.319062	0.524068	-0.452251	99
Es	1.529522	2.027727	0.901650	99
Es	1.187526	1.376786	0.937564	99
Es	1.475204	1.004677	1.519994	99
Es	1.446300	0.595504	-0.346089	99
Es	2.966687	0.765523	-0.583227	99
Es	1.166955	0.975398	-0.924268	99
Es	-3.480453	-1.163025	0.257726	99
Es	2.889910	0.327165	-0.725127	99
Es	1.100997	-1.175744	0.267469	99
Es	1.080006	-1.178787	-0.902053	99
Es	-0.596034	-0.818497	-0.322483	99
Es	-1.786788	-0.818482	-0.322489	99
Es	-3.481394	-0.141613	-0.312358	99
Es	-1.186187	-1.161503	-0.361761	99
Es	-2.480665	-0.817617	-0.322937	99
Es	-1.187126	-0.607412	-0.609345	99
44
Properties=species:S:1:pos:R:3:Z:I:1 energy=-307.94862954217547 field_type=dipole dipole="0.000000 0.000000 0.000000" charge=0
C	-3.230485	-0.818485	-0.322484	6
C	-1.786485	-0.818485	-0.322484	6
C	-0.596326	-0.818485	-0.322484	6
C	0.847674	-0.818485	-0.322484	6
C	1.446084	0.595575	-0.346114	6
C	1.187524	1.376805	0.937567	6
O	2.860575	0.506315	-0.542304	8
H	-3.624365	0.202415	-0.308874	1
H	-3.624536	-1.340585	0.554837	1
H	-3.624585	-1.317085	-1.213344	1
H	1.218374	-1.372175	-1.194394	1
H	1.232324	-1.364765	0.547766	1
H	1.042735	1.158065	-1.195884	1
H	1.595535	0.849355	1.807416	1
H	0.119195	1.547505	1.102257	1
H	1.689845	2.349494	0.897466	1
H	3.246915	0.083025	0.243536	1
Es	1.101087	-1.175444	0.266780	99
Es	-1.786787	-0.818477	-0.322486	99
Es	1.117646	-0.134445	-0.325055	99
Es	1.306725	0.984871	0.318208	99
Es	1.166920	0.975633	-0.923919	99
Es	1.530125	2.027472	0.900919	99
Es	1.475376	1.004719	1.519196	99
Es	1.080172	-1.178412	-0.901568	99
Es	1.446305	0.595502	-0.346089	99
Es	-0.596033	-0.818486	-0.322480	99
Es	-2.480408	-0.817684	-0.322801	99
Es	2.959202	0.759996	-0.576403	99
Es	2.860354	0.506133	-0.542054	99
Es	1.187526	1.376786	0.937565	99
Es	-3.481785	-0.142038	-0.312392	99
Es	-3.480655	-1.163114	0.257140	99
Es	-1.186243	-1.157872	-0.371713	99
Es	0.453578	1.487561	1.045348	99
Es	3.082231	0.285847	-0.112765	99
Es	-3.230376	-0.818487	-0.322490	99
Es	0.847557	-0.818473	-0.322468	99
Es	-1.186983	-0.602506	-0.604230	99
Es	2.891642	0.334704	-0.727216	99
Es	2.318600	0.521957	-0.453369	99
Es	-1.193395	-0.687798	0.008073	99
Es	0.094693	-0.815083	-0.317415	99
Es	-3.482927	-1.149146	-0.912390	99
44
Properties=species:S:1:pos:R:3:Z:I:1 energy=-307.94862954217547 field_type=dipole dipole="0.000000 0.000000 0.000000" charge=0
C	-3.230485	-0.818485	-0.322484	6
C	-1.786485	-0.818485	-0.322484	6
C	-0.596326	-0.818485	-0.322484	6
C	0.847674	-0.818485	-0.322484	6
C	1.446084	0.595575	-0.346114	6
C	1.187524	1.376805	0.937567	6
O	2.860575	0.506315	-0.542304	8
H	-3.624365	0.202415	-0.308874	1
H	-3.624536	-1.340585	0.554837	1
H	-3.624585	-1.317085	-1.213344	1
H	1.218374	-1.372175	-1.194394	1
H	1.232324	-1.364765	0.547766	1
H	1.042735	1.158065	-1.195884	1
H	1.595535	0.849355	1.807416	1
H	0.119195	1.547505	1.102257	1
H	1.689845	2.349494	0.897466	1
H	3.246915	0.083025	0.243536	1
Es	-1.188497	-0.649125	-0.635075	99
Es	-3.481840	-0.142499	-0.312230	99
Es	-3.480499	-1.162650	0.256570	99
Es	-0.596034	-0.818483	-0.322473	99
Es	2.860382	0.506531	-0.541740	99
Es	1.080554	-1.178468	-0.901326	99
Es	1.166974	0.975663	-0.923643	99
Es	0.847557	-0.818473	-0.322468	99
Es	-3.230376	-0.818484	-0.322484	99
Es	-1.185615	-1.158935	-0.317810	99
Es	1.475279	1.004590	1.518270	99
Es	1.187526	1.376788	0.937565	99
Es	1.306602	0.985368	0.318899	99
Es	-3.483282	-1.149024	-0.911987	99
Es	1.101054	-1.174755	0.266403	99
Es	0.094507	-0.815024	-0.317540	99
Es	-1.192514	-0.640164	-0.014965	99
Es	2.318441	0.522338	-0.453228	99
Es	1.446305	0.595503	-0.346091	99
Es	0.453272	1.487315	1.045375	99
Es	-1.786787	-0.818479	-0.322488	99
Es	1.117378	-0.135107	-0.325113	99
Es	2.886130	0.336383	-0.716380	99
Es	1.530668	2.027260	0.900874	99
Es	2.959682	0.754798	-0.585084	99
Es	-2.480210	-0.817750	-0.322541	99
Es	3.087491	0.288602	-0.115363	99
44
Properties=species:S:1:pos:R:3:Z:I:1 energy=-307.94862954217547 field_type=dipole dipole="0.000000 0.000000 0.000000" charge=0
C	-3.230485	-0.818485	-0.322484	6
C	-1.786485	-0.818485	-0.322484	6
C	-0.596326	-0.818485	-0.322484	6
C	0.847674	-0.818485	-0.322484	6
C	1.446084	0.595575	-0.346114	6
C	1.187524	1.376805	0.937567	6
O	2.860575	0.506315	-0.542304	8
H	-3.624365	0.202415	-0.308874	1
H	-3.624536	-1.340585	0.554837	1
H	-3.624585	-1.317085	-1.213344	1
H	1.218374	-1.372175	-1.194394	1
H	1.232324	-1.364765	0.547766	1
H	1.042735	1.158065	-1.195884	1
H	1.595535	0.849355	1.807416	1
H	0.119195	1.547505	1.102257	1
H	1.689845	2.349494	0.897466	1
H	3.246915	0.083025	0.243536	1
Es	-0.596032	-0.818484	-0.322484	99
Es	1.187527	1.376788	0.937566	99
Es	-1.786789	-0.818480	-0.322488	99
Es	1.475266	1.004584	1.517713	99
Es	-3.230375	-0.818484	-0.322484	99
Es	0.453051	1.487178	1.045290	99
Es	-1.185701	-1.158171	-0.330849	99
Es	3.093819	0.292915	-0.118925	99
Es	2.958309	0.747934	-0.591611	99
Es	-3.480520	-1.162670	0.256229	99
Es	1.166947	0.975718	-0.923501	99
Es	-1.188228	-0.640637	-0.628486	99
Es	1.080918	-1.178148	-0.901454	99
Es	0.094393	-0.815130	-0.317541	99
Es	-1.192699	-0.649284	-0.008560	99
Es	-2.480094	-0.817734	-0.322425	99
Es	2.318273	0.522211	-0.453492	99
Es	1.531116	2.027008	0.900507	99
Es	1.101058	-1.174547	0.265996	99
Es	0.847557	-0.818472	-0.322466	99
Es	-3.483220	-1.148743	-0.911608	99
Es	2.881379	0.339302	-0.705808	99
Es	1.446304	0.595493	-0.346087	99
Es	1.117112	-0.135554	-0.324755	99
Es	-3.482031	-0.142775	-0.312164	99
Es	2.860394	0.506283	-0.541975	99
Es	1.306414	0.985617	0.319786	99
44
Properties=species:S:1:pos:R:3:Z:I:1 energy=-307.94862954217547 field_type=dipole dipole="0.000000 0.000000 0.000000" charge=0
C	-3.230485	-0.818485	-0.322484	6
C	-1.786485	-0.818485	-0.322484	6
C	-0.596326	-0.818485	-0.322484	6
C	0.847674	-0.818485	-0.322484	6
C	1.446084	0.595575	-0.346114	6
C	1.187524	1.376805	0.937567	6
O	2.860575	0.506315	-0.542304	8
H	-3.624365	0.202415	-0.308874	1
H	-3.624536	-1.340585	0.554837	1
H	-3.624585	-1.317085	-1.213344	1
H	1.218374	-1.372175	-1.194394	1
H	1.232324	-1.364765	0.547766	1
H	1.042735	1.158065	-1.195884	1
H	1.595535	0.849355	1.807416	1
H	0.119195	1.547505	1.102257	1
H	1.689845	2.349494	0.897466	1
H	3.246915	0.083025	0.243536	1
Es	2.871725	0.343783	-0.681225	99
Es	-3.230378	-0.818483	-0.322482	99
Es	1.531233	2.026784	0.900674	99
Es	1.475144	1.004746	1.517327	99
Es	1.100784	-1.173875	0.265686	99
Es	-3.479408	-1.161975	0.255189	99
Es	-1.192618	-0.645090	-0.008715	99
Es	-2.479997	-0.817706	-0.322369	99
Es	-3.482763	-0.142580	-0.311701	99
Es	-1.185694	-1.157684	-0.330733	99
Es	0.847556	-0.818473	-0.322467	99
Es	1.116981	-0.135798	-0.324821	99
Es	0.452955	1.487205	1.045477	99
Es	1.167025	0.975617	-0.923384	99
Es	2.318278	0.523980	-0.453462	99
Es	1.081402	-1.178464	-0.901494	99
Es	3.097932	0.298163	-0.120745	99
Es	1.306416	0.985664	0.319860	99
Es	-1.786788	-0.818476	-0.322488	99
Es	-3.483709	-1.149471	-0.911140	99
Es	2.964279	0.737462	-0.614527	99
Es	1.446307	0.595501	-0.346085	99
Es	-1.188322	-0.645436	-0.628303	99
Es	1.187526	1.376787	0.937564	99
Es	2.860004	0.505230	-0.541836	99
Es	-0.596033	-0.818486	-0.322484	99
Es	0.094312	-0.815208	-0.317392	99
44
Properties=species:S:1:pos:R:3:Z:I:1 energy=-307.94862954217547 field_type=dipole dipole="0.000000 0.000000 0.000000" charge=0
C	-3.230485	-0.818485	-0.322484	6
C	-1.786485	-0.818485	-0.322484	6
C	-0.596326	-0.818485	-0.322484	6
C	0.847674	-0.818485	-0.322484	6
C	1.446084	0.595575	-0.346114	6
C	1.187524	1.376805	0.937567	6
O	2.860575	0.506315	-0.542304	8
H	-3.624365	0.202415	-0.308874	1
H	-3.624536	-1.340585	0.554837	1
H	-3.624585	-1.317085	-1.213344	1
H	1.218374	-1.372175	-1.194394	1
H	1.232324	-1.364765	0.547766	1
H	1.042735	1.158065	-1.195884	1
H	1.595535	0.849355	1.807416	1
H	0.119195	1.547505	1.102257	1
H	1.689845	2.349494	0.897466	1
H	3.246915	0.083025	0.243536	1
Es	-3.479173	-1.161943	0.254836	99
Es	1.474972	1.004629	1.516996	99
Es	-1.786788	-0.818475	-0.322488	99
Es	0.094266	-0.815178	-0.317437	99
Es	2.963363	0.727575	-0.623490	99
Es	1.187526	1.376786	0.937565	99
Es	-1.192840	-0.657115	-0.002720	99
Es	-3.230376	-0.818481	-0.322482	99
Es	1.306414	0.985934	0.320145	99
Es	-3.483912	-1.149341	-0.911056	99
Es	-0.596033	-0.818497	-0.322495	99
Es	1.167154	0.975641	-0.923183	99
Es	-1.187947	-0.633517	-0.620761	99
Es	1.116813	-0.136141	-0.324822	99
Es	3.104293	0.304613	-0.125542	99
Es	2.866005	0.346112	-0.667473	99
Es	1.531488	2.026682	0.900831	99
Es	-3.482854	-0.142651	-0.311341	99
Es	0.847560	-0.818472	-0.322469	99
Es	-2.479953	-0.817735	-0.322406	99
Es	-1.185847	-1.157502	-0.344171	99
Es	2.318237	0.524191	-0.453292	99
Es	2.860348	0.506131	-0.541992	99
Es	1.100529	-1.173525	0.265498	99
Es	0.452855	1.487145	1.045311	99
Es	1.446307	0.595499	-0.346089	99
Es	1.081742	-1.178646	-0.901548	99
44
Properties=species:S:1:pos:R:3:Z:I:1 energy=-307.94862954217547 field_type=dipole dipole="0.000000 0.000000 0.000000" charge=0
C	-3.230485	-0.818485	-0.322484	6
C	-1.786485	-0.818485	-0.322484	6
C	-0.596326	-0.818485	-0.322484	6
C	0.847674	-0.818485	-0.322484	6
C	1.446084	0.595575	-0.346114	6
C	1.187524	1.376805	0.937567	6
O	2.860575	0.506315	-0.542304	8
H	-3.624365	0.202415	-0.308874	1
H	-3.624536	-1.340585	0.554837	1
H	-3.624585	-1.317085	-1.213344	1
H	1.218374	-1.372175	-1.194394	1
H	1.232324	-1.364765	0.547766	1
H	1.042735	1.158065	-1.195884	1
H	1.595535	0.849355	1.807416	1
H	0.119195	1.547505	1.102257	1
H	1.689845	2.349494	0.897466	1
H	3.246915	0.083025	0.243536	1
Es	1.167063	0.975839	-0.923075	99
Es	0.847558	-0.818474	-0.322468	99
Es	-2.479898	-0.817739	-0.322315	99
Es	0.452759	1.486930	1.045367	99
Es	1.531858	2.026671	0.900336	99
Es	2.860363	0.506294	-0.541884	99
Es	1.100850	-1.173461	0.265343	99
Es	3.109011	0.305127	-0.131953	99
Es	0.094208	-0.815146	-0.317419	99
Es	1.081744	-1.178276	-0.901548	99
Es	1.306225	0.986026	0.320654	99
Es	-1.185467	-1.155242	-0.310438	99
Es	-0.596032	-0.818492	-0.322487	99
Es	1.475042	1.004566	1.516598	99
Es	-1.192278	-0.630517	-0.018263	99
Es	2.866235	0.349743	-0.668195	99
Es	1.446308	0.595498	-0.346077	99
Es	2.958490	0.724094	-0.616674	99
Es	-3.480012	-1.162252	0.255323	99
Es	1.116469	-0.136524	-0.324628	99
Es	2.318179	0.523381	-0.453052	99
Es	1.187527	1.376788	0.937564	99
Es	-1.786789	-0.818477	-0.322486	99
Es	-3.482490	-0.143160	-0.311830	99
Es	-3.483512	-1.148695	-0.910902	99
Es	-3.230376	-0.818486	-0.322479	99
Es	-1.188890	-0.662298	-0.639086	99
44
Properties=species:S:1:pos:R:3:Z:I:1 energy=-307.94862954217547 field_type=dipole dipole="0.000000 0.000000 0.000000" charge=0
C	-3.230485	-0.818485	-0.322484	6
C	-1.786485	-0.818485	-0.322484	6
C	-0.596326	-0.818485	-0.322484	6
C	0.847674	-0.818485	-0.322484	6
C	1.446084	0.595575	-0.346114	6
C	1.187524	1.376805	0.937567	6
O	2.860575	0.506315	-0.542304	8
H	-3.624365	0.202415	-0.308874	1
H	-3.624536	-1.340585	0.554837	1
H	-3.624585	-1.317085	-1.213344	1
H	1.218374	-1.372175	-1.194394	1
H	1.232324	-1.364765	0.547766	1
H	1.042735	1.158065	-1.195884	1
H	1.595535	0.849355	1.807416	1
H	0.119195	1.547505	1.102257	1
H	1.689845	2.349494	0.897466	1
H	3.246915	0.083025	0.243536	1
Es	-0.596032	-0.818489	-0.322485	99
Es	0.452744	1.487002	1.045394	99
Es	2.854927	0.363263	-0.631112	99
Es	-3.230376	-0.818484	-0.322488	99
Es	1.446308	0.595504	-0.346094	99
Es	0.094193	-0.815339	-0.317187	99
Es	-3.483847	-0.142441	-0.310024	99
Es	2.318133	0.524790	-0.454046	99
Es	-1.185400	-1.154144	-0.291874	99
Es	-3.477563	-1.161348	0.253057	99
Es	-3.484612	-1.150021	-0.910911	99
Es	1.100245	-1.173059	0.265063	99
Es	1.116582	-0.136398	-0.324672	99
Es	2.860355	0.506437	-0.541742	99
Es	1.306189	0.986479	0.320528	99
Es	-1.191758	-0.608190	-0.030269	99
Es	3.110042	0.306620	-0.132690	99
Es	-2.479882	-0.817863	-0.322165	99
Es	1.167425	0.975268	-0.923049	99
Es	2.968825	0.707530	-0.652174	99
Es	-1.786788	-0.818476	-0.322489	99
Es	-1.189485	-0.685794	-0.645511	99
Es	1.082259	-1.178692	-0.901624	99
Es	1.187526	1.376787	0.937565	99
Es	1.474271	1.004481	1.516063	99
Es	0.847556	-0.818473	-0.322467	99
Es	1.532312	2.026769	0.901330	99
44
Properties=species:S:1:pos:R:3:Z:I:1 energy=-307.94862954217547 field_type=dipole dipole="0.000000 0.000000 0.000000" charge=0
C	-3.230485	-0.818485	-0.322484	6
C	-1.786485	-0.818485	-0.322484	6
C	-0.596326	-0.818485	-0.322484	6
C	0.847674	-0.818485	-0.322484	6
C	1.446084	0.595575	-0.346114	6
C	1.187524	1.376805	0.937567	6
O	2.860575	0.506315	-0.542304	8
H	-3.624365	0.202415	-0.308874	1
H	-3.624536	-1.340585	0.554837	1
H	-3.624585	-1.317085	-1.213344	1
H	1.218374	-1.372175	-1.194394	1
H	1.232324	-1.364765	0.547766	1
H	1.042735	1.158065	-1.195884	1
H	1.595535	0.849355	1.807416	1
H	0.119195	1.547505	1.102257	1
H	1.689845	2.349494	0.897466	1
H	3.246915	0.083025	0.243536	1
Es	1.532317	2.026622	0.900878	99
Es	-1.188786	-0.662307	-0.633425	99
Es	0.094166	-0.815375	-0.317249	99
Es	1.187527	1.376785	0.937562	99
Es	2.318044	0.524236	-0.454465	99
Es	-0.596033	-0.818486	-0.322488	99
Es	-3.230375	-0.818486	-0.322480	99
Es	-1.192250	-0.628221	-0.017090	99
Es	1.116484	-0.136511	-0.324735	99
Es	3.113712	0.313182	-0.135799	99
Es	2.860359	0.506607	-0.541615	99
Es	1.306167	0.986253	0.320683	99
Es	-1.185602	-1.157675	-0.317072	99
Es	1.100127	-1.173118	0.264850	99
Es	-1.786788	-0.818477	-0.322487	99
Es	-3.484507	-1.150244	-0.910561	99
Es	-3.477187	-1.161268	0.252621	99
Es	1.167494	0.975739	-0.922687	99
Es	-3.484352	-0.142214	-0.309910	99
Es	1.474509	1.004483	1.516098	99
Es	2.967663	0.696069	-0.659229	99
Es	0.452721	1.487063	1.045411	99
Es	-2.479865	-0.817838	-0.322183	99
Es	1.082222	-1.178670	-0.901510	99
Es	2.852516	0.368546	-0.620637	99
Es	1.446307	0.595495	-0.346088	99
Es	0.847556	-0.818473	-0.322468	99
44
Properties=species:S:1:pos:R:3:Z:I:1 energy=-307.94862954217547 field_type=dipole dipole="0.000000 0.000000 0.000000" charge=0
C	-3.230485	-0.818485	-0.322484	6
C	-1.786485	-0.818485	-0.322484	6
C	-0.596326	-0.818485	-0.322484	6
C	0.847674	-0.818485	-0.322484	6
C	1.446084	0.595575	-0.346114	6
C	1.187524	1.376805	0.937567	6
O	2.860575	0.506315	-0.542304	8
H	-3.624365	0.202415	-0.308874	1
H	-3.624536	-1.340585	0.554837	1
H	-3.624585	-1.317085	-1.213344	1
H	1.218374	-1.372175	-1.194394	1
H	1.232324	-1.364765	0.547766	1
H	1.042735	1.158065	-1.195884	1
H	1.595535	0.849355	1.807416	1
H	0.119195	1.547505	1.102257	1
H	1.689845	2.349494	0.897466	1
H	3.246915	0.083025	0.243536	1
Es	2.967498	0.689160	-0.664310	99
Es	2.860316	0.506365	-0.541693	99
Es	-3.484408	-1.150152	-0.910382	99
Es	-2.479827	-0.817936	-0.322141	99
Es	-3.484155	-0.142400	-0.310330	99
Es	1.474682	1.004464	1.515952	99
Es	-3.230376	-0.818485	-0.322478	99
Es	-0.596033	-0.818485	-0.322481	99
Es	2.318012	0.523934	-0.454756	99
Es	3.115725	0.314774	-0.138515	99
Es	-1.188819	-0.664885	-0.631805	99
Es	1.082239	-1.178491	-0.901449	99
Es	1.099989	-1.173295	0.264603	99
Es	1.187526	1.376785	0.937565	99
Es	-1.192176	-0.624510	-0.018495	99
Es	1.167205	0.975698	-0.922958	99
Es	1.116860	-0.136450	-0.324136	99
Es	0.452648	1.486868	1.045325	99
Es	-1.185646	-1.158726	-0.317342	99
Es	1.446307	0.595497	-0.346086	99
Es	1.306174	0.986413	0.320933	99
Es	-3.477528	-1.161137	0.252828	99
Es	0.847557	-0.818472	-0.322466	99
Es	2.850761	0.374399	-0.612416	99
Es	1.532265	2.026559	0.900736	99
Es	-1.786788	-0.818477	-0.322488	99
Es	0.094138	-0.815296	-0.317290	99
44
Properties=species:S:1:pos:R:3:Z:I:1 energy=-307.94862954217547 field_type=dipole dipole="0.000000 0.000000 0.000000" charge=0
C	-3.230485	-0.818485	-0.322484	6
C	-1.786485	-0.818485	-0.322484	6
C	-0.596326	-0.818485	-0.322484	6
C	0.847674	-0.818485	-0.322484	6
C	1.446084	0.595575	-0.346114	6
C	1.187524	1.376805	0.937567	6
O	2.860575	0.506315	-0.542304	8
H	-3.624365	0.202415	-0.308874	1
H	-3.624536	-1.340585	0.554837	1
H	-3.624585	-1.317085	-1.213344	1
H	1.218374	-1.372175	-1.194394	1
H	1.232324	-1.364765	0.547766	1
H	1.042735	1.158065	-1.195884	1
H	1.595535	0.849355	1.807416	1
H	0.119195	1.547505	1.102257	1
H	1.689845	2.349494	0.897466	1
H	3.246915	0.083025	0.243536	1
Es	-1.185417	-1.141843	-0.236157	99
Es	2.849050	0.380575	-0.604153	99
Es	-3.484273	-1.150399	-0.909959	99
Es	2.318022	0.524380	-0.454831	99
Es	0.452619	1.486794	1.045290	99
Es	1.116536	-0.136632	-0.324672	99
Es	-1.190841	-0.740372	-0.663611	99
Es	-1.190382	-0.565853	-0.067987	99
Es	-3.484862	-0.142122	-0.310066	99
Es	1.167552	0.975847	-0.922529	99
Es	1.082272	-1.178828	-0.901281	99
Es	-3.476969	-1.161158	0.252298	99
Es	1.099902	-1.172940	0.264586	99
Es	1.306026	0.986555	0.321157	99
Es	-0.596032	-0.818486	-0.322480	99
Es	-1.786789	-0.818475	-0.322496	99
Es	3.117449	0.316022	-0.141000	99
Es	-2.479818	-0.817921	-0.322113	99
Es	2.967507	0.681887	-0.669534	99
Es	1.474204	1.004287	1.515488	99
Es	-3.230378	-0.818486	-0.322479	99
Es	2.860303	0.505825	-0.542120	99
Es	1.187527	1.376786	0.937563	99
Es	1.446306	0.595499	-0.346089	99
Es	1.532946	2.026712	0.900812	99
Es	0.094129	-0.815463	-0.317240	99
Es	0.847557	-0.818474	-0.322472	99
44
Properties=species:S:1:pos:R:3:Z:I:1 energy=-307.94862954217547 field_type=dipole dipole="0.000000 0.000000 0.000000" charge=0
C	-3.230485	-0.818485	-0.322484	6
C	-1.786485	-0.818485	-0.322484	6
C	-0.596326	-0.818485	-0.322484	6
C	0.847674	-0.818485	-0.322484	6
C	1.446084	0.595575	-0.346114	6
C	1.187524	1.376805	0.937567	6
O	2.860575	0.506315	-0.542304	8
H	-3.624365	0.202415	-0.308874	1
H	-3.624536	-1.340585	0.554837	1
H	-3.624585	-1.317085	-1.213344	1
H	1.218374	-1.372175	-1.194394	1
H	1.232324	-1.364765	0.547766	1
H	1.042735	1.158065	-1.195884	1
H	1.595535	0.849355	1.807416	1
H	0.119195	1.547505	1.102257	1
H	1.689845	2.349494	0.897466	1
H	3.246915	0.083025	0.243536	1
Es	1.082320	-1.178543	-0.901208	99
Es	3.120416	0.314757	-0.147493	99
Es	-0.596032	-0.818483	-0.322482	99
Es	2.962005	0.688498	-0.652134	99
Es	1.100411	-1.172682	0.264881	99
Es	-3.484077	-1.149556	-0.910093	99
Es	1.474465	1.004239	1.515428	99
Es	0.847557	-0.818473	-0.322471	99
Es	0.452538	1.486723	1.045154	99
Es	-3.230375	-0.818484	-0.322483	99
Es	1.533059	2.026486	0.900174	99
Es	1.187526	1.376787	0.937565	99
Es	1.167315	0.975879	-0.922626	99
Es	-3.478196	-1.161464	0.253351	99
Es	-2.479771	-0.817832	-0.322197	99
Es	1.116203	-0.137039	-0.324814	99
Es	-1.185257	-1.149189	-0.277303	99
Es	-1.189918	-0.700898	-0.652423	99
Es	1.446308	0.595497	-0.346086	99
Es	-1.191464	-0.598005	-0.038067	99
Es	0.094090	-0.815313	-0.317401	99
Es	-3.483895	-0.142837	-0.310784	99
Es	2.852021	0.378791	-0.614433	99
Es	1.305778	0.986688	0.321993	99
Es	2.317973	0.523264	-0.454684	99
Es	-1.786788	-0.818477	-0.322488	99
Es	2.859934	0.503384	-0.542951	99
44
Properties=species:S:1:pos:R:3:Z:I:1 energy=-307.94862954217547 field_type=dipole dipole="0.000000 0.000000 0.000000" charge=0
C	-3.230485	-0.818485	-0.322484	6
C	-1.786485	-0.818485	-0.322484	6
C	-0.596326	-0.818485	-0.322484	6
C	0.847674	-0.818485	-0.322484	6
C	1.446084	0.595575	-0.346114	6
C	1.187524	1.376805	0.937567	6
O	2.860575	0.506315	-0.542304	8
H	-3.624365	0.202415	-0.308874	1
H	-3.624536	-1.340585	0.554837	1
H	-3.624585	-1.317085	-1.213344	1
H	1.218374	-1.372175	-1.194394	1
H	1.232324	-1.364765	0.547766	1
H	1.042735	1.158065	-1.195884	1
H	1.595535	0.849355	1.807416	1
H	0.119195	1.547505	1.102257	1
H	1.689845	2.349494	0.897466	1
H	3.246915	0.083025	0.243536	1
Es	-3.477653	-1.161015	0.252912	99
Es	-1.185926	-1.159019	-0.345488	99
Es	1.305806	0.986713	0.321898	99
Es	2.860250	0.506906	-0.541045	99
Es	1.082561	-1.178204	-0.901386	99
Es	2.848852	0.384090	-0.602385	99
Es	-3.230376	-0.818482	-0.322483	99
Es	1.115683	-0.137422	-0.324494	99
Es	-3.483632	-0.143028	-0.310078	99
Es	2.317948	0.523673	-0.455183	99
Es	0.847557	-0.818469	-0.322468	99
Es	2.963247	0.675235	-0.664234	99
Es	0.094076	-0.815383	-0.317427	99
Es	1.100652	-1.172606	0.265053	99
Es	-1.192689	-0.648715	-0.004930	99
Es	-3.484888	-1.149735	-0.910510	99
Es	1.533126	2.026452	0.900116	99
Es	-2.479766	-0.817885	-0.322251	99
Es	1.187526	1.376786	0.937564	99
Es	3.122058	0.318793	-0.148809	99
Es	-0.596032	-0.818484	-0.322485	99
Es	0.452541	1.486777	1.045143	99
Es	1.474537	1.004021	1.515342	99
Es	-1.786788	-0.818481	-0.322487	99
Es	-1.188026	-0.640385	-0.617256	99
Es	1.167197	0.976086	-0.922616	99
Es	1.446308	0.595498	-0.346088	99
44
Properties=species:S:1:pos:R:3:Z:I:1 energy=-307.94862954217547 field_type=dipole dipole="0.000000 0.000000 0.000000" charge=0
C	-3.230485	-0.818485	-0.322484	6
C	-1.786485	-0.818485	-0.322484	6
C	-0.596326	-0.818485	-0.322484	6
C	0.847674	-0.818485	-0.322484	6
C	1.446084	0.595575	-0.346114	6
C	1.187524	1.376805	0.937567	6
O	2.860575	0.506315	-0.542304	8
H	-3.624365	0.202415	-0.308874	1
H	-3.624536	-1.340585	0.554837	1
H	-3.624585	-1.317085	-1.213344	1
H	1.218374	-1.372175	-1.194394	1
H	1.232324	-1.364765	0.547766	1
H	1.042735	1.158065	-1.195884	1
H	1.595535	0.849355	1.807416	1
H	0.119195	1.547505	1.102257	1
H	1.689845	2.349494	0.897466	1
H	3.246915	0.083025	0.243536	1
Es	-3.484508	-1.150560	-0.909852	99
Es	1.446310	0.595504	-0.346075	99
Es	1.167387	0.976119	-0.922467	99
Es	2.965930	0.657309	-0.683830	99
Es	-3.485175	-0.142249	-0.309634	99
Es	1.116015	-0.137153	-0.324910	99