47
Properties=species:S:1:pos:R:3:Z:I:1 energy=-309.1437077523465 field_type=dipole dipole="0.000000 0.000000 0.000000" charge=0
C	-0.987090	-2.054740	0.977594	6
C	-0.553040	-1.499951	-0.372866	6
C	-0.197850	-0.025560	-0.327666	6
C	-1.340480	0.900169	-0.003456	6
C	1.061030	0.373989	-0.604726	6
C	1.616130	1.761459	-0.635916	6
O	2.674601	1.832749	0.307814	8
H	-1.151320	-3.134670	0.904414	1
H	-1.924550	-1.601231	1.314684	1
H	-0.224430	-1.878421	1.743554	1
H	-1.354400	-1.653991	-1.106106	1
H	0.300540	-2.091841	-0.727556	1
H	-2.191870	0.690210	-0.659256	1
H	-1.095309	1.955909	-0.131376	1
H	-1.660590	0.762479	1.034334	1
H	1.803151	-0.385331	-0.848706	1
H	0.892000	2.540770	-0.393666	1
H	2.025920	1.976779	-1.627336	1
H	2.307550	1.531219	1.156234	1
Es	2.878402	1.618724	0.225707	99
Es	0.529351	0.168201	-0.135482	99
Es	1.569323	-0.140267	-0.769441	99
Es	1.616283	1.761421	-0.635759	99
Es	2.674245	1.832558	0.307833	99
Es	-1.340453	0.900138	-0.003462	99
Es	-1.549980	0.798190	0.695686	99
Es	-0.465350	-1.931349	1.496973	99
Es	-1.910607	0.747897	-0.447906	99
Es	-1.166146	1.614091	-0.090213	99
Es	-1.098197	-2.790178	0.923706	99
Es	-0.197982	-0.025589	-0.327624	99
Es	1.310309	1.070576	-0.620753	99
Es	-0.375507	-0.758137	-0.341974	99
Es	-0.765303	0.445831	-0.164004	99
Es	-0.553053	-1.499918	-0.372825	99
Es	-1.103236	-1.594296	-0.869277	99
Es	-1.626389	-1.740739	1.205837	99
Es	1.061109	0.374036	-0.604743	99
Es	-0.772167	-1.761280	0.306387	99
Es	-0.987086	-2.054726	0.977565	99
Es	2.456550	1.671453	0.756624	99
Es	2.257303	1.796666	-0.035815	99
Es	0.371899	0.213656	-0.786989	99
Es	2.747347	2.128849	0.339773	99
Es	1.893482	1.901453	-1.311293	99
Es	1.104120	2.289857	-0.471412	99
Es	0.034470	-1.899666	-0.612566	99
47
Properties=species:S:1:pos:R:3:Z:I:1 energy=-309.1437077523465 field_type=dipole dipole="0.000000 0.000000 0.000000" charge=0
C	-0.987090	-2.054740	0.977594	6
C	-0.553040	-1.499951	-0.372866	6
C	-0.197850	-0.025560	-0.327666	6
C	-1.340480	0.900169	-0.003456	6
C	1.061030	0.373989	-0.604726	6
C	1.616130	1.761459	-0.635916	6
O	2.674601	1.832749	0.307814	8
H	-1.151320	-3.134670	0.904414	1
H	-1.924550	-1.601231	1.314684	1
H	-0.224430	-1.878421	1.743554	1
H	-1.354400	-1.653991	-1.106106	1
H	0.300540	-2.091841	-0.727556	1
H	-2.191870	0.690210	-0.659256	1
H	-1.095309	1.955909	-0.131376	1
H	-1.660590	0.762479	1.034334	1
H	1.803151	-0.385331	-0.848706	1
H	0.892000	2.540770	-0.393666	1
H	2.025920	1.976779	-1.627336	1
H	2.307550	1.531219	1.156234	1
Es	1.568932	-0.139589	-0.769177	99
Es	-0.987088	-2.054726	0.977564	99
Es	2.744402	2.129404	0.339810	99
Es	0.034800	-1.899373	-0.612549	99
Es	2.257556	1.796211	-0.034600	99
Es	-0.765228	0.445644	-0.163720	99
Es	-1.340450	0.900140	-0.003462	99
Es	1.061112	0.374037	-0.604736	99
Es	-0.772079	-1.761632	0.306138	99
Es	-0.375879	-0.758095	-0.341673	99
Es	-0.553054	-1.499918	-0.372824	99
Es	-1.549425	0.798350	0.695659	99
Es	-1.103347	-1.593953	-0.869621	99
Es	1.105001	2.288946	-0.471079	99
Es	0.371697	0.213524	-0.789028	99
Es	1.310169	1.070230	-0.620302	99
Es	0.529785	0.167907	-0.133855	99
Es	-0.464924	-1.932229	1.497213	99
Es	2.880349	1.620479	0.223605	99
Es	2.674239	1.832669	0.307887	99
Es	-1.911405	0.747834	-0.448390	99
Es	2.457437	1.669641	0.757233	99
Es	1.616282	1.761421	-0.635759	99
Es	1.893180	1.902163	-1.312106	99
Es	-1.166028	1.613465	-0.089892	99
Es	-1.097466	-2.788270	0.923633	99
Es	-1.627836	-1.741231	1.206212	99
Es	-0.197993	-0.025596	-0.327628	99
47
Properties=species:S:1:pos:R:3:Z:I:1 energy=-309.1437077523465 field_type=dipole dipole="0.000000 0.000000 0.000000" charge=0
C	-0.987090	-2.054740	0.977594	6
C	-0.553040	-1.499951	-0.372866	6
C	-0.197850	-0.025560	-0.327666	6
C	-1.340480	0.900169	-0.003456	6
C	1.061030	0.373989	-0.604726	6
C	1.616130	1.761459	-0.635916	6
O	2.674601	1.832749	0.307814	8
H	-1.151320	-3.134670	0.904414	1
H	-1.924550	-1.601231	1.314684	1
H	-0.224430	-1.878421	1.743554	1
H	-1.354400	-1.653991	-1.106106	1
H	0.300540	-2.091841	-0.727556	1
H	-2.191870	0.690210	-0.659256	1
H	-1.095309	1.955909	-0.131376	1
H	-1.660590	0.762479	1.034334	1
H	1.803151	-0.385331	-0.848706	1
H	0.892000	2.540770	-0.393666	1
H	2.025920	1.976779	-1.627336	1
H	2.307550	1.531219	1.156234	1
Es	-0.376284	-0.758314	-0.341243	99
Es	2.866710	1.614096	0.225929	99
Es	-1.166216	1.612922	-0.089700	99
Es	1.310184	1.070068	-0.619888	99
Es	-0.771704	-1.761812	0.305840	99
Es	-0.553052	-1.499918	-0.372828	99
Es	1.616284	1.761420	-0.635759	99
Es	-1.548729	0.798698	0.695450	99
Es	-0.464776	-1.933145	1.497348	99
Es	0.371566	0.213399	-0.790315	99
Es	-1.340450	0.900139	-0.003461	99
Es	2.257435	1.798688	-0.034159	99
Es	-0.764992	0.445419	-0.163517	99
Es	-1.912285	0.747725	-0.448397	99
Es	-1.103562	-1.593549	-0.869683	99
Es	2.674243	1.832683	0.307898	99
Es	1.105727	2.288255	-0.470862	99
Es	0.035515	-1.899238	-0.612699	99
Es	1.568498	-0.139256	-0.768868	99
Es	-1.096213	-2.786068	0.923458	99
Es	-1.629785	-1.742014	1.206568	99
Es	-0.987087	-2.054727	0.977565	99
Es	-0.197990	-0.025589	-0.327631	99
Es	1.061113	0.374040	-0.604740	99
Es	1.892914	1.902684	-1.312679	99
Es	2.759336	2.130727	0.335986	99
Es	0.529999	0.167756	-0.133094	99
Es	2.456343	1.672363	0.758036	99
47
Properties=species:S:1:pos:R:3:Z:I:1 energy=-309.1437077523465 field_type=dipole dipole="0.000000 0.000000 0.000000" charge=0
C	-0.987090	-2.054740	0.977594	6
C	-0.553040	-1.499951	-0.372866	6
C	-0.197850	-0.025560	-0.327666	6
C	-1.340480	0.900169	-0.003456	6
C	1.061030	0.373989	-0.604726	6
C	1.616130	1.761459	-0.635916	6
O	2.674601	1.832749	0.307814	8
H	-1.151320	-3.134670	0.904414	1
H	-1.924550	-1.601231	1.314684	1
H	-0.224430	-1.878421	1.743554	1
H	-1.354400	-1.653991	-1.106106	1
H	0.300540	-2.091841	-0.727556	1
H	-2.191870	0.690210	-0.659256	1
H	-1.095309	1.955909	-0.131376	1
H	-1.660590	0.762479	1.034334	1
H	1.803151	-0.385331	-0.848706	1
H	0.892000	2.540770	-0.393666	1
H	2.025920	1.976779	-1.627336	1
H	2.307550	1.531219	1.156234	1
Es	-0.553052	-1.499919	-0.372825	99
Es	-1.912606	0.748033	-0.448025	99
Es	1.310148	1.069926	-0.619920	99
Es	-1.094974	-2.784223	0.923335	99
Es	1.616282	1.761421	-0.635757	99
Es	-1.167043	1.612382	-0.089360	99
Es	1.568987	-0.139639	-0.769009	99
Es	-1.340451	0.900139	-0.003461	99
Es	2.453614	1.683872	0.760264	99
Es	2.674151	1.832975	0.307953	99
Es	2.828383	2.118592	0.316147	99
Es	-1.631643	-1.742383	1.207168	99
Es	-0.987087	-2.054726	0.977564	99
Es	-0.464591	-1.933962	1.496795	99
Es	-1.548770	0.799197	0.694946	99
Es	-0.376619	-0.758475	-0.341004	99
Es	-0.197991	-0.025590	-0.327633	99
Es	-0.764520	0.445171	-0.163368	99
Es	1.892951	1.902534	-1.312744	99
Es	0.529890	0.167818	-0.133433	99
Es	-0.771693	-1.761884	0.305771	99
Es	2.801990	1.605200	0.240852	99
Es	-1.103559	-1.593020	-0.869212	99
Es	0.371712	0.213269	-0.790210	99
Es	1.061115	0.374039	-0.604737	99
Es	0.036762	-1.899469	-0.613115	99
Es	2.255932	1.807847	-0.031784	99
Es	1.105422	2.288328	-0.470642	99
47
Properties=species:S:1:pos:R:3:Z:I:1 energy=-309.1437077523465 field_type=dipole dipole="0.000000 0.000000 0.000000" charge=0
C	-0.987090	-2.054740	0.977594	6
C	-0.553040	-1.499951	-0.372866	6
C	-0.197850	-0.025560	-0.327666	6
C	-1.340480	0.900169	-0.003456	6
C	1.061030	0.373989	-0.604726	6
C	1.616130	1.761459	-0.635916	6
O	2.674601	1.832749	0.307814	8
H	-1.151320	-3.134670	0.904414	1
H	-1.924550	-1.601231	1.314684	1
H	-0.224430	-1.878421	1.743554	1
H	-1.354400	-1.653991	-1.106106	1
H	0.300540	-2.091841	-0.727556	1
H	-2.191870	0.690210	-0.659256	1
H	-1.095309	1.955909	-0.131376	1
H	-1.660590	0.762479	1.034334	1
H	1.803151	-0.385331	-0.848706	1
H	0.892000	2.540770	-0.393666	1
H	2.025920	1.976779	-1.627336	1
H	2.307550	1.531219	1.156234	1
Es	-1.167671	1.612678	-0.088997	99
Es	-0.553052	-1.499920	-0.372825	99
Es	1.105062	2.288811	-0.470638	99
Es	0.037425	-1.899913	-0.613424	99
Es	1.310120	1.069694	-0.619900	99
Es	-1.548662	0.799349	0.693961	99
Es	-0.771678	-1.761778	0.305635	99
Es	-1.103354	-1.592924	-0.868496	99
Es	1.569335	-0.140071	-0.769409	99
Es	-1.912881	0.748071	-0.447270	99
Es	2.879279	2.089814	0.298632	99
Es	1.061117	0.374040	-0.604733	99
Es	-0.197990	-0.025590	-0.327630	99
Es	-1.340450	0.900138	-0.003461	99
Es	1.616280	1.761421	-0.635762	99
Es	1.893029	1.902193	-1.312368	99
Es	-1.094185	-2.784299	0.923238	99
Es	2.674199	1.832775	0.307930	99
Es	-0.376824	-0.758127	-0.340864	99
Es	-0.764152	0.444917	-0.163214	99
Es	0.371947	0.213367	-0.789297	99
Es	0.529712	0.167769	-0.134155	99
Es	2.752628	1.622323	0.256067	99
Es	-0.987087	-2.054726	0.977564	99
Es	-0.464955	-1.933971	1.496051	99
Es	2.452122	1.690473	0.761379	99
Es	-1.632400	-1.742248	1.207501	99
Es	2.255826	1.813185	-0.030960	99
47
Properties=species:S:1:pos:R:3:Z:I:1 energy=-309.1437077523465 field_type=dipole dipole="0.000000 0.000000 0.000000" charge=0
C	-0.987090	-2.054740	0.977594	6
C	-0.553040	-1.499951	-0.372866	6
C	-0.197850	-0.025560	-0.327666	6
C	-1.340480	0.900169	-0.003456	6
C	1.061030	0.373989	-0.604726	6
C	1.616130	1.761459	-0.635916	6
O	2.674601	1.832749	0.307814	8
H	-1.151320	-3.134670	0.904414	1
H	-1.924550	-1.601231	1.314684	1
H	-0.224430	-1.878421	1.743554	1
H	-1.354400	-1.653991	-1.106106	1
H	0.300540	-2.091841	-0.727556	1
H	-2.191870	0.690210	-0.659256	1
H	-1.095309	1.955909	-0.131376	1
H	-1.660590	0.762479	1.034334	1
H	1.803151	-0.385331	-0.848706	1
H	0.892000	2.540770	-0.393666	1
H	2.025920	1.976779	-1.627336	1
H	2.307550	1.531219	1.156234	1
Es	-1.340452	0.900138	-0.003461	99
Es	0.372194	0.213524	-0.788779	99
Es	-0.465182	-1.934108	1.495567	99
Es	-0.987087	-2.054726	0.977564	99
Es	1.616279	1.761421	-0.635762	99
Es	2.731558	1.637599	0.262790	99
Es	-0.376948	-0.758110	-0.340867	99
Es	1.061116	0.374036	-0.604739	99
Es	2.255760	1.815279	-0.029987	99
Es	1.569444	-0.140319	-0.769523	99
Es	-0.197991	-0.025591	-0.327626	99
Es	2.451981	1.690859	0.761523	99
Es	-0.763929	0.444765	-0.163001	99
Es	1.105121	2.288980	-0.470605	99
Es	1.893086	1.902278	-1.312134	99
Es	-1.632845	-1.742078	1.207725	99
Es	2.674147	1.832801	0.307867	99
Es	-0.553052	-1.499920	-0.372823	99
Es	-1.167890	1.612955	-0.088860	99
Es	-1.913301	0.747904	-0.446715	99
Es	0.037700	-1.900283	-0.613555	99
Es	-1.103209	-1.592899	-0.868028	99
Es	2.900539	2.072025	0.290616	99
Es	0.529387	0.167780	-0.134848	99
Es	1.309991	1.069590	-0.619807	99
Es	-1.093766	-2.784323	0.923088	99
Es	-0.771637	-1.761607	0.305660	99
Es	-1.548272	0.799483	0.693275	99
47
Properties=species:S:1:pos:R:3:Z:I:1 energy=-309.1437077523465 field_type=dipole dipole="0.000000 0.000000 0.000000" charge=0
C	-0.987090	-2.054740	0.977594	6
C	-0.553040	-1.499951	-0.372866	6
C	-0.197850	-0.025560	-0.327666	6
C	-1.340480	0.900169	-0.003456	6
C	1.061030	0.373989	-0.604726	6
C	1.616130	1.761459	-0.635916	6
O	2.674601	1.832749	0.307814	8
H	-1.151320	-3.134670	0.904414	1
H	-1.924550	-1.601231	1.314684	1
H	-0.224430	-1.878421	1.743554	1
H	-1.354400	-1.653991	-1.106106	1
H	0.300540	-2.091841	-0.727556	1
H	-2.191870	0.690210	-0.659256	1
H	-1.095309	1.955909	-0.131376	1
H	-1.660590	0.762479	1.034334	1
H	1.803151	-0.385331	-0.848706	1
H	0.892000	2.540770	-0.393666	1
H	2.025920	1.976779	-1.627336	1
H	2.307550	1.531219	1.156234	1
Es	-0.376607	-0.757265	-0.341146	99
Es	1.309788	1.069988	-0.619863	99
Es	2.991341	1.810382	0.226031	99
Es	0.372175	0.213778	-0.787749	99
Es	-1.340452	0.900140	-0.003461	99
Es	0.529364	0.167542	-0.135608	99
Es	-0.764628	0.444327	-0.162161	99
Es	-1.546999	0.798280	0.691468	99
Es	-1.165446	1.616275	-0.089127	99
Es	1.566885	-0.139762	-0.768984	99
Es	-1.102626	-1.594213	-0.867859	99
Es	-0.466046	-1.932502	1.495456	99
Es	-0.553050	-1.499919	-0.372824	99
Es	-0.771772	-1.761604	0.305693	99
Es	-1.095699	-2.788900	0.923162	99
Es	1.892719	1.903526	-1.311203	99
Es	1.061115	0.374039	-0.604738	99
Es	2.617061	1.981918	0.344637	99
Es	-1.913788	0.746147	-0.445961	99
Es	2.267483	1.774906	-0.039244	99
Es	-1.629670	-1.740335	1.206904	99
Es	2.463848	1.649622	0.753247	99
Es	1.107512	2.288725	-0.471310	99
Es	2.674291	1.832179	0.307805	99
Es	0.034740	-1.900926	-0.612779	99
Es	-0.987087	-2.054726	0.977564	99
Es	-0.197991	-0.025590	-0.327637	99
Es	1.616281	1.761421	-0.635759	99
47
Properties=species:S:1:pos:R:3:Z:I:1 energy=-309.1437077523465 field_type=dipole dipole="0.000000 0.000000 0.000000" charge=0
C	-0.987090	-2.054740	0.977594	6
C	-0.553040	-1.499951	-0.372866	6
C	-0.197850	-0.025560	-0.327666	6
C	-1.340480	0.900169	-0.003456	6
C	1.061030	0.373989	-0.604726	6
C	1.616130	1.761459	-0.635916	6
O	2.674601	1.832749	0.307814	8
H	-1.151320	-3.134670	0.904414	1
H	-1.924550	-1.601231	1.314684	1
H	-0.224430	-1.878421	1.743554	1
H	-1.354400	-1.653991	-1.106106	1
H	0.300540	-2.091841	-0.727556	1
H	-2.191870	0.690210	-0.659256	1
H	-1.095309	1.955909	-0.131376	1
H	-1.660590	0.762479	1.034334	1
H	1.803151	-0.385331	-0.848706	1
H	0.892000	2.540770	-0.393666	1
H	2.025920	1.976779	-1.627336	1
H	2.307550	1.531219	1.156234	1
Es	-1.913974	0.747445	-0.445528	99
Es	1.569064	-0.140744	-0.769697	99
Es	-1.093155	-2.785321	0.922958	99
Es	-0.771517	-1.761501	0.305550	99
Es	2.450644	1.691962	0.761776	99
Es	-1.340453	0.900135	-0.003463	99
Es	1.893020	1.902275	-1.311468	99
Es	2.674275	1.832413	0.307835	99
Es	1.616278	1.761422	-0.635765	99
Es	-0.987088	-2.054727	0.977566	99
Es	-0.763690	0.444420	-0.162618	99
Es	-1.633116	-1.741541	1.207935	99
Es	-0.553051	-1.499920	-0.372825	99
Es	1.310059	1.069569	-0.619961	99
Es	2.699350	1.675636	0.277776	99
Es	-1.168091	1.614017	-0.088576	99
Es	1.105321	2.289472	-0.470700	99
Es	1.061115	0.374040	-0.604738	99
Es	0.529136	0.167764	-0.136017	99
Es	-1.547531	0.799510	0.691663	99
Es	0.372442	0.213641	-0.787467	99
Es	-1.102776	-1.593013	-0.867200	99
Es	-0.197991	-0.025590	-0.327629	99
Es	-0.465976	-1.933881	1.494654	99
Es	0.037778	-1.900942	-0.613750	99
Es	2.932651	2.035012	0.276033	99
Es	-0.377077	-0.757742	-0.340663	99
Es	2.257093	1.813640	-0.031126	99
47
Properties=species:S:1:pos:R:3:Z:I:1 energy=-309.1437077523465 field_type=dipole dipole="0.000000 0.000000 0.000000" charge=0
C	-0.987090	-2.054740	0.977594	6
C	-0.553040	-1.499951	-0.372866	6
C	-0.197850	-0.025560	-0.327666	6
C	-1.340480	0.900169	-0.003456	6
C	1.061030	0.373989	-0.604726	6
C	1.616130	1.761459	-0.635916	6
O	2.674601	1.832749	0.307814	8
H	-1.151320	-3.134670	0.904414	1
H	-1.924550	-1.601231	1.314684	1
H	-0.224430	-1.878421	1.743554	1
H	-1.354400	-1.653991	-1.106106	1
H	0.300540	-2.091841	-0.727556	1
H	-2.191870	0.690210	-0.659256	1
H	-1.095309	1.955909	-0.131376	1
H	-1.660590	0.762479	1.034334	1
H	1.803151	-0.385331	-0.848706	1
H	0.892000	2.540770	-0.393666	1
H	2.025920	1.976779	-1.627336	1
H	2.307550	1.531219	1.156234	1
Es	1.061115	0.374039	-0.604738	99
Es	-1.546816	0.799583	0.690838	99
Es	-1.914676	0.747176	-0.444961	99
Es	2.939051	2.025961	0.272973	99
Es	-0.987088	-2.054726	0.977564	99
Es	2.449568	1.692279	0.761557	99
Es	-0.197991	-0.025591	-0.327632	99
Es	0.037780	-1.901140	-0.613785	99
Es	0.529084	0.167713	-0.136168	99
Es	1.892885	1.902345	-1.311314	99
Es	-1.633289	-1.741508	1.208037	99
Es	2.693263	1.683796	0.280558	99
Es	2.258126	1.813880	-0.030984	99
Es	-1.092968	-2.785292	0.922952	99
Es	-1.340453	0.900140	-0.003461	99
Es	-0.553051	-1.499919	-0.372824	99
Es	1.309963	1.069541	-0.619914	99
Es	-1.102743	-1.593098	-0.866942	99
Es	2.674091	1.832849	0.307962	99
Es	-0.771279	-1.761369	0.305440	99
Es	-0.377273	-0.757597	-0.340624	99
Es	1.616277	1.761424	-0.635771	99
Es	-0.763530	0.444328	-0.162555	99
Es	-1.168099	1.614354	-0.088360	99
Es	1.105622	2.289505	-0.470756	99
Es	-0.466242	-1.933993	1.494451	99
Es	1.568853	-0.140829	-0.769716	99
Es	0.372559	0.213602	-0.787276	99
47
Properties=species:S:1:pos:R:3:Z:I:1 energy=-309.1437077523465 field_type=dipole dipole="0.000000 0.000000 0.000000" charge=0
C	-0.987090	-2.054740	0.977594	6
C	-0.553040	-1.499951	-0.372866	6
C	-0.197850	-0.025560	-0.327666	6
C	-1.340480	0.900169	-0.003456	6
C	1.061030	0.373989	-0.604726	6
C	1.616130	1.761459	-0.635916	6
O	2.674601	1.832749	0.307814	8
H	-1.151320	-3.134670	0.904414	1
H	-1.924550	-1.601231	1.314684	1
H	-0.224430	-1.878421	1.743554	1
H	-1.354400	-1.653991	-1.106106	1
H	0.300540	-2.091841	-0.727556	1
H	-2.191870	0.690210	-0.659256	1
H	-1.095309	1.955909	-0.131376	1
H	-1.660590	0.762479	1.034334	1
H	1.803151	-0.385331	-0.848706	1
H	0.892000	2.540770	-0.393666	1
H	2.025920	1.976779	-1.627336	1
H	2.307550	1.531219	1.156234	1
Es	-1.167461	1.616377	-0.088236	99
Es	1.568429	-0.141312	-0.769802	99
Es	-0.376907	-0.756912	-0.340835	99
Es	-0.467072	-1.933166	1.493575	99
Es	2.453440	1.673985	0.761433	99
Es	-0.771467	-1.761163	0.305555	99
Es	2.653818	1.807567	0.309278	99
Es	-1.093980	-2.788791	0.922869	99
Es	0.036601	-1.902323	-0.613603	99
Es	1.061116	0.374039	-0.604735	99
Es	-0.197993	-0.025591	-0.327633	99
Es	-0.553051	-1.499918	-0.372824	99
Es	2.261593	1.795186	-0.038058	99
Es	-0.987088	-2.054726	0.977564	99
Es	-1.340452	0.900139	-0.003460	99
Es	-1.546483	0.799086	0.689226	99
Es	1.893008	1.902381	-1.310299	99
Es	1.616285	1.761421	-0.635761	99
Es	0.373034	0.213938	-0.785385	99
Es	2.669241	1.824480	0.307724	99
Es	-0.763777	0.443923	-0.162070	99
Es	2.975799	1.947651	0.251358	99
Es	1.310098	1.069658	-0.620072	99
Es	-1.631427	-1.739410	1.207785	99
Es	1.105698	2.290199	-0.470990	99
Es	-1.914600	0.746627	-0.443879	99
Es	-1.102121	-1.593596	-0.866128	99
Es	0.528456	0.167701	-0.138042	99
47
Properties=species:S:1:pos:R:3:Z:I:1 energy=-309.1437077523465 field_type=dipole dipole="0.000000 0.000000 0.000000" charge=0
C	-0.987090	-2.054740	0.977594	6
C	-0.553040	-1.499951	-0.372866	6
C	-0.197850	-0.025560	-0.327666	6
C	-1.340480	0.900169	-0.003456	6
C	1.061030	0.373989	-0.604726	6
C	1.616130	1.761459	-0.635916	6
O	2.674601	1.832749	0.307814	8
H	-1.151320	-3.134670	0.904414	1
H	-1.924550	-1.601231	1.314684	1
H	-0.224430	-1.878421	1.743554	1
H	-1.354400	-1.653991	-1.106106	1
H	0.300540	-2.091841	-0.727556	1
H	-2.191870	0.690210	-0.659256	1
H	-1.095309	1.955909	-0.131376	1
H	-1.660590	0.762479	1.034334	1
H	1.803151	-0.385331	-0.848706	1
H	0.892000	2.540770	-0.393666	1
H	2.025920	1.976779	-1.627336	1
H	2.307550	1.531219	1.156234	1
Es	1.892890	1.902500	-1.310329	99
Es	-0.197992	-0.025591	-0.327629	99
Es	-0.467207	-1.933250	1.493452	99
Es	1.616278	1.761422	-0.635762	99
Es	1.061115	0.374039	-0.604737	99
Es	0.036750	-1.902249	-0.613733	99
Es	-1.167503	1.616366	-0.088259	99
Es	-0.987088	-2.054726	0.977562	99
Es	-1.102025	-1.593473	-0.866064	99
Es	-0.377097	-0.756955	-0.340697	99
Es	1.568288	-0.141245	-0.769820	99
Es	-1.915339	0.746367	-0.443361	99
Es	2.452194	1.676901	0.761481	99
Es	-0.763691	0.443788	-0.162032	99
Es	-1.093552	-2.788417	0.922879	99
Es	-1.545778	0.799421	0.688661	99
Es	1.105952	2.290080	-0.470965	99
Es	2.261798	1.796315	-0.036948	99
Es	0.372845	0.213877	-0.785369	99
Es	0.528733	0.167657	-0.137888	99
Es	2.661586	1.793026	0.305091	99
Es	-1.340451	0.900139	-0.003460	99
Es	-0.553051	-1.499919	-0.372824	99
Es	2.974452	1.951681	0.251676	99
Es	2.663942	1.830983	0.310288	99
Es	1.309994	1.069660	-0.620051	99
Es	-0.771448	-1.761251	0.305462	99
Es	-1.631857	-1.739694	1.207931	99
47
Properties=species:S:1:pos:R:3:Z:I:1 energy=-309.1437077523465 field_type=dipole dipole="0.000000 0.000000 0.000000" charge=0
C	-0.987090	-2.054740	0.977594	6
C	-0.553040	-1.499951	-0.372866	6
C	-0.197850	-0.025560	-0.327666	6
C	-1.340480	0.900169	-0.003456	6
C	1.061030	0.373989	-0.604726	6
C	1.616130	1.761459	-0.635916	6
O	2.674601	1.832749	0.307814	8
H	-1.151320	-3.134670	0.904414	1
H	-1.924550	-1.601231	1.314684	1
H	-0.224430	-1.878421	1.743554	1
H	-1.354400	-1.653991	-1.106106	1
H	0.300540	-2.091841	-0.727556	1
H	-2.191870	0.690210	-0.659256	1
H	-1.095309	1.955909	-0.131376	1
H	-1.660590	0.762479	1.034334	1
H	1.803151	-0.385331	-0.848706	1
H	0.892000	2.540770	-0.393666	1
H	2.025920	1.976779	-1.627336	1
H	2.307550	1.531219	1.156234	1
Es	1.106110	2.289876	-0.470936	99
Es	2.962521	1.983426	0.259519	99
Es	2.261830	1.803942	-0.034123	99
Es	-1.167971	1.615686	-0.088050	99
Es	-1.916611	0.746186	-0.442862	99
Es	0.372761	0.213722	-0.786009	99
Es	-0.987089	-2.054727	0.977564	99
Es	-1.340452	0.900137	-0.003458	99
Es	-1.633037	-1.740644	1.208207	99
Es	1.309773	1.069567	-0.619819	99
Es	-0.467339	-1.933995	1.493624	99
Es	2.673471	1.833023	0.308181	99
Es	-0.197991	-0.025591	-0.327631	99
Es	1.061116	0.374040	-0.604736	99
Es	1.568480	-0.141124	-0.769767	99
Es	-0.377295	-0.757206	-0.340586	99
Es	-1.544686	0.799931	0.688154	99
Es	2.667945	1.742943	0.296668	99
Es	1.892788	1.902473	-1.310644	99
Es	-0.771045	-1.761066	0.305404	99
Es	2.448301	1.685596	0.761294	99
Es	-0.763461	0.443917	-0.162143	99
Es	1.616279	1.761421	-0.635763	99
Es	0.037429	-1.901936	-0.613843	99
Es	-0.553051	-1.499919	-0.372825	99
Es	-1.092810	-2.786659	0.922766	99
Es	-1.102093	-1.593207	-0.866201	99
Es	0.528865	0.167638	-0.137429	99
47
Properties=species:S:1:pos:R:3:Z:I:1 energy=-309.1437077523465 field_type=dipole dipole="0.000000 0.000000 0.000000" charge=0
C	-0.987090	-2.054740	0.977594	6
C	-0.553040	-1.499951	-0.372866	6
C	-0.197850	-0.025560	-0.327666	6
C	-1.340480	0.900169	-0.003456	6
C	1.061030	0.373989	-0.604726	6
C	1.616130	1.761459	-0.635916	6
O	2.674601	1.832749	0.307814	8
H	-1.151320	-3.134670	0.904414	1
H	-1.924550	-1.601231	1.314684	1
H	-0.224430	-1.878421	1.743554	1
H	-1.354400	-1.653991	-1.106106	1
H	0.300540	-2.091841	-0.727556	1
H	-2.191870	0.690210	-0.659256	1
H	-1.095309	1.955909	-0.131376	1
H	-1.660590	0.762479	1.034334	1
H	1.803151	-0.385331	-0.848706	1
H	0.892000	2.540770	-0.393666	1
H	2.025920	1.976779	-1.627336	1
H	2.307550	1.531219	1.156234	1
Es	2.967887	1.970792	0.256130	99
Es	-0.771043	-1.760946	0.305472	99
Es	2.669508	1.829699	0.308753	99
Es	-0.763537	0.443816	-0.162089	99
Es	-0.197991	-0.025590	-0.327635	99
Es	-0.467530	-1.933976	1.493472	99
Es	2.263556	1.801133	-0.034702	99
Es	1.616280	1.761421	-0.635761	99
Es	-1.544035	0.799934	0.687371	99
Es	1.106344	2.289941	-0.470942	99
Es	-1.633055	-1.740553	1.208224	99
Es	-1.167769	1.616039	-0.087851	99
Es	1.309939	1.069530	-0.619827	99
Es	-1.917223	0.745979	-0.442315	99
Es	2.448039	1.681332	0.760814	99
Es	-0.553050	-1.499920	-0.372824	99
Es	-0.987089	-2.054726	0.977563	99
Es	1.892771	1.902557	-1.310481	99
Es	-1.101972	-1.593279	-0.866105	99
Es	2.665056	1.765968	0.300389	99
Es	1.568105	-0.141218	-0.769756	99
Es	0.372967	0.213825	-0.785858	99
Es	-1.340451	0.900138	-0.003461	99
Es	-0.377368	-0.757063	-0.340535	99
Es	1.061116	0.374040	-0.604738	99
Es	-1.092681	-2.786941	0.922576	99
Es	0.037318	-1.902093	-0.613770	99
Es	0.528645	0.167613	-0.137563	99
47
Properties=species:S:1:pos:R:3:Z:I:1 energy=-309.1437077523465 field_type=dipole dipole="0.000000 0.000000 0.000000" charge=0
C	-0.987090	-2.054740	0.977594	6
C	-0.553040	-1.499951	-0.372866	6
C	-0.197850	-0.025560	-0.327666	6
C	-1.340480	0.900169	-0.003456	6
C	1.061030	0.373989	-0.604726	6
C	1.616130	1.761459	-0.635916	6
O	2.674601	1.832749	0.307814	8
H	-1.151320	-3.134670	0.904414	1
H	-1.924550	-1.601231	1.314684	1
H	-0.224430	-1.878421	1.743554	1
H	-1.354400	-1.653991	-1.106106	1
H	0.300540	-2.091841	-0.727556	1
H	-2.191870	0.690210	-0.659256	1
H	-1.095309	1.955909	-0.131376	1
H	-1.660590	0.762479	1.034334	1
H	1.803151	-0.385331	-0.848706	1
H	0.892000	2.540770	-0.393666	1
H	2.025920	1.976779	-1.627336	1
H	2.307550	1.531219	1.156234	1
Es	-1.543114	0.800217	0.686510	99
Es	-1.633293	-1.740741	1.208193	99
Es	-0.197991	-0.025590	-0.327630	99
Es	-0.770641	-1.760836	0.305408	99
Es	-0.467902	-1.934055	1.493454	99
Es	-1.918135	0.745536	-0.441622	99
Es	2.674242	1.831886	0.307729	99
Es	1.568099	-0.141122	-0.769659	99
Es	1.061117	0.374040	-0.604738	99
Es	0.373000	0.213760	-0.785980	99
Es	-0.377423	-0.757135	-0.340536	99
Es	-1.340451	0.900138	-0.003461	99
Es	-1.167747	1.616152	-0.087815	99
Es	2.446066	1.684131	0.760743	99
Es	2.660639	1.761292	0.301349	99
Es	1.892524	1.902688	-1.310477	99
Es	1.616279	1.761421	-0.635763	99
Es	-0.553050	-1.499919	-0.372823	99
Es	0.528607	0.167640	-0.137562	99
Es	2.968536	1.969498	0.255825	99
Es	-1.102006	-1.593279	-0.866011	99
Es	0.037337	-1.902113	-0.613823	99
Es	-0.763505	0.443758	-0.161989	99
Es	1.106708	2.289765	-0.470978	99
Es	2.264749	1.802225	-0.034406	99
Es	-1.092447	-2.786712	0.922715	99
Es	1.309631	1.069534	-0.619661	99
Es	-0.987089	-2.054727	0.977564	99
47
Properties=species:S:1:pos:R:3:Z:I:1 energy=-309.1437077523465 field_type=dipole dipole="0.000000 0.000000 0.000000" charge=0
C	-0.987090	-2.054740	0.977594	6
C	-0.553040	-1.499951	-0.372866	6
C	-0.197850	-0.025560	-0.327666	6
C	-1.340480	0.900169	-0.003456	6
C	1.061030	0.373989	-0.604726	6
C	1.616130	1.761459	-0.635916	6
O	2.674601	1.832749	0.307814	8
H	-1.151320	-3.134670	0.904414	1
H	-1.924550	-1.601231	1.314684	1
H	-0.224430	-1.878421	1.743554	1
H	-1.354400	-1.653991	-1.106106	1
H	0.300540	-2.091841	-0.727556	1
H	-2.191870	0.690210	-0.659256	1
H	-1.095309	1.955909	-0.131376	1
H	-1.660590	0.762479	1.034334	1
H	1.803151	-0.385331	-0.848706	1
H	0.892000	2.540770	-0.393666	1
H	2.025920	1.976779	-1.627336	1
H	2.307550	1.531219	1.156234	1
Es	2.268259	1.794546	-0.036171	99
Es	-0.553051	-1.499920	-0.372824	99
Es	0.037080	-1.902321	-0.613731	99
Es	1.106852	2.289784	-0.470958	99
Es	-1.167595	1.616447	-0.087741	99
Es	2.659148	1.802717	0.307032	99
Es	-1.092433	-2.787105	0.922591	99
Es	2.446551	1.674592	0.759457	99
Es	0.528658	0.167531	-0.137720	99
Es	-0.377421	-0.756944	-0.340490	99
Es	-0.763453	0.443654	-0.161895	99
Es	-0.987090	-2.054727	0.977562	99
Es	2.663492	1.830491	0.310339	99
Es	2.976719	1.946704	0.250478	99
Es	1.309769	1.069503	-0.619673	99
Es	-0.467868	-1.933909	1.493261	99
Es	1.892532	1.902837	-1.310311	99
Es	1.616281	1.761420	-0.635759	99
Es	-1.633182	-1.740536	1.208221	99
Es	-0.770900	-1.760924	0.305377	99
Es	1.567811	-0.141122	-0.769714	99
Es	-1.101850	-1.593351	-0.865931	99
Es	-0.197991	-0.025590	-0.327630	99
Es	-1.918835	0.745234	-0.440887	99
Es	-1.340450	0.900137	-0.003461	99
Es	1.061116	0.374040	-0.604736	99
Es	0.372961	0.213885	-0.785747	99
Es	-1.542371	0.800379	0.685615	99
47
Properties=species:S:1:pos:R:3:Z:I:1 energy=-309.1437077523465 field_type=dipole dipole="0.000000 0.000000 0.000000" charge=0
C	-0.987090	-2.054740	0.977594	6
C	-0.553040	-1.499951	-0.372866	6
C	-0.197850	-0.025560	-0.327666	6
C	-1.340480	0.900169	-0.003456	6
C	1.061030	0.373989	-0.604726	6
C	1.616130	1.761459	-0.635916	6
O	2.674601	1.832749	0.307814	8
H	-1.151320	-3.134670	0.904414	1
H	-1.924550	-1.601231	1.314684	1
H	-0.224430	-1.878421	1.743554	1
H	-1.354400	-1.653991	-1.106106	1
H	0.300540	-2.091841	-0.727556	1
H	-2.191870	0.690210	-0.659256	1
H	-1.095309	1.955909	-0.131376	1
H	-1.660590	0.762479	1.034334	1
H	1.803151	-0.385331	-0.848706	1
H	0.892000	2.540770	-0.393666	1
H	2.025920	1.976779	-1.627336	1
H	2.307550	1.531219	1.156234	1
Es	1.567671	-0.141103	-0.769663	99
Es	2.269779	1.795373	-0.035592	99
Es	2.658098	1.799166	0.306835	99
Es	-1.167594	1.616457	-0.087742	99
Es	1.061116	0.374040	-0.604737	99
Es	-0.770496	-1.760728	0.305260	99
Es	-0.468034	-1.934126	1.493334	99
Es	2.444703	1.675124	0.758997	99
Es	1.106990	2.289754	-0.471012	99
Es	-1.340450	0.900139	-0.003461	99
Es	1.892419	1.902793	-1.310323	99
Es	-1.102015	-1.593413	-0.865856	99
Es	-1.541461	0.800676	0.684806	99
Es	-0.763419	0.443652	-0.161835	99
Es	-1.633408	-1.740810	1.208279	99
Es	1.616279	1.761421	-0.635761	99
Es	-0.197991	-0.025590	-0.327632	99
Es	2.976394	1.947947	0.250798	99
Es	2.665303	1.831489	0.310044	99
Es	0.373083	0.213878	-0.785867	99
Es	0.528544	0.167510	-0.137659	99
Es	-0.987090	-2.054727	0.977563	99
Es	-0.377644	-0.757009	-0.340448	99
Es	-1.092287	-2.786717	0.922552	99
Es	1.309785	1.069534	-0.619603	99
Es	0.037250	-1.902226	-0.613797	99
Es	-0.553051	-1.499919	-0.372824	99
Es	-1.919733	0.744865	-0.440100	99
47
Properties=species:S:1:pos:R:3:Z:I:1 energy=-309.1437077523465 field_type=dipole dipole="0.000000 0.000000 0.000000" charge=0
C	-0.987090	-2.054740	0.977594	6
C	-0.553040	-1.499951	-0.372866	6
C	-0.197850	-0.025560	-0.327666	6
C	-1.340480	0.900169	-0.003456	6
C	1.061030	0.373989	-0.604726	6
C	1.616130	1.761459	-0.635916	6
O	2.674601	1.832749	0.307814	8
H	-1.151320	-3.134670	0.904414	1
H	-1.924550	-1.601231	1.314684	1
H	-0.224430	-1.878421	1.743554	1
H	-1.354400	-1.653991	-1.106106	1
H	0.300540	-2.091841	-0.727556	1
H	-2.191870	0.690210	-0.659256	1
H	-1.095309	1.955909	-0.131376	1
H	-1.660590	0.762479	1.034334	1
H	1.803151	-0.385331	-0.848706	1
H	0.892000	2.540770	-0.393666	1
H	2.025920	1.976779	-1.627336	1
H	2.307550	1.531219	1.156234	1
Es	-0.468393	-1.934194	1.493276	99
Es	2.666276	1.817773	0.307428	99
Es	-0.770227	-1.760734	0.305271	99
Es	1.892264	1.902838	-1.310251	99
Es	1.616279	1.761422	-0.635763	99
Es	1.107256	2.289675	-0.471057	99
Es	-0.987090	-2.054725	0.977562	99
Es	2.443952	1.674005	0.758594	99
Es	1.061117	0.374040	-0.604734	99
Es	-0.377519	-0.756988	-0.340477	99
Es	2.978080	1.942759	0.249393	99
Es	-1.167449	1.616551	-0.087523	99
Es	-1.633558	-1.740788	1.208180	99
Es	0.372989	0.213893	-0.785997	99
Es	-1.540649	0.800831	0.683848	99
Es	1.309694	1.069491	-0.619603	99
Es	0.528636	0.167541	-0.137487	99
Es	1.567511	-0.141031	-0.769633	99
Es	-1.101946	-1.593371	-0.865894	99
Es	-0.763466	0.443553	-0.161818	99
Es	0.037124	-1.902343	-0.613716	99
Es	-1.920578	0.744621	-0.439400	99
Es	-0.553050	-1.499919	-0.372823	99
Es	2.271282	1.794214	-0.035499	99
Es	-1.340451	0.900139	-0.003461	99
Es	-0.197991	-0.025591	-0.327628	99
Es	-1.092168	-2.786627	0.922707	99
Es	2.654814	1.820417	0.311059	99
47
Properties=species:S:1:pos:R:3:Z:I:1 energy=-309.1437077523465 field_type=dipole dipole="0.000000 0.000000 0.000000" charge=0
C	-0.987090	-2.054740	0.977594	6
C	-0.553040	-1.499951	-0.372866	6
C	-0.197850	-0.025560	-0.327666	6
C	-1.340480	0.900169	-0.003456	6
C	1.061030	0.373989	-0.604726	6
C	1.616130	1.761459	-0.635916	6
O	2.674601	1.832749	0.307814	8
H	-1.151320	-3.134670	0.904414	1
H	-1.924550	-1.601231	1.314684	1
H	-0.224430	-1.878421	1.743554	1
H	-1.354400	-1.653991	-1.106106	1
H	0.300540	-2.091841	-0.727556	1
H	-2.191870	0.690210	-0.659256	1
H	-1.095309	1.955909	-0.131376	1
H	-1.660590	0.762479	1.034334	1
H	1.803151	-0.385331	-0.848706	1
H	0.892000	2.540770	-0.393666	1
H	2.025920	1.976779	-1.627336	1
H	2.307550	1.531219	1.156234	1
Es	1.309616	1.069464	-0.619471	99