41
Properties=species:S:1:pos:R:3:Z:I:1 energy=-306.7954063324387 field_type=dipole dipole="0.000000 0.000000 0.000000" charge=0
C	-2.169635	0.072984	-0.517181	6
C	-0.856965	-0.371686	0.063209	6
C	-0.726215	-1.552946	0.690009	6
C	0.256095	0.627244	-0.077841	6
O	0.006065	1.806824	-0.311091	8
C	1.659745	0.137854	0.024789	6
C	2.678965	1.006614	0.043109	6
H	-2.539075	0.963504	0.002119	1
H	-2.938855	-0.702156	-0.432141	1
H	-2.057105	0.308964	-1.580641	1
H	-1.571755	-2.230286	0.777079	1
H	0.191565	-1.882066	1.163139	1
H	1.849456	-0.926036	0.057989	1
H	2.512386	2.079874	-0.005371	1
H	3.705325	0.661314	0.102819	1
Es	-0.726201	-1.553022	0.690063	99
Es	2.679054	1.006660	0.043123	99
Es	2.580794	1.719101	0.013644	99
Es	-0.301529	1.865282	-0.329406	99
Es	-2.084029	0.226569	-1.230280	99
Es	-1.295149	-2.011222	0.751460	99
Es	0.088114	1.424884	0.019428	99
Es	-2.408415	0.661842	-0.163205	99
Es	2.100269	0.562692	0.352291	99
Es	1.776886	-0.583856	0.050567	99
Es	3.373311	0.776629	0.083905	99
Es	-0.856951	-0.371574	0.063160	99
Es	-0.679731	-1.090030	0.091806	99
Es	2.136675	0.542207	-0.282097	99
Es	-2.169577	0.072947	-0.517157	99
Es	0.102113	1.335489	-0.472483	99
Es	1.659635	0.137811	0.024798	99
Es	-0.103740	-1.776495	1.005425	99
Es	-0.842101	-0.797492	0.646446	99
Es	-0.295214	0.108762	-0.004964	99
Es	0.267726	1.982633	-0.336257	99
Es	0.959006	0.360610	-0.018197	99
Es	0.256099	0.627193	-0.077829	99
Es	-1.504434	-0.155543	-0.225230	99
Es	0.006131	1.806524	-0.311027	99
Es	-2.685567	-0.463704	-0.453746	99
41
Properties=species:S:1:pos:R:3:Z:I:1 energy=-306.7954063324387 field_type=dipole dipole="0.000000 0.000000 0.000000" charge=0
C	-2.169635	0.072984	-0.517181	6
C	-0.856965	-0.371686	0.063209	6
C	-0.726215	-1.552946	0.690009	6
C	0.256095	0.627244	-0.077841	6
O	0.006065	1.806824	-0.311091	8
C	1.659745	0.137854	0.024789	6
C	2.678965	1.006614	0.043109	6
H	-2.539075	0.963504	0.002119	1
H	-2.938855	-0.702156	-0.432141	1
H	-2.057105	0.308964	-1.580641	1
H	-1.571755	-2.230286	0.777079	1
H	0.191565	-1.882066	1.163139	1
H	1.849456	-0.926036	0.057989	1
H	2.512386	2.079874	-0.005371	1
H	3.705325	0.661314	0.102819	1
Es	-2.169578	0.072948	-0.517155	99
Es	-0.680935	-1.089376	0.094794	99
Es	2.580494	1.722282	0.010481	99
Es	-0.726200	-1.553021	0.690065	99
Es	0.960129	0.362665	-0.016632	99
Es	-0.103484	-1.776393	1.002769	99
Es	2.138397	0.541026	-0.277978	99
Es	1.659630	0.137808	0.024795	99
Es	-1.295781	-2.013314	0.749992	99
Es	-0.295918	1.845186	-0.329486	99
Es	0.268087	2.001676	-0.344521	99
Es	0.085876	1.422734	0.018422	99
Es	-2.083640	0.226969	-1.226848	99
Es	0.099447	1.339376	-0.465042	99
Es	-0.294303	0.109935	-0.002433	99
Es	1.777703	-0.586651	0.055561	99
Es	-1.503285	-0.154450	-0.225220	99
Es	2.098365	0.562498	0.346435	99
Es	-2.406788	0.662426	-0.165051	99
Es	-0.856948	-0.371575	0.063149	99
Es	3.370934	0.775583	0.083160	99
Es	-0.842147	-0.797797	0.644854	99
Es	0.256099	0.627193	-0.077820	99
Es	-2.688182	-0.466014	-0.454143	99
Es	2.679050	1.006658	0.043116	99
Es	0.006149	1.806525	-0.311030	99
41
Properties=species:S:1:pos:R:3:Z:I:1 energy=-306.7954063324387 field_type=dipole dipole="0.000000 0.000000 0.000000" charge=0
C	-2.169635	0.072984	-0.517181	6
C	-0.856965	-0.371686	0.063209	6
C	-0.726215	-1.552946	0.690009	6
C	0.256095	0.627244	-0.077841	6
O	0.006065	1.806824	-0.311091	8
C	1.659745	0.137854	0.024789	6
C	2.678965	1.006614	0.043109	6
H	-2.539075	0.963504	0.002119	1
H	-2.938855	-0.702156	-0.432141	1
H	-2.057105	0.308964	-1.580641	1
H	-1.571755	-2.230286	0.777079	1
H	0.191565	-1.882066	1.163139	1
H	1.849456	-0.926036	0.057989	1
H	2.512386	2.079874	-0.005371	1
H	3.705325	0.661314	0.102819	1
Es	1.778155	-0.587675	0.059030	99
Es	-0.856952	-0.371566	0.063166	99
Es	-0.681820	-1.089042	0.096810	99
Es	0.006094	1.806613	-0.311047	99
Es	-0.287167	1.822480	-0.327292	99
Es	3.369679	0.774811	0.083069	99
Es	-1.295920	-2.014503	0.749170	99
Es	2.096112	0.561753	0.342074	99
Es	-2.169578	0.072948	-0.517157	99
Es	-0.103031	-1.776146	1.001121	99
Es	-1.502731	-0.153881	-0.224783	99
Es	2.679049	1.006657	0.043104	99
Es	-2.689609	-0.467230	-0.454748	99
Es	-0.294019	0.110747	-0.000958	99
Es	0.256100	0.627191	-0.077820	99
Es	2.580194	1.723545	0.008239	99
Es	2.140303	0.540685	-0.274568	99
Es	0.100831	1.345008	-0.460778	99
Es	0.087266	1.419620	0.017849	99
Es	0.960842	0.364185	-0.016072	99
Es	-2.406323	0.664078	-0.167423	99
Es	0.257330	2.022265	-0.351643	99
Es	-2.083280	0.225618	-1.223262	99
Es	-0.726200	-1.553028	0.690061	99
Es	-0.841779	-0.798042	0.643289	99
Es	1.659629	0.137807	0.024800	99
41
Properties=species:S:1:pos:R:3:Z:I:1 energy=-306.7954063324387 field_type=dipole dipole="0.000000 0.000000 0.000000" charge=0
C	-2.169635	0.072984	-0.517181	6
C	-0.856965	-0.371686	0.063209	6
C	-0.726215	-1.552946	0.690009	6
C	0.256095	0.627244	-0.077841	6
O	0.006065	1.806824	-0.311091	8
C	1.659745	0.137854	0.024789	6
C	2.678965	1.006614	0.043109	6
H	-2.539075	0.963504	0.002119	1
H	-2.938855	-0.702156	-0.432141	1
H	-2.057105	0.308964	-1.580641	1
H	-1.571755	-2.230286	0.777079	1
H	0.191565	-1.882066	1.163139	1
H	1.849456	-0.926036	0.057989	1
H	2.512386	2.079874	-0.005371	1
H	3.705325	0.661314	0.102819	1
Es	1.659630	0.137808	0.024803	99
Es	-1.295963	-2.015299	0.748512	99
Es	0.961282	0.365324	-0.015416	99
Es	-0.278004	1.805094	-0.325409	99
Es	-2.083033	0.222993	-1.219148	99
Es	3.368663	0.774328	0.083010	99
Es	-0.102658	-1.775944	0.999949	99
Es	2.141959	0.540886	-0.272110	99
Es	0.244514	2.038099	-0.355635	99
Es	-0.856952	-0.371569	0.063160	99
Es	2.094219	0.560602	0.338850	99
Es	1.778440	-0.588103	0.061129	99
Es	-0.841297	-0.797953	0.641872	99
Es	-0.726199	-1.553030	0.690056	99
Es	0.100480	1.362779	-0.453140	99
Es	0.006205	1.806476	-0.311016	99
Es	2.580099	1.724241	0.006941	99
Es	0.091746	1.403783	0.011196	99
Es	-2.169577	0.072949	-0.517160	99
Es	2.679050	1.006658	0.043111	99
Es	-0.682859	-1.089022	0.098714	99
Es	0.256101	0.627192	-0.077817	99
Es	-2.406394	0.666806	-0.170448	99
Es	-0.293757	0.111177	0.000238	99
Es	-1.502305	-0.153151	-0.224840	99
Es	-2.690218	-0.468226	-0.455165	99
41
Properties=species:S:1:pos:R:3:Z:I:1 energy=-306.7954063324387 field_type=dipole dipole="0.000000 0.000000 0.000000" charge=0
C	-2.169635	0.072984	-0.517181	6
C	-0.856965	-0.371686	0.063209	6
C	-0.726215	-1.552946	0.690009	6
C	0.256095	0.627244	-0.077841	6
O	0.006065	1.806824	-0.311091	8
C	1.659745	0.137854	0.024789	6
C	2.678965	1.006614	0.043109	6
H	-2.539075	0.963504	0.002119	1
H	-2.938855	-0.702156	-0.432141	1
H	-2.057105	0.308964	-1.580641	1
H	-1.571755	-2.230286	0.777079	1
H	0.191565	-1.882066	1.163139	1
H	1.849456	-0.926036	0.057989	1
H	2.512386	2.079874	-0.005371	1
H	3.705325	0.661314	0.102819	1
Es	0.256100	0.627191	-0.077818	99
Es	-0.266139	1.790298	-0.324427	99
Es	3.368046	0.774107	0.082930	99
Es	0.096369	1.385338	-0.004587	99
Es	2.142903	0.540803	-0.270566	99
Es	-0.102555	-1.775637	0.999301	99
Es	0.098328	1.383234	-0.434451	99
Es	-2.690604	-0.468754	-0.455303	99
Es	1.659629	0.137807	0.024803	99
Es	0.230588	2.051053	-0.360078	99
Es	-2.082745	0.219299	-1.214117	99
Es	-0.856955	-0.371563	0.063181	99
Es	-2.169578	0.072948	-0.517157	99
Es	2.580107	1.724513	0.006076	99
Es	1.778627	-0.588171	0.062739	99
Es	2.679049	1.006658	0.043113	99
Es	-0.683481	-1.089105	0.099734	99
Es	-2.406537	0.670388	-0.175062	99
Es	-0.840903	-0.797862	0.641056	99
Es	2.092896	0.560121	0.337335	99
Es	0.961630	0.365988	-0.015749	99
Es	-1.295930	-2.015833	0.748377	99
Es	-1.501950	-0.152748	-0.224769	99
Es	0.006182	1.806486	-0.311022	99
Es	-0.293702	0.111367	0.000635	99
Es	-0.726199	-1.553030	0.690059	99
41
Properties=species:S:1:pos:R:3:Z:I:1 energy=-306.7954063324387 field_type=dipole dipole="0.000000 0.000000 0.000000" charge=0
C	-2.169635	0.072984	-0.517181	6
C	-0.856965	-0.371686	0.063209	6
C	-0.726215	-1.552946	0.690009	6
C	0.256095	0.627244	-0.077841	6
O	0.006065	1.806824	-0.311091	8
C	1.659745	0.137854	0.024789	6
C	2.678965	1.006614	0.043109	6
H	-2.539075	0.963504	0.002119	1
H	-2.938855	-0.702156	-0.432141	1
H	-2.057105	0.308964	-1.580641	1
H	-1.571755	-2.230286	0.777079	1
H	0.191565	-1.882066	1.163139	1
H	1.849456	-0.926036	0.057989	1
H	2.512386	2.079874	-0.005371	1
H	3.705325	0.661314	0.102819	1
Es	-2.690854	-0.468962	-0.455079	99
Es	0.095206	1.400382	-0.411498	99
Es	2.091603	0.559595	0.336543	99
Es	1.778555	-0.588219	0.063672	99
Es	2.580299	1.724642	0.005344	99
Es	1.659628	0.137809	0.024801	99
Es	-0.293656	0.111492	0.000875	99
Es	2.143875	0.540917	-0.270480	99
Es	-0.726199	-1.553030	0.690059	99
Es	-2.082508	0.214920	-1.207588	99
Es	-2.406339	0.674591	-0.181859	99
Es	-1.295958	-2.016041	0.748389	99
Es	-2.169581	0.072948	-0.517160	99
Es	-0.102753	-1.775364	0.999476	99
Es	-0.856950	-0.371570	0.063157	99
Es	0.098919	1.369022	-0.025196	99
Es	0.256100	0.627192	-0.077818	99
Es	2.679050	1.006658	0.043111	99
Es	0.223044	2.056653	-0.362968	99
Es	0.006219	1.806497	-0.311024	99
Es	-1.501771	-0.152614	-0.225020	99
Es	-0.684156	-1.089345	0.100955	99
Es	0.962148	0.366131	-0.015179	99
Es	3.367309	0.774280	0.083236	99
Es	-0.257683	1.783932	-0.324561	99
Es	-0.840374	-0.797619	0.640044	99
41
Properties=species:S:1:pos:R:3:Z:I:1 energy=-306.7954063324387 field_type=dipole dipole="0.000000 0.000000 0.000000" charge=0
C	-2.169635	0.072984	-0.517181	6
C	-0.856965	-0.371686	0.063209	6
C	-0.726215	-1.552946	0.690009	6
C	0.256095	0.627244	-0.077841	6
O	0.006065	1.806824	-0.311091	8
C	1.659745	0.137854	0.024789	6
C	2.678965	1.006614	0.043109	6
H	-2.539075	0.963504	0.002119	1
H	-2.938855	-0.702156	-0.432141	1
H	-2.057105	0.308964	-1.580641	1
H	-1.571755	-2.230286	0.777079	1
H	0.191565	-1.882066	1.163139	1
H	1.849456	-0.926036	0.057989	1
H	2.512386	2.079874	-0.005371	1
H	3.705325	0.661314	0.102819	1
Es	2.091500	0.559494	0.336662	99
Es	-0.249335	1.778902	-0.324330	99
Es	-2.405635	0.679268	-0.193189	99
Es	1.778382	-0.588136	0.064664	99
Es	-0.726199	-1.553029	0.690059	99
Es	-0.683893	-1.089192	0.100551	99
Es	-2.690948	-0.469074	-0.454629	99
Es	0.094271	1.406007	-0.402012	99
Es	-1.295954	-2.016134	0.748802	99
Es	2.679049	1.006657	0.043110	99
Es	2.143845	0.540606	-0.270646	99
Es	-0.840763	-0.797797	0.640490	99
Es	0.006229	1.806497	-0.311023	99
Es	1.659630	0.137808	0.024812	99
Es	0.216196	2.060979	-0.366345	99
Es	3.366739	0.774432	0.082912	99
Es	-2.082991	0.209934	-1.196914	99
Es	-0.102920	-1.775012	0.999780	99
Es	0.962393	0.366366	-0.015050	99
Es	-0.856952	-0.371568	0.063162	99
Es	-0.293509	0.111341	0.000474	99
Es	0.098654	1.364180	-0.031899	99
Es	-1.501646	-0.152456	-0.225035	99
Es	2.580511	1.724687	0.004797	99
Es	-2.169579	0.072948	-0.517158	99
Es	0.256100	0.627193	-0.077811	99
41
Properties=species:S:1:pos:R:3:Z:I:1 energy=-306.7954063324387 field_type=dipole dipole="0.000000 0.000000 0.000000" charge=0
C	-2.169635	0.072984	-0.517181	6
C	-0.856965	-0.371686	0.063209	6
C	-0.726215	-1.552946	0.690009	6
C	0.256095	0.627244	-0.077841	6
O	0.006065	1.806824	-0.311091	8
C	1.659745	0.137854	0.024789	6
C	2.678965	1.006614	0.043109	6
H	-2.539075	0.963504	0.002119	1
H	-2.938855	-0.702156	-0.432141	1
H	-2.057105	0.308964	-1.580641	1
H	-1.571755	-2.230286	0.777079	1
H	0.191565	-1.882066	1.163139	1
H	1.849456	-0.926036	0.057989	1
H	2.512386	2.079874	-0.005371	1
H	3.705325	0.661314	0.102819	1
Es	2.089646	0.558697	0.336133	99
Es	0.098115	1.358941	-0.040010	99
Es	-0.726199	-1.553032	0.690054	99
Es	0.962687	0.366353	-0.015139	99
Es	0.006204	1.806493	-0.311023	99
Es	-0.242001	1.774981	-0.324572	99
Es	0.256100	0.627194	-0.077809	99
Es	2.580775	1.724754	0.004446	99
Es	2.145448	0.541285	-0.269948	99
Es	2.679050	1.006658	0.043114	99
Es	-0.684859	-1.089372	0.101917	99
Es	0.093503	1.411763	-0.392009	99
Es	-1.501544	-0.152296	-0.225038	99
Es	-2.690973	-0.469160	-0.454410	99
Es	-2.169580	0.072950	-0.517159	99
Es	0.210409	2.064407	-0.368416	99
Es	-2.083506	0.207637	-1.189841	99
Es	-0.839921	-0.797598	0.639366	99
Es	-0.293458	0.111290	0.000348	99
Es	-0.103048	-1.774806	0.999834	99
Es	3.366244	0.774451	0.082738	99
Es	-2.404908	0.681362	-0.200733	99
Es	-1.295951	-2.016229	0.749073	99
Es	-0.856950	-0.371569	0.063158	99
Es	1.778263	-0.588063	0.065359	99
Es	1.659630	0.137807	0.024802	99
41
Properties=species:S:1:pos:R:3:Z:I:1 energy=-306.7954063324387 field_type=dipole dipole="0.000000 0.000000 0.000000" charge=0
C	-2.169635	0.072984	-0.517181	6
C	-0.856965	-0.371686	0.063209	6
C	-0.726215	-1.552946	0.690009	6
C	0.256095	0.627244	-0.077841	6
O	0.006065	1.806824	-0.311091	8
C	1.659745	0.137854	0.024789	6
C	2.678965	1.006614	0.043109	6
H	-2.539075	0.963504	0.002119	1
H	-2.938855	-0.702156	-0.432141	1
H	-2.057105	0.308964	-1.580641	1
H	-1.571755	-2.230286	0.777079	1
H	0.191565	-1.882066	1.163139	1
H	1.849456	-0.926036	0.057989	1
H	2.512386	2.079874	-0.005371	1
H	3.705325	0.661314	0.102819	1
Es	1.778157	-0.587988	0.065854	99
Es	0.203394	2.067873	-0.371196	99
Es	-0.685655	-1.089321	0.103153	99
Es	2.580915	1.724739	0.004118	99
Es	-1.295972	-2.016303	0.749387	99
Es	3.365856	0.774686	0.082509	99
Es	-2.403615	0.683488	-0.210458	99
Es	-0.235903	1.770824	-0.323347	99
Es	2.145948	0.541485	-0.270162	99
Es	-2.169579	0.072948	-0.517159	99
Es	2.089110	0.558297	0.336103	99
Es	-2.084508	0.205403	-1.180500	99
Es	-0.839189	-0.797658	0.638175	99
Es	0.093864	1.410891	-0.393537	99
Es	0.256100	0.627195	-0.077809	99
Es	-0.103215	-1.774584	0.999937	99
Es	-1.501605	-0.152297	-0.225074	99
Es	1.659629	0.137809	0.024820	99
Es	2.679051	1.006658	0.043107	99
Es	0.098730	1.360457	-0.037208	99
Es	0.006254	1.806496	-0.311023	99
Es	0.962898	0.366375	-0.014751	99
Es	-0.856950	-0.371569	0.063157	99
Es	-0.726199	-1.553030	0.690060	99
Es	-2.690977	-0.469243	-0.454107	99
Es	-0.293363	0.111266	0.000185	99
41
Properties=species:S:1:pos:R:3:Z:I:1 energy=-306.7954063324387 field_type=dipole dipole="0.000000 0.000000 0.000000" charge=0
C	-2.169635	0.072984	-0.517181	6
C	-0.856965	-0.371686	0.063209	6
C	-0.726215	-1.552946	0.690009	6
C	0.256095	0.627244	-0.077841	6
O	0.006065	1.806824	-0.311091	8
C	1.659745	0.137854	0.024789	6
C	2.678965	1.006614	0.043109	6
H	-2.539075	0.963504	0.002119	1
H	-2.938855	-0.702156	-0.432141	1
H	-2.057105	0.308964	-1.580641	1
H	-1.571755	-2.230286	0.777079	1
H	0.191565	-1.882066	1.163139	1
H	1.849456	-0.926036	0.057989	1
H	2.512386	2.079874	-0.005371	1
H	3.705325	0.661314	0.102819	1
Es	-1.295916	-2.016389	0.749553	99
Es	0.201382	2.068571	-0.372910	99
Es	-0.685445	-1.089360	0.102813	99
Es	1.778086	-0.587973	0.066186	99
Es	2.581010	1.724737	0.003766	99
Es	2.088779	0.558165	0.336376	99
Es	-0.726199	-1.553030	0.690058	99
Es	-2.085496	0.204002	-1.172474	99
Es	-0.103445	-1.774378	1.000169	99
Es	-2.402358	0.684786	-0.218887	99
Es	-2.169581	0.072948	-0.517159	99
Es	-0.293327	0.111196	-0.000059	99
Es	-0.839466	-0.797601	0.638667	99
Es	-2.690943	-0.469327	-0.453823	99
Es	1.659628	0.137808	0.024796	99
Es	3.365486	0.774836	0.082337	99
Es	0.098276	1.360122	-0.037381	99
Es	2.679051	1.006658	0.043108	99
Es	2.146120	0.541594	-0.270267	99
Es	-0.232268	1.770696	-0.321667	99
Es	0.093021	1.410746	-0.393573	99
Es	0.256100	0.627195	-0.077809	99
Es	0.963141	0.366231	-0.014603	99
Es	-1.501628	-0.152210	-0.225126	99
Es	-0.856948	-0.371571	0.063154	99
Es	0.006116	1.806448	-0.311011	99
41
Properties=species:S:1:pos:R:3:Z:I:1 energy=-306.7954063324387 field_type=dipole dipole="0.000000 0.000000 0.000000" charge=0
C	-2.169635	0.072984	-0.517181	6
C	-0.856965	-0.371686	0.063209	6
C	-0.726215	-1.552946	0.690009	6
C	0.256095	0.627244	-0.077841	6
O	0.006065	1.806824	-0.311091	8
C	1.659745	0.137854	0.024789	6
C	2.678965	1.006614	0.043109	6
H	-2.539075	0.963504	0.002119	1
H	-2.938855	-0.702156	-0.432141	1
H	-2.057105	0.308964	-1.580641	1
H	-1.571755	-2.230286	0.777079	1
H	0.191565	-1.882066	1.163139	1
H	1.849456	-0.926036	0.057989	1
H	2.512386	2.079874	-0.005371	1
H	3.705325	0.661314	0.102819	1
Es	3.365208	0.774985	0.082103	99
Es	0.197724	2.070292	-0.374410	99
Es	-1.501812	-0.152148	-0.225120	99
Es	1.778017	-0.587928	0.066474	99
Es	-0.856951	-0.371568	0.063160	99
Es	-0.227924	1.768760	-0.321132	99
Es	2.089202	0.558122	0.336612	99
Es	-0.293309	0.111183	-0.000206	99
Es	-0.684828	-1.089374	0.101772	99
Es	0.256099	0.627194	-0.077809	99
Es	0.097152	1.361985	-0.033586	99
Es	-2.086732	0.202912	-1.163932	99
Es	-1.295886	-2.016444	0.749709	99
Es	-0.103534	-1.774234	1.000261	99
Es	0.093482	1.409063	-0.396539	99
Es	2.581071	1.724750	0.003628	99
Es	-0.840115	-0.797586	0.639744	99
Es	-2.169581	0.072949	-0.517157	99
Es	-0.726199	-1.553030	0.690059	99
Es	0.006207	1.806509	-0.311026	99
Es	1.659629	0.137808	0.024812	99
Es	2.145671	0.541477	-0.270951	99
Es	0.963289	0.366214	-0.014020	99
Es	-2.690865	-0.469411	-0.453442	99
Es	2.679049	1.006657	0.043103	99
Es	-2.400891	0.685759	-0.227877	99
41
Properties=species:S:1:pos:R:3:Z:I:1 energy=-306.7954063324387 field_type=dipole dipole="0.000000 0.000000 0.000000" charge=0
C	-2.169635	0.072984	-0.517181	6
C	-0.856965	-0.371686	0.063209	6
C	-0.726215	-1.552946	0.690009	6
C	0.256095	0.627244	-0.077841	6
O	0.006065	1.806824	-0.311091	8
C	1.659745	0.137854	0.024789	6
C	2.678965	1.006614	0.043109	6
H	-2.539075	0.963504	0.002119	1
H	-2.938855	-0.702156	-0.432141	1
H	-2.057105	0.308964	-1.580641	1
H	-1.571755	-2.230286	0.777079	1
H	0.191565	-1.882066	1.163139	1
H	1.849456	-0.926036	0.057989	1
H	2.512386	2.079874	-0.005371	1
H	3.705325	0.661314	0.102819	1
Es	-0.103714	-1.774111	1.000352	99
Es	2.088863	0.558093	0.336734	99
Es	-2.087077	0.202704	-1.161176	99
Es	-2.690960	-0.469417	-0.453497	99
Es	-1.295870	-2.016470	0.749942	99
Es	-0.840487	-0.797605	0.640371	99
Es	-0.856951	-0.371568	0.063161	99
Es	0.006304	1.806475	-0.311019	99
Es	-0.223024	1.766774	-0.321022	99
Es	-0.684384	-1.089419	0.100995	99
Es	1.777927	-0.587869	0.066772	99
Es	0.963388	0.366213	-0.014215	99
Es	0.097098	1.357274	-0.041558	99
Es	-0.726199	-1.553030	0.690058	99
Es	-0.293297	0.111166	-0.000208	99
Es	-1.501734	-0.152114	-0.225033	99
Es	0.092640	1.413857	-0.387932	99
Es	2.581123	1.724726	0.003449	99
Es	3.365010	0.775160	0.082214	99
Es	0.256099	0.627197	-0.077802	99
Es	-2.400408	0.685899	-0.230729	99
Es	2.146022	0.541350	-0.271059	99
Es	0.193705	2.072201	-0.375328	99
Es	1.659628	0.137808	0.024809	99
Es	2.679050	1.006658	0.043115	99
Es	-2.169580	0.072948	-0.517158	99
41
Properties=species:S:1:pos:R:3:Z:I:1 energy=-306.7954063324387 field_type=dipole dipole="0.000000 0.000000 0.000000" charge=0
C	-2.169635	0.072984	-0.517181	6
C	-0.856965	-0.371686	0.063209	6
C	-0.726215	-1.552946	0.690009	6
C	0.256095	0.627244	-0.077841	6
O	0.006065	1.806824	-0.311091	8
C	1.659745	0.137854	0.024789	6
C	2.678965	1.006614	0.043109	6
H	-2.539075	0.963504	0.002119	1
H	-2.938855	-0.702156	-0.432141	1
H	-2.057105	0.308964	-1.580641	1
H	-1.571755	-2.230286	0.777079	1
H	0.191565	-1.882066	1.163139	1
H	1.849456	-0.926036	0.057989	1
H	2.512386	2.079874	-0.005371	1
H	3.705325	0.661314	0.102819	1
Es	1.659619	0.137811	0.024829	99
Es	0.963613	0.366117	-0.013768	99
Es	-2.169579	0.072948	-0.517158	99
Es	-0.293321	0.111173	-0.000319	99
Es	-2.690823	-0.469499	-0.453236	99
Es	1.777834	-0.587879	0.066881	99
Es	-0.221087	1.766289	-0.320327	99
Es	0.256099	0.627194	-0.077809	99
Es	3.364657	0.775140	0.081920	99
Es	0.006249	1.806498	-0.311023	99
Es	-1.501748	-0.152157	-0.225402	99
Es	-2.087786	0.202368	-1.157246	99
Es	-0.839590	-0.797570	0.638904	99
Es	2.581381	1.724790	0.003371	99
Es	-0.685411	-1.089415	0.102622	99
Es	-1.295832	-2.016467	0.750050	99
Es	-2.399641	0.686286	-0.234720	99
Es	-0.856952	-0.371566	0.063164	99
Es	2.088905	0.557928	0.336868	99
Es	0.096957	1.357465	-0.041081	99
Es	-0.726200	-1.553029	0.690060	99
Es	0.092474	1.413641	-0.388304	99
Es	-0.103771	-1.774062	1.000419	99
Es	2.145827	0.541514	-0.271314	99
Es	0.192250	2.072721	-0.376258	99
Es	2.679050	1.006658	0.043110	99
41
Properties=species:S:1:pos:R:3:Z:I:1 energy=-306.7954063324387 field_type=dipole dipole="0.000000 0.000000 0.000000" charge=0
C	-2.169635	0.072984	-0.517181	6
C	-0.856965	-0.371686	0.063209	6
C	-0.726215	-1.552946	0.690009	6
C	0.256095	0.627244	-0.077841	6
O	0.006065	1.806824	-0.311091	8
C	1.659745	0.137854	0.024789	6
C	2.678965	1.006614	0.043109	6
H	-2.539075	0.963504	0.002119	1
H	-2.938855	-0.702156	-0.432141	1
H	-2.057105	0.308964	-1.580641	1
H	-1.571755	-2.230286	0.777079	1
H	0.191565	-1.882066	1.163139	1
H	1.849456	-0.926036	0.057989	1
H	2.512386	2.079874	-0.005371	1
H	3.705325	0.661314	0.102819	1
Es	2.581325	1.724755	0.003186	99
Es	2.679049	1.006658	0.043109	99
Es	-0.103868	-1.773965	1.000381	99
Es	-2.088613	0.202052	-1.152064	99
Es	0.006205	1.806481	-0.311022	99
Es	-0.856951	-0.371569	0.063160	99
Es	-0.838973	-0.797631	0.637920	99
Es	0.963718	0.366094	-0.013493	99
Es	0.092901	1.410057	-0.394784	99
Es	3.364574	0.775224	0.081920	99
Es	-0.686062	-1.089346	0.103656	99
Es	2.088150	0.557462	0.336352	99
Es	0.096004	1.360872	-0.034683	99
Es	-0.293275	0.111146	-0.000433	99
Es	2.146516	0.541966	-0.271075	99
Es	1.659628	0.137807	0.024811	99
Es	0.190432	2.073405	-0.377106	99
Es	-2.398805	0.686505	-0.240181	99
Es	-0.218647	1.765871	-0.319397	99
Es	-2.690736	-0.469536	-0.453112	99
Es	-1.295782	-2.016562	0.750130	99
Es	-1.501727	-0.152083	-0.225146	99
Es	-0.726199	-1.553030	0.690058	99
Es	1.777789	-0.587876	0.067015	99
Es	0.256099	0.627195	-0.077808	99
Es	-2.169579	0.072948	-0.517158	99
41
Properties=species:S:1:pos:R:3:Z:I:1 energy=-306.7954063324387 field_type=dipole dipole="0.000000 0.000000 0.000000" charge=0
C	-2.169635	0.072984	-0.517181	6
C	-0.856965	-0.371686	0.063209	6
C	-0.726215	-1.552946	0.690009	6
C	0.256095	0.627244	-0.077841	6
O	0.006065	1.806824	-0.311091	8
C	1.659745	0.137854	0.024789	6
C	2.678965	1.006614	0.043109	6
H	-2.539075	0.963504	0.002119	1
H	-2.938855	-0.702156	-0.432141	1
H	-2.057105	0.308964	-1.580641	1
H	-1.571755	-2.230286	0.777079	1
H	0.191565	-1.882066	1.163139	1
H	1.849456	-0.926036	0.057989	1
H	2.512386	2.079874	-0.005371	1
H	3.705325	0.661314	0.102819	1
Es	-1.501639	-0.152095	-0.225261	99
Es	-0.856950	-0.371570	0.063157	99
Es	-0.685982	-1.089348	0.103658	99
Es	-2.690798	-0.469549	-0.453144	99
Es	-0.215690	1.764615	-0.319370	99
Es	0.096059	1.357827	-0.039946	99
Es	0.006262	1.806497	-0.311023	99
Es	-2.088827	0.202017	-1.150611	99
Es	-0.104007	-1.773797	1.000415	99
Es	1.777767	-0.587806	0.067346	99
Es	2.088676	0.557659	0.336671	99
Es	3.364413	0.775275	0.081790	99
Es	0.256099	0.627195	-0.077808	99
Es	0.092390	1.413309	-0.388888	99
Es	-0.293271	0.111178	-0.000370	99
Es	-0.839053	-0.797671	0.637879	99
Es	2.145993	0.541594	-0.271484	99
Es	2.581367	1.724773	0.003107	99
Es	-2.398489	0.686540	-0.241609	99
Es	-1.295770	-2.016679	0.750226	99
Es	-2.169580	0.072948	-0.517158	99
Es	0.187973	2.074445	-0.377859	99
Es	2.679049	1.006658	0.043110	99
Es	0.963751	0.366107	-0.013466	99
Es	1.659629	0.137808	0.024815	99
Es	-0.726198	-1.553033	0.690056	99
41
Properties=species:S:1:pos:R:3:Z:I:1 energy=-306.7954063324387 field_type=dipole dipole="0.000000 0.000000 0.000000" charge=0
C	-2.169635	0.072984	-0.517181	6
C	-0.856965	-0.371686	0.063209	6
C	-0.726215	-1.552946	0.690009	6
C	0.256095	0.627244	-0.077841	6
O	0.006065	1.806824	-0.311091	8
C	1.659745	0.137854	0.024789	6
C	2.678965	1.006614	0.043109	6
H	-2.539075	0.963504	0.002119	1
H	-2.938855	-0.702156	-0.432141	1
H	-2.057105	0.308964	-1.580641	1
H	-1.571755	-2.230286	0.777079	1
H	0.191565	-1.882066	1.163139	1
H	1.849456	-0.926036	0.057989	1
H	2.512386	2.079874	-0.005371	1
H	3.705325	0.661314	0.102819	1
Es	-2.397428	0.686667	-0.247273	99
Es	1.777665	-0.587809	0.067292	99
Es	-1.501785	-0.152056	-0.225161	99
Es	-0.856950	-0.371569	0.063158	99
Es	-0.212897	1.763757	-0.317531	99
Es	-0.293294	0.111219	-0.000616	99
Es	-0.686012	-1.089349	0.103529	99
Es	-2.690729	-0.469659	-0.452934	99
Es	-1.295783	-2.016658	0.750386	99
Es	0.006166	1.806476	-0.311022	99
Es	0.184584	2.075725	-0.378771	99
Es	-0.839048	-0.797609	0.638154	99
Es	0.256099	0.627195	-0.077808	99
Es	-0.726198	-1.553030	0.690056	99
Es	2.146180	0.541846	-0.271651	99
Es	3.364276	0.775403	0.081544	99
Es	2.679051	1.006657	0.043111	99
Es	-2.089719	0.201817	-1.145198	99
Es	-2.169578	0.072950	-0.517157	99
Es	0.092443	1.409850	-0.395096	99
Es	2.088554	0.557430	0.336892	99
Es	0.963828	0.366059	-0.013148	99
Es	-0.104038	-1.773783	1.000369	99
Es	1.659629	0.137808	0.024813	99
Es	2.581461	1.724740	0.003036	99
Es	0.096697	1.360823	-0.034740	99
41
Properties=species:S:1:pos:R:3:Z:I:1 energy=-306.7954063324387 field_type=dipole dipole="0.000000 0.000000 0.000000" charge=0
C	-2.169635	0.072984	-0.517181	6
C	-0.856965	-0.371686	0.063209	6
C	-0.726215	-1.552946	0.690009	6
C	0.256095	0.627244	-0.077841	6
O	0.006065	1.806824	-0.311091	8
C	1.659745	0.137854	0.024789	6
C	2.678965	1.006614	0.043109	6
H	-2.539075	0.963504	0.002119	1
H	-2.938855	-0.702156	-0.432141	1
H	-2.057105	0.308964	-1.580641	1
H	-1.571755	-2.230286	0.777079	1
H	0.191565	-1.882066	1.163139	1
H	1.849456	-0.926036	0.057989	1
H	2.512386	2.079874	-0.005371	1
H	3.705325	0.661314	0.102819	1
Es	0.256099	0.627195	-0.077807	99
Es	-0.093434	1.785542	-0.312196	99
Es	2.089191	0.558324	0.335954	99
Es	-1.501341	-0.152185	-0.224898	99
Es	-0.726200	-1.553028	0.690061	99
Es	2.581029	1.724357	0.003262	99
Es	0.082029	1.356289	-0.038365	99
Es	-2.691811	-0.468819	-0.453262	99
Es	0.087696	1.409542	-0.393848	99
Es	1.778162	-0.587519	0.067078	99
Es	1.659629	0.137808	0.024812	99
Es	-2.169580	0.072950	-0.517157	99
Es	-0.856952	-0.371567	0.063163	99
Es	0.176713	2.078947	-0.381421	99
Es	-0.086921	1.785167	-0.311532	99
Es	-0.686353	-1.088757	0.104570	99
Es	-2.090861	0.201936	-1.140624	99
Es	2.146178	0.541983	-0.271284	99
Es	-0.103380	-1.774039	1.000672	99
Es	-0.838379	-0.798247	0.636763	99
Es	-2.396619	0.686016	-0.251910	99
Es	-0.292999	0.111105	-0.000434	99
Es	2.679049	1.006658	0.043115	99
Es	0.962737	0.366617	-0.012747	99
Es	3.366070	0.774654	0.081953	99
Es	-1.296580	-2.016031	0.750316	99
41
Properties=species:S:1:pos:R:3:Z:I:1 energy=-306.7954063324387 field_type=dipole dipole="0.000000 0.000000 0.000000" charge=0
C	-2.169635	0.072984	-0.517181	6
C	-0.856965	-0.371686	0.063209	6
C	-0.726215	-1.552946	0.690009	6
C	0.256095	0.627244	-0.077841	6
O	0.006065	1.806824	-0.311091	8
C	1.659745	0.137854	0.024789	6
C	2.678965	1.006614	0.043109	6
H	-2.539075	0.963504	0.002119	1
H	-2.938855	-0.702156	-0.432141	1
H	-2.057105	0.308964	-1.580641	1
H	-1.571755	-2.230286	0.777079	1
H	0.191565	-1.882066	1.163139	1
H	1.849456	-0.926036	0.057989	1
H	2.512386	2.079874	-0.005371	1
H	3.705325	0.661314	0.102819	1
Es	-0.840707	-0.797445	0.640897	99
Es	1.659629	0.137808	0.024814	99
Es	-1.501959	-0.152018	-0.225314	99
Es	2.145643	0.541471	-0.272200	99
Es	-2.169579	0.072948	-0.517158	99
Es	-1.295713	-2.016663	0.750456	99
Es	-0.210431	1.762880	-0.318928	99
Es	-0.293298	0.111144	-0.000573	99
Es	0.006277	1.806494	-0.311022	99
Es	1.777587	-0.587800	0.067586	99
Es	2.581533	1.724763	0.002846	99
Es	-2.396468	0.686782	-0.252372	99
Es	-0.104103	-1.773735	1.000463	99
Es	2.679049	1.006658	0.043112	99
Es	0.256102	0.627194	-0.077806	99
Es	-2.690580	-0.469754	-0.452780	99
Es	0.964080	0.366014	-0.013124	99
Es	0.183769	2.076137	-0.379021	99
Es	-0.856951	-0.371569	0.063159	99
Es	-0.726198	-1.553031	0.690055	99
Es	-2.090554	0.201711	-1.140269	99
Es	0.094948	1.358046	-0.038972	99
Es	3.363951	0.775522	0.081616	99
Es	2.088917	0.557682	0.337248	99
Es	-0.684363	-1.089514	0.100814	99
Es	0.092593	1.413174	-0.389294	99
41
Properties=species:S:1:pos:R:3:Z:I:1 energy=-306.7954063324387 field_type=dipole dipole="0.000000 0.000000 0.000000" charge=0
C	-2.169635	0.072984	-0.517181	6
C	-0.856965	-0.371686	0.063209	6
C	-0.726215	-1.552946	0.690009	6
C	0.256095	0.627244	-0.077841	6
O	0.006065	1.806824	-0.311091	8
C	1.659745	0.137854	0.024789	6
C	2.678965	1.006614	0.043109	6
H	-2.539075	0.963504	0.002119	1
H	-2.938855	-0.702156	-0.432141	1
H	-2.057105	0.308964	-1.580641	1
H	-1.571755	-2.230286	0.777079	1
H	0.191565	-1.882066	1.163139	1
H	1.849456	-0.926036	0.057989	1
H	2.512386	2.079874	-0.005371	1
H	3.705325	0.661314	0.102819	1
Es	-2.169578	0.072950	-0.517157	99
Es	-2.396213	0.686738	-0.253720	99
Es	2.581573	1.724760	0.002841	99
Es	-0.684863	-1.089566	0.101574	99
Es	0.006243	1.806489	-0.311022	99
Es	-0.726200	-1.553029	0.690060	99
Es	2.088879	0.557575	0.337342	99
Es	2.145703	0.541471	-0.272306	99
Es	3.363841	0.775616	0.081539	99
Es	0.256099	0.627195	-0.077807	99
Es	-0.104251	-1.773602	1.000548	99
Es	-1.501839	-0.152018	-0.225287	99
Es	-0.856951	-0.371569	0.063160	99
Es	-0.840206	-0.797415	0.640128	99
Es	-1.295654	-2.016736	0.750564	99
Es	1.777568	-0.587782	0.067626	99
Es	2.679049	1.006658	0.043111	99
Es	0.092112	1.413857	-0.387936	99
Es	0.964122	0.365995	-0.013071	99
Es	-0.208863	1.762642	-0.318206	99
Es	-2.690595	-0.469713	-0.452612	99
Es	0.095131	1.357168	-0.040618	99
Es	-2.090789	0.201665	-1.139122	99
Es	0.182523	2.076600	-0.379476	99
Es	1.659631	0.137808	0.024814	99
Es	-0.293297	0.111140	-0.000733	99
