45
Properties=species:S:1:pos:R:3:Z:I:1 energy=-345.01351852368066 field_type=dipole dipole="0.000000 0.000000 0.000000" charge=0
C	-1.075068	-1.178743	1.218930	6
C	-0.890558	-0.875203	-0.264160	6
C	-0.520108	0.580197	-0.555130	6
O	-1.498178	1.449287	0.009250	8
C	0.877293	0.935637	-0.041640	6
C	2.055153	0.446947	-0.839350	6
O	1.021313	1.594267	0.992070	8
H	-1.351887	-2.228693	1.353740	1
H	-1.870647	-0.567213	1.655050	1
H	-0.154138	-0.999263	1.780170	1
H	-1.837927	-1.103603	-0.768730	1
H	-0.133367	-1.551453	-0.676710	1
H	-0.531377	0.754457	-1.637420	1
H	-1.136907	1.738787	0.872230	1
H	2.123183	-0.641103	-0.777960	1
H	2.974832	0.884177	-0.439260	1
H	1.948392	0.761517	-1.881080	1
Es	-1.497808	1.449200	0.009366	99
Es	1.967006	0.655692	-1.533604	99
Es	-0.510173	0.694021	-1.292282	99
Es	-1.529349	-1.022762	-0.612963	99
Es	-1.105247	1.117069	-0.186328	99
Es	-1.300560	1.584434	0.461371	99
Es	2.081153	-0.276499	-0.794231	99
Es	-0.972558	-1.012597	0.477795	99
Es	-1.075052	-1.178742	1.218880	99
Es	0.974563	1.148803	0.760215	99
Es	-0.520193	0.580320	-0.554996	99
Es	-1.261210	-1.894578	1.303257	99
Es	1.318529	1.647790	1.070083	99
Es	1.021273	1.594149	0.991889	99
Es	-0.362476	-1.330143	-0.549149	99
Es	0.966955	1.571693	0.489116	99
Es	-1.611162	-0.764244	1.511495	99
Es	-1.746595	1.274361	0.055959	99
Es	-0.890527	-0.875162	-0.264139	99
Es	0.877304	0.935638	-0.041650	99
Es	0.734899	1.671589	1.121618	99
Es	-1.499639	1.694873	-0.168869	99
Es	-0.444047	-1.055650	1.594728	99
Es	1.464140	0.682289	-0.449909	99
Es	0.187070	0.753301	-0.297304	99
Es	2.666902	0.736722	-0.572193	99
Es	2.055090	0.446944	-0.839342	99
Es	-0.672410	-0.141712	-0.399155	99
45
Properties=species:S:1:pos:R:3:Z:I:1 energy=-345.01351852368066 field_type=dipole dipole="0.000000 0.000000 0.000000" charge=0
C	-1.075068	-1.178743	1.218930	6
C	-0.890558	-0.875203	-0.264160	6
C	-0.520108	0.580197	-0.555130	6
O	-1.498178	1.449287	0.009250	8
C	0.877293	0.935637	-0.041640	6
C	2.055153	0.446947	-0.839350	6
O	1.021313	1.594267	0.992070	8
H	-1.351887	-2.228693	1.353740	1
H	-1.870647	-0.567213	1.655050	1
H	-0.154138	-0.999263	1.780170	1
H	-1.837927	-1.103603	-0.768730	1
H	-0.133367	-1.551453	-0.676710	1
H	-0.531377	0.754457	-1.637420	1
H	-1.136907	1.738787	0.872230	1
H	2.123183	-0.641103	-0.777960	1
H	2.974832	0.884177	-0.439260	1
H	1.948392	0.761517	-1.881080	1
Es	-0.890524	-0.875165	-0.264138	99
Es	-1.746931	1.281648	0.049843	99
Es	2.080804	-0.275473	-0.794139	99
Es	0.974654	1.148450	0.760931	99
Es	-1.529275	-1.022452	-0.613476	99
Es	2.055090	0.446944	-0.839342	99
Es	-0.362355	-1.329840	-0.549302	99
Es	-1.261228	-1.893698	1.303328	99
Es	-0.443764	-1.055892	1.595177	99
Es	-0.672209	-0.141220	-0.399073	99
Es	-1.075052	-1.178742	1.218881	99
Es	-0.972833	-1.012630	0.477919	99
Es	0.877304	0.935628	-0.041646	99
Es	-0.510622	0.693326	-1.293295	99
Es	1.966968	0.655215	-1.534197	99
Es	0.966298	1.571162	0.489332	99
Es	0.187351	0.752563	-0.296872	99
Es	2.667317	0.736444	-0.571870	99
Es	1.463866	0.681902	-0.449876	99
Es	1.319025	1.649648	1.071044	99
Es	-1.497898	1.449171	0.009434	99
Es	-0.520195	0.580322	-0.554993	99
Es	0.734929	1.670914	1.120065	99
Es	1.021267	1.594122	0.991858	99
Es	-1.301329	1.590128	0.466586	99
Es	-1.611253	-0.764615	1.511551	99
Es	-1.107210	1.114057	-0.189422	99
Es	-1.496318	1.684883	-0.164650	99
45
Properties=species:S:1:pos:R:3:Z:I:1 energy=-345.01351852368066 field_type=dipole dipole="0.000000 0.000000 0.000000" charge=0
C	-1.075068	-1.178743	1.218930	6
C	-0.890558	-0.875203	-0.264160	6
C	-0.520108	0.580197	-0.555130	6
O	-1.498178	1.449287	0.009250	8
C	0.877293	0.935637	-0.041640	6
C	2.055153	0.446947	-0.839350	6
O	1.021313	1.594267	0.992070	8
H	-1.351887	-2.228693	1.353740	1
H	-1.870647	-0.567213	1.655050	1
H	-0.154138	-0.999263	1.780170	1
H	-1.837927	-1.103603	-0.768730	1
H	-0.133367	-1.551453	-0.676710	1
H	-0.531377	0.754457	-1.637420	1
H	-1.136907	1.738787	0.872230	1
H	2.123183	-0.641103	-0.777960	1
H	2.974832	0.884177	-0.439260	1
H	1.948392	0.761517	-1.881080	1
Es	-0.672022	-0.140996	-0.399203	99
Es	-0.890524	-0.875165	-0.264138	99
Es	2.667350	0.736868	-0.571549	99
Es	-1.301787	1.595212	0.468880	99
Es	1.318413	1.652536	1.073778	99
Es	-0.972773	-1.012818	0.478030	99
Es	2.080823	-0.274921	-0.793701	99
Es	-1.109677	1.110471	-0.192573	99
Es	1.966796	0.654697	-1.534702	99
Es	0.187481	0.752134	-0.296709	99
Es	0.734105	1.669893	1.116540	99
Es	-1.529200	-1.022248	-0.613704	99
Es	2.055093	0.446942	-0.839341	99
Es	-1.611369	-0.764761	1.511554	99
Es	0.967092	1.570638	0.489780	99
Es	-0.520195	0.580321	-0.554994	99
Es	-0.511004	0.692780	-1.294002	99
Es	-1.075052	-1.178741	1.218881	99
Es	1.021274	1.594074	0.991775	99
Es	0.975261	1.147358	0.761577	99
Es	-0.443815	-1.055847	1.595304	99
Es	-1.497887	1.449165	0.009399	99
Es	0.877304	0.935630	-0.041648	99
Es	1.463761	0.681330	-0.450166	99
Es	-1.494399	1.676404	-0.160264	99
Es	-1.745802	1.288535	0.046609	99
Es	-0.362362	-1.329588	-0.549541	99
Es	-1.261010	-1.893100	1.303787	99
45
Properties=species:S:1:pos:R:3:Z:I:1 energy=-345.01351852368066 field_type=dipole dipole="0.000000 0.000000 0.000000" charge=0
C	-1.075068	-1.178743	1.218930	6
C	-0.890558	-0.875203	-0.264160	6
C	-0.520108	0.580197	-0.555130	6
O	-1.498178	1.449287	0.009250	8
C	0.877293	0.935637	-0.041640	6
C	2.055153	0.446947	-0.839350	6
O	1.021313	1.594267	0.992070	8
H	-1.351887	-2.228693	1.353740	1
H	-1.870647	-0.567213	1.655050	1
H	-0.154138	-0.999263	1.780170	1
H	-1.837927	-1.103603	-0.768730	1
H	-0.133367	-1.551453	-0.676710	1
H	-0.531377	0.754457	-1.637420	1
H	-1.136907	1.738787	0.872230	1
H	2.123183	-0.641103	-0.777960	1
H	2.974832	0.884177	-0.439260	1
H	1.948392	0.761517	-1.881080	1
Es	-0.511403	0.692067	-1.294691	99
Es	-0.443631	-1.055642	1.595671	99
Es	-1.301403	1.601042	0.468992	99
Es	-0.362325	-1.329257	-0.549630	99
Es	-1.261114	-1.892691	1.304053	99
Es	-1.529193	-1.022118	-0.614063	99
Es	0.877304	0.935631	-0.041647	99
Es	-1.611231	-0.765106	1.511275	99
Es	-1.497869	1.449182	0.009407	99
Es	2.055091	0.446944	-0.839342	99
Es	0.737749	1.673972	1.123027	99
Es	-1.075053	-1.178742	1.218881	99
Es	1.021309	1.594079	0.991779	99
Es	0.964787	1.572482	0.491116	99
Es	1.463812	0.680952	-0.450332	99
Es	0.972601	1.146206	0.760516	99
Es	-0.520193	0.580317	-0.554992	99
Es	2.080573	-0.274428	-0.793344	99
Es	-0.671831	-0.140439	-0.398953	99
Es	-1.111456	1.108795	-0.195440	99
Es	-0.890526	-0.875164	-0.264139	99
Es	-1.743139	1.291816	0.046303	99
Es	0.187620	0.751584	-0.296368	99
Es	1.966639	0.654274	-1.535110	99
Es	-0.972952	-1.013006	0.478081	99
Es	2.667534	0.737017	-0.571288	99
Es	1.319658	1.648140	1.067044	99
Es	-1.495485	1.668896	-0.157146	99
45
Properties=species:S:1:pos:R:3:Z:I:1 energy=-345.01351852368066 field_type=dipole dipole="0.000000 0.000000 0.000000" charge=0
C	-1.075068	-1.178743	1.218930	6
C	-0.890558	-0.875203	-0.264160	6
C	-0.520108	0.580197	-0.555130	6
O	-1.498178	1.449287	0.009250	8
C	0.877293	0.935637	-0.041640	6
C	2.055153	0.446947	-0.839350	6
O	1.021313	1.594267	0.992070	8
H	-1.351887	-2.228693	1.353740	1
H	-1.870647	-0.567213	1.655050	1
H	-0.154138	-0.999263	1.780170	1
H	-1.837927	-1.103603	-0.768730	1
H	-0.133367	-1.551453	-0.676710	1
H	-0.531377	0.754457	-1.637420	1
H	-1.136907	1.738787	0.872230	1
H	2.123183	-0.641103	-0.777960	1
H	2.974832	0.884177	-0.439260	1
H	1.948392	0.761517	-1.881080	1
Es	-0.972915	-1.013148	0.478160	99
Es	-0.362447	-1.329294	-0.549960	99
Es	-0.671671	-0.140122	-0.399025	99
Es	0.734177	1.665438	1.108161	99
Es	-0.890523	-0.875165	-0.264138	99
Es	1.463659	0.680748	-0.450472	99
Es	-1.113659	1.107221	-0.200002	99
Es	-1.497904	1.449190	0.009399	99
Es	-0.511530	0.691635	-1.295260	99
Es	-1.260947	-1.892244	1.304341	99
Es	-1.741018	1.297155	0.044601	99
Es	-0.443779	-1.055870	1.595554	99
Es	0.877305	0.935626	-0.041646	99
Es	1.966733	0.653920	-1.535521	99
Es	1.317132	1.658046	1.081757	99
Es	-1.528926	-1.021850	-0.613985	99
Es	0.975445	1.145222	0.760801	99
Es	-1.611294	-0.764986	1.511519	99
Es	1.021227	1.594111	0.991817	99
Es	2.080659	-0.274068	-0.792983	99
Es	-1.494520	1.662427	-0.151235	99
Es	-1.075053	-1.178740	1.218878	99
Es	0.187489	0.751098	-0.296160	99
Es	2.055090	0.446946	-0.839339	99
Es	-0.520193	0.580320	-0.554993	99
Es	0.968033	1.572279	0.491018	99
Es	-1.302044	1.603828	0.469578	99
Es	2.667351	0.737078	-0.571206	99
45
Properties=species:S:1:pos:R:3:Z:I:1 energy=-345.01351852368066 field_type=dipole dipole="0.000000 0.000000 0.000000" charge=0
C	-1.075068	-1.178743	1.218930	6
C	-0.890558	-0.875203	-0.264160	6
C	-0.520108	0.580197	-0.555130	6
O	-1.498178	1.449287	0.009250	8
C	0.877293	0.935637	-0.041640	6
C	2.055153	0.446947	-0.839350	6
O	1.021313	1.594267	0.992070	8
H	-1.351887	-2.228693	1.353740	1
H	-1.870647	-0.567213	1.655050	1
H	-0.154138	-0.999263	1.780170	1
H	-1.837927	-1.103603	-0.768730	1
H	-0.133367	-1.551453	-0.676710	1
H	-0.531377	0.754457	-1.637420	1
H	-1.136907	1.738787	0.872230	1
H	2.123183	-0.641103	-0.777960	1
H	2.974832	0.884177	-0.439260	1
H	1.948392	0.761517	-1.881080	1
Es	-1.528639	-1.021552	-0.613854	99
Es	0.976311	1.144711	0.760300	99
Es	-0.511743	0.691159	-1.295738	99
Es	-0.890522	-0.875161	-0.264141	99
Es	0.877305	0.935627	-0.041648	99
Es	-1.611184	-0.764866	1.511754	99
Es	0.967810	1.572684	0.491610	99
Es	2.055090	0.446945	-0.839341	99
Es	-0.671441	-0.139756	-0.399049	99
Es	-0.362468	-1.329551	-0.550189	99
Es	-1.260869	-1.892041	1.304629	99
Es	2.080620	-0.273896	-0.792971	99
Es	-1.497862	1.449189	0.009385	99
Es	1.966790	0.653851	-1.535631	99
Es	0.734348	1.660458	1.101478	99
Es	-1.075052	-1.178741	1.218878	99
Es	-1.303043	1.606032	0.470007	99
Es	0.187414	0.750809	-0.295963	99
Es	-1.740312	1.303162	0.041768	99
Es	2.667318	0.737116	-0.571003	99
Es	-0.973054	-1.012993	0.478109	99
Es	1.021321	1.594077	0.991780	99
Es	-0.520193	0.580320	-0.554994	99
Es	1.316116	1.663358	1.088438	99
Es	-1.491172	1.656578	-0.145948	99
Es	1.463553	0.680446	-0.450704	99
Es	-0.444006	-1.056031	1.595381	99
Es	-1.116559	1.104869	-0.202685	99
45
Properties=species:S:1:pos:R:3:Z:I:1 energy=-345.01351852368066 field_type=dipole dipole="0.000000 0.000000 0.000000" charge=0
C	-1.075068	-1.178743	1.218930	6
C	-0.890558	-0.875203	-0.264160	6
C	-0.520108	0.580197	-0.555130	6
O	-1.498178	1.449287	0.009250	8
C	0.877293	0.935637	-0.041640	6
C	2.055153	0.446947	-0.839350	6
O	1.021313	1.594267	0.992070	8
H	-1.351887	-2.228693	1.353740	1
H	-1.870647	-0.567213	1.655050	1
H	-0.154138	-0.999263	1.780170	1
H	-1.837927	-1.103603	-0.768730	1
H	-0.133367	-1.551453	-0.676710	1
H	-0.531377	0.754457	-1.637420	1
H	-1.136907	1.738787	0.872230	1
H	2.123183	-0.641103	-0.777960	1
H	2.974832	0.884177	-0.439260	1
H	1.948392	0.761517	-1.881080	1
Es	2.667087	0.736591	-0.571910	99
Es	-1.528130	-1.020745	-0.613058	99
Es	1.301021	1.684702	1.121476	99
Es	-1.488168	1.650509	-0.140166	99
Es	-1.497465	1.449618	0.009187	99
Es	1.967074	0.653406	-1.535764	99
Es	-0.520189	0.580320	-0.554998	99
Es	-1.611653	-0.764203	1.512564	99
Es	0.737182	1.640197	1.068319	99
Es	2.081119	-0.273506	-0.792895	99
Es	-1.260245	-1.891567	1.304877	99
Es	2.055090	0.446944	-0.839342	99
Es	-0.444412	-1.056593	1.594613	99
Es	0.877304	0.935627	-0.041646	99
Es	0.187340	0.750709	-0.295929	99
Es	1.021216	1.594098	0.991815	99
Es	1.463073	0.680877	-0.449975	99
Es	0.982007	1.144037	0.760041	99
Es	-0.973022	-1.013239	0.478101	99
Es	0.974233	1.572295	0.491955	99
Es	-1.741871	1.306814	0.038543	99
Es	-1.304516	1.607914	0.470054	99
Es	-0.511744	0.690861	-1.295916	99
Es	-0.890525	-0.875165	-0.264139	99
Es	-0.362121	-1.330183	-0.551284	99
Es	-1.117007	1.105118	-0.204783	99
Es	-1.075052	-1.178741	1.218880	99
Es	-0.671750	-0.139890	-0.398961	99
45
Properties=species:S:1:pos:R:3:Z:I:1 energy=-345.01351852368066 field_type=dipole dipole="0.000000 0.000000 0.000000" charge=0
C	-1.075068	-1.178743	1.218930	6
C	-0.890558	-0.875203	-0.264160	6
C	-0.520108	0.580197	-0.555130	6
O	-1.498178	1.449287	0.009250	8
C	0.877293	0.935637	-0.041640	6
C	2.055153	0.446947	-0.839350	6
O	1.021313	1.594267	0.992070	8
H	-1.351887	-2.228693	1.353740	1
H	-1.870647	-0.567213	1.655050	1
H	-0.154138	-0.999263	1.780170	1
H	-1.837927	-1.103603	-0.768730	1
H	-0.133367	-1.551453	-0.676710	1
H	-0.531377	0.754457	-1.637420	1
H	-1.136907	1.738787	0.872230	1
H	2.123183	-0.641103	-0.777960	1
H	2.974832	0.884177	-0.439260	1
H	1.948392	0.761517	-1.881080	1
Es	0.188039	0.750380	-0.296179	99
Es	1.309623	1.620356	1.023329	99
Es	1.020765	1.594035	0.991709	99
Es	-0.972911	-1.013098	0.478298	99
Es	-0.362975	-1.327019	-0.547976	99
Es	-1.610261	-0.767298	1.508945	99
Es	-1.747874	1.314599	0.034164	99
Es	-0.512949	0.689899	-1.296163	99
Es	-1.479049	1.645674	-0.136536	99
Es	-1.122522	1.099919	-0.203649	99
Es	-1.497799	1.449239	0.009385	99
Es	0.762978	1.703799	1.163026	99
Es	-0.890525	-0.875164	-0.264140	99
Es	2.667955	0.738945	-0.568747	99
Es	1.965729	0.653200	-1.536210	99
Es	1.464804	0.678896	-0.452398	99
Es	0.964104	1.143871	0.762176	99
Es	-1.529808	-1.023578	-0.616232	99
Es	-0.520195	0.580322	-0.554994	99
Es	-1.261890	-1.891765	1.304776	99
Es	-1.075054	-1.178740	1.218884	99
Es	2.055090	0.446943	-0.839343	99
Es	2.079460	-0.273180	-0.792147	99
Es	-0.670678	-0.138772	-0.398888	99
Es	-0.442970	-1.053739	1.598005	99
Es	0.877304	0.935625	-0.041645	99
Es	0.958846	1.573473	0.493367	99
Es	-1.301365	1.609978	0.468841	99
45
Properties=species:S:1:pos:R:3:Z:I:1 energy=-345.01351852368066 field_type=dipole dipole="0.000000 0.000000 0.000000" charge=0
C	-1.075068	-1.178743	1.218930	6
C	-0.890558	-0.875203	-0.264160	6
C	-0.520108	0.580197	-0.555130	6
O	-1.498178	1.449287	0.009250	8
C	0.877293	0.935637	-0.041640	6
C	2.055153	0.446947	-0.839350	6
O	1.021313	1.594267	0.992070	8
H	-1.351887	-2.228693	1.353740	1
H	-1.870647	-0.567213	1.655050	1
H	-0.154138	-0.999263	1.780170	1
H	-1.837927	-1.103603	-0.768730	1
H	-0.133367	-1.551453	-0.676710	1
H	-0.531377	0.754457	-1.637420	1
H	-1.136907	1.738787	0.872230	1
H	2.123183	-0.641103	-0.777960	1
H	2.974832	0.884177	-0.439260	1
H	1.948392	0.761517	-1.881080	1
Es	2.055091	0.446944	-0.839342	99
Es	-0.520194	0.580320	-0.554993	99
Es	0.746378	1.626155	1.047576	99
Es	-0.671750	-0.139551	-0.398859	99
Es	-1.527829	-1.020077	-0.612548	99
Es	0.187372	0.750300	-0.295684	99
Es	1.284862	1.699484	1.141948	99
Es	0.976506	1.572429	0.492355	99
Es	-1.259821	-1.890821	1.305170	99
Es	-0.890526	-0.875165	-0.264140	99
Es	-0.973077	-1.013467	0.477876	99
Es	-0.512008	0.690177	-1.296288	99
Es	-0.361897	-1.330775	-0.551942	99
Es	-1.497958	1.449230	0.009341	99
Es	2.081204	-0.272925	-0.792847	99
Es	2.667194	0.736436	-0.572035	99
Es	-1.611971	-0.763693	1.513151	99
Es	-1.483610	1.641984	-0.131684	99
Es	-1.118410	1.106255	-0.209240	99
Es	1.462560	0.680883	-0.449965	99
Es	-1.305637	1.610911	0.469567	99
Es	0.877305	0.935626	-0.041646	99
Es	1.967388	0.652791	-1.535846	99
Es	-0.444657	-1.057117	1.594111	99
Es	-1.743348	1.311721	0.035103	99
Es	0.986135	1.143498	0.759993	99
Es	1.021624	1.593990	0.991646	99
Es	-1.075051	-1.178741	1.218881	99
45
Properties=species:S:1:pos:R:3:Z:I:1 energy=-345.01351852368066 field_type=dipole dipole="0.000000 0.000000 0.000000" charge=0
C	-1.075068	-1.178743	1.218930	6
C	-0.890558	-0.875203	-0.264160	6
C	-0.520108	0.580197	-0.555130	6
O	-1.498178	1.449287	0.009250	8
C	0.877293	0.935637	-0.041640	6
C	2.055153	0.446947	-0.839350	6
O	1.021313	1.594267	0.992070	8
H	-1.351887	-2.228693	1.353740	1
H	-1.870647	-0.567213	1.655050	1
H	-0.154138	-0.999263	1.780170	1
H	-1.837927	-1.103603	-0.768730	1
H	-0.133367	-1.551453	-0.676710	1
H	-0.531377	0.754457	-1.637420	1
H	-1.136907	1.738787	0.872230	1
H	2.123183	-0.641103	-0.777960	1
H	2.974832	0.884177	-0.439260	1
H	1.948392	0.761517	-1.881080	1
Es	-1.305805	1.612208	0.469070	99
Es	2.081247	-0.272609	-0.793009	99
Es	-1.118227	1.106462	-0.209445	99
Es	-1.746297	1.313535	0.032854	99
Es	2.667303	0.736076	-0.572337	99
Es	-1.527630	-1.019663	-0.612333	99
Es	1.462301	0.681052	-0.449659	99
Es	-1.075052	-1.178742	1.218882	99
Es	-0.671710	-0.139720	-0.398944	99
Es	-0.361849	-1.331069	-0.552291	99
Es	0.987532	1.142914	0.758512	99
Es	0.977826	1.573121	0.493850	99
Es	1.967519	0.652611	-1.535807	99
Es	1.021233	1.594077	0.991779	99
Es	-0.512091	0.690002	-1.296369	99
Es	2.055091	0.446944	-0.839342	99
Es	-1.481284	1.638058	-0.128324	99
Es	-1.497456	1.449786	0.009050	99
Es	0.877305	0.935624	-0.041644	99
Es	-0.973180	-1.013286	0.478039	99
Es	0.753997	1.618995	1.036246	99
Es	-1.612091	-0.763365	1.513643	99
Es	1.274870	1.706458	1.153097	99
Es	-0.520195	0.580320	-0.554993	99
Es	0.187430	0.750292	-0.295547	99
Es	-0.890526	-0.875162	-0.264139	99
Es	-0.444736	-1.057534	1.593710	99
Es	-1.259648	-1.890584	1.305107	99
45
Properties=species:S:1:pos:R:3:Z:I:1 energy=-345.01351852368066 field_type=dipole dipole="0.000000 0.000000 0.000000" charge=0
C	-1.075068	-1.178743	1.218930	6
C	-0.890558	-0.875203	-0.264160	6
C	-0.520108	0.580197	-0.555130	6
O	-1.498178	1.449287	0.009250	8
C	0.877293	0.935637	-0.041640	6
C	2.055153	0.446947	-0.839350	6
O	1.021313	1.594267	0.992070	8
H	-1.351887	-2.228693	1.353740	1
H	-1.870647	-0.567213	1.655050	1
H	-0.154138	-0.999263	1.780170	1
H	-1.837927	-1.103603	-0.768730	1
H	-0.133367	-1.551453	-0.676710	1
H	-0.531377	0.754457	-1.637420	1
H	-1.136907	1.738787	0.872230	1
H	2.123183	-0.641103	-0.777960	1
H	2.974832	0.884177	-0.439260	1
H	1.948392	0.761517	-1.881080	1
Es	-0.890525	-0.875166	-0.264139	99
Es	2.078855	-0.272425	-0.792964	99
Es	2.055089	0.446944	-0.839342	99
Es	-0.972837	-1.013239	0.478307	99
Es	-1.771427	1.321600	0.018830	99
Es	-1.075051	-1.178741	1.218880	99
Es	0.877304	0.935619	-0.041642	99
Es	-0.520194	0.580318	-0.554992	99
Es	-0.670697	-0.138336	-0.398623	99
Es	-1.497899	1.449024	0.009491	99
Es	-1.463200	1.630732	-0.120839	99
Es	0.188948	0.750489	-0.296027	99
Es	-0.513594	0.689358	-1.295677	99
Es	1.251875	1.582091	0.966288	99
Es	-1.530990	-1.024160	-0.617071	99
Es	-1.262124	-1.891332	1.303950	99
Es	-1.299682	1.611730	0.467179	99
Es	1.021096	1.594040	0.991729	99
Es	-0.441859	-1.053397	1.598712	99
Es	-0.362700	-1.326282	-0.547038	99
Es	0.949773	1.574637	0.494904	99
Es	1.965590	0.652634	-1.535416	99
Es	0.954436	1.144574	0.764901	99
Es	-1.610622	-0.767803	1.508208	99
Es	1.464366	0.678885	-0.452206	99
Es	2.669280	0.738920	-0.568462	99
Es	0.839547	1.740077	1.215564	99
Es	-1.116882	1.106010	-0.202848	99
45
Properties=species:S:1:pos:R:3:Z:I:1 energy=-345.01351852368066 field_type=dipole dipole="0.000000 0.000000 0.000000" charge=0
C	-1.075068	-1.178743	1.218930	6
C	-0.890558	-0.875203	-0.264160	6
C	-0.520108	0.580197	-0.555130	6
O	-1.498178	1.449287	0.009250	8
C	0.877293	0.935637	-0.041640	6
C	2.055153	0.446947	-0.839350	6
O	1.021313	1.594267	0.992070	8
H	-1.351887	-2.228693	1.353740	1
H	-1.870647	-0.567213	1.655050	1
H	-0.154138	-0.999263	1.780170	1
H	-1.837927	-1.103603	-0.768730	1
H	-0.133367	-1.551453	-0.676710	1
H	-0.531377	0.754457	-1.637420	1
H	-1.136907	1.738787	0.872230	1
H	2.123183	-0.641103	-0.777960	1
H	2.974832	0.884177	-0.439260	1
H	1.948392	0.761517	-1.881080	1
Es	-1.480180	1.634127	-0.124688	99
Es	1.967712	0.652297	-1.535334	99
Es	0.989890	1.143161	0.759262	99
Es	0.769421	1.607841	1.018046	99
Es	-1.498057	1.449258	0.009317	99
Es	-1.259229	-1.889958	1.304924	99
Es	-1.527811	-1.019538	-0.612172	99
Es	-1.612722	-0.763290	1.513800	99
Es	-0.972953	-1.013346	0.477866	99
Es	-1.748887	1.312434	0.031892	99
Es	1.021240	1.594098	0.991803	99
Es	-0.890526	-0.875169	-0.264137	99
Es	-0.512344	0.689447	-1.296349	99
Es	1.461879	0.681336	-0.449251	99
Es	-1.116015	1.110074	-0.211308	99
Es	2.081332	-0.272355	-0.793438	99
Es	-0.671964	-0.139462	-0.398838	99
Es	-0.520194	0.580321	-0.554994	99
Es	2.667583	0.735746	-0.572823	99
Es	-1.306106	1.614288	0.468123	99
Es	2.055091	0.446944	-0.839342	99
Es	0.187632	0.750113	-0.295446	99
Es	0.980462	1.572414	0.493679	99
Es	1.254425	1.718110	1.170573	99
Es	-0.444698	-1.057773	1.593727	99
Es	-1.075053	-1.178742	1.218882	99
Es	0.877304	0.935626	-0.041646	99
Es	-0.361356	-1.331201	-0.552471	99
45
Properties=species:S:1:pos:R:3:Z:I:1 energy=-345.01351852368066 field_type=dipole dipole="0.000000 0.000000 0.000000" charge=0
C	-1.075068	-1.178743	1.218930	6
C	-0.890558	-0.875203	-0.264160	6
C	-0.520108	0.580197	-0.555130	6
O	-1.498178	1.449287	0.009250	8
C	0.877293	0.935637	-0.041640	6
C	2.055153	0.446947	-0.839350	6
O	1.021313	1.594267	0.992070	8
H	-1.351887	-2.228693	1.353740	1
H	-1.870647	-0.567213	1.655050	1
H	-0.154138	-0.999263	1.780170	1
H	-1.837927	-1.103603	-0.768730	1
H	-0.133367	-1.551453	-0.676710	1
H	-0.531377	0.754457	-1.637420	1
H	-1.136907	1.738787	0.872230	1
H	2.123183	-0.641103	-0.777960	1
H	2.974832	0.884177	-0.439260	1
H	1.948392	0.761517	-1.881080	1
Es	-1.497897	1.449145	0.009429	99
Es	2.078884	-0.271973	-0.793093	99
Es	-1.778880	1.329517	0.009420	99
Es	1.965533	0.652346	-1.535388	99
Es	-0.513578	0.689442	-1.295533	99
Es	0.950079	1.575933	0.496289	99
Es	-1.531068	-1.023971	-0.616933	99
Es	0.952129	1.143910	0.763811	99
Es	-0.890526	-0.875166	-0.264139	99
Es	-0.520191	0.580318	-0.554995	99
Es	-1.610621	-0.767677	1.508439	99
Es	1.021000	1.594061	0.991758	99
Es	-0.972917	-1.013064	0.478378	99
Es	-1.300479	1.611398	0.467675	99
Es	2.055091	0.446944	-0.839341	99
Es	-1.262176	-1.891347	1.303792	99
Es	1.232749	1.575434	0.957982	99
Es	0.860724	1.746153	1.223464	99
Es	-1.075052	-1.178742	1.218881	99
Es	0.189020	0.750383	-0.296018	99
Es	-0.362612	-1.326430	-0.547201	99
Es	-0.441714	-1.053633	1.598538	99
Es	-0.670808	-0.138495	-0.398701	99
Es	-1.116056	1.106896	-0.202622	99
Es	0.877304	0.935627	-0.041647	99
Es	1.464183	0.678804	-0.451979	99
Es	-1.455836	1.622157	-0.112012	99
Es	2.669592	0.738830	-0.568596	99
45
Properties=species:S:1:pos:R:3:Z:I:1 energy=-345.01351852368066 field_type=dipole dipole="0.000000 0.000000 0.000000" charge=0
C	-1.075068	-1.178743	1.218930	6
C	-0.890558	-0.875203	-0.264160	6
C	-0.520108	0.580197	-0.555130	6
O	-1.498178	1.449287	0.009250	8
C	0.877293	0.935637	-0.041640	6
C	2.055153	0.446947	-0.839350	6
O	1.021313	1.594267	0.992070	8
H	-1.351887	-2.228693	1.353740	1
H	-1.870647	-0.567213	1.655050	1
H	-0.154138	-0.999263	1.780170	1
H	-1.837927	-1.103603	-0.768730	1
H	-0.133367	-1.551453	-0.676710	1
H	-0.531377	0.754457	-1.637420	1
H	-1.136907	1.738787	0.872230	1
H	2.123183	-0.641103	-0.777960	1
H	2.974832	0.884177	-0.439260	1
H	1.948392	0.761517	-1.881080	1
Es	2.055090	0.446944	-0.839342	99
Es	1.461605	0.681117	-0.449268	99
Es	-1.116356	1.109257	-0.211085	99
Es	-0.520194	0.580321	-0.554994	99
Es	-1.527609	-1.019257	-0.612011	99
Es	-1.471731	1.626702	-0.117113	99
Es	-0.973041	-1.013330	0.478006	99
Es	2.081596	-0.272185	-0.793615	99
Es	1.021253	1.594072	0.991777	99
Es	0.990958	1.143555	0.760967	99
Es	-1.075052	-1.178741	1.218880	99
Es	-1.612700	-0.762959	1.514049	99
Es	0.779266	1.602281	1.008511	99
Es	-0.890524	-0.875166	-0.264140	99
Es	-1.497867	1.449093	0.009461	99
Es	-0.361387	-1.331427	-0.552700	99
Es	0.982316	1.571642	0.492487	99
Es	1.241610	1.724061	1.179614	99
Es	-0.444795	-1.058005	1.593407	99
Es	1.967754	0.652220	-1.535236	99
Es	0.877305	0.935626	-0.041646	99
Es	-1.259195	-1.889908	1.304983	99
Es	0.187684	0.750052	-0.295347	99
Es	-1.306740	1.615124	0.467941	99
Es	-1.756583	1.319984	0.024159	99
Es	-0.512307	0.689513	-1.296321	99
Es	2.667565	0.735909	-0.572795	99
Es	-0.672044	-0.139696	-0.398971	99
45
Properties=species:S:1:pos:R:3:Z:I:1 energy=-345.01351852368066 field_type=dipole dipole="0.000000 0.000000 0.000000" charge=0
C	-1.075068	-1.178743	1.218930	6
C	-0.890558	-0.875203	-0.264160	6
C	-0.520108	0.580197	-0.555130	6
O	-1.498178	1.449287	0.009250	8
C	0.877293	0.935637	-0.041640	6
C	2.055153	0.446947	-0.839350	6
O	1.021313	1.594267	0.992070	8
H	-1.351887	-2.228693	1.353740	1
H	-1.870647	-0.567213	1.655050	1
H	-0.154138	-0.999263	1.780170	1
H	-1.837927	-1.103603	-0.768730	1
H	-0.133367	-1.551453	-0.676710	1
H	-0.531377	0.754457	-1.637420	1
H	-1.136907	1.738787	0.872230	1
H	2.123183	-0.641103	-0.777960	1
H	2.974832	0.884177	-0.439260	1
H	1.948392	0.761517	-1.881080	1
Es	2.055089	0.446944	-0.839342	99
Es	0.981585	1.573559	0.495370	99
Es	-1.307430	1.614836	0.468422	99
Es	1.021242	1.594068	0.991763	99
Es	1.461599	0.681206	-0.449173	99
Es	0.991810	1.142150	0.757733	99
Es	-1.612816	-0.763030	1.514127	99
Es	-0.890522	-0.875169	-0.264139	99
Es	-1.497885	1.449156	0.009429	99
Es	-0.444698	-1.058055	1.593420	99
Es	2.081447	-0.271972	-0.793413	99
Es	-1.075055	-1.178749	1.218885	99
Es	2.667707	0.735775	-0.572947	99
Es	0.783537	1.600045	1.006000	99
Es	0.877304	0.935626	-0.041645	99
Es	-0.973105	-1.013389	0.477917	99
Es	1.237259	1.725902	1.182404	99
Es	-0.361362	-1.331459	-0.552711	99
Es	-1.259088	-1.889630	1.304965	99
Es	0.187766	0.750144	-0.295401	99
Es	-1.472166	1.625693	-0.115867	99
Es	-1.756799	1.318771	0.023629	99
Es	1.967731	0.651928	-1.535357	99
Es	-0.520193	0.580320	-0.554994	99
Es	-0.512482	0.689335	-1.296313	99
Es	-0.671930	-0.139689	-0.398906	99
Es	-1.527657	-1.019210	-0.612007	99
Es	-1.115015	1.111697	-0.212190	99
45
Properties=species:S:1:pos:R:3:Z:I:1 energy=-345.01351852368066 field_type=dipole dipole="0.000000 0.000000 0.000000" charge=0
C	-1.075068	-1.178743	1.218930	6
C	-0.890558	-0.875203	-0.264160	6
C	-0.520108	0.580197	-0.555130	6
O	-1.498178	1.449287	0.009250	8
C	0.877293	0.935637	-0.041640	6
C	2.055153	0.446947	-0.839350	6
O	1.021313	1.594267	0.992070	8
H	-1.351887	-2.228693	1.353740	1
H	-1.870647	-0.567213	1.655050	1
H	-0.154138	-0.999263	1.780170	1
H	-1.837927	-1.103603	-0.768730	1
H	-0.133367	-1.551453	-0.676710	1
H	-0.531377	0.754457	-1.637420	1
H	-1.136907	1.738787	0.872230	1
H	2.123183	-0.641103	-0.777960	1
H	2.974832	0.884177	-0.439260	1
H	1.948392	0.761517	-1.881080	1
Es	0.189140	0.750350	-0.295973	99
Es	-0.670713	-0.138256	-0.398737	99
Es	-1.115839	1.107865	-0.204155	99
Es	-0.513960	0.688837	-1.295686	99
Es	0.948923	1.576229	0.497641	99
Es	-0.441718	-1.053407	1.598753	99
Es	-1.497952	1.449228	0.009334	99
Es	2.669756	0.738906	-0.568707	99
Es	2.078934	-0.271580	-0.792960	99
Es	1.463988	0.678772	-0.451941	99
Es	1.965520	0.651884	-1.535466	99
Es	-0.972762	-1.013005	0.478494	99
Es	-1.531101	-1.024259	-0.617152	99
Es	-0.520195	0.580320	-0.554990	99
Es	-0.890524	-0.875165	-0.264138	99
Es	-1.780204	1.331225	0.008186	99
Es	-1.299787	1.614207	0.466214	99
Es	0.952566	1.143421	0.762899	99
Es	2.055090	0.446945	-0.839342	99
Es	0.877304	0.935623	-0.041645	99
Es	-1.262020	-1.891098	1.303897	99
Es	1.021370	1.594032	0.991750	99
Es	-1.610872	-0.767750	1.508139	99
Es	-1.455394	1.616564	-0.107662	99
Es	1.219899	1.573001	0.952745	99
Es	0.873953	1.748893	1.228201	99
Es	-1.075051	-1.178741	1.218880	99
Es	-0.362476	-1.326240	-0.546923	99
45
Properties=species:S:1:pos:R:3:Z:I:1 energy=-345.01351852368066 field_type=dipole dipole="0.000000 0.000000 0.000000" charge=0
C	-1.075068	-1.178743	1.218930	6
C	-0.890558	-0.875203	-0.264160	6
C	-0.520108	0.580197	-0.555130	6
O	-1.498178	1.449287	0.009250	8
C	0.877293	0.935637	-0.041640	6
C	2.055153	0.446947	-0.839350	6
O	1.021313	1.594267	0.992070	8
H	-1.351887	-2.228693	1.353740	1
H	-1.870647	-0.567213	1.655050	1
H	-0.154138	-0.999263	1.780170	1
H	-1.837927	-1.103603	-0.768730	1
H	-0.133367	-1.551453	-0.676710	1
H	-0.531377	0.754457	-1.637420	1
H	-1.136907	1.738787	0.872230	1
H	2.123183	-0.641103	-0.777960	1
H	2.974832	0.884177	-0.439260	1
H	1.948392	0.761517	-1.881080	1
Es	2.078977	-0.271377	-0.793319	99
Es	-1.114252	1.109855	-0.204611	99
Es	-1.261734	-1.890737	1.303679	99
Es	-0.513836	0.688980	-1.295491	99
Es	-0.890524	-0.875166	-0.264141	99
Es	-1.299418	1.614915	0.465464	99
Es	0.948746	1.576166	0.496884	99
Es	-1.456903	1.616353	-0.107537	99
Es	1.965668	0.651701	-1.535113	99
Es	1.207594	1.569215	0.948823	99
Es	0.189253	0.750221	-0.295868	99
Es	-0.972953	-1.013180	0.478434	99
Es	0.950904	1.144042	0.763915	99
Es	-1.611355	-0.767537	1.508478	99
Es	1.021116	1.594035	0.991703	99
Es	-1.780992	1.328775	0.009301	99
Es	-1.531230	-1.023847	-0.616981	99
Es	2.670106	0.738668	-0.569002	99
Es	2.055091	0.446944	-0.839342	99
Es	-1.497758	1.449277	0.009359	99
Es	0.888277	1.752102	1.231859	99
Es	-0.362139	-1.326565	-0.547182	99
Es	1.463598	0.678912	-0.451659	99
Es	0.877304	0.935626	-0.041646	99
Es	-1.075051	-1.178741	1.218881	99
Es	-0.441443	-1.053745	1.598513	99
Es	-0.670977	-0.138408	-0.398750	99
Es	-0.520193	0.580320	-0.554994	99
45
Properties=species:S:1:pos:R:3:Z:I:1 energy=-345.01351852368066 field_type=dipole dipole="0.000000 0.000000 0.000000" charge=0
C	-1.075068	-1.178743	1.218930	6
C	-0.890558	-0.875203	-0.264160	6
C	-0.520108	0.580197	-0.555130	6
O	-1.498178	1.449287	0.009250	8
C	0.877293	0.935637	-0.041640	6
C	2.055153	0.446947	-0.839350	6
O	1.021313	1.594267	0.992070	8
H	-1.351887	-2.228693	1.353740	1
H	-1.870647	-0.567213	1.655050	1
H	-0.154138	-0.999263	1.780170	1
H	-1.837927	-1.103603	-0.768730	1
H	-0.133367	-1.551453	-0.676710	1
H	-0.531377	0.754457	-1.637420	1
H	-1.136907	1.738787	0.872230	1
H	2.123183	-0.641103	-0.777960	1
H	2.974832	0.884177	-0.439260	1
H	1.948392	0.761517	-1.881080	1
Es	-1.782476	1.332013	0.006332	99
Es	2.078963	-0.271261	-0.793072	99
Es	-0.520199	0.580317	-0.554988	99
Es	-0.441602	-1.053718	1.598595	99
Es	-1.531240	-1.024082	-0.617041	99
Es	1.965644	0.651550	-1.535332	99
Es	2.670018	0.738768	-0.568924	99
Es	0.949477	1.576669	0.497888	99
Es	-1.075052	-1.178741	1.218880	99
Es	-0.513925	0.688816	-1.295538	99
Es	0.951761	1.143387	0.762417	99
Es	-1.299680	1.614779	0.465729	99
Es	0.877304	0.935624	-0.041645	99
Es	-1.114561	1.109434	-0.204502	99
Es	-0.890524	-0.875168	-0.264139	99
Es	-1.611156	-0.767512	1.508371	99
Es	2.055090	0.446944	-0.839342	99
Es	-1.261888	-1.890832	1.303812	99
Es	-1.497642	1.449443	0.009265	99
Es	-1.454935	1.613484	-0.104883	99
Es	-0.972684	-1.013154	0.478407	99
Es	1.021499	1.594009	0.991670	99
Es	-0.670837	-0.138361	-0.398709	99
Es	1.463672	0.678870	-0.451777	99
Es	-0.362308	-1.326350	-0.547079	99
Es	0.189215	0.750292	-0.295909	99
Es	0.887693	1.751722	1.231930	99
Es	1.206249	1.569858	0.949241	99
45
Properties=species:S:1:pos:R:3:Z:I:1 energy=-345.01351852368066 field_type=dipole dipole="0.000000 0.000000 0.000000" charge=0
C	-1.075068	-1.178743	1.218930	6
C	-0.890558	-0.875203	-0.264160	6
C	-0.520108	0.580197	-0.555130	6
O	-1.498178	1.449287	0.009250	8