47
Properties=species:S:1:pos:R:3:Z:I:1 energy=-309.12056499546105 field_type=dipole dipole="0.000000 0.000000 0.000000" charge=0
C	-2.675912	1.508807	-0.559042	6
C	-1.562783	0.834667	0.217318	6
O	-0.996662	-0.187943	-0.597502	8
C	0.074068	-0.891693	0.059598	6
C	1.049408	-1.568683	-0.866742	6
C	1.453748	-0.319283	-0.133182	6
C	2.445047	-0.377873	0.977098	6
H	-3.130572	2.311857	0.028208	1
H	-3.451882	0.784357	-0.827462	1
H	-2.293902	1.928307	-1.495852	1
H	-1.960083	0.393507	1.137508	1
H	-0.790883	1.568017	0.475968	1
H	-0.152092	-1.411383	0.985788	1
H	0.865767	-1.496313	-1.932202	1
H	1.465768	-2.518133	-0.552622	1
H	1.544998	0.595357	-0.708842	1
H	2.404808	-1.329583	1.515408	1
H	2.253668	0.427067	1.692828	1
H	3.457498	-0.251063	0.583728	1
Es	-1.185707	0.190061	-0.261417	99
Es	-1.835644	0.531536	0.858256	99
Es	2.312846	0.172101	1.464346	99
Es	-2.675894	1.508805	-0.559016	99
Es	0.725646	-0.460567	0.100691	99
Es	-1.223096	-0.393148	-0.642800	99
Es	-0.996571	-0.187894	-0.597224	99
Es	0.074036	-0.891583	0.059398	99
Es	-0.084256	-1.235305	0.697707	99
Es	2.411286	-1.030228	1.341737	99
Es	-2.411949	1.798018	-1.190429	99
Es	-1.562720	0.834518	0.217172	99
Es	1.946251	-0.365431	0.425491	99
Es	-2.980173	2.054671	-0.151680	99
Es	1.423441	-0.961265	-0.582876	99
Es	0.437850	-1.366231	-0.443044	99
Es	0.924241	-1.517060	-1.582024	99
Es	-1.029813	1.342917	0.401240	99
Es	3.134218	-0.292475	0.707751	99
Es	1.049372	-1.568564	-0.866619	99
Es	1.453674	-0.319428	-0.133202	99
Es	-0.594347	-0.439038	-0.314862	99
Es	-2.122038	1.173204	-0.172094	99
Es	1.335794	-2.209865	-0.644639	99
Es	1.505585	0.298360	-0.526570	99
Es	-3.203732	1.016617	-0.734026	99
Es	-0.859652	-0.042719	-0.829695	99
Es	2.445036	-0.377875	0.977089	99
47
Properties=species:S:1:pos:R:3:Z:I:1 energy=-309.12056499546105 field_type=dipole dipole="0.000000 0.000000 0.000000" charge=0
C	-2.675912	1.508807	-0.559042	6
C	-1.562783	0.834667	0.217318	6
O	-0.996662	-0.187943	-0.597502	8
C	0.074068	-0.891693	0.059598	6
C	1.049408	-1.568683	-0.866742	6
C	1.453748	-0.319283	-0.133182	6
C	2.445047	-0.377873	0.977098	6
H	-3.130572	2.311857	0.028208	1
H	-3.451882	0.784357	-0.827462	1
H	-2.293902	1.928307	-1.495852	1
H	-1.960083	0.393507	1.137508	1
H	-0.790883	1.568017	0.475968	1
H	-0.152092	-1.411383	0.985788	1
H	0.865767	-1.496313	-1.932202	1
H	1.465768	-2.518133	-0.552622	1
H	1.544998	0.595357	-0.708842	1
H	2.404808	-1.329583	1.515408	1
H	2.253668	0.427067	1.692828	1
H	3.457498	-0.251063	0.583728	1
Es	-0.861047	-0.045306	-0.830245	99
Es	2.312054	0.172910	1.465161	99
Es	1.505734	0.298185	-0.525768	99
Es	1.049368	-1.568561	-0.866615	99
Es	-3.203423	1.015735	-0.734433	99
Es	-2.675888	1.508801	-0.559009	99
Es	0.437049	-1.367442	-0.443636	99
Es	3.134590	-0.292993	0.706991	99
Es	-1.029746	1.343677	0.401308	99
Es	-0.084205	-1.234661	0.697455	99
Es	2.445034	-0.377878	0.977089	99
Es	-2.122340	1.173088	-0.172713	99
Es	-1.185190	0.192250	-0.260957	99
Es	-0.996611	-0.187925	-0.597110	99
Es	0.924647	-1.517197	-1.581275	99
Es	2.410916	-1.029859	1.340754	99
Es	-2.411382	1.797341	-1.189813	99
Es	-1.222677	-0.395087	-0.640947	99
Es	-0.593688	-0.436893	-0.316724	99
Es	-1.562719	0.834516	0.217170	99
Es	0.074039	-0.891587	0.059392	99
Es	1.335730	-2.209668	-0.645176	99
Es	-2.980258	2.055746	-0.150726	99
Es	-1.836165	0.531622	0.858012	99
Es	1.424860	-0.961810	-0.583855	99
Es	1.946325	-0.365628	0.425710	99
Es	0.725020	-0.459819	0.101816	99
Es	1.453656	-0.319424	-0.133193	99
47
Properties=species:S:1:pos:R:3:Z:I:1 energy=-309.12056499546105 field_type=dipole dipole="0.000000 0.000000 0.000000" charge=0
C	-2.675912	1.508807	-0.559042	6
C	-1.562783	0.834667	0.217318	6
O	-0.996662	-0.187943	-0.597502	8
C	0.074068	-0.891693	0.059598	6
C	1.049408	-1.568683	-0.866742	6
C	1.453748	-0.319283	-0.133182	6
C	2.445047	-0.377873	0.977098	6
H	-3.130572	2.311857	0.028208	1
H	-3.451882	0.784357	-0.827462	1
H	-2.293902	1.928307	-1.495852	1
H	-1.960083	0.393507	1.137508	1
H	-0.790883	1.568017	0.475968	1
H	-0.152092	-1.411383	0.985788	1
H	0.865767	-1.496313	-1.932202	1
H	1.465768	-2.518133	-0.552622	1
H	1.544998	0.595357	-0.708842	1
H	2.404808	-1.329583	1.515408	1
H	2.253668	0.427067	1.692828	1
H	3.457498	-0.251063	0.583728	1
Es	-0.084183	-1.234355	0.697199	99
Es	-1.223207	-0.397014	-0.646068	99
Es	1.049372	-1.568567	-0.866621	99
Es	0.924952	-1.517240	-1.580705	99
Es	1.505895	0.298080	-0.525334	99
Es	-0.594990	-0.436156	-0.317051	99
Es	3.135020	-0.293385	0.706501	99
Es	1.453659	-0.319417	-0.133190	99
Es	-0.858236	-0.043599	-0.825876	99
Es	0.074040	-0.891587	0.059392	99
Es	-2.980324	2.056386	-0.150268	99
Es	-1.562719	0.834517	0.217169	99
Es	-2.410982	1.796837	-1.189595	99
Es	1.425776	-0.962422	-0.584583	99
Es	1.946315	-0.365663	0.425771	99
Es	2.445035	-0.377875	0.977089	99
Es	2.410506	-1.029506	1.340047	99
Es	-0.996547	-0.187849	-0.597177	99
Es	-3.203159	1.015223	-0.734509	99
Es	-1.836531	0.531711	0.857809	99
Es	-2.675894	1.508806	-0.559015	99
Es	0.724621	-0.459218	0.102750	99
Es	2.311474	0.173289	1.465670	99
Es	-1.186071	0.191458	-0.259684	99
Es	1.335784	-2.209545	-0.645548	99
Es	0.436367	-1.368002	-0.443924	99
Es	-2.122573	1.173045	-0.172950	99
Es	-1.029718	1.344178	0.401363	99
47
Properties=species:S:1:pos:R:3:Z:I:1 energy=-309.12056499546105 field_type=dipole dipole="0.000000 0.000000 0.000000" charge=0
C	-2.675912	1.508807	-0.559042	6
C	-1.562783	0.834667	0.217318	6
O	-0.996662	-0.187943	-0.597502	8
C	0.074068	-0.891693	0.059598	6
C	1.049408	-1.568683	-0.866742	6
C	1.453748	-0.319283	-0.133182	6
C	2.445047	-0.377873	0.977098	6
H	-3.130572	2.311857	0.028208	1
H	-3.451882	0.784357	-0.827462	1
H	-2.293902	1.928307	-1.495852	1
H	-1.960083	0.393507	1.137508	1
H	-0.790883	1.568017	0.475968	1
H	-0.152092	-1.411383	0.985788	1
H	0.865767	-1.496313	-1.932202	1
H	1.465768	-2.518133	-0.552622	1
H	1.544998	0.595357	-0.708842	1
H	2.404808	-1.329583	1.515408	1
H	2.253668	0.427067	1.692828	1
H	3.457498	-0.251063	0.583728	1
Es	-0.859045	-0.044899	-0.825869	99
Es	-1.836705	0.531745	0.857787	99
Es	-1.029748	1.344644	0.401227	99
Es	-2.980244	2.056749	-0.149742	99
Es	-1.222812	-0.397801	-0.645289	99
Es	2.445035	-0.377877	0.977090	99
Es	1.049370	-1.568569	-0.866620	99
Es	1.453656	-0.319426	-0.133194	99
Es	2.311060	0.173494	1.465884	99
Es	1.335639	-2.209503	-0.645717	99
Es	-1.562717	0.834512	0.217169	99
Es	1.426795	-0.962556	-0.585233	99
Es	0.925063	-1.517375	-1.580323	99
Es	-2.675896	1.508806	-0.559017	99
Es	-0.594665	-0.435225	-0.317923	99
Es	0.074033	-0.891587	0.059392	99
Es	0.436024	-1.368057	-0.443963	99
Es	-3.203001	1.014893	-0.734539	99
Es	-1.185954	0.192578	-0.259549	99
Es	1.506015	0.297987	-0.524921	99
Es	-2.122810	1.172826	-0.173277	99
Es	0.724141	-0.459092	0.103322	99
Es	-0.996565	-0.187858	-0.597208	99
Es	-0.084151	-1.234207	0.697048	99
Es	2.410388	-1.029509	1.339683	99
Es	1.946388	-0.365761	0.425809	99
Es	3.135140	-0.293388	0.706105	99
Es	-2.410753	1.796589	-1.189472	99
47
Properties=species:S:1:pos:R:3:Z:I:1 energy=-309.12056499546105 field_type=dipole dipole="0.000000 0.000000 0.000000" charge=0
C	-2.675912	1.508807	-0.559042	6
C	-1.562783	0.834667	0.217318	6
O	-0.996662	-0.187943	-0.597502	8
C	0.074068	-0.891693	0.059598	6
C	1.049408	-1.568683	-0.866742	6
C	1.453748	-0.319283	-0.133182	6
C	2.445047	-0.377873	0.977098	6
H	-3.130572	2.311857	0.028208	1
H	-3.451882	0.784357	-0.827462	1
H	-2.293902	1.928307	-1.495852	1
H	-1.960083	0.393507	1.137508	1
H	-0.790883	1.568017	0.475968	1
H	-0.152092	-1.411383	0.985788	1
H	0.865767	-1.496313	-1.932202	1
H	1.465768	-2.518133	-0.552622	1
H	1.544998	0.595357	-0.708842	1
H	2.404808	-1.329583	1.515408	1
H	2.253668	0.427067	1.692828	1
H	3.457498	-0.251063	0.583728	1
Es	0.435774	-1.368423	-0.444137	99
Es	-0.084190	-1.234053	0.696922	99
Es	-1.562718	0.834517	0.217169	99
Es	-0.996583	-0.187863	-0.597195	99
Es	1.427092	-0.962822	-0.585602	99
Es	1.335785	-2.209491	-0.646017	99
Es	-1.222626	-0.399038	-0.642523	99
Es	1.453657	-0.319427	-0.133196	99
Es	-3.202891	1.014504	-0.734633	99
Es	1.049375	-1.568566	-0.866624	99
Es	-1.185212	0.193674	-0.259709	99
Es	-0.593119	-0.433601	-0.319390	99
Es	-2.122576	1.173004	-0.173488	99
Es	0.723938	-0.458608	0.103868	99
Es	-2.675894	1.508805	-0.559015	99
Es	0.925162	-1.517334	-1.579872	99
Es	-1.837145	0.531766	0.857602	99
Es	-1.029732	1.344833	0.401405	99
Es	-0.861384	-0.046554	-0.827079	99
Es	3.135293	-0.293700	0.705823	99
Es	1.506164	0.297937	-0.524713	99
Es	0.074035	-0.891591	0.059390	99
Es	-2.410673	1.796454	-1.189239	99
Es	2.445036	-0.377876	0.977089	99
Es	2.310830	0.173797	1.466026	99
Es	-2.980246	2.056970	-0.149515	99
Es	1.946459	-0.365796	0.425904	99
Es	2.410071	-1.029384	1.339411	99
47
Properties=species:S:1:pos:R:3:Z:I:1 energy=-309.12056499546105 field_type=dipole dipole="0.000000 0.000000 0.000000" charge=0
C	-2.675912	1.508807	-0.559042	6
C	-1.562783	0.834667	0.217318	6
O	-0.996662	-0.187943	-0.597502	8
C	0.074068	-0.891693	0.059598	6
C	1.049408	-1.568683	-0.866742	6
C	1.453748	-0.319283	-0.133182	6
C	2.445047	-0.377873	0.977098	6
H	-3.130572	2.311857	0.028208	1
H	-3.451882	0.784357	-0.827462	1
H	-2.293902	1.928307	-1.495852	1
H	-1.960083	0.393507	1.137508	1
H	-0.790883	1.568017	0.475968	1
H	-0.152092	-1.411383	0.985788	1
H	0.865767	-1.496313	-1.932202	1
H	1.465768	-2.518133	-0.552622	1
H	1.544998	0.595357	-0.708842	1
H	2.404808	-1.329583	1.515408	1
H	2.253668	0.427067	1.692828	1
H	3.457498	-0.251063	0.583728	1
Es	2.409885	-1.029213	1.339140	99
Es	-2.980229	2.057222	-0.149261	99
Es	1.506243	0.297842	-0.524474	99
Es	0.723646	-0.458420	0.104345	99
Es	2.445036	-0.377876	0.977089	99
Es	-1.222395	-0.399211	-0.645804	99
Es	0.925263	-1.517333	-1.579504	99
Es	1.946518	-0.365876	0.425922	99
Es	1.049370	-1.568564	-0.866620	99
Es	1.335659	-2.209557	-0.646198	99
Es	-0.594676	-0.433910	-0.318713	99
Es	-1.186230	0.192944	-0.259097	99
Es	2.310572	0.173905	1.466180	99
Es	-1.837244	0.531807	0.857518	99
Es	-0.996582	-0.187863	-0.597150	99
Es	0.074035	-0.891589	0.059398	99
Es	-2.122752	1.172815	-0.173620	99
Es	-0.084156	-1.233965	0.696722	99
Es	-2.410503	1.796267	-1.189074	99
Es	-3.202795	1.014401	-0.734762	99
Es	-2.675884	1.508802	-0.559011	99
Es	1.427650	-0.962905	-0.585954	99
Es	-0.859006	-0.045355	-0.825020	99
Es	0.435566	-1.368561	-0.444369	99
Es	3.135491	-0.293853	0.705619	99
Es	1.453662	-0.319420	-0.133193	99
Es	-1.562719	0.834514	0.217168	99
Es	-1.029744	1.345084	0.401384	99
47
Properties=species:S:1:pos:R:3:Z:I:1 energy=-309.12056499546105 field_type=dipole dipole="0.000000 0.000000 0.000000" charge=0
C	-2.675912	1.508807	-0.559042	6
C	-1.562783	0.834667	0.217318	6
O	-0.996662	-0.187943	-0.597502	8
C	0.074068	-0.891693	0.059598	6
C	1.049408	-1.568683	-0.866742	6
C	1.453748	-0.319283	-0.133182	6
C	2.445047	-0.377873	0.977098	6
H	-3.130572	2.311857	0.028208	1
H	-3.451882	0.784357	-0.827462	1
H	-2.293902	1.928307	-1.495852	1
H	-1.960083	0.393507	1.137508	1
H	-0.790883	1.568017	0.475968	1
H	-0.152092	-1.411383	0.985788	1
H	0.865767	-1.496313	-1.932202	1
H	1.465768	-2.518133	-0.552622	1
H	1.544998	0.595357	-0.708842	1
H	2.404808	-1.329583	1.515408	1
H	2.253668	0.427067	1.692828	1
H	3.457498	-0.251063	0.583728	1
Es	-1.029756	1.345221	0.401392	99
Es	1.049371	-1.568564	-0.866618	99
Es	0.925326	-1.517332	-1.579375	99
Es	-1.222713	-0.400683	-0.642526	99
Es	-0.861939	-0.047337	-0.826329	99
Es	-2.675895	1.508806	-0.559016	99
Es	0.435506	-1.368555	-0.444454	99
Es	0.723345	-0.458269	0.104678	99
Es	3.135544	-0.293948	0.705379	99
Es	1.506357	0.297797	-0.524384	99
Es	2.409778	-1.029165	1.338998	99
Es	-1.562719	0.834515	0.217168	99
Es	-1.837390	0.531843	0.857460	99
Es	-2.410376	1.796052	-1.189110	99
Es	-0.084165	-1.233961	0.696642	99
Es	-0.592799	-0.431920	-0.320089	99
Es	2.310425	0.174046	1.466248	99
Es	1.453656	-0.319430	-0.133197	99
Es	1.428033	-0.963133	-0.586125	99
Es	1.335661	-2.209512	-0.646308	99
Es	1.946464	-0.365878	0.426033	99
Es	-0.996446	-0.187785	-0.597176	99
Es	-3.202732	1.014234	-0.734633	99
Es	0.074038	-0.891593	0.059389	99
Es	-2.122817	1.172870	-0.173682	99
Es	-2.980171	2.057429	-0.149156	99
Es	-1.184939	0.194261	-0.259639	99
Es	2.445035	-0.377875	0.977089	99
47
Properties=species:S:1:pos:R:3:Z:I:1 energy=-309.12056499546105 field_type=dipole dipole="0.000000 0.000000 0.000000" charge=0
C	-2.675912	1.508807	-0.559042	6
C	-1.562783	0.834667	0.217318	6
O	-0.996662	-0.187943	-0.597502	8
C	0.074068	-0.891693	0.059598	6
C	1.049408	-1.568683	-0.866742	6
C	1.453748	-0.319283	-0.133182	6
C	2.445047	-0.377873	0.977098	6
H	-3.130572	2.311857	0.028208	1
H	-3.451882	0.784357	-0.827462	1
H	-2.293902	1.928307	-1.495852	1
H	-1.960083	0.393507	1.137508	1
H	-0.790883	1.568017	0.475968	1
H	-0.152092	-1.411383	0.985788	1
H	0.865767	-1.496313	-1.932202	1
H	1.465768	-2.518133	-0.552622	1
H	1.544998	0.595357	-0.708842	1
H	2.404808	-1.329583	1.515408	1
H	2.253668	0.427067	1.692828	1
H	3.457498	-0.251063	0.583728	1
Es	1.049372	-1.568566	-0.866621	99
Es	-0.084081	-1.233779	0.696571	99
Es	-1.562719	0.834515	0.217168	99
Es	0.723406	-0.458199	0.104773	99
Es	-1.837395	0.531799	0.857481	99
Es	1.428280	-0.963179	-0.586337	99
Es	0.925383	-1.517353	-1.579198	99
Es	-2.410245	1.796081	-1.188917	99
Es	-2.980214	2.057474	-0.148910	99
Es	0.074035	-0.891588	0.059392	99
Es	-2.675895	1.508806	-0.559016	99
Es	1.506394	0.297791	-0.524222	99
Es	-2.123012	1.173041	-0.173907	99
Es	-0.996547	-0.187840	-0.597229	99
Es	-1.222344	-0.400908	-0.644829	99
Es	1.453653	-0.319429	-0.133195	99
Es	3.135580	-0.294001	0.705193	99
Es	2.409678	-1.029178	1.338797	99
Es	-1.185934	0.193537	-0.259053	99
Es	-3.202599	1.013929	-0.734790	99
Es	0.435170	-1.368857	-0.444352	99
Es	-1.029785	1.345287	0.401367	99
Es	2.445035	-0.377875	0.977089	99
Es	-0.593499	-0.432063	-0.319946	99
Es	2.310203	0.174187	1.466345	99
Es	1.335756	-2.209445	-0.646414	99
Es	1.946555	-0.365905	0.426132	99
Es	-0.860550	-0.046148	-0.824710	99
47
Properties=species:S:1:pos:R:3:Z:I:1 energy=-309.12056499546105 field_type=dipole dipole="0.000000 0.000000 0.000000" charge=0
C	-2.675912	1.508807	-0.559042	6
C	-1.562783	0.834667	0.217318	6
O	-0.996662	-0.187943	-0.597502	8
C	0.074068	-0.891693	0.059598	6
C	1.049408	-1.568683	-0.866742	6
C	1.453748	-0.319283	-0.133182	6
C	2.445047	-0.377873	0.977098	6
H	-3.130572	2.311857	0.028208	1
H	-3.451882	0.784357	-0.827462	1
H	-2.293902	1.928307	-1.495852	1
H	-1.960083	0.393507	1.137508	1
H	-0.790883	1.568017	0.475968	1
H	-0.152092	-1.411383	0.985788	1
H	0.865767	-1.496313	-1.932202	1
H	1.465768	-2.518133	-0.552622	1
H	1.544998	0.595357	-0.708842	1
H	2.404808	-1.329583	1.515408	1
H	2.253668	0.427067	1.692828	1
H	3.457498	-0.251063	0.583728	1
Es	-1.222179	-0.401027	-0.645834	99
Es	-1.029743	1.345431	0.401405	99
Es	-1.186303	0.193054	-0.258532	99
Es	1.428355	-0.963223	-0.586466	99
Es	0.435019	-1.368963	-0.444548	99
Es	-1.837618	0.531868	0.857376	99
Es	-2.410173	1.795833	-1.188880	99
Es	-2.980183	2.057718	-0.148884	99
Es	-1.562718	0.834515	0.217167	99
Es	-0.859875	-0.045594	-0.824175	99
Es	-0.084073	-1.233700	0.696574	99
Es	1.506458	0.297704	-0.524159	99
Es	1.049371	-1.568565	-0.866619	99
Es	1.946542	-0.365928	0.426111	99
Es	2.310131	0.174213	1.466379	99
Es	2.445033	-0.377877	0.977089	99
Es	1.335755	-2.209458	-0.646418	99
Es	1.453659	-0.319424	-0.133194	99
Es	-2.675895	1.508806	-0.559016	99
Es	0.925497	-1.517407	-1.579002	99
Es	-3.202564	1.013912	-0.734758	99
Es	3.135689	-0.294088	0.705061	99
Es	-2.122927	1.172939	-0.173921	99
Es	0.074039	-0.891589	0.059391	99
Es	-0.996555	-0.187855	-0.597181	99
Es	-0.593964	-0.432097	-0.320010	99
Es	2.409587	-1.029059	1.338718	99
Es	0.723318	-0.458004	0.104988	99
47
Properties=species:S:1:pos:R:3:Z:I:1 energy=-309.12056499546105 field_type=dipole dipole="0.000000 0.000000 0.000000" charge=0
C	-2.675912	1.508807	-0.559042	6
C	-1.562783	0.834667	0.217318	6
O	-0.996662	-0.187943	-0.597502	8
C	0.074068	-0.891693	0.059598	6
C	1.049408	-1.568683	-0.866742	6
C	1.453748	-0.319283	-0.133182	6
C	2.445047	-0.377873	0.977098	6
H	-3.130572	2.311857	0.028208	1
H	-3.451882	0.784357	-0.827462	1
H	-2.293902	1.928307	-1.495852	1
H	-1.960083	0.393507	1.137508	1
H	-0.790883	1.568017	0.475968	1
H	-0.152092	-1.411383	0.985788	1
H	0.865767	-1.496313	-1.932202	1
H	1.465768	-2.518133	-0.552622	1
H	1.544998	0.595357	-0.708842	1
H	2.404808	-1.329583	1.515408	1
H	2.253668	0.427067	1.692828	1
H	3.457498	-0.251063	0.583728	1
Es	0.925532	-1.517371	-1.578948	99
Es	-0.857316	-0.044433	-0.819219	99
Es	-3.202506	1.013802	-0.734670	99
Es	0.435004	-1.368815	-0.444485	99
Es	-1.837730	0.531865	0.857437	99
Es	-0.996612	-0.187863	-0.597332	99
Es	-1.187263	0.192743	-0.258532	99
Es	1.946487	-0.365955	0.426114	99
Es	-1.029814	1.345492	0.401347	99
Es	1.428614	-0.963412	-0.586661	99
Es	-0.084085	-1.233694	0.696598	99
Es	-0.595050	-0.432874	-0.319190	99
Es	2.409432	-1.029106	1.338560	99
Es	1.049371	-1.568561	-0.866618	99
Es	-2.410105	1.795835	-1.188956	99
Es	-1.222564	-0.401099	-0.651496	99
Es	1.335753	-2.209447	-0.646497	99
Es	3.135760	-0.294116	0.704924	99
Es	-1.562719	0.834516	0.217168	99
Es	2.310045	0.174214	1.466456	99
Es	0.723033	-0.457964	0.105157	99
Es	-2.122920	1.172998	-0.173987	99
Es	1.453657	-0.319424	-0.133194	99
Es	1.506655	0.297752	-0.524033	99
Es	2.445035	-0.377875	0.977089	99
Es	-2.675895	1.508806	-0.559016	99
Es	-2.980151	2.057708	-0.148747	99
Es	0.074034	-0.891589	0.059392	99
47
Properties=species:S:1:pos:R:3:Z:I:1 energy=-309.12056499546105 field_type=dipole dipole="0.000000 0.000000 0.000000" charge=0
C	-2.675912	1.508807	-0.559042	6
C	-1.562783	0.834667	0.217318	6
O	-0.996662	-0.187943	-0.597502	8
C	0.074068	-0.891693	0.059598	6
C	1.049408	-1.568683	-0.866742	6
C	1.453748	-0.319283	-0.133182	6
C	2.445047	-0.377873	0.977098	6
H	-3.130572	2.311857	0.028208	1
H	-3.451882	0.784357	-0.827462	1
H	-2.293902	1.928307	-1.495852	1
H	-1.960083	0.393507	1.137508	1
H	-0.790883	1.568017	0.475968	1
H	-0.152092	-1.411383	0.985788	1
H	0.865767	-1.496313	-1.932202	1
H	1.465768	-2.518133	-0.552622	1
H	1.544998	0.595357	-0.708842	1
H	2.404808	-1.329583	1.515408	1
H	2.253668	0.427067	1.692828	1
H	3.457498	-0.251063	0.583728	1
Es	-2.675895	1.508802	-0.559015	99
Es	0.723145	-0.457896	0.105435	99
Es	3.135707	-0.294165	0.704815	99
Es	-0.593601	-0.431501	-0.320477	99
Es	1.506543	0.297757	-0.524000	99
Es	-1.221731	-0.401885	-0.649838	99
Es	-1.187662	0.191876	-0.257678	99
Es	-1.562719	0.834516	0.217168	99
Es	1.335778	-2.209497	-0.646533	99
Es	-0.084063	-1.233621	0.696495	99
Es	1.453659	-0.319425	-0.133194	99
Es	-0.996642	-0.187931	-0.597029	99
Es	-1.029772	1.345569	0.401373	99
Es	-2.123012	1.172916	-0.173959	99
Es	0.074040	-0.891593	0.059388	99
Es	-2.980114	2.057853	-0.148788	99
Es	2.409494	-1.029046	1.338541	99
Es	0.434844	-1.369032	-0.444648	99
Es	-1.837842	0.531919	0.857366	99
Es	-2.409924	1.795688	-1.188893	99
Es	2.445035	-0.377875	0.977089	99
Es	-3.202542	1.013818	-0.734720	99
Es	1.049369	-1.568563	-0.866621	99
Es	1.428692	-0.963382	-0.586720	99
Es	0.925604	-1.517391	-1.578731	99
Es	-0.859192	-0.044133	-0.820671	99
Es	2.309882	0.174413	1.466444	99
Es	1.946601	-0.366056	0.426062	99
