41
Properties=species:S:1:pos:R:3:Z:I:1 energy=-306.7628478521273 field_type=dipole dipole="0.000000 0.000000 0.000000" charge=0
C	-2.214461	-1.843856	0.186418	6
C	-1.026241	-1.359986	-0.180492	6
O	-0.617331	-0.095726	0.166518	8
C	0.488389	0.479514	-0.440852	6
C	0.770269	0.357264	-1.747992	6
C	1.291299	1.327264	0.421318	6
C	1.101169	1.504744	1.736628	6
H	-2.515081	-2.849266	-0.085132	1
H	-2.906171	-1.239356	0.763438	1
H	-0.305001	-1.937106	-0.742672	1
H	0.138829	-0.223066	-2.411692	1
H	1.624859	0.852154	-2.197792	1
H	2.116309	1.859564	-0.048822	1
H	0.301819	1.006564	2.276278	1
H	1.751349	2.161294	2.304848	1
Es	0.770294	0.357229	-1.748047	99
Es	-2.413933	-2.520746	0.005566	99
Es	0.469066	0.680997	-1.178271	99
Es	0.346701	-0.038982	-2.194389	99
Es	0.991827	1.649355	0.991636	99
Es	-1.780348	-1.510861	-0.278200	99
Es	0.833800	0.153454	-1.035326	99
Es	-0.533787	-1.742790	-0.562959	99
Es	-0.182902	0.067098	-0.083500	99
Es	1.101163	1.504763	1.736707	99
Es	-0.738299	-0.568441	-0.007821	99
Es	-2.214513	-1.843887	0.186443	99
Es	-0.617094	-0.095810	0.166272	99
Es	1.383716	1.153882	1.117676	99
Es	1.539573	1.948631	2.123787	99
Es	-1.026042	-1.359682	-0.180459	99
Es	-1.512152	-1.731491	0.284822	99
Es	0.568773	1.175111	2.105412	99
Es	1.844813	1.679718	0.088964	99
Es	0.878848	0.895128	0.001725	99
Es	-0.564590	-0.129311	0.453409	99
Es	0.488155	0.479418	-0.440607	99
Es	1.347187	0.689009	-2.045576	99
Es	1.291289	1.327231	0.421195	99
Es	-0.812732	0.072730	0.068236	99
Es	-2.682827	-1.441135	0.573330	99
41
Properties=species:S:1:pos:R:3:Z:I:1 energy=-306.7628478521273 field_type=dipole dipole="0.000000 0.000000 0.000000" charge=0
C	-2.214461	-1.843856	0.186418	6
C	-1.026241	-1.359986	-0.180492	6
O	-0.617331	-0.095726	0.166518	8
C	0.488389	0.479514	-0.440852	6
C	0.770269	0.357264	-1.747992	6
C	1.291299	1.327264	0.421318	6
C	1.101169	1.504744	1.736628	6
H	-2.515081	-2.849266	-0.085132	1
H	-2.906171	-1.239356	0.763438	1
H	-0.305001	-1.937106	-0.742672	1
H	0.138829	-0.223066	-2.411692	1
H	1.624859	0.852154	-2.197792	1
H	2.116309	1.859564	-0.048822	1
H	0.301819	1.006564	2.276278	1
H	1.751349	2.161294	2.304848	1
Es	1.539810	1.948560	2.123354	99
Es	0.469508	0.679091	-1.178242	99
Es	-0.614992	-0.080692	0.488055	99
Es	-1.511859	-1.735458	0.282672	99
Es	-1.026045	-1.359683	-0.180467	99
Es	1.382321	1.155545	1.117371	99
Es	-0.617009	-0.095968	0.166276	99
Es	1.845871	1.679538	0.089040	99
Es	-2.214511	-1.843883	0.186440	99
Es	0.488155	0.479419	-0.440607	99
Es	1.348275	0.689016	-2.045137	99
Es	1.101164	1.504763	1.736711	99
Es	0.567702	1.174901	2.105642	99
Es	-0.183887	0.072081	-0.089308	99
Es	0.879387	0.895143	0.002046	99
Es	0.770302	0.357221	-1.748053	99
Es	-0.750763	0.013090	0.048038	99
Es	-1.781249	-1.507501	-0.277564	99
Es	1.291290	1.327230	0.421189	99
Es	0.831518	0.155121	-1.036507	99
Es	-2.680165	-1.443814	0.580488	99
Es	-2.413262	-2.518799	0.005970	99
Es	0.993271	1.648531	0.991869	99
Es	0.346400	-0.039765	-2.194453	99
Es	-0.536468	-1.740624	-0.568733	99
Es	-0.748778	-0.562444	-0.016064	99
41
Properties=species:S:1:pos:R:3:Z:I:1 energy=-306.7628478521273 field_type=dipole dipole="0.000000 0.000000 0.000000" charge=0
C	-2.214461	-1.843856	0.186418	6
C	-1.026241	-1.359986	-0.180492	6
O	-0.617331	-0.095726	0.166518	8
C	0.488389	0.479514	-0.440852	6
C	0.770269	0.357264	-1.747992	6
C	1.291299	1.327264	0.421318	6
C	1.101169	1.504744	1.736628	6
H	-2.515081	-2.849266	-0.085132	1
H	-2.906171	-1.239356	0.763438	1
H	-0.305001	-1.937106	-0.742672	1
H	0.138829	-0.223066	-2.411692	1
H	1.624859	0.852154	-2.197792	1
H	2.116309	1.859564	-0.048822	1
H	0.301819	1.006564	2.276278	1
H	1.751349	2.161294	2.304848	1
Es	1.540123	1.948305	2.123095	99
Es	-2.678381	-1.445616	0.585157	99
Es	-2.214508	-1.843891	0.186453	99
Es	-0.188038	0.076227	-0.096169	99
Es	-2.412304	-2.516686	0.006360	99
Es	1.381723	1.155841	1.117118	99
Es	0.345906	-0.039676	-2.194569	99
Es	1.101163	1.504764	1.736711	99
Es	0.879551	0.895084	0.002070	99
Es	0.994013	1.648367	0.992165	99
Es	-0.638115	-0.061653	0.493835	99
Es	-0.707017	-0.022952	0.062637	99
Es	-0.764786	-0.550137	-0.029287	99
Es	1.846159	1.679402	0.089166	99
Es	1.291296	1.327222	0.421191	99
Es	-0.617152	-0.095907	0.166243	99
Es	0.830504	0.155345	-1.036953	99
Es	1.348490	0.688969	-2.045031	99
Es	-0.538537	-1.739166	-0.572420	99
Es	0.770298	0.357228	-1.748056	99
Es	0.488152	0.479411	-0.440603	99
Es	0.469992	0.678507	-1.178336	99
Es	-1.026053	-1.359687	-0.180467	99
Es	0.567342	1.174986	2.105877	99
Es	-1.512295	-1.737727	0.280977	99
Es	-1.781542	-1.505945	-0.277135	99
41
Properties=species:S:1:pos:R:3:Z:I:1 energy=-306.7628478521273 field_type=dipole dipole="0.000000 0.000000 0.000000" charge=0
C	-2.214461	-1.843856	0.186418	6
C	-1.026241	-1.359986	-0.180492	6
O	-0.617331	-0.095726	0.166518	8
C	0.488389	0.479514	-0.440852	6
C	0.770269	0.357264	-1.747992	6
C	1.291299	1.327264	0.421318	6
C	1.101169	1.504744	1.736628	6
H	-2.515081	-2.849266	-0.085132	1
H	-2.906171	-1.239356	0.763438	1
H	-0.305001	-1.937106	-0.742672	1
H	0.138829	-0.223066	-2.411692	1
H	1.624859	0.852154	-2.197792	1
H	2.116309	1.859564	-0.048822	1
H	0.301819	1.006564	2.276278	1
H	1.751349	2.161294	2.304848	1
Es	0.470211	0.678271	-1.178504	99
Es	-0.194857	0.082214	-0.103689	99
Es	-2.411356	-2.514798	0.006954	99
Es	1.846305	1.679145	0.089294	99
Es	-0.647950	-0.054170	0.495246	99
Es	1.101165	1.504762	1.736712	99
Es	-2.676607	-1.447035	0.588809	99
Es	-1.781368	-1.505120	-0.276874	99
Es	0.879755	0.895158	0.002047	99
Es	1.381566	1.155895	1.117335	99
Es	-0.783812	-0.530927	-0.043409	99
Es	1.348656	0.688769	-2.044649	99
Es	-2.214509	-1.843889	0.186441	99
Es	0.488156	0.479418	-0.440606	99
Es	-1.026050	-1.359686	-0.180465	99
Es	-0.616930	-0.096030	0.166279	99
Es	-1.513436	-1.739073	0.279370	99
Es	0.770297	0.357230	-1.748057	99
Es	1.291290	1.327227	0.421190	99
Es	-0.540274	-1.738125	-0.575125	99
Es	0.829662	0.155449	-1.037215	99
Es	0.994218	1.648532	0.991961	99
Es	-0.671304	-0.056063	0.082894	99
Es	0.567209	1.175053	2.106014	99
Es	1.540144	1.948146	2.122964	99
Es	0.345804	-0.039736	-2.194890	99
41
Properties=species:S:1:pos:R:3:Z:I:1 energy=-306.7628478521273 field_type=dipole dipole="0.000000 0.000000 0.000000" charge=0
C	-2.214461	-1.843856	0.186418	6
C	-1.026241	-1.359986	-0.180492	6
O	-0.617331	-0.095726	0.166518	8
C	0.488389	0.479514	-0.440852	6
C	0.770269	0.357264	-1.747992	6
C	1.291299	1.327264	0.421318	6
C	1.101169	1.504744	1.736628	6
H	-2.515081	-2.849266	-0.085132	1
H	-2.906171	-1.239356	0.763438	1
H	-0.305001	-1.937106	-0.742672	1
H	0.138829	-0.223066	-2.411692	1
H	1.624859	0.852154	-2.197792	1
H	2.116309	1.859564	-0.048822	1
H	0.301819	1.006564	2.276278	1
H	1.751349	2.161294	2.304848	1
Es	0.488152	0.479414	-0.440604	99
Es	0.770297	0.357230	-1.748058	99
Es	1.348683	0.688825	-2.044351	99
Es	0.469842	0.677393	-1.178056	99
Es	-0.651915	-0.077292	0.092782	99
Es	1.846385	1.679164	0.089321	99
Es	1.540317	1.948084	2.122875	99
Es	-1.514737	-1.740416	0.277925	99
Es	-2.410848	-2.513077	0.007313	99
Es	0.345683	-0.039976	-2.195137	99
Es	-0.792505	-0.518924	-0.049722	99
Es	1.381257	1.156348	1.117284	99
Es	0.994514	1.648317	0.992004	99
Es	0.567055	1.175034	2.106082	99
Es	0.829746	0.156173	-1.037939	99
Es	-0.654916	-0.047682	0.494977	99
Es	0.879883	0.895023	0.002135	99
Es	-0.542177	-1.737009	-0.577704	99
Es	-1.026056	-1.359682	-0.180479	99
Es	-2.214508	-1.843887	0.186444	99
Es	1.291293	1.327225	0.421191	99
Es	-1.780731	-1.504347	-0.276248	99
Es	-0.616908	-0.096018	0.166308	99
Es	-2.674539	-1.448188	0.591847	99
Es	-0.198441	0.084118	-0.106874	99
Es	1.101162	1.504765	1.736710	99
41
Properties=species:S:1:pos:R:3:Z:I:1 energy=-306.7628478521273 field_type=dipole dipole="0.000000 0.000000 0.000000" charge=0
C	-2.214461	-1.843856	0.186418	6
C	-1.026241	-1.359986	-0.180492	6
O	-0.617331	-0.095726	0.166518	8
C	0.488389	0.479514	-0.440852	6
C	0.770269	0.357264	-1.747992	6
C	1.291299	1.327264	0.421318	6
C	1.101169	1.504744	1.736628	6
H	-2.515081	-2.849266	-0.085132	1
H	-2.906171	-1.239356	0.763438	1
H	-0.305001	-1.937106	-0.742672	1
H	0.138829	-0.223066	-2.411692	1
H	1.624859	0.852154	-2.197792	1
H	2.116309	1.859564	-0.048822	1
H	0.301819	1.006564	2.276278	1
H	1.751349	2.161294	2.304848	1
Es	0.488148	0.479417	-0.440605	99
Es	1.846595	1.679063	0.089543	99
Es	-1.516542	-1.741073	0.276217	99
Es	1.291292	1.327227	0.421190	99
Es	0.470157	0.677014	-1.178117	99
Es	0.879866	0.895152	0.001990	99
Es	-0.655982	-0.047976	0.495642	99
Es	1.348875	0.688691	-2.044235	99
Es	-0.799043	-0.508173	-0.055126	99
Es	-0.616812	-0.095986	0.165691	99
Es	1.540291	1.948257	2.122768	99
Es	-0.642592	-0.089477	0.099060	99
Es	-2.672390	-1.449369	0.594742	99
Es	-1.779803	-1.503792	-0.275210	99
Es	0.995009	1.648065	0.992824	99
Es	0.829194	0.156412	-1.038100	99
Es	-1.026058	-1.359687	-0.180474	99
Es	-0.200079	0.085090	-0.107731	99
Es	-2.214507	-1.843887	0.186448	99
Es	0.345508	-0.040178	-2.195155	99
Es	1.101162	1.504766	1.736711	99
Es	0.770296	0.357231	-1.748057	99
Es	1.380968	1.156423	1.116531	99
Es	0.566770	1.175179	2.106059	99
Es	-0.544135	-1.736082	-0.579973	99
Es	-2.410201	-2.511690	0.007395	99
41
Properties=species:S:1:pos:R:3:Z:I:1 energy=-306.7628478521273 field_type=dipole dipole="0.000000 0.000000 0.000000" charge=0
C	-2.214461	-1.843856	0.186418	6
C	-1.026241	-1.359986	-0.180492	6
O	-0.617331	-0.095726	0.166518	8
C	0.488389	0.479514	-0.440852	6
C	0.770269	0.357264	-1.747992	6
C	1.291299	1.327264	0.421318	6
C	1.101169	1.504744	1.736628	6
H	-2.515081	-2.849266	-0.085132	1
H	-2.906171	-1.239356	0.763438	1
H	-0.305001	-1.937106	-0.742672	1
H	0.138829	-0.223066	-2.411692	1
H	1.624859	0.852154	-2.197792	1
H	2.116309	1.859564	-0.048822	1
H	0.301819	1.006564	2.276278	1
H	1.751349	2.161294	2.304848	1
Es	1.540363	1.948436	2.122591	99
Es	-2.670167	-1.450303	0.597116	99
Es	-1.518266	-1.741374	0.274647	99
Es	1.291291	1.327227	0.421191	99
Es	-0.545972	-1.735163	-0.581882	99
Es	0.827713	0.156537	-1.037750	99
Es	-0.616769	-0.096038	0.166034	99
Es	-0.200974	0.084620	-0.108648	99
Es	-1.779051	-1.503521	-0.274510	99
Es	1.380655	1.156866	1.116983	99
Es	-2.409708	-2.510576	0.007728	99
Es	1.846808	1.678905	0.089713	99
Es	0.488155	0.479413	-0.440604	99
Es	0.566567	1.175293	2.106123	99
Es	0.995226	1.647728	0.992364	99
Es	-0.634679	-0.100828	0.102955	99
Es	-2.214498	-1.843892	0.186462	99
Es	0.770299	0.357226	-1.748056	99
Es	1.349153	0.688454	-2.043834	99
Es	-0.657582	-0.046002	0.495639	99
Es	0.879985	0.895062	0.001947	99
Es	1.101165	1.504764	1.736712	99
Es	-1.026057	-1.359684	-0.180478	99
Es	0.345568	-0.040533	-2.195358	99
Es	-0.804361	-0.499155	-0.058316	99
Es	0.471122	0.677156	-1.178745	99
41
Properties=species:S:1:pos:R:3:Z:I:1 energy=-306.7628478521273 field_type=dipole dipole="0.000000 0.000000 0.000000" charge=0
C	-2.214461	-1.843856	0.186418	6
C	-1.026241	-1.359986	-0.180492	6
O	-0.617331	-0.095726	0.166518	8
C	0.488389	0.479514	-0.440852	6
C	0.770269	0.357264	-1.747992	6
C	1.291299	1.327264	0.421318	6
C	1.101169	1.504744	1.736628	6
H	-2.515081	-2.849266	-0.085132	1
H	-2.906171	-1.239356	0.763438	1
H	-0.305001	-1.937106	-0.742672	1
H	0.138829	-0.223066	-2.411692	1
H	1.624859	0.852154	-2.197792	1
H	2.116309	1.859564	-0.048822	1
H	0.301819	1.006564	2.276278	1
H	1.751349	2.161294	2.304848	1
Es	1.349193	0.688637	-2.043697	99
Es	-2.409354	-2.509814	0.007870	99
Es	-0.808362	-0.491536	-0.061710	99
Es	-0.629554	-0.109042	0.105489	99
Es	1.540397	1.948491	2.122609	99
Es	0.488153	0.479416	-0.440606	99
Es	0.880011	0.895105	0.002015	99
Es	-1.026061	-1.359691	-0.180476	99
Es	0.566443	1.175244	2.106056	99
Es	0.468941	0.674009	-1.176205	99
Es	0.770296	0.357232	-1.748058	99
Es	-0.547841	-1.734274	-0.583637	99
Es	-0.658210	-0.046204	0.495886	99
Es	-0.617055	-0.095974	0.166266	99
Es	-2.214506	-1.843893	0.186454	99
Es	0.995424	1.647608	0.992774	99
Es	-2.667632	-1.451141	0.599400	99
Es	1.101162	1.504767	1.736711	99
Es	-1.520433	-1.741580	0.273063	99
Es	-1.777868	-1.503221	-0.273574	99
Es	0.829676	0.159368	-1.040404	99
Es	-0.201105	0.084590	-0.108279	99
Es	1.846937	1.678894	0.089763	99
Es	1.380429	1.157110	1.116559	99
Es	1.291292	1.327224	0.421191	99
Es	0.345614	-0.040710	-2.195434	99
41
Properties=species:S:1:pos:R:3:Z:I:1 energy=-306.7628478521273 field_type=dipole dipole="0.000000 0.000000 0.000000" charge=0
C	-2.214461	-1.843856	0.186418	6
C	-1.026241	-1.359986	-0.180492	6
O	-0.617331	-0.095726	0.166518	8
C	0.488389	0.479514	-0.440852	6
C	0.770269	0.357264	-1.747992	6
C	1.291299	1.327264	0.421318	6
C	1.101169	1.504744	1.736628	6
H	-2.515081	-2.849266	-0.085132	1
H	-2.906171	-1.239356	0.763438	1
H	-0.305001	-1.937106	-0.742672	1
H	0.138829	-0.223066	-2.411692	1
H	1.624859	0.852154	-2.197792	1
H	2.116309	1.859564	-0.048822	1
H	0.301819	1.006564	2.276278	1
H	1.751349	2.161294	2.304848	1
Es	0.488149	0.479415	-0.440605	99
Es	-0.658660	-0.045965	0.495980	99
Es	0.770299	0.357227	-1.748057	99
Es	-2.408757	-2.508925	0.008113	99
Es	-2.665861	-1.452082	0.601119	99
Es	0.345629	-0.041006	-2.195468	99
Es	0.995756	1.647324	0.993568	99
Es	-0.625695	-0.116009	0.107713	99
Es	1.380033	1.157455	1.115740	99
Es	-1.026062	-1.359683	-0.180482	99
Es	1.349288	0.688577	-2.043552	99
Es	-0.549434	-1.733500	-0.585011	99
Es	-1.522159	-1.741553	0.271872	99
Es	0.829579	0.161085	-1.041456	99
Es	1.847089	1.678854	0.089901	99
Es	0.566311	1.175307	2.106103	99
Es	-2.214511	-1.843889	0.186442	99
Es	-1.776959	-1.503053	-0.273008	99
Es	-0.811412	-0.485707	-0.063843	99
Es	1.540443	1.948606	2.122486	99
Es	1.291289	1.327227	0.421189	99
Es	0.880082	0.894987	0.001973	99
Es	0.468795	0.672439	-1.175315	99
Es	-0.201604	0.084813	-0.108366	99
Es	1.101163	1.504765	1.736712	99
Es	-0.616807	-0.096091	0.166279	99
41
Properties=species:S:1:pos:R:3:Z:I:1 energy=-306.7628478521273 field_type=dipole dipole="0.000000 0.000000 0.000000" charge=0
C	-2.214461	-1.843856	0.186418	6
C	-1.026241	-1.359986	-0.180492	6
O	-0.617331	-0.095726	0.166518	8
C	0.488389	0.479514	-0.440852	6
C	0.770269	0.357264	-1.747992	6
C	1.291299	1.327264	0.421318	6
C	1.101169	1.504744	1.736628	6
H	-2.515081	-2.849266	-0.085132	1
H	-2.906171	-1.239356	0.763438	1
H	-0.305001	-1.937106	-0.742672	1
H	0.138829	-0.223066	-2.411692	1
H	1.624859	0.852154	-2.197792	1
H	2.116309	1.859564	-0.048822	1
H	0.301819	1.006564	2.276278	1
H	1.751349	2.161294	2.304848	1
Es	-1.026061	-1.359682	-0.180483	99
Es	-0.626134	-0.116349	0.108208	99
Es	-2.408414	-2.507874	0.008721	99
Es	0.566458	1.175372	2.106143	99
Es	1.846902	1.678887	0.089933	99
Es	0.488154	0.479412	-0.440606	99
Es	-0.201620	0.083698	-0.108882	99
Es	0.880032	0.895117	0.001874	99
Es	-1.523043	-1.742004	0.271537	99
Es	1.000302	1.642325	0.999206	99
Es	0.345647	-0.040795	-2.195797	99
Es	-0.550301	-1.733152	-0.585702	99
Es	0.468901	0.668812	-1.173289	99
Es	1.349048	0.688635	-2.043346	99
Es	-0.616495	-0.096337	0.165869	99
Es	-2.214503	-1.843891	0.186457	99
Es	1.375519	1.162138	1.110181	99
Es	-2.664888	-1.452518	0.601949	99
Es	-1.776467	-1.503171	-0.273330	99
Es	-0.812178	-0.483879	-0.063948	99
Es	1.291289	1.327228	0.421189	99
Es	0.770296	0.357232	-1.748058	99
Es	1.101163	1.504765	1.736712	99
Es	0.829561	0.164417	-1.043473	99
Es	-0.657669	-0.046340	0.496457	99
Es	1.540486	1.948570	2.122506	99
41
Properties=species:S:1:pos:R:3:Z:I:1 energy=-306.7628478521273 field_type=dipole dipole="0.000000 0.000000 0.000000" charge=0
C	-2.214461	-1.843856	0.186418	6
C	-1.026241	-1.359986	-0.180492	6
O	-0.617331	-0.095726	0.166518	8
C	0.488389	0.479514	-0.440852	6
C	0.770269	0.357264	-1.747992	6
C	1.291299	1.327264	0.421318	6
C	1.101169	1.504744	1.736628	6
H	-2.515081	-2.849266	-0.085132	1
H	-2.906171	-1.239356	0.763438	1
H	-0.305001	-1.937106	-0.742672	1
H	0.138829	-0.223066	-2.411692	1
H	1.624859	0.852154	-2.197792	1
H	2.116309	1.859564	-0.048822	1
H	0.301819	1.006564	2.276278	1
H	1.751349	2.161294	2.304848	1
Es	0.488151	0.479413	-0.440605	99
Es	1.101163	1.504765	1.736712	99
Es	-0.657783	-0.046142	0.496673	99
Es	0.824067	0.182487	-1.051594	99
Es	0.880061	0.895131	0.001886	99
Es	-1.775912	-1.503312	-0.273071	99
Es	-2.664199	-1.452838	0.602591	99
Es	0.474276	0.650607	-1.165210	99
Es	1.380358	1.157659	1.118056	99
Es	1.846779	1.678636	0.089931	99
Es	1.348902	0.688512	-2.043084	99
Es	-0.616999	-0.095981	0.166287	99
Es	0.770298	0.357228	-1.748057	99
Es	-2.214505	-1.843883	0.186446	99
Es	-1.026065	-1.359683	-0.180486	99
Es	0.566541	1.175389	2.106165	99
Es	0.995542	1.647324	0.991278	99
Es	-0.550952	-1.732931	-0.586258	99
Es	-0.809649	-0.487832	-0.061924	99
Es	-0.626019	-0.114214	0.107543	99
Es	1.291293	1.327226	0.421191	99
Es	-0.203651	0.084806	-0.110952	99
Es	-1.523767	-1.741899	0.271152	99
Es	-2.408161	-2.507393	0.008866	99
Es	1.540301	1.948423	2.122553	99
Es	0.345912	-0.040883	-2.196063	99
41
Properties=species:S:1:pos:R:3:Z:I:1 energy=-306.7628478521273 field_type=dipole dipole="0.000000 0.000000 0.000000" charge=0
C	-2.214461	-1.843856	0.186418	6
C	-1.026241	-1.359986	-0.180492	6
O	-0.617331	-0.095726	0.166518	8
C	0.488389	0.479514	-0.440852	6
C	0.770269	0.357264	-1.747992	6
C	1.291299	1.327264	0.421318	6
C	1.101169	1.504744	1.736628	6
H	-2.515081	-2.849266	-0.085132	1
H	-2.906171	-1.239356	0.763438	1
H	-0.305001	-1.937106	-0.742672	1
H	0.138829	-0.223066	-2.411692	1
H	1.624859	0.852154	-2.197792	1
H	2.116309	1.859564	-0.048822	1
H	0.301819	1.006564	2.276278	1
H	1.751349	2.161294	2.304848	1
Es	-1.775421	-1.503651	-0.273323	99
Es	0.880149	0.895108	0.001729	99
Es	-0.811247	-0.484766	-0.063192	99
Es	0.475489	0.647341	-1.163873	99
Es	1.291291	1.327225	0.421190	99
Es	-1.524786	-1.742007	0.270616	99
Es	-2.214502	-1.843889	0.186455	99
Es	0.822596	0.185884	-1.053023	99
Es	1.378441	1.160760	1.119711	99
Es	-0.551663	-1.732711	-0.586821	99
Es	0.997559	1.644310	0.989652	99
Es	-0.616009	-0.107103	0.143455	99
Es	0.770301	0.357227	-1.748057	99
Es	1.348887	0.688274	-2.042929	99
Es	-1.026063	-1.359688	-0.180484	99
Es	1.846723	1.678463	0.090114	99
Es	-2.407898	-2.506605	0.009424	99
Es	0.566480	1.175503	2.106075	99
Es	0.488153	0.479410	-0.440604	99
Es	0.346153	-0.040993	-2.196177	99
Es	1.101164	1.504764	1.736712	99
Es	-0.659159	-0.044419	0.496315	99
Es	-0.623347	-0.108520	0.132110	99
Es	-2.663180	-1.453023	0.603343	99
Es	-0.204234	0.085220	-0.110994	99
Es	1.540110	1.948503	2.122601	99
41
Properties=species:S:1:pos:R:3:Z:I:1 energy=-306.7628478521273 field_type=dipole dipole="0.000000 0.000000 0.000000" charge=0
C	-2.214461	-1.843856	0.186418	6
C	-1.026241	-1.359986	-0.180492	6
O	-0.617331	-0.095726	0.166518	8
C	0.488389	0.479514	-0.440852	6
C	0.770269	0.357264	-1.747992	6
C	1.291299	1.327264	0.421318	6
C	1.101169	1.504744	1.736628	6
H	-2.515081	-2.849266	-0.085132	1
H	-2.906171	-1.239356	0.763438	1
H	-0.305001	-1.937106	-0.742672	1
H	0.138829	-0.223066	-2.411692	1
H	1.624859	0.852154	-2.197792	1
H	2.116309	1.859564	-0.048822	1
H	0.301819	1.006564	2.276278	1
H	1.751349	2.161294	2.304848	1
Es	1.291293	1.327222	0.421191	99
Es	-2.662564	-1.453486	0.603847	99
Es	0.880245	0.895050	0.001693	99
Es	0.346030	-0.040792	-2.196344	99
Es	0.995894	1.647469	0.994869	99
Es	-0.624186	-0.117512	0.108538	99
Es	0.819764	0.192303	-1.055498	99
Es	1.846590	1.678642	0.090130	99
Es	0.488151	0.479418	-0.440607	99
Es	-1.525049	-1.741702	0.270468	99
Es	0.770299	0.357228	-1.748057	99
Es	-0.203712	0.084181	-0.110879	99
Es	-2.407427	-2.506077	0.010053	99
Es	-0.552373	-1.732295	-0.587354	99
Es	1.540233	1.948478	2.122558	99
Es	-0.617182	-0.095962	0.166199	99
Es	-1.026063	-1.359683	-0.180485	99
Es	0.478451	0.640746	-1.161359	99
Es	-1.775502	-1.503907	-0.273610	99
Es	-0.657692	-0.046189	0.496964	99
Es	0.566664	1.175415	2.106189	99
Es	1.101163	1.504765	1.736712	99
Es	1.348689	0.688447	-2.042877	99
Es	-0.811235	-0.484615	-0.063290	99
Es	-2.214500	-1.843889	0.186456	99
Es	1.380005	1.157361	1.114520	99
41
Properties=species:S:1:pos:R:3:Z:I:1 energy=-306.7628478521273 field_type=dipole dipole="0.000000 0.000000 0.000000" charge=0
C	-2.214461	-1.843856	0.186418	6
C	-1.026241	-1.359986	-0.180492	6
O	-0.617331	-0.095726	0.166518	8
C	0.488389	0.479514	-0.440852	6
C	0.770269	0.357264	-1.747992	6
C	1.291299	1.327264	0.421318	6
C	1.101169	1.504744	1.736628	6
H	-2.515081	-2.849266	-0.085132	1
H	-2.906171	-1.239356	0.763438	1
H	-0.305001	-1.937106	-0.742672	1
H	0.138829	-0.223066	-2.411692	1
H	1.624859	0.852154	-2.197792	1
H	2.116309	1.859564	-0.048822	1
H	0.301819	1.006564	2.276278	1
H	1.751349	2.161294	2.304848	1
Es	1.540197	1.948398	2.122535	99
Es	0.880200	0.895172	0.001653	99
Es	0.346137	-0.040664	-2.196643	99
Es	-0.812149	-0.481940	-0.064151	99
Es	0.770299	0.357228	-1.748057	99
Es	-2.214498	-1.843890	0.186457	99
Es	1.101161	1.504768	1.736712	99
Es	-2.662067	-1.453722	0.604258	99
Es	-1.775113	-1.503696	-0.273719	99
Es	-0.617552	-0.096110	0.165749	99
Es	-0.552630	-1.732108	-0.587531	99
Es	-0.657286	-0.047069	0.497314	99
Es	-1.525668	-1.742290	0.270433	99
Es	-0.623308	-0.119020	0.109408	99
Es	-2.407403	-2.505358	0.010014	99
Es	1.348499	0.688359	-2.042647	99
Es	0.488154	0.479411	-0.440605	99
Es	0.476766	0.644577	-1.162780	99
Es	1.373908	1.164058	1.108639	99
Es	1.846516	1.678648	0.090169	99
Es	1.291293	1.327224	0.421192	99
Es	-1.026066	-1.359687	-0.180485	99
Es	-0.203631	0.083843	-0.110841	99
Es	0.821479	0.188435	-1.054084	99
Es	1.002028	1.640500	1.000793	99
Es	0.566723	1.175553	2.106244	99
41
Properties=species:S:1:pos:R:3:Z:I:1 energy=-306.7628478521273 field_type=dipole dipole="0.000000 0.000000 0.000000" charge=0
C	-2.214461	-1.843856	0.186418	6
C	-1.026241	-1.359986	-0.180492	6
O	-0.617331	-0.095726	0.166518	8
C	0.488389	0.479514	-0.440852	6
C	0.770269	0.357264	-1.747992	6
C	1.291299	1.327264	0.421318	6
C	1.101169	1.504744	1.736628	6
H	-2.515081	-2.849266	-0.085132	1
H	-2.906171	-1.239356	0.763438	1
H	-0.305001	-1.937106	-0.742672	1
H	0.138829	-0.223066	-2.411692	1
H	1.624859	0.852154	-2.197792	1
H	2.116309	1.859564	-0.048822	1
H	0.301819	1.006564	2.276278	1
H	1.751349	2.161294	2.304848	1
Es	0.812509	0.207339	-1.061159	99
Es	-1.026065	-1.359681	-0.180486	99
Es	-0.205648	0.085214	-0.112325	99
Es	-1.526227	-1.742041	0.270058	99
Es	1.539958	1.948404	2.122607	99
Es	0.880352	0.895080	0.001583	99
Es	-2.214502	-1.843888	0.186458	99
Es	1.381408	1.156228	1.117388	99
Es	-0.811383	-0.483609	-0.063235	99
Es	-2.407132	-2.504931	0.010524	99
Es	1.101164	1.504765	1.736712	99
Es	0.346333	-0.040784	-2.196717	99
Es	1.846346	1.678409	0.090250	99
Es	-0.552919	-1.732180	-0.587795	99
Es	0.770298	0.357228	-1.748057	99
Es	-0.623001	-0.110495	0.129903	99
Es	1.348484	0.688093	-2.042532	99
Es	-0.615864	-0.105874	0.146105	99
Es	-1.774803	-1.504325	-0.273897	99
Es	0.566732	1.175701	2.106167	99
Es	-2.661667	-1.453687	0.604566	99
Es	0.485574	0.625713	-1.155760	99
Es	0.488151	0.479412	-0.440605	99
Es	1.291291	1.327229	0.421192	99
Es	0.994641	1.648659	0.992036	99
Es	-0.658046	-0.045361	0.497047	99
41
Properties=species:S:1:pos:R:3:Z:I:1 energy=-306.7628478521273 field_type=dipole dipole="0.000000 0.000000 0.000000" charge=0
C	-2.214461	-1.843856	0.186418	6
C	-1.026241	-1.359986	-0.180492	6
O	-0.617331	-0.095726	0.166518	8
C	0.488389	0.479514	-0.440852	6
C	0.770269	0.357264	-1.747992	6
C	1.291299	1.327264	0.421318	6
C	1.101169	1.504744	1.736628	6
H	-2.515081	-2.849266	-0.085132	1
H	-2.906171	-1.239356	0.763438	1
H	-0.305001	-1.937106	-0.742672	1
H	0.138829	-0.223066	-2.411692	1
H	1.624859	0.852154	-2.197792	1
H	2.116309	1.859564	-0.048822	1
H	0.301819	1.006564	2.276278	1
H	1.751349	2.161294	2.304848	1
Es	-1.774635	-1.504708	-0.274211	99
Es	1.101164	1.504765	1.736712	99
Es	1.379079	1.160052	1.119879	99
Es	1.846381	1.678201	0.090282	99
Es	0.880275	0.895093	0.001565	99
Es	0.997009	1.645030	0.989534	99
Es	-0.553211	-1.732208	-0.588015	99
Es	1.348478	0.687885	-2.042388	99
Es	0.346518	-0.040996	-2.196791	99
Es	-0.811517	-0.483165	-0.063431	99
Es	-2.214492	-1.843892	0.186472	99
Es	1.291291	1.327227	0.421191	99
Es	-2.661280	-1.453862	0.604904	99
Es	0.566684	1.175782	2.106160	99
Es	0.770298	0.357228	-1.748057	99
Es	-0.658983	-0.044028	0.496808	99
Es	0.812311	0.207705	-1.061349	99
Es	-0.621836	-0.108865	0.136039	99
Es	0.488148	0.479418	-0.440606	99
Es	-0.615899	-0.109028	0.140400	99
Es	-1.526787	-1.741861	0.269793	99
Es	-2.406779	-2.504339	0.011016	99
Es	0.485677	0.625476	-1.155636	99
Es	-0.205713	0.084922	-0.112337	99
Es	-1.026064	-1.359682	-0.180486	99
Es	1.539871	1.948468	2.122579	99
41
Properties=species:S:1:pos:R:3:Z:I:1 energy=-306.7628478521273 field_type=dipole dipole="0.000000 0.000000 0.000000" charge=0
C	-2.214461	-1.843856	0.186418	6
C	-1.026241	-1.359986	-0.180492	6
O	-0.617331	-0.095726	0.166518	8
C	0.488389	0.479514	-0.440852	6
C	0.770269	0.357264	-1.747992	6
C	1.291299	1.327264	0.421318	6
C	1.101169	1.504744	1.736628	6
H	-2.515081	-2.849266	-0.085132	1
H	-2.906171	-1.239356	0.763438	1
H	-0.305001	-1.937106	-0.742672	1
H	0.138829	-0.223066	-2.411692	1
H	1.624859	0.852154	-2.197792	1
H	2.116309	1.859564	-0.048822	1
H	0.301819	1.006564	2.276278	1
H	1.751349	2.161294	2.304848	1
Es	-0.658757	-0.044550	0.497000	99
Es	-1.774412	-1.504929	-0.274450	99
Es	1.539866	1.948369	2.122449	99
Es	-0.205544	0.084953	-0.111491	99
Es	-2.406528	-2.504001	0.011488	99
Es	0.994917	1.648136	0.990902	99
Es	1.846301	1.678217	0.090251	99
Es	-0.616402	-0.109612	0.137886	99
Es	-2.660782	-1.453955	0.605220	99
Es	1.291294	1.327222	0.421192	99
Es	0.488152	0.479413	-0.440605	99
Es	0.880335	0.895099	0.001609	99
Es	-2.214502	-1.843887	0.186452	99
Es	1.348382	0.687933	-2.042390	99
Es	0.489270	0.618346	-1.153133	99
Es	-1.026067	-1.359688	-0.180486	99
Es	-0.621296	-0.108827	0.138677	99
Es	0.346504	-0.040871	-2.196852	99
Es	1.381153	1.156907	1.118518	99
Es	1.101163	1.504765	1.736712	99
Es	-1.527234	-1.741773	0.269654	99
Es	-0.553737	-1.732078	-0.588325	99
Es	0.770304	0.357220	-1.748055	99
Es	-0.811860	-0.482319	-0.064682	99
Es	0.808701	0.214707	-1.063848	99
Es	0.566762	1.175821	2.106332	99
41
Properties=species:S:1:pos:R:3:Z:I:1 energy=-306.7628478521273 field_type=dipole dipole="0.000000 0.000000 0.000000" charge=0
C	-2.214461	-1.843856	0.186418	6
C	-1.026241	-1.359986	-0.180492	6
O	-0.617331	-0.095726	0.166518	8
C	0.488389	0.479514	-0.440852	6
C	0.770269	0.357264	-1.747992	6
C	1.291299	1.327264	0.421318	6
C	1.101169	1.504744	1.736628	6
H	-2.515081	-2.849266	-0.085132	1
H	-2.906171	-1.239356	0.763438	1
H	-0.305001	-1.937106	-0.742672	1
H	0.138829	-0.223066	-2.411692	1
H	1.624859	0.852154	-2.197792	1
H	2.116309	1.859564	-0.048822	1
H	0.301819	1.006564	2.276278	1
H	1.751349	2.161294	2.304848	1
Es	-0.812083	-0.481644	-0.063279	99
Es	0.770298	0.357228	-1.748057	99
Es	0.346486	-0.040732	-2.197084	99
Es	0.994817	1.648801	0.993753	99
Es	0.880356	0.895181	0.001463	99
Es	-0.657961	-0.044771	0.497204	99
Es	1.291292	1.327225	0.421191	99
Es	-2.214500	-1.843887	0.186456	99
Es	-0.553970	-1.731843	-0.588507	99
Es	-1.026064	-1.359685	-0.180484	99
Es	0.490638	0.615799	-1.152246	99
Es	-2.660371	-1.454226	0.605508	99
Es	0.488152	0.479411	-0.440606	99
Es	-0.204655	0.083077	-0.112365	99
Es	1.846220	1.678338	0.090349	99
Es	-1.774349	-1.504900	-0.274546	99
Es	0.566877	1.175734	2.106267	99
Es	1.348206	0.688018	-2.042233	99
Es	1.101163	1.504766	1.736712	99
Es	-1.527491	-1.742159	0.269590	99
Es	1.381174	1.156041	1.115692	99
Es	-0.616859	-0.096013	0.166236	99
Es	-0.622382	-0.121042	0.109551	99
Es	1.539959	1.948344	2.122566	99
Es	0.807457	0.217144	-1.064690	99
Es	-2.406423	-2.503589	0.011588	99
41
Properties=species:S:1:pos:R:3:Z:I:1 energy=-306.7628478521273 field_type=dipole dipole="0.000000 0.000000 0.000000" charge=0
C	-2.214461	-1.843856	0.186418	6
C	-1.026241	-1.359986	-0.180492	6
O	-0.617331	-0.095726	0.166518	8
C	0.488389	0.479514	-0.440852	6
C	0.770269	0.357264	-1.747992	6
C	1.291299	1.327264	0.421318	6
C	1.101169	1.504744	1.736628	6
H	-2.515081	-2.849266	-0.085132	1
H	-2.906171	-1.239356	0.763438	1
H	-0.305001	-1.937106	-0.742672	1
H	0.138829	-0.223066	-2.411692	1
H	1.624859	0.852154	-2.197792	1
H	2.116309	1.859564	-0.048822	1
H	0.301819	1.006564	2.276278	1
H	1.751349	2.161294	2.304848	1
Es	0.488151	0.479414	-0.440605	99
Es	0.815763	0.200641	-1.058832	99
Es	-1.774588	-1.505215	-0.274858	99
Es	0.770299	0.357228	-1.748057	99
Es	0.482293	0.632316	-1.158129	99
Es	-2.214493	-1.843888	0.186460	99
Es	1.369792	1.168868	1.105701	99
Es	-1.527287	-1.741923	0.269745	99
Es	-0.204408	0.083163	-0.111761	99
Es	-2.660381	-1.454299	0.605536	99
Es	0.880435	0.895192	0.001396	99
Es	1.291293	1.327225	0.421191	99
Es	-2.406222	-2.503142	0.011940	99
Es	1.846219	1.678354	0.090425	99
Es	1.101165	1.504767	1.736713	99
Es	-1.026074	-1.359678	-0.180497	99
Es	1.348092	0.688048	-2.042128	99
Es	1.540062	1.948270	2.122564	99
Es	1.006041	1.635826	1.003750	99
Es	0.566887	1.175834	2.106283	99
Es	-0.813424	-0.478602	-0.064809	99
Es	-0.616911	-0.096005	0.166281	99
Es	-0.656490	-0.047485	0.497905	99
Es	-0.554133	-1.731689	-0.588642	99
Es	0.346553	-0.040729	-2.197213	99
Es	-0.622648	-0.121877	0.109666	99
41
Properties=species:S:1:pos:R:3:Z:I:1 energy=-306.7628478521273 field_type=dipole dipole="0.000000 0.000000 0.000000" charge=0
C	-2.214461	-1.843856	0.186418	6
C	-1.026241	-1.359986	-0.180492	6
O	-0.617331	-0.095726	0.166518	8
C	0.488389	0.479514	-0.440852	6
C	0.770269	0.357264	-1.747992	6
C	1.291299	1.327264	0.421318	6
C	1.101169	1.504744	1.736628	6
H	-2.515081	-2.849266	-0.085132	1
H	-2.906171	-1.239356	0.763438	1
H	-0.305001	-1.937106	-0.742672	1
H	0.138829	-0.223066	-2.411692	1
H	1.624859	0.852154	-2.197792	1
H	2.116309	1.859564	-0.048822	1
H	0.301819	1.006564	2.276278	1
H	1.751349	2.161294	2.304848	1
Es	-0.617075	-0.095972	0.166278	99
Es	0.880559	0.894976	0.001348	99
Es	1.004905	1.637690	1.003059	99
Es	1.348676	0.686594	-2.041832	99
Es	0.346514	-0.041010	-2.197167	99
Es	0.566388	1.176641	2.105890	99
Es	-0.200139	0.079045	-0.108369	99
Es	-1.526252	-1.742062	0.270907	99
Es	1.101163	1.504766	1.736711	99
Es	0.770299	0.357228	-1.748057	99
Es	0.784101	0.191938	-1.038995	99
Es	1.539703	1.948669	2.122643	99
Es	0.513789	0.642010	-1.178267	99
Es	-0.552772	-1.731646	-0.588002	99
Es	-2.406114	-2.500885	0.011683	99
Es	-1.026069	-1.359695	-0.180480	99
Es	1.291295	1.327222	0.421192	99
Es	-2.214500	-1.843893	0.186456	99
Es	-0.661257	-0.042370	0.496484	99
Es	-0.814283	-0.477344	-0.066751	99
Es	-0.621171	-0.125424	0.109576	99