45
Properties=species:S:1:pos:R:3:Z:I:1 energy=-344.9832401370579 field_type=dipole dipole="0.000000 0.000000 0.000000" charge=0
C	-1.628084	-0.167327	0.044650	6
C	-0.096293	-0.144287	-0.003030	6
O	0.378956	-0.985617	1.058840	8
C	0.428396	-0.747427	-1.325350	6
O	0.046336	-2.120577	-1.437220	8
C	0.414716	1.269083	0.178030	6
C	1.294076	1.699313	1.094760	6
H	-2.067804	0.399563	-0.782230	1
H	-1.997214	0.257493	0.985560	1
H	-2.009194	-1.193987	0.003520	1
H	0.038677	-0.604017	1.887160	1
H	1.523096	-0.720087	-1.357880	1
H	0.043247	-0.210067	-2.197610	1
H	0.259937	-2.506197	-0.563710	1
H	0.024126	2.000503	-0.528920	1
H	1.751506	1.031243	1.817840	1
H	1.595516	2.742393	1.125590	1
Es	-1.877478	-0.856910	0.015316	99
Es	1.178694	-0.712739	-1.338056	99
Es	0.194850	-0.654486	0.675914	99
Es	0.141260	1.755706	-0.308357	99
Es	0.378857	-0.985240	1.058885	99
Es	-0.260817	-2.125342	-1.462825	99
Es	0.191317	-1.596321	-1.373254	99
Es	0.164134	-0.429260	-0.654111	99
Es	0.414634	1.269037	0.177951	99
Es	0.185628	-0.770074	1.492291	99
Es	1.294127	1.699336	1.094815	99
Es	-1.918903	0.224170	-0.519163	99
Es	0.046515	-2.120420	-1.436944	99
Es	-1.866688	0.127945	0.690326	99
Es	0.168629	0.572686	0.092950	99
Es	0.604083	1.542535	0.853937	99
Es	1.498567	2.403931	1.119988	99
Es	-1.628058	-0.167301	0.044652	99
Es	1.101372	1.420635	0.440862	99
Es	0.157868	-0.370758	-1.912255	99
Es	-0.096213	-0.144379	-0.002854	99
Es	0.234661	-2.242412	-1.645615	99
Es	0.685908	-0.957761	1.066975	99
Es	1.600929	1.255395	1.588391	99
Es	0.167638	-2.312888	-0.972322	99
Es	0.240207	-1.261960	1.015706	99
Es	0.428289	-0.747619	-1.325315	99
Es	-0.865435	-0.141989	0.014685	99
45
Properties=species:S:1:pos:R:3:Z:I:1 energy=-344.9832401370579 field_type=dipole dipole="0.000000 0.000000 0.000000" charge=0
C	-1.628084	-0.167327	0.044650	6
C	-0.096293	-0.144287	-0.003030	6
O	0.378956	-0.985617	1.058840	8
C	0.428396	-0.747427	-1.325350	6
O	0.046336	-2.120577	-1.437220	8
C	0.414716	1.269083	0.178030	6
C	1.294076	1.699313	1.094760	6
H	-2.067804	0.399563	-0.782230	1
H	-1.997214	0.257493	0.985560	1
H	-2.009194	-1.193987	0.003520	1
H	0.038677	-0.604017	1.887160	1
H	1.523096	-0.720087	-1.357880	1
H	0.043247	-0.210067	-2.197610	1
H	0.259937	-2.506197	-0.563710	1
H	0.024126	2.000503	-0.528920	1
H	1.751506	1.031243	1.817840	1
H	1.595516	2.742393	1.125590	1
Es	-1.919123	0.224225	-0.520080	99
Es	1.102111	1.420030	0.440234	99
Es	0.242244	-1.262748	1.019520	99
Es	-0.264656	-2.128972	-1.471621	99
Es	1.599784	1.255791	1.589768	99
Es	1.177980	-0.713206	-1.337818	99
Es	0.378809	-0.985274	1.058875	99
Es	0.681934	-0.957496	1.063242	99
Es	0.157994	-0.370225	-1.912920	99
Es	0.237832	-2.236925	-1.637569	99
Es	-1.866617	0.127744	0.690923	99
Es	0.191642	-0.656792	0.673889	99
Es	-1.876641	-0.856544	0.015451	99
Es	0.191448	-1.597526	-1.373887	99
Es	-0.865473	-0.142364	0.014761	99
Es	-0.096212	-0.144380	-0.002853	99
Es	0.168570	0.573165	0.092399	99
Es	-1.628057	-0.167301	0.044651	99
Es	0.142518	1.755230	-0.309190	99
Es	0.603988	1.543250	0.854003	99
Es	0.190735	-0.767093	1.494514	99
Es	0.168232	-2.313382	-0.971009	99
Es	0.164430	-0.429690	-0.653954	99
Es	1.294118	1.699341	1.094826	99
Es	0.414635	1.269040	0.177952	99
Es	1.497593	2.403637	1.120695	99
Es	0.046469	-2.120398	-1.436914	99
Es	0.428289	-0.747618	-1.325315	99
45
Properties=species:S:1:pos:R:3:Z:I:1 energy=-344.9832401370579 field_type=dipole dipole="0.000000 0.000000 0.000000" charge=0
C	-1.628084	-0.167327	0.044650	6
C	-0.096293	-0.144287	-0.003030	6
O	0.378956	-0.985617	1.058840	8
C	0.428396	-0.747427	-1.325350	6
O	0.046336	-2.120577	-1.437220	8
C	0.414716	1.269083	0.178030	6
C	1.294076	1.699313	1.094760	6
H	-2.067804	0.399563	-0.782230	1
H	-1.997214	0.257493	0.985560	1
H	-2.009194	-1.193987	0.003520	1
H	0.038677	-0.604017	1.887160	1
H	1.523096	-0.720087	-1.357880	1
H	0.043247	-0.210067	-2.197610	1
H	0.259937	-2.506197	-0.563710	1
H	0.024126	2.000503	-0.528920	1
H	1.751506	1.031243	1.817840	1
H	1.595516	2.742393	1.125590	1
Es	-1.919102	0.224392	-0.520565	99
Es	0.168093	-2.313465	-0.970220	99
Es	0.414634	1.269041	0.177948	99
Es	1.102327	1.419620	0.440021	99
Es	0.168895	0.573464	0.091756	99
Es	-1.628057	-0.167302	0.044651	99
Es	0.240094	-2.232097	-1.628423	99
Es	0.244365	-1.263298	1.022540	99
Es	0.195745	-0.764608	1.496687	99
Es	1.294124	1.699342	1.094825	99
Es	0.158162	-0.369804	-1.913426	99
Es	0.603672	1.543659	0.854346	99
Es	0.143454	1.754978	-0.309713	99
Es	0.188191	-0.659337	0.672649	99
Es	-0.268355	-2.132266	-1.480940	99
Es	0.678248	-0.956765	1.059378	99
Es	0.192993	-1.598768	-1.374555	99
Es	0.164735	-0.429964	-0.653501	99
Es	-0.865701	-0.142728	0.014742	99
Es	0.428289	-0.747620	-1.325313	99
Es	-0.096211	-0.144379	-0.002853	99
Es	1.177282	-0.713643	-1.337737	99
Es	0.378763	-0.985320	1.058872	99
Es	0.046477	-2.120423	-1.436944	99
Es	1.599067	1.256178	1.590533	99
Es	1.497080	2.403395	1.121048	99
Es	-1.876203	-0.856369	0.015360	99
Es	-1.866486	0.127604	0.691405	99
45
Properties=species:S:1:pos:R:3:Z:I:1 energy=-344.9832401370579 field_type=dipole dipole="0.000000 0.000000 0.000000" charge=0
C	-1.628084	-0.167327	0.044650	6
C	-0.096293	-0.144287	-0.003030	6
O	0.378956	-0.985617	1.058840	8
C	0.428396	-0.747427	-1.325350	6
O	0.046336	-2.120577	-1.437220	8
C	0.414716	1.269083	0.178030	6
C	1.294076	1.699313	1.094760	6
H	-2.067804	0.399563	-0.782230	1
H	-1.997214	0.257493	0.985560	1
H	-2.009194	-1.193987	0.003520	1
H	0.038677	-0.604017	1.887160	1
H	1.523096	-0.720087	-1.357880	1
H	0.043247	-0.210067	-2.197610	1
H	0.259937	-2.506197	-0.563710	1
H	0.024126	2.000503	-0.528920	1
H	1.751506	1.031243	1.817840	1
H	1.595516	2.742393	1.125590	1
Es	1.103078	1.419504	0.439450	99
Es	-1.628057	-0.167302	0.044651	99
Es	-1.918983	0.223944	-0.521024	99
Es	0.046419	-2.120453	-1.436984	99
Es	-0.269325	-2.146573	-1.507960	99
Es	0.428290	-0.747617	-1.325315	99
Es	1.496518	2.403236	1.121512	99
Es	0.190526	-1.598588	-1.374296	99
Es	0.163769	-2.311884	-0.968086	99
Es	0.674992	-0.957238	1.056451	99
Es	0.414635	1.269036	0.177946	99
Es	-1.875719	-0.856055	0.015373	99
Es	0.603644	1.543976	0.854272	99
Es	0.158246	-0.369756	-1.913595	99
Es	0.168799	0.573451	0.091476	99
Es	0.199530	-0.762788	1.498883	99
Es	0.186010	-0.661423	0.671548	99
Es	0.164598	-0.430176	-0.653565	99
Es	0.378712	-0.985318	1.058867	99
Es	0.144008	1.754599	-0.309781	99
Es	0.246031	-1.262471	1.024449	99
Es	1.294122	1.699342	1.094827	99
Es	-0.096212	-0.144380	-0.002854	99
Es	1.177014	-0.713796	-1.337782	99
Es	-1.866698	0.127876	0.691927	99
Es	1.598332	1.256502	1.591179	99
Es	-0.865661	-0.142750	0.014854	99
Es	0.247957	-2.219384	-1.603852	99
45
Properties=species:S:1:pos:R:3:Z:I:1 energy=-344.9832401370579 field_type=dipole dipole="0.000000 0.000000 0.000000" charge=0
C	-1.628084	-0.167327	0.044650	6
C	-0.096293	-0.144287	-0.003030	6
O	0.378956	-0.985617	1.058840	8
C	0.428396	-0.747427	-1.325350	6
O	0.046336	-2.120577	-1.437220	8
C	0.414716	1.269083	0.178030	6
C	1.294076	1.699313	1.094760	6
H	-2.067804	0.399563	-0.782230	1
H	-1.997214	0.257493	0.985560	1
H	-2.009194	-1.193987	0.003520	1
H	0.038677	-0.604017	1.887160	1
H	1.523096	-0.720087	-1.357880	1
H	0.043247	-0.210067	-2.197610	1
H	0.259937	-2.506197	-0.563710	1
H	0.024126	2.000503	-0.528920	1
H	1.751506	1.031243	1.817840	1
H	1.595516	2.742393	1.125590	1
Es	0.603099	1.544238	0.854646	99
Es	1.294117	1.699345	1.094831	99
Es	1.597926	1.256949	1.591505	99
Es	-0.865592	-0.142893	0.014575	99
Es	0.201929	-0.761499	1.500069	99
Es	0.428290	-0.747619	-1.325314	99
Es	-1.919165	0.223648	-0.521204	99
Es	0.248781	-2.211104	-1.588830	99
Es	0.144526	1.754192	-0.310020	99
Es	-1.866707	0.127906	0.692396	99
Es	-0.268201	-2.155164	-1.523964	99
Es	1.496151	2.403012	1.121794	99
Es	0.164625	-0.430237	-0.653473	99
Es	-0.096214	-0.144377	-0.002857	99
Es	1.176810	-0.713953	-1.337832	99
Es	0.189738	-1.598978	-1.374302	99
Es	0.162605	-2.311068	-0.967246	99
Es	-1.628056	-0.167302	0.044650	99
Es	0.247085	-1.261577	1.025950	99
Es	1.103808	1.419169	0.438999	99
Es	0.378749	-0.985298	1.058871	99
Es	0.046431	-2.120414	-1.436893	99
Es	0.184537	-0.663114	0.670549	99
Es	-1.875331	-0.855732	0.015364	99
Es	0.414637	1.269033	0.177942	99
Es	0.168715	0.573772	0.091317	99
Es	0.158366	-0.369785	-1.913742	99
Es	0.672917	-0.957633	1.054789	99
45
Properties=species:S:1:pos:R:3:Z:I:1 energy=-344.9832401370579 field_type=dipole dipole="0.000000 0.000000 0.000000" charge=0
C	-1.628084	-0.167327	0.044650	6
C	-0.096293	-0.144287	-0.003030	6
O	0.378956	-0.985617	1.058840	8
C	0.428396	-0.747427	-1.325350	6
O	0.046336	-2.120577	-1.437220	8
C	0.414716	1.269083	0.178030	6
C	1.294076	1.699313	1.094760	6
H	-2.067804	0.399563	-0.782230	1
H	-1.997214	0.257493	0.985560	1
H	-2.009194	-1.193987	0.003520	1
H	0.038677	-0.604017	1.887160	1
H	1.523096	-0.720087	-1.357880	1
H	0.043247	-0.210067	-2.197610	1
H	0.259937	-2.506197	-0.563710	1
H	0.024126	2.000503	-0.528920	1
H	1.751506	1.031243	1.817840	1
H	1.595516	2.742393	1.125590	1
Es	-0.096211	-0.144380	-0.002853	99
Es	0.159448	-2.309502	-0.965444	99
Es	0.187246	-1.598908	-1.374677	99
Es	-0.865571	-0.142952	0.014468	99
Es	0.158440	-0.369842	-1.913564	99
Es	1.294122	1.699343	1.094824	99
Es	-1.919180	0.223285	-0.521278	99
Es	-1.866850	0.128061	0.692746	99
Es	0.181906	-0.665949	0.669169	99
Es	0.144833	1.753914	-0.309818	99
Es	0.428290	-0.747620	-1.325313	99
Es	0.046390	-2.120387	-1.436891	99
Es	-1.875159	-0.855398	0.015328	99
Es	0.414635	1.269035	0.177946	99
Es	1.496245	2.402806	1.121964	99
Es	1.597737	1.257156	1.591454	99
Es	0.168611	0.573728	0.091020	99
Es	0.164715	-0.430241	-0.653454	99
Es	0.202247	-0.761378	1.501335	99
Es	0.671909	-0.956860	1.053562	99
Es	0.248088	-2.200171	-1.568348	99
Es	0.378856	-0.985271	1.058896	99
Es	-0.261944	-2.167667	-1.546041	99
Es	-1.628057	-0.167301	0.044652	99
Es	0.250279	-1.259524	1.027212	99
Es	1.104255	1.419005	0.438630	99
Es	0.602488	1.544588	0.855108	99
Es	1.176807	-0.714051	-1.338063	99
45
Properties=species:S:1:pos:R:3:Z:I:1 energy=-344.9832401370579 field_type=dipole dipole="0.000000 0.000000 0.000000" charge=0
C	-1.628084	-0.167327	0.044650	6
C	-0.096293	-0.144287	-0.003030	6
O	0.378956	-0.985617	1.058840	8
C	0.428396	-0.747427	-1.325350	6
O	0.046336	-2.120577	-1.437220	8
C	0.414716	1.269083	0.178030	6
C	1.294076	1.699313	1.094760	6
H	-2.067804	0.399563	-0.782230	1
H	-1.997214	0.257493	0.985560	1
H	-2.009194	-1.193987	0.003520	1
H	0.038677	-0.604017	1.887160	1
H	1.523096	-0.720087	-1.357880	1
H	0.043247	-0.210067	-2.197610	1
H	0.259937	-2.506197	-0.563710	1
H	0.024126	2.000503	-0.528920	1
H	1.751506	1.031243	1.817840	1
H	1.595516	2.742393	1.125590	1
Es	0.188499	-1.599765	-1.375057	99
Es	0.204693	-0.760186	1.501904	99
Es	0.245501	-2.196069	-1.559654	99
Es	-1.874946	-0.855086	0.015304	99
Es	0.252704	-1.259887	1.029031	99
Es	1.597594	1.257336	1.591528	99
Es	-0.865504	-0.142995	0.014395	99
Es	-0.096212	-0.144381	-0.002854	99
Es	-0.259720	-2.171397	-1.554790	99
Es	-1.919271	0.223044	-0.521382	99
Es	0.414633	1.269036	0.177948	99
Es	-1.628059	-0.167302	0.044652	99
Es	-1.866987	0.128049	0.692996	99
Es	1.294118	1.699344	1.094831	99
Es	0.145056	1.753621	-0.309698	99
Es	0.046415	-2.120428	-1.436942	99
Es	0.168486	0.573754	0.090879	99
Es	1.496073	2.402605	1.122188	99
Es	0.378789	-0.985411	1.058858	99
Es	0.158535	-0.369897	-1.913561	99
Es	0.602143	1.544822	0.855304	99
Es	0.158535	-2.308888	-0.965064	99
Es	0.178967	-0.668561	0.668696	99
Es	0.164686	-0.430280	-0.653381	99
Es	0.428289	-0.747620	-1.325313	99
Es	1.104798	1.418994	0.438204	99
Es	0.670017	-0.954829	1.051674	99
Es	1.176742	-0.714108	-1.338124	99
45
Properties=species:S:1:pos:R:3:Z:I:1 energy=-344.9832401370579 field_type=dipole dipole="0.000000 0.000000 0.000000" charge=0
C	-1.628084	-0.167327	0.044650	6
C	-0.096293	-0.144287	-0.003030	6
O	0.378956	-0.985617	1.058840	8
C	0.428396	-0.747427	-1.325350	6
O	0.046336	-2.120577	-1.437220	8
C	0.414716	1.269083	0.178030	6
C	1.294076	1.699313	1.094760	6
H	-2.067804	0.399563	-0.782230	1
H	-1.997214	0.257493	0.985560	1
H	-2.009194	-1.193987	0.003520	1
H	0.038677	-0.604017	1.887160	1
H	1.523096	-0.720087	-1.357880	1
H	0.043247	-0.210067	-2.197610	1
H	0.259937	-2.506197	-0.563710	1
H	0.024126	2.000503	-0.528920	1
H	1.751506	1.031243	1.817840	1
H	1.595516	2.742393	1.125590	1
Es	0.187983	-1.599824	-1.375189	99
Es	1.496003	2.402489	1.122217	99
Es	0.247922	-1.255793	1.029951	99
Es	0.180083	-0.668060	0.668557	99
Es	0.145163	1.753487	-0.309551	99
Es	-0.096217	-0.144381	-0.002853	99
Es	0.242952	-2.190821	-1.549372	99
Es	1.105188	1.418852	0.437964	99
Es	-1.628058	-0.167302	0.044651	99
Es	0.164766	-0.430230	-0.653391	99
Es	0.378787	-0.985399	1.058862	99
Es	0.414634	1.269035	0.177946	99
Es	0.168351	0.573769	0.090770	99
Es	0.158528	-0.369960	-1.913509	99
Es	0.156626	-2.308055	-0.964341	99
Es	0.428291	-0.747616	-1.325313	99
Es	0.207223	-0.758693	1.502410	99
Es	0.671137	-0.960861	1.050354	99
Es	1.597579	1.257595	1.591522	99
Es	-1.867210	0.128003	0.693165	99
Es	-1.919282	0.222855	-0.521451	99
Es	0.601784	1.544843	0.855604	99
Es	-0.865414	-0.143074	0.014365	99
Es	-1.874809	-0.854782	0.015230	99
Es	-0.254497	-2.177455	-1.565895	99
Es	0.046133	-2.120292	-1.436758	99
Es	1.294121	1.699345	1.094827	99
Es	1.176805	-0.714159	-1.338202	99
45
Properties=species:S:1:pos:R:3:Z:I:1 energy=-344.9832401370579 field_type=dipole dipole="0.000000 0.000000 0.000000" charge=0
C	-1.628084	-0.167327	0.044650	6
C	-0.096293	-0.144287	-0.003030	6
O	0.378956	-0.985617	1.058840	8
C	0.428396	-0.747427	-1.325350	6
O	0.046336	-2.120577	-1.437220	8
C	0.414716	1.269083	0.178030	6
C	1.294076	1.699313	1.094760	6
H	-2.067804	0.399563	-0.782230	1
H	-1.997214	0.257493	0.985560	1
H	-2.009194	-1.193987	0.003520	1
H	0.038677	-0.604017	1.887160	1
H	1.523096	-0.720087	-1.357880	1
H	0.043247	-0.210067	-2.197610	1
H	0.259937	-2.506197	-0.563710	1
H	0.024126	2.000503	-0.528920	1
H	1.751506	1.031243	1.817840	1
H	1.595516	2.742393	1.125590	1
Es	0.428288	-0.747621	-1.325313	99
Es	0.378799	-0.985371	1.058868	99
Es	0.145480	1.753365	-0.309373	99
Es	0.251312	-1.255186	1.030446	99
Es	0.158502	-0.370020	-1.913469	99
Es	-1.867296	0.128214	0.693312	99
Es	0.046372	-2.120372	-1.436869	99
Es	1.176792	-0.714217	-1.338346	99
Es	-1.874685	-0.854627	0.015313	99
Es	1.294118	1.699344	1.094829	99
Es	0.188804	-1.600124	-1.375445	99
Es	0.670415	-0.958571	1.049609	99
Es	1.495933	2.402413	1.122184	99
Es	-1.919314	0.222502	-0.521499	99
Es	0.168144	0.573690	0.090531	99
Es	0.206936	-0.759182	1.503163	99
Es	0.177681	-0.670389	0.668039	99
Es	0.239033	-2.187302	-1.543799	99
Es	1.105461	1.418725	0.437867	99
Es	0.164787	-0.430280	-0.653332	99
Es	-1.628060	-0.167302	0.044652	99
Es	0.601546	1.544941	0.855721	99
Es	-0.865391	-0.143037	0.014268	99
Es	1.597525	1.257829	1.591594	99
Es	-0.252771	-2.180158	-1.570942	99
Es	0.414633	1.269032	0.177945	99
Es	0.157741	-2.308401	-0.964531	99
Es	-0.096212	-0.144379	-0.002854	99
45
Properties=species:S:1:pos:R:3:Z:I:1 energy=-344.9832401370579 field_type=dipole dipole="0.000000 0.000000 0.000000" charge=0
C	-1.628084	-0.167327	0.044650	6
C	-0.096293	-0.144287	-0.003030	6
O	0.378956	-0.985617	1.058840	8
C	0.428396	-0.747427	-1.325350	6
O	0.046336	-2.120577	-1.437220	8
C	0.414716	1.269083	0.178030	6
C	1.294076	1.699313	1.094760	6
H	-2.067804	0.399563	-0.782230	1
H	-1.997214	0.257493	0.985560	1
H	-2.009194	-1.193987	0.003520	1
H	0.038677	-0.604017	1.887160	1
H	1.523096	-0.720087	-1.357880	1
H	0.043247	-0.210067	-2.197610	1
H	0.259937	-2.506197	-0.563710	1
H	0.024126	2.000503	-0.528920	1
H	1.751506	1.031243	1.817840	1
H	1.595516	2.742393	1.125590	1
Es	-1.628058	-0.167302	0.044652	99
Es	0.176190	-0.671838	0.667688	99
Es	0.207126	-0.759021	1.503329	99
Es	-1.919360	0.222415	-0.521483	99
Es	0.168107	0.573664	0.090451	99
Es	0.428290	-0.747622	-1.325312	99
Es	0.155599	-2.307506	-0.963856	99
Es	1.176909	-0.714202	-1.338425	99
Es	1.496002	2.402308	1.122322	99
Es	-1.867511	0.128084	0.693335	99
Es	0.046462	-2.120401	-1.436903	99
Es	0.164833	-0.430203	-0.653254	99
Es	0.670867	-0.958621	1.048930	99
Es	1.294120	1.699342	1.094827	99
Es	-0.096214	-0.144375	-0.002858	99
Es	0.252159	-1.253871	1.031237	99
Es	1.597491	1.257894	1.591458	99
Es	0.378784	-0.985331	1.058868	99
Es	1.105907	1.418784	0.437533	99
Es	0.414636	1.269034	0.177945	99
Es	0.236357	-2.182570	-1.534819	99
Es	-1.874618	-0.854434	0.015241	99
Es	0.601239	1.544972	0.855916	99
Es	-0.246937	-2.185687	-1.580824	99
Es	0.145423	1.753220	-0.309105	99
Es	-0.865389	-0.142997	0.014281	99
Es	0.187702	-1.600112	-1.375215	99
Es	0.158457	-0.370109	-1.913389	99
45
Properties=species:S:1:pos:R:3:Z:I:1 energy=-344.9832401370579 field_type=dipole dipole="0.000000 0.000000 0.000000" charge=0
C	-1.628084	-0.167327	0.044650	6
C	-0.096293	-0.144287	-0.003030	6
O	0.378956	-0.985617	1.058840	8
C	0.428396	-0.747427	-1.325350	6
O	0.046336	-2.120577	-1.437220	8
C	0.414716	1.269083	0.178030	6
C	1.294076	1.699313	1.094760	6
H	-2.067804	0.399563	-0.782230	1
H	-1.997214	0.257493	0.985560	1
H	-2.009194	-1.193987	0.003520	1
H	0.038677	-0.604017	1.887160	1
H	1.523096	-0.720087	-1.357880	1
H	0.043247	-0.210067	-2.197610	1
H	0.259937	-2.506197	-0.563710	1
H	0.024126	2.000503	-0.528920	1
H	1.751506	1.031243	1.817840	1
H	1.595516	2.742393	1.125590	1
Es	1.106042	1.418691	0.437399	99
Es	0.188742	-1.600444	-1.376422	99
Es	0.206910	-0.759257	1.503507	99
Es	0.428290	-0.747618	-1.325314	99
Es	1.177030	-0.714185	-1.338434	99
Es	-1.867516	0.128117	0.693494	99
Es	0.600972	1.545077	0.856175	99
Es	0.414634	1.269034	0.177946	99
Es	-1.628059	-0.167303	0.044651	99
Es	1.495883	2.402243	1.122252	99
Es	1.597605	1.258106	1.591472	99
Es	0.232522	-2.180136	-1.529877	99
Es	-0.865334	-0.143061	0.014072	99
Es	0.156109	-2.307042	-0.963430	99
Es	0.164783	-0.430189	-0.653340	99
Es	1.294120	1.699345	1.094828	99
Es	-1.874685	-0.854466	0.015023	99
Es	0.145407	1.752999	-0.309167	99
Es	-0.096211	-0.144381	-0.002852	99
Es	0.670841	-0.956925	1.048400	99
Es	0.378786	-0.985388	1.058866	99
Es	0.046405	-2.120418	-1.436948	99
Es	0.158471	-0.370226	-1.913334	99
Es	0.168151	0.573752	0.090515	99
Es	-1.919298	0.222376	-0.521212	99
Es	0.254523	-1.253063	1.032053	99
Es	-0.244606	-2.188199	-1.584950	99
Es	0.174057	-0.673921	0.667196	99
45
Properties=species:S:1:pos:R:3:Z:I:1 energy=-344.9832401370579 field_type=dipole dipole="0.000000 0.000000 0.000000" charge=0
C	-1.628084	-0.167327	0.044650	6
C	-0.096293	-0.144287	-0.003030	6
O	0.378956	-0.985617	1.058840	8
C	0.428396	-0.747427	-1.325350	6
O	0.046336	-2.120577	-1.437220	8
C	0.414716	1.269083	0.178030	6
C	1.294076	1.699313	1.094760	6
H	-2.067804	0.399563	-0.782230	1
H	-1.997214	0.257493	0.985560	1
H	-2.009194	-1.193987	0.003520	1
H	0.038677	-0.604017	1.887160	1
H	1.523096	-0.720087	-1.357880	1
H	0.043247	-0.210067	-2.197610	1
H	0.259937	-2.506197	-0.563710	1
H	0.024126	2.000503	-0.528920	1
H	1.751506	1.031243	1.817840	1
H	1.595516	2.742393	1.125590	1
Es	0.672292	-0.959019	1.047962	99
Es	1.177049	-0.714216	-1.338517	99
Es	0.158445	-0.370185	-1.913234	99
Es	-0.096210	-0.144382	-0.002854	99
Es	0.173679	-0.674749	0.666858	99
Es	-1.919476	0.222060	-0.521493	99
Es	1.597551	1.258034	1.591330	99
Es	0.189632	-1.600432	-1.376577	99
Es	-0.865232	-0.143035	0.014166	99
Es	1.294118	1.699344	1.094831	99
Es	1.106268	1.418740	0.437194	99
Es	0.153869	-2.306577	-0.963146	99
Es	0.428291	-0.747616	-1.325315	99
Es	-1.867686	0.128139	0.693531	99
Es	0.600747	1.545227	0.856300	99
Es	0.168022	0.573713	0.090372	99
Es	-1.874476	-0.854065	0.015256	99
Es	0.414637	1.269034	0.177944	99
Es	0.207385	-0.758371	1.503042	99
Es	0.229291	-2.177359	-1.523188	99
Es	0.164776	-0.430246	-0.653312	99
Es	0.378754	-0.985405	1.058871	99
Es	0.252970	-1.251062	1.033199	99
Es	1.496022	2.402086	1.122434	99
Es	0.046292	-2.120350	-1.436819	99
Es	-0.239946	-2.191471	-1.591999	99
Es	0.145569	1.752981	-0.308915	99
Es	-1.628058	-0.167301	0.044651	99
45
Properties=species:S:1:pos:R:3:Z:I:1 energy=-344.9832401370579 field_type=dipole dipole="0.000000 0.000000 0.000000" charge=0
C	-1.628084	-0.167327	0.044650	6
C	-0.096293	-0.144287	-0.003030	6
O	0.378956	-0.985617	1.058840	8
C	0.428396	-0.747427	-1.325350	6
O	0.046336	-2.120577	-1.437220	8
C	0.414716	1.269083	0.178030	6
C	1.294076	1.699313	1.094760	6
H	-2.067804	0.399563	-0.782230	1
H	-1.997214	0.257493	0.985560	1
H	-2.009194	-1.193987	0.003520	1
H	0.038677	-0.604017	1.887160	1
H	1.523096	-0.720087	-1.357880	1
H	0.043247	-0.210067	-2.197610	1
H	0.259937	-2.506197	-0.563710	1
H	0.024126	2.000503	-0.528920	1
H	1.751506	1.031243	1.817840	1
H	1.595516	2.742393	1.125590	1
Es	0.414637	1.269038	0.177945	99
Es	-1.919414	0.222035	-0.521498	99
Es	-1.628058	-0.167302	0.044651	99
Es	0.158568	-0.370175	-1.913307	99
Es	0.190452	-1.601345	-1.377186	99
Es	1.106423	1.418560	0.437152	99
Es	-1.874509	-0.854204	0.015303	99
Es	0.428292	-0.747616	-1.325314	99
Es	1.597312	1.258158	1.591320	99
Es	-0.865235	-0.143099	0.014084	99
Es	0.156033	-2.306539	-0.963249	99
Es	0.210404	-0.757128	1.503688	99
Es	-1.867601	0.128274	0.693503	99
Es	0.378739	-0.985385	1.058856	99
Es	1.176901	-0.714258	-1.338482	99
Es	0.670479	-0.960348	1.046552	99
Es	-0.242686	-2.189662	-1.588994	99
Es	0.229077	-2.178304	-1.525552	99
Es	0.172616	-0.675920	0.666430	99
Es	0.252796	-1.249750	1.034438	99
Es	1.496091	2.402140	1.122501	99
Es	0.145825	1.752883	-0.308768	99
Es	0.600637	1.545337	0.856355	99
Es	0.167885	0.573803	0.090134	99
Es	0.046259	-2.120331	-1.436793	99
Es	-0.096212	-0.144379	-0.002855	99
Es	1.294115	1.699344	1.094833	99
Es	0.164747	-0.430312	-0.653174	99
45
Properties=species:S:1:pos:R:3:Z:I:1 energy=-344.9832401370579 field_type=dipole dipole="0.000000 0.000000 0.000000" charge=0
C	-1.628084	-0.167327	0.044650	6
C	-0.096293	-0.144287	-0.003030	6
O	0.378956	-0.985617	1.058840	8
C	0.428396	-0.747427	-1.325350	6
O	0.046336	-2.120577	-1.437220	8
C	0.414716	1.269083	0.178030	6
C	1.294076	1.699313	1.094760	6
H	-2.067804	0.399563	-0.782230	1
H	-1.997214	0.257493	0.985560	1
H	-2.009194	-1.193987	0.003520	1
H	0.038677	-0.604017	1.887160	1
H	1.523096	-0.720087	-1.357880	1
H	0.043247	-0.210067	-2.197610	1
H	0.259937	-2.506197	-0.563710	1
H	0.024126	2.000503	-0.528920	1
H	1.751506	1.031243	1.817840	1
H	1.595516	2.742393	1.125590	1
Es	0.227596	-2.177361	-1.523013	99
Es	0.155442	-2.306087	-0.963058	99
Es	0.600461	1.545382	0.856472	99
Es	0.164764	-0.430296	-0.653233	99
Es	-1.867738	0.128152	0.693541	99
Es	1.177078	-0.714243	-1.338477	99
Es	-1.919552	0.221918	-0.521498	99
Es	-0.241323	-2.190812	-1.591296	99
Es	0.191009	-1.601500	-1.377482	99
Es	0.145895	1.752786	-0.308574	99
Es	0.251737	-1.248463	1.035186	99
Es	0.167756	0.573759	0.090017	99
Es	0.669066	-0.962496	1.046105	99
Es	0.046390	-2.120354	-1.436892	99
Es	0.414635	1.269033	0.177945	99
Es	0.173119	-0.676188	0.665708	99
Es	1.294118	1.699344	1.094830	99
Es	0.378759	-0.985337	1.058873	99
Es	1.106614	1.418596	0.437010	99
Es	-1.628058	-0.167302	0.044651	99
Es	1.496089	2.402073	1.122521	99
Es	0.158474	-0.370224	-1.913259	99
Es	0.428292	-0.747616	-1.325315	99
Es	-1.874400	-0.853999	0.015298	99
Es	-0.865184	-0.143114	0.014055	99
Es	0.212392	-0.755974	1.504035	99
Es	-0.096213	-0.144376	-0.002858	99
Es	1.597360	1.258216	1.591276	99
45
Properties=species:S:1:pos:R:3:Z:I:1 energy=-344.9832401370579 field_type=dipole dipole="0.000000 0.000000 0.000000" charge=0
C	-1.628084	-0.167327	0.044650	6
C	-0.096293	-0.144287	-0.003030	6
O	0.378956	-0.985617	1.058840	8
C	0.428396	-0.747427	-1.325350	6
O	0.046336	-2.120577	-1.437220	8
C	0.414716	1.269083	0.178030	6
C	1.294076	1.699313	1.094760	6
H	-2.067804	0.399563	-0.782230	1
H	-1.997214	0.257493	0.985560	1
H	-2.009194	-1.193987	0.003520	1
H	0.038677	-0.604017	1.887160	1
H	1.523096	-0.720087	-1.357880	1
H	0.043247	-0.210067	-2.197610	1
H	0.259937	-2.506197	-0.563710	1
H	0.024126	2.000503	-0.528920	1
H	1.751506	1.031243	1.817840	1
H	1.595516	2.742393	1.125590	1
Es	-0.865084	-0.142951	0.014123	99
Es	-0.235300	-2.195117	-1.599335	99
Es	0.170582	-0.678641	0.665847	99
Es	0.428291	-0.747614	-1.325315	99
Es	0.164722	-0.430243	-0.653251	99
Es	0.046464	-2.120410	-1.436893	99
Es	1.496010	2.401944	1.122497	99
Es	1.597488	1.258302	1.591279	99
Es	0.190102	-1.601395	-1.376851	99
Es	-1.919628	0.221764	-0.521508	99
Es	-1.874360	-0.853918	0.015380	99
Es	0.670946	-0.957306	1.046733	99
Es	0.167713	0.573669	0.090042	99
Es	0.153993	-2.306041	-0.962736	99
Es	1.106921	1.418683	0.436738	99
Es	1.294120	1.699345	1.094828	99
Es	-0.096212	-0.144380	-0.002856	99
Es	0.223894	-2.173114	-1.515908	99
Es	0.414630	1.269035	0.177949	99
Es	0.600389	1.545394	0.856526	99
Es	0.158442	-0.370312	-1.913241	99
Es	-1.867904	0.128146	0.693435	99
Es	-1.628056	-0.167305	0.044651	99
Es	0.378774	-0.985367	1.058870	99
Es	0.208606	-0.757472	1.503366	99
Es	0.256168	-1.249650	1.035088	99
Es	1.177148	-0.714223	-1.338499	99
Es	0.145716	1.752693	-0.308386	99
45
Properties=species:S:1:pos:R:3:Z:I:1 energy=-344.9832401370579 field_type=dipole dipole="0.000000 0.000000 0.000000" charge=0
C	-1.628084	-0.167327	0.044650	6
C	-0.096293	-0.144287	-0.003030	6
O	0.378956	-0.985617	1.058840	8
C	0.428396	-0.747427	-1.325350	6
O	0.046336	-2.120577	-1.437220	8
C	0.414716	1.269083	0.178030	6
C	1.294076	1.699313	1.094760	6
H	-2.067804	0.399563	-0.782230	1
H	-1.997214	0.257493	0.985560	1
H	-2.009194	-1.193987	0.003520	1
H	0.038677	-0.604017	1.887160	1
H	1.523096	-0.720087	-1.357880	1
H	0.043247	-0.210067	-2.197610	1
H	0.259937	-2.506197	-0.563710	1
H	0.024126	2.000503	-0.528920	1
H	1.751506	1.031243	1.817840	1
H	1.595516	2.742393	1.125590	1
Es	-0.865107	-0.143170	0.014026	99
Es	0.428291	-0.747618	-1.325314	99
Es	0.167608	0.573758	0.090018	99
Es	0.414635	1.269034	0.177945	99
Es	0.210028	-0.756896	1.503726	99
Es	0.158457	-0.370282	-1.913116	99
Es	0.220932	-2.171616	-1.513079	99
Es	-1.628057	-0.167302	0.044651	99
Es	1.597372	1.258312	1.591153	99
Es	0.378771	-0.985294	1.058880	99
Es	-0.096212	-0.144379	-0.002855	99
Es	-1.874596	-0.853939	0.014987	99
Es	-0.233755	-2.196621	-1.601530	99
Es	0.190898	-1.601762	-1.377749	99
Es	0.046416	-2.120366	-1.436903	99
Es	-1.919334	0.221966	-0.521233	99
Es	1.106884	1.418514	0.436831	99
Es	1.496224	2.401954	1.122530	99
Es	1.177225	-0.714187	-1.338520	99
Es	-1.867949	0.128106	0.693590	99
Es	0.671800	-0.961021	1.045830	99
Es	1.294116	1.699345	1.094833	99
Es	0.164759	-0.430222	-0.653253	99
Es	0.170636	-0.678674	0.665695	99
Es	0.154613	-2.305737	-0.962556	99
Es	0.600171	1.545507	0.856671	99
Es	0.253809	-1.246573	1.035700	99
Es	0.145939	1.752681	-0.308386	99
45
Properties=species:S:1:pos:R:3:Z:I:1 energy=-344.9832401370579 field_type=dipole dipole="0.000000 0.000000 0.000000" charge=0
C	-1.628084	-0.167327	0.044650	6
C	-0.096293	-0.144287	-0.003030	6
O	0.378956	-0.985617	1.058840	8
C	0.428396	-0.747427	-1.325350	6
O	0.046336	-2.120577	-1.437220	8
C	0.414716	1.269083	0.178030	6
C	1.294076	1.699313	1.094760	6
H	-2.067804	0.399563	-0.782230	1
H	-1.997214	0.257493	0.985560	1
H	-2.009194	-1.193987	0.003520	1
H	0.038677	-0.604017	1.887160	1
H	1.523096	-0.720087	-1.357880	1
H	0.043247	-0.210067	-2.197610	1
H	0.259937	-2.506197	-0.563710	1
H	0.024126	2.000503	-0.528920	1
H	1.751506	1.031243	1.817840	1
H	1.595516	2.742393	1.125590	1
Es	-1.874305	-0.853893	0.015352	99
Es	-1.628057	-0.167302	0.044651	99
Es	0.168757	-0.681594	0.664385	99
Es	0.378758	-0.985337	1.058867	99
Es	1.106877	1.418606	0.436800	99
Es	1.177110	-0.714306	-1.338499	99
Es	0.146079	1.752703	-0.308173	99
Es	0.208823	-0.756829	1.503089	99
Es	-0.233756	-2.196162	-1.601973	99
Es	0.600202	1.545436	0.856687	99
Es	0.158545	-0.370259	-1.913216	99
Es	0.414635	1.269035	0.177946	99
Es	0.220448	-2.171741	-1.512573	99
Es	0.164740	-0.430284	-0.653173	99
Es	0.428289	-0.747619	-1.325314	99
Es	1.496132	2.401970	1.122589	99
Es	0.192035	-1.601713	-1.377457	99
Es	0.046344	-2.120375	-1.436865	99
Es	-1.867863	0.128217	0.693563	99
Es	-0.096213	-0.144379	-0.002855	99
Es	0.167524	0.573823	0.089808	99
Es	0.153990	-2.306047	-0.962944	99
Es	1.597407	1.258302	1.591146	99
Es	0.257334	-1.246734	1.036873	99
Es	0.671351	-0.957922	1.046544	99
Es	1.294117	1.699344	1.094832	99
Es	-0.865097	-0.143101	0.013968	99
Es	-1.919629	0.221678	-0.521488	99
45
Properties=species:S:1:pos:R:3:Z:I:1 energy=-344.9832401370579 field_type=dipole dipole="0.000000 0.000000 0.000000" charge=0
C	-1.628084	-0.167327	0.044650	6
C	-0.096293	-0.144287	-0.003030	6
O	0.378956	-0.985617	1.058840	8
C	0.428396	-0.747427	-1.325350	6
O	0.046336	-2.120577	-1.437220	8
C	0.414716	1.269083	0.178030	6
C	1.294076	1.699313	1.094760	6
H	-2.067804	0.399563	-0.782230	1
H	-1.997214	0.257493	0.985560	1
H	-2.009194	-1.193987	0.003520	1
H	0.038677	-0.604017	1.887160	1
H	1.523096	-0.720087	-1.357880	1
H	0.043247	-0.210067	-2.197610	1
H	0.259937	-2.506197	-0.563710	1
H	0.024126	2.000503	-0.528920	1
H	1.751506	1.031243	1.817840	1
H	1.595516	2.742393	1.125590	1
Es	-1.867909	0.128137	0.693596	99
Es	-1.628058	-0.167302	0.044651	99
Es	0.670713	-0.957242	1.045121	99
Es	0.600110	1.545521	0.856692	99
Es	-1.919517	0.221802	-0.521279	99
Es	-1.874485	-0.853876	0.015143	99
Es	0.158334	-0.370324	-1.912951	99
Es	1.597370	1.258360	1.591085	99
Es	0.046419	-2.120387	-1.436890	99
Es	0.167112	-0.682469	0.665032	99
Es	0.428290	-0.747621	-1.325313	99
Es	-0.096212	-0.144379	-0.002854	99
Es	1.177261	-0.714207	-1.338785	99
Es	0.167589	0.573768	0.090012	99
Es	1.106997	1.418568	0.436743	99
Es	-0.232191	-2.198576	-1.603628	99
Es	0.145971	1.752590	-0.308262	99
Es	0.258531	-1.245841	1.036579	99
Es	0.209847	-0.757446	1.504182	99
Es	0.217888	-2.169842	-1.510278	99
Es	-0.865046	-0.143136	0.013918	99
Es	0.164879	-0.430328	-0.653087	99
Es	1.496212	2.401976	1.122580	99
Es	0.378770	-0.985401	1.058863	99
Es	1.294117	1.699344	1.094832	99
Es	0.155540	-2.305507	-0.962835	99
Es	0.414634	1.269035	0.177947	99
Es	0.191407	-1.601701	-1.378243	99
45
Properties=species:S:1:pos:R:3:Z:I:1 energy=-344.9832401370579 field_type=dipole dipole="0.000000 0.000000 0.000000" charge=0
C	-1.628084	-0.167327	0.044650	6
C	-0.096293	-0.144287	-0.003030	6
O	0.378956	-0.985617	1.058840	8
C	0.428396	-0.747427	-1.325350	6
O	0.046336	-2.120577	-1.437220	8
C	0.414716	1.269083	0.178030	6
C	1.294076	1.699313	1.094760	6
H	-2.067804	0.399563	-0.782230	1
H	-1.997214	0.257493	0.985560	1
H	-2.009194	-1.193987	0.003520	1