42
Properties=species:S:1:pos:R:3:Z:I:1 energy=-343.76611375176816 field_type=dipole dipole="0.000000 0.000000 0.000000" charge=0
O	-2.074251	-0.111285	-0.144864	8
C	-0.656321	0.029385	-0.075714	6
C	0.251099	-0.655245	-1.146434	6
C	1.297210	-0.288805	-0.029394	6
C	0.173929	-0.829405	0.931116	6
O	1.307609	1.160915	0.096836	8
C	-0.100881	1.459585	0.053796	6
H	-2.405941	0.178445	0.722646	1
H	0.368850	-0.125585	-2.095964	1
H	0.077569	-1.718855	-1.340954	1
H	2.279860	-0.758895	-0.031614	1
H	-0.007201	-1.909285	0.933546	1
H	0.217059	-0.463925	1.960926	1
H	-0.323880	2.083155	-0.816594	1
H	-0.404711	1.949795	0.982666	1
Es	-0.280116	-0.308282	-0.689474	99
Es	0.173944	-0.829356	0.931051	99
Es	-1.541307	-0.047393	-0.099150	99
Es	0.052997	-1.557391	0.912495	99
Es	1.297082	-0.288601	-0.029382	99
Es	-2.074004	-0.111272	-0.144467	99
Es	0.800832	-0.601664	0.533650	99
Es	-2.129215	-0.410329	-0.164583	99
Es	-2.169960	0.094300	-0.349342	99
Es	0.198653	-0.576521	1.642378	99
Es	-0.412833	0.759008	-0.007474	99
Es	-0.319582	1.792607	0.690689	99
Es	0.251093	-0.655205	-1.146345	99
Es	-0.260705	1.883654	-0.538089	99
Es	0.768919	1.270478	0.080602	99
Es	1.307363	1.160721	0.096771	99
Es	-0.100660	1.459494	0.053813	99
Es	0.845084	-0.498860	-0.667251	99
Es	0.135943	-1.375426	-1.255711	99
Es	-2.234114	0.050504	0.328186	99
Es	1.971576	-0.597161	-0.029928	99
Es	-0.656486	0.029327	-0.075721	99
Es	1.289337	0.606819	0.047331	99
Es	1.434645	1.269922	-0.160846	99
Es	1.407337	1.221268	0.381362	99
Es	0.330242	-0.290558	-1.798517	99
Es	-0.314940	-0.408541	0.507926	99
42
Properties=species:S:1:pos:R:3:Z:I:1 energy=-343.76611375176816 field_type=dipole dipole="0.000000 0.000000 0.000000" charge=0
O	-2.074251	-0.111285	-0.144864	8
C	-0.656321	0.029385	-0.075714	6
C	0.251099	-0.655245	-1.146434	6
C	1.297210	-0.288805	-0.029394	6
C	0.173929	-0.829405	0.931116	6
O	1.307609	1.160915	0.096836	8
C	-0.100881	1.459585	0.053796	6
H	-2.405941	0.178445	0.722646	1
H	0.368850	-0.125585	-2.095964	1
H	0.077569	-1.718855	-1.340954	1
H	2.279860	-0.758895	-0.031614	1
H	-0.007201	-1.909285	0.933546	1
H	0.217059	-0.463925	1.960926	1
H	-0.323880	2.083155	-0.816594	1
H	-0.404711	1.949795	0.982666	1
Es	0.053216	-1.557366	0.912425	99
Es	1.297082	-0.288599	-0.029378	99
Es	0.198540	-0.576500	1.642491	99
Es	-0.412600	0.759283	-0.007362	99
Es	0.136550	-1.375643	-1.255786	99
Es	-0.319908	1.792883	0.691085	99
Es	1.971826	-0.597364	-0.030204	99
Es	1.290530	0.605942	0.046414	99
Es	-1.540869	-0.049615	-0.099463	99
Es	1.307298	1.160665	0.096895	99
Es	-0.315106	-0.408407	0.507501	99
Es	-2.167817	0.091891	-0.349632	99
Es	-0.280540	-0.307886	-0.689270	99
Es	0.173941	-0.829355	0.931050	99
Es	-2.074016	-0.111092	-0.144585	99
Es	1.408022	1.221018	0.379134	99
Es	-0.100662	1.459495	0.053812	99
Es	0.768144	1.271045	0.082207	99
Es	-2.130350	-0.408951	-0.164026	99
Es	-2.235507	0.053660	0.328521	99
Es	0.844444	-0.498887	-0.667540	99
Es	1.433489	1.270431	-0.159535	99
Es	-0.656487	0.029329	-0.075726	99
Es	-0.260622	1.883208	-0.538090	99
Es	0.251101	-0.655198	-1.146340	99
Es	0.330725	-0.290783	-1.798276	99
Es	0.800702	-0.601662	0.533656	99
42
Properties=species:S:1:pos:R:3:Z:I:1 energy=-343.76611375176816 field_type=dipole dipole="0.000000 0.000000 0.000000" charge=0
O	-2.074251	-0.111285	-0.144864	8
C	-0.656321	0.029385	-0.075714	6
C	0.251099	-0.655245	-1.146434	6
C	1.297210	-0.288805	-0.029394	6
C	0.173929	-0.829405	0.931116	6
O	1.307609	1.160915	0.096836	8
C	-0.100881	1.459585	0.053796	6
H	-2.405941	0.178445	0.722646	1
H	0.368850	-0.125585	-2.095964	1
H	0.077569	-1.718855	-1.340954	1
H	2.279860	-0.758895	-0.031614	1
H	-0.007201	-1.909285	0.933546	1
H	0.217059	-0.463925	1.960926	1
H	-0.323880	2.083155	-0.816594	1
H	-0.404711	1.949795	0.982666	1
Es	0.331124	-0.290987	-1.797989	99
Es	-0.656490	0.029329	-0.075722	99
Es	0.251095	-0.655207	-1.146343	99
Es	1.291086	0.605436	0.044832	99
Es	-0.281033	-0.307669	-0.689281	99
Es	0.137260	-1.375883	-1.255874	99
Es	-0.412475	0.759522	-0.007312	99
Es	0.767785	1.271711	0.082701	99
Es	0.843894	-0.498725	-0.667629	99
Es	0.053339	-1.557317	0.912316	99
Es	-0.100663	1.459495	0.053812	99
Es	-2.129915	-0.408344	-0.162610	99
Es	1.405837	1.218462	0.378098	99
Es	1.297081	-0.288603	-0.029379	99
Es	0.198344	-0.576492	1.642622	99
Es	-0.315148	-0.408406	0.507240	99
Es	1.307345	1.160704	0.096811	99
Es	-0.260533	1.882880	-0.538044	99
Es	1.435288	1.272719	-0.157481	99
Es	1.972038	-0.597515	-0.030397	99
Es	-1.541039	-0.050304	-0.099525	99
Es	-2.167950	0.090949	-0.351017	99
Es	0.173944	-0.829356	0.931050	99
Es	-2.074033	-0.111193	-0.144546	99
Es	-2.235548	0.054827	0.328645	99
Es	0.800654	-0.601580	0.533592	99
Es	-0.320165	1.793086	0.691404	99
