39
Properties=species:S:1:pos:R:3:Z:I:1 energy=-342.6676459664755 field_type=dipole dipole="0.000000 0.000000 0.000000" charge=0
O	-2.735644	-0.492192	0.235385	8
C	-1.515534	-0.443682	0.110405	6
C	-0.814114	0.878678	-0.107015	6
C	0.695276	0.908058	0.050065	6
C	1.337445	-0.426892	-0.019915	6
C	0.616296	-1.543882	-0.008915	6
O	-0.774395	-1.586662	0.082605	8
H	-1.249694	1.595828	0.601525	1
H	-1.082494	1.213268	-1.115795	1
H	0.960066	1.373978	1.005615	1
H	1.117425	1.550388	-0.730845	1
H	2.422385	-0.480382	-0.062805	1
H	1.022986	-2.546512	-0.040305	1
Es	0.972872	-0.971530	-0.355421	99
Es	1.005611	-0.985020	0.314646	99
Es	-0.062458	0.864242	-0.026732	99
Es	-0.255867	-1.512138	0.048403	99
Es	-0.861280	-1.660240	-0.164047	99
Es	-0.997744	1.078694	-0.779631	99
Es	-0.774222	-1.586348	0.082584	99
Es	-2.286922	-0.463507	0.447010	99
Es	2.065419	-0.460418	-0.049576	99
Es	0.873620	1.211484	0.699308	99
Es	-2.846200	-0.204628	0.229165	99
Es	-2.844644	-0.778270	0.261141	99
Es	0.615927	-1.543975	-0.008897	99
Es	0.885228	-2.218852	-0.031276	99
Es	-1.000780	-1.127203	0.108034	99
Es	0.695240	0.908003	0.050056	99
Es	1.012940	0.232406	0.010705	99
Es	1.337460	-0.426807	-0.019929	99
Es	-0.814098	0.878587	-0.107002	99
Es	-1.515339	-0.443900	0.110408	99
Es	-2.735287	-0.492165	0.235348	99
Es	-0.839000	-1.717150	0.323216	99
Es	-2.335081	-0.492592	-0.055125	99
Es	0.980411	1.335820	-0.480281	99
Es	-1.107995	1.347116	0.365833	99
Es	-1.125118	0.194452	0.016300	99
39
Properties=species:S:1:pos:R:3:Z:I:1 energy=-342.6676459664755 field_type=dipole dipole="0.000000 0.000000 0.000000" charge=0
O	-2.735644	-0.492192	0.235385	8
C	-1.515534	-0.443682	0.110405	6
C	-0.814114	0.878678	-0.107015	6
C	0.695276	0.908058	0.050065	6
C	1.337445	-0.426892	-0.019915	6
C	0.616296	-1.543882	-0.008915	6
O	-0.774395	-1.586662	0.082605	8
H	-1.249694	1.595828	0.601525	1
H	-1.082494	1.213268	-1.115795	1
H	0.960066	1.373978	1.005615	1
H	1.117425	1.550388	-0.730845	1
H	2.422385	-0.480382	-0.062805	1
H	1.022986	-2.546512	-0.040305	1
Es	1.337463	-0.426805	-0.019915	99
Es	0.885631	-2.218612	-0.030698	99
Es	0.695243	0.908002	0.050055	99
Es	-2.735283	-0.492172	0.235348	99
Es	-0.062571	0.865360	-0.026843	99
Es	1.013065	0.232172	0.010896	99
Es	0.972521	-0.971158	-0.352803	99
Es	0.873885	1.209848	0.696875	99
Es	-0.774744	-1.533140	0.286132	99
Es	-2.837133	-0.203713	0.230185	99
Es	0.981730	1.336605	-0.479456	99
Es	-1.108301	1.347307	0.363886	99
Es	-1.126770	0.193831	0.015452	99
Es	-0.997861	1.078287	-0.776326	99
Es	-1.013268	-1.133852	0.046700	99
Es	1.004735	-0.984466	0.313100	99
Es	0.615923	-1.543977	-0.008900	99
Es	-1.515337	-0.443902	0.110402	99
Es	-0.814097	0.878586	-0.107003	99
Es	-0.774250	-1.586324	0.082325	99
Es	-2.853106	-0.781003	0.264671	99
Es	-0.253827	-1.518004	0.019481	99
Es	-2.337922	-0.491555	-0.054177	99
Es	2.067377	-0.460741	-0.050750	99
Es	-2.285027	-0.463232	0.441559	99
Es	-0.915382	-1.831284	-0.035956	99
39
Properties=species:S:1:pos:R:3:Z:I:1 energy=-342.6676459664755 field_type=dipole dipole="0.000000 0.000000 0.000000" charge=0
O	-2.735644	-0.492192	0.235385	8
C	-1.515534	-0.443682	0.110405	6
C	-0.814114	0.878678	-0.107015	6
C	0.695276	0.908058	0.050065	6
C	1.337445	-0.426892	-0.019915	6
C	0.616296	-1.543882	-0.008915	6
O	-0.774395	-1.586662	0.082605	8
H	-1.249694	1.595828	0.601525	1
H	-1.082494	1.213268	-1.115795	1
H	0.960066	1.373978	1.005615	1
H	1.117425	1.550388	-0.730845	1
H	2.422385	-0.480382	-0.062805	1
H	1.022986	-2.546512	-0.040305	1
Es	-0.906658	-1.852888	0.183025	99
Es	1.337462	-0.426808	-0.019895	99
Es	-0.814097	0.878587	-0.107003	99
Es	0.971711	-0.970654	-0.352617	99
Es	-0.247862	-1.519087	0.061163	99
Es	-0.062396	0.865752	-0.027637	99
Es	-0.997695	1.077551	-0.774301	99
Es	-2.830767	-0.204318	0.226421	99
Es	-0.774186	-1.586262	0.082423	99
Es	1.013513	0.231964	0.011832	99
Es	-1.008362	-1.133913	0.146664	99
Es	0.695242	0.908001	0.050056	99
Es	2.068532	-0.460712	-0.049256	99
Es	0.874698	1.210265	0.696772	99
Es	-2.735366	-0.492192	0.235365	99
Es	-2.859986	-0.780631	0.261538	99
Es	-1.127275	0.194001	0.015852	99
Es	0.981587	1.335448	-0.478376	99
Es	-1.515335	-0.443902	0.110404	99
Es	0.885497	-2.218288	-0.032308	99
Es	1.004914	-0.984404	0.311929	99
Es	-1.109083	1.347459	0.362989	99
Es	-0.794618	-1.510109	-0.075276	99
Es	-2.286305	-0.462997	0.444395	99
Es	0.615918	-1.543978	-0.008905	99
Es	-2.336387	-0.491827	-0.051016	99
39
Properties=species:S:1:pos:R:3:Z:I:1 energy=-342.6676459664755 field_type=dipole dipole="0.000000 0.000000 0.000000" charge=0
O	-2.735644	-0.492192	0.235385	8
C	-1.515534	-0.443682	0.110405	6
C	-0.814114	0.878678	-0.107015	6
C	0.695276	0.908058	0.050065	6
C	1.337445	-0.426892	-0.019915	6
C	0.616296	-1.543882	-0.008915	6
O	-0.774395	-1.586662	0.082605	8
H	-1.249694	1.595828	0.601525	1
H	-1.082494	1.213268	-1.115795	1
H	0.960066	1.373978	1.005615	1
H	1.117425	1.550388	-0.730845	1
H	2.422385	-0.480382	-0.062805	1
H	1.022986	-2.546512	-0.040305	1
Es	1.004957	-0.984312	0.311512	99
Es	-1.109271	1.347776	0.362154	99
Es	-0.814097	0.878588	-0.107003	99
Es	0.695242	0.908001	0.050056	99
Es	-0.774143	-1.586194	0.082825	99
Es	0.981954	1.335509	-0.478038	99
Es	-2.868679	-0.778840	0.260230	99
Es	-2.284316	-0.466195	0.443591	99
Es	-1.127878	0.193985	0.015831	99
Es	1.337464	-0.426803	-0.019930	99
Es	-2.338546	-0.490457	-0.050964	99
Es	0.885437	-2.218041	-0.032505	99
Es	-2.735346	-0.492177	0.235352	99
Es	0.615919	-1.543978	-0.008904	99
Es	0.971418	-0.970494	-0.352039	99
Es	-0.997566	1.076977	-0.772753	99
Es	-0.247050	-1.519132	0.059526	99
Es	2.069167	-0.460681	-0.049379	99
Es	-0.062337	0.865948	-0.027938	99
Es	1.013737	0.231756	0.012401	99
Es	0.874716	1.209886	0.695869	99
Es	-1.515336	-0.443902	0.110402	99
Es	-0.909760	-1.856679	0.170709	99
Es	-2.822058	-0.204412	0.228323	99
Es	-1.011440	-1.133449	0.141936	99
Es	-0.789492	-1.506619	-0.057020	99
39
Properties=species:S:1:pos:R:3:Z:I:1 energy=-342.6676459664755 field_type=dipole dipole="0.000000 0.000000 0.000000" charge=0
O	-2.735644	-0.492192	0.235385	8
C	-1.515534	-0.443682	0.110405	6
C	-0.814114	0.878678	-0.107015	6
C	0.695276	0.908058	0.050065	6
C	1.337445	-0.426892	-0.019915	6
C	0.616296	-1.543882	-0.008915	6
O	-0.774395	-1.586662	0.082605	8
H	-1.249694	1.595828	0.601525	1
H	-1.082494	1.213268	-1.115795	1
H	0.960066	1.373978	1.005615	1
H	1.117425	1.550388	-0.730845	1
H	2.422385	-0.480382	-0.062805	1
H	1.022986	-2.546512	-0.040305	1
Es	-0.774152	-1.586183	0.082800	99
Es	-2.872277	-0.777168	0.264506	99
Es	-0.925776	-1.863293	0.048990	99
Es	-1.108916	1.347099	0.362167	99
Es	1.004422	-0.984210	0.312426	99
Es	-0.247760	-1.519937	0.029683	99
Es	-1.127888	0.194200	0.015082	99
Es	0.695243	0.908003	0.050056	99
Es	0.971786	-0.970495	-0.351476	99
Es	1.013258	0.231772	0.011640	99
Es	-0.763135	-1.502329	0.160427	99
Es	-0.062440	0.865844	-0.027228	99
Es	2.069491	-0.460486	-0.051324	99
Es	1.337463	-0.426804	-0.019921	99
Es	-0.814097	0.878586	-0.107003	99
Es	-1.021135	-1.130200	0.076727	99
Es	-2.337546	-0.491159	-0.054448	99
Es	0.885321	-2.217771	-0.030943	99
Es	-2.285640	-0.465149	0.442645	99
Es	0.615918	-1.543978	-0.008897	99
Es	0.874468	1.208417	0.694966	99
Es	-1.515336	-0.443902	0.110400	99
Es	0.983089	1.336554	-0.478687	99
Es	-2.735314	-0.492203	0.235354	99
Es	-0.998213	1.077281	-0.773073	99
Es	-2.818140	-0.206432	0.229372	99
39
Properties=species:S:1:pos:R:3:Z:I:1 energy=-342.6676459664755 field_type=dipole dipole="0.000000 0.000000 0.000000" charge=0
O	-2.735644	-0.492192	0.235385	8
C	-1.515534	-0.443682	0.110405	6
C	-0.814114	0.878678	-0.107015	6
C	0.695276	0.908058	0.050065	6
C	1.337445	-0.426892	-0.019915	6
C	0.616296	-1.543882	-0.008915	6
O	-0.774395	-1.586662	0.082605	8
H	-1.249694	1.595828	0.601525	1
H	-1.082494	1.213268	-1.115795	1
H	0.960066	1.373978	1.005615	1
H	1.117425	1.550388	-0.730845	1
H	2.422385	-0.480382	-0.062805	1
H	1.022986	-2.546512	-0.040305	1
Es	-1.021666	-1.129367	0.095816	99
Es	0.695241	0.908001	0.050055	99
Es	-0.814098	0.878589	-0.107003	99
Es	-2.811730	-0.207155	0.227958	99
Es	1.004422	-0.984242	0.312202	99
Es	-1.108988	1.346846	0.362015	99
Es	-1.515336	-0.443903	0.110398	99
Es	-2.336476	-0.492225	-0.053973	99
Es	-2.878986	-0.774199	0.263399	99
Es	-1.127984	0.194342	0.015194	99
Es	0.983014	1.336159	-0.478421	99
Es	1.337462	-0.426805	-0.019936	99
Es	-0.924752	-1.867212	0.079669	99
Es	-0.998330	1.077267	-0.772670	99
Es	-2.286514	-0.466345	0.444442	99
Es	-2.735322	-0.492198	0.235350	99
Es	-0.062349	0.865797	-0.027488	99
Es	0.615916	-1.543979	-0.008893	99
Es	0.971707	-0.970414	-0.351671	99
Es	-0.774187	-1.586027	0.082123	99
Es	-0.246324	-1.519974	0.037555	99
Es	0.885163	-2.217550	-0.031364	99
Es	1.013446	0.231703	0.011922	99
Es	2.069798	-0.460432	-0.050826	99
Es	-0.765121	-1.499221	0.103355	99
Es	0.874688	1.208603	0.695031	99
39
Properties=species:S:1:pos:R:3:Z:I:1 energy=-342.6676459664755 field_type=dipole dipole="0.000000 0.000000 0.000000" charge=0
O	-2.735644	-0.492192	0.235385	8
C	-1.515534	-0.443682	0.110405	6
C	-0.814114	0.878678	-0.107015	6
C	0.695276	0.908058	0.050065	6
C	1.337445	-0.426892	-0.019915	6
C	0.616296	-1.543882	-0.008915	6
O	-0.774395	-1.586662	0.082605	8
H	-1.249694	1.595828	0.601525	1
H	-1.082494	1.213268	-1.115795	1
H	0.960066	1.373978	1.005615	1
H	1.117425	1.550388	-0.730845	1
H	2.422385	-0.480382	-0.062805	1
H	1.022986	-2.546512	-0.040305	1
Es	0.983344	1.336400	-0.478123	99
Es	-0.764178	-1.499867	0.120195	99
Es	-2.735238	-0.492281	0.235334	99
Es	-0.246371	-1.520250	0.035586	99
Es	-2.806597	-0.208298	0.225606	99
Es	2.070106	-0.460550	-0.050958	99
Es	0.971793	-0.970302	-0.351089	99
Es	-2.884158	-0.772432	0.266042	99
Es	0.615918	-1.543978	-0.008900	99
Es	-2.287803	-0.464773	0.443985	99
Es	-1.109251	1.347207	0.361416	99
Es	-1.128314	0.194309	0.015024	99
Es	-0.774164	-1.586227	0.082713	99
Es	-0.925081	-1.865622	0.069168	99
Es	0.874534	1.208166	0.694140	99
Es	0.885342	-2.217624	-0.030996	99
Es	1.004072	-0.984034	0.311502	99
Es	-2.335262	-0.494400	-0.053771	99
Es	-1.515335	-0.443902	0.110401	99
Es	-0.062401	0.866227	-0.027412	99
Es	1.337464	-0.426804	-0.019919	99
Es	-0.998070	1.076733	-0.771776	99
Es	-1.022303	-1.129741	0.090902	99
Es	0.695243	0.908002	0.050055	99
Es	-0.814099	0.878587	-0.107015	99
Es	1.013506	0.231512	0.012133	99
39
Properties=species:S:1:pos:R:3:Z:I:1 energy=-342.6676459664755 field_type=dipole dipole="0.000000 0.000000 0.000000" charge=0
O	-2.735644	-0.492192	0.235385	8
C	-1.515534	-0.443682	0.110405	6
C	-0.814114	0.878678	-0.107015	6
C	0.695276	0.908058	0.050065	6
C	1.337445	-0.426892	-0.019915	6
C	0.616296	-1.543882	-0.008915	6
O	-0.774395	-1.586662	0.082605	8
H	-1.249694	1.595828	0.601525	1
H	-1.082494	1.213268	-1.115795	1
H	0.960066	1.373978	1.005615	1
H	1.117425	1.550388	-0.730845	1
H	2.422385	-0.480382	-0.062805	1
H	1.022986	-2.546512	-0.040305	1
Es	-2.887719	-0.770402	0.266159	99
Es	0.885318	-2.217521	-0.031480	99
Es	0.983222	1.336192	-0.477872	99
Es	-2.735367	-0.492186	0.235354	99
Es	-2.285667	-0.464958	0.444730	99
Es	-1.515335	-0.443902	0.110402	99
Es	0.615915	-1.543981	-0.008902	99
Es	-1.109500	1.347292	0.361392	99
Es	0.695244	0.908002	0.050056	99
Es	-2.803078	-0.208648	0.223719	99
Es	0.971774	-0.970144	-0.351144	99
Es	0.874731	1.208219	0.694090	99
Es	1.013671	0.231463	0.012527	99
Es	-2.337310	-0.496050	-0.053049	99
Es	-0.814098	0.878588	-0.107003	99
Es	-0.997886	1.076600	-0.770950	99
Es	1.003974	-0.984080	0.310989	99
Es	2.070328	-0.460576	-0.050403	99
Es	-0.923259	-1.867194	0.095794	99
Es	-1.021425	-1.130065	0.105937	99
Es	-0.774170	-1.586239	0.082547	99
Es	-0.767658	-1.498155	0.071966	99
Es	1.337465	-0.426802	-0.019918	99
Es	-1.128505	0.194365	0.014759	99
Es	-0.245640	-1.519940	0.042185	99
Es	-0.062328	0.866183	-0.027645	99
39
Properties=species:S:1:pos:R:3:Z:I:1 energy=-342.6676459664755 field_type=dipole dipole="0.000000 0.000000 0.000000" charge=0
O	-2.735644	-0.492192	0.235385	8
C	-1.515534	-0.443682	0.110405	6
C	-0.814114	0.878678	-0.107015	6
C	0.695276	0.908058	0.050065	6
C	1.337445	-0.426892	-0.019915	6
C	0.616296	-1.543882	-0.008915	6
O	-0.774395	-1.586662	0.082605	8
H	-1.249694	1.595828	0.601525	1
H	-1.082494	1.213268	-1.115795	1
H	0.960066	1.373978	1.005615	1
H	1.117425	1.550388	-0.730845	1
H	2.422385	-0.480382	-0.062805	1
H	1.022986	-2.546512	-0.040305	1
Es	0.885302	-2.217460	-0.031352	99
Es	2.070513	-0.460566	-0.050791	99
Es	1.337465	-0.426803	-0.019921	99
Es	0.695242	0.908002	0.050059	99
Es	-0.997910	1.076368	-0.770338	99
Es	-1.515336	-0.443902	0.110402	99
Es	-2.284882	-0.465105	0.443379	99
Es	1.004202	-0.983909	0.311131	99
Es	0.983518	1.336545	-0.477643	99
Es	-1.022170	-1.130148	0.101491	99
Es	0.971437	-0.970199	-0.350661	99
Es	-0.245648	-1.520239	0.039951	99
Es	-0.766141	-1.498761	0.089685	99
Es	-2.889174	-0.770213	0.267240	99
Es	-2.735295	-0.492210	0.235343	99
Es	0.874576	1.207700	0.693616	99
Es	-2.338283	-0.496055	-0.053116	99
Es	-0.062325	0.866456	-0.027826	99
Es	-1.109539	1.347337	0.361071	99
Es	-0.924090	-1.866403	0.085422	99
Es	-2.801530	-0.208710	0.224087	99
Es	-0.814098	0.878587	-0.107003	99
Es	-1.128651	0.194306	0.014721	99
Es	-0.774164	-1.585949	0.081996	99
Es	1.013757	0.231369	0.012200	99
Es	0.615917	-1.543978	-0.008902	99
39
Properties=species:S:1:pos:R:3:Z:I:1 energy=-342.6676459664755 field_type=dipole dipole="0.000000 0.000000 0.000000" charge=0
O	-2.735644	-0.492192	0.235385	8
C	-1.515534	-0.443682	0.110405	6
C	-0.814114	0.878678	-0.107015	6
C	0.695276	0.908058	0.050065	6
C	1.337445	-0.426892	-0.019915	6
C	0.616296	-1.543882	-0.008915	6
O	-0.774395	-1.586662	0.082605	8
H	-1.249694	1.595828	0.601525	1
H	-1.082494	1.213268	-1.115795	1
H	0.960066	1.373978	1.005615	1
H	1.117425	1.550388	-0.730845	1
H	2.422385	-0.480382	-0.062805	1
H	1.022986	-2.546512	-0.040305	1
Es	0.615919	-1.543977	-0.008893	99
Es	-2.789313	-0.209551	0.225185	99
Es	1.004121	-0.983914	0.310555	99
Es	-2.338446	-0.497394	-0.053409	99
Es	0.874429	1.207787	0.693116	99
Es	2.070554	-0.460784	-0.050893	99
Es	-0.774184	-1.586193	0.082342	99
Es	-2.735249	-0.492065	0.235346	99
Es	0.885480	-2.217619	-0.031336	99
Es	-1.109665	1.347639	0.360912	99
Es	0.983443	1.336544	-0.477409	99
Es	-0.814098	0.878587	-0.107003	99
Es	0.695243	0.908001	0.050054	99
Es	-0.924181	-1.866240	0.084377	99
Es	-2.901264	-0.763097	0.266544	99
Es	-1.515336	-0.443903	0.110404	99
Es	-2.284877	-0.470169	0.443278	99
Es	-0.765869	-1.498588	0.092905	99
Es	1.337465	-0.426802	-0.019921	99
Es	0.971524	-0.970097	-0.350138	99
Es	-1.022344	-1.130099	0.099133	99
Es	-0.245640	-1.520360	0.039758	99
Es	-1.128883	0.194264	0.014491	99
Es	1.013848	0.231277	0.012527	99
Es	-0.997668	1.076157	-0.769762	99
Es	-0.062314	0.866654	-0.027924	99
39
Properties=species:S:1:pos:R:3:Z:I:1 energy=-342.6676459664755 field_type=dipole dipole="0.000000 0.000000 0.000000" charge=0
O	-2.735644	-0.492192	0.235385	8
C	-1.515534	-0.443682	0.110405	6
C	-0.814114	0.878678	-0.107015	6
C	0.695276	0.908058	0.050065	6
C	1.337445	-0.426892	-0.019915	6
C	0.616296	-1.543882	-0.008915	6
O	-0.774395	-1.586662	0.082605	8
H	-1.249694	1.595828	0.601525	1
H	-1.082494	1.213268	-1.115795	1
H	0.960066	1.373978	1.005615	1
H	1.117425	1.550388	-0.730845	1
H	2.422385	-0.480382	-0.062805	1
H	1.022986	-2.546512	-0.040305	1
Es	-0.774068	-1.585297	0.083469	99
Es	-2.790304	-0.210283	0.225309	99
Es	-1.022541	-1.130219	0.096064	99
Es	0.885489	-2.217613	-0.031227	99
Es	1.337464	-0.426803	-0.019923	99
Es	0.971626	-0.970035	-0.349878	99
Es	0.874385	1.207486	0.692480	99
Es	-2.735291	-0.492243	0.235357	99
Es	-1.129073	0.194275	0.014352	99
Es	-0.814098	0.878587	-0.107002	99
Es	0.695242	0.908001	0.050056	99
Es	-0.924606	-1.865672	0.078766	99
Es	-0.062348	0.866874	-0.027655	99
Es	-1.109774	1.347606	0.360601	99
Es	-0.765268	-1.499818	0.102119	99
Es	1.003976	-0.983889	0.310256	99
Es	-0.997593	1.075998	-0.769269	99
Es	-2.285547	-0.469002	0.443172	99
Es	0.615918	-1.543978	-0.008904	99
Es	0.983648	1.336674	-0.477355	99
Es	-2.337741	-0.496288	-0.053306	99
Es	-0.245749	-1.520367	0.038129	99
Es	1.013858	0.231247	0.012785	99
Es	-2.900292	-0.764468	0.266418	99
Es	2.070718	-0.460814	-0.050975	99
Es	-1.515335	-0.443903	0.110402	99
39
Properties=species:S:1:pos:R:3:Z:I:1 energy=-342.6676459664755 field_type=dipole dipole="0.000000 0.000000 0.000000" charge=0
O	-2.735644	-0.492192	0.235385	8
C	-1.515534	-0.443682	0.110405	6
C	-0.814114	0.878678	-0.107015	6
C	0.695276	0.908058	0.050065	6
C	1.337445	-0.426892	-0.019915	6
C	0.616296	-1.543882	-0.008915	6
O	-0.774395	-1.586662	0.082605	8
H	-1.249694	1.595828	0.601525	1
H	-1.082494	1.213268	-1.115795	1
H	0.960066	1.373978	1.005615	1
H	1.117425	1.550388	-0.730845	1
H	2.422385	-0.480382	-0.062805	1
H	1.022986	-2.546512	-0.040305	1
Es	-2.901942	-0.764014	0.265719	99
Es	-0.997396	1.075464	-0.768731	99
Es	-0.774097	-1.585194	0.081540	99
Es	-2.788793	-0.211229	0.224673	99
Es	2.070788	-0.460809	-0.050963	99
Es	-2.735286	-0.492226	0.235351	99
Es	0.874372	1.207295	0.692428	99
Es	-1.129126	0.194333	0.014300	99
Es	0.885508	-2.217549	-0.031486	99
Es	0.971500	-0.969954	-0.349689	99
Es	0.615915	-1.543979	-0.008900	99
Es	1.337467	-0.426800	-0.019923	99
Es	0.983684	1.336766	-0.477114	99
Es	-2.285468	-0.468712	0.443744	99
Es	-0.923927	-1.865995	0.086438	99
Es	1.004091	-0.983930	0.310171	99
Es	-1.022580	-1.130353	0.099623	99
Es	-2.337714	-0.496093	-0.052534	99
Es	-0.245505	-1.520454	0.040462	99
Es	1.013900	0.231186	0.012805	99
Es	-1.515335	-0.443902	0.110402	99
Es	0.695242	0.908002	0.050056	99
Es	-1.110057	1.348014	0.360336	99
Es	-0.766165	-1.499381	0.090437	99
Es	-0.062284	0.866986	-0.027901	99
Es	-0.814098	0.878587	-0.107003	99
39
Properties=species:S:1:pos:R:3:Z:I:1 energy=-342.6676459664755 field_type=dipole dipole="0.000000 0.000000 0.000000" charge=0
O	-2.735644	-0.492192	0.235385	8
C	-1.515534	-0.443682	0.110405	6
C	-0.814114	0.878678	-0.107015	6
C	0.695276	0.908058	0.050065	6
C	1.337445	-0.426892	-0.019915	6
C	0.616296	-1.543882	-0.008915	6
O	-0.774395	-1.586662	0.082605	8
H	-1.249694	1.595828	0.601525	1
H	-1.082494	1.213268	-1.115795	1
H	0.960066	1.373978	1.005615	1
H	1.117425	1.550388	-0.730845	1
H	2.422385	-0.480382	-0.062805	1
H	1.022986	-2.546512	-0.040305	1
Es	-2.735266	-0.492250	0.235355	99
Es	2.070963	-0.460794	-0.050922	99
Es	-0.774158	-1.586186	0.082724	99
Es	1.337467	-0.426801	-0.019915	99
Es	0.874268	1.207227	0.692168	99
Es	-1.109900	1.347693	0.360262	99
Es	0.615915	-1.543979	-0.008899	99
Es	-2.285736	-0.467578	0.443665	99
Es	-0.062261	0.867013	-0.028108	99
Es	-1.129307	0.194289	0.014195	99
Es	1.014052	0.231097	0.013099	99
Es	0.983873	1.336748	-0.477051	99
Es	-2.789746	-0.210642	0.223319	99
Es	0.695243	0.908002	0.050055	99
Es	-1.515335	-0.443903	0.110404	99
Es	-0.814097	0.878587	-0.107003	99
Es	1.003842	-0.983853	0.309971	99
Es	-0.997513	1.075688	-0.768355	99
Es	-0.923421	-1.865870	0.086195	99
Es	-0.766192	-1.498386	0.088432	99
Es	-1.023126	-1.130883	0.100661	99
Es	-2.901010	-0.764467	0.266719	99
Es	-0.245410	-1.519971	0.040475	99
Es	0.885536	-2.217556	-0.031487	99
Es	0.971482	-0.969808	-0.349594	99
Es	-2.337466	-0.497358	-0.052124	99
39
Properties=species:S:1:pos:R:3:Z:I:1 energy=-342.6676459664755 field_type=dipole dipole="0.000000 0.000000 0.000000" charge=0
O	-2.735644	-0.492192	0.235385	8
C	-1.515534	-0.443682	0.110405	6
C	-0.814114	0.878678	-0.107015	6
C	0.695276	0.908058	0.050065	6
C	1.337445	-0.426892	-0.019915	6
C	0.616296	-1.543882	-0.008915	6
O	-0.774395	-1.586662	0.082605	8
H	-1.249694	1.595828	0.601525	1
H	-1.082494	1.213268	-1.115795	1
H	0.960066	1.373978	1.005615	1
H	1.117425	1.550388	-0.730845	1
H	2.422385	-0.480382	-0.062805	1
H	1.022986	-2.546512	-0.040305	1
Es	-1.515335	-0.443903	0.110402	99
Es	0.874329	1.207098	0.692030	99
Es	-2.780740	-0.212375	0.222752	99
Es	-1.129318	0.194151	0.014157	99
Es	-0.062348	0.867305	-0.027991	99
Es	1.014013	0.231103	0.012666	99
Es	-0.766249	-1.498462	0.087679	99
Es	-1.022906	-1.130368	0.099330	99
Es	-2.735319	-0.492201	0.235360	99
Es	-2.909878	-0.758754	0.266593	99
Es	-0.814099	0.878588	-0.107002	99
Es	0.885599	-2.217609	-0.031668	99
Es	2.070965	-0.460960	-0.050905	99
Es	-0.997107	1.075219	-0.767953	99
Es	0.695242	0.908001	0.050055	99
Es	-0.774135	-1.586051	0.082999	99
Es	-1.110234	1.348250	0.360046	99
Es	1.004050	-0.983833	0.309733	99
Es	-2.286295	-0.469895	0.444053	99
Es	0.983599	1.336912	-0.476702	99
Es	-2.336997	-0.499072	-0.051950	99
Es	0.615916	-1.543978	-0.008899	99
Es	-0.245497	-1.520493	0.040269	99
Es	1.337465	-0.426802	-0.019922	99
Es	0.971491	-0.969872	-0.349081	99
Es	-0.923517	-1.865940	0.088188	99
39
Properties=species:S:1:pos:R:3:Z:I:1 energy=-342.6676459664755 field_type=dipole dipole="0.000000 0.000000 0.000000" charge=0
O	-2.735644	-0.492192	0.235385	8
C	-1.515534	-0.443682	0.110405	6
C	-0.814114	0.878678	-0.107015	6
C	0.695276	0.908058	0.050065	6
C	1.337445	-0.426892	-0.019915	6
C	0.616296	-1.543882	-0.008915	6
O	-0.774395	-1.586662	0.082605	8
H	-1.249694	1.595828	0.601525	1
H	-1.082494	1.213268	-1.115795	1
H	0.960066	1.373978	1.005615	1
H	1.117425	1.550388	-0.730845	1
H	2.422385	-0.480382	-0.062805	1
H	1.022986	-2.546512	-0.040305	1
Es	-1.515335	-0.443903	0.110401	99
Es	2.071064	-0.460884	-0.051126	99
Es	-1.129385	0.194153	0.013780	99
Es	-2.907876	-0.760297	0.267380	99
Es	0.885715	-2.217641	-0.031375	99
Es	-0.765717	-1.502107	0.099854	99
Es	0.615916	-1.543978	-0.008899	99
Es	0.971468	-0.969790	-0.348912	99
Es	-0.923878	-1.865373	0.082520	99
Es	1.003925	-0.983754	0.309449	99
Es	-2.339799	-0.497484	-0.052651	99
Es	-0.773921	-1.582645	0.080789	99
Es	-0.814097	0.878589	-0.107002	99
Es	0.695243	0.908001	0.050055	99
Es	-0.245520	-1.520588	0.038932	99
Es	-1.023284	-1.130607	0.096406	99
Es	-0.062339	0.867357	-0.028047	99
Es	-2.283607	-0.469826	0.442634	99
Es	1.013987	0.231031	0.013048	99
Es	-2.782672	-0.212468	0.224196	99
Es	0.983807	1.336944	-0.476806	99
Es	0.874228	1.206993	0.691544	99
Es	-2.735276	-0.492264	0.235352	99
Es	-1.110335	1.348247	0.360063	99
Es	1.337465	-0.426801	-0.019921	99
Es	-0.997082	1.075153	-0.767423	99
39
Properties=species:S:1:pos:R:3:Z:I:1 energy=-342.6676459664755 field_type=dipole dipole="0.000000 0.000000 0.000000" charge=0
O	-2.735644	-0.492192	0.235385	8
C	-1.515534	-0.443682	0.110405	6
C	-0.814114	0.878678	-0.107015	6
C	0.695276	0.908058	0.050065	6
C	1.337445	-0.426892	-0.019915	6
C	0.616296	-1.543882	-0.008915	6
O	-0.774395	-1.586662	0.082605	8
H	-1.249694	1.595828	0.601525	1
H	-1.082494	1.213268	-1.115795	1
H	0.960066	1.373978	1.005615	1
H	1.117425	1.550388	-0.730845	1
H	2.422385	-0.480382	-0.062805	1
H	1.022986	-2.546512	-0.040305	1
Es	-0.814098	0.878587	-0.107002	99
Es	1.014159	0.230986	0.013063	99
Es	2.071116	-0.461100	-0.051100	99
Es	0.983984	1.337175	-0.476660	99
Es	-0.245429	-1.520305	0.040075	99
Es	0.695242	0.908002	0.050060	99
Es	-2.338145	-0.497709	-0.052454	99
Es	-0.765526	-1.498752	0.098283	99
Es	-0.774172	-1.586084	0.082127	99
Es	-0.062251	0.867327	-0.028174	99
Es	-1.129779	0.194191	0.013783	99
Es	-0.923673	-1.865312	0.080553	99
Es	-2.909964	-0.759296	0.267102	99
Es	0.615915	-1.543979	-0.008900	99
Es	-1.110149	1.348296	0.359797	99
Es	0.885669	-2.217658	-0.031127	99
Es	-2.735288	-0.492236	0.235352	99
Es	0.971486	-0.969818	-0.348957	99
Es	1.337466	-0.426801	-0.019923	99
Es	0.874033	1.206742	0.691309	99
Es	1.003801	-0.983662	0.309313	99
Es	-1.023475	-1.130722	0.097503	99
Es	-0.997042	1.075142	-0.767123	99
Es	-2.285273	-0.469981	0.442924	99
Es	-2.780576	-0.213072	0.224017	99
Es	-1.515335	-0.443903	0.110401	99
39
Properties=species:S:1:pos:R:3:Z:I:1 energy=-342.6676459664755 field_type=dipole dipole="0.000000 0.000000 0.000000" charge=0
O	-2.735644	-0.492192	0.235385	8
C	-1.515534	-0.443682	0.110405	6
C	-0.814114	0.878678	-0.107015	6
C	0.695276	0.908058	0.050065	6
C	1.337445	-0.426892	-0.019915	6
C	0.616296	-1.543882	-0.008915	6
O	-0.774395	-1.586662	0.082605	8
H	-1.249694	1.595828	0.601525	1
H	-1.082494	1.213268	-1.115795	1
H	0.960066	1.373978	1.005615	1
H	1.117425	1.550388	-0.730845	1
H	2.422385	-0.480382	-0.062805	1
H	1.022986	-2.546512	-0.040305	1
Es	0.885637	-2.217524	-0.031512	99
Es	-1.110270	1.348430	0.359451	99
Es	0.615914	-1.543977	-0.008900	99
Es	-0.770824	-1.542785	0.075575	99
Es	0.971511	-0.969781	-0.348966	99
Es	-1.129885	0.194101	0.013821	99
Es	-0.062268	0.867515	-0.028268	99
Es	-0.769999	-1.541663	0.089701	99
Es	0.874014	1.206536	0.691184	99
Es	2.071174	-0.460942	-0.050820	99
Es	-2.785123	-0.212158	0.223455	99
Es	-1.515335	-0.443903	0.110403	99
Es	-2.284962	-0.468497	0.443323	99
Es	-2.905589	-0.762495	0.266226	99
Es	1.003831	-0.983670	0.309386	99
Es	-0.814098	0.878587	-0.107002	99
Es	-0.996850	1.074905	-0.766571	99
Es	1.337462	-0.426805	-0.019925	99
Es	1.014197	0.230961	0.013058	99
Es	-2.735296	-0.492222	0.235352	99
Es	-0.245243	-1.520110	0.041703	99
Es	-1.022995	-1.131046	0.102511	99
Es	0.984031	1.337287	-0.476435	99
Es	-2.338287	-0.496944	-0.051549	99
Es	0.695242	0.908001	0.050056	99
Es	-0.923295	-1.865742	0.088985	99
39
Properties=species:S:1:pos:R:3:Z:I:1 energy=-342.6676459664755 field_type=dipole dipole="0.000000 0.000000 0.000000" charge=0
O	-2.735644	-0.492192	0.235385	8
C	-1.515534	-0.443682	0.110405	6
C	-0.814114	0.878678	-0.107015	6
C	0.695276	0.908058	0.050065	6
C	1.337445	-0.426892	-0.019915	6
C	0.616296	-1.543882	-0.008915	6
O	-0.774395	-1.586662	0.082605	8
H	-1.249694	1.595828	0.601525	1
H	-1.082494	1.213268	-1.115795	1
H	0.960066	1.373978	1.005615	1
H	1.117425	1.550388	-0.730845	1
H	2.422385	-0.480382	-0.062805	1
H	1.022986	-2.546512	-0.040305	1
Es	-0.814097	0.878587	-0.107005	99
Es	0.984061	1.337093	-0.476510	99
Es	-2.735247	-0.492310	0.235352	99
Es	-0.766111	-1.498309	0.089632	99
Es	-1.024255	-1.131232	0.099248	99
Es	-2.339746	-0.497352	-0.052149	99
Es	-0.062270	0.867499	-0.028468	99
Es	0.695242	0.908001	0.050055	99
Es	0.615914	-1.543979	-0.008900	99
Es	-1.515335	-0.443903	0.110402	99
Es	-0.245209	-1.520361	0.040608	99
Es	0.971483	-0.969752	-0.348763	99
Es	1.003940	-0.983745	0.309389	99
Es	-2.781670	-0.213369	0.223637	99
Es	-0.922620	-1.865137	0.086729	99
Es	-0.774168	-1.586155	0.082254	99
Es	2.071232	-0.461003	-0.051021	99
Es	0.885566	-2.217495	-0.031574	99
Es	-2.283639	-0.469258	0.442787	99
Es	-2.908987	-0.760051	0.267193	99
Es	-1.129851	0.194120	0.013696	99
Es	1.014083	0.231027	0.013163	99
Es	0.874110	1.206633	0.691154	99
Es	1.337466	-0.426802	-0.019930	99
Es	-0.996838	1.074786	-0.766290	99
Es	-1.110359	1.348527	0.359550	99
39
Properties=species:S:1:pos:R:3:Z:I:1 energy=-342.6676459664755 field_type=dipole dipole="0.000000 0.000000 0.000000" charge=0
O	-2.735644	-0.492192	0.235385	8
C	-1.515534	-0.443682	0.110405	6
C	-0.814114	0.878678	-0.107015	6
C	0.695276	0.908058	0.050065	6
C	1.337445	-0.426892	-0.019915	6
C	0.616296	-1.543882	-0.008915	6
O	-0.774395	-1.586662	0.082605	8
H	-1.249694	1.595828	0.601525	1
H	-1.082494	1.213268	-1.115795	1
H	0.960066	1.373978	1.005615	1
H	1.117425	1.550388	-0.730845	1
H	2.422385	-0.480382	-0.062805	1
H	1.022986	-2.546512	-0.040305	1
Es	-2.735284	-0.492217	0.235350	99
Es	-0.770823	-1.541910	0.074872	99
Es	-0.814097	0.878586	-0.107001	99
Es	0.695242	0.908001	0.050057	99
Es	-1.129926	0.194089	0.013833	99
Es	0.873924	1.206674	0.690867	99
Es	-1.023109	-1.130796	0.101118	99
Es	-1.515335	-0.443903	0.110403	99
Es	0.971331	-0.969685	-0.348359	99
Es	-2.338779	-0.497749	-0.051343	99
Es	-0.062249	0.867662	-0.028309	99
Es	2.071211	-0.461010	-0.050916	99
Es	-2.777745	-0.213918	0.223470	99
Es	-0.245337	-1.520319	0.041274	99
Es	1.337465	-0.426801	-0.019921	99
Es	-2.912875	-0.757799	0.266071	99
Es	-0.770008	-1.542566	0.090449	99
Es	1.003921	-0.983647	0.309083	99
Es	-2.284573	-0.470603	0.443219	99
Es	1.014405	0.230765	0.013154	99
Es	0.885822	-2.217679	-0.031788	99
Es	-1.110535	1.348907	0.359196	99
Es	-0.996574	1.074430	-0.766130	99
Es	0.615916	-1.543978	-0.008905	99
Es	0.983803	1.337279	-0.476224	99
Es	-0.923095	-1.865756	0.090721	99
39
Properties=species:S:1:pos:R:3:Z:I:1 energy=-342.6676459664755 field_type=dipole dipole="0.000000 0.000000 0.000000" charge=0
O	-2.735644	-0.492192	0.235385	8
C	-1.515534	-0.443682	0.110405	6
C	-0.814114	0.878678	-0.107015	6
C	0.695276	0.908058	0.050065	6
C	1.337445	-0.426892	-0.019915	6
C	0.616296	-1.543882	-0.008915	6
O	-0.774395	-1.586662	0.082605	8
H	-1.249694	1.595828	0.601525	1
H	-1.082494	1.213268	-1.115795	1
H	0.960066	1.373978	1.005615	1
H	1.117425	1.550388	-0.730845	1
H	2.422385	-0.480382	-0.062805	1
H	1.022986	-2.546512	-0.040305	1
Es	-1.023336	-1.131099	0.099829	99
Es	-0.774082	-1.584701	0.081319	99
Es	2.071311	-0.461059	-0.050965	99
Es	-2.777122	-0.214243	0.224092	99
Es	-1.110430	1.348576	0.359418	99
Es	0.615913	-1.543979	-0.008899	99
Es	-0.996766	1.074687	-0.766145	99
Es	1.337466	-0.426801	-0.019915	99
Es	0.984037	1.337444	-0.476111	99
Es	-2.283136	-0.471157	0.442686	99
Es	0.873919	1.206308	0.690717	99
Es	0.885764	-2.217620	-0.031514	99
Es	-2.340331	-0.497400	-0.051883	99
Es	-0.245366	-1.520284	0.039155	99
Es	-1.515335	-0.443903	0.110402	99
Es	1.003842	-0.983633	0.308901	99
Es	0.695243	0.908002	0.050055	99
Es	-2.735299	-0.492218	0.235350	99
Es	-0.062264	0.867638	-0.028309	99
Es	-0.814099	0.878587	-0.107001	99
Es	-2.913407	-0.757285	0.266511	99
Es	0.971518	-0.969756	-0.348286	99
Es	-0.766057	-1.499807	0.092234	99
Es	-1.129951	0.194190	0.013616	99
Es	1.014182	0.230835	0.012993	99
Es	-0.923519	-1.865265	0.085990	99
39
Properties=species:S:1:pos:R:3:Z:I:1 energy=-342.6676459664755 field_type=dipole dipole="0.000000 0.000000 0.000000" charge=0
O	-2.735644	-0.492192	0.235385	8
C	-1.515534	-0.443682	0.110405	6
C	-0.814114	0.878678	-0.107015	6
C	0.695276	0.908058	0.050065	6
C	1.337445	-0.426892	-0.019915	6
C	0.616296	-1.543882	-0.008915	6
O	-0.774395	-1.586662	0.082605	8
H	-1.249694	1.595828	0.601525	1
H	-1.082494	1.213268	-1.115795	1
H	0.960066	1.373978	1.005615	1
H	1.117425	1.550388	-0.730845	1
H	2.422385	-0.480382	-0.062805	1
H	1.022986	-2.546512	-0.040305	1
Es	-2.916972	-0.754830	0.266753	99
Es	0.885873	-2.217692	-0.031692	99
Es	0.971453	-0.969757	-0.348224	99
Es	-0.062287	0.867655	-0.028247	99
Es	0.983842	1.337409	-0.476073	99
Es	-0.774087	-1.585623	0.083345	99
Es	-2.284358	-0.470842	0.443395	99
Es	-2.339056	-0.498893	-0.051325	99
Es	1.014241	0.230908	0.013085	99
Es	0.615916	-1.543978	-0.008903	99
Es	-0.814098	0.878587	-0.107002	99