45
Properties=species:S:1:pos:R:3:Z:I:1 energy=-344.9997816954858 field_type=dipole dipole="0.000000 0.000000 0.000000" charge=0
O	-1.614156	0.289305	1.337518	8
C	-0.187876	0.301505	1.211328	6
C	0.247854	-1.058535	0.673728	6
C	-0.125266	-1.208935	-0.800232	6
C	0.363984	-0.013205	-1.605662	6
O	-0.148646	1.208975	-1.070692	8
C	0.282324	1.426195	0.278738	6
H	-1.938756	1.195795	1.202838	1
H	0.218644	0.459595	2.214668	1
H	-0.220636	-1.867595	1.246328	1
H	1.334374	-1.161225	0.780388	1
H	0.296084	-2.136185	-1.204532	1
H	-1.216206	-1.278175	-0.886182	1
H	1.459894	0.031395	-1.625542	1
H	0.019074	-0.093425	-2.640782	1
H	1.373724	1.520525	0.293988	1
H	-0.144416	2.383995	0.594098	1
Es	0.128080	-0.068085	-2.312825	99
Es	-1.767798	0.785986	1.267872	99
Es	-0.862455	-1.253983	-0.863012	99
Es	-0.125223	-1.208911	-0.800208	99
Es	-0.451661	1.168850	-1.051695	99
Es	0.033405	1.257109	-0.556007	99
Es	1.036073	1.479925	0.297835	99
Es	-1.076803	0.323877	1.283527	99
Es	1.126559	0.013200	-1.608281	99
Es	-0.022565	1.437383	-1.234387	99
Es	0.363903	-0.013033	-1.605554	99
Es	0.063356	0.741142	-1.239789	99
Es	-1.613943	0.289633	1.337528	99
Es	0.996390	-1.118114	0.746147	99
Es	0.127618	-0.615299	-1.198664	99
Es	0.282247	1.426134	0.278540	99
Es	0.247855	-1.058499	0.673702	99
Es	0.049011	0.864613	0.742361	99
Es	-0.016683	2.077884	0.503072	99
Es	0.031761	-0.376094	0.939204	99
Es	-1.714767	0.132785	1.099341	99
Es	-0.188096	0.301514	1.211290	99
Es	0.065281	-1.127777	-0.062707	99
Es	-1.676114	0.206632	1.626068	99
Es	0.171299	-1.839838	-1.078883	99
Es	-0.068828	-1.604311	1.067580	99
Es	0.107534	0.417962	1.899209	99
Es	-0.148498	1.208672	-1.070445	99
45
Properties=species:S:1:pos:R:3:Z:I:1 energy=-344.9997816954858 field_type=dipole dipole="0.000000 0.000000 0.000000" charge=0
O	-1.614156	0.289305	1.337518	8
C	-0.187876	0.301505	1.211328	6
C	0.247854	-1.058535	0.673728	6
C	-0.125266	-1.208935	-0.800232	6
C	0.363984	-0.013205	-1.605662	6
O	-0.148646	1.208975	-1.070692	8
C	0.282324	1.426195	0.278738	6
H	-1.938756	1.195795	1.202838	1
H	0.218644	0.459595	2.214668	1
H	-0.220636	-1.867595	1.246328	1
H	1.334374	-1.161225	0.780388	1
H	0.296084	-2.136185	-1.204532	1
H	-1.216206	-1.278175	-0.886182	1
H	1.459894	0.031395	-1.625542	1
H	0.019074	-0.093425	-2.640782	1
H	1.373724	1.520525	0.293988	1
H	-0.144416	2.383995	0.594098	1
Es	0.247854	-1.058495	0.673703	99
Es	-0.862716	-1.253628	-0.862971	99
Es	0.048922	0.864673	0.742455	99
Es	1.126899	0.013024	-1.608273	99
Es	-0.018836	1.430390	-1.228957	99
Es	-1.768436	0.786819	1.269119	99
Es	0.065094	-1.127666	-0.062808	99
Es	0.363898	-0.013024	-1.605545	99
Es	-1.668923	0.214144	1.623884	99
Es	0.171865	-1.840276	-1.079147	99
Es	-0.456137	1.175656	-1.055671	99
Es	0.031607	-0.376109	0.939224	99
Es	0.034012	1.258414	-0.556321	99
Es	1.036171	1.479534	0.297892	99
Es	-0.148483	1.208749	-1.070482	99
Es	0.996749	-1.118578	0.746220	99
Es	0.107492	0.418339	1.899091	99
Es	-1.076718	0.322989	1.280749	99
Es	-1.721443	0.125494	1.103085	99
Es	-0.016952	2.078164	0.503356	99
Es	-0.068527	-1.603851	1.066891	99
Es	-0.188090	0.301515	1.211292	99
Es	-0.125224	-1.208911	-0.800208	99
Es	0.127380	-0.615307	-1.198364	99
Es	0.282247	1.426134	0.278541	99
Es	0.063320	0.739868	-1.240730	99
Es	-1.613951	0.289635	1.337446	99
Es	0.127859	-0.068338	-2.312649	99
45
Properties=species:S:1:pos:R:3:Z:I:1 energy=-344.9997816954858 field_type=dipole dipole="0.000000 0.000000 0.000000" charge=0
O	-1.614156	0.289305	1.337518	8
C	-0.187876	0.301505	1.211328	6
C	0.247854	-1.058535	0.673728	6
C	-0.125266	-1.208935	-0.800232	6
C	0.363984	-0.013205	-1.605662	6
O	-0.148646	1.208975	-1.070692	8
C	0.282324	1.426195	0.278738	6
H	-1.938756	1.195795	1.202838	1
H	0.218644	0.459595	2.214668	1
H	-0.220636	-1.867595	1.246328	1
H	1.334374	-1.161225	0.780388	1
H	0.296084	-2.136185	-1.204532	1
H	-1.216206	-1.278175	-0.886182	1
H	1.459894	0.031395	-1.625542	1
H	0.019074	-0.093425	-2.640782	1
H	1.373724	1.520525	0.293988	1
H	-0.144416	2.383995	0.594098	1
Es	-0.068457	-1.603469	1.066425	99
Es	-0.862894	-1.253343	-0.862916	99
Es	-0.456535	1.174849	-1.055008	99
Es	1.036235	1.479244	0.297889	99
Es	0.172120	-1.840550	-1.079281	99
Es	-1.769496	0.787414	1.270491	99
Es	-1.614004	0.289578	1.337437	99
Es	-1.723763	0.121770	1.104257	99
Es	0.363899	-0.013025	-1.605543	99
Es	0.034915	1.259407	-0.556647	99
Es	0.247854	-1.058495	0.673702	99
Es	0.048936	0.864739	0.742468	99
Es	0.127816	-0.068499	-2.312567	99
Es	0.065118	-1.127572	-0.062869	99
Es	-0.020835	1.429776	-1.228373	99
Es	-0.125224	-1.208910	-0.800208	99
Es	1.127086	0.012812	-1.608158	99
Es	0.996941	-1.119018	0.746347	99
Es	-0.017106	2.078353	0.503578	99
Es	-1.076378	0.323062	1.281327	99
Es	0.127189	-0.615353	-1.198293	99
Es	-1.665898	0.217355	1.620769	99
Es	0.107470	0.418499	1.898964	99
Es	-0.148440	1.208740	-1.070505	99
Es	0.064650	0.740359	-1.241530	99
Es	-0.188095	0.301515	1.211294	99
Es	0.282244	1.426138	0.278543	99
Es	0.031584	-0.376016	0.939227	99
45
Properties=species:S:1:pos:R:3:Z:I:1 energy=-344.9997816954858 field_type=dipole dipole="0.000000 0.000000 0.000000" charge=0
O	-1.614156	0.289305	1.337518	8
C	-0.187876	0.301505	1.211328	6
C	0.247854	-1.058535	0.673728	6
C	-0.125266	-1.208935	-0.800232	6
C	0.363984	-0.013205	-1.605662	6
O	-0.148646	1.208975	-1.070692	8
C	0.282324	1.426195	0.278738	6
H	-1.938756	1.195795	1.202838	1
H	0.218644	0.459595	2.214668	1
H	-0.220636	-1.867595	1.246328	1
H	1.334374	-1.161225	0.780388	1
H	0.296084	-2.136185	-1.204532	1
H	-1.216206	-1.278175	-0.886182	1
H	1.459894	0.031395	-1.625542	1
H	0.019074	-0.093425	-2.640782	1
H	1.373724	1.520525	0.293988	1
H	-0.144416	2.383995	0.594098	1
Es	0.048931	0.864810	0.742404	99
Es	-1.667855	0.216507	1.618377	99
Es	0.172349	-1.840758	-1.079562	99
Es	-0.068323	-1.603241	1.066169	99
Es	-1.075520	0.322734	1.284160	99
Es	-0.022079	1.430250	-1.230385	99
Es	-1.769754	0.787771	1.270814	99
Es	-1.722498	0.122647	1.103341	99
Es	-0.455922	1.174190	-1.052512	99
Es	0.127763	-0.068604	-2.312555	99
Es	-0.188096	0.301514	1.211291	99
Es	0.127080	-0.615361	-1.198009	99
Es	0.036878	1.260270	-0.557673	99
Es	-1.613914	0.289626	1.337545	99
Es	-0.125223	-1.208910	-0.800207	99
Es	0.247854	-1.058497	0.673701	99
Es	0.065010	-1.127670	-0.062782	99
Es	1.036245	1.478973	0.297990	99
Es	-0.862939	-1.253094	-0.862902	99
Es	0.282248	1.426134	0.278542	99
Es	-0.017260	2.078550	0.503733	99
Es	0.363898	-0.013027	-1.605546	99
Es	1.127147	0.012752	-1.608115	99
Es	0.031486	-0.376010	0.939204	99
Es	0.107418	0.418656	1.898910	99
Es	0.997123	-1.119219	0.746322	99
Es	-0.148432	1.208744	-1.070507	99
Es	0.063318	0.739623	-1.240933	99
45
Properties=species:S:1:pos:R:3:Z:I:1 energy=-344.9997816954858 field_type=dipole dipole="0.000000 0.000000 0.000000" charge=0
O	-1.614156	0.289305	1.337518	8
C	-0.187876	0.301505	1.211328	6
C	0.247854	-1.058535	0.673728	6
C	-0.125266	-1.208935	-0.800232	6
C	0.363984	-0.013205	-1.605662	6
O	-0.148646	1.208975	-1.070692	8
C	0.282324	1.426195	0.278738	6
H	-1.938756	1.195795	1.202838	1
H	0.218644	0.459595	2.214668	1
H	-0.220636	-1.867595	1.246328	1
H	1.334374	-1.161225	0.780388	1
H	0.296084	-2.136185	-1.204532	1
H	-1.216206	-1.278175	-0.886182	1
H	1.459894	0.031395	-1.625542	1
H	0.019074	-0.093425	-2.640782	1
H	1.373724	1.520525	0.293988	1
H	-0.144416	2.383995	0.594098	1
Es	-1.076241	0.322168	1.280854	99
Es	-0.017366	2.078642	0.503822	99
Es	-1.614049	0.289527	1.337465	99
Es	0.063614	0.739464	-1.241261	99
Es	0.127156	-0.615274	-1.198066	99
Es	0.034481	1.258834	-0.556782	99
Es	-1.769753	0.787841	1.269194	99
Es	-0.068325	-1.603235	1.066164	99
Es	0.363900	-0.013028	-1.605548	99
Es	0.127696	-0.068700	-2.312515	99
Es	-0.125223	-1.208910	-0.800208	99
Es	0.282250	1.426136	0.278549	99
Es	1.127176	0.012730	-1.608152	99
Es	0.031547	-0.376031	0.939225	99
Es	1.036204	1.478934	0.297945	99
Es	-0.148446	1.208711	-1.070452	99
Es	0.247854	-1.058497	0.673702	99
Es	0.997185	-1.119248	0.746249	99
Es	-0.188097	0.301514	1.211291	99
Es	-1.727238	0.116510	1.107828	99
Es	0.107461	0.418845	1.898882	99
Es	-0.862904	-1.253007	-0.862786	99
Es	0.048973	0.864570	0.742299	99
Es	-0.017577	1.427223	-1.226132	99
Es	0.172314	-1.840928	-1.079501	99
Es	0.064950	-1.127596	-0.062814	99
Es	-1.662306	0.223258	1.618886	99
Es	-0.458305	1.178905	-1.057319	99
45
Properties=species:S:1:pos:R:3:Z:I:1 energy=-344.9997816954858 field_type=dipole dipole="0.000000 0.000000 0.000000" charge=0
O	-1.614156	0.289305	1.337518	8
C	-0.187876	0.301505	1.211328	6
C	0.247854	-1.058535	0.673728	6
C	-0.125266	-1.208935	-0.800232	6
C	0.363984	-0.013205	-1.605662	6
O	-0.148646	1.208975	-1.070692	8
C	0.282324	1.426195	0.278738	6
H	-1.938756	1.195795	1.202838	1
H	0.218644	0.459595	2.214668	1
H	-0.220636	-1.867595	1.246328	1
H	1.334374	-1.161225	0.780388	1
H	0.296084	-2.136185	-1.204532	1
H	-1.216206	-1.278175	-0.886182	1
H	1.459894	0.031395	-1.625542	1
H	0.019074	-0.093425	-2.640782	1
H	1.373724	1.520525	0.293988	1
H	-0.144416	2.383995	0.594098	1
Es	0.172480	-1.841000	-1.079658	99
Es	0.035666	1.259764	-0.557646	99
Es	0.048984	0.864676	0.742365	99
Es	0.127704	-0.068678	-2.312440	99
Es	-1.075629	0.323050	1.285803	99
Es	0.063236	0.739011	-1.240863	99
Es	-0.068214	-1.603041	1.065978	99
Es	-0.862920	-1.252899	-0.862857	99
Es	0.031478	-0.376055	0.939271	99
Es	0.064893	-1.127660	-0.062807	99
Es	0.126980	-0.615385	-1.197910	99
Es	0.363903	-0.013029	-1.605547	99
Es	0.247854	-1.058497	0.673700	99
Es	-1.667242	0.216864	1.616350	99
Es	-0.458518	1.178592	-1.055924	99
Es	-0.148458	1.208792	-1.070528	99
Es	0.282248	1.426133	0.278542	99
Es	-1.722110	0.121558	1.102933	99
Es	1.036211	1.478836	0.297938	99
Es	-1.770569	0.788396	1.271699	99
Es	-0.017372	2.078710	0.503870	99
Es	0.107407	0.418891	1.898801	99
Es	-1.614002	0.289515	1.337461	99
Es	0.997210	-1.119410	0.746330	99
Es	-0.125225	-1.208911	-0.800209	99
Es	-0.188098	0.301516	1.211290	99
Es	1.127251	0.012689	-1.608156	99
Es	-0.018214	1.426932	-1.226966	99
45
Properties=species:S:1:pos:R:3:Z:I:1 energy=-344.9997816954858 field_type=dipole dipole="0.000000 0.000000 0.000000" charge=0
O	-1.614156	0.289305	1.337518	8
C	-0.187876	0.301505	1.211328	6
C	0.247854	-1.058535	0.673728	6
C	-0.125266	-1.208935	-0.800232	6
C	0.363984	-0.013205	-1.605662	6
O	-0.148646	1.208975	-1.070692	8
C	0.282324	1.426195	0.278738	6
H	-1.938756	1.195795	1.202838	1
H	0.218644	0.459595	2.214668	1
H	-0.220636	-1.867595	1.246328	1
H	1.334374	-1.161225	0.780388	1
H	0.296084	-2.136185	-1.204532	1
H	-1.216206	-1.278175	-0.886182	1
H	1.459894	0.031395	-1.625542	1
H	0.019074	-0.093425	-2.640782	1
H	1.373724	1.520525	0.293988	1
H	-0.144416	2.383995	0.594098	1
Es	0.172501	-1.841036	-1.079627	99
Es	-1.665957	0.216560	1.615252	99
Es	0.031534	-0.376037	0.939232	99
Es	1.127175	0.012651	-1.608115	99
Es	-0.019520	1.426340	-1.226433	99
Es	1.036128	1.478766	0.297929	99
Es	0.127725	-0.068725	-2.312498	99
Es	0.282248	1.426134	0.278542	99
Es	-1.075668	0.322697	1.284774	99
Es	0.127052	-0.615294	-1.197867	99
Es	-1.770690	0.788942	1.273775	99
Es	0.064566	0.739807	-1.241410	99
Es	-0.125220	-1.208912	-0.800208	99
Es	0.107386	0.418892	1.898810	99
Es	-0.068321	-1.603032	1.065909	99
Es	-0.017362	2.078805	0.503929	99
Es	-0.862936	-1.252894	-0.862830	99
Es	0.036341	1.260448	-0.557831	99
Es	0.997206	-1.119515	0.746377	99
Es	0.247854	-1.058496	0.673702	99
Es	0.049012	0.864706	0.742363	99
Es	-1.613964	0.289584	1.337437	99
Es	0.363904	-0.013028	-1.605547	99
Es	-0.148473	1.208755	-1.070507	99
Es	0.064921	-1.127635	-0.062860	99
Es	-0.188097	0.301514	1.211291	99
Es	-0.459176	1.177777	-1.055770	99
Es	-1.723236	0.121585	1.102998	99
45
Properties=species:S:1:pos:R:3:Z:I:1 energy=-344.9997816954858 field_type=dipole dipole="0.000000 0.000000 0.000000" charge=0
O	-1.614156	0.289305	1.337518	8
C	-0.187876	0.301505	1.211328	6
C	0.247854	-1.058535	0.673728	6
C	-0.125266	-1.208935	-0.800232	6
C	0.363984	-0.013205	-1.605662	6
O	-0.148646	1.208975	-1.070692	8
C	0.282324	1.426195	0.278738	6
H	-1.938756	1.195795	1.202838	1
H	0.218644	0.459595	2.214668	1
H	-0.220636	-1.867595	1.246328	1
H	1.334374	-1.161225	0.780388	1
H	0.296084	-2.136185	-1.204532	1
H	-1.216206	-1.278175	-0.886182	1
H	1.459894	0.031395	-1.625542	1
H	0.019074	-0.093425	-2.640782	1
H	1.373724	1.520525	0.293988	1
H	-0.144416	2.383995	0.594098	1
Es	0.997309	-1.119537	0.746325	99
Es	-0.068162	-1.602930	1.065809	99
Es	-1.075465	0.322391	1.284179	99
Es	0.064838	-1.127654	-0.062805	99
Es	-1.724827	0.118654	1.105536	99
Es	0.363899	-0.013026	-1.605548	99
Es	-0.017436	2.078829	0.504012	99
Es	0.127044	-0.615377	-1.197890	99
Es	-0.188092	0.301514	1.211291	99
Es	0.247854	-1.058497	0.673702	99
Es	0.172540	-1.841054	-1.079633	99
Es	0.282247	1.426135	0.278544	99
Es	0.048991	0.864751	0.742319	99
Es	0.031450	-0.376054	0.939252	99
Es	-1.770778	0.788589	1.271456	99
Es	-0.018727	1.426233	-1.226402	99
Es	-0.458553	1.178969	-1.056192	99
Es	-1.613983	0.289570	1.337423	99
Es	-0.125224	-1.208910	-0.800208	99
Es	1.127262	0.012652	-1.608115	99
Es	0.035818	1.260221	-0.557566	99
Es	1.036184	1.478687	0.297916	99
Es	0.063564	0.738966	-1.241245	99
Es	0.107373	0.418914	1.898779	99
Es	0.127707	-0.068760	-2.312439	99
Es	-0.862993	-1.252835	-0.862856	99
Es	-1.664458	0.220165	1.615662	99
Es	-0.148446	1.208754	-1.070492	99
45
Properties=species:S:1:pos:R:3:Z:I:1 energy=-344.9997816954858 field_type=dipole dipole="0.000000 0.000000 0.000000" charge=0
O	-1.614156	0.289305	1.337518	8
C	-0.187876	0.301505	1.211328	6
C	0.247854	-1.058535	0.673728	6
C	-0.125266	-1.208935	-0.800232	6
C	0.363984	-0.013205	-1.605662	6
O	-0.148646	1.208975	-1.070692	8
C	0.282324	1.426195	0.278738	6
H	-1.938756	1.195795	1.202838	1
H	0.218644	0.459595	2.214668	1
H	-0.220636	-1.867595	1.246328	1
H	1.334374	-1.161225	0.780388	1
H	0.296084	-2.136185	-1.204532	1
H	-1.216206	-1.278175	-0.886182	1
H	1.459894	0.031395	-1.625542	1
H	0.019074	-0.093425	-2.640782	1
H	1.373724	1.520525	0.293988	1
H	-0.144416	2.383995	0.594098	1
Es	0.063885	0.739114	-1.241135	99
Es	-0.017973	1.424917	-1.225467	99
Es	0.127675	-0.068796	-2.312446	99
Es	-1.771504	0.788931	1.270507	99
Es	-0.125223	-1.208910	-0.800208	99
Es	1.127263	0.012601	-1.608111	99
Es	0.031490	-0.376014	0.939373	99
Es	-1.075880	0.322413	1.283653	99
Es	-0.188099	0.301514	1.211291	99
Es	0.997260	-1.119590	0.746257	99
Es	0.127029	-0.615372	-1.197756	99
Es	0.035812	1.260385	-0.557635	99
Es	0.064807	-1.127684	-0.062827	99
Es	-0.863037	-1.252741	-0.862861	99
Es	0.107384	0.419037	1.898744	99
Es	0.247853	-1.058496	0.673701	99
Es	0.282248	1.426135	0.278543	99
Es	0.363898	-0.013023	-1.605545	99
Es	-1.663937	0.220273	1.615982	99
Es	-0.459620	1.179958	-1.057214	99
Es	-0.148433	1.208742	-1.070479	99
Es	0.049001	0.864685	0.742369	99
Es	-0.017338	2.078929	0.504006	99
Es	-1.613987	0.289605	1.337432	99
Es	-0.068093	-1.602926	1.065778	99
Es	0.172595	-1.841109	-1.079703	99
Es	1.036088	1.478612	0.297904	99
Es	-1.724232	0.118174	1.106664	99
45
Properties=species:S:1:pos:R:3:Z:I:1 energy=-344.9997816954858 field_type=dipole dipole="0.000000 0.000000 0.000000" charge=0
O	-1.614156	0.289305	1.337518	8
C	-0.187876	0.301505	1.211328	6
C	0.247854	-1.058535	0.673728	6
C	-0.125266	-1.208935	-0.800232	6
C	0.363984	-0.013205	-1.605662	6
O	-0.148646	1.208975	-1.070692	8
C	0.282324	1.426195	0.278738	6
H	-1.938756	1.195795	1.202838	1
H	0.218644	0.459595	2.214668	1
H	-0.220636	-1.867595	1.246328	1
H	1.334374	-1.161225	0.780388	1
H	0.296084	-2.136185	-1.204532	1
H	-1.216206	-1.278175	-0.886182	1
H	1.459894	0.031395	-1.625542	1
H	0.019074	-0.093425	-2.640782	1
H	1.373724	1.520525	0.293988	1
H	-0.144416	2.383995	0.594098	1
Es	0.031428	-0.376071	0.939361	99
Es	0.172638	-1.841192	-1.079712	99
Es	-1.075762	0.322345	1.284553	99
Es	0.064231	0.739144	-1.241689	99
Es	0.126976	-0.615361	-1.197780	99
Es	0.997421	-1.119688	0.746309	99
Es	-1.725148	0.116972	1.106545	99
Es	-0.125224	-1.208910	-0.800207	99
Es	-0.018839	1.425768	-1.225476	99
Es	-0.863010	-1.252725	-0.862792	99
Es	-0.148392	1.208729	-1.070484	99
Es	-0.068166	-1.602819	1.065659	99
Es	0.064773	-1.127585	-0.062814	99
Es	0.247854	-1.058497	0.673702	99
Es	1.036127	1.478639	0.297922	99
Es	0.127690	-0.068818	-2.312419	99
Es	1.127305	0.012623	-1.608093	99
Es	0.049037	0.864722	0.742355	99
Es	0.363898	-0.013024	-1.605545	99
Es	-1.663658	0.221673	1.615255	99
Es	0.035493	1.260199	-0.557478	99
Es	0.282247	1.426135	0.278539	99
Es	0.107361	0.418968	1.898711	99
Es	-0.188096	0.301515	1.211291	99
Es	-0.017417	2.078905	0.504001	99
Es	-1.613978	0.289581	1.337344	99
Es	-0.458854	1.179273	-1.056790	99
Es	-1.771001	0.788859	1.270550	99
45
Properties=species:S:1:pos:R:3:Z:I:1 energy=-344.9997816954858 field_type=dipole dipole="0.000000 0.000000 0.000000" charge=0
O	-1.614156	0.289305	1.337518	8
C	-0.187876	0.301505	1.211328	6
C	0.247854	-1.058535	0.673728	6
C	-0.125266	-1.208935	-0.800232	6
C	0.363984	-0.013205	-1.605662	6
O	-0.148646	1.208975	-1.070692	8
C	0.282324	1.426195	0.278738	6
H	-1.938756	1.195795	1.202838	1
H	0.218644	0.459595	2.214668	1
H	-0.220636	-1.867595	1.246328	1
H	1.334374	-1.161225	0.780388	1
H	0.296084	-2.136185	-1.204532	1
H	-1.216206	-1.278175	-0.886182	1
H	1.459894	0.031395	-1.625542	1
H	0.019074	-0.093425	-2.640782	1
H	1.373724	1.520525	0.293988	1
H	-0.144416	2.383995	0.594098	1
Es	0.282247	1.426134	0.278543	99
Es	0.127697	-0.068827	-2.312447	99
Es	-0.863029	-1.252681	-0.862704	99
Es	-1.075900	0.322360	1.283987	99
Es	-0.188096	0.301515	1.211291	99
Es	0.049046	0.864663	0.742317	99
Es	-0.068090	-1.602881	1.065687	99
Es	-0.459706	1.180087	-1.056890	99
Es	-0.017470	2.078927	0.503997	99
Es	-0.125225	-1.208912	-0.800206	99
Es	-1.723920	0.118976	1.105757	99
Es	-1.613968	0.289605	1.337435	99
Es	0.172610	-1.841260	-1.079681	99
Es	0.063888	0.738976	-1.241296	99
Es	1.036112	1.478663	0.297927	99
Es	0.036709	1.261332	-0.557804	99
Es	-0.018781	1.424019	-1.225404	99
Es	0.363899	-0.013026	-1.605546	99
Es	-1.664074	0.219141	1.615045	99
Es	0.997353	-1.119570	0.746348	99
Es	0.247854	-1.058496	0.673702	99
Es	0.064910	-1.127604	-0.062923	99
Es	0.031375	-0.376090	0.939382	99
Es	-1.771658	0.789320	1.271967	99
Es	0.126992	-0.615397	-1.197824	99
Es	0.107318	0.419070	1.898734	99
Es	1.127264	0.012622	-1.608083	99
Es	-0.148424	1.208692	-1.070491	99
45
Properties=species:S:1:pos:R:3:Z:I:1 energy=-344.9997816954858 field_type=dipole dipole="0.000000 0.000000 0.000000" charge=0
O	-1.614156	0.289305	1.337518	8
C	-0.187876	0.301505	1.211328	6
C	0.247854	-1.058535	0.673728	6
C	-0.125266	-1.208935	-0.800232	6
C	0.363984	-0.013205	-1.605662	6
O	-0.148646	1.208975	-1.070692	8
C	0.282324	1.426195	0.278738	6
H	-1.938756	1.195795	1.202838	1
H	0.218644	0.459595	2.214668	1
H	-0.220636	-1.867595	1.246328	1
H	1.334374	-1.161225	0.780388	1
H	0.296084	-2.136185	-1.204532	1
H	-1.216206	-1.278175	-0.886182	1
H	1.459894	0.031395	-1.625542	1
H	0.019074	-0.093425	-2.640782	1
H	1.373724	1.520525	0.293988	1
H	-0.144416	2.383995	0.594098	1
Es	-0.863106	-1.252679	-0.862805	99
Es	-1.075599	0.322374	1.284356	99
Es	-1.771358	0.788983	1.271316	99
Es	-0.457723	1.177685	-1.054375	99
Es	0.127648	-0.068894	-2.312394	99
Es	1.036239	1.478548	0.297961	99
Es	0.247853	-1.058497	0.673702	99
Es	0.282248	1.426134	0.278542	99
Es	0.031397	-0.376104	0.939461	99
Es	0.049116	0.864734	0.742177	99
Es	-0.188096	0.301516	1.211290	99
Es	0.064785	-1.127554	-0.062911	99
Es	-0.021291	1.426096	-1.227579	99
Es	-0.125223	-1.208910	-0.800208	99
Es	-0.068141	-1.602724	1.065556	99
Es	-1.724886	0.117703	1.106357	99
Es	0.063544	0.738793	-1.241482	99
Es	-0.017569	2.078899	0.504128	99
Es	0.997438	-1.119774	0.746382	99
Es	-1.613949	0.289610	1.337367	99
Es	0.107285	0.419064	1.898642	99
Es	1.127408	0.012541	-1.608017	99
Es	0.037481	1.261854	-0.557969	99
Es	0.126926	-0.615306	-1.197767	99
Es	0.172793	-1.841262	-1.079674	99
Es	-1.663774	0.220823	1.614801	99
Es	0.363897	-0.013025	-1.605546	99
Es	-0.148410	1.208731	-1.070491	99
45
Properties=species:S:1:pos:R:3:Z:I:1 energy=-344.9997816954858 field_type=dipole dipole="0.000000 0.000000 0.000000" charge=0
O	-1.614156	0.289305	1.337518	8
C	-0.187876	0.301505	1.211328	6
C	0.247854	-1.058535	0.673728	6
C	-0.125266	-1.208935	-0.800232	6
C	0.363984	-0.013205	-1.605662	6
O	-0.148646	1.208975	-1.070692	8
C	0.282324	1.426195	0.278738	6
H	-1.938756	1.195795	1.202838	1
H	0.218644	0.459595	2.214668	1
H	-0.220636	-1.867595	1.246328	1
H	1.334374	-1.161225	0.780388	1
H	0.296084	-2.136185	-1.204532	1
H	-1.216206	-1.278175	-0.886182	1
H	1.459894	0.031395	-1.625542	1
H	0.019074	-0.093425	-2.640782	1
H	1.373724	1.520525	0.293988	1
H	-0.144416	2.383995	0.594098	1
Es	-0.018256	1.424747	-1.225087	99
Es	-0.017559	2.078953	0.504074	99
Es	1.036159	1.478600	0.297909	99
Es	0.172745	-1.841276	-1.079708	99
Es	-0.068048	-1.602810	1.065624	99
Es	0.035757	1.260499	-0.557465	99
Es	-1.724780	0.116241	1.107184	99
Es	1.127298	0.012564	-1.608107	99
Es	-1.614040	0.289518	1.337476	99
Es	0.107283	0.419065	1.898696	99
Es	-0.125224	-1.208911	-0.800208	99
Es	-1.663849	0.222707	1.614052	99
Es	0.363898	-0.013026	-1.605547	99
Es	-0.148458	1.208741	-1.070517	99
Es	0.282249	1.426134	0.278543	99
Es	-1.075468	0.321798	1.285824	99
Es	0.064017	0.739017	-1.241483	99
Es	0.247853	-1.058497	0.673701	99
Es	0.031429	-0.376016	0.939371	99
Es	-0.188098	0.301514	1.211291	99
Es	-0.459374	1.180138	-1.057278	99
Es	0.064743	-1.127651	-0.062828	99
Es	0.997331	-1.119680	0.746326	99
Es	0.126905	-0.615359	-1.197757	99
Es	0.127695	-0.068816	-2.312390	99
Es	-1.771383	0.789136	1.269660	99
Es	-0.862964	-1.252707	-0.862838	99
Es	0.049073	0.864735	0.742301	99
45
Properties=species:S:1:pos:R:3:Z:I:1 energy=-344.9997816954858 field_type=dipole dipole="0.000000 0.000000 0.000000" charge=0
O	-1.614156	0.289305	1.337518	8
C	-0.187876	0.301505	1.211328	6
C	0.247854	-1.058535	0.673728	6
C	-0.125266	-1.208935	-0.800232	6
C	0.363984	-0.013205	-1.605662	6
O	-0.148646	1.208975	-1.070692	8
C	0.282324	1.426195	0.278738	6
H	-1.938756	1.195795	1.202838	1
H	0.218644	0.459595	2.214668	1
H	-0.220636	-1.867595	1.246328	1
H	1.334374	-1.161225	0.780388	1
H	0.296084	-2.136185	-1.204532	1
H	-1.216206	-1.278175	-0.886182	1
H	1.459894	0.031395	-1.625542	1
H	0.019074	-0.093425	-2.640782	1
H	1.373724	1.520525	0.293988	1
H	-0.144416	2.383995	0.594098	1
Es	-0.148428	1.208727	-1.070492	99
Es	0.997417	-1.119723	0.746364	99
Es	0.282248	1.426134	0.278542	99
Es	-0.188097	0.301515	1.211291	99
Es	-1.613940	0.289645	1.337418	99
Es	-0.459277	1.180912	-1.057536	99
Es	1.127320	0.012582	-1.608101	99
Es	0.107264	0.419059	1.898664	99
Es	0.064868	-1.127797	-0.062837	99
Es	-0.017532	2.079023	0.504186	99
Es	0.035778	1.260512	-0.557425	99
Es	-0.863052	-1.252610	-0.862745	99
Es	0.127644	-0.068867	-2.312405	99
Es	-0.017804	1.424350	-1.225022	99
Es	0.363899	-0.013026	-1.605548	99
Es	-0.068046	-1.602749	1.065523	99
Es	0.049211	0.864716	0.742172	99
Es	0.063393	0.738642	-1.241415	99
Es	-1.075582	0.322432	1.284635	99
Es	-1.662950	0.222223	1.614129	99
Es	-1.725070	0.116105	1.107505	99
Es	1.036091	1.478494	0.297925	99
Es	-0.125224	-1.208911	-0.800208	99
Es	-1.771988	0.789086	1.270494	99
Es	0.172651	-1.841238	-1.079820	99
Es	0.031286	-0.376073	0.939487	99
Es	0.247852	-1.058498	0.673702	99
Es	0.127004	-0.615307	-1.197665	99
45
Properties=species:S:1:pos:R:3:Z:I:1 energy=-344.9997816954858 field_type=dipole dipole="0.000000 0.000000 0.000000" charge=0
O	-1.614156	0.289305	1.337518	8
C	-0.187876	0.301505	1.211328	6
C	0.247854	-1.058535	0.673728	6
C	-0.125266	-1.208935	-0.800232	6
C	0.363984	-0.013205	-1.605662	6
O	-0.148646	1.208975	-1.070692	8
C	0.282324	1.426195	0.278738	6
H	-1.938756	1.195795	1.202838	1
H	0.218644	0.459595	2.214668	1
H	-0.220636	-1.867595	1.246328	1
H	1.334374	-1.161225	0.780388	1
H	0.296084	-2.136185	-1.204532	1
H	-1.216206	-1.278175	-0.886182	1
H	1.459894	0.031395	-1.625542	1
H	0.019074	-0.093425	-2.640782	1
H	1.373724	1.520525	0.293988	1
H	-0.144416	2.383995	0.594098	1
Es	-0.068147	-1.602778	1.065488	99
Es	-0.459509	1.180654	-1.057265	99
Es	0.031395	-0.375990	0.939391	99
Es	0.997360	-1.119819	0.746387	99
Es	0.172801	-1.841248	-1.079806	99
Es	1.127229	0.012621	-1.608014	99
Es	0.282248	1.426132	0.278538	99
Es	-0.148417	1.208748	-1.070486	99
Es	-1.663536	0.221478	1.613408	99
Es	-0.188098	0.301514	1.211291	99
Es	-0.017525	2.078994	0.504109	99
Es	-1.724931	0.116911	1.106505	99
Es	-1.614021	0.289602	1.337459	99
Es	-0.125224	-1.208911	-0.800208	99
Es	-0.017975	1.424510	-1.225002	99
Es	0.049131	0.864658	0.742329	99
Es	0.247854	-1.058497	0.673702	99
Es	0.107295	0.419069	1.898647	99
Es	-1.075423	0.322231	1.285359	99
Es	0.063608	0.738772	-1.241489	99
Es	0.363899	-0.013026	-1.605547	99
Es	0.126935	-0.615382	-1.197612	99
Es	0.064907	-1.127616	-0.062797	99
Es	0.035921	1.260455	-0.557637	99
Es	-0.863033	-1.252684	-0.862801	99
Es	0.127727	-0.068884	-2.312506	99
Es	-1.771633	0.789267	1.271475	99
Es	1.036095	1.478576	0.297900	99
45
Properties=species:S:1:pos:R:3:Z:I:1 energy=-344.9997816954858 field_type=dipole dipole="0.000000 0.000000 0.000000" charge=0
O	-1.614156	0.289305	1.337518	8
C	-0.187876	0.301505	1.211328	6
C	0.247854	-1.058535	0.673728	6
C	-0.125266	-1.208935	-0.800232	6
C	0.363984	-0.013205	-1.605662	6
O	-0.148646	1.208975	-1.070692	8
C	0.282324	1.426195	0.278738	6
H	-1.938756	1.195795	1.202838	1
H	0.218644	0.459595	2.214668	1
H	-0.220636	-1.867595	1.246328	1
H	1.334374	-1.161225	0.780388	1
H	0.296084	-2.136185	-1.204532	1
H	-1.216206	-1.278175	-0.886182	1
H	1.459894	0.031395	-1.625542	1
H	0.019074	-0.093425	-2.640782	1
H	1.373724	1.520525	0.293988	1
H	-0.144416	2.383995	0.594098	1
Es	0.031417	-0.376018	0.939329	99
Es	-0.862943	-1.252623	-0.862747	99
Es	-0.188096	0.301514	1.211291	99
Es	-0.148395	1.208721	-1.070510	99
Es	0.126988	-0.615387	-1.197714	99
Es	-1.725733	0.116740	1.107246	99
Es	-0.016262	1.423183	-1.224111	99
Es	1.127263	0.012636	-1.608123	99
Es	0.035355	1.260181	-0.557106	99
Es	-0.125223	-1.208910	-0.800208	99
Es	-0.068127	-1.602759	1.065537	99
Es	0.049135	0.864720	0.742335	99
Es	0.062615	0.738144	-1.241297	99
Es	0.282248	1.426135	0.278545	99
Es	-1.663710	0.222529	1.613334	99
Es	-1.613934	0.289601	1.337468	99
Es	-1.770936	0.789460	1.270771	99
Es	-1.075228	0.321131	1.285356	99
Es	0.247854	-1.058497	0.673701	99
Es	-0.017522	2.079058	0.504129	99
Es	0.127672	-0.068827	-2.312434	99
Es	0.064740	-1.127561	-0.062880	99
Es	1.036088	1.478494	0.297879	99
Es	0.997411	-1.119771	0.746368	99
Es	0.363898	-0.013025	-1.605546	99
Es	0.107268	0.419048	1.898676	99
Es	0.172741	-1.841430	-1.079664	99
Es	-0.459650	1.182869	-1.058806	99
45
Properties=species:S:1:pos:R:3:Z:I:1 energy=-344.9997816954858 field_type=dipole dipole="0.000000 0.000000 0.000000" charge=0
O	-1.614156	0.289305	1.337518	8
C	-0.187876	0.301505	1.211328	6
C	0.247854	-1.058535	0.673728	6
C	-0.125266	-1.208935	-0.800232	6
C	0.363984	-0.013205	-1.605662	6
O	-0.148646	1.208975	-1.070692	8
C	0.282324	1.426195	0.278738	6
H	-1.938756	1.195795	1.202838	1
H	0.218644	0.459595	2.214668	1
H	-0.220636	-1.867595	1.246328	1
H	1.334374	-1.161225	0.780388	1
H	0.296084	-2.136185	-1.204532	1
H	-1.216206	-1.278175	-0.886182	1
H	1.459894	0.031395	-1.625542	1
H	0.019074	-0.093425	-2.640782	1
H	1.373724	1.520525	0.293988	1
H	-0.144416	2.383995	0.594098	1
Es	-0.125223	-1.208911	-0.800208	99
Es	1.036094	1.478432	0.297938	99
Es	0.036591	1.260724	-0.557740	99
Es	0.107220	0.419106	1.898577	99
Es	-0.148419	1.208788	-1.070528	99
Es	0.282247	1.426132	0.278538	99
Es	-1.663507	0.221763	1.613390	99
Es	-1.771743	0.789482	1.270956	99
Es	0.126858	-0.615368	-1.197678	99
Es	-0.459872	1.180724	-1.057102	99
Es	0.031306	-0.376117	0.939563	99
Es	-0.017914	1.424044	-1.225274	99
Es	0.363898	-0.013025	-1.605546	99
Es	0.063239	0.738878	-1.241254	99
Es	-0.188098	0.301515	1.211293	99
Es	0.247854	-1.058497	0.673702	99
Es	-1.075643	0.322206	1.285697	99
Es	-0.067977	-1.602670	1.065414	99
Es	1.127299	0.012582	-1.607999	99
Es	0.064669	-1.127645	-0.062823	99
Es	-1.613980	0.289545	1.337484	99
Es	0.049168	0.864752	0.742207	99
Es	0.172801	-1.841403	-1.079782	99
Es	-0.017537	2.079058	0.504203	99
Es	0.997454	-1.119830	0.746322	99
Es	0.127756	-0.068838	-2.312442	99
Es	-0.862963	-1.252595	-0.862771	99
Es	-1.724643	0.116527	1.106681	99
45
Properties=species:S:1:pos:R:3:Z:I:1 energy=-344.9997816954858 field_type=dipole dipole="0.000000 0.000000 0.000000" charge=0
O	-1.614156	0.289305	1.337518	8
C	-0.187876	0.301505	1.211328	6
C	0.247854	-1.058535	0.673728	6
C	-0.125266	-1.208935	-0.800232	6
C	0.363984	-0.013205	-1.605662	6
O	-0.148646	1.208975	-1.070692	8
C	0.282324	1.426195	0.278738	6
H	-1.938756	1.195795	1.202838	1
H	0.218644	0.459595	2.214668	1
H	-0.220636	-1.867595	1.246328	1
H	1.334374	-1.161225	0.780388	1
H	0.296084	-2.136185	-1.204532	1
H	-1.216206	-1.278175	-0.886182	1
H	1.459894	0.031395	-1.625542	1
H	0.019074	-0.093425	-2.640782	1
H	1.373724	1.520525	0.293988	1
H	-0.144416	2.383995	0.594098	1
Es	1.127220	0.012591	-1.608069	99
Es	0.031397	-0.376015	0.939392	99
Es	0.282247	1.426134	0.278542	99
Es	-1.771579	0.789441	1.270760	99
Es	-1.075370	0.321846	1.286050	99
Es	-0.148291	1.208780	-1.070501	99
Es	-0.460712	1.183454	-1.058932	99
Es	0.172716	-1.841419	-1.079755	99
Es	0.064723	-1.127683	-0.062780	99
Es	-0.862875	-1.252627	-0.862741	99
Es	-0.017487	2.079167	0.504135	99
Es	-1.613997	0.289573	1.337466	99
Es	1.036013	1.478420	0.297871	99
Es	0.997386	-1.119820	0.746317	99
Es	0.049135	0.864714	0.742293	99
Es	0.247855	-1.058499	0.673701	99
Es	-0.125224	-1.208911	-0.800208	99
Es	-0.016103	1.422197	-1.223574	99
Es	-0.188099	0.301515	1.211290	99
Es	0.126983	-0.615250	-1.197671	99
Es	-1.664118	0.221559	1.613337	99
Es	0.363899	-0.013028	-1.605548	99
Es	0.127698	-0.068904	-2.312464	99
Es	-1.724428	0.117053	1.106591	99
Es	0.062762	0.738327	-1.241281	99
Es	-0.068096	-1.602749	1.065520	99
Es	0.107234	0.419077	1.898628	99
Es	0.036046	1.260417	-0.557550	99
45
Properties=species:S:1:pos:R:3:Z:I:1 energy=-344.9997816954858 field_type=dipole dipole="0.000000 0.000000 0.000000" charge=0
O	-1.614156	0.289305	1.337518	8
C	-0.187876	0.301505	1.211328	6
C	0.247854	-1.058535	0.673728	6
C	-0.125266	-1.208935	-0.800232	6
C	0.363984	-0.013205	-1.605662	6
O	-0.148646	1.208975	-1.070692	8
C	0.282324	1.426195	0.278738	6
H	-1.938756	1.195795	1.202838	1
H	0.218644	0.459595	2.214668	1
H	-0.220636	-1.867595	1.246328	1