39
Properties=species:S:1:pos:R:3:Z:I:1 energy=-342.64944504151026 field_type=dipole dipole="0.000000 0.000000 0.000000" charge=0
O	-2.642030	-0.043708	0.092456	8
C	-1.418380	0.000382	-0.001034	6
C	-0.621751	1.297101	0.023486	6
O	0.642550	1.179251	-0.618964	8
C	1.441169	0.133642	-0.069094	6
C	0.698539	-1.167189	-0.056044	6
C	-0.638000	-1.257708	-0.056514	6
H	-1.190610	2.060861	-0.514984	1
H	-0.485420	1.620071	1.061026	1
H	1.771889	0.404742	0.939466	1
H	2.329110	0.040932	-0.702214	1
H	1.294489	-2.075388	-0.046784	1
H	-1.181551	-2.192988	-0.050804	1
Es	-1.007739	0.639721	0.004853	99
Es	-1.017518	-0.632933	-0.042669	99
Es	-2.750357	-0.337459	0.096664	99
Es	-2.176190	-0.033032	0.307060	99
Es	-0.638062	-1.257652	-0.056525	99
Es	0.789549	1.441136	-0.561113	99
Es	1.112086	-1.772568	-0.045579	99
Es	1.440984	0.133744	-0.069176	99
Es	-1.000315	-1.882320	-0.054549	99
Es	-0.535314	1.494166	0.733209	99
Es	2.036940	0.061206	-0.495212	99
Es	-0.014132	-1.190714	-0.375672	99
Es	-1.418337	0.000382	-0.001039	99
Es	0.169902	1.189637	-0.347208	99
Es	-2.641735	-0.043691	0.092432	99
Es	0.642489	1.179089	-0.618755	99
Es	1.652173	0.301696	0.623237	99
Es	-2.219129	-0.022574	-0.193079	99
Es	0.919641	0.772817	-0.378718	99
Es	-0.022977	-1.188293	0.263498	99
Es	0.578199	1.083642	-0.902525	99
Es	-0.621554	1.296995	0.023397	99
Es	1.058355	-0.527223	-0.057650	99
Es	0.698665	-1.167164	-0.056038	99
Es	-1.004664	1.803276	-0.335155	99
Es	-2.775612	0.244551	0.110254	99
39
Properties=species:S:1:pos:R:3:Z:I:1 energy=-342.64944504151026 field_type=dipole dipole="0.000000 0.000000 0.000000" charge=0
O	-2.642030	-0.043708	0.092456	8
C	-1.418380	0.000382	-0.001034	6
C	-0.621751	1.297101	0.023486	6
O	0.642550	1.179251	-0.618964	8
C	1.441169	0.133642	-0.069094	6
C	0.698539	-1.167189	-0.056044	6
C	-0.638000	-1.257708	-0.056514	6
H	-1.190610	2.060861	-0.514984	1
H	-0.485420	1.620071	1.061026	1
H	1.771889	0.404742	0.939466	1
H	2.329110	0.040932	-0.702214	1
H	1.294489	-2.075388	-0.046784	1
H	-1.181551	-2.192988	-0.050804	1
Es	1.113008	-1.771967	-0.045897	99
Es	-2.724115	-0.334429	0.091788	99
Es	1.440984	0.133742	-0.069173	99
Es	-2.220391	-0.019913	-0.192000	99
Es	-0.638065	-1.257655	-0.056522	99
Es	0.158248	1.186449	-0.355238	99
Es	0.928026	0.775791	-0.377793	99
Es	-0.621557	1.296996	0.023399	99
Es	-0.023548	-1.188549	0.266038	99
Es	-2.641697	-0.043739	0.092438	99
Es	-1.007868	0.639687	0.005775	99
Es	-2.175125	-0.032040	0.309822	99
Es	0.587428	1.084615	-0.883069	99
Es	0.698666	-1.167165	-0.056034	99
Es	-1.418337	0.000383	-0.001036	99
Es	-2.802199	0.238467	0.110910	99
Es	1.057552	-0.527925	-0.055613	99
Es	-1.000040	-1.880815	-0.055116	99
Es	-0.013962	-1.190777	-0.377140	99
Es	0.784619	1.440132	-0.572553	99
Es	-1.017781	-0.632555	-0.042389	99
Es	1.649259	0.300427	0.620105	99
Es	0.642449	1.179029	-0.618652	99
Es	-0.536263	1.493221	0.731403	99
Es	2.041129	0.061567	-0.495053	99
Es	-1.005072	1.803456	-0.334462	99
39
Properties=species:S:1:pos:R:3:Z:I:1 energy=-342.64944504151026 field_type=dipole dipole="0.000000 0.000000 0.000000" charge=0
O	-2.642030	-0.043708	0.092456	8
C	-1.418380	0.000382	-0.001034	6
C	-0.621751	1.297101	0.023486	6
O	0.642550	1.179251	-0.618964	8
C	1.441169	0.133642	-0.069094	6
C	0.698539	-1.167189	-0.056044	6
C	-0.638000	-1.257708	-0.056514	6
H	-1.190610	2.060861	-0.514984	1
H	-0.485420	1.620071	1.061026	1
H	1.771889	0.404742	0.939466	1
H	2.329110	0.040932	-0.702214	1
H	1.294489	-2.075388	-0.046784	1
H	-1.181551	-2.192988	-0.050804	1
Es	-0.621552	1.296995	0.023396	99
Es	0.780346	1.441009	-0.583801	99
Es	-0.638065	-1.257653	-0.056525	99
Es	0.151571	1.181787	-0.364904	99
Es	1.057200	-0.528213	-0.054242	99
Es	-1.000372	-1.880592	-0.055730	99
Es	-0.013490	-1.190612	-0.377409	99
Es	-0.536824	1.493002	0.729532	99
Es	-1.418337	0.000383	-0.001034	99
Es	-2.641658	-0.043588	0.092430	99
Es	2.044164	0.062706	-0.493756	99
Es	-2.223561	-0.015299	-0.191822	99
Es	-1.017577	-0.632560	-0.042128	99
Es	1.440983	0.133746	-0.069165	99
Es	0.698666	-1.167165	-0.056032	99
Es	0.591840	1.084828	-0.861726	99
Es	0.642386	1.178942	-0.618714	99
Es	-1.008838	0.639240	0.006157	99
Es	-2.665258	-0.308533	0.088359	99
Es	-0.024252	-1.188696	0.266889	99
Es	1.113154	-1.771462	-0.046121	99
Es	1.646884	0.299255	0.616942	99
Es	-2.860342	0.200694	0.112399	99
Es	-1.004209	1.803630	-0.333252	99
Es	0.935409	0.779465	-0.376922	99
Es	-2.172923	-0.024873	0.311117	99
39
Properties=species:S:1:pos:R:3:Z:I:1 energy=-342.64944504151026 field_type=dipole dipole="0.000000 0.000000 0.000000" charge=0
O	-2.642030	-0.043708	0.092456	8
C	-1.418380	0.000382	-0.001034	6
C	-0.621751	1.297101	0.023486	6
O	0.642550	1.179251	-0.618964	8
C	1.441169	0.133642	-0.069094	6
C	0.698539	-1.167189	-0.056044	6
C	-0.638000	-1.257708	-0.056514	6
H	-1.190610	2.060861	-0.514984	1
H	-0.485420	1.620071	1.061026	1
H	1.771889	0.404742	0.939466	1
H	2.329110	0.040932	-0.702214	1
H	1.294489	-2.075388	-0.046784	1
H	-1.181551	-2.192988	-0.050804	1
Es	-2.170697	-0.018493	0.311393	99
Es	0.938157	0.777786	-0.380705	99
Es	-1.000343	-1.880898	-0.056415	99
Es	-1.017661	-0.632138	-0.041625	99
Es	-0.024367	-1.189186	0.265721	99
Es	-2.616680	-0.248521	0.088323	99
Es	0.148783	1.179159	-0.371015	99
Es	-0.537121	1.492802	0.727815	99
Es	2.046430	0.064026	-0.491835	99
Es	0.698667	-1.167163	-0.056032	99
Es	-0.621550	1.296992	0.023394	99
Es	1.644914	0.298218	0.614035	99
Es	-2.908220	0.134881	0.111060	99
Es	-1.418336	0.000384	-0.001033	99
Es	0.780081	1.442625	-0.590469	99
Es	1.113112	-1.771704	-0.046211	99
Es	1.440985	0.133746	-0.069174	99
Es	1.057043	-0.528474	-0.053306	99
Es	-2.226527	-0.015884	-0.190953	99
Es	0.592574	1.087695	-0.844138	99
Es	-0.013473	-1.190170	-0.376366	99
Es	-0.638066	-1.257657	-0.056524	99
Es	-1.010089	0.638852	0.006152	99
Es	-2.641651	-0.043533	0.092431	99
Es	0.642439	1.179042	-0.618628	99
Es	-1.003058	1.804047	-0.331955	99
39
Properties=species:S:1:pos:R:3:Z:I:1 energy=-342.64944504151026 field_type=dipole dipole="0.000000 0.000000 0.000000" charge=0
O	-2.642030	-0.043708	0.092456	8
C	-1.418380	0.000382	-0.001034	6
C	-0.621751	1.297101	0.023486	6
O	0.642550	1.179251	-0.618964	8
C	1.441169	0.133642	-0.069094	6
C	0.698539	-1.167189	-0.056044	6
C	-0.638000	-1.257708	-0.056514	6
H	-1.190610	2.060861	-0.514984	1
H	-0.485420	1.620071	1.061026	1
H	1.771889	0.404742	0.939466	1
H	2.329110	0.040932	-0.702214	1
H	1.294489	-2.075388	-0.046784	1
H	-1.181551	-2.192988	-0.050804	1
Es	0.593095	1.090938	-0.829524	99
Es	-2.641303	-0.043293	0.092419	99
Es	1.113548	-1.772007	-0.046579	99
Es	-1.418336	0.000383	-0.001036	99
Es	-0.025516	-1.189350	0.264853	99
Es	1.440987	0.133742	-0.069173	99
Es	-0.012384	-1.190070	-0.374936	99
Es	0.698667	-1.167162	-0.056035	99
Es	-2.165802	-0.017667	0.309152	99
Es	-1.000106	-1.880992	-0.057255	99
Es	-0.638067	-1.257658	-0.056525	99
Es	-1.011157	0.638644	0.006372	99
Es	-2.598411	-0.198850	0.088888	99
Es	-2.927159	0.088657	0.110818	99
Es	1.056568	-0.528469	-0.052647	99
Es	2.048364	0.065010	-0.489977	99
Es	-1.017593	-0.631737	-0.041330	99
Es	0.942039	0.777498	-0.384272	99
Es	-0.621550	1.296993	0.023394	99
Es	0.777697	1.441152	-0.595579	99
Es	0.147000	1.177900	-0.375890	99
Es	0.642457	1.179075	-0.618660	99
Es	1.643173	0.297095	0.611408	99
Es	-1.002414	1.804470	-0.331007	99
Es	-0.537340	1.492389	0.726311	99
Es	-2.231110	-0.020254	-0.189252	99
39
Properties=species:S:1:pos:R:3:Z:I:1 energy=-342.64944504151026 field_type=dipole dipole="0.000000 0.000000 0.000000" charge=0
O	-2.642030	-0.043708	0.092456	8
C	-1.418380	0.000382	-0.001034	6
C	-0.621751	1.297101	0.023486	6
O	0.642550	1.179251	-0.618964	8
C	1.441169	0.133642	-0.069094	6
C	0.698539	-1.167189	-0.056044	6
C	-0.638000	-1.257708	-0.056514	6
H	-1.190610	2.060861	-0.514984	1
H	-0.485420	1.620071	1.061026	1
H	1.771889	0.404742	0.939466	1
H	2.329110	0.040932	-0.702214	1
H	1.294489	-2.075388	-0.046784	1
H	-1.181551	-2.192988	-0.050804	1
Es	-2.236454	-0.025550	-0.185476	99
Es	-2.641150	-0.043681	0.092410	99
Es	-2.160071	-0.017838	0.304531	99
Es	-1.001508	1.804647	-0.330040	99
Es	-0.638066	-1.257654	-0.056527	99
Es	-0.011147	-1.190196	-0.374278	99
Es	2.049850	0.065753	-0.488368	99
Es	0.593728	1.093708	-0.817109	99
Es	-0.537426	1.492157	0.725393	99
Es	-0.999849	-1.880961	-0.057571	99
Es	0.947016	0.779599	-0.387210	99
Es	1.641819	0.296151	0.609211	99
Es	-2.934809	0.061524	0.110640	99
Es	-2.591317	-0.165749	0.089709	99
Es	1.440986	0.133745	-0.069174	99
Es	-0.026824	-1.189183	0.264080	99
Es	-0.621554	1.296997	0.023391	99
Es	0.698666	-1.167164	-0.056035	99
Es	0.642444	1.179064	-0.619076	99
Es	1.113986	-1.772078	-0.046817	99
Es	0.773650	1.437554	-0.599441	99
Es	-1.012281	0.638666	0.006240	99
Es	0.145571	1.176632	-0.380388	99
Es	-1.017697	-0.631544	-0.040870	99
Es	-1.418336	0.000383	-0.001030	99
Es	1.056122	-0.528547	-0.052258	99
39
Properties=species:S:1:pos:R:3:Z:I:1 energy=-342.64944504151026 field_type=dipole dipole="0.000000 0.000000 0.000000" charge=0
O	-2.642030	-0.043708	0.092456	8
C	-1.418380	0.000382	-0.001034	6
C	-0.621751	1.297101	0.023486	6
O	0.642550	1.179251	-0.618964	8
C	1.441169	0.133642	-0.069094	6
C	0.698539	-1.167189	-0.056044	6
C	-0.638000	-1.257708	-0.056514	6
H	-1.190610	2.060861	-0.514984	1
H	-0.485420	1.620071	1.061026	1
H	1.771889	0.404742	0.939466	1
H	2.329110	0.040932	-0.702214	1
H	1.294489	-2.075388	-0.046784	1
H	-1.181551	-2.192988	-0.050804	1
Es	-2.641658	-0.043689	0.092429	99
Es	-1.418336	0.000384	-0.001037	99
Es	-0.026010	-1.189737	0.263996	99
Es	-0.537542	1.491831	0.724591	99
Es	-0.012028	-1.189562	-0.374434	99
Es	1.440986	0.133743	-0.069171	99
Es	1.114332	-1.772099	-0.046925	99
Es	0.595033	1.099010	-0.811881	99
Es	0.642478	1.179122	-0.618912	99
Es	-2.938302	0.045326	0.110143	99
Es	1.055765	-0.528623	-0.051800	99
Es	-0.999624	-1.880907	-0.057813	99
Es	-1.017710	-0.631409	-0.040632	99
Es	0.144759	1.175669	-0.383494	99
Es	0.698666	-1.167164	-0.056026	99
Es	-2.157978	-0.017463	0.302247	99
Es	-1.000812	1.804739	-0.329191	99
Es	0.951515	0.781278	-0.392399	99
Es	-1.013236	0.638757	0.005952	99
Es	-0.621554	1.296997	0.023391	99
Es	2.051451	0.066704	-0.486369	99
Es	-2.238483	-0.027439	-0.182805	99
Es	0.768742	1.431576	-0.595707	99
Es	1.640358	0.295016	0.606461	99
Es	-0.638066	-1.257653	-0.056525	99
Es	-2.587399	-0.147970	0.089849	99
39
Properties=species:S:1:pos:R:3:Z:I:1 energy=-342.64944504151026 field_type=dipole dipole="0.000000 0.000000 0.000000" charge=0
O	-2.642030	-0.043708	0.092456	8
C	-1.418380	0.000382	-0.001034	6
C	-0.621751	1.297101	0.023486	6
O	0.642550	1.179251	-0.618964	8
C	1.441169	0.133642	-0.069094	6
C	0.698539	-1.167189	-0.056044	6
C	-0.638000	-1.257708	-0.056514	6
H	-1.190610	2.060861	-0.514984	1
H	-0.485420	1.620071	1.061026	1
H	1.771889	0.404742	0.939466	1
H	2.329110	0.040932	-0.702214	1
H	1.294489	-2.075388	-0.046784	1
H	-1.181551	-2.192988	-0.050804	1
Es	-0.010774	-1.189885	-0.374084	99
Es	-2.244530	-0.030052	-0.175186	99
Es	1.114615	-1.772059	-0.047106	99
Es	-0.999558	-1.880719	-0.057950	99
Es	-2.585897	-0.135985	0.089911	99
Es	0.642320	1.178844	-0.618721	99
Es	1.055489	-0.528638	-0.051543	99
Es	0.764511	1.426653	-0.597813	99
Es	1.639670	0.294421	0.604944	99
Es	0.144406	1.175298	-0.384979	99
Es	-0.638066	-1.257652	-0.056521	99
Es	-2.641657	-0.043604	0.092430	99
Es	-1.014185	0.638981	0.005255	99
Es	-2.939964	0.036248	0.110152	99
Es	2.052231	0.067112	-0.485373	99
Es	-0.621551	1.296994	0.023394	99
Es	-1.017801	-0.631328	-0.040416	99
Es	0.956104	0.785529	-0.394273	99
Es	0.595291	1.100344	-0.805950	99
Es	-2.151786	-0.017785	0.294499	99
Es	1.440985	0.133742	-0.069169	99
Es	-1.418336	0.000384	-0.001026	99
Es	-0.027287	-1.189448	0.263627	99
Es	0.698667	-1.167164	-0.056029	99
Es	-0.999842	1.804463	-0.328307	99
Es	-0.537706	1.491739	0.724173	99
39
Properties=species:S:1:pos:R:3:Z:I:1 energy=-342.64944504151026 field_type=dipole dipole="0.000000 0.000000 0.000000" charge=0
O	-2.642030	-0.043708	0.092456	8
C	-1.418380	0.000382	-0.001034	6
C	-0.621751	1.297101	0.023486	6
O	0.642550	1.179251	-0.618964	8
C	1.441169	0.133642	-0.069094	6
C	0.698539	-1.167189	-0.056044	6
C	-0.638000	-1.257708	-0.056514	6
H	-1.190610	2.060861	-0.514984	1
H	-0.485420	1.620071	1.061026	1
H	1.771889	0.404742	0.939466	1
H	2.329110	0.040932	-0.702214	1
H	1.294489	-2.075388	-0.046784	1
H	-1.181551	-2.192988	-0.050804	1
Es	-2.250863	-0.030107	-0.164309	99
Es	-0.009097	-1.190387	-0.373414	99
Es	-0.621551	1.296994	0.023392	99
Es	0.761680	1.422092	-0.599682	99
Es	-2.641653	-0.043534	0.092431	99
Es	-1.017914	-0.631351	-0.040266	99
Es	1.639004	0.293855	0.603878	99
Es	0.642470	1.179088	-0.618763	99
Es	0.144139	1.176034	-0.385986	99
Es	2.052921	0.067407	-0.484450	99
Es	0.595087	1.100176	-0.801956	99
Es	-1.418336	0.000383	-0.001030	99
Es	0.698667	-1.167163	-0.056034	99
Es	1.440982	0.133755	-0.069154	99
Es	-1.014614	0.639202	0.004728	99
Es	-2.584845	-0.129544	0.089531	99
Es	1.055309	-0.528539	-0.051543	99
Es	-2.941082	0.029135	0.110746	99
Es	-0.999402	-1.880527	-0.058160	99
Es	-2.145413	-0.017005	0.283450	99
Es	-0.029017	-1.188985	0.263093	99
Es	-0.999330	1.803770	-0.328151	99
Es	1.114949	-1.771912	-0.047274	99
Es	-0.638067	-1.257657	-0.056529	99
Es	0.959194	0.789155	-0.395099	99
Es	-0.537872	1.492101	0.724488	99
39
Properties=species:S:1:pos:R:3:Z:I:1 energy=-342.64944504151026 field_type=dipole dipole="0.000000 0.000000 0.000000" charge=0
O	-2.642030	-0.043708	0.092456	8
C	-1.418380	0.000382	-0.001034	6
C	-0.621751	1.297101	0.023486	6
O	0.642550	1.179251	-0.618964	8
C	1.441169	0.133642	-0.069094	6
C	0.698539	-1.167189	-0.056044	6
C	-0.638000	-1.257708	-0.056514	6
H	-1.190610	2.060861	-0.514984	1
H	-0.485420	1.620071	1.061026	1
H	1.771889	0.404742	0.939466	1
H	2.329110	0.040932	-0.702214	1
H	1.294489	-2.075388	-0.046784	1
H	-1.181551	-2.192988	-0.050804	1
Es	1.055113	-0.528596	-0.051468	99
Es	-0.998577	1.803643	-0.327332	99
Es	-2.641660	-0.043514	0.092422	99
Es	-0.029726	-1.188746	0.262745	99
Es	-1.015489	0.639426	0.004163	99
Es	-2.142221	-0.016464	0.276768	99
Es	0.756581	1.415341	-0.599906	99
Es	1.638442	0.293364	0.602627	99
Es	1.115040	-1.771867	-0.047322	99
Es	-2.941242	0.028065	0.110532	99
Es	0.698667	-1.167163	-0.056036	99
Es	-0.008405	-1.190622	-0.372988	99
Es	-0.621557	1.297000	0.023392	99
Es	0.595315	1.101299	-0.798774	99
Es	-1.017801	-0.631344	-0.040261	99
Es	-0.638066	-1.257656	-0.056525	99
Es	-2.584639	-0.127214	0.089864	99
Es	0.143975	1.174956	-0.386801	99
Es	-1.418337	0.000384	-0.001033	99
Es	0.964357	0.795937	-0.397177	99
Es	2.053521	0.067832	-0.483467	99
Es	1.440984	0.133746	-0.069166	99
Es	-2.254098	-0.031914	-0.157770	99
Es	-0.999430	-1.880496	-0.058227	99
Es	-0.537900	1.491926	0.724128	99
Es	0.642499	1.179111	-0.618448	99
39
Properties=species:S:1:pos:R:3:Z:I:1 energy=-342.64944504151026 field_type=dipole dipole="0.000000 0.000000 0.000000" charge=0
O	-2.642030	-0.043708	0.092456	8
C	-1.418380	0.000382	-0.001034	6
C	-0.621751	1.297101	0.023486	6
O	0.642550	1.179251	-0.618964	8
C	1.441169	0.133642	-0.069094	6
C	0.698539	-1.167189	-0.056044	6
C	-0.638000	-1.257708	-0.056514	6
H	-1.190610	2.060861	-0.514984	1
H	-0.485420	1.620071	1.061026	1
H	1.771889	0.404742	0.939466	1
H	2.329110	0.040932	-0.702214	1
H	1.294489	-2.075388	-0.046784	1
H	-1.181551	-2.192988	-0.050804	1
Es	-2.257172	-0.030453	-0.149725	99
Es	-0.029587	-1.188899	0.262710	99
Es	0.642470	1.179100	-0.618758	99
Es	-0.621549	1.296993	0.023392	99
Es	-1.017695	-0.631301	-0.040198	99
Es	-0.537893	1.491838	0.723886	99
Es	-2.138935	-0.017450	0.269169	99
Es	-2.641636	-0.043399	0.092419	99
Es	-2.584463	-0.124879	0.089125	99
Es	1.440986	0.133743	-0.069172	99
Es	1.637989	0.292976	0.601759	99
Es	0.967829	0.800778	-0.399216	99
Es	0.595631	1.102477	-0.797486	99
Es	-1.015837	0.639464	0.004103	99
Es	-0.998329	1.803625	-0.327001	99
Es	0.143828	1.175605	-0.387296	99
Es	0.753116	1.408690	-0.598103	99
Es	1.054923	-0.528539	-0.051489	99
Es	0.698668	-1.167158	-0.056035	99
Es	-0.638066	-1.257653	-0.056521	99
Es	-1.418336	0.000386	-0.001032	99
Es	-0.999469	-1.880484	-0.058232	99
Es	2.053980	0.068160	-0.482717	99
Es	-0.008560	-1.190505	-0.373106	99
Es	-2.941657	0.025156	0.110865	99
Es	1.115111	-1.771836	-0.047403	99
39
Properties=species:S:1:pos:R:3:Z:I:1 energy=-342.64944504151026 field_type=dipole dipole="0.000000 0.000000 0.000000" charge=0
O	-2.642030	-0.043708	0.092456	8
C	-1.418380	0.000382	-0.001034	6
C	-0.621751	1.297101	0.023486	6
O	0.642550	1.179251	-0.618964	8
C	1.441169	0.133642	-0.069094	6
C	0.698539	-1.167189	-0.056044	6
C	-0.638000	-1.257708	-0.056514	6
H	-1.190610	2.060861	-0.514984	1
H	-0.485420	1.620071	1.061026	1
H	1.771889	0.404742	0.939466	1
H	2.329110	0.040932	-0.702214	1
H	1.294489	-2.075388	-0.046784	1
H	-1.181551	-2.192988	-0.050804	1
Es	-0.006958	-1.191045	-0.371840	99
Es	-0.638066	-1.257653	-0.056521	99
Es	-0.537951	1.491805	0.723886	99
Es	1.440991	0.133736	-0.069170	99
Es	-1.018026	-0.631293	-0.040280	99
Es	-2.942391	0.019588	0.110547	99
Es	-2.641571	-0.043295	0.092427	99
Es	-0.997903	1.803415	-0.326649	99
Es	0.595416	1.102181	-0.792931	99
Es	-0.031210	-1.188392	0.261764	99
Es	-0.621555	1.296998	0.023392	99
Es	-2.137141	-0.017628	0.264419	99
Es	2.054259	0.068384	-0.482206	99
Es	1.637726	0.292743	0.601129	99
Es	-0.999078	-1.880389	-0.058531	99
Es	-1.016287	0.639697	0.003646	99
Es	-2.583790	-0.117403	0.089439	99
Es	-2.258968	-0.032250	-0.145025	99
Es	-1.418337	0.000384	-0.001030	99
Es	0.143669	1.175650	-0.388159	99
Es	1.115285	-1.771785	-0.047436	99
Es	0.698667	-1.167164	-0.056037	99
Es	0.970100	0.804700	-0.400466	99
Es	1.054846	-0.528614	-0.051331	99
Es	0.642477	1.179106	-0.618973	99
Es	0.751142	1.404959	-0.600125	99
39
Properties=species:S:1:pos:R:3:Z:I:1 energy=-342.64944504151026 field_type=dipole dipole="0.000000 0.000000 0.000000" charge=0
O	-2.642030	-0.043708	0.092456	8
C	-1.418380	0.000382	-0.001034	6
C	-0.621751	1.297101	0.023486	6
O	0.642550	1.179251	-0.618964	8
C	1.441169	0.133642	-0.069094	6
C	0.698539	-1.167189	-0.056044	6
C	-0.638000	-1.257708	-0.056514	6
H	-1.190610	2.060861	-0.514984	1
H	-0.485420	1.620071	1.061026	1
H	1.771889	0.404742	0.939466	1
H	2.329110	0.040932	-0.702214	1
H	1.294489	-2.075388	-0.046784	1
H	-1.181551	-2.192988	-0.050804	1
Es	-0.638066	-1.257653	-0.056523	99
Es	0.143583	1.175346	-0.388784	99
Es	0.749034	1.401007	-0.598576	99
Es	-0.538014	1.491717	0.723632	99
Es	-1.016634	0.639778	0.003485	99
Es	-0.032705	-1.187815	0.260497	99
Es	1.637654	0.292570	0.600808	99
Es	-0.005475	-1.191676	-0.370655	99
Es	-1.017921	-0.631257	-0.040209	99
Es	1.115541	-1.771699	-0.047375	99
Es	-2.583533	-0.114849	0.089415	99
Es	2.054354	0.068417	-0.482074	99
Es	1.440988	0.133741	-0.069173	99
Es	-0.621549	1.296995	0.023390	99
Es	-1.418337	0.000384	-0.001028	99
Es	-2.942693	0.017267	0.109998	99
Es	0.595849	1.103199	-0.793328	99
Es	-0.999106	-1.880307	-0.058556	99
Es	-2.135404	-0.017483	0.259380	99
Es	-0.997647	1.803312	-0.326370	99
Es	0.642462	1.179052	-0.618501	99
Es	1.054650	-0.528614	-0.051329	99
Es	0.971891	0.808046	-0.401114	99
Es	-2.641560	-0.043316	0.092428	99
Es	-2.260681	-0.032565	-0.139465	99
Es	0.698667	-1.167164	-0.056034	99
39
Properties=species:S:1:pos:R:3:Z:I:1 energy=-342.64944504151026 field_type=dipole dipole="0.000000 0.000000 0.000000" charge=0
O	-2.642030	-0.043708	0.092456	8
C	-1.418380	0.000382	-0.001034	6
C	-0.621751	1.297101	0.023486	6
O	0.642550	1.179251	-0.618964	8
C	1.441169	0.133642	-0.069094	6
C	0.698539	-1.167189	-0.056044	6
C	-0.638000	-1.257708	-0.056514	6
H	-1.190610	2.060861	-0.514984	1
H	-0.485420	1.620071	1.061026	1
H	1.771889	0.404742	0.939466	1
H	2.329110	0.040932	-0.702214	1
H	1.294489	-2.075388	-0.046784	1
H	-1.181551	-2.192988	-0.050804	1
Es	-1.018098	-0.631237	-0.040246	99
Es	-2.942045	0.022790	0.109754	99
Es	1.637229	0.292179	0.600025	99
Es	2.054771	0.068685	-0.481336	99
Es	-2.134304	-0.016147	0.255438	99
Es	0.974746	0.814353	-0.399675	99
Es	-2.584084	-0.122822	0.089090	99
Es	-2.261790	-0.031156	-0.134966	99
Es	-2.641655	-0.043620	0.092434	99
Es	-0.538104	1.492193	0.723919	99
Es	1.054620	-0.528528	-0.051388	99
Es	-0.997083	1.802582	-0.326153	99
Es	-1.418336	0.000383	-0.001031	99
Es	-0.004493	-1.192023	-0.369609	99
Es	-0.638065	-1.257654	-0.056526	99
Es	0.747236	1.396433	-0.603703	99
Es	-0.999019	-1.880267	-0.058665	99
Es	0.594884	1.100446	-0.788655	99
Es	0.143526	1.176319	-0.388916	99
Es	-0.033703	-1.187478	0.259608	99
Es	1.115553	-1.771689	-0.047439	99
Es	-1.016999	0.640038	0.003008	99
Es	-0.621557	1.296996	0.023398	99
Es	0.698667	-1.167163	-0.056035	99
Es	0.642464	1.179079	-0.619221	99
Es	1.440986	0.133743	-0.069173	99
39
Properties=species:S:1:pos:R:3:Z:I:1 energy=-342.64944504151026 field_type=dipole dipole="0.000000 0.000000 0.000000" charge=0
O	-2.642030	-0.043708	0.092456	8
C	-1.418380	0.000382	-0.001034	6
C	-0.621751	1.297101	0.023486	6
O	0.642550	1.179251	-0.618964	8
C	1.441169	0.133642	-0.069094	6
C	0.698539	-1.167189	-0.056044	6
C	-0.638000	-1.257708	-0.056514	6
H	-1.190610	2.060861	-0.514984	1
H	-0.485420	1.620071	1.061026	1
H	1.771889	0.404742	0.939466	1
H	2.329110	0.040932	-0.702214	1
H	1.294489	-2.075388	-0.046784	1
H	-1.181551	-2.192988	-0.050804	1
Es	-1.418337	0.000385	-0.001031	99
Es	-0.638065	-1.257651	-0.056530	99
Es	-0.621539	1.296992	0.023402	99
Es	-0.005093	-1.191750	-0.370274	99
Es	-2.583555	-0.113734	0.089091	99
Es	-0.998954	-1.880206	-0.058704	99
Es	2.054618	0.068555	-0.481632	99
Es	1.637392	0.292356	0.600304	99
Es	1.115675	-1.771679	-0.047414	99
Es	-2.641623	-0.043445	0.092430	99
Es	1.054517	-0.528608	-0.051256	99
Es	0.698667	-1.167163	-0.056035	99
Es	0.642402	1.178954	-0.618647	99
Es	-2.942764	0.016821	0.110037	99
Es	-1.018025	-0.631273	-0.040321	99
Es	-0.538131	1.492187	0.723937	99
Es	0.975830	0.816311	-0.401048	99
Es	-2.131050	-0.018099	0.244700	99
Es	1.440987	0.133742	-0.069173	99
Es	-0.033098	-1.187723	0.260269	99
Es	0.143544	1.176230	-0.388746	99
Es	0.595032	1.101158	-0.788870	99
Es	-0.996946	1.802499	-0.326021	99
Es	-1.017284	0.640122	0.002939	99
Es	-2.264877	-0.032451	-0.124561	99
Es	0.746023	1.393905	-0.602907	99
39
Properties=species:S:1:pos:R:3:Z:I:1 energy=-342.64944504151026 field_type=dipole dipole="0.000000 0.000000 0.000000" charge=0
O	-2.642030	-0.043708	0.092456	8
C	-1.418380	0.000382	-0.001034	6
C	-0.621751	1.297101	0.023486	6
O	0.642550	1.179251	-0.618964	8
C	1.441169	0.133642	-0.069094	6
C	0.698539	-1.167189	-0.056044	6
C	-0.638000	-1.257708	-0.056514	6
H	-1.190610	2.060861	-0.514984	1
H	-0.485420	1.620071	1.061026	1
H	1.771889	0.404742	0.939466	1
H	2.329110	0.040932	-0.702214	1
H	1.294489	-2.075388	-0.046784	1
H	-1.181551	-2.192988	-0.050804	1
Es	-0.033424	-1.187640	0.260004	99
Es	1.054525	-0.528542	-0.051338	99
Es	-0.998968	-1.880142	-0.058713	99
Es	0.976932	0.818906	-0.401154	99
Es	-1.017417	0.640224	0.002728	99
Es	1.637203	0.292157	0.600010	99
Es	-2.641439	-0.043130	0.092420	99
Es	-2.129481	-0.018192	0.238539	99
Es	2.054794	0.068657	-0.481316	99
Es	0.744595	1.390616	-0.600745	99
Es	0.698667	-1.167163	-0.056034	99
Es	-0.538101	1.491897	0.723780	99
Es	-2.266399	-0.032416	-0.118167	99
Es	1.115739	-1.771631	-0.047451	99
Es	0.595300	1.101659	-0.790486	99
Es	-0.638065	-1.257653	-0.056524	99
Es	0.143506	1.176292	-0.388949	99
Es	-0.004768	-1.191852	-0.370052	99
Es	-1.418337	0.000384	-0.001033	99
Es	-2.942858	0.016032	0.109955	99
Es	0.642474	1.179068	-0.618730	99
Es	-1.018060	-0.631278	-0.040277	99
Es	-2.583693	-0.113196	0.088971	99
Es	1.440988	0.133741	-0.069174	99
Es	-0.621553	1.296995	0.023393	99
Es	-0.996812	1.802645	-0.325718	99
39
Properties=species:S:1:pos:R:3:Z:I:1 energy=-342.64944504151026 field_type=dipole dipole="0.000000 0.000000 0.000000" charge=0
O	-2.642030	-0.043708	0.092456	8
C	-1.418380	0.000382	-0.001034	6
C	-0.621751	1.297101	0.023486	6
O	0.642550	1.179251	-0.618964	8
C	1.441169	0.133642	-0.069094	6
C	0.698539	-1.167189	-0.056044	6
C	-0.638000	-1.257708	-0.056514	6
H	-1.190610	2.060861	-0.514984	1
H	-0.485420	1.620071	1.061026	1
H	1.771889	0.404742	0.939466	1
H	2.329110	0.040932	-0.702214	1
H	1.294489	-2.075388	-0.046784	1
H	-1.181551	-2.192988	-0.050804	1
Es	-0.998986	-1.880147	-0.058785	99
Es	0.595305	1.101758	-0.787312	99
Es	1.115657	-1.771633	-0.047450	99
Es	0.698667	-1.167163	-0.056036	99
Es	-0.003870	-1.192271	-0.368988	99
Es	1.636912	0.291896	0.599347	99
Es	-2.942371	0.020328	0.109672	99
Es	0.742350	1.385336	-0.601391	99
Es	-2.641462	-0.043280	0.092424	99
Es	-0.996746	1.802778	-0.325523	99
Es	-0.621553	1.296995	0.023392	99
Es	1.054491	-0.528584	-0.051339	99
Es	-1.017518	0.640237	0.002707	99
Es	-0.034336	-1.187350	0.258967	99
Es	1.440990	0.133740	-0.069172	99
Es	-0.638066	-1.257652	-0.056525	99
Es	2.055083	0.068972	-0.480677	99
Es	-2.266120	-0.031080	-0.118388	99
Es	0.642399	1.178966	-0.619101	99
Es	0.143418	1.176144	-0.389626	99
Es	0.979466	0.824414	-0.402514	99
Es	-0.538070	1.491723	0.723567	99
Es	-1.018035	-0.631201	-0.040265	99
Es	-2.584175	-0.119388	0.088589	99
Es	-1.418336	0.000384	-0.001031	99
Es	-2.129748	-0.017485	0.239397	99
39
Properties=species:S:1:pos:R:3:Z:I:1 energy=-342.64944504151026 field_type=dipole dipole="0.000000 0.000000 0.000000" charge=0
O	-2.642030	-0.043708	0.092456	8
C	-1.418380	0.000382	-0.001034	6
C	-0.621751	1.297101	0.023486	6
O	0.642550	1.179251	-0.618964	8
C	1.441169	0.133642	-0.069094	6
C	0.698539	-1.167189	-0.056044	6
C	-0.638000	-1.257708	-0.056514	6
H	-1.190610	2.060861	-0.514984	1
H	-0.485420	1.620071	1.061026	1
H	1.771889	0.404742	0.939466	1
H	2.329110	0.040932	-0.702214	1
H	1.294489	-2.075388	-0.046784	1
H	-1.181551	-2.192988	-0.050804	1
Es	1.115869	-1.771561	-0.047448	99
Es	0.980062	0.825805	-0.403002	99
Es	1.440986	0.133743	-0.069170	99
Es	-1.018046	-0.631168	-0.040436	99
Es	2.055288	0.069079	-0.480290	99
Es	-0.638066	-1.257653	-0.056527	99
Es	-2.265621	-0.031762	-0.120371	99
Es	1.636716	0.291715	0.598931	99
Es	-2.942688	0.017750	0.109146	99
Es	-0.036745	-1.186358	0.256258	99
Es	0.642475	1.179032	-0.618487	99
Es	-2.130242	-0.017912	0.241572	99
Es	-1.017770	0.640404	0.002420	99
Es	-2.583696	-0.115571	0.088829	99
Es	-2.641633	-0.043392	0.092430	99
Es	0.698667	-1.167165	-0.056036	99
Es	0.595442	1.102186	-0.786755	99
Es	-0.996531	1.802742	-0.325281	99
Es	0.741698	1.383666	-0.600948	99
Es	1.054292	-0.528613	-0.051359	99
Es	-1.418337	0.000384	-0.001030	99
Es	0.143285	1.175913	-0.390612	99
Es	-0.998933	-1.880127	-0.058914	99
Es	-0.538106	1.491574	0.723514	99
Es	-0.621553	1.296998	0.023389	99
Es	-0.001466	-1.193272	-0.365886	99
39
Properties=species:S:1:pos:R:3:Z:I:1 energy=-342.64944504151026 field_type=dipole dipole="0.000000 0.000000 0.000000" charge=0
O	-2.642030	-0.043708	0.092456	8
C	-1.418380	0.000382	-0.001034	6
C	-0.621751	1.297101	0.023486	6
O	0.642550	1.179251	-0.618964	8
C	1.441169	0.133642	-0.069094	6
C	0.698539	-1.167189	-0.056044	6
C	-0.638000	-1.257708	-0.056514	6
H	-1.190610	2.060861	-0.514984	1
H	-0.485420	1.620071	1.061026	1
H	1.771889	0.404742	0.939466	1
H	2.329110	0.040932	-0.702214	1
H	1.294489	-2.075388	-0.046784	1
H	-1.181551	-2.192988	-0.050804	1
Es	-2.583836	-0.117712	0.088805	99
Es	0.740775	1.380808	-0.601127	99
Es	0.642490	1.179122	-0.618878	99
Es	-2.267802	-0.031959	-0.110610	99
Es	1.636679	0.291618	0.598566	99
Es	2.055357	0.069064	-0.480225	99
Es	-2.942513	0.019356	0.109071	99
Es	-2.128103	-0.016687	0.231994	99
Es	1.054201	-0.528588	-0.051175	99
Es	-1.017956	0.640501	0.002247	99
Es	-0.638067	-1.257654	-0.056528	99
Es	-0.004284	-1.192020	-0.369513	99
Es	-0.621529	1.296993	0.023421	99
Es	-1.018068	-0.631222	-0.040236	99
Es	-0.998913	-1.880100	-0.058795	99
Es	1.115968	-1.771581	-0.047409	99
Es	-2.641627	-0.043892	0.092427	99
Es	0.698667	-1.167164	-0.056035	99
Es	0.981073	0.828336	-0.403772	99
Es	0.595284	1.101965	-0.785528	99
Es	-1.418336	0.000384	-0.001031	99
Es	-0.996316	1.802452	-0.325187	99
Es	-0.033929	-1.187470	0.259407	99
Es	-0.538177	1.491736	0.723524	99
Es	1.440989	0.133739	-0.069172	99
Es	0.143321	1.176409	-0.390302	99
39
Properties=species:S:1:pos:R:3:Z:I:1 energy=-342.64944504151026 field_type=dipole dipole="0.000000 0.000000 0.000000" charge=0
O	-2.642030	-0.043708	0.092456	8
C	-1.418380	0.000382	-0.001034	6
C	-0.621751	1.297101	0.023486	6
O	0.642550	1.179251	-0.618964	8
C	1.441169	0.133642	-0.069094	6
C	0.698539	-1.167189	-0.056044	6
C	-0.638000	-1.257708	-0.056514	6
H	-1.190610	2.060861	-0.514984	1
H	-0.485420	1.620071	1.061026	1
H	1.771889	0.404742	0.939466	1
H	2.329110	0.040932	-0.702214	1
H	1.294489	-2.075388	-0.046784	1
H	-1.181551	-2.192988	-0.050804	1
Es	-2.267629	-0.032166	-0.111385	99
Es	0.143235	1.176065	-0.390967	99
Es	-0.003089	-1.192489	-0.368085	99
Es	1.054239	-0.528570	-0.051143	99
Es	-2.583703	-0.112412	0.088789	99
Es	-0.621552	1.296994	0.023394	99
Es	-0.538200	1.491673	0.723393	99
Es	0.595635	1.102884	-0.785016	99
Es	-0.998799	-1.880013	-0.058982	99
Es	-0.638066	-1.257657	-0.056525	99
Es	1.116046	-1.771553	-0.047422	99
Es	-1.018043	-0.631176	-0.040274	99
Es	1.440986	0.133743	-0.069172	99
Es	-1.418336	0.000384	-0.001029	99
Es	0.642426	1.178954	-0.618536	99
Es	-1.018451	0.640700	0.001906	99
Es	-0.995946	1.802266	-0.324834	99
Es	0.740532	1.380298	-0.600252	99
Es	-0.035141	-1.187090	0.258161	99
Es	-2.942963	0.015426	0.108875	99
Es	0.981054	0.828400	-0.404604	99
Es	0.698667	-1.167163	-0.056030	99
Es	-2.641417	-0.043359	0.092422	99
Es	2.055531	0.069196	-0.479868	99
Es	1.636504	0.291425	0.598177	99
Es	-2.128173	-0.018322	0.232949	99
39
Properties=species:S:1:pos:R:3:Z:I:1 energy=-342.64944504151026 field_type=dipole dipole="0.000000 0.000000 0.000000" charge=0
O	-2.642030	-0.043708	0.092456	8
C	-1.418380	0.000382	-0.001034	6
C	-0.621751	1.297101	0.023486	6
O	0.642550	1.179251	-0.618964	8
C	1.441169	0.133642	-0.069094	6
C	0.698539	-1.167189	-0.056044	6
C	-0.638000	-1.257708	-0.056514	6
H	-1.190610	2.060861	-0.514984	1
H	-0.485420	1.620071	1.061026	1
H	1.771889	0.404742	0.939466	1
H	2.329110	0.040932	-0.702214	1
H	1.294489	-2.075388	-0.046784	1
H	-1.181551	-2.192988	-0.050804	1
Es	0.698667	-1.167163	-0.056035	99
Es	0.739933	1.378189	-0.600343	99
Es	-2.943060	0.014592	0.108693	99
Es	-0.003747	-1.192204	-0.368921	99
Es	0.981776	0.830277	-0.404424	99
Es	2.055666	0.069351	-0.479544	99
Es	0.595369	1.102154	-0.785726	99
Es	-0.034480	-1.187338	0.259055	99
Es	-2.126485	-0.018736	0.225108	99