42
Properties=species:S:1:pos:R:3:Z:I:1 energy=-343.80841372855036 field_type=dipole dipole="0.000000 0.000000 0.000000" charge=0
O	-0.153927	-1.832183	0.755257	8
C	-0.810397	-1.209563	-0.336823	6
C	-0.439708	0.245587	-0.351383	6
C	-1.369697	1.217536	-0.355383	6
C	1.033163	0.566297	-0.408833	6
C	1.598083	0.720037	0.985047	6
O	2.311092	1.664817	1.317807	8
H	-0.471707	-2.751283	0.782027	1
H	-1.889597	-1.356183	-0.223273	1
H	-0.488287	-1.693173	-1.264733	1
H	-2.432077	0.994036	-0.325743	1
H	-1.091328	2.267986	-0.376783	1
H	1.206283	1.499286	-0.957923	1
H	1.586723	-0.224073	-0.926123	1
H	1.411383	-0.109123	1.686857	1
Es	-2.089462	1.067446	-0.335047	99
Es	2.310898	1.664569	1.317700	99
Es	2.410300	1.641452	1.613552	99
Es	-1.555079	-1.306122	-0.265086	99
Es	1.033122	0.566257	-0.408784	99
Es	1.459557	0.157621	1.452649	99
Es	1.141499	1.191958	-0.773502	99
Es	0.146313	-1.840102	0.683877	99
Es	-0.902525	0.740711	-0.023462	99
Es	2.254560	1.200577	1.117459	99
Es	1.844361	1.447318	1.274152	99
Es	-1.184569	1.927725	-0.373814	99
Es	-0.411525	-1.613323	0.335429	99
Es	-0.439595	0.245488	-0.351385	99
Es	1.598064	0.720064	0.984998	99
Es	-0.624593	-0.478697	-0.339731	99
Es	-0.258531	-1.694639	1.007781	99
Es	1.294325	0.636593	0.281682	99
Es	1.402534	0.030458	-0.737985	99
Es	-1.369759	1.217597	-0.355382	99
Es	0.303425	0.395317	-0.370689	99
Es	-0.917685	0.721272	-0.680304	99
Es	2.350874	1.876761	1.086617	99
Es	-0.810268	-1.209630	-0.336640	99
Es	-0.588532	-1.532308	-0.978977	99
Es	-0.154215	-1.832333	0.755035	99
Es	-0.334611	-2.322880	0.752382	99
42
Properties=species:S:1:pos:R:3:Z:I:1 energy=-343.80841372855036 field_type=dipole dipole="0.000000 0.000000 0.000000" charge=0
O	-0.153927	-1.832183	0.755257	8
C	-0.810397	-1.209563	-0.336823	6
C	-0.439708	0.245587	-0.351383	6
C	-1.369697	1.217536	-0.355383	6
C	1.033163	0.566297	-0.408833	6
C	1.598083	0.720037	0.985047	6
O	2.311092	1.664817	1.317807	8
H	-0.471707	-2.751283	0.782027	1
H	-1.889597	-1.356183	-0.223273	1
H	-0.488287	-1.693173	-1.264733	1
H	-2.432077	0.994036	-0.325743	1
H	-1.091328	2.267986	-0.376783	1
H	1.206283	1.499286	-0.957923	1
H	1.586723	-0.224073	-0.926123	1
H	1.411383	-0.109123	1.686857	1
Es	-0.903598	0.739743	-0.026606	99
Es	-2.089396	1.066440	-0.336256	99
Es	-0.331157	-2.327503	0.749615	99
Es	1.598067	0.720065	0.984999	99
Es	0.302900	0.396381	-0.369168	99
Es	1.293137	0.636774	0.280652	99
Es	-0.916613	0.722297	-0.677269	99
Es	-0.810267	-1.209631	-0.336642	99
Es	2.259977	1.197467	1.114386	99
Es	2.348480	1.877173	1.091026	99
Es	2.408457	1.643792	1.610202	99
Es	0.150294	-1.830324	0.688620	99
Es	1.842359	1.448380	1.276370	99
Es	-0.589059	-1.532503	-0.977722	99
Es	-0.624937	-0.478467	-0.341020	99
Es	-1.369760	1.217599	-0.355405	99
Es	-1.554876	-1.307045	-0.265427	99
Es	-1.183821	1.929068	-0.372580	99
Es	-0.154128	-1.832341	0.755021	99
Es	1.141690	1.192179	-0.772679	99
Es	-0.414620	-1.611174	0.339685	99
Es	-0.263072	-1.702208	1.001009	99
Es	1.403798	0.029554	-0.737752	99
Es	-0.439592	0.245486	-0.351388	99
Es	1.033120	0.566258	-0.408784	99
Es	2.310892	1.664527	1.317752	99
Es	1.460610	0.157165	1.451887	99
42
Properties=species:S:1:pos:R:3:Z:I:1 energy=-343.80841372855036 field_type=dipole dipole="0.000000 0.000000 0.000000" charge=0
O	-0.153927	-1.832183	0.755257	8
C	-0.810397	-1.209563	-0.336823	6
C	-0.439708	0.245587	-0.351383	6
C	-1.369697	1.217536	-0.355383	6
C	1.033163	0.566297	-0.408833	6
C	1.598083	0.720037	0.985047	6
O	2.311092	1.664817	1.317807	8
H	-0.471707	-2.751283	0.782027	1
H	-1.889597	-1.356183	-0.223273	1
H	-0.488287	-1.693173	-1.264733	1
H	-2.432077	0.994036	-0.325743	1
H	-1.091328	2.267986	-0.376783	1
H	1.206283	1.499286	-0.957923	1
H	1.586723	-0.224073	-0.926123	1
H	1.411383	-0.109123	1.686857	1
Es	-0.328022	-2.330456	0.746556	99
Es	2.410550	1.650661	1.608876	99
Es	-0.265942	-1.711001	0.993937	99
Es	1.461564	0.156827	1.451246	99
Es	-0.154061	-1.832411	0.754899	99
Es	1.292281	0.636449	0.279469	99
Es	2.263047	1.195196	1.113824	99
Es	1.033121	0.566258	-0.408779	99
Es	0.302512	0.397134	-0.367777	99
Es	1.141771	1.192692	-0.771569	99
Es	-0.810262	-1.209635	-0.336643	99
Es	-2.089312	1.065822	-0.337230	99
Es	-0.904395	0.739013	-0.028698	99
Es	-0.418270	-1.607888	0.344075	99
Es	2.343186	1.872796	1.090761	99
Es	-0.439588	0.245481	-0.351388	99
Es	-0.589447	-1.532582	-0.976915	99
Es	-1.183266	1.929833	-0.371795	99
Es	1.404832	0.029001	-0.737873	99
Es	-1.554615	-1.307738	-0.265600	99
Es	-1.369762	1.217600	-0.355380	99
Es	0.153599	-1.821913	0.694067	99
Es	1.598070	0.720064	0.984998	99
Es	1.841590	1.448720	1.278856	99
Es	-0.625263	-0.478248	-0.341941	99
Es	-0.915917	0.722996	-0.675253	99
Es	2.310882	1.664480	1.317805	99
42
Properties=species:S:1:pos:R:3:Z:I:1 energy=-343.80841372855036 field_type=dipole dipole="0.000000 0.000000 0.000000" charge=0
O	-0.153927	-1.832183	0.755257	8
C	-0.810397	-1.209563	-0.336823	6
C	-0.439708	0.245587	-0.351383	6
C	-1.369697	1.217536	-0.355383	6
C	1.033163	0.566297	-0.408833	6
C	1.598083	0.720037	0.985047	6
O	2.311092	1.664817	1.317807	8
H	-0.471707	-2.751283	0.782027	1
H	-1.889597	-1.356183	-0.223273	1
H	-0.488287	-1.693173	-1.264733	1
H	-2.432077	0.994036	-0.325743	1
H	-1.091328	2.267986	-0.376783	1
H	1.206283	1.499286	-0.957923	1
H	1.586723	-0.224073	-0.926123	1
H	1.411383	-0.109123	1.686857	1
Es	2.345375	1.876612	1.096079	99
Es	-0.268732	-1.719718	0.986367	99
Es	1.405552	0.028555	-0.737972	99
Es	-1.554414	-1.308282	-0.265795	99
Es	-0.589595	-1.532508	-0.976403	99
Es	-2.089175	1.065321	-0.338267	99
Es	2.265997	1.194858	1.111151	99
Es	2.405661	1.646695	1.607810	99
Es	-0.324503	-2.332662	0.743482	99
Es	1.141714	1.192783	-0.770857	99
Es	0.156185	-1.814054	0.700501	99
Es	1.598070	0.720063	0.984997	99
Es	-1.182950	1.930325	-0.370905	99
Es	0.302355	0.397755	-0.366843	99
Es	1.840651	1.449494	1.277647	99
Es	-0.905231	0.738352	-0.029932	99
Es	1.033122	0.566257	-0.408783	99
Es	1.291610	0.636374	0.278827	99
Es	-0.810271	-1.209628	-0.336648	99
Es	2.310877	1.664512	1.317743	99
Es	-1.369762	1.217601	-0.355394	99
Es	-0.421557	-1.604913	0.347946	99
Es	-0.915158	0.723641	-0.673736	99
Es	1.462363	0.156721	1.450767	99
Es	-0.625623	-0.478073	-0.342802	99
Es	-0.439590	0.245485	-0.351386	99
Es	-0.154089	-1.832416	0.754932	99
42
Properties=species:S:1:pos:R:3:Z:I:1 energy=-343.80841372855036 field_type=dipole dipole="0.000000 0.000000 0.000000" charge=0
O	-0.153927	-1.832183	0.755257	8
C	-0.810397	-1.209563	-0.336823	6
C	-0.439708	0.245587	-0.351383	6
C	-1.369697	1.217536	-0.355383	6
C	1.033163	0.566297	-0.408833	6
C	1.598083	0.720037	0.985047	6
O	2.311092	1.664817	1.317807	8
H	-0.471707	-2.751283	0.782027	1
H	-1.889597	-1.356183	-0.223273	1
H	-0.488287	-1.693173	-1.264733	1
H	-2.432077	0.994036	-0.325743	1
H	-1.091328	2.267986	-0.376783	1
H	1.206283	1.499286	-0.957923	1
H	1.586723	-0.224073	-0.926123	1
H	1.411383	-0.109123	1.686857	1
Es	-1.182753	1.930682	-0.370213	99
Es	2.310843	1.664570	1.317598	99
Es	1.463000	0.156665	1.450473	99
Es	0.302145	0.398293	-0.366139	99
Es	1.033122	0.566257	-0.408781	99
Es	1.598075	0.720060	0.984995	99
Es	-2.089004	1.064968	-0.338874	99
Es	-1.554183	-1.308604	-0.265822	99
Es	-0.914631	0.724081	-0.672806	99
Es	2.266949	1.193326	1.111428	99
Es	0.157228	-1.808409	0.705855	99
Es	-0.269018	-1.727524	0.978822	99
Es	-0.439590	0.245484	-0.351381	99
Es	-0.625782	-0.477934	-0.343351	99
Es	-0.322032	-2.334432	0.741098	99
Es	1.290711	0.636080	0.277938	99
Es	-0.810269	-1.209630	-0.336643	99
Es	2.409884	1.654907	1.608020	99
Es	-0.154115	-1.832282	0.755079	99
Es	1.406284	0.028003	-0.737725	99
Es	-0.589829	-1.532619	-0.976024	99
Es	1.141933	1.193134	-0.770209	99
Es	-0.424837	-1.601151	0.352035	99
Es	1.840148	1.450427	1.279235	99
Es	2.340108	1.869254	1.094320	99
Es	-1.369762	1.217601	-0.355387	99
Es	-0.905738	0.737944	-0.031014	99
42
Properties=species:S:1:pos:R:3:Z:I:1 energy=-343.80841372855036 field_type=dipole dipole="0.000000 0.000000 0.000000" charge=0
O	-0.153927	-1.832183	0.755257	8
C	-0.810397	-1.209563	-0.336823	6
C	-0.439708	0.245587	-0.351383	6
C	-1.369697	1.217536	-0.355383	6
C	1.033163	0.566297	-0.408833	6
C	1.598083	0.720037	0.985047	6
O	2.311092	1.664817	1.317807	8
H	-0.471707	-2.751283	0.782027	1
H	-1.889597	-1.356183	-0.223273	1
H	-0.488287	-1.693173	-1.264733	1
H	-2.432077	0.994036	-0.325743	1
H	-1.091328	2.267986	-0.376783	1
H	1.206283	1.499286	-0.957923	1
H	1.586723	-0.224073	-0.926123	1
H	1.411383	-0.109123	1.686857	1
Es	1.598070	0.720063	0.984997	99
Es	2.336543	1.864524	1.093635	99
Es	-0.810271	-1.209629	-0.336647	99
Es	-1.182739	1.931006	-0.369602	99
Es	-0.906061	0.737820	-0.031625	99
Es	-0.626165	-0.477814	-0.343804	99
Es	-0.589858	-1.532799	-0.975965	99
Es	-1.369761	1.217601	-0.355396	99
Es	1.033121	0.566256	-0.408783	99
Es	-0.318104	-2.335703	0.736975	99
Es	1.142002	1.193515	-0.769722	99
Es	-0.914263	0.724231	-0.672282	99
Es	-1.553801	-1.308871	-0.265872	99
Es	0.160590	-1.798249	0.719556	99
Es	1.406698	0.027392	-0.737697	99
Es	0.302205	0.398768	-0.365798	99
Es	-0.439589	0.245484	-0.351391	99
Es	2.310918	1.664553	1.317748	99
Es	1.463460	0.156515	1.450203	99
Es	1.839859	1.450726	1.279524	99
Es	2.267938	1.192738	1.111244	99
Es	1.290142	0.635865	0.277256	99
Es	-0.273474	-1.739826	0.964851	99
Es	-2.088715	1.064728	-0.338889	99
Es	-0.427794	-1.597634	0.356308	99
Es	2.412063	1.660204	1.608646	99
Es	-0.154129	-1.832314	0.755056	99
42
Properties=species:S:1:pos:R:3:Z:I:1 energy=-343.80841372855036 field_type=dipole dipole="0.000000 0.000000 0.000000" charge=0
O	-0.153927	-1.832183	0.755257	8
C	-0.810397	-1.209563	-0.336823	6
C	-0.439708	0.245587	-0.351383	6
C	-1.369697	1.217536	-0.355383	6
C	1.033163	0.566297	-0.408833	6
C	1.598083	0.720037	0.985047	6
O	2.311092	1.664817	1.317807	8
H	-0.471707	-2.751283	0.782027	1
H	-1.889597	-1.356183	-0.223273	1
H	-0.488287	-1.693173	-1.264733	1
H	-2.432077	0.994036	-0.325743	1
H	-1.091328	2.267986	-0.376783	1
H	1.206283	1.499286	-0.957923	1
H	1.586723	-0.224073	-0.926123	1
H	1.411383	-0.109123	1.686857	1
Es	-0.914131	0.724404	-0.671760	99
Es	1.463791	0.156309	1.449983	99
Es	-2.088555	1.064499	-0.339176	99
Es	2.417794	1.672109	1.608685	99
Es	-0.626162	-0.477754	-0.343940	99
Es	-0.270801	-1.743498	0.959298	99
Es	-1.369763	1.217601	-0.355385	99
Es	1.142080	1.194122	-0.769290	99
Es	2.268534	1.191310	1.112946	99
Es	1.289777	0.635541	0.276469	99
Es	-0.317607	-2.336417	0.737286	99
Es	1.598066	0.720065	0.984998	99
Es	-0.906283	0.737649	-0.032309	99
Es	-0.439588	0.245482	-0.351394	99
Es	2.329616	1.854289	1.090548	99
Es	-1.553537	-1.308976	-0.265825	99
Es	1.406975	0.027039	-0.737564	99
Es	-1.182606	1.931264	-0.369333	99
Es	-0.590058	-1.532958	-0.975821	99
Es	1.840021	1.450719	1.280968	99
Es	1.033120	0.566257	-0.408783	99
Es	-0.154109	-1.832374	0.754988	99
Es	-0.810268	-1.209631	-0.336642	99
Es	-0.431453	-1.595663	0.360671	99
Es	0.302164	0.399019	-0.365118	99
Es	2.310889	1.664544	1.317718	99
Es	0.160978	-1.795797	0.720308	99
42
Properties=species:S:1:pos:R:3:Z:I:1 energy=-343.80841372855036 field_type=dipole dipole="0.000000 0.000000 0.000000" charge=0
O	-0.153927	-1.832183	0.755257	8
C	-0.810397	-1.209563	-0.336823	6
C	-0.439708	0.245587	-0.351383	6
C	-1.369697	1.217536	-0.355383	6
C	1.033163	0.566297	-0.408833	6
C	1.598083	0.720037	0.985047	6
O	2.311092	1.664817	1.317807	8
H	-0.471707	-2.751283	0.782027	1
H	-1.889597	-1.356183	-0.223273	1
H	-0.488287	-1.693173	-1.264733	1
H	-2.432077	0.994036	-0.325743	1
H	-1.091328	2.267986	-0.376783	1
H	1.206283	1.499286	-0.957923	1
H	1.586723	-0.224073	-0.926123	1
H	1.411383	-0.109123	1.686857	1
Es	1.289246	0.635242	0.275738	99
Es	-0.315419	-2.337335	0.735110	99
Es	1.598070	0.720062	0.984997	99
Es	1.033121	0.566258	-0.408783	99
Es	-1.553310	-1.309069	-0.265866	99
Es	-1.369761	1.217599	-0.355382	99
Es	0.302238	0.399107	-0.365034	99
Es	-1.182728	1.931509	-0.369368	99
Es	-0.270999	-1.750856	0.949286	99
Es	2.269023	1.189200	1.116267	99
Es	-0.626300	-0.477730	-0.343926	99
Es	1.407218	0.026600	-0.737241	99
Es	1.840599	1.450619	1.283131	99
Es	2.425408	1.689165	1.606447	99
Es	-0.433587	-1.592561	0.364627	99
Es	0.161164	-1.790694	0.728487	99
Es	-0.154196	-1.832331	0.755018	99
Es	-0.439593	0.245484	-0.351386	99
Es	-0.810269	-1.209631	-0.336641	99
Es	1.463988	0.156178	1.449969	99
Es	2.310850	1.664621	1.317465	99
Es	-2.088217	1.064465	-0.338993	99
Es	2.320669	1.839550	1.087494	99
Es	-0.906288	0.737739	-0.032317	99
Es	1.142243	1.194725	-0.769073	99
Es	-0.590119	-1.533015	-0.975767	99
Es	-0.914167	0.724251	-0.671732	99
42
Properties=species:S:1:pos:R:3:Z:I:1 energy=-343.80841372855036 field_type=dipole dipole="0.000000 0.000000 0.000000" charge=0
O	-0.153927	-1.832183	0.755257	8
C	-0.810397	-1.209563	-0.336823	6
C	-0.439708	0.245587	-0.351383	6
C	-1.369697	1.217536	-0.355383	6
C	1.033163	0.566297	-0.408833	6
C	1.598083	0.720037	0.985047	6
O	2.311092	1.664817	1.317807	8
H	-0.471707	-2.751283	0.782027	1
H	-1.889597	-1.356183	-0.223273	1
H	-0.488287	-1.693173	-1.264733	1
H	-2.432077	0.994036	-0.325743	1
H	-1.091328	2.267986	-0.376783	1
H	1.206283	1.499286	-0.957923	1
H	1.586723	-0.224073	-0.926123	1
H	1.411383	-0.109123	1.686857	1
Es	1.598070	0.720065	0.984998	99
Es	-0.810270	-1.209631	-0.336640	99
Es	0.302294	0.399312	-0.364910	99
Es	2.269036	1.187787	1.118789	99
Es	1.407218	0.026229	-0.737190	99
Es	1.464044	0.155988	1.449917	99
Es	2.310898	1.664497	1.317793	99
Es	-0.270140	-1.755707	0.941571	99
Es	-0.154062	-1.832453	0.754952	99
Es	-1.369762	1.217600	-0.355386	99
Es	1.142472	1.195303	-0.768701	99
Es	-0.906296	0.737775	-0.032241	99
Es	2.316131	1.829986	1.086202	99
Es	1.033121	0.566257	-0.408782	99
Es	-1.553076	-1.308990	-0.265754	99
Es	1.840743	1.451156	1.283607	99
Es	-0.590244	-1.533229	-0.975872	99
Es	-0.626233	-0.477759	-0.343890	99
Es	-2.088011	1.064458	-0.338933	99
Es	2.429459	1.699879	1.604420	99
Es	1.288957	0.634866	0.275220	99
Es	-0.436304	-1.590633	0.368442	99
Es	0.161150	-1.787046	0.733168	99
Es	-1.182814	1.931641	-0.369394	99
Es	-0.313739	-2.337909	0.734365	99
Es	-0.914168	0.724226	-0.671843	99
Es	-0.439588	0.245483	-0.351384	99
42
Properties=species:S:1:pos:R:3:Z:I:1 energy=-343.80841372855036 field_type=dipole dipole="0.000000 0.000000 0.000000" charge=0
O	-0.153927	-1.832183	0.755257	8
C	-0.810397	-1.209563	-0.336823	6
C	-0.439708	0.245587	-0.351383	6
C	-1.369697	1.217536	-0.355383	6
C	1.033163	0.566297	-0.408833	6
C	1.598083	0.720037	0.985047	6
O	2.311092	1.664817	1.317807	8
H	-0.471707	-2.751283	0.782027	1
H	-1.889597	-1.356183	-0.223273	1
H	-0.488287	-1.693173	-1.264733	1
H	-2.432077	0.994036	-0.325743	1
H	-1.091328	2.267986	-0.376783	1
H	1.206283	1.499286	-0.957923	1
H	1.586723	-0.224073	-0.926123	1
H	1.411383	-0.109123	1.686857	1
Es	-0.914362	0.724200	-0.671785	99
Es	2.434458	1.714650	1.600291	99
Es	2.310794	1.664243	1.317922	99
Es	1.598074	0.720061	0.984995	99
Es	1.033121	0.566257	-0.408782	99
Es	-1.553034	-1.309224	-0.265957	99
Es	-0.154183	-1.832354	0.755027	99
Es	-0.810270	-1.209630	-0.336642	99
Es	1.407567	0.025994	-0.736612	99
Es	0.160377	-1.787876	0.734723	99
Es	-0.439589	0.245484	-0.351384	99
Es	-0.590277	-1.533081	-0.975506	99
Es	-0.435821	-1.588823	0.368656	99
Es	-2.087821	1.064394	-0.338917	99
Es	-0.906070	0.737842	-0.032390	99
Es	-0.269709	-1.756720	0.940080	99
Es	-0.626179	-0.477745	-0.343705	99
Es	1.142324	1.195745	-0.768906	99
Es	-0.313762	-2.338066	0.734015	99
Es	1.839898	1.451932	1.283367	99
Es	-1.369764	1.217602	-0.355383	99
Es	2.269989	1.186606	1.121659	99
Es	2.310839	1.816034	1.087511	99
Es	-1.182886	1.931816	-0.369779	99
Es	0.302356	0.399035	-0.364556	99
Es	1.464197	0.155731	1.449859	99
Es	1.288616	0.635045	0.274723	99
42
Properties=species:S:1:pos:R:3:Z:I:1 energy=-343.80841372855036 field_type=dipole dipole="0.000000 0.000000 0.000000" charge=0
O	-0.153927	-1.832183	0.755257	8
C	-0.810397	-1.209563	-0.336823	6
C	-0.439708	0.245587	-0.351383	6
C	-1.369697	1.217536	-0.355383	6
C	1.033163	0.566297	-0.408833	6
C	1.598083	0.720037	0.985047	6
O	2.311092	1.664817	1.317807	8
H	-0.471707	-2.751283	0.782027	1
H	-1.889597	-1.356183	-0.223273	1
H	-0.488287	-1.693173	-1.264733	1
H	-2.432077	0.994036	-0.325743	1
H	-1.091328	2.267986	-0.376783	1
H	1.206283	1.499286	-0.957923	1
H	1.586723	-0.224073	-0.926123	1
H	1.411383	-0.109123	1.686857	1
Es	1.464301	0.155483	1.449850	99
Es	-1.552761	-1.309242	-0.266037	99
Es	1.407520	0.025728	-0.736360	99
Es	1.839448	1.452326	1.284613	99
Es	2.442797	1.735684	1.592248	99
Es	2.302645	1.795949	1.089807	99
Es	-0.626165	-0.477676	-0.343313	99
Es	-0.590565	-1.532881	-0.975373	99
Es	1.142362	1.196523	-0.768803	99
Es	-1.183221	1.931980	-0.370450	99
Es	0.302590	0.398846	-0.364143	99
Es	-0.439588	0.245482	-0.351386	99
Es	-2.087470	1.064361	-0.339293	99
Es	-0.810269	-1.209630	-0.336642	99
Es	1.033120	0.566256	-0.408781	99
Es	2.269984	1.185188	1.126181	99
Es	-0.267302	-1.753707	0.942446	99
Es	0.159279	-1.791148	0.730204	99
Es	-0.435666	-1.588648	0.368099	99
Es	-0.905935	0.737849	-0.031749	99
Es	-0.154082	-1.832381	0.755082	99
Es	-0.914522	0.724217	-0.672100	99
Es	2.310874	1.664443	1.317816	99
Es	-0.315108	-2.338264	0.736812	99
Es	1.598075	0.720060	0.984995	99
Es	-1.369763	1.217601	-0.355389	99
Es	1.288305	0.634752	0.274193	99
42
Properties=species:S:1:pos:R:3:Z:I:1 energy=-343.80841372855036 field_type=dipole dipole="0.000000 0.000000 0.000000" charge=0
O	-0.153927	-1.832183	0.755257	8
C	-0.810397	-1.209563	-0.336823	6
C	-0.439708	0.245587	-0.351383	6
C	-1.369697	1.217536	-0.355383	6
C	1.033163	0.566297	-0.408833	6
C	1.598083	0.720037	0.985047	6
O	2.311092	1.664817	1.317807	8
H	-0.471707	-2.751283	0.782027	1
H	-1.889597	-1.356183	-0.223273	1
H	-0.488287	-1.693173	-1.264733	1
H	-2.432077	0.994036	-0.325743	1
H	-1.091328	2.267986	-0.376783	1
H	1.206283	1.499286	-0.957923	1
H	1.586723	-0.224073	-0.926123	1
H	1.411383	-0.109123	1.686857	1
Es	1.840228	1.450927	1.285837	99
Es	-2.087422	1.064373	-0.339262	99
Es	1.598079	0.720060	0.984994	99
Es	2.299793	1.792767	1.089981	99
Es	1.033121	0.566257	-0.408782	99
Es	1.142356	1.196651	-0.768713	99
Es	-0.313420	-2.338652	0.735653	99
Es	-0.436518	-1.588316	0.369404	99
Es	0.302600	0.398871	-0.363911	99
Es	-0.914453	0.724265	-0.672226	99
Es	-1.552734	-1.309266	-0.266031	99
Es	-0.626208	-0.477708	-0.343258	99
Es	-0.439590	0.245484	-0.351382	99
Es	-0.905921	0.737841	-0.031792	99
Es	2.443624	1.740477	1.589963	99
Es	-0.810271	-1.209630	-0.336644	99
Es	-1.183261	1.931996	-0.370476	99
Es	1.464349	0.155450	1.449815	99
Es	1.288219	0.634692	0.274080	99
Es	-1.369763	1.217602	-0.355387	99
Es	-0.154054	-1.832369	0.754932	99
Es	2.310878	1.664548	1.317686	99
Es	-0.267859	-1.756423	0.938917	99
Es	2.271172	1.184888	1.127184	99
Es	-0.590594	-1.532821	-0.975385	99
Es	0.159019	-1.788441	0.733691	99
Es	1.407516	0.025629	-0.736364	99
42
Properties=species:S:1:pos:R:3:Z:I:1 energy=-343.80841372855036 field_type=dipole dipole="0.000000 0.000000 0.000000" charge=0
O	-0.153927	-1.832183	0.755257	8
C	-0.810397	-1.209563	-0.336823	6
C	-0.439708	0.245587	-0.351383	6
C	-1.369697	1.217536	-0.355383	6
C	1.033163	0.566297	-0.408833	6
C	1.598083	0.720037	0.985047	6
O	2.311092	1.664817	1.317807	8
H	-0.471707	-2.751283	0.782027	1
H	-1.889597	-1.356183	-0.223273	1
H	-0.488287	-1.693173	-1.264733	1
H	-2.432077	0.994036	-0.325743	1
H	-1.091328	2.267986	-0.376783	1
H	1.206283	1.499286	-0.957923	1
H	1.586723	-0.224073	-0.926123	1
H	1.411383	-0.109123	1.686857	1
Es	1.840513	1.451500	1.286407	99
Es	1.598071	0.720066	0.985001	99
Es	2.303087	1.803226	1.088835	99
Es	-0.310903	-2.338899	0.733071	99
Es	-1.369765	1.217601	-0.355385	99
Es	2.440952	1.729092	1.594336	99
Es	0.160053	-1.781690	0.744225	99
Es	2.310866	1.664400	1.317880	99
Es	-0.439225	-1.586503	0.373835	99
Es	-0.268858	-1.764482	0.926373	99
Es	1.142296	1.196599	-0.768424	99
Es	-1.552508	-1.309197	-0.265846	99
Es	-2.087392	1.064408	-0.338850	99
Es	2.269989	1.185464	1.123382	99
Es	1.033118	0.566255	-0.408781	99
Es	-0.906176	0.737920	-0.032000	99
Es	-0.439590	0.245483	-0.351387	99
Es	1.407644	0.025406	-0.736585	99
Es	-1.183107	1.932040	-0.369843	99
Es	-0.810269	-1.209630	-0.336643	99
Es	-0.590534	-1.533212	-0.975684	99
Es	-0.914349	0.724070	-0.671986	99
Es	1.464540	0.155560	1.449690	99
Es	-0.626288	-0.477722	-0.343614	99
Es	1.288157	0.634540	0.273842	99
Es	-0.154096	-1.832383	0.754991	99
Es	0.302660	0.399239	-0.364315	99
42
Properties=species:S:1:pos:R:3:Z:I:1 energy=-343.80841372855036 field_type=dipole dipole="0.000000 0.000000 0.000000" charge=0
O	-0.153927	-1.832183	0.755257	8
C	-0.810397	-1.209563	-0.336823	6
C	-0.439708	0.245587	-0.351383	6
C	-1.369697	1.217536	-0.355383	6
C	1.033163	0.566297	-0.408833	6
C	1.598083	0.720037	0.985047	6
O	2.311092	1.664817	1.317807	8
H	-0.471707	-2.751283	0.782027	1
H	-1.889597	-1.356183	-0.223273	1
H	-0.488287	-1.693173	-1.264733	1
H	-2.432077	0.994036	-0.325743	1
H	-1.091328	2.267986	-0.376783	1
H	1.206283	1.499286	-0.957923	1
H	1.586723	-0.224073	-0.926123	1
H	1.411383	-0.109123	1.686857	1
Es	1.840196	1.452026	1.285356	99
Es	-0.590688	-1.532818	-0.975321	99
Es	-1.552575	-1.309285	-0.266074	99
Es	-0.626165	-0.477740	-0.343149	99
Es	-1.369762	1.217600	-0.355392	99
Es	2.270392	1.184101	1.128647	99
Es	-0.438935	-1.586532	0.373271	99
Es	-0.810271	-1.209629	-0.336648	99
Es	2.310861	1.664359	1.317951	99
Es	-0.266103	-1.758832	0.934883	99
Es	-0.914498	0.724275	-0.672266	99
Es	1.288022	0.634606	0.273845	99
Es	1.142231	1.196966	-0.768728	99
Es	1.464606	0.155348	1.449742	99
Es	-0.439588	0.245483	-0.351383	99
Es	1.033122	0.566257	-0.408781	99
Es	-0.154083	-1.832368	0.755053	99
Es	-1.183293	1.932117	-0.370616	99
Es	2.297909	1.785521	1.092170	99
Es	1.598077	0.720060	0.984994	99
Es	-0.312373	-2.338921	0.735332	99
Es	0.302746	0.398838	-0.363743	99
Es	-0.905966	0.737779	-0.031638	99
Es	1.407569	0.025405	-0.736214	99
Es	2.445967	1.747740	1.586625	99
Es	0.158672	-1.787626	0.734082	99
Es	-2.087185	1.064420	-0.339474	99
42
Properties=species:S:1:pos:R:3:Z:I:1 energy=-343.80841372855036 field_type=dipole dipole="0.000000 0.000000 0.000000" charge=0
O	-0.153927	-1.832183	0.755257	8
C	-0.810397	-1.209563	-0.336823	6
C	-0.439708	0.245587	-0.351383	6
C	-1.369697	1.217536	-0.355383	6
C	1.033163	0.566297	-0.408833	6
C	1.598083	0.720037	0.985047	6
O	2.311092	1.664817	1.317807	8
H	-0.471707	-2.751283	0.782027	1
H	-1.889597	-1.356183	-0.223273	1
H	-0.488287	-1.693173	-1.264733	1
H	-2.432077	0.994036	-0.325743	1
H	-1.091328	2.267986	-0.376783	1
H	1.206283	1.499286	-0.957923	1
H	1.586723	-0.224073	-0.926123	1
H	1.411383	-0.109123	1.686857	1
Es	2.271137	1.184360	1.127054	99
Es	-0.439589	0.245484	-0.351386	99
Es	-0.590643	-1.533121	-0.975638	99
Es	1.464566	0.155323	1.449683	99
Es	1.142322	1.196857	-0.768529	99
Es	-0.914526	0.724108	-0.672250	99
Es	1.598074	0.720061	0.984996	99
Es	-0.154209	-1.832328	0.755044	99
Es	2.310840	1.664356	1.317861	99
Es	1.033121	0.566256	-0.408781	99
Es	1.840073	1.452123	1.284443	99
Es	-0.439886	-1.585329	0.375565	99
Es	-0.626270	-0.477695	-0.343382	99
Es	0.302697	0.399147	-0.364092	99
Es	2.442561	1.740878	1.590222	99
Es	2.300622	1.792087	1.091187	99
Es	-1.369763	1.217601	-0.355387	99
Es	1.288072	0.634604	0.273739	99
Es	-1.552322	-1.309197	-0.265942	99
Es	-0.810269	-1.209630	-0.336642	99
Es	-0.310840	-2.339164	0.733344	99
Es	0.159513	-1.781709	0.745016	99
Es	-0.905947	0.737938	-0.031827	99
Es	-0.267571	-1.765603	0.923604	99
Es	-2.087150	1.064374	-0.338877	99
Es	-1.183328	1.932168	-0.370155	99
Es	1.407598	0.025202	-0.736345	99
42
Properties=species:S:1:pos:R:3:Z:I:1 energy=-343.80841372855036 field_type=dipole dipole="0.000000 0.000000 0.000000" charge=0
O	-0.153927	-1.832183	0.755257	8
C	-0.810397	-1.209563	-0.336823	6
C	-0.439708	0.245587	-0.351383	6
C	-1.369697	1.217536	-0.355383	6
C	1.033163	0.566297	-0.408833	6
C	1.598083	0.720037	0.985047	6
O	2.311092	1.664817	1.317807	8
H	-0.471707	-2.751283	0.782027	1
H	-1.889597	-1.356183	-0.223273	1
H	-0.488287	-1.693173	-1.264733	1
H	-2.432077	0.994036	-0.325743	1
H	-1.091328	2.267986	-0.376783	1
H	1.206283	1.499286	-0.957923	1
H	1.586723	-0.224073	-0.926123	1
H	1.411383	-0.109123	1.686857	1
Es	-0.810269	-1.209630	-0.336642	99
Es	-2.087073	1.064330	-0.339087	99
Es	1.287854	0.634253	0.273375	99
Es	1.598077	0.720059	0.984994	99
Es	1.033120	0.566257	-0.408781	99
Es	-0.310614	-2.339180	0.732852	99
Es	2.441654	1.739342	1.591691	99
Es	-0.154108	-1.832390	0.754990	99
Es	2.300579	1.793757	1.091364	99
Es	2.272123	1.185361	1.125866	99
Es	-0.906112	0.737861	-0.031890	99
Es	1.407666	0.025084	-0.736451	99
Es	0.302713	0.399251	-0.363913	99
Es	-1.183332	1.932220	-0.370023	99
Es	-0.590636	-1.533087	-0.975534	99
Es	-0.440754	-1.584355	0.377519	99
Es	-0.266979	-1.767013	0.921057	99
Es	-0.626465	-0.477645	-0.343527	99
Es	-0.914276	0.724236	-0.672128	99
Es	-0.439587	0.245482	-0.351395	99
Es	-1.552297	-1.309355	-0.265962	99
Es	1.142460	1.197087	-0.768081	99
Es	2.310886	1.664479	1.317797	99
Es	-1.369763	1.217601	-0.355379	99
Es	1.464663	0.155370	1.449679	99
Es	1.839858	1.450929	1.284057	99
Es	0.159496	-1.781152	0.746079	99
42
Properties=species:S:1:pos:R:3:Z:I:1 energy=-343.80841372855036 field_type=dipole dipole="0.000000 0.000000 0.000000" charge=0
O	-0.153927	-1.832183	0.755257	8
C	-0.810397	-1.209563	-0.336823	6
C	-0.439708	0.245587	-0.351383	6
C	-1.369697	1.217536	-0.355383	6
C	1.033163	0.566297	-0.408833	6
C	1.598083	0.720037	0.985047	6
O	2.311092	1.664817	1.317807	8
H	-0.471707	-2.751283	0.782027	1
H	-1.889597	-1.356183	-0.223273	1
H	-0.488287	-1.693173	-1.264733	1
H	-2.432077	0.994036	-0.325743	1
H	-1.091328	2.267986	-0.376783	1
H	1.206283	1.499286	-0.957923	1
H	1.586723	-0.224073	-0.926123	1
H	1.411383	-0.109123	1.686857	1
Es	1.033122	0.566257	-0.408781	99
Es	1.142389	1.197179	-0.768051	99
Es	-0.810269	-1.209631	-0.336640	99
Es	-0.590564	-1.533157	-0.975485	99
Es	2.444322	1.743367	1.588808	99
Es	1.598081	0.720056	0.984991	99
Es	1.464761	0.155235	1.449616	99
Es	2.310881	1.664454	1.317840	99
Es	0.158827	-1.779927	0.747546	99
Es	-0.440938	-1.584444	0.377486	99
Es	-2.086976	1.064440	-0.339115	99
Es	1.407754	0.025010	-0.736388	99
Es	-0.906192	0.737846	-0.031548	99
Es	-0.154064	-1.832385	0.754993	99
Es	-0.626265	-0.477653	-0.343452	99
Es	-0.309568	-2.339561	0.732756	99
Es	-1.183377	1.932220	-0.370150	99
Es	-0.439589	0.245482	-0.351385	99
Es	-0.914354	0.724153	-0.672406	99
Es	-1.369763	1.217602	-0.355387	99
Es	1.287846	0.634342	0.273081	99
Es	0.302704	0.399211	-0.363751	99
Es	2.299135	1.789460	1.092102	99
Es	-0.267294	-1.767713	0.919802	99
Es	-1.552336	-1.309321	-0.266032	99
Es	1.840512	1.452682	1.285269	99
Es	2.270102	1.183949	1.126807	99
42
Properties=species:S:1:pos:R:3:Z:I:1 energy=-343.80841372855036 field_type=dipole dipole="0.000000 0.000000 0.000000" charge=0
O	-0.153927	-1.832183	0.755257	8
C	-0.810397	-1.209563	-0.336823	6
C	-0.439708	0.245587	-0.351383	6
C	-1.369697	1.217536	-0.355383	6
C	1.033163	0.566297	-0.408833	6
C	1.598083	0.720037	0.985047	6
O	2.311092	1.664817	1.317807	8
H	-0.471707	-2.751283	0.782027	1
H	-1.889597	-1.356183	-0.223273	1
H	-0.488287	-1.693173	-1.264733	1
H	-2.432077	0.994036	-0.325743	1
H	-1.091328	2.267986	-0.376783	1
H	1.206283	1.499286	-0.957923	1
H	1.586723	-0.224073	-0.926123	1
H	1.411383	-0.109123	1.686857	1
Es	-0.439589	0.245484	-0.351384	99
Es	-0.626139	-0.477659	-0.342862	99
Es	2.310897	1.664554	1.317720	99
Es	-1.552165	-1.309186	-0.265989	99
Es	-0.905813	0.737878	-0.031130	99
Es	-0.914662	0.724230	-0.672841	99
Es	1.033122	0.566257	-0.408783	99
Es	0.302835	0.398910	-0.363382	99
Es	-0.590901	-1.532967	-0.975446	99
Es	-2.086818	1.064439	-0.339385	99
Es	-1.369763	1.217601	-0.355387	99
Es	1.288071	0.634650	0.273566	99
Es	1.407482	0.024974	-0.736123	99
Es	-0.266656	-1.763422	0.926107	99
Es	1.464729	0.155133	1.449690	99
Es	2.448937	1.762292	1.578490	99
Es	0.157855	-1.783920	0.742556	99
Es	1.598075	0.720060	0.984995	99
Es	-0.310470	-2.339438	0.735139	99
Es	-0.439483	-1.585048	0.374082	99
Es	-1.183640	1.932257	-0.370947	99
Es	1.839942	1.452706	1.285261	99
Es	1.142163	1.197180	-0.768853	99
Es	2.271720	1.182686	1.131858	99
Es	2.293463	1.771662	1.097404	99
Es	-0.154037	-1.832533	0.754812	99
Es	-0.810269	-1.209630	-0.336642	99
42
Properties=species:S:1:pos:R:3:Z:I:1 energy=-343.80841372855036 field_type=dipole dipole="0.000000 0.000000 0.000000" charge=0
O	-0.153927	-1.832183	0.755257	8
C	-0.810397	-1.209563	-0.336823	6
C	-0.439708	0.245587	-0.351383	6
C	-1.369697	1.217536	-0.355383	6
C	1.033163	0.566297	-0.408833	6
C	1.598083	0.720037	0.985047	6
O	2.311092	1.664817	1.317807	8
H	-0.471707	-2.751283	0.782027	1
H	-1.889597	-1.356183	-0.223273	1
H	-0.488287	-1.693173	-1.264733	1
H	-2.432077	0.994036	-0.325743	1
H	-1.091328	2.267986	-0.376783	1
H	1.206283	1.499286	-0.957923	1
H	1.586723	-0.224073	-0.926123	1
H	1.411383	-0.109123	1.686857	1
Es	1.407474	0.025112	-0.736228	99
Es	0.157225	-1.785557	0.740049	99
Es	-1.552051	-1.309128	-0.265980	99
Es	-1.369762	1.217601	-0.355384	99
Es	2.291366	1.764804	1.100218	99
Es	2.271366	1.181996	1.133381	99
Es	-0.310713	-2.339609	0.736071	99
Es	2.310888	1.664528	1.317743	99
Es	1.598077	0.720060	0.984995	99
Es	-0.905813	0.737798	-0.030786	99
Es	1.141911	1.197301	-0.768857	99
Es	-0.626160	-0.477640	-0.342691	99
Es	-0.914625	0.724346	-0.672963	99
Es	2.451544	1.769069	1.573493	99
Es	-0.438861	-1.585258	0.373046	99
Es	-2.086710	1.064436	-0.339754	99
Es	-0.266258	-1.761683	0.928580	99
Es	-0.154068	-1.832429	0.754994	99
Es	0.302919	0.398654	-0.363145	99
Es	-0.591041	-1.532857	-0.975466	99
Es	-0.810270	-1.209630	-0.336646	99
Es	1.033121	0.566257	-0.408782	99
Es	1.288149	0.634616	0.273665	99
Es	1.464870	0.155083	1.449662	99
Es	-0.439589	0.245483	-0.351383	99
Es	1.839676	1.453537	1.285927	99
Es	-1.183780	1.932260	-0.371230	99
42
Properties=species:S:1:pos:R:3:Z:I:1 energy=-343.80841372855036 field_type=dipole dipole="0.000000 0.000000 0.000000" charge=0
O	-0.153927	-1.832183	0.755257	8
C	-0.810397	-1.209563	-0.336823	6
C	-0.439708	0.245587	-0.351383	6
C	-1.369697	1.217536	-0.355383	6
C	1.033163	0.566297	-0.408833	6
C	1.598083	0.720037	0.985047	6
O	2.311092	1.664817	1.317807	8
H	-0.471707	-2.751283	0.782027	1
H	-1.889597	-1.356183	-0.223273	1
H	-0.488287	-1.693173	-1.264733	1
H	-2.432077	0.994036	-0.325743	1
H	-1.091328	2.267986	-0.376783	1
H	1.206283	1.499286	-0.957923	1