42
Properties=species:S:1:pos:R:3:Z:I:1 energy=-343.76905331059584 field_type=dipole dipole="0.000000 0.000000 0.000000" charge=0
O	-0.501364	-1.993115	0.375594	8
C	-0.704113	-1.106555	-0.723056	6
C	-0.156304	0.297605	-0.427836	6
C	-0.704364	0.832065	0.904814	6
O	-0.450773	2.232075	1.037104	8
C	1.287696	0.297605	-0.427836	6
C	2.477857	0.297605	-0.427836	6
H	-0.755274	-2.883525	0.075874	1
H	-1.782594	-1.055965	-0.909506	1
H	-0.224103	-1.538195	-1.609206	1
H	-0.489434	0.965605	-1.232966	1
H	-0.267223	0.322915	1.770644	1
H	-1.790524	0.702455	0.948224	1
H	0.516716	2.338634	1.072384	1
H	3.543797	0.290795	-0.426396	1
Es	0.070299	2.268785	1.053012	99
Es	1.897147	0.038782	-0.183731	99
Es	-0.404767	0.548260	0.221836	99
Es	-0.405629	-0.401204	-0.563195	99
Es	2.478122	0.297610	-0.427834	99
Es	-0.645292	-2.463319	0.194495	99
Es	-0.556955	2.310459	1.312176	99
Es	-0.521406	1.695991	0.981134	99
Es	-0.501490	-1.993206	0.375338	99
Es	-0.546323	2.364791	0.774436	99
Es	-0.704282	0.832287	0.904745	99
Es	3.173888	0.294261	-0.427196	99
Es	-0.375608	-1.395841	-1.336764	99
Es	-0.370271	0.736541	-0.967480	99
Es	-0.704050	-1.106644	-0.722851	99
Es	-0.201019	-2.000516	0.425295	99
Es	-0.399491	0.477140	1.485076	99
Es	1.890155	0.646330	-0.317744	99
Es	-0.582769	-1.671930	-0.053174	99
Es	1.287433	0.297612	-0.427832	99
Es	0.595106	0.295076	-0.423240	99
Es	-1.448164	-1.059742	-0.856017	99
Es	-0.156198	0.297552	-0.427825	99
Es	-1.445711	0.738908	0.921536	99
Es	-0.702698	-1.908767	0.590890	99
Es	1.892790	0.223952	-0.777660	99
Es	-0.450508	2.231796	1.037123	99
42
Properties=species:S:1:pos:R:3:Z:I:1 energy=-343.76905331059584 field_type=dipole dipole="0.000000 0.000000 0.000000" charge=0
O	-0.501364	-1.993115	0.375594	8
C	-0.704113	-1.106555	-0.723056	6
C	-0.156304	0.297605	-0.427836	6
C	-0.704364	0.832065	0.904814	6
O	-0.450773	2.232075	1.037104	8
C	1.287696	0.297605	-0.427836	6
C	2.477857	0.297605	-0.427836	6
H	-0.755274	-2.883525	0.075874	1
H	-1.782594	-1.055965	-0.909506	1
H	-0.224103	-1.538195	-1.609206	1
H	-0.489434	0.965605	-1.232966	1
H	-0.267223	0.322915	1.770644	1
H	-1.790524	0.702455	0.948224	1
H	0.516716	2.338634	1.072384	1
H	3.543797	0.290795	-0.426396	1
Es	-0.404530	0.548625	0.221250	99
Es	0.597650	0.295311	-0.423624	99
Es	-0.707375	-1.910333	0.580545	99
Es	-0.398427	0.478349	1.483108	99
Es	-1.450554	-1.059611	-0.857098	99
Es	-0.501527	-1.993193	0.375269	99
Es	2.478136	0.297625	-0.427849	99
Es	-0.156199	0.297552	-0.427825	99
Es	0.076906	2.271867	1.054113	99
Es	1.890041	0.649109	-0.332463	99
Es	-0.651530	-2.457001	0.193615	99
Es	-0.704052	-1.106642	-0.722855	99
Es	3.175584	0.295109	-0.427116	99
Es	-1.448621	0.737734	0.921674	99
Es	-0.406172	-0.401133	-0.563231	99
Es	-0.704291	0.832281	0.904746	99
Es	1.892464	0.208699	-0.767498	99
Es	-0.450581	2.231905	1.037075	99
Es	-0.561046	2.311710	1.305004	99
Es	-0.524366	1.697277	0.982742	99
Es	-0.371405	0.734840	-0.965005	99
Es	-0.374874	-1.395224	-1.334779	99
Es	1.287420	0.297600	-0.427843	99
Es	-0.185529	-1.999851	0.432420	99
Es	1.897363	0.050864	-0.178998	99
Es	-0.545173	2.358353	0.778859	99
Es	-0.587003	-1.676859	-0.049689	99
42
Properties=species:S:1:pos:R:3:Z:I:1 energy=-343.76905331059584 field_type=dipole dipole="0.000000 0.000000 0.000000" charge=0
O	-0.501364	-1.993115	0.375594	8
C	-0.704113	-1.106555	-0.723056	6
C	-0.156304	0.297605	-0.427836	6
C	-0.704364	0.832065	0.904814	6
O	-0.450773	2.232075	1.037104	8
C	1.287696	0.297605	-0.427836	6
C	2.477857	0.297605	-0.427836	6
H	-0.755274	-2.883525	0.075874	1
H	-1.782594	-1.055965	-0.909506	1
H	-0.224103	-1.538195	-1.609206	1
H	-0.489434	0.965605	-1.232966	1
H	-0.267223	0.322915	1.770644	1
H	-1.790524	0.702455	0.948224	1
H	0.516716	2.338634	1.072384	1
H	3.543797	0.290795	-0.426396	1
Es	0.598964	0.295470	-0.423725	99
Es	3.176262	0.295368	-0.427132	99
Es	1.889342	0.636038	-0.297246	99
Es	-0.704053	-1.106642	-0.722857	99
Es	1.896876	0.025146	-0.209935	99
Es	-1.450008	0.737036	0.921789	99
Es	-0.404515	0.548774	0.220822	99
Es	-0.177155	-2.000295	0.430562	99
Es	-0.526115	1.698246	0.980644	99
Es	-0.374464	-1.394808	-1.333647	99
Es	-0.708318	-1.908961	0.577989	99
Es	-1.451756	-1.059514	-0.857662	99
Es	-0.156199	0.297552	-0.427824	99
Es	-0.589618	-1.681731	-0.046067	99
Es	-0.406655	-0.401066	-0.563350	99
Es	1.893603	0.247388	-0.771632	99
Es	-0.548683	2.359580	0.784742	99
Es	-0.397789	0.479001	1.481882	99
Es	0.079744	2.273512	1.051655	99
Es	1.287421	0.297608	-0.427837	99
Es	-0.371800	0.733957	-0.963423	99
Es	-0.656253	-2.452711	0.193898	99
Es	-0.501458	-1.993158	0.375313	99
Es	-0.558412	2.307479	1.303503	99
Es	-0.704285	0.832288	0.904744	99
Es	-0.450498	2.231793	1.037176	99
Es	2.478133	0.297612	-0.427836	99
42
Properties=species:S:1:pos:R:3:Z:I:1 energy=-343.76905331059584 field_type=dipole dipole="0.000000 0.000000 0.000000" charge=0
O	-0.501364	-1.993115	0.375594	8
C	-0.704113	-1.106555	-0.723056	6
C	-0.156304	0.297605	-0.427836	6
C	-0.704364	0.832065	0.904814	6
O	-0.450773	2.232075	1.037104	8
C	1.287696	0.297605	-0.427836	6
C	2.477857	0.297605	-0.427836	6
H	-0.755274	-2.883525	0.075874	1
H	-1.782594	-1.055965	-0.909506	1
H	-0.224103	-1.538195	-1.609206	1
H	-0.489434	0.965605	-1.232966	1
H	-0.267223	0.322915	1.770644	1
H	-1.790524	0.702455	0.948224	1
H	0.516716	2.338634	1.072384	1
H	3.543797	0.290795	-0.426396	1
Es	-0.156199	0.297553	-0.427826	99
Es	-0.406906	-0.401019	-0.563320	99
Es	2.478136	0.297613	-0.427838	99
Es	-0.704288	0.832284	0.904743	99
Es	1.892819	0.220385	-0.764020	99
Es	-0.704051	-1.106643	-0.722850	99
Es	-0.591967	-1.684681	-0.043603	99
Es	-0.527703	1.698955	0.981601	99
Es	-0.658338	-2.449199	0.194211	99
Es	-0.374401	-1.394620	-1.332822	99
Es	-1.450829	0.736641	0.921950	99
Es	-1.452503	-1.059462	-0.857921	99
Es	-0.397523	0.479531	1.480990	99
Es	1.287418	0.297611	-0.427836	99
Es	1.889797	0.644083	-0.324344	99
Es	-0.501453	-1.993208	0.375343	99
Es	1.897146	0.044055	-0.190185	99
Es	-0.171948	-2.000288	0.429213	99
Es	3.176653	0.295453	-0.427405	99
Es	-0.709010	-1.909146	0.576058	99
Es	-0.371965	0.733205	-0.962266	99
Es	-0.561203	2.310161	1.300748	99
Es	-0.450493	2.231814	1.036921	99
Es	0.081298	2.273275	1.052665	99
Es	-0.404335	0.548938	0.220315	99
Es	-0.545644	2.355984	0.785759	99
Es	0.599802	0.295688	-0.423735	99
42
Properties=species:S:1:pos:R:3:Z:I:1 energy=-343.76905331059584 field_type=dipole dipole="0.000000 0.000000 0.000000" charge=0
O	-0.501364	-1.993115	0.375594	8
C	-0.704113	-1.106555	-0.723056	6
C	-0.156304	0.297605	-0.427836	6
C	-0.704364	0.832065	0.904814	6
O	-0.450773	2.232075	1.037104	8
C	1.287696	0.297605	-0.427836	6
C	2.477857	0.297605	-0.427836	6
H	-0.755274	-2.883525	0.075874	1
H	-1.782594	-1.055965	-0.909506	1
H	-0.224103	-1.538195	-1.609206	1
H	-0.489434	0.965605	-1.232966	1
H	-0.267223	0.322915	1.770644	1
H	-1.790524	0.702455	0.948224	1
H	0.516716	2.338634	1.072384	1
H	3.543797	0.290795	-0.426396	1
Es	-1.451356	0.736365	0.921639	99
Es	0.082390	2.272744	1.054263	99
Es	-0.704291	0.832283	0.904746	99
Es	-0.404211	0.549134	0.220051	99
Es	1.888898	0.619642	-0.266713	99
Es	-0.156198	0.297552	-0.427825	99
Es	-0.501431	-1.993183	0.375292	99
Es	-0.704053	-1.106643	-0.722850	99
Es	-0.397156	0.479694	1.480578	99
Es	-0.450515	2.231729	1.037527	99
Es	-0.593219	-1.687517	-0.041173	99
Es	2.478138	0.297614	-0.427835	99
Es	-0.374267	-1.394368	-1.332206	99
Es	1.895947	0.001397	-0.242710	99
Es	-0.661376	-2.445892	0.195188	99
Es	-0.167900	-2.001459	0.426774	99
Es	1.287418	0.297609	-0.427841	99
Es	1.894914	0.287200	-0.769124	99
Es	-0.407150	-0.401082	-0.563127	99
Es	-0.708699	-1.908236	0.574839	99
Es	-0.568883	2.318971	1.296437	99
Es	-0.372235	0.732765	-0.961549	99
Es	-1.453016	-1.059446	-0.858157	99
Es	-0.528715	1.699732	0.984986	99
Es	0.600347	0.296055	-0.423925	99
Es	3.176860	0.295626	-0.427110	99
Es	-0.537930	2.346676	0.784371	99
42
Properties=species:S:1:pos:R:3:Z:I:1 energy=-343.76905331059584 field_type=dipole dipole="0.000000 0.000000 0.000000" charge=0
O	-0.501364	-1.993115	0.375594	8
C	-0.704113	-1.106555	-0.723056	6
C	-0.156304	0.297605	-0.427836	6
C	-0.704364	0.832065	0.904814	6
O	-0.450773	2.232075	1.037104	8
C	1.287696	0.297605	-0.427836	6
C	2.477857	0.297605	-0.427836	6
H	-0.755274	-2.883525	0.075874	1
H	-1.782594	-1.055965	-0.909506	1
H	-0.224103	-1.538195	-1.609206	1
H	-0.489434	0.965605	-1.232966	1
H	-0.267223	0.322915	1.770644	1
H	-1.790524	0.702455	0.948224	1
H	0.516716	2.338634	1.072384	1
H	3.543797	0.290795	-0.426396	1
Es	-0.704050	-1.106643	-0.722849	99
Es	1.896795	0.197468	-0.102119	99
Es	1.889092	0.060900	-0.675404	99
Es	-0.156197	0.297551	-0.427824	99
Es	-0.536788	2.345039	0.785184	99
Es	1.893870	0.650121	-0.501582	99
Es	2.478137	0.297610	-0.427833	99
Es	-0.372425	0.732458	-0.961056	99
Es	0.083010	2.273043	1.054849	99
Es	-0.450494	2.231796	1.037043	99
Es	-0.593524	-1.690505	-0.039008	99
Es	-0.404175	0.549072	0.219745	99
Es	-0.165349	-2.001782	0.424031	99
Es	-0.396914	0.479976	1.480226	99
Es	-1.451715	0.736250	0.921699	99
Es	3.177017	0.295140	-0.427144	99
Es	-0.501457	-1.993186	0.375304	99
Es	1.287417	0.297613	-0.427828	99
Es	-0.569908	2.319738	1.295016	99
Es	-0.374175	-1.394193	-1.331788	99
Es	0.600730	0.296280	-0.423280	99
Es	-1.453401	-1.059269	-0.858238	99
Es	-0.662382	-2.443568	0.195245	99
Es	-0.704289	0.832287	0.904742	99
Es	-0.407182	-0.401038	-0.563113	99
Es	-0.529480	1.699858	0.985400	99
Es	-0.709851	-1.907053	0.575128	99
42
Properties=species:S:1:pos:R:3:Z:I:1 energy=-343.76905331059584 field_type=dipole dipole="0.000000 0.000000 0.000000" charge=0
O	-0.501364	-1.993115	0.375594	8
C	-0.704113	-1.106555	-0.723056	6
C	-0.156304	0.297605	-0.427836	6
C	-0.704364	0.832065	0.904814	6
O	-0.450773	2.232075	1.037104	8
C	1.287696	0.297605	-0.427836	6
C	2.477857	0.297605	-0.427836	6
H	-0.755274	-2.883525	0.075874	1
H	-1.782594	-1.055965	-0.909506	1
H	-0.224103	-1.538195	-1.609206	1
H	-0.489434	0.965605	-1.232966	1
H	-0.267223	0.322915	1.770644	1
H	-1.790524	0.702455	0.948224	1
H	0.516716	2.338634	1.072384	1
H	3.543797	0.290795	-0.426396	1
Es	-0.404169	0.549092	0.219751	99
Es	0.600996	0.296990	-0.423749	99
Es	-0.373869	-1.394229	-1.331688	99
Es	-0.396899	0.480302	1.479779	99
Es	-0.162493	-2.000826	0.420742	99
Es	0.083606	2.272182	1.050425	99
Es	1.890465	0.458162	-0.122640	99
Es	-0.704291	0.832283	0.904743	99
Es	-0.594035	-1.694183	-0.035126	99
Es	3.177130	0.295411	-0.427146	99
Es	2.478137	0.297619	-0.427835	99
Es	-0.553474	2.361896	0.790053	99
Es	1.287417	0.297616	-0.427837	99
Es	-0.710123	-1.905641	0.574271	99
Es	-1.453639	-1.059212	-0.858177	99
Es	-0.704052	-1.106642	-0.722852	99
Es	-1.451995	0.736073	0.921823	99
Es	-0.407502	-0.401022	-0.563125	99
Es	-0.501445	-1.993158	0.375323	99
Es	-0.372273	0.731945	-0.960208	99
Es	-0.530334	1.700975	0.981898	99
Es	-0.552868	2.302398	1.298027	99
Es	-0.664585	-2.441937	0.195077	99
Es	-0.450503	2.231809	1.037059	99
Es	1.898509	0.501701	-0.706847	99
Es	1.890800	-0.052194	-0.449372	99
Es	-0.156198	0.297553	-0.427824	99
42
Properties=species:S:1:pos:R:3:Z:I:1 energy=-343.76905331059584 field_type=dipole dipole="0.000000 0.000000 0.000000" charge=0
O	-0.501364	-1.993115	0.375594	8
C	-0.704113	-1.106555	-0.723056	6
C	-0.156304	0.297605	-0.427836	6
C	-0.704364	0.832065	0.904814	6
O	-0.450773	2.232075	1.037104	8
C	1.287696	0.297605	-0.427836	6
C	2.477857	0.297605	-0.427836	6
H	-0.755274	-2.883525	0.075874	1
H	-1.782594	-1.055965	-0.909506	1
H	-0.224103	-1.538195	-1.609206	1
H	-0.489434	0.965605	-1.232966	1
H	-0.267223	0.322915	1.770644	1
H	-1.790524	0.702455	0.948224	1
H	0.516716	2.338634	1.072384	1
H	3.543797	0.290795	-0.426396	1
Es	-0.161781	-2.001808	0.423605	99
Es	-1.453835	-1.059249	-0.858628	99
Es	-1.452205	0.736073	0.921121	99
Es	0.601190	0.296746	-0.423532	99
Es	-0.407229	-0.400948	-0.562751	99
Es	-0.373135	0.732689	-0.960511	99
Es	1.890710	-0.049837	-0.458628	99
Es	-0.501457	-1.993170	0.375320	99
Es	0.083912	2.272332	1.057203	99
Es	-0.156197	0.297552	-0.427825	99
Es	1.898150	0.517208	-0.701122	99
Es	-0.664942	-2.440171	0.195806	99
Es	1.890929	0.440362	-0.119590	99
Es	-0.395896	0.479728	1.479872	99
Es	1.287415	0.297609	-0.427836	99
Es	-0.450513	2.231797	1.037099	99
Es	-0.521161	2.328019	0.787258	99
Es	-0.593530	-1.694498	-0.035675	99
Es	-0.529839	1.701263	0.987399	99
Es	2.478138	0.297602	-0.427836	99
Es	-0.404024	0.549179	0.219151	99
Es	-0.586039	2.335529	1.288318	99
Es	-0.374368	-1.393976	-1.330837	99
Es	3.177175	0.295502	-0.426056	99
Es	-0.704291	0.832282	0.904744	99
Es	-0.704051	-1.106641	-0.722849	99
Es	-0.710814	-1.906212	0.571328	99
42
Properties=species:S:1:pos:R:3:Z:I:1 energy=-343.76905331059584 field_type=dipole dipole="0.000000 0.000000 0.000000" charge=0
O	-0.501364	-1.993115	0.375594	8
C	-0.704113	-1.106555	-0.723056	6
C	-0.156304	0.297605	-0.427836	6
C	-0.704364	0.832065	0.904814	6
O	-0.450773	2.232075	1.037104	8
C	1.287696	0.297605	-0.427836	6
C	2.477857	0.297605	-0.427836	6
H	-0.755274	-2.883525	0.075874	1
H	-1.782594	-1.055965	-0.909506	1
H	-0.224103	-1.538195	-1.609206	1
H	-0.489434	0.965605	-1.232966	1
H	-0.267223	0.322915	1.770644	1
H	-1.790524	0.702455	0.948224	1
H	0.516716	2.338634	1.072384	1
H	3.543797	0.290795	-0.426396	1
Es	-0.407674	-0.401046	-0.562950	99
Es	-0.396310	0.480350	1.479336	99
Es	3.177257	0.295660	-0.427163	99
Es	-0.160339	-2.002130	0.421897	99
Es	-0.372583	0.731735	-0.959548	99
Es	-0.589762	-1.700074	-0.032840	99
Es	-0.717261	-1.902655	0.571198	99
Es	1.896301	0.025911	-0.208739	99
Es	-0.563383	2.313865	1.294015	99
Es	1.889541	0.639377	-0.314125	99
Es	-0.542979	2.349378	0.787539	99
Es	-0.704051	-1.106642	-0.722851	99
Es	2.478139	0.297611	-0.427835	99
Es	-0.450499	2.231835	1.037004	99
Es	-0.403836	0.549401	0.219009	99
Es	0.601463	0.296427	-0.423835	99
Es	-0.704292	0.832282	0.904743	99
Es	-0.501510	-1.993128	0.375247	99
Es	-0.374201	-1.394090	-1.330731	99
Es	-0.663689	-2.437445	0.194509	99
Es	-1.452404	0.735871	0.921549	99
Es	-0.531113	1.701455	0.986151	99
Es	1.893909	0.242891	-0.755588	99
Es	-1.454068	-1.059277	-0.858405	99
Es	1.287415	0.297612	-0.427836	99
Es	0.084436	2.272236	1.052621	99
Es	-0.156198	0.297553	-0.427823	99
42
Properties=species:S:1:pos:R:3:Z:I:1 energy=-343.76905331059584 field_type=dipole dipole="0.000000 0.000000 0.000000" charge=0
O	-0.501364	-1.993115	0.375594	8
C	-0.704113	-1.106555	-0.723056	6
C	-0.156304	0.297605	-0.427836	6
C	-0.704364	0.832065	0.904814	6
O	-0.450773	2.232075	1.037104	8
C	1.287696	0.297605	-0.427836	6
C	2.477857	0.297605	-0.427836	6
H	-0.755274	-2.883525	0.075874	1
H	-1.782594	-1.055965	-0.909506	1
H	-0.224103	-1.538195	-1.609206	1
H	-0.489434	0.965605	-1.232966	1
H	-0.267223	0.322915	1.770644	1
H	-1.790524	0.702455	0.948224	1
H	0.516716	2.338634	1.072384	1
H	3.543797	0.290795	-0.426396	1
Es	-0.507848	2.262205	1.277857	99
Es	-1.454031	-1.059348	-0.857948	99
Es	-0.658288	-2.436461	0.191581	99
Es	-0.373593	-1.394355	-1.331369	99
Es	-0.159525	-1.998488	0.416687	99
Es	3.177216	0.296809	-0.428234	99
Es	-0.156196	0.297551	-0.427824	99
Es	-1.452415	0.735884	0.922515	99
Es	-0.501470	-1.993198	0.375307	99
Es	-0.408243	-0.400950	-0.564039	99
Es	1.896966	0.034937	-0.203949	99
Es	1.893239	0.238507	-0.764599	99
Es	-0.531880	1.701161	0.982366	99
Es	2.478138	0.297618	-0.427836	99
Es	-0.370709	0.729715	-0.958086	99
Es	-0.704052	-1.106642	-0.722852	99
Es	-0.597659	2.399441	0.818183	99
Es	-0.587807	-1.706147	-0.027894	99
Es	0.084372	2.274015	1.042072	99
Es	-0.404425	0.550050	0.219742	99
Es	-0.397485	0.481345	1.478813	99
Es	1.889547	0.634522	-0.309934	99
Es	0.601513	0.295875	-0.424088	99
Es	1.287415	0.297608	-0.427837	99
Es	-0.450495	2.231773	1.037195	99
Es	-0.704291	0.832282	0.904743	99
Es	-0.725682	-1.900744	0.573975	99
42
Properties=species:S:1:pos:R:3:Z:I:1 energy=-343.76905331059584 field_type=dipole dipole="0.000000 0.000000 0.000000" charge=0
O	-0.501364	-1.993115	0.375594	8
C	-0.704113	-1.106555	-0.723056	6
C	-0.156304	0.297605	-0.427836	6
C	-0.704364	0.832065	0.904814	6
O	-0.450773	2.232075	1.037104	8
C	1.287696	0.297605	-0.427836	6
C	2.477857	0.297605	-0.427836	6
H	-0.755274	-2.883525	0.075874	1
H	-1.782594	-1.055965	-0.909506	1
H	-0.224103	-1.538195	-1.609206	1
H	-0.489434	0.965605	-1.232966	1
H	-0.267223	0.322915	1.770644	1
H	-1.790524	0.702455	0.948224	1
H	0.516716	2.338634	1.072384	1
H	3.543797	0.290795	-0.426396	1
Es	-0.406727	-0.400700	-0.562259	99
Es	1.896615	0.595334	-0.623950	99
Es	0.601502	0.295318	-0.423605	99
Es	-0.374722	-1.393622	-1.329806	99
Es	-0.704290	0.832281	0.904741	99
Es	0.084255	2.272747	1.063555	99
Es	-0.156196	0.297551	-0.427823	99
Es	-0.483004	2.285505	0.809275	99
Es	-0.403719	0.548921	0.218609	99
Es	3.177260	0.296103	-0.425692	99
Es	-1.452466	0.736358	0.920682	99
Es	-0.596623	-1.692766	-0.035368	99
Es	-0.374371	0.733131	-0.960764	99
Es	-0.528594	1.702816	0.992148	99
Es	-0.501466	-1.993207	0.375294	99
Es	1.889510	-0.003346	-0.572411	99
Es	-1.454128	-1.059232	-0.859188	99
Es	-0.625929	2.375348	1.254578	99
Es	-0.395013	0.479513	1.480005	99
Es	1.287415	0.297607	-0.427835	99
Es	-0.675432	-2.437548	0.201827	99
Es	-0.704053	-1.106642	-0.722850	99
Es	1.893640	0.316451	-0.082966	99
Es	-0.450476	2.231723	1.037408	99
Es	-0.699221	-1.905240	0.568094	99
Es	2.478140	0.297611	-0.427832	99
Es	-0.159598	-2.007052	0.420676	99
42
Properties=species:S:1:pos:R:3:Z:I:1 energy=-343.76905331059584 field_type=dipole dipole="0.000000 0.000000 0.000000" charge=0
O	-0.501364	-1.993115	0.375594	8
C	-0.704113	-1.106555	-0.723056	6
C	-0.156304	0.297605	-0.427836	6
C	-0.704364	0.832065	0.904814	6
O	-0.450773	2.232075	1.037104	8
C	1.287696	0.297605	-0.427836	6
C	2.477857	0.297605	-0.427836	6
H	-0.755274	-2.883525	0.075874	1
H	-1.782594	-1.055965	-0.909506	1
H	-0.224103	-1.538195	-1.609206	1
H	-0.489434	0.965605	-1.232966	1
H	-0.267223	0.322915	1.770644	1
H	-1.790524	0.702455	0.948224	1
H	0.516716	2.338634	1.072384	1
H	3.543797	0.290795	-0.426396	1
Es	-0.702531	-1.904214	0.567216	99
Es	-0.501442	-1.993189	0.375384	99
Es	-0.704291	0.832279	0.904744	99
Es	1.895375	0.626920	-0.565588	99
Es	-0.673913	-2.437236	0.201374	99
Es	-0.374596	0.732960	-0.960760	99
Es	0.601616	0.295258	-0.423901	99
Es	-0.403733	0.548950	0.218514	99
Es	-0.479805	2.282074	0.813947	99
Es	-1.454220	-1.059319	-0.859207	99
Es	-0.595298	-1.695405	-0.034753	99
Es	-1.452547	0.736339	0.920645	99
Es	3.177273	0.296534	-0.425785	99
Es	1.889412	0.038727	-0.630211	99
Es	-0.528114	1.703061	0.991089	99
Es	-0.374832	-1.393555	-1.329587	99
Es	2.478140	0.297608	-0.427831	99
Es	-0.156198	0.297553	-0.427825	99
Es	-0.159115	-2.005699	0.421153	99
Es	-0.406510	-0.400624	-0.562053	99
Es	1.894974	0.242565	-0.083105	99
Es	-0.704055	-1.106640	-0.722857	99
Es	-0.450482	2.231752	1.037327	99
Es	-0.394897	0.479523	1.479856	99
Es	-0.629681	2.377786	1.250903	99
Es	1.287414	0.297609	-0.427837	99
Es	0.084369	2.273344	1.063695	99
42
Properties=species:S:1:pos:R:3:Z:I:1 energy=-343.76905331059584 field_type=dipole dipole="0.000000 0.000000 0.000000" charge=0
O	-0.501364	-1.993115	0.375594	8
C	-0.704113	-1.106555	-0.723056	6
C	-0.156304	0.297605	-0.427836	6
C	-0.704364	0.832065	0.904814	6
O	-0.450773	2.232075	1.037104	8
C	1.287696	0.297605	-0.427836	6
C	2.477857	0.297605	-0.427836	6
H	-0.755274	-2.883525	0.075874	1
H	-1.782594	-1.055965	-0.909506	1
H	-0.224103	-1.538195	-1.609206	1
H	-0.489434	0.965605	-1.232966	1
H	-0.267223	0.322915	1.770644	1
H	-1.790524	0.702455	0.948224	1
H	0.516716	2.338634	1.072384	1
H	3.543797	0.290795	-0.426396	1
Es	1.287414	0.297608	-0.427841	99
Es	3.177230	0.297762	-0.425770	99
Es	-0.450472	2.231756	1.037318	99
Es	1.895923	0.022510	-0.207507	99
Es	-0.403789	0.549124	0.218461	99
Es	1.889804	0.611237	-0.296781	99
Es	-0.156196	0.297550	-0.427824	99
Es	-1.452602	0.736331	0.920635	99
Es	-0.471571	2.272061	0.823807	99
Es	-0.394791	0.479571	1.479812	99
Es	-0.697348	-1.903116	0.564749	99
Es	-0.374596	0.732742	-0.960731	99
Es	1.894080	0.273425	-0.774689	99
Es	-0.679805	-2.436632	0.203694	99
Es	0.601681	0.295243	-0.423868	99
Es	-0.375284	-1.393629	-1.329101	99
Es	-0.704293	0.832276	0.904745	99
Es	-0.501447	-1.993166	0.375301	99
Es	-0.406071	-0.400542	-0.562326	99
Es	-1.454259	-1.059373	-0.859368	99
Es	-0.704052	-1.106641	-0.722852	99
Es	0.084397	2.273520	1.064810	99
Es	-0.637703	2.387323	1.237733	99
Es	-0.158864	-2.008105	0.421223	99
Es	2.478140	0.297618	-0.427834	99
Es	-0.594818	-1.694663	-0.034522	99
Es	-0.528399	1.703170	0.993270	99
42
Properties=species:S:1:pos:R:3:Z:I:1 energy=-343.76905331059584 field_type=dipole dipole="0.000000 0.000000 0.000000" charge=0
O	-0.501364	-1.993115	0.375594	8
C	-0.704113	-1.106555	-0.723056	6
C	-0.156304	0.297605	-0.427836	6
C	-0.704364	0.832065	0.904814	6
O	-0.450773	2.232075	1.037104	8
C	1.287696	0.297605	-0.427836	6
C	2.477857	0.297605	-0.427836	6
H	-0.755274	-2.883525	0.075874	1
H	-1.782594	-1.055965	-0.909506	1
H	-0.224103	-1.538195	-1.609206	1
H	-0.489434	0.965605	-1.232966	1
H	-0.267223	0.322915	1.770644	1
H	-1.790524	0.702455	0.948224	1
H	0.516716	2.338634	1.072384	1
H	3.543797	0.290795	-0.426396	1
Es	-0.582844	-1.712731	-0.025277	99
Es	-0.735824	-1.898220	0.568203	99
Es	-0.501475	-1.993236	0.375287	99
Es	0.084762	2.274886	1.038822	99
Es	-0.373475	-1.394243	-1.330900	99
Es	3.177235	0.298148	-0.428011	99
Es	-0.408490	-0.400845	-0.564610	99
Es	-1.452634	0.735856	0.922633	99
Es	-0.704054	-1.106642	-0.722853	99
Es	-0.397388	0.481692	1.478549	99
Es	-0.404681	0.550409	0.219630	99
Es	-0.654050	-2.432840	0.191154	99
Es	-0.532108	1.701735	0.984309	99
Es	1.888880	0.526359	-0.158891	99
Es	1.893852	-0.034970	-0.364355	99
Es	2.478140	0.297617	-0.427838	99
Es	-1.454274	-1.059591	-0.858081	99
Es	-0.485720	2.244000	1.253491	99
Es	0.601791	0.295360	-0.424444	99
Es	-0.704291	0.832283	0.904743	99
Es	-0.620108	2.415684	0.843456	99
Es	1.287415	0.297606	-0.427835	99
Es	-0.158623	-1.997633	0.419918	99
Es	-0.450453	2.231684	1.037554	99
Es	-0.370107	0.728804	-0.956863	99
Es	1.897031	0.416237	-0.755423	99
Es	-0.156197	0.297552	-0.427824	99
42
Properties=species:S:1:pos:R:3:Z:I:1 energy=-343.76905331059584 field_type=dipole dipole="0.000000 0.000000 0.000000" charge=0
O	-0.501364	-1.993115	0.375594	8
C	-0.704113	-1.106555	-0.723056	6
C	-0.156304	0.297605	-0.427836	6
C	-0.704364	0.832065	0.904814	6
O	-0.450773	2.232075	1.037104	8
C	1.287696	0.297605	-0.427836	6
C	2.477857	0.297605	-0.427836	6
H	-0.755274	-2.883525	0.075874	1
H	-1.782594	-1.055965	-0.909506	1
H	-0.224103	-1.538195	-1.609206	1
H	-0.489434	0.965605	-1.232966	1
H	-0.267223	0.322915	1.770644	1
H	-1.790524	0.702455	0.948224	1
H	0.516716	2.338634	1.072384	1
H	3.543797	0.290795	-0.426396	1
Es	1.287414	0.297599	-0.427836	99
Es	-0.157135	-1.998821	0.413567	99
Es	-0.408253	-0.400697	-0.564564	99
Es	-0.483442	2.241466	1.251372	99
Es	-0.729790	-1.896604	0.570795	99
Es	-0.404917	0.550398	0.219755	99
Es	-0.704292	0.832282	0.904743	99
Es	2.478140	0.297618	-0.427846	99
Es	1.891735	0.384250	-0.086089	99
Es	-0.156197	0.297551	-0.427825	99
Es	-0.450473	2.231813	1.036920	99
Es	1.890083	-0.024884	-0.525665	99
Es	0.601828	0.295559	-0.424506	99
Es	-0.704052	-1.106641	-0.722852	99
Es	-1.452664	0.735854	0.922764	99
Es	-0.397449	0.481785	1.478426	99
Es	-0.623493	2.417648	0.846133	99
Es	0.084773	2.274707	1.038924	99
Es	-0.658962	-2.433018	0.193022	99
Es	-0.370184	0.728522	-0.956945	99
Es	-0.501439	-1.993126	0.375386	99
Es	-0.373323	-1.394258	-1.331026	99
Es	-1.454307	-1.059444	-0.857957	99
Es	3.177260	0.297899	-0.428387	99
Es	-0.531018	1.702279	0.984341	99
Es	1.897953	0.548243	-0.666622	99
Es	-0.585486	-1.713016	-0.023484	99
42
Properties=species:S:1:pos:R:3:Z:I:1 energy=-343.76905331059584 field_type=dipole dipole="0.000000 0.000000 0.000000" charge=0
O	-0.501364	-1.993115	0.375594	8
C	-0.704113	-1.106555	-0.723056	6
C	-0.156304	0.297605	-0.427836	6
C	-0.704364	0.832065	0.904814	6
O	-0.450773	2.232075	1.037104	8
C	1.287696	0.297605	-0.427836	6
C	2.477857	0.297605	-0.427836	6
H	-0.755274	-2.883525	0.075874	1
H	-1.782594	-1.055965	-0.909506	1
H	-0.224103	-1.538195	-1.609206	1
H	-0.489434	0.965605	-1.232966	1
H	-0.267223	0.322915	1.770644	1
H	-1.790524	0.702455	0.948224	1
H	0.516716	2.338634	1.072384	1
H	3.543797	0.290795	-0.426396	1
Es	3.177227	0.298449	-0.428623	99
Es	0.601869	0.295454	-0.424424	99
Es	1.889150	0.012009	-0.606119	99
Es	1.893705	0.297187	-0.074650	99
Es	-0.450449	2.231786	1.036766	99
Es	-0.478372	2.236891	1.244675	99
Es	0.084830	2.275070	1.037811	99
Es	-0.583585	-1.713050	-0.023874	99
Es	-0.734836	-1.897991	0.569758	99
Es	-0.369931	0.728382	-0.956601	99
Es	-0.532328	1.702069	0.982436	99
Es	-0.627302	2.422012	0.856067	99
Es	-0.397529	0.481817	1.478371	99
Es	-0.704052	-1.106641	-0.722851	99
Es	-0.704293	0.832280	0.904745	99
Es	-0.655130	-2.431612	0.191179	99
Es	1.287415	0.297614	-0.427835	99
Es	-0.501453	-1.993233	0.375331	99
Es	1.896934	0.598110	-0.597437	99
Es	-1.454326	-1.059491	-0.858001	99
Es	-0.157818	-1.998674	0.416873	99
Es	-0.404999	0.550407	0.219717	99
Es	-0.156197	0.297551	-0.427824	99
Es	-0.373148	-1.394166	-1.331052	99
Es	-0.408526	-0.400775	-0.564806	99
Es	-1.452687	0.735890	0.922752	99
Es	2.478141	0.297620	-0.427837	99
42
Properties=species:S:1:pos:R:3:Z:I:1 energy=-343.76905331059584 field_type=dipole dipole="0.000000 0.000000 0.000000" charge=0
O	-0.501364	-1.993115	0.375594	8
C	-0.704113	-1.106555	-0.723056	6
C	-0.156304	0.297605	-0.427836	6
C	-0.704364	0.832065	0.904814	6
O	-0.450773	2.232075	1.037104	8
C	1.287696	0.297605	-0.427836	6
C	2.477857	0.297605	-0.427836	6
H	-0.755274	-2.883525	0.075874	1
H	-1.782594	-1.055965	-0.909506	1
H	-0.224103	-1.538195	-1.609206	1
H	-0.489434	0.965605	-1.232966	1
H	-0.267223	0.322915	1.770644	1
H	-1.790524	0.702455	0.948224	1
H	0.516716	2.338634	1.072384	1
H	3.543797	0.290795	-0.426396	1
Es	-0.627571	2.422550	0.856860	99
Es	-1.454385	-1.059523	-0.858015	99
Es	-0.373371	-1.394298	-1.330782	99
Es	-0.397263	0.481868	1.478408	99
Es	3.177247	0.298368	-0.428394	99
Es	-0.704055	-1.106641	-0.722858	99
Es	-0.369980	0.728369	-0.956379	99
Es	-0.501447	-1.993195	0.375355	99
Es	1.897845	0.550208	-0.665558	99
Es	-0.156200	0.297551	-0.427826	99
Es	-0.734076	-1.897832	0.570474	99
Es	-0.450434	2.231671	1.037547	99
Es	1.890169	-0.019400	-0.530276	99
Es	0.601921	0.295348	-0.424713	99
Es	-1.452736	0.735890	0.922809	99
Es	1.891768	0.376716	-0.082422	99
Es	-0.532889	1.701765	0.982660	99
Es	0.084909	2.274955	1.038543	99
Es	1.287415	0.297607	-0.427836	99
Es	-0.404754	0.550577	0.219458	99
Es	-0.704291	0.832282	0.904743	99
Es	-0.157167	-1.999153	0.414797	99
Es	-0.655953	-2.430808	0.191403	99
Es	2.478140	0.297624	-0.427836	99
Es	-0.477758	2.236689	1.242013	99
Es	-0.408564	-0.400791	-0.564740	99
Es	-0.584211	-1.713434	-0.022889	99
42
Properties=species:S:1:pos:R:3:Z:I:1 energy=-343.76905331059584 field_type=dipole dipole="0.000000 0.000000 0.000000" charge=0
O	-0.501364	-1.993115	0.375594	8
C	-0.704113	-1.106555	-0.723056	6
C	-0.156304	0.297605	-0.427836	6
C	-0.704364	0.832065	0.904814	6
O	-0.450773	2.232075	1.037104	8
C	1.287696	0.297605	-0.427836	6
C	2.477857	0.297605	-0.427836	6
H	-0.755274	-2.883525	0.075874	1
H	-1.782594	-1.055965	-0.909506	1
H	-0.224103	-1.538195	-1.609206	1
H	-0.489434	0.965605	-1.232966	1
H	-0.267223	0.322915	1.770644	1
H	-1.790524	0.702455	0.948224	1
H	0.516716	2.338634	1.072384	1
H	3.543797	0.290795	-0.426396	1
Es	-0.462440	2.260208	0.838331	99
Es	2.478140	0.297615	-0.427832	99
Es	0.084618	2.273693	1.065595	99
Es	0.601908	0.294654	-0.424618	99
Es	-0.652074	2.394589	1.222854	99
Es	-0.450411	2.231708	1.037326	99
Es	-0.374530	0.732225	-0.960369	99
Es	1.895677	0.623504	-0.558069	99
Es	-1.452748	0.736600	0.920613	99
Es	-0.704292	0.832278	0.904744	99
Es	-0.595223	-1.696246	-0.031851	99
Es	-1.454416	-1.059350	-0.859325	99
Es	-0.394669	0.479888	1.479940	99
Es	-0.687715	-1.901131	0.560133	99
Es	1.889688	0.056624	-0.642523	99
Es	-0.690645	-2.435474	0.209161	99
Es	-0.374669	-1.393494	-1.329244	99
Es	-0.156197	0.297551	-0.427824	99
Es	-0.406086	-0.400198	-0.562454	99
Es	3.177288	0.297699	-0.425821	99
Es	-0.157327	-2.009369	0.417400	99
Es	1.894396	0.227667	-0.077873	99
Es	1.287414	0.297606	-0.427840	99
Es	-0.501442	-1.993168	0.375337	99
Es	-0.523715	1.706862	0.992817	99
Es	-0.404168	0.549060	0.218786	99
Es	-0.704050	-1.106641	-0.722847	99
42
Properties=species:S:1:pos:R:3:Z:I:1 energy=-343.76905331059584 field_type=dipole dipole="0.000000 0.000000 0.000000" charge=0
O	-0.501364	-1.993115	0.375594	8
C	-0.704113	-1.106555	-0.723056	6
C	-0.156304	0.297605	-0.427836	6
C	-0.704364	0.832065	0.904814	6
O	-0.450773	2.232075	1.037104	8
C	1.287696	0.297605	-0.427836	6
C	2.477857	0.297605	-0.427836	6
H	-0.755274	-2.883525	0.075874	1
H	-1.782594	-1.055965	-0.909506	1
H	-0.224103	-1.538195	-1.609206	1
H	-0.489434	0.965605	-1.232966	1
H	-0.267223	0.322915	1.770644	1
H	-1.790524	0.702455	0.948224	1
H	0.516716	2.338634	1.072384	1
H	3.543797	0.290795	-0.426396	1
Es	-1.452776	0.736431	0.920448	99
Es	-0.704291	0.832281	0.904743	99
Es	-0.524901	1.706026	0.989257	99
Es	-0.394492	0.479746	1.479774	99
Es	-0.694303	-1.901302	0.561334	99
Es	-0.157339	-2.008158	0.419345	99
Es	0.601932	0.294621	-0.424327	99
Es	-0.704052	-1.106642	-0.722850	99
Es	-0.375218	-1.393456	-1.328733	99
Es	1.889886	0.026269	-0.590170	99
Es	3.177293	0.297590	-0.425507	99
Es	-0.460270	2.259825	0.844312	99
Es	-0.594185	-1.697556	-0.031787	99
Es	-0.685055	-2.435269	0.205885	99
Es	-0.450496	2.231769	1.037261	99
Es	2.478141	0.297610	-0.427834	99
Es	1.896417	0.599006	-0.616249	99
Es	-0.501435	-1.993191	0.375315	99
Es	-0.406093	-0.400396	-0.562220	99
Es	1.893454	0.282829	-0.072392	99
Es	-0.374673	0.732425	-0.960238	99
Es	0.084701	2.273664	1.065414	99
Es	-0.403753	0.549221	0.218286	99
Es	-1.454447	-1.059462	-0.859483	99
Es	-0.652947	2.395922	1.220625	99
Es	1.287414	0.297607	-0.427840	99
Es	-0.156197	0.297551	-0.427822	99
42
Properties=species:S:1:pos:R:3:Z:I:1 energy=-343.76905331059584 field_type=dipole dipole="0.000000 0.000000 0.000000" charge=0
O	-0.501364	-1.993115	0.375594	8
C	-0.704113	-1.106555	-0.723056	6
C	-0.156304	0.297605	-0.427836	6
C	-0.704364	0.832065	0.904814	6
O	-0.450773	2.232075	1.037104	8
C	1.287696	0.297605	-0.427836	6
C	2.477857	0.297605	-0.427836	6
H	-0.755274	-2.883525	0.075874	1
H	-1.782594	-1.055965	-0.909506	1
H	-0.224103	-1.538195	-1.609206	1
H	-0.489434	0.965605	-1.232966	1