42
Properties=species:S:1:pos:R:3:Z:I:1 energy=-339.94576001719895 field_type=dipole dipole="0.000000 0.000000 0.000000" charge=0
C	1.297906	0.026729	0.060851	6
C	0.393956	-1.101931	0.536371	6
N	-0.768394	-1.233251	-0.340889	7
N	-1.852704	-0.451561	-0.096939	7
C	-1.707844	0.812659	0.154601	6
O	-0.592574	1.585769	0.157481	8
C	0.536166	1.158459	-0.610899	6
H	2.043146	-0.358921	-0.645709	1
H	1.847806	0.414989	0.926651	1
H	0.965666	-2.036681	0.532551	1
H	0.074596	-0.939731	1.573221	1
H	-1.071604	-2.211142	-0.348999	1
H	-2.575064	1.423809	0.448481	1
H	1.198226	2.023549	-0.724159	1
H	0.210716	0.887259	-1.622619	1
Es	0.311045	0.967778	-1.296079	99
Es	0.905348	0.584058	-0.268886	99
Es	-2.292023	1.222045	0.347754	99
Es	-1.284824	-0.821205	-0.186226	99
Es	-0.592603	1.585511	0.157359	99
Es	0.987032	1.748834	-0.680637	99
Es	-0.956600	-1.819620	-0.319936	99
Es	1.297877	0.026736	0.060841	99
Es	-1.707621	0.812775	0.154620	99
Es	-0.292666	-1.163667	0.069119	99
Es	-0.768679	-1.233326	-0.340237	99
Es	-1.852122	-0.451308	-0.096937	99
Es	-0.988023	1.248234	0.123481	99
Es	0.778131	-1.743459	0.525441	99
Es	-0.697546	1.834634	0.035752	99
Es	0.393866	-1.101921	0.536258	99
Es	-0.536212	1.564145	0.439974	99
Es	-0.197236	1.384481	-0.128476	99
Es	-2.180908	-0.609640	-0.107989	99
Es	-1.745025	0.015490	0.299459	99
Es	0.841410	-0.526625	0.295996	99
Es	1.802187	-0.232437	-0.427480	99
Es	0.535973	1.158516	-0.610721	99
Es	1.673334	0.294449	0.652242	99
Es	-1.800692	0.157106	-0.277359	99
Es	-0.675841	-1.138953	-0.643672	99
Es	0.173012	-0.982317	1.247054	99
42
Properties=species:S:1:pos:R:3:Z:I:1 energy=-339.94576001719895 field_type=dipole dipole="0.000000 0.000000 0.000000" charge=0
C	1.297906	0.026729	0.060851	6
C	0.393956	-1.101931	0.536371	6
N	-0.768394	-1.233251	-0.340889	7
N	-1.852704	-0.451561	-0.096939	7
C	-1.707844	0.812659	0.154601	6
O	-0.592574	1.585769	0.157481	8
C	0.536166	1.158459	-0.610899	6
H	2.043146	-0.358921	-0.645709	1
H	1.847806	0.414989	0.926651	1
H	0.965666	-2.036681	0.532551	1
H	0.074596	-0.939731	1.573221	1
H	-1.071604	-2.211142	-0.348999	1
H	-2.575064	1.423809	0.448481	1
H	1.198226	2.023549	-0.724159	1
H	0.210716	0.887259	-1.622619	1
Es	-0.677560	-1.137285	-0.632737	99
Es	-1.286096	-0.821630	-0.188556	99
Es	0.535972	1.158512	-0.610724	99
Es	-0.544258	1.520884	0.411119	99
Es	-1.744232	0.015600	0.299794	99
Es	-0.291772	-1.162587	0.067930	99
Es	1.802462	-0.232250	-0.427521	99
Es	-0.991926	1.252689	0.117097	99
Es	-0.592578	1.585448	0.157358	99
Es	-0.768731	-1.233329	-0.340135	99
Es	1.673065	0.294295	0.651897	99
Es	0.778634	-1.745077	0.525704	99
Es	0.172614	-0.981966	1.245757	99
Es	-0.198857	1.385911	-0.131535	99
Es	-0.955532	-1.824305	-0.327774	99
Es	-0.684371	1.872308	0.074156	99
Es	-1.707622	0.812783	0.154604	99
Es	0.904794	0.583791	-0.268981	99
Es	-2.292214	1.222014	0.348163	99
Es	0.987762	1.749517	-0.681103	99
Es	-1.799499	0.157039	-0.276668	99
Es	0.393866	-1.101923	0.536257	99
Es	0.840635	-0.526085	0.296239	99
Es	-1.852112	-0.451286	-0.096936	99
Es	1.297879	0.026737	0.060843	99
Es	-2.180601	-0.607136	-0.108435	99
Es	0.310871	0.967644	-1.295099	99
42
Properties=species:S:1:pos:R:3:Z:I:1 energy=-339.94576001719895 field_type=dipole dipole="0.000000 0.000000 0.000000" charge=0
C	1.297906	0.026729	0.060851	6
C	0.393956	-1.101931	0.536371	6
N	-0.768394	-1.233251	-0.340889	7
N	-1.852704	-0.451561	-0.096939	7
C	-1.707844	0.812659	0.154601	6
O	-0.592574	1.585769	0.157481	8
C	0.536166	1.158459	-0.610899	6
H	2.043146	-0.358921	-0.645709	1
H	1.847806	0.414989	0.926651	1
H	0.965666	-2.036681	0.532551	1
H	0.074596	-0.939731	1.573221	1
H	-1.071604	-2.211142	-0.348999	1
H	-2.575064	1.423809	0.448481	1
H	1.198226	2.023549	-0.724159	1
H	0.210716	0.887259	-1.622619	1
Es	-1.743759	0.015920	0.300639	99
Es	0.535969	1.158511	-0.610722	99
Es	-0.291848	-1.162242	0.067742	99
Es	0.904452	0.583674	-0.269129	99
Es	0.393867	-1.101921	0.536255	99
Es	-0.954767	-1.826281	-0.332138	99
Es	0.778848	-1.745953	0.525717	99
Es	0.840232	-0.525819	0.296284	99
Es	1.297879	0.026736	0.060843	99
Es	-0.673038	1.892846	0.106972	99
Es	-2.292189	1.221958	0.348555	99
Es	-0.592805	1.585356	0.157301	99
Es	-0.768676	-1.233315	-0.340224	99
Es	-0.993633	1.254726	0.114060	99
Es	-0.553206	1.498033	0.382288	99
Es	-1.852112	-0.451277	-0.096933	99
Es	-1.707618	0.812779	0.154625	99
Es	0.310733	0.967554	-1.294722	99
Es	0.988115	1.749804	-0.681255	99
Es	1.802413	-0.232237	-0.427506	99
Es	-2.179698	-0.605330	-0.109009	99
Es	0.172309	-0.981712	1.245189	99
Es	-0.199498	1.386394	-0.132307	99
Es	-1.287050	-0.822242	-0.189858	99
Es	-1.799275	0.156739	-0.276764	99
Es	-0.678143	-1.136659	-0.627066	99
Es	1.673094	0.294272	0.651874	99
42
Properties=species:S:1:pos:R:3:Z:I:1 energy=-339.94576001719895 field_type=dipole dipole="0.000000 0.000000 0.000000" charge=0
C	1.297906	0.026729	0.060851	6
C	0.393956	-1.101931	0.536371	6
N	-0.768394	-1.233251	-0.340889	7
N	-1.852704	-0.451561	-0.096939	7
C	-1.707844	0.812659	0.154601	6
O	-0.592574	1.585769	0.157481	8
C	0.536166	1.158459	-0.610899	6
H	2.043146	-0.358921	-0.645709	1
H	1.847806	0.414989	0.926651	1
H	0.965666	-2.036681	0.532551	1
H	0.074596	-0.939731	1.573221	1
H	-1.071604	-2.211142	-0.348999	1
H	-2.575064	1.423809	0.448481	1
H	1.198226	2.023549	-0.724159	1
H	0.210716	0.887259	-1.622619	1
Es	0.310631	0.967527	-1.294457	99
Es	0.535971	1.158509	-0.610727	99
Es	0.839899	-0.525563	0.296185	99
Es	0.904308	0.583459	-0.269130	99
Es	-2.178452	-0.603673	-0.109213	99
Es	-0.993507	1.253295	0.116441	99
Es	0.393865	-1.101921	0.536256	99
Es	-0.768687	-1.233320	-0.340191	99
Es	-0.954034	-1.827629	-0.335560	99
Es	-1.707618	0.812780	0.154625	99
Es	-0.200957	1.386694	-0.133506	99
Es	-0.592675	1.585438	0.157199	99
Es	-0.556017	1.492538	0.367926	99
Es	-1.287916	-0.822872	-0.191058	99
Es	0.172093	-0.981693	1.244777	99
Es	-0.291632	-1.161886	0.067475	99
Es	-1.798922	0.157016	-0.277088	99
Es	0.778959	-1.746521	0.525655	99
Es	-1.743890	0.015666	0.301416	99
Es	1.672996	0.294293	0.651960	99
Es	-0.669149	1.899476	0.120281	99
Es	1.297879	0.026735	0.060843	99
Es	0.988268	1.750009	-0.681385	99
Es	-0.678934	-1.136500	-0.622354	99
Es	1.802475	-0.232113	-0.427461	99
Es	-2.292169	1.221948	0.348771	99
Es	-1.852193	-0.451377	-0.096965	99
42
Properties=species:S:1:pos:R:3:Z:I:1 energy=-339.94576001719895 field_type=dipole dipole="0.000000 0.000000 0.000000" charge=0
C	1.297906	0.026729	0.060851	6
C	0.393956	-1.101931	0.536371	6
N	-0.768394	-1.233251	-0.340889	7
N	-1.852704	-0.451561	-0.096939	7
C	-1.707844	0.812659	0.154601	6
O	-0.592574	1.585769	0.157481	8
C	0.536166	1.158459	-0.610899	6
H	2.043146	-0.358921	-0.645709	1
H	1.847806	0.414989	0.926651	1
H	0.965666	-2.036681	0.532551	1
H	0.074596	-0.939731	1.573221	1
H	-1.071604	-2.211142	-0.348999	1
H	-2.575064	1.423809	0.448481	1
H	1.198226	2.023549	-0.724159	1
H	0.210716	0.887259	-1.622619	1
Es	-0.561270	1.486632	0.352714	99
Es	0.310497	0.967521	-1.294351	99
Es	-0.768710	-1.233297	-0.340171	99
Es	0.904148	0.583481	-0.269231	99
Es	-1.707618	0.812781	0.154623	99
Es	0.393868	-1.101923	0.536259	99
Es	-1.852100	-0.451281	-0.096934	99
Es	-1.744413	0.015280	0.302404	99
Es	-1.288626	-0.823616	-0.191943	99
Es	1.802277	-0.232056	-0.427360	99
Es	1.673165	0.294225	0.651937	99
Es	0.171929	-0.981602	1.244462	99
Es	-1.798319	0.157234	-0.277011	99
Es	-0.994248	1.254255	0.115539	99
Es	0.778961	-1.746911	0.525718	99
Es	-0.662643	1.905406	0.135608	99
Es	0.839885	-0.525475	0.296190	99
Es	-0.201350	1.385891	-0.132851	99
Es	0.988305	1.750165	-0.681424	99
Es	-2.177459	-0.602285	-0.109965	99
Es	-0.678421	-1.136303	-0.620057	99
Es	-0.953655	-1.828268	-0.337576	99
Es	-2.292152	1.221973	0.348742	99
Es	0.535975	1.158511	-0.610726	99
Es	-0.592850	1.585286	0.157314	99
Es	-0.292461	-1.162045	0.067963	99
Es	1.297880	0.026736	0.060843	99
42
Properties=species:S:1:pos:R:3:Z:I:1 energy=-339.94576001719895 field_type=dipole dipole="0.000000 0.000000 0.000000" charge=0
C	1.297906	0.026729	0.060851	6
C	0.393956	-1.101931	0.536371	6
N	-0.768394	-1.233251	-0.340889	7
N	-1.852704	-0.451561	-0.096939	7
C	-1.707844	0.812659	0.154601	6
O	-0.592574	1.585769	0.157481	8
C	0.536166	1.158459	-0.610899	6
H	2.043146	-0.358921	-0.645709	1
H	1.847806	0.414989	0.926651	1
H	0.965666	-2.036681	0.532551	1
H	0.074596	-0.939731	1.573221	1
H	-1.071604	-2.211142	-0.348999	1
H	-2.575064	1.423809	0.448481	1
H	1.198226	2.023549	-0.724159	1
H	0.210716	0.887259	-1.622619	1
Es	1.297879	0.026735	0.060842	99
Es	-1.289187	-0.823984	-0.192599	99
Es	0.310425	0.967679	-1.294209	99
Es	-0.562252	1.484584	0.344030	99
Es	-0.292147	-1.161728	0.067636	99
Es	-1.798562	0.157337	-0.277579	99
Es	-1.852136	-0.451253	-0.096921	99
Es	-2.176536	-0.601558	-0.109366	99
Es	-0.679168	-1.136432	-0.617319	99
Es	1.673270	0.294174	0.652024	99
Es	-0.768742	-1.233292	-0.340131	99
Es	0.535976	1.158512	-0.610727	99
Es	-0.202904	1.386938	-0.135203	99
Es	-0.592669	1.585433	0.157175	99
Es	0.839754	-0.525433	0.296109	99
Es	-0.660738	1.907628	0.144434	99
Es	1.802134	-0.231953	-0.427253	99
Es	-2.292128	1.221991	0.348737	99
Es	0.988350	1.750291	-0.681419	99
Es	-0.993841	1.252882	0.117906	99
Es	-1.707618	0.812779	0.154624	99
Es	-1.744127	0.015326	0.302602	99
Es	-0.953174	-1.828880	-0.339429	99
Es	0.393867	-1.101923	0.536258	99
Es	0.903993	0.583297	-0.269356	99
Es	0.779020	-1.747279	0.525623	99
Es	0.171856	-0.981558	1.244224	99
42
Properties=species:S:1:pos:R:3:Z:I:1 energy=-339.94576001719895 field_type=dipole dipole="0.000000 0.000000 0.000000" charge=0
C	1.297906	0.026729	0.060851	6
C	0.393956	-1.101931	0.536371	6
N	-0.768394	-1.233251	-0.340889	7
N	-1.852704	-0.451561	-0.096939	7
C	-1.707844	0.812659	0.154601	6
O	-0.592574	1.585769	0.157481	8
C	0.536166	1.158459	-0.610899	6
H	2.043146	-0.358921	-0.645709	1
H	1.847806	0.414989	0.926651	1
H	0.965666	-2.036681	0.532551	1
H	0.074596	-0.939731	1.573221	1
H	-1.071604	-2.211142	-0.348999	1
H	-2.575064	1.423809	0.448481	1
H	1.198226	2.023549	-0.724159	1
H	0.210716	0.887259	-1.622619	1
Es	1.800925	-0.231996	-0.426273	99
Es	1.674255	0.293839	0.652586	99
Es	0.779294	-1.746873	0.525840	99
Es	-1.290079	-0.825318	-0.194416	99
Es	-0.649165	1.913147	0.178730	99
Es	-1.745498	0.014772	0.305246	99
Es	0.987346	1.749874	-0.680974	99
Es	-0.991477	1.242105	0.137052	99
Es	-0.587282	1.543194	0.213163	99
Es	-2.172667	-0.600469	-0.108918	99
Es	-1.707619	0.812781	0.154616	99
Es	0.310226	0.968006	-1.295187	99
Es	0.904201	0.583726	-0.269684	99
Es	-1.800018	0.157783	-0.280576	99
Es	-0.587813	1.535335	0.227281	99
Es	-0.196573	1.383799	-0.128043	99
Es	0.172072	-0.981474	1.244455	99
Es	-0.674395	-1.136239	-0.621818	99
Es	0.535973	1.158511	-0.610725	99
Es	-0.954440	-1.827711	-0.336898	99
Es	1.297878	0.026736	0.060843	99
Es	-2.291891	1.222188	0.347981	99
Es	0.840482	-0.525793	0.295799	99
Es	-1.852102	-0.451287	-0.096939	99
Es	-0.296229	-1.163085	0.071510	99
Es	0.393864	-1.101919	0.536258	99
Es	-0.768676	-1.233320	-0.340195	99
42
Properties=species:S:1:pos:R:3:Z:I:1 energy=-339.94576001719895 field_type=dipole dipole="0.000000 0.000000 0.000000" charge=0
C	1.297906	0.026729	0.060851	6
C	0.393956	-1.101931	0.536371	6
N	-0.768394	-1.233251	-0.340889	7
N	-1.852704	-0.451561	-0.096939	7
C	-1.707844	0.812659	0.154601	6
O	-0.592574	1.585769	0.157481	8
C	0.536166	1.158459	-0.610899	6
H	2.043146	-0.358921	-0.645709	1
H	1.847806	0.414989	0.926651	1
H	0.965666	-2.036681	0.532551	1
H	0.074596	-0.939731	1.573221	1
H	-1.071604	-2.211142	-0.348999	1
H	-2.575064	1.423809	0.448481	1
H	1.198226	2.023549	-0.724159	1
H	0.210716	0.887259	-1.622619	1
Es	-1.852098	-0.451285	-0.096939	99
Es	0.310274	0.967830	-1.294018	99
Es	0.839773	-0.525414	0.296021	99
Es	1.673354	0.293919	0.651979	99
Es	-0.677710	-1.136471	-0.615105	99
Es	-0.293824	-1.162056	0.068940	99
Es	0.393865	-1.101920	0.536258	99
Es	0.903862	0.583315	-0.269423	99
Es	-0.568571	1.481915	0.326505	99
Es	-2.175086	-0.599835	-0.109537	99
Es	-1.744200	0.015243	0.303586	99
Es	0.988254	1.750478	-0.681526	99
Es	1.801979	-0.231748	-0.426948	99
Es	-0.654351	1.911468	0.160552	99
Es	-1.798419	0.157343	-0.278060	99
Es	1.297878	0.026736	0.060842	99
Es	-1.290243	-0.824626	-0.194308	99
Es	-0.993986	1.252252	0.118184	99
Es	0.778934	-1.747741	0.525556	99
Es	0.535972	1.158511	-0.610725	99
Es	-0.952906	-1.829391	-0.341095	99
Es	-0.768669	-1.233316	-0.340225	99
Es	-2.292055	1.222073	0.348670	99
Es	-1.707619	0.812782	0.154623	99
Es	0.171718	-0.981591	1.243881	99
Es	-0.592755	1.585453	0.157051	99
Es	-0.202780	1.386389	-0.134024	99
42
Properties=species:S:1:pos:R:3:Z:I:1 energy=-339.94576001719895 field_type=dipole dipole="0.000000 0.000000 0.000000" charge=0
C	1.297906	0.026729	0.060851	6
C	0.393956	-1.101931	0.536371	6
N	-0.768394	-1.233251	-0.340889	7
N	-1.852704	-0.451561	-0.096939	7
C	-1.707844	0.812659	0.154601	6
O	-0.592574	1.585769	0.157481	8
C	0.536166	1.158459	-0.610899	6
H	2.043146	-0.358921	-0.645709	1
H	1.847806	0.414989	0.926651	1
H	0.965666	-2.036681	0.532551	1
H	0.074596	-0.939731	1.573221	1
H	-1.071604	-2.211142	-0.348999	1
H	-2.575064	1.423809	0.448481	1
H	1.198226	2.023549	-0.724159	1
H	0.210716	0.887259	-1.622619	1
Es	-0.653256	1.912235	0.164295	99
Es	1.297879	0.026736	0.060843	99
Es	-2.174428	-0.599155	-0.109145	99
Es	-1.290768	-0.825210	-0.194868	99
Es	-1.744226	0.015031	0.303643	99
Es	-1.852097	-0.451270	-0.096929	99
Es	-0.569305	1.481788	0.322022	99
Es	-0.677685	-1.136414	-0.613778	99
Es	0.393864	-1.101920	0.536258	99
Es	0.310265	0.967737	-1.294046	99
Es	1.673487	0.293993	0.651950	99
Es	0.839673	-0.525248	0.296169	99
Es	1.801834	-0.231800	-0.426884	99
Es	0.778959	-1.747968	0.525614	99
Es	-0.768650	-1.233312	-0.340266	99
Es	-2.292078	1.222107	0.348609	99
Es	-0.294201	-1.161979	0.069184	99
Es	-0.952569	-1.829671	-0.342158	99
Es	-0.993623	1.251534	0.119301	99
Es	-1.798320	0.157603	-0.278226	99
Es	-0.203467	1.386581	-0.134502	99
Es	0.988292	1.750516	-0.681495	99
Es	-1.707619	0.812778	0.154625	99
Es	0.171705	-0.981599	1.243600	99
Es	-0.592864	1.585352	0.157096	99
Es	0.903819	0.583354	-0.269477	99
Es	0.535973	1.158513	-0.610724	99
42
Properties=species:S:1:pos:R:3:Z:I:1 energy=-339.94576001719895 field_type=dipole dipole="0.000000 0.000000 0.000000" charge=0
C	1.297906	0.026729	0.060851	6
C	0.393956	-1.101931	0.536371	6
N	-0.768394	-1.233251	-0.340889	7
N	-1.852704	-0.451561	-0.096939	7
C	-1.707844	0.812659	0.154601	6
O	-0.592574	1.585769	0.157481	8
C	0.536166	1.158459	-0.610899	6
H	2.043146	-0.358921	-0.645709	1
H	1.847806	0.414989	0.926651	1
H	0.965666	-2.036681	0.532551	1
H	0.074596	-0.939731	1.573221	1
H	-1.071604	-2.211142	-0.348999	1
H	-2.575064	1.423809	0.448481	1
H	1.198226	2.023549	-0.724159	1
H	0.210716	0.887259	-1.622619	1
Es	0.778890	-1.748125	0.525582	99
Es	-1.707617	0.812781	0.154624	99
Es	-1.744020	0.015113	0.303943	99
Es	-0.294024	-1.161905	0.069059	99
Es	-0.570231	1.482519	0.319941	99
Es	1.297880	0.026736	0.060843	99
Es	0.310210	0.967807	-1.293964	99
Es	-0.652399	1.912893	0.164237	99
Es	-0.677941	-1.136744	-0.612170	99
Es	-2.174029	-0.598805	-0.109169	99
Es	0.839583	-0.525284	0.296054	99
Es	-0.993574	1.251374	0.120565	99
Es	-1.291037	-0.825019	-0.195578	99
Es	-0.203797	1.385409	-0.133889	99
Es	-1.798390	0.157564	-0.278514	99
Es	-0.952387	-1.829921	-0.343108	99
Es	0.393866	-1.101922	0.536256	99
Es	0.171524	-0.981551	1.243538	99
Es	-2.292016	1.222057	0.348773	99
Es	0.535977	1.158512	-0.610728	99
Es	0.988331	1.750593	-0.681489	99
Es	-1.852097	-0.451279	-0.096936	99
Es	1.801818	-0.231699	-0.426828	99
Es	1.673480	0.294008	0.652004	99
Es	-0.592541	1.585291	0.157413	99
Es	-0.768690	-1.233318	-0.340179	99
Es	0.903826	0.583230	-0.269565	99
42
Properties=species:S:1:pos:R:3:Z:I:1 energy=-339.94576001719895 field_type=dipole dipole="0.000000 0.000000 0.000000" charge=0
C	1.297906	0.026729	0.060851	6
C	0.393956	-1.101931	0.536371	6
N	-0.768394	-1.233251	-0.340889	7
N	-1.852704	-0.451561	-0.096939	7
C	-1.707844	0.812659	0.154601	6
O	-0.592574	1.585769	0.157481	8
C	0.536166	1.158459	-0.610899	6
H	2.043146	-0.358921	-0.645709	1
H	1.847806	0.414989	0.926651	1
H	0.965666	-2.036681	0.532551	1
H	0.074596	-0.939731	1.573221	1
H	-1.071604	-2.211142	-0.348999	1
H	-2.575064	1.423809	0.448481	1
H	1.198226	2.023549	-0.724159	1
H	0.210716	0.887259	-1.622619	1
Es	0.171482	-0.981645	1.243297	99
Es	0.778977	-1.748230	0.525631	99
Es	-0.592540	1.585380	0.157332	99
Es	-1.852106	-0.451270	-0.096937	99
Es	-1.744022	0.015189	0.304029	99
Es	1.673574	0.293866	0.651996	99
Es	-0.678716	-1.136714	-0.611629	99
Es	-1.291718	-0.826179	-0.195143	99
Es	0.903754	0.583276	-0.269647	99
Es	-1.707617	0.812781	0.154624	99
Es	0.839557	-0.525108	0.296128	99
Es	-0.204546	1.386566	-0.135186	99
Es	1.297878	0.026737	0.060842	99
Es	-0.768704	-1.233315	-0.340140	99
Es	-0.293381	-1.161778	0.068646	99
Es	0.393868	-1.101925	0.536258	99
Es	0.310190	0.967910	-1.293928	99
Es	-0.952243	-1.830003	-0.343604	99
Es	-2.173073	-0.597827	-0.108865	99
Es	-0.651161	1.913246	0.169689	99
Es	1.801693	-0.231725	-0.426670	99
Es	-0.570915	1.481853	0.314983	99
Es	0.535972	1.158511	-0.610724	99
Es	-1.798479	0.157550	-0.278867	99
Es	0.988276	1.750671	-0.681457	99
Es	-2.292058	1.222089	0.348702	99
Es	-0.993349	1.250406	0.121355	99
42
Properties=species:S:1:pos:R:3:Z:I:1 energy=-339.94576001719895 field_type=dipole dipole="0.000000 0.000000 0.000000" charge=0
C	1.297906	0.026729	0.060851	6
C	0.393956	-1.101931	0.536371	6
N	-0.768394	-1.233251	-0.340889	7
N	-1.852704	-0.451561	-0.096939	7
C	-1.707844	0.812659	0.154601	6
O	-0.592574	1.585769	0.157481	8
C	0.536166	1.158459	-0.610899	6
H	2.043146	-0.358921	-0.645709	1
H	1.847806	0.414989	0.926651	1
H	0.965666	-2.036681	0.532551	1
H	0.074596	-0.939731	1.573221	1
H	-1.071604	-2.211142	-0.348999	1
H	-2.575064	1.423809	0.448481	1
H	1.198226	2.023549	-0.724159	1
H	0.210716	0.887259	-1.622619	1
Es	-0.993118	1.250470	0.120468	99
Es	1.673520	0.293896	0.651970	99
Es	-0.678374	-1.136789	-0.610691	99
Es	-1.798177	0.157717	-0.278704	99
Es	0.535974	1.158511	-0.610726	99
Es	-0.293771	-1.161840	0.069092	99
Es	-1.852135	-0.451266	-0.096926	99
Es	-0.571959	1.481524	0.313750	99
Es	-0.592637	1.585437	0.157216	99
Es	-1.707617	0.812782	0.154622	99
Es	0.839529	-0.525166	0.296032	99
Es	0.310155	0.967897	-1.293809	99
Es	-0.952143	-1.830135	-0.344294	99
Es	-0.768710	-1.233306	-0.340170	99
Es	-0.204169	1.386381	-0.134266	99
Es	1.801725	-0.231601	-0.426595	99
Es	-0.650664	1.913646	0.171013	99
Es	0.171469	-0.981631	1.243214	99
Es	-2.172759	-0.597329	-0.109063	99
Es	0.393866	-1.101922	0.536257	99
Es	0.903799	0.583216	-0.269683	99
Es	-2.292004	1.222091	0.348677	99
Es	-1.292038	-0.826267	-0.195893	99
Es	1.297878	0.026739	0.060842	99
Es	-1.744146	0.014942	0.304350	99
Es	0.778810	-1.748425	0.525582	99
Es	0.988289	1.750741	-0.681550	99
42
Properties=species:S:1:pos:R:3:Z:I:1 energy=-339.94576001719895 field_type=dipole dipole="0.000000 0.000000 0.000000" charge=0
C	1.297906	0.026729	0.060851	6
C	0.393956	-1.101931	0.536371	6
N	-0.768394	-1.233251	-0.340889	7
N	-1.852704	-0.451561	-0.096939	7
C	-1.707844	0.812659	0.154601	6
O	-0.592574	1.585769	0.157481	8
C	0.536166	1.158459	-0.610899	6
H	2.043146	-0.358921	-0.645709	1
H	1.847806	0.414989	0.926651	1
H	0.965666	-2.036681	0.532551	1
H	0.074596	-0.939731	1.573221	1
H	-1.071604	-2.211142	-0.348999	1
H	-2.575064	1.423809	0.448481	1
H	1.198226	2.023549	-0.724159	1
H	0.210716	0.887259	-1.622619	1
Es	-0.294389	-1.161822	0.069181	99
Es	-1.707617	0.812781	0.154623	99
Es	0.839527	-0.525132	0.296113	99
Es	1.801634	-0.231556	-0.426568	99
Es	0.310097	0.967993	-1.293781	99
Es	-1.744116	0.014902	0.304427	99
Es	-0.677909	-1.136591	-0.611152	99
Es	1.673596	0.293878	0.651989	99
Es	-2.172319	-0.596910	-0.108892	99
Es	-0.573789	1.481246	0.310219	99
Es	-0.203741	1.386134	-0.133514	99
Es	0.393863	-1.101922	0.536254	99
Es	-0.592654	1.585385	0.157260	99
Es	0.778914	-1.748502	0.525596	99
Es	0.535976	1.158512	-0.610727	99
Es	0.988317	1.750810	-0.681471	99
Es	-2.292056	1.222107	0.348616	99
Es	-0.768690	-1.233317	-0.340180	99
Es	-1.292407	-0.826795	-0.195855	99
Es	0.903612	0.583123	-0.269741	99
Es	-0.993057	1.250593	0.119781	99
Es	-1.798085	0.157774	-0.278877	99
Es	-1.852096	-0.451255	-0.096931	99
Es	-0.952063	-1.830289	-0.343947	99
Es	-0.649260	1.914089	0.174388	99
Es	0.171428	-0.981659	1.243061	99
Es	1.297878	0.026737	0.060842	99
42
Properties=species:S:1:pos:R:3:Z:I:1 energy=-339.94576001719895 field_type=dipole dipole="0.000000 0.000000 0.000000" charge=0
C	1.297906	0.026729	0.060851	6
C	0.393956	-1.101931	0.536371	6
N	-0.768394	-1.233251	-0.340889	7
N	-1.852704	-0.451561	-0.096939	7
C	-1.707844	0.812659	0.154601	6
O	-0.592574	1.585769	0.157481	8
C	0.536166	1.158459	-0.610899	6
H	2.043146	-0.358921	-0.645709	1
H	1.847806	0.414989	0.926651	1
H	0.965666	-2.036681	0.532551	1
H	0.074596	-0.939731	1.573221	1
H	-1.071604	-2.211142	-0.348999	1
H	-2.575064	1.423809	0.448481	1
H	1.198226	2.023549	-0.724159	1
H	0.210716	0.887259	-1.622619	1
Es	-0.951955	-1.830355	-0.344820	99
Es	-2.171821	-0.596422	-0.108999	99
Es	0.903686	0.583178	-0.269713	99
Es	-1.852086	-0.451269	-0.096931	99
Es	-1.744149	0.014937	0.304703	99
Es	-2.291988	1.222145	0.348699	99
Es	-0.592450	1.584677	0.158044	99
Es	0.988299	1.750839	-0.681442	99
Es	1.673654	0.293921	0.652165	99
Es	-0.203437	1.385528	-0.132514	99
Es	-0.294857	-1.162018	0.069544	99
Es	0.310056	0.967851	-1.293874	99
Es	1.297878	0.026736	0.060842	99
Es	-0.768726	-1.233272	-0.340186	99
Es	0.171435	-0.981645	1.243033	99
Es	-1.798230	0.157691	-0.278924	99
Es	0.535974	1.158511	-0.610726	99
Es	-1.292653	-0.826818	-0.196645	99
Es	0.393865	-1.101921	0.536258	99
Es	0.778834	-1.748586	0.525580	99
Es	1.801540	-0.231462	-0.426511	99
Es	-0.574541	1.483957	0.306956	99
Es	-1.707617	0.812782	0.154623	99
Es	-0.649478	1.914307	0.173372	99
Es	-0.677548	-1.136736	-0.610005	99
Es	-0.992596	1.248903	0.122295	99
Es	0.839506	-0.525149	0.295893	99
42
Properties=species:S:1:pos:R:3:Z:I:1 energy=-339.94576001719895 field_type=dipole dipole="0.000000 0.000000 0.000000" charge=0
C	1.297906	0.026729	0.060851	6
C	0.393956	-1.101931	0.536371	6
N	-0.768394	-1.233251	-0.340889	7
N	-1.852704	-0.451561	-0.096939	7
C	-1.707844	0.812659	0.154601	6
O	-0.592574	1.585769	0.157481	8
C	0.536166	1.158459	-0.610899	6
H	2.043146	-0.358921	-0.645709	1
H	1.847806	0.414989	0.926651	1
H	0.965666	-2.036681	0.532551	1
H	0.074596	-0.939731	1.573221	1
H	-1.071604	-2.211142	-0.348999	1
H	-2.575064	1.423809	0.448481	1
H	1.198226	2.023549	-0.724159	1
H	0.210716	0.887259	-1.622619	1
Es	-0.992600	1.249386	0.121875	99
Es	-1.852092	-0.451277	-0.096936	99
Es	0.988380	1.750845	-0.681490	99
Es	-1.798094	0.157625	-0.278895	99
Es	-0.951890	-1.830401	-0.345315	99
Es	-0.677909	-1.137081	-0.608848	99
Es	1.801531	-0.231454	-0.426517	99
Es	-2.171800	-0.596196	-0.109010	99
Es	0.903506	0.583077	-0.269760	99
Es	-2.292004	1.222120	0.348667	99
Es	-0.592488	1.585105	0.157650	99
Es	0.778865	-1.748707	0.525738	99
Es	1.297878	0.026736	0.060843	99
Es	-0.204765	1.386376	-0.134262	99
Es	0.535974	1.158511	-0.610726	99
Es	-1.292812	-0.826667	-0.197043	99
Es	0.393867	-1.101923	0.536258	99
Es	-0.648726	1.914458	0.176190	99
Es	0.310061	0.968026	-1.293707	99
Es	-0.294503	-1.162088	0.069591	99
Es	-0.573966	1.482140	0.306694	99
Es	1.673683	0.293861	0.651918	99
Es	0.839455	-0.525105	0.296009	99
Es	0.171336	-0.981565	1.242819	99
Es	-1.744044	0.015031	0.304667	99
Es	-1.707618	0.812781	0.154623	99
Es	-0.768632	-1.233300	-0.340317	99
42
Properties=species:S:1:pos:R:3:Z:I:1 energy=-339.94576001719895 field_type=dipole dipole="0.000000 0.000000 0.000000" charge=0
C	1.297906	0.026729	0.060851	6
C	0.393956	-1.101931	0.536371	6
N	-0.768394	-1.233251	-0.340889	7
N	-1.852704	-0.451561	-0.096939	7
C	-1.707844	0.812659	0.154601	6
O	-0.592574	1.585769	0.157481	8
C	0.536166	1.158459	-0.610899	6
H	2.043146	-0.358921	-0.645709	1
H	1.847806	0.414989	0.926651	1
H	0.965666	-2.036681	0.532551	1
H	0.074596	-0.939731	1.573221	1
H	-1.071604	-2.211142	-0.348999	1
H	-2.575064	1.423809	0.448481	1
H	1.198226	2.023549	-0.724159	1
H	0.210716	0.887259	-1.622619	1
Es	-0.951660	-1.830530	-0.345622	99
Es	0.310029	0.967972	-1.293729	99
Es	1.297878	0.026738	0.060842	99
Es	-0.647541	1.914831	0.177207	99
Es	1.801515	-0.231538	-0.426429	99
Es	-0.592653	1.585447	0.157215	99
Es	-0.677867	-1.137078	-0.608489	99
Es	-2.171427	-0.595933	-0.108590	99
Es	0.171324	-0.981707	1.242865	99
Es	-0.574732	1.482329	0.304680	99
Es	0.903622	0.583070	-0.269833	99
Es	-1.707618	0.812780	0.154623	99
Es	0.393867	-1.101923	0.536257	99
Es	-1.852163	-0.451252	-0.096918	99
Es	-0.768679	-1.233309	-0.340179	99
Es	-1.293172	-0.826894	-0.197145	99
Es	-0.992753	1.249196	0.122681	99
Es	0.535975	1.158512	-0.610727	99
Es	-0.204861	1.385649	-0.133629	99
Es	0.988325	1.750888	-0.681500	99
Es	0.778847	-1.748695	0.525589	99
Es	-0.294711	-1.162044	0.069388	99
Es	1.673668	0.293895	0.652083	99
Es	-1.798253	0.157647	-0.279146	99
Es	-1.743802	0.015089	0.304556	99
Es	0.839410	-0.524935	0.295996	99
Es	-2.291973	1.222108	0.348668	99
42
Properties=species:S:1:pos:R:3:Z:I:1 energy=-339.94576001719895 field_type=dipole dipole="0.000000 0.000000 0.000000" charge=0
C	1.297906	0.026729	0.060851	6
C	0.393956	-1.101931	0.536371	6
N	-0.768394	-1.233251	-0.340889	7
N	-1.852704	-0.451561	-0.096939	7
C	-1.707844	0.812659	0.154601	6
O	-0.592574	1.585769	0.157481	8
C	0.536166	1.158459	-0.610899	6
H	2.043146	-0.358921	-0.645709	1
H	1.847806	0.414989	0.926651	1
H	0.965666	-2.036681	0.532551	1
H	0.074596	-0.939731	1.573221	1
H	-1.071604	-2.211142	-0.348999	1
H	-2.575064	1.423809	0.448481	1
H	1.198226	2.023549	-0.724159	1
H	0.210716	0.887259	-1.622619	1
Es	1.801386	-0.231362	-0.426430	99
Es	0.988281	1.750956	-0.681436	99
Es	-0.768684	-1.233309	-0.340158	99
Es	-0.294250	-1.161725	0.069170	99
Es	-0.992073	1.248079	0.124459	99
Es	0.778761	-1.748798	0.525427	99
Es	1.673792	0.293914	0.652027	99
Es	-0.678640	-1.137371	-0.606934	99
Es	-0.648399	1.914783	0.177120	99
Es	-0.951426	-1.830633	-0.346600	99
Es	1.297878	0.026737	0.060843	99
Es	-1.707617	0.812781	0.154625	99
Es	-1.852087	-0.451264	-0.096933	99
Es	-0.205793	1.386331	-0.135023	99
Es	-2.171177	-0.595529	-0.108705	99
Es	-2.292023	1.222176	0.348728	99
Es	0.393864	-1.101922	0.536256	99
Es	0.535977	1.158511	-0.610728	99
Es	0.171435	-0.981760	1.242864	99
Es	-1.798100	0.157673	-0.279065	99
Es	-0.573727	1.482858	0.304078	99
Es	-0.592499	1.585239	0.157517	99
Es	-1.293472	-0.827017	-0.197489	99
Es	0.310034	0.968056	-1.293722	99
Es	0.839492	-0.525129	0.296060	99
Es	0.903566	0.582990	-0.269829	99
Es	-1.743907	0.015047	0.304591	99
42
Properties=species:S:1:pos:R:3:Z:I:1 energy=-339.94576001719895 field_type=dipole dipole="0.000000 0.000000 0.000000" charge=0
C	1.297906	0.026729	0.060851	6
C	0.393956	-1.101931	0.536371	6
N	-0.768394	-1.233251	-0.340889	7
N	-1.852704	-0.451561	-0.096939	7
C	-1.707844	0.812659	0.154601	6
O	-0.592574	1.585769	0.157481	8
C	0.536166	1.158459	-0.610899	6
H	2.043146	-0.358921	-0.645709	1
H	1.847806	0.414989	0.926651	1
H	0.965666	-2.036681	0.532551	1
H	0.074596	-0.939731	1.573221	1
H	-1.071604	-2.211142	-0.348999	1
H	-2.575064	1.423809	0.448481	1
H	1.198226	2.023549	-0.724159	1
H	0.210716	0.887259	-1.622619	1
Es	-0.768715	-1.233313	-0.340143	99
Es	0.778743	-1.748951	0.525499	99
Es	-1.293865	-0.827902	-0.197223	99
Es	-0.992156	1.248203	0.123194	99
Es	-0.951377	-1.830746	-0.346325	99
Es	-0.648098	1.914909	0.177636	99
Es	-0.574320	1.482415	0.304016	99
Es	0.535975	1.158511	-0.610726	99
Es	-1.744270	0.014571	0.304988	99
Es	0.310005	0.968025	-1.293708	99
Es	-0.679538	-1.137374	-0.607106	99
Es	0.171219	-0.981654	1.242734	99
Es	0.393867	-1.101923	0.536256	99
Es	0.839404	-0.525082	0.295955	99
Es	-1.707618	0.812782	0.154621	99
Es	-2.170544	-0.594897	-0.108845	99
Es	-0.293225	-1.161286	0.068610	99
Es	0.903549	0.583034	-0.269837	99
Es	-0.205288	1.386409	-0.134032	99
Es	1.297878	0.026737	0.060842	99
Es	-0.592690	1.585428	0.157290	99
Es	1.801479	-0.231353	-0.426395	99
Es	-1.797767	0.158057	-0.279018	99
Es	0.988341	1.750979	-0.681420	99
Es	1.673681	0.293866	0.652089	99
Es	-1.852092	-0.451264	-0.096932	99
Es	-2.291984	1.222133	0.348697	99
42
Properties=species:S:1:pos:R:3:Z:I:1 energy=-339.94576001719895 field_type=dipole dipole="0.000000 0.000000 0.000000" charge=0
C	1.297906	0.026729	0.060851	6
C	0.393956	-1.101931	0.536371	6
N	-0.768394	-1.233251	-0.340889	7
N	-1.852704	-0.451561	-0.096939	7
C	-1.707844	0.812659	0.154601	6
O	-0.592574	1.585769	0.157481	8
C	0.536166	1.158459	-0.610899	6
H	2.043146	-0.358921	-0.645709	1
H	1.847806	0.414989	0.926651	1
H	0.965666	-2.036681	0.532551	1
H	0.074596	-0.939731	1.573221	1
H	-1.071604	-2.211142	-0.348999	1
H	-2.575064	1.423809	0.448481	1
H	1.198226	2.023549	-0.724159	1
H	0.210716	0.887259	-1.622619	1
Es	-2.291961	1.222141	0.348731	99
Es	-0.295194	-1.162001	0.070079	99
Es	0.535973	1.158511	-0.610723	99
Es	-0.677459	-1.137152	-0.607319	99
Es	-0.204302	1.386191	-0.132932	99
Es	0.988347	1.751049	-0.681463	99
Es	1.801433	-0.231274	-0.426358	99
Es	-1.797923	0.157764	-0.279049	99
Es	-0.768699	-1.233288	-0.340164	99
Es	1.297878	0.026737	0.060842	99
Es	-1.707616	0.812779	0.154630	99
Es	0.309977	0.968086	-1.293599	99
Es	-1.293944	-0.827556	-0.198164	99
Es	0.171301	-0.981773	1.242563	99
Es	-1.852092	-0.451264	-0.096931	99
Es	-0.592644	1.585419	0.157279	99
Es	-0.951502	-1.830665	-0.346564	99
Es	1.673711	0.293871	0.652109	99
Es	-0.992091	1.247547	0.123451	99
Es	-1.744232	0.014800	0.305223	99
Es	-2.170386	-0.594759	-0.109118	99
Es	0.393865	-1.101920	0.536258	99
Es	0.839384	-0.524997	0.295984	99
Es	-0.576054	1.483175	0.300838	99
Es	0.778763	-1.749012	0.525510	99
Es	-0.647410	1.914995	0.179454	99
Es	0.903470	0.582908	-0.269855	99
42
Properties=species:S:1:pos:R:3:Z:I:1 energy=-339.94576001719895 field_type=dipole dipole="0.000000 0.000000 0.000000" charge=0
C	1.297906	0.026729	0.060851	6
C	0.393956	-1.101931	0.536371	6
N	-0.768394	-1.233251	-0.340889	7
N	-1.852704	-0.451561	-0.096939	7
C	-1.707844	0.812659	0.154601	6
O	-0.592574	1.585769	0.157481	8
C	0.536166	1.158459	-0.610899	6
H	2.043146	-0.358921	-0.645709	1
H	1.847806	0.414989	0.926651	1
H	0.965666	-2.036681	0.532551	1
H	0.074596	-0.939731	1.573221	1
H	-1.071604	-2.211142	-0.348999	1
H	-2.575064	1.423809	0.448481	1
H	1.198226	2.023549	-0.724159	1