42
Properties=species:S:1:pos:R:3:Z:I:1 energy=-339.99948197154833 field_type=dipole dipole="0.000000 0.000000 0.000000" charge=0
C	-1.997833	-0.908656	-0.119026	6
C	-0.739403	-0.269156	0.354044	6
N	0.504637	-1.031886	0.380774	7
C	0.369287	0.061414	-0.613596	6
C	1.203567	1.274544	-0.394956	6
N	2.077687	1.211564	0.645554	7
O	1.096197	2.254244	-1.118226	8
H	-2.728613	-0.140246	-0.389906	1
H	-2.431103	-1.523506	0.676274	1
H	-1.837033	-1.546876	-0.994446	1
H	-0.906953	0.396674	1.193654	1
H	0.397577	-1.933926	-0.087956	1
H	0.274066	-0.248396	-1.647966	1
H	2.073756	0.389234	1.238524	1
H	2.644167	2.014974	0.877254	1
Es	1.096194	2.253933	-1.118032	99
Es	1.304835	1.833762	-1.026870	99
Es	0.742628	-0.986322	0.653823	99
Es	-0.085001	-0.801466	0.468907	99
Es	1.203636	1.274477	-0.394820	99
Es	0.504243	-1.031851	0.380322	99
Es	0.303908	-0.145452	-1.306458	99
Es	-0.274203	0.086234	-0.229602	99
Es	1.292506	2.483888	-1.029379	99
Es	-2.283337	-1.323602	0.423387	99
Es	-0.845007	0.181988	0.923907	99
Es	0.423310	-1.564523	0.088762	99
Es	0.952775	2.019036	-0.730065	99
Es	-0.739180	-0.269266	0.353965	99
Es	2.400746	1.687132	0.795612	99
Es	-1.356564	-0.596976	0.104580	99
Es	2.074094	0.748251	1.005895	99
Es	2.108608	1.114202	0.295745	99
Es	0.883798	2.211108	-1.343522	99
Es	0.798421	0.647658	-0.488718	99
Es	0.369305	0.061253	-0.613378	99
Es	2.077139	1.211745	0.645577	99
Es	-1.875681	-1.343126	-0.713202	99
Es	-2.485944	-0.387273	-0.298756	99
Es	-1.997802	-0.908648	-0.119018	99
Es	1.620398	1.309642	0.416563	99
Es	0.564841	-0.591655	-0.106042	99
42
Properties=species:S:1:pos:R:3:Z:I:1 energy=-339.99948197154833 field_type=dipole dipole="0.000000 0.000000 0.000000" charge=0
C	-1.997833	-0.908656	-0.119026	6
C	-0.739403	-0.269156	0.354044	6
N	0.504637	-1.031886	0.380774	7
C	0.369287	0.061414	-0.613596	6
C	1.203567	1.274544	-0.394956	6
N	2.077687	1.211564	0.645554	7
O	1.096197	2.254244	-1.118226	8
H	-2.728613	-0.140246	-0.389906	1
H	-2.431103	-1.523506	0.676274	1
H	-1.837033	-1.546876	-0.994446	1
H	-0.906953	0.396674	1.193654	1
H	0.397577	-1.933926	-0.087956	1
H	0.274066	-0.248396	-1.647966	1
H	2.073756	0.389234	1.238524	1
H	2.644167	2.014974	0.877254	1
Es	0.303676	-0.144707	-1.306462	99
Es	1.290793	2.473542	-1.026821	99
Es	-0.083985	-0.805973	0.470874	99
Es	0.886076	2.218358	-1.350132	99
Es	-1.997804	-0.908648	-0.119018	99
Es	0.797495	0.647799	-0.488359	99
Es	-0.845510	0.180620	0.923062	99
Es	2.107447	1.116164	0.298369	99
Es	-0.739173	-0.269258	0.353958	99
Es	2.400115	1.684896	0.792910	99
Es	0.565763	-0.590048	-0.108021	99
Es	0.949889	2.021138	-0.726065	99
Es	1.096237	2.254006	-1.118030	99
Es	-1.874521	-1.341153	-0.711474	99
Es	0.423609	-1.563294	0.091290	99
Es	-1.356840	-0.597718	0.104210	99
Es	-0.273395	0.089447	-0.232622	99
Es	1.620229	1.311406	0.414190	99
Es	-2.283106	-1.325864	0.425169	99
Es	2.075286	0.745968	1.008082	99
Es	2.077495	1.211633	0.645602	99
Es	0.369306	0.061257	-0.613381	99
Es	0.504253	-1.031843	0.380334	99
Es	1.307410	1.834921	-1.027350	99
Es	1.203641	1.274474	-0.394825	99
Es	-2.485853	-0.385537	-0.300453	99
Es	0.740134	-0.987437	0.654147	99
42
Properties=species:S:1:pos:R:3:Z:I:1 energy=-339.99948197154833 field_type=dipole dipole="0.000000 0.000000 0.000000" charge=0
C	-1.997833	-0.908656	-0.119026	6
C	-0.739403	-0.269156	0.354044	6
N	0.504637	-1.031886	0.380774	7
C	0.369287	0.061414	-0.613596	6
C	1.203567	1.274544	-0.394956	6
N	2.077687	1.211564	0.645554	7
O	1.096197	2.254244	-1.118226	8
H	-2.728613	-0.140246	-0.389906	1
H	-2.431103	-1.523506	0.676274	1
H	-1.837033	-1.546876	-0.994446	1
H	-0.906953	0.396674	1.193654	1
H	0.397577	-1.933926	-0.087956	1
H	0.274066	-0.248396	-1.647966	1
H	2.073756	0.389234	1.238524	1
H	2.644167	2.014974	0.877254	1
Es	0.948856	2.017993	-0.723252	99
Es	1.203634	1.274480	-0.394824	99
Es	-0.083271	-0.808556	0.472118	99
Es	0.423933	-1.562761	0.092608	99
Es	-1.873814	-1.339893	-0.710202	99
Es	-0.273299	0.091543	-0.234435	99
Es	2.399160	1.683658	0.791770	99
Es	-0.845840	0.179544	0.922515	99
Es	-2.485711	-0.384457	-0.301581	99
Es	2.077521	1.211632	0.645603	99
Es	-2.282676	-1.327207	0.426291	99
Es	0.504251	-1.031826	0.380345	99
Es	0.303771	-0.144359	-1.306242	99
Es	0.887947	2.233481	-1.356789	99
Es	0.797025	0.647940	-0.488192	99
Es	1.307777	1.837132	-1.031935	99
Es	-0.739175	-0.269261	0.353961	99
Es	0.369302	0.061267	-0.613387	99
Es	1.289915	2.459541	-1.018636	99
Es	0.738616	-0.987881	0.653987	99
Es	2.075548	0.744960	1.009310	99
Es	2.108537	1.117515	0.304061	99
Es	0.565887	-0.589122	-0.108820	99
Es	1.619481	1.311663	0.408159	99
Es	-1.997803	-0.908648	-0.119017	99
Es	1.096219	2.253982	-1.118040	99
Es	-1.357127	-0.598209	0.103812	99
42
Properties=species:S:1:pos:R:3:Z:I:1 energy=-339.99948197154833 field_type=dipole dipole="0.000000 0.000000 0.000000" charge=0
C	-1.997833	-0.908656	-0.119026	6
C	-0.739403	-0.269156	0.354044	6
N	0.504637	-1.031886	0.380774	7
C	0.369287	0.061414	-0.613596	6
C	1.203567	1.274544	-0.394956	6
N	2.077687	1.211564	0.645554	7
O	1.096197	2.254244	-1.118226	8
H	-2.728613	-0.140246	-0.389906	1
H	-2.431103	-1.523506	0.676274	1
H	-1.837033	-1.546876	-0.994446	1
H	-0.906953	0.396674	1.193654	1
H	0.397577	-1.933926	-0.087956	1
H	0.274066	-0.248396	-1.647966	1
H	2.073756	0.389234	1.238524	1
H	2.644167	2.014974	0.877254	1
Es	-0.273078	0.092814	-0.235863	99
Es	0.890083	2.241267	-1.360310	99
Es	1.288827	2.451290	-1.015693	99
Es	2.105921	1.116981	0.303150	99
Es	1.096265	2.253954	-1.117974	99
Es	0.369304	0.061258	-0.613379	99
Es	0.565484	-0.588786	-0.109522	99
Es	1.308213	1.836393	-1.032292	99
Es	-1.357345	-0.598698	0.103870	99
Es	0.424289	-1.563060	0.094166	99
Es	-0.082411	-0.810076	0.473354	99
Es	0.737509	-0.987420	0.653219	99
Es	0.303747	-0.144073	-1.306184	99
Es	1.203639	1.274475	-0.394825	99
Es	0.796601	0.648269	-0.487971	99
Es	-1.873263	-1.338868	-0.709060	99
Es	2.075478	0.745042	1.010554	99
Es	2.401293	1.681652	0.788963	99
Es	1.619810	1.313623	0.410420	99
Es	-0.739184	-0.269257	0.353962	99
Es	-2.485479	-0.383705	-0.302598	99
Es	0.947463	2.019321	-0.722529	99
Es	2.077546	1.211625	0.645600	99
Es	-2.282549	-1.328203	0.426838	99
Es	-1.997803	-0.908649	-0.119015	99
Es	0.504247	-1.031842	0.380325	99
Es	-0.845942	0.178824	0.921981	99
42
Properties=species:S:1:pos:R:3:Z:I:1 energy=-339.99948197154833 field_type=dipole dipole="0.000000 0.000000 0.000000" charge=0
C	-1.997833	-0.908656	-0.119026	6
C	-0.739403	-0.269156	0.354044	6
N	0.504637	-1.031886	0.380774	7
C	0.369287	0.061414	-0.613596	6
C	1.203567	1.274544	-0.394956	6
N	2.077687	1.211564	0.645554	7
O	1.096197	2.254244	-1.118226	8
H	-2.728613	-0.140246	-0.389906	1
H	-2.431103	-1.523506	0.676274	1
H	-1.837033	-1.546876	-0.994446	1
H	-0.906953	0.396674	1.193654	1
H	0.397577	-1.933926	-0.087956	1
H	0.274066	-0.248396	-1.647966	1
H	2.073756	0.389234	1.238524	1
H	2.644167	2.014974	0.877254	1
Es	0.369302	0.061261	-0.613382	99
Es	1.203638	1.274474	-0.394824	99
Es	-1.357330	-0.598722	0.103622	99
Es	-1.997804	-0.908648	-0.119017	99
Es	2.104212	1.118059	0.302791	99
Es	2.077482	1.211646	0.645612	99
Es	2.401593	1.680906	0.788345	99
Es	1.287277	2.434880	-1.005970	99
Es	1.096322	2.253995	-1.117925	99
Es	0.796508	0.648409	-0.487825	99
Es	-0.082358	-0.811359	0.474720	99
Es	-1.873186	-1.338138	-0.708179	99
Es	0.504240	-1.031839	0.380325	99
Es	-0.845952	0.178404	0.921557	99
Es	0.424701	-1.562920	0.094688	99
Es	-2.282381	-1.328859	0.427269	99
Es	0.736516	-0.987655	0.652367	99
Es	-0.272699	0.093485	-0.236776	99
Es	1.619983	1.314417	0.411742	99
Es	0.565277	-0.588107	-0.109675	99
Es	-2.485363	-0.383480	-0.303277	99
Es	-0.739175	-0.269263	0.353961	99
Es	0.946001	2.015579	-0.723133	99
Es	0.894738	2.260989	-1.365795	99
Es	0.303701	-0.143952	-1.305986	99
Es	2.076627	0.743740	1.010009	99
Es	1.306795	1.836846	-1.036061	99
42
Properties=species:S:1:pos:R:3:Z:I:1 energy=-339.99948197154833 field_type=dipole dipole="0.000000 0.000000 0.000000" charge=0
C	-1.997833	-0.908656	-0.119026	6
C	-0.739403	-0.269156	0.354044	6
N	0.504637	-1.031886	0.380774	7
C	0.369287	0.061414	-0.613596	6
C	1.203567	1.274544	-0.394956	6
N	2.077687	1.211564	0.645554	7
O	1.096197	2.254244	-1.118226	8
H	-2.728613	-0.140246	-0.389906	1
H	-2.431103	-1.523506	0.676274	1
H	-1.837033	-1.546876	-0.994446	1
H	-0.906953	0.396674	1.193654	1
H	0.397577	-1.933926	-0.087956	1
H	0.274066	-0.248396	-1.647966	1
H	2.073756	0.389234	1.238524	1
H	2.644167	2.014974	0.877254	1
Es	-1.997802	-0.908648	-0.119017	99
Es	1.306515	1.836907	-1.036895	99
Es	0.425062	-1.563557	0.095475	99
Es	-0.845899	0.177973	0.921224	99
Es	0.945423	2.015507	-0.722520	99
Es	1.620107	1.314766	0.410155	99
Es	-2.485165	-0.383158	-0.303691	99
Es	1.203638	1.274476	-0.394823	99
Es	0.504239	-1.031849	0.380318	99
Es	0.565544	-0.587644	-0.109672	99
Es	2.403226	1.680305	0.786739	99
Es	2.077459	1.211658	0.645629	99
Es	-0.739174	-0.269260	0.353959	99
Es	-0.272699	0.093983	-0.237454	99
Es	-1.873120	-1.337724	-0.707647	99
Es	0.303709	-0.143989	-1.305739	99
Es	2.103048	1.117787	0.305020	99
Es	-0.081836	-0.811822	0.475230	99
Es	0.796430	0.648738	-0.487833	99
Es	2.075949	0.744041	1.010802	99
Es	-1.357497	-0.599007	0.103539	99
Es	0.735154	-0.987359	0.651651	99
Es	0.898064	2.271622	-1.368751	99
Es	1.096211	2.254031	-1.118056	99
Es	1.285037	2.424316	-1.002663	99
Es	0.369304	0.061258	-0.613383	99
Es	-2.282260	-1.329201	0.427590	99
42
Properties=species:S:1:pos:R:3:Z:I:1 energy=-339.99948197154833 field_type=dipole dipole="0.000000 0.000000 0.000000" charge=0
C	-1.997833	-0.908656	-0.119026	6
C	-0.739403	-0.269156	0.354044	6
N	0.504637	-1.031886	0.380774	7
C	0.369287	0.061414	-0.613596	6
C	1.203567	1.274544	-0.394956	6
N	2.077687	1.211564	0.645554	7
O	1.096197	2.254244	-1.118226	8
H	-2.728613	-0.140246	-0.389906	1
H	-2.431103	-1.523506	0.676274	1
H	-1.837033	-1.546876	-0.994446	1
H	-0.906953	0.396674	1.193654	1
H	0.397577	-1.933926	-0.087956	1
H	0.274066	-0.248396	-1.647966	1
H	2.073756	0.389234	1.238524	1
H	2.644167	2.014974	0.877254	1
Es	2.076712	0.743213	1.010152	99
Es	-0.739171	-0.269262	0.353959	99
Es	0.905968	2.289416	-1.372952	99
Es	-2.282414	-1.329538	0.427523	99
Es	-0.845746	0.177620	0.920865	99
Es	0.369302	0.061261	-0.613383	99
Es	2.077418	1.211675	0.645635	99
Es	0.734891	-0.987042	0.651352	99
Es	0.796618	0.649097	-0.488059	99
Es	1.279739	2.408795	-0.995493	99
Es	1.203635	1.274477	-0.394823	99
Es	2.099582	1.117988	0.301339	99
Es	0.564804	-0.587205	-0.109666	99
Es	-1.997803	-0.908648	-0.119016	99
Es	1.306553	1.838208	-1.038262	99
Es	1.096212	2.253947	-1.118027	99
Es	0.504240	-1.031853	0.380322	99
Es	2.404887	1.680048	0.785699	99
Es	1.621126	1.315598	0.415519	99
Es	-1.873278	-1.337320	-0.707172	99
Es	-2.485103	-0.383192	-0.303999	99
Es	0.942849	2.012049	-0.724141	99
Es	-1.357448	-0.599098	0.103520	99
Es	-0.272382	0.094198	-0.237653	99
Es	0.425441	-1.563826	0.095670	99
Es	-0.081441	-0.812332	0.475711	99
Es	0.303474	-0.144125	-1.305433	99
42
Properties=species:S:1:pos:R:3:Z:I:1 energy=-339.99948197154833 field_type=dipole dipole="0.000000 0.000000 0.000000" charge=0
C	-1.997833	-0.908656	-0.119026	6
C	-0.739403	-0.269156	0.354044	6
N	0.504637	-1.031886	0.380774	7
C	0.369287	0.061414	-0.613596	6
C	1.203567	1.274544	-0.394956	6
N	2.077687	1.211564	0.645554	7
O	1.096197	2.254244	-1.118226	8
H	-2.728613	-0.140246	-0.389906	1
H	-2.431103	-1.523506	0.676274	1
H	-1.837033	-1.546876	-0.994446	1
H	-0.906953	0.396674	1.193654	1
H	0.397577	-1.933926	-0.087956	1
H	0.274066	-0.248396	-1.647966	1
H	2.073756	0.389234	1.238524	1
H	2.644167	2.014974	0.877254	1
Es	1.305538	1.836451	-1.037362	99
Es	0.908281	2.292113	-1.373698	99
Es	1.620252	1.314998	0.410140	99
Es	-1.997804	-0.908648	-0.119017	99
Es	2.101322	1.118239	0.305999	99
Es	2.404282	1.679990	0.785674	99
Es	2.077426	1.211668	0.645634	99
Es	-0.845767	0.177448	0.920724	99
Es	-2.485060	-0.383069	-0.304304	99
Es	1.279769	2.405290	-0.995848	99
Es	0.425332	-1.563917	0.096213	99
Es	0.796439	0.649190	-0.487885	99
Es	0.734171	-0.987135	0.650947	99
Es	0.941715	2.014658	-0.723968	99
Es	1.203635	1.274477	-0.394822	99
Es	0.504250	-1.031861	0.380327	99
Es	2.076399	0.743470	1.010691	99
Es	-0.272376	0.094476	-0.238174	99
Es	0.565142	-0.587102	-0.109836	99
Es	-0.081281	-0.812554	0.476112	99
Es	-0.739174	-0.269259	0.353963	99
Es	1.096171	2.253962	-1.118009	99
Es	0.369306	0.061258	-0.613380	99
Es	-1.357458	-0.599095	0.103555	99
Es	-2.282284	-1.329912	0.427659	99
Es	0.303556	-0.144077	-1.305380	99
Es	-1.873117	-1.336909	-0.706770	99
42
Properties=species:S:1:pos:R:3:Z:I:1 energy=-339.99948197154833 field_type=dipole dipole="0.000000 0.000000 0.000000" charge=0
C	-1.997833	-0.908656	-0.119026	6
C	-0.739403	-0.269156	0.354044	6
N	0.504637	-1.031886	0.380774	7
C	0.369287	0.061414	-0.613596	6
C	1.203567	1.274544	-0.394956	6
N	2.077687	1.211564	0.645554	7
O	1.096197	2.254244	-1.118226	8
H	-2.728613	-0.140246	-0.389906	1
H	-2.431103	-1.523506	0.676274	1
H	-1.837033	-1.546876	-0.994446	1
H	-0.906953	0.396674	1.193654	1
H	0.397577	-1.933926	-0.087956	1
H	0.274066	-0.248396	-1.647966	1
H	2.073756	0.389234	1.238524	1
H	2.644167	2.014974	0.877254	1
Es	0.939825	2.010615	-0.725951	99
Es	2.075153	0.743971	1.011375	99
Es	-0.739182	-0.269260	0.353965	99
Es	0.425502	-1.564112	0.096227	99
Es	1.620230	1.314008	0.405052	99
Es	-0.081260	-0.812510	0.476324	99
Es	1.096206	2.253925	-1.118020	99
Es	-0.845796	0.177304	0.920769	99
Es	1.203636	1.274477	-0.394824	99
Es	-1.873244	-1.336888	-0.706824	99
Es	0.796387	0.649164	-0.487711	99
Es	2.077228	1.211738	0.645661	99
Es	0.565295	-0.586808	-0.109800	99
Es	1.305272	1.837405	-1.039810	99
Es	0.504236	-1.031839	0.380317	99
Es	0.733799	-0.987154	0.650557	99
Es	-2.282516	-1.329909	0.427551	99
Es	-0.272328	0.094488	-0.238143	99
Es	1.274885	2.392568	-0.990331	99
Es	-1.357257	-0.599196	0.103618	99
Es	0.369308	0.061256	-0.613378	99
Es	-2.484936	-0.383116	-0.304242	99
Es	2.102234	1.118246	0.310728	99
Es	-1.997800	-0.908650	-0.119020	99
Es	0.915326	2.307935	-1.374796	99
Es	2.404831	1.680506	0.785326	99
Es	0.303631	-0.144014	-1.305431	99
42
Properties=species:S:1:pos:R:3:Z:I:1 energy=-339.99948197154833 field_type=dipole dipole="0.000000 0.000000 0.000000" charge=0
C	-1.997833	-0.908656	-0.119026	6
C	-0.739403	-0.269156	0.354044	6
N	0.504637	-1.031886	0.380774	7
C	0.369287	0.061414	-0.613596	6
C	1.203567	1.274544	-0.394956	6
N	2.077687	1.211564	0.645554	7
O	1.096197	2.254244	-1.118226	8
H	-2.728613	-0.140246	-0.389906	1
H	-2.431103	-1.523506	0.676274	1
H	-1.837033	-1.546876	-0.994446	1
H	-0.906953	0.396674	1.193654	1
H	0.397577	-1.933926	-0.087956	1
H	0.274066	-0.248396	-1.647966	1
H	2.073756	0.389234	1.238524	1
H	2.644167	2.014974	0.877254	1
Es	0.425846	-1.564478	0.096810	99
Es	-1.873146	-1.336703	-0.706636	99
Es	0.303606	-0.144131	-1.305258	99
Es	0.504231	-1.031846	0.380311	99
Es	1.620087	1.314577	0.406486	99
Es	1.304618	1.837611	-1.040141	99
Es	2.077570	1.211612	0.645590	99
Es	0.940476	2.011095	-0.724690	99
Es	-0.845630	0.177163	0.920649	99
Es	0.369308	0.061253	-0.613379	99
Es	2.405602	1.680101	0.784799	99
Es	-1.997803	-0.908647	-0.119016	99
Es	0.916847	2.312037	-1.375095	99
Es	-2.484935	-0.383159	-0.304420	99
Es	2.075597	0.743664	1.011076	99
Es	1.096146	2.253864	-1.118065	99
Es	0.733048	-0.986698	0.650746	99
Es	1.273516	2.387859	-0.990931	99
Es	2.100770	1.118504	0.310143	99
Es	0.796509	0.649298	-0.487787	99
Es	-2.282438	-1.330083	0.427672	99
Es	1.203636	1.274476	-0.394822	99
Es	-1.357556	-0.599168	0.103618	99
Es	-0.739175	-0.269261	0.353959	99
Es	0.565251	-0.586996	-0.109679	99
Es	-0.081140	-0.812522	0.475744	99
Es	-0.272174	0.094729	-0.238496	99
42
Properties=species:S:1:pos:R:3:Z:I:1 energy=-339.99948197154833 field_type=dipole dipole="0.000000 0.000000 0.000000" charge=0
C	-1.997833	-0.908656	-0.119026	6
C	-0.739403	-0.269156	0.354044	6
N	0.504637	-1.031886	0.380774	7
C	0.369287	0.061414	-0.613596	6
C	1.203567	1.274544	-0.394956	6
N	2.077687	1.211564	0.645554	7
O	1.096197	2.254244	-1.118226	8
H	-2.728613	-0.140246	-0.389906	1
H	-2.431103	-1.523506	0.676274	1
H	-1.837033	-1.546876	-0.994446	1
H	-0.906953	0.396674	1.193654	1
H	0.397577	-1.933926	-0.087956	1
H	0.274066	-0.248396	-1.647966	1
H	2.073756	0.389234	1.238524	1
H	2.644167	2.014974	0.877254	1
Es	0.796423	0.649341	-0.487783	99
Es	2.077452	1.211660	0.645631	99
Es	0.565722	-0.586660	-0.109520	99
Es	0.504224	-1.031824	0.380309	99
Es	2.101196	1.118620	0.313625	99
Es	-0.739162	-0.269262	0.353960	99
Es	1.619992	1.313976	0.402896	99
Es	-1.357574	-0.599219	0.103661	99
Es	2.074904	0.743913	1.011477	99
Es	1.096184	2.253905	-1.118037	99
Es	-2.484726	-0.383068	-0.304333	99
Es	-0.845608	0.177160	0.920569	99
Es	1.203634	1.274478	-0.394821	99
Es	0.369310	0.061250	-0.613374	99
Es	-1.873182	-1.336571	-0.706714	99
Es	0.303521	-0.144114	-1.305263	99
Es	0.922432	2.318486	-1.376546	99
Es	-0.081168	-0.812499	0.476267	99
Es	-1.997802	-0.908647	-0.119017	99
Es	-0.272135	0.094578	-0.238493	99
Es	0.733351	-0.987654	0.650706	99
Es	0.425172	-1.563930	0.096180	99
Es	1.269603	2.381950	-0.988535	99
Es	2.406072	1.680312	0.784423	99
Es	1.305650	1.837337	-1.038917	99
Es	-2.282556	-1.330193	0.427690	99
Es	0.937737	2.010824	-0.726854	99
42
Properties=species:S:1:pos:R:3:Z:I:1 energy=-339.99948197154833 field_type=dipole dipole="0.000000 0.000000 0.000000" charge=0
C	-1.997833	-0.908656	-0.119026	6
C	-0.739403	-0.269156	0.354044	6
N	0.504637	-1.031886	0.380774	7
C	0.369287	0.061414	-0.613596	6
C	1.203567	1.274544	-0.394956	6
N	2.077687	1.211564	0.645554	7
O	1.096197	2.254244	-1.118226	8
H	-2.728613	-0.140246	-0.389906	1
H	-2.431103	-1.523506	0.676274	1
H	-1.837033	-1.546876	-0.994446	1
H	-0.906953	0.396674	1.193654	1
H	0.397577	-1.933926	-0.087956	1
H	0.274066	-0.248396	-1.647966	1
H	2.073756	0.389234	1.238524	1
H	2.644167	2.014974	0.877254	1
Es	-2.282514	-1.330243	0.427634	99
Es	0.369307	0.061256	-0.613380	99
Es	-0.271834	0.094604	-0.238354	99
Es	-0.845617	0.177112	0.920600	99
Es	1.267296	2.375851	-0.988299	99
Es	0.926066	2.324613	-1.376653	99
Es	1.304935	1.837489	-1.039471	99
Es	1.096160	2.253877	-1.118045	99
Es	-0.739172	-0.269257	0.353968	99
Es	2.100577	1.118526	0.314748	99
Es	2.077187	1.211736	0.645595	99
Es	0.303254	-0.144149	-1.305250	99
Es	-1.873187	-1.336532	-0.706630	99
Es	0.937164	2.010639	-0.726448	99
Es	0.732795	-0.986703	0.650775	99
Es	1.620051	1.314074	0.402448	99
Es	0.796433	0.649377	-0.487842	99
Es	-0.081062	-0.812554	0.475695	99
Es	1.203636	1.274477	-0.394822	99
Es	2.407242	1.680165	0.783699	99
Es	2.074603	0.744051	1.011560	99
Es	0.504230	-1.031845	0.380309	99
Es	-2.484844	-0.383155	-0.304380	99
Es	-1.997803	-0.908648	-0.119017	99
Es	0.565489	-0.586852	-0.109675	99
Es	-1.357556	-0.599153	0.103578	99
Es	0.425830	-1.564605	0.096843	99
42
Properties=species:S:1:pos:R:3:Z:I:1 energy=-339.99948197154833 field_type=dipole dipole="0.000000 0.000000 0.000000" charge=0
C	-1.997833	-0.908656	-0.119026	6
C	-0.739403	-0.269156	0.354044	6
N	0.504637	-1.031886	0.380774	7
C	0.369287	0.061414	-0.613596	6
C	1.203567	1.274544	-0.394956	6
N	2.077687	1.211564	0.645554	7
O	1.096197	2.254244	-1.118226	8
H	-2.728613	-0.140246	-0.389906	1
H	-2.431103	-1.523506	0.676274	1
H	-1.837033	-1.546876	-0.994446	1
H	-0.906953	0.396674	1.193654	1
H	0.397577	-1.933926	-0.087956	1
H	0.274066	-0.248396	-1.647966	1
H	2.073756	0.389234	1.238524	1
H	2.644167	2.014974	0.877254	1
Es	-2.485014	-0.383291	-0.304734	99
Es	0.938378	2.010815	-0.726173	99
Es	1.304756	1.837457	-1.039385	99
Es	-2.282528	-1.330501	0.427493	99
Es	0.564897	-0.586678	-0.109737	99
Es	2.076303	0.743084	1.010582	99
Es	-1.997803	-0.908648	-0.119017	99
Es	2.095993	1.118362	0.305866	99
Es	2.077439	1.211663	0.645627	99
Es	-1.357239	-0.599028	0.103680	99
Es	0.925197	2.325104	-1.376572	99
Es	1.621131	1.316102	0.413495	99
Es	-0.271584	0.094934	-0.238583	99
Es	-0.080453	-0.812949	0.475733	99
Es	-0.739172	-0.269261	0.353959	99
Es	0.504236	-1.031849	0.380315	99
Es	-0.845538	0.176714	0.920318	99
Es	1.096136	2.253848	-1.118056	99
Es	0.796377	0.649607	-0.487851	99
Es	0.303130	-0.144026	-1.305282	99
Es	0.733484	-0.987460	0.651563	99
Es	-1.873286	-1.336230	-0.706094	99
Es	1.267179	2.375290	-0.988702	99
Es	2.408715	1.679204	0.782553	99
Es	1.203637	1.274476	-0.394823	99
Es	0.369307	0.061257	-0.613380	99
Es	0.424990	-1.563844	0.096390	99
42
Properties=species:S:1:pos:R:3:Z:I:1 energy=-339.99948197154833 field_type=dipole dipole="0.000000 0.000000 0.000000" charge=0
C	-1.997833	-0.908656	-0.119026	6
C	-0.739403	-0.269156	0.354044	6
N	0.504637	-1.031886	0.380774	7
C	0.369287	0.061414	-0.613596	6
C	1.203567	1.274544	-0.394956	6
N	2.077687	1.211564	0.645554	7
O	1.096197	2.254244	-1.118226	8
H	-2.728613	-0.140246	-0.389906	1
H	-2.431103	-1.523506	0.676274	1
H	-1.837033	-1.546876	-0.994446	1
H	-0.906953	0.396674	1.193654	1
H	0.397577	-1.933926	-0.087956	1
H	0.274066	-0.248396	-1.647966	1
H	2.073756	0.389234	1.238524	1
H	2.644167	2.014974	0.877254	1
Es	0.937516	2.008405	-0.726567	99
Es	-0.739176	-0.269261	0.353959	99
Es	-2.484830	-0.383170	-0.304663	99
Es	-0.845503	0.176856	0.920352	99
Es	0.425380	-1.564265	0.096511	99
Es	1.203633	1.274478	-0.394821	99
Es	0.796441	0.649557	-0.487844	99
Es	-1.997803	-0.908647	-0.119017	99
Es	0.303250	-0.144098	-1.305094	99
Es	1.620239	1.314557	0.405792	99
Es	2.099109	1.118539	0.311974	99
Es	1.264385	2.371175	-0.987439	99
Es	-0.080648	-0.812882	0.475965	99
Es	2.407407	1.679991	0.783362	99
Es	0.733267	-0.987100	0.651083	99
Es	0.504231	-1.031845	0.380311	99
Es	-1.357414	-0.599161	0.103632	99
Es	1.305283	1.839030	-1.040387	99
Es	-2.282545	-1.330386	0.427660	99
Es	0.564814	-0.586654	-0.109692	99
Es	2.075311	0.743774	1.011338	99
Es	-0.271809	0.094838	-0.238677	99
Es	0.369303	0.061258	-0.613380	99
Es	1.096152	2.253880	-1.118058	99
Es	-1.873295	-1.336326	-0.706227	99
Es	0.928446	2.329974	-1.376498	99
Es	2.077523	1.211633	0.645610	99
42
Properties=species:S:1:pos:R:3:Z:I:1 energy=-339.99948197154833 field_type=dipole dipole="0.000000 0.000000 0.000000" charge=0
C	-1.997833	-0.908656	-0.119026	6
C	-0.739403	-0.269156	0.354044	6
N	0.504637	-1.031886	0.380774	7
C	0.369287	0.061414	-0.613596	6
C	1.203567	1.274544	-0.394956	6
N	2.077687	1.211564	0.645554	7
O	1.096197	2.254244	-1.118226	8
H	-2.728613	-0.140246	-0.389906	1
H	-2.431103	-1.523506	0.676274	1
H	-1.837033	-1.546876	-0.994446	1
H	-0.906953	0.396674	1.193654	1
H	0.397577	-1.933926	-0.087956	1
H	0.274066	-0.248396	-1.647966	1
H	2.073756	0.389234	1.238524	1
H	2.644167	2.014974	0.877254	1
Es	-2.488388	-0.383060	-0.305621	99
Es	-0.739173	-0.269264	0.353962	99
Es	1.342833	1.849040	-1.011709	99
Es	1.184654	2.535306	-1.183514	99
Es	1.203643	1.274472	-0.394829	99
Es	0.369303	0.061252	-0.613375	99
Es	1.822893	1.315025	0.652498	99
Es	2.108849	0.724767	0.981128	99
Es	2.077959	1.211380	0.645112	99
Es	0.568227	-0.595202	-0.111779	99
Es	0.305391	-0.142979	-1.304528	99
Es	0.952934	2.045597	-0.715754	99
Es	0.951837	2.117940	-1.219581	99
Es	-1.997804	-0.908648	-0.119017	99
Es	-1.873927	-1.337092	-0.703729	99
Es	-0.277934	0.096801	-0.233134	99
Es	1.824830	1.181337	0.149466	99
Es	0.747864	-0.995228	0.658174	99
Es	-1.357446	-0.598855	0.102791	99
Es	-0.086708	-0.810603	0.472529	99
Es	2.446369	1.636217	0.730340	99
Es	-0.844937	0.178014	0.919300	99
Es	-2.280631	-1.329463	0.425339	99
Es	0.420472	-1.549372	0.092202	99
Es	1.096377	2.254048	-1.117875	99
Es	0.504229	-1.031845	0.380306	99
Es	0.796952	0.644565	-0.489515	99
42
Properties=species:S:1:pos:R:3:Z:I:1 energy=-339.99948197154833 field_type=dipole dipole="0.000000 0.000000 0.000000" charge=0
C	-1.997833	-0.908656	-0.119026	6
C	-0.739403	-0.269156	0.354044	6
N	0.504637	-1.031886	0.380774	7
C	0.369287	0.061414	-0.613596	6
C	1.203567	1.274544	-0.394956	6
N	2.077687	1.211564	0.645554	7
O	1.096197	2.254244	-1.118226	8
H	-2.728613	-0.140246	-0.389906	1
H	-2.431103	-1.523506	0.676274	1
H	-1.837033	-1.546876	-0.994446	1
H	-0.906953	0.396674	1.193654	1
H	0.397577	-1.933926	-0.087956	1
H	0.274066	-0.248396	-1.647966	1
H	2.073756	0.389234	1.238524	1
H	2.644167	2.014974	0.877254	1
Es	-0.845413	0.176723	0.920225	99
Es	0.937421	2.010444	-0.725453	99
Es	-2.484700	-0.383020	-0.304786	99
Es	1.303278	1.837798	-1.040351	99
Es	-2.282538	-1.330548	0.427728	99
Es	2.074570	0.743785	1.011579	99
Es	1.619789	1.314098	0.400341	99
Es	1.203635	1.274477	-0.394822	99
Es	-1.873234	-1.336133	-0.706063	99
Es	-0.739173	-0.269261	0.353960	99
Es	2.077374	1.211688	0.645642	99
Es	1.095877	2.253580	-1.118218	99
Es	0.504232	-1.031847	0.380311	99
Es	1.264896	2.368210	-0.988603	99
Es	-1.997804	-0.908648	-0.119017	99
Es	0.425983	-1.564568	0.097061	99
Es	0.303278	-0.144096	-1.305130	99
Es	2.100992	1.118991	0.316545	99
Es	0.732407	-0.986773	0.650340	99
Es	0.796325	0.649632	-0.487676	99
Es	0.565293	-0.586533	-0.109738	99
Es	0.930338	2.332440	-1.376348	99
Es	-0.271833	0.094918	-0.238772	99
Es	2.406854	1.679877	0.783836	99
Es	-0.080856	-0.813006	0.476308	99
Es	0.369307	0.061257	-0.613380	99
Es	-1.357632	-0.599335	0.103665	99
42
Properties=species:S:1:pos:R:3:Z:I:1 energy=-339.99948197154833 field_type=dipole dipole="0.000000 0.000000 0.000000" charge=0
C	-1.997833	-0.908656	-0.119026	6
C	-0.739403	-0.269156	0.354044	6
N	0.504637	-1.031886	0.380774	7
C	0.369287	0.061414	-0.613596	6
C	1.203567	1.274544	-0.394956	6
N	2.077687	1.211564	0.645554	7
O	1.096197	2.254244	-1.118226	8
H	-2.728613	-0.140246	-0.389906	1
H	-2.431103	-1.523506	0.676274	1
H	-1.837033	-1.546876	-0.994446	1
H	-0.906953	0.396674	1.193654	1
H	0.397577	-1.933926	-0.087956	1
H	0.274066	-0.248396	-1.647966	1
H	2.073756	0.389234	1.238524	1
H	2.644167	2.014974	0.877254	1
Es	0.504243	-1.031847	0.380322	99
Es	0.935735	2.009382	-0.727282	99
Es	0.565336	-0.586760	-0.109931	99
Es	-1.873335	-1.336114	-0.706088	99
Es	1.260147	2.364328	-0.987498	99
Es	1.203635	1.274478	-0.394823	99
Es	1.620029	1.313067	0.399555	99
Es	0.369306	0.061256	-0.613380	99
Es	0.425594	-1.564472	0.097223	99
Es	-0.739174	-0.269261	0.353959	99
Es	2.406863	1.680796	0.783647	99
Es	0.303358	-0.144150	-1.305120	99
Es	2.100677	1.118943	0.317354	99
Es	-0.080741	-0.812725	0.476050	99
Es	2.074487	0.744029	1.011822	99
Es	-1.997804	-0.908648	-0.119017	99
Es	-0.271830	0.094902	-0.238760	99
Es	-0.845469	0.176758	0.920262	99
Es	2.077525	1.211628	0.645596	99
Es	0.732531	-0.986847	0.650645	99
Es	0.933850	2.336096	-1.377342	99
Es	0.796395	0.649605	-0.487712	99
Es	1.305514	1.838541	-1.039141	99
Es	1.096567	2.254121	-1.117705	99
Es	-1.357404	-0.599263	0.103664	99
Es	-2.282609	-1.330575	0.427598	99
Es	-2.484759	-0.383119	-0.304714	99
42
Properties=species:S:1:pos:R:3:Z:I:1 energy=-339.99948197154833 field_type=dipole dipole="0.000000 0.000000 0.000000" charge=0
C	-1.997833	-0.908656	-0.119026	6
C	-0.739403	-0.269156	0.354044	6
N	0.504637	-1.031886	0.380774	7
C	0.369287	0.061414	-0.613596	6
C	1.203567	1.274544	-0.394956	6
N	2.077687	1.211564	0.645554	7
O	1.096197	2.254244	-1.118226	8
H	-2.728613	-0.140246	-0.389906	1
H	-2.431103	-1.523506	0.676274	1
H	-1.837033	-1.546876	-0.994446	1
H	-0.906953	0.396674	1.193654	1
H	0.397577	-1.933926	-0.087956	1
H	0.274066	-0.248396	-1.647966	1
H	2.073756	0.389234	1.238524	1
H	2.644167	2.014974	0.877254	1
Es	1.304577	1.837922	-1.039766	99
Es	2.101247	1.118839	0.318224	99
Es	2.073836	0.744137	1.011985	99
Es	-1.357468	-0.599254	0.103738	99
Es	1.261505	2.364271	-0.987518	99
Es	0.425661	-1.564161	0.096755	99
Es	0.504254	-1.031849	0.380342	99
Es	1.619902	1.313793	0.398479	99
Es	0.565369	-0.586202	-0.109561	99
Es	0.933187	2.336741	-1.376704	99
Es	-0.845530	0.176674	0.920304	99
Es	-2.484669	-0.383115	-0.304767	99
Es	0.732267	-0.987308	0.650849	99
Es	0.936476	2.009804	-0.726871	99
Es	0.303472	-0.144173	-1.304933	99
Es	1.096100	2.253788	-1.118065	99
Es	1.203636	1.274477	-0.394823	99
Es	-2.282608	-1.330660	0.427698	99
Es	2.077362	1.211691	0.645642	99
Es	-1.997803	-0.908648	-0.119017	99
Es	0.369307	0.061258	-0.613381	99
Es	-0.272016	0.095101	-0.239041	99
Es	-0.739176	-0.269262	0.353961	99
Es	-0.080689	-0.813221	0.475980	99
Es	-1.873169	-1.336029	-0.706112	99
Es	2.407218	1.679956	0.783572	99
Es	0.796418	0.649583	-0.487783	99
42
Properties=species:S:1:pos:R:3:Z:I:1 energy=-339.99948197154833 field_type=dipole dipole="0.000000 0.000000 0.000000" charge=0
C	-1.997833	-0.908656	-0.119026	6
C	-0.739403	-0.269156	0.354044	6
N	0.504637	-1.031886	0.380774	7
C	0.369287	0.061414	-0.613596	6
C	1.203567	1.274544	-0.394956	6
N	2.077687	1.211564	0.645554	7
O	1.096197	2.254244	-1.118226	8
H	-2.728613	-0.140246	-0.389906	1
H	-2.431103	-1.523506	0.676274	1
H	-1.837033	-1.546876	-0.994446	1
H	-0.906953	0.396674	1.193654	1
H	0.397577	-1.933926	-0.087956	1
H	0.274066	-0.248396	-1.647966	1
H	2.073756	0.389234	1.238524	1
H	2.644167	2.014974	0.877254	1
Es	-2.280789	-1.329152	0.428414	99
Es	2.119798	1.122882	0.352285	99
Es	2.073166	0.748866	1.016842	99
Es	0.562083	-0.590911	-0.112654	99
Es	0.747448	-0.998991	0.663482	99
Es	-2.485968	-0.382723	-0.305101	99
Es	-0.846492	0.177744	0.920764	99
Es	-0.272132	0.097055	-0.236208	99
Es	2.393951	1.676539	0.787551	99
Es	0.963155	2.040988	-0.703493	99
Es	1.330815	1.854052	-1.021530	99
Es	1.203634	1.274476	-0.394823	99
Es	-0.739177	-0.269260	0.353962	99
Es	-0.082027	-0.815915	0.470514	99
Es	-1.357763	-0.598879	0.102712	99
Es	0.303926	-0.142282	-1.308851	99
Es	1.096221	2.253946	-1.118005	99
Es	1.615694	1.308193	0.356752	99
Es	-1.872320	-1.337676	-0.706137	99
Es	-1.997803	-0.908648	-0.119017	99
Es	1.206072	2.533037	-1.173386	99
Es	0.417779	-1.545085	0.092865	99
Es	0.794464	0.645763	-0.486805	99
Es	0.369304	0.061258	-0.613382	99
Es	0.504229	-1.031821	0.380337	99
Es	2.077358	1.211712	0.645704	99
Es	0.934038	2.118981	-1.233606	99
42
Properties=species:S:1:pos:R:3:Z:I:1 energy=-339.99948197154833 field_type=dipole dipole="0.000000 0.000000 0.000000" charge=0
C	-1.997833	-0.908656	-0.119026	6
C	-0.739403	-0.269156	0.354044	6
N	0.504637	-1.031886	0.380774	7
C	0.369287	0.061414	-0.613596	6
C	1.203567	1.274544	-0.394956	6
N	2.077687	1.211564	0.645554	7
O	1.096197	2.254244	-1.118226	8
H	-2.728613	-0.140246	-0.389906	1
H	-2.431103	-1.523506	0.676274	1
H	-1.837033	-1.546876	-0.994446	1
H	-0.906953	0.396674	1.193654	1
H	0.397577	-1.933926	-0.087956	1
H	0.274066	-0.248396	-1.647966	1
H	2.073756	0.389234	1.238524	1
H	2.644167	2.014974	0.877254	1
Es	1.834108	1.304622	0.648179	99