39
Properties=species:S:1:pos:R:3:Z:I:1 energy=-338.7311309461088 field_type=dipole dipole="0.000000 0.000000 0.000000" charge=0
C	-1.371590	-1.138441	-0.146697	6
C	0.142600	-0.997681	-0.146277	6
C	0.579000	0.419838	-0.155727	6
N	0.766420	1.084439	-1.299757	7
O	1.165310	2.362009	-0.912307	8
N	1.220550	2.470768	0.476953	7
C	0.858010	1.269499	0.921043	6
H	-1.654950	-2.195632	-0.135987	1
H	-1.812530	-0.676971	-1.037277	1
H	-1.813930	-0.658611	0.733263	1
H	0.554590	-1.520391	-1.018627	1
H	0.550190	-1.499671	0.738663	1
H	0.816330	1.080849	1.982733	1
Es	0.766480	1.084624	-1.299138	99
Es	-0.601011	-1.046395	-0.144795	99
Es	1.165197	2.361727	-0.912056	99
Es	1.425620	2.331141	-0.947070	99
Es	0.365683	-0.268470	-0.144576	99
Es	0.421065	-1.338489	-0.734076	99
Es	0.964073	2.538576	-0.992331	99
Es	1.169053	2.371343	-0.309187	99
Es	0.742146	1.018395	-1.663294	99
Es	-1.371530	-1.138436	-0.146685	99
Es	0.780087	1.968223	0.661922	99
Es	1.220373	2.470213	0.476648	99
Es	0.702628	0.804417	0.422453	99
Es	0.142595	-0.997588	-0.146260	99
Es	-1.664682	-0.809068	0.456013	99
Es	0.957506	0.731354	-0.754896	99
Es	0.423699	0.890711	-0.750779	99
Es	0.826195	1.130286	1.625176	99
Es	1.306333	1.802137	0.651689	99
Es	0.983290	1.805790	-1.038306	99
Es	-1.555903	-1.857536	-0.137487	99
Es	1.324918	2.798514	0.616265	99
Es	0.421121	-1.323574	0.459908	99
Es	0.579003	0.419849	-0.155775	99
Es	-1.663286	-0.825079	-0.749569	99
Es	0.858022	1.269554	0.921047	99
39
Properties=species:S:1:pos:R:3:Z:I:1 energy=-338.7311309461088 field_type=dipole dipole="0.000000 0.000000 0.000000" charge=0
C	-1.371590	-1.138441	-0.146697	6
C	0.142600	-0.997681	-0.146277	6
C	0.579000	0.419838	-0.155727	6
N	0.766420	1.084439	-1.299757	7
O	1.165310	2.362009	-0.912307	8
N	1.220550	2.470768	0.476953	7
C	0.858010	1.269499	0.921043	6
H	-1.654950	-2.195632	-0.135987	1
H	-1.812530	-0.676971	-1.037277	1
H	-1.813930	-0.658611	0.733263	1
H	0.554590	-1.520391	-1.018627	1
H	0.550190	-1.499671	0.738663	1
H	0.816330	1.080849	1.982733	1
Es	0.418339	-1.339292	-0.734320	99
Es	-1.371529	-1.138435	-0.146685	99
Es	0.578990	0.419847	-0.155770	99
Es	0.953354	0.734085	-0.754158	99
Es	0.428367	0.890768	-0.749567	99
Es	1.301852	1.803022	0.651037	99
Es	0.858026	1.269547	0.921050	99
Es	-0.599898	-1.045837	-0.144775	99
Es	0.419459	-1.325933	0.461798	99
Es	1.325455	2.798901	0.618720	99
Es	-1.662346	-0.808560	0.455801	99
Es	0.142594	-0.997588	-0.146260	99
Es	0.766483	1.084623	-1.299132	99
Es	1.165039	2.361672	-0.911971	99
Es	0.364590	-0.266756	-0.145336	99
Es	0.703124	0.806047	0.421197	99
Es	0.741487	1.015763	-1.664858	99
Es	0.825979	1.130104	1.626574	99
Es	0.987462	1.801911	-1.045701	99
Es	1.234289	2.601504	-1.114984	99
Es	1.176523	2.376268	-0.305175	99
Es	1.144501	2.268725	-0.822267	99
Es	-1.662169	-0.822838	-0.750671	99
Es	0.783582	1.964899	0.660435	99
Es	1.220372	2.470210	0.476637	99
Es	-1.555251	-1.860436	-0.136781	99
39
Properties=species:S:1:pos:R:3:Z:I:1 energy=-338.7311309461088 field_type=dipole dipole="0.000000 0.000000 0.000000" charge=0
C	-1.371590	-1.138441	-0.146697	6
C	0.142600	-0.997681	-0.146277	6
C	0.579000	0.419838	-0.155727	6
N	0.766420	1.084439	-1.299757	7
O	1.165310	2.362009	-0.912307	8
N	1.220550	2.470768	0.476953	7
C	0.858010	1.269499	0.921043	6
H	-1.654950	-2.195632	-0.135987	1
H	-1.812530	-0.676971	-1.037277	1
H	-1.813930	-0.658611	0.733263	1
H	0.554590	-1.520391	-1.018627	1
H	0.550190	-1.499671	0.738663	1
H	0.816330	1.080849	1.982733	1
Es	1.220371	2.470207	0.476635	99
Es	0.363489	-0.265572	-0.145876	99
Es	0.825645	1.129965	1.627198	99
Es	-1.660099	-0.807675	0.455589	99
Es	0.766474	1.084609	-1.299129	99
Es	1.128089	2.275775	-0.823527	99
Es	0.786250	1.962649	0.659843	99
Es	-1.660652	-0.821270	-0.751974	99
Es	0.858029	1.269546	0.921051	99
Es	1.298310	1.802182	0.649640	99
Es	0.702769	0.807374	0.420215	99
Es	0.741486	1.013502	-1.665523	99
Es	-0.598237	-1.045314	-0.145216	99
Es	-1.554694	-1.862246	-0.135635	99
Es	-1.371529	-1.138436	-0.146685	99
Es	0.579000	0.419842	-0.155768	99
Es	0.415871	-1.339994	-0.734683	99
Es	0.416781	-1.328125	0.463800	99
Es	1.326304	2.798728	0.620667	99
Es	1.165374	2.361559	-0.911960	99
Es	1.181152	2.374733	-0.305963	99
Es	0.431521	0.890962	-0.747818	99
Es	0.142595	-0.997591	-0.146262	99
Es	0.988503	1.802324	-1.045530	99
Es	0.950136	0.736212	-0.752729	99
Es	1.245739	2.598271	-1.115522	99
39
Properties=species:S:1:pos:R:3:Z:I:1 energy=-338.7311309461088 field_type=dipole dipole="0.000000 0.000000 0.000000" charge=0
C	-1.371590	-1.138441	-0.146697	6
C	0.142600	-0.997681	-0.146277	6
C	0.579000	0.419838	-0.155727	6
N	0.766420	1.084439	-1.299757	7
O	1.165310	2.362009	-0.912307	8
N	1.220550	2.470768	0.476953	7
C	0.858010	1.269499	0.921043	6
H	-1.654950	-2.195632	-0.135987	1
H	-1.812530	-0.676971	-1.037277	1
H	-1.813930	-0.658611	0.733263	1
H	0.554590	-1.520391	-1.018627	1
H	0.550190	-1.499671	0.738663	1
H	0.816330	1.080849	1.982733	1
Es	-0.596375	-1.044944	-0.145208	99
Es	0.362416	-0.264681	-0.146423	99
Es	0.701733	0.808579	0.419414	99
Es	-1.658311	-0.807145	0.455472	99
Es	0.766480	1.084618	-1.299132	99
Es	0.949126	0.738242	-0.751054	99
Es	0.787601	1.959652	0.658936	99
Es	1.220377	2.470222	0.476618	99
Es	1.327371	2.798238	0.621762	99
Es	0.741263	1.012525	-1.665684	99
Es	-1.554292	-1.863381	-0.134927	99
Es	0.142594	-0.997586	-0.146260	99
Es	1.165223	2.361633	-0.911995	99
Es	0.433447	0.889693	-0.747810	99
Es	0.858019	1.269548	0.921052	99
Es	0.986008	1.803566	-1.045174	99
Es	0.413701	-1.329770	0.465372	99
Es	1.243857	2.599250	-1.115858	99
Es	1.296407	1.803220	0.649325	99
Es	0.825264	1.129920	1.627603	99
Es	1.135658	2.274431	-0.824318	99
Es	0.578998	0.419843	-0.155768	99
Es	1.178774	2.375517	-0.306383	99
Es	0.413549	-1.340743	-0.734968	99
Es	-1.658683	-0.819789	-0.753066	99
Es	-1.371530	-1.138437	-0.146686	99
39
Properties=species:S:1:pos:R:3:Z:I:1 energy=-338.7311309461088 field_type=dipole dipole="0.000000 0.000000 0.000000" charge=0
C	-1.371590	-1.138441	-0.146697	6
C	0.142600	-0.997681	-0.146277	6
C	0.579000	0.419838	-0.155727	6
N	0.766420	1.084439	-1.299757	7
O	1.165310	2.362009	-0.912307	8
N	1.220550	2.470768	0.476953	7
C	0.858010	1.269499	0.921043	6
H	-1.654950	-2.195632	-0.135987	1
H	-1.812530	-0.676971	-1.037277	1
H	-1.813930	-0.658611	0.733263	1
H	0.554590	-1.520391	-1.018627	1
H	0.550190	-1.499671	0.738663	1
H	0.816330	1.080849	1.982733	1
Es	1.180100	2.374964	-0.306640	99
Es	0.142588	-0.997589	-0.146259	99
Es	1.328711	2.797918	0.622539	99
Es	0.788499	1.957632	0.658280	99
Es	-1.554235	-1.864125	-0.134090	99
Es	1.134275	2.275791	-0.824969	99
Es	1.245942	2.598739	-1.116016	99
Es	0.766484	1.084639	-1.299127	99
Es	0.411351	-1.341279	-0.735267	99
Es	0.434557	0.889706	-0.746903	99
Es	1.294992	1.803991	0.648759	99
Es	0.947852	0.739027	-0.750524	99
Es	0.824843	1.129798	1.627828	99
Es	0.741472	1.011620	-1.665816	99
Es	0.700978	0.809506	0.418960	99
Es	1.220372	2.470209	0.476630	99
Es	0.858023	1.269547	0.921053	99
Es	0.578998	0.419841	-0.155769	99
Es	-1.656609	-0.806612	0.455192	99
Es	-0.594113	-1.044544	-0.145259	99
Es	1.164823	2.361668	-0.911914	99
Es	0.361908	-0.264132	-0.146780	99
Es	0.409822	-1.331356	0.466692	99
Es	0.984952	1.804241	-1.045016	99
Es	-1.371532	-1.138436	-0.146685	99
Es	-1.656378	-0.818541	-0.754061	99
39
Properties=species:S:1:pos:R:3:Z:I:1 energy=-338.7311309461088 field_type=dipole dipole="0.000000 0.000000 0.000000" charge=0
C	-1.371590	-1.138441	-0.146697	6
C	0.142600	-0.997681	-0.146277	6
C	0.579000	0.419838	-0.155727	6
N	0.766420	1.084439	-1.299757	7
O	1.165310	2.362009	-0.912307	8
N	1.220550	2.470768	0.476953	7
C	0.858010	1.269499	0.921043	6
H	-1.654950	-2.195632	-0.135987	1
H	-1.812530	-0.676971	-1.037277	1
H	-1.813930	-0.658611	0.733263	1
H	0.554590	-1.520391	-1.018627	1
H	0.550190	-1.499671	0.738663	1
H	0.816330	1.080849	1.982733	1
Es	0.766471	1.084602	-1.299136	99
Es	0.789293	1.956061	0.657881	99
Es	0.578996	0.419842	-0.155768	99
Es	0.983010	1.805255	-1.044888	99
Es	-1.655337	-0.806241	0.454888	99
Es	1.180218	2.375068	-0.306950	99
Es	1.329540	2.797389	0.623071	99
Es	0.142593	-0.997587	-0.146259	99
Es	0.408645	-1.341928	-0.735589	99
Es	0.858022	1.269545	0.921054	99
Es	0.406146	-1.332506	0.467624	99
Es	1.294134	1.804634	0.648299	99
Es	0.741370	1.011151	-1.665664	99
Es	0.824591	1.129705	1.628016	99
Es	-0.591364	-1.044015	-0.144785	99
Es	-1.554314	-1.864606	-0.133452	99
Es	0.435417	0.888656	-0.747148	99
Es	1.164863	2.361665	-0.911905	99
Es	-1.371529	-1.138436	-0.146685	99
Es	1.134282	2.276292	-0.825419	99
Es	1.248148	2.598137	-1.116186	99
Es	0.700122	0.810335	0.418528	99
Es	1.220372	2.470210	0.476651	99
Es	-1.654027	-0.817556	-0.754786	99
Es	0.361674	-0.263833	-0.147223	99
Es	0.947337	0.740382	-0.749329	99
39
Properties=species:S:1:pos:R:3:Z:I:1 energy=-338.7311309461088 field_type=dipole dipole="0.000000 0.000000 0.000000" charge=0
C	-1.371590	-1.138441	-0.146697	6
C	0.142600	-0.997681	-0.146277	6
C	0.579000	0.419838	-0.155727	6
N	0.766420	1.084439	-1.299757	7
O	1.165310	2.362009	-0.912307	8
N	1.220550	2.470768	0.476953	7
C	0.858010	1.269499	0.921043	6
H	-1.654950	-2.195632	-0.135987	1
H	-1.812530	-0.676971	-1.037277	1
H	-1.813930	-0.658611	0.733263	1
H	0.554590	-1.520391	-1.018627	1
H	0.550190	-1.499671	0.738663	1
H	0.816330	1.080849	1.982733	1
Es	0.982733	1.805546	-1.044987	99
Es	1.133871	2.277024	-0.825763	99
Es	-0.589192	-1.043926	-0.144908	99
Es	0.741481	1.010739	-1.665510	99
Es	1.164622	2.361676	-0.911856	99
Es	0.578996	0.419842	-0.155769	99
Es	-1.654093	-0.805941	0.454826	99
Es	0.946701	0.742125	-0.747791	99
Es	0.436103	0.887338	-0.747973	99
Es	-1.554370	-1.864872	-0.132973	99
Es	0.361402	-0.263636	-0.147354	99
Es	0.766485	1.084640	-1.299131	99
Es	0.790496	1.950239	0.655424	99
Es	1.220375	2.470214	0.476618	99
Es	-1.652190	-0.816835	-0.755266	99
Es	1.292347	1.809805	0.650335	99
Es	0.142588	-0.997588	-0.146261	99
Es	1.180562	2.374813	-0.307164	99
Es	0.407186	-1.342209	-0.735727	99
Es	0.858014	1.269549	0.921053	99
Es	0.699733	0.810789	0.418171	99
Es	1.249041	2.598076	-1.116149	99
Es	-1.371528	-1.138436	-0.146685	99
Es	1.330426	2.797024	0.623375	99
Es	0.402520	-1.333331	0.468267	99
Es	0.824364	1.129557	1.628035	99
39
Properties=species:S:1:pos:R:3:Z:I:1 energy=-338.7311309461088 field_type=dipole dipole="0.000000 0.000000 0.000000" charge=0
C	-1.371590	-1.138441	-0.146697	6
C	0.142600	-0.997681	-0.146277	6
C	0.579000	0.419838	-0.155727	6
N	0.766420	1.084439	-1.299757	7
O	1.165310	2.362009	-0.912307	8
N	1.220550	2.470768	0.476953	7
C	0.858010	1.269499	0.921043	6
H	-1.654950	-2.195632	-0.135987	1
H	-1.812530	-0.676971	-1.037277	1
H	-1.813930	-0.658611	0.733263	1
H	0.554590	-1.520391	-1.018627	1
H	0.550190	-1.499671	0.738663	1
H	0.816330	1.080849	1.982733	1
Es	1.330887	2.796909	0.623503	99
Es	0.578995	0.419843	-0.155768	99
Es	1.249664	2.597846	-1.116291	99
Es	0.791205	1.949077	0.655146	99
Es	0.399411	-1.334081	0.468666	99
Es	0.142592	-0.997586	-0.146260	99
Es	-1.371533	-1.138435	-0.146682	99
Es	0.946408	0.742809	-0.747133	99
Es	-0.586989	-1.043768	-0.144567	99
Es	1.134081	2.277004	-0.825921	99
Es	-1.650182	-0.816197	-0.755688	99
Es	1.181362	2.374520	-0.307206	99
Es	0.436734	0.886800	-0.748014	99
Es	1.165405	2.361543	-0.911962	99
Es	0.980576	1.806546	-1.044887	99
Es	-1.653126	-0.805753	0.454416	99
Es	1.291937	1.810387	0.650156	99
Es	0.824135	1.129495	1.628100	99
Es	0.858018	1.269548	0.921053	99
Es	0.741476	1.010481	-1.665456	99
Es	0.361349	-0.263547	-0.147614	99
Es	0.698776	0.811408	0.417932	99
Es	1.220369	2.470204	0.476631	99
Es	0.405284	-1.342390	-0.735834	99
Es	0.766479	1.084633	-1.299124	99
Es	-1.554639	-1.865075	-0.132357	99
39
Properties=species:S:1:pos:R:3:Z:I:1 energy=-338.7311309461088 field_type=dipole dipole="0.000000 0.000000 0.000000" charge=0
C	-1.371590	-1.138441	-0.146697	6
C	0.142600	-0.997681	-0.146277	6
C	0.579000	0.419838	-0.155727	6
N	0.766420	1.084439	-1.299757	7
O	1.165310	2.362009	-0.912307	8
N	1.220550	2.470768	0.476953	7
C	0.858010	1.269499	0.921043	6
H	-1.654950	-2.195632	-0.135987	1
H	-1.812530	-0.676971	-1.037277	1
H	-1.813930	-0.658611	0.733263	1
H	0.554590	-1.520391	-1.018627	1
H	0.550190	-1.499671	0.738663	1
H	0.816330	1.080849	1.982733	1
Es	-0.585953	-1.043613	-0.144404	99
Es	0.397780	-1.334361	0.468817	99
Es	1.180761	2.374752	-0.307394	99
Es	1.285508	1.819602	0.654265	99
Es	0.797088	1.939212	0.651100	99
Es	0.404753	-1.342434	-0.735810	99
Es	0.361338	-0.263504	-0.147502	99
Es	0.858014	1.269549	0.921053	99
Es	-1.371528	-1.138436	-0.146685	99
Es	-1.649244	-0.815896	-0.755800	99
Es	1.330765	2.796732	0.623457	99
Es	0.578995	0.419842	-0.155767	99
Es	1.165186	2.361655	-0.911996	99
Es	1.220371	2.470205	0.476632	99
Es	0.438108	0.883996	-0.750378	99
Es	-1.554551	-1.865195	-0.132330	99
Es	0.742001	1.010397	-1.665180	99
Es	0.699056	0.811540	0.417735	99
Es	-1.653060	-0.805817	0.454317	99
Es	0.142592	-0.997588	-0.146260	99
Es	0.824012	1.129238	1.628044	99
Es	1.133672	2.277712	-0.825822	99
Es	0.766480	1.084632	-1.299126	99
Es	0.982147	1.806055	-1.044981	99
Es	1.249601	2.598015	-1.116306	99
Es	0.944782	0.745932	-0.744840	99
39
Properties=species:S:1:pos:R:3:Z:I:1 energy=-338.7311309461088 field_type=dipole dipole="0.000000 0.000000 0.000000" charge=0
C	-1.371590	-1.138441	-0.146697	6
C	0.142600	-0.997681	-0.146277	6
C	0.579000	0.419838	-0.155727	6
N	0.766420	1.084439	-1.299757	7
O	1.165310	2.362009	-0.912307	8
N	1.220550	2.470768	0.476953	7
C	0.858010	1.269499	0.921043	6
H	-1.654950	-2.195632	-0.135987	1
H	-1.812530	-0.676971	-1.037277	1
H	-1.813930	-0.658611	0.733263	1
H	0.554590	-1.520391	-1.018627	1
H	0.550190	-1.499671	0.738663	1
H	0.816330	1.080849	1.982733	1
Es	-1.554806	-1.865253	-0.131945	99
Es	-1.652422	-0.805778	0.454052	99
Es	0.435938	0.888313	-0.746697	99
Es	-1.371523	-1.138436	-0.146686	99
Es	-1.647896	-0.815451	-0.756014	99
Es	0.980347	1.806815	-1.044951	99
Es	1.182031	2.374471	-0.307561	99
Es	1.134161	2.277881	-0.825930	99
Es	0.578996	0.419842	-0.155768	99
Es	0.361402	-0.263434	-0.147695	99
Es	0.946787	0.741916	-0.748237	99
Es	1.331027	2.796406	0.623536	99
Es	-0.585058	-1.043686	-0.144208	99
Es	0.396005	-1.334713	0.468897	99
Es	1.250186	2.597896	-1.116276	99
Es	0.858015	1.269549	0.921053	99
Es	1.164908	2.361675	-0.911935	99
Es	0.403740	-1.342529	-0.735746	99
Es	0.823878	1.129221	1.628083	99
Es	0.766479	1.084622	-1.299126	99
Es	0.699009	0.811640	0.417590	99
Es	0.802660	1.933283	0.649005	99
Es	1.279926	1.824992	0.656145	99
Es	0.741926	1.010358	-1.665122	99
Es	0.142587	-0.997586	-0.146259	99
Es	1.220372	2.470205	0.476632	99
39
Properties=species:S:1:pos:R:3:Z:I:1 energy=-338.7311309461088 field_type=dipole dipole="0.000000 0.000000 0.000000" charge=0
C	-1.371590	-1.138441	-0.146697	6
C	0.142600	-0.997681	-0.146277	6
C	0.579000	0.419838	-0.155727	6
N	0.766420	1.084439	-1.299757	7
O	1.165310	2.362009	-0.912307	8
N	1.220550	2.470768	0.476953	7
C	0.858010	1.269499	0.921043	6
H	-1.654950	-2.195632	-0.135987	1
H	-1.812530	-0.676971	-1.037277	1
H	-1.813930	-0.658611	0.733263	1
H	0.554590	-1.520391	-1.018627	1
H	0.550190	-1.499671	0.738663	1
H	0.816330	1.080849	1.982733	1
Es	0.766487	1.084632	-1.299123	99
Es	0.742064	1.010220	-1.664970	99
Es	0.142591	-0.997585	-0.146260	99
Es	0.395216	-1.334889	0.468952	99
Es	-1.647167	-0.815216	-0.756103	99
Es	-0.585636	-1.043970	-0.144439	99
Es	-1.651778	-0.805644	0.453997	99
Es	1.249846	2.598093	-1.116385	99
Es	0.807466	1.928656	0.647456	99
Es	-1.371525	-1.138436	-0.146684	99
Es	0.361435	-0.263425	-0.147776	99
Es	1.220371	2.470202	0.476633	99
Es	0.858015	1.269549	0.921053	99
Es	0.981203	1.806613	-1.044978	99
Es	0.403809	-1.342417	-0.735452	99
Es	1.165736	2.361134	-0.911677	99
Es	-1.554932	-1.865310	-0.131697	99
Es	1.134114	2.278415	-0.826277	99
Es	1.330964	2.796379	0.623507	99
Es	1.275201	1.829130	0.657633	99
Es	0.698752	0.811792	0.417497	99
Es	0.437060	0.885688	-0.749000	99
Es	0.945803	0.744837	-0.745762	99
Es	1.180838	2.374783	-0.307618	99
Es	0.579000	0.419842	-0.155768	99
Es	0.823742	1.129147	1.628081	99
39
Properties=species:S:1:pos:R:3:Z:I:1 energy=-338.7311309461088 field_type=dipole dipole="0.000000 0.000000 0.000000" charge=0
C	-1.371590	-1.138441	-0.146697	6
C	0.142600	-0.997681	-0.146277	6
C	0.579000	0.419838	-0.155727	6
N	0.766420	1.084439	-1.299757	7
O	1.165310	2.362009	-0.912307	8
N	1.220550	2.470768	0.476953	7
C	0.858010	1.269499	0.921043	6
H	-1.654950	-2.195632	-0.135987	1
H	-1.812530	-0.676971	-1.037277	1
H	-1.813930	-0.658611	0.733263	1
H	0.554590	-1.520391	-1.018627	1
H	0.550190	-1.499671	0.738663	1
H	0.816330	1.080849	1.982733	1
Es	1.331098	2.796106	0.623606	99
Es	0.943246	0.748162	-0.743248	99
Es	0.858016	1.269549	0.921053	99
Es	0.392831	-1.335103	0.469122	99
Es	-1.651990	-0.805766	0.453600	99
Es	0.403048	-1.342524	-0.735485	99
Es	1.164676	2.361629	-0.911844	99
Es	0.766481	1.084632	-1.299124	99
Es	-1.646518	-0.815105	-0.756188	99
Es	-1.371519	-1.138434	-0.146684	99
Es	1.181281	2.374922	-0.307733	99
Es	0.439682	0.882272	-0.751441	99
Es	1.251030	2.597713	-1.116330	99
Es	-1.554930	-1.865398	-0.131473	99
Es	1.134206	2.278376	-0.826232	99
Es	0.980699	1.806814	-1.044963	99
Es	0.805760	1.929936	0.647920	99
Es	1.276763	1.827613	0.656994	99
Es	-0.582905	-1.043589	-0.144108	99
Es	0.823705	1.129084	1.628081	99
Es	1.220370	2.470200	0.476632	99
Es	0.698616	0.811974	0.417439	99
Es	0.361369	-0.263393	-0.147880	99
Es	0.578995	0.419842	-0.155768	99
Es	0.742077	1.010293	-1.664843	99
Es	0.142589	-0.997585	-0.146259	99
39
Properties=species:S:1:pos:R:3:Z:I:1 energy=-338.7311309461088 field_type=dipole dipole="0.000000 0.000000 0.000000" charge=0
C	-1.371590	-1.138441	-0.146697	6
C	0.142600	-0.997681	-0.146277	6
C	0.579000	0.419838	-0.155727	6
N	0.766420	1.084439	-1.299757	7
O	1.165310	2.362009	-0.912307	8
N	1.220550	2.470768	0.476953	7
C	0.858010	1.269499	0.921043	6
H	-1.654950	-2.195632	-0.135987	1
H	-1.812530	-0.676971	-1.037277	1
H	-1.813930	-0.658611	0.733263	1
H	0.554590	-1.520391	-1.018627	1
H	0.550190	-1.499671	0.738663	1
H	0.816330	1.080849	1.982733	1
Es	1.263748	1.837359	0.660338	99
Es	1.182186	2.374424	-0.307847	99
Es	1.250847	2.597832	-1.116399	99
Es	0.392894	-1.335240	0.469065	99
Es	0.818484	1.919681	0.644711	99
Es	0.858012	1.269551	0.921053	99
Es	1.220371	2.470203	0.476632	99
Es	0.946887	0.740613	-0.749880	99
Es	-1.555209	-1.865398	-0.131122	99
Es	0.361538	-0.263390	-0.148019	99
Es	1.331542	2.795963	0.623516	99
Es	0.980387	1.807015	-1.044983	99
Es	0.741944	1.010119	-1.664817	99
Es	0.698678	0.812026	0.417324	99
Es	-1.371526	-1.138436	-0.146685	99
Es	0.402853	-1.342424	-0.735228	99
Es	0.823685	1.128950	1.628067	99
Es	0.142594	-0.997589	-0.146260	99
Es	0.766481	1.084632	-1.299124	99
Es	1.133207	2.278919	-0.825970	99
Es	-1.651584	-0.805868	0.453262	99
Es	-1.646442	-0.814887	-0.756183	99
Es	0.578994	0.419842	-0.155769	99
Es	0.435892	0.890462	-0.744777	99
Es	1.165429	2.361518	-0.911939	99
Es	-0.583218	-1.043657	-0.144129	99
39
Properties=species:S:1:pos:R:3:Z:I:1 energy=-338.7311309461088 field_type=dipole dipole="0.000000 0.000000 0.000000" charge=0
C	-1.371590	-1.138441	-0.146697	6
C	0.142600	-0.997681	-0.146277	6
C	0.579000	0.419838	-0.155727	6
N	0.766420	1.084439	-1.299757	7
O	1.165310	2.362009	-0.912307	8
N	1.220550	2.470768	0.476953	7
C	0.858010	1.269499	0.921043	6
H	-1.654950	-2.195632	-0.135987	1
H	-1.812530	-0.676971	-1.037277	1
H	-1.813930	-0.658611	0.733263	1
H	0.554590	-1.520391	-1.018627	1
H	0.550190	-1.499671	0.738663	1
H	0.816330	1.080849	1.982733	1
Es	1.331146	2.796025	0.623397	99
Es	0.813702	1.923255	0.645801	99
Es	0.698177	0.812348	0.417219	99
Es	0.942986	0.748953	-0.742624	99
Es	1.250924	2.597852	-1.116356	99
Es	1.134800	2.278284	-0.826222	99
Es	0.823515	1.128895	1.628079	99
Es	0.742330	1.010229	-1.664580	99
Es	0.142590	-0.997586	-0.146259	99
Es	1.269074	1.833655	0.659187	99
Es	1.165333	2.361588	-0.911980	99
Es	0.440076	0.881643	-0.751881	99
Es	1.220371	2.470202	0.476638	99
Es	-1.651470	-0.805865	0.453375	99
Es	1.180895	2.374880	-0.307813	99
Es	0.766477	1.084620	-1.299126	99
Es	0.361384	-0.263319	-0.147905	99
Es	0.391387	-1.335351	0.469144	99
Es	0.402640	-1.342473	-0.735255	99
Es	0.979920	1.807297	-1.045066	99
Es	-1.645577	-0.814697	-0.756273	99
Es	-0.582370	-1.043749	-0.144070	99
Es	-1.555120	-1.865421	-0.131188	99
Es	-1.371527	-1.138436	-0.146686	99
Es	0.578994	0.419842	-0.155769	99
Es	0.858018	1.269548	0.921053	99
39
Properties=species:S:1:pos:R:3:Z:I:1 energy=-338.7311309461088 field_type=dipole dipole="0.000000 0.000000 0.000000" charge=0
C	-1.371590	-1.138441	-0.146697	6
C	0.142600	-0.997681	-0.146277	6
C	0.579000	0.419838	-0.155727	6
N	0.766420	1.084439	-1.299757	7
O	1.165310	2.362009	-0.912307	8
N	1.220550	2.470768	0.476953	7
C	0.858010	1.269499	0.921043	6
H	-1.654950	-2.195632	-0.135987	1
H	-1.812530	-0.676971	-1.037277	1
H	-1.813930	-0.658611	0.733263	1
H	0.554590	-1.520391	-1.018627	1
H	0.550190	-1.499671	0.738663	1
H	0.816330	1.080849	1.982733	1
Es	-1.651670	-0.805853	0.453237	99
Es	1.220374	2.470211	0.476617	99
Es	0.578993	0.419843	-0.155769	99
Es	-1.645570	-0.814733	-0.756251	99
Es	0.943806	0.748503	-0.743238	99
Es	0.361432	-0.263359	-0.147809	99
Es	-1.555116	-1.865468	-0.131148	99
Es	1.250924	2.597886	-1.116417	99
Es	1.330942	2.795894	0.623314	99
Es	0.439252	0.882363	-0.751500	99
Es	0.980545	1.807136	-1.045119	99
Es	-0.582489	-1.043665	-0.144011	99
Es	-1.371527	-1.138437	-0.146685	99
Es	0.391577	-1.335413	0.469106	99
Es	0.858015	1.269549	0.921053	99
Es	1.134068	2.278831	-0.826104	99
Es	1.260711	1.839508	0.661298	99
Es	0.402709	-1.342416	-0.735202	99
Es	0.142590	-0.997586	-0.146261	99
Es	0.766480	1.084629	-1.299124	99
Es	0.823477	1.128800	1.628040	99
Es	0.698265	0.812335	0.417160	99
Es	1.165356	2.361574	-0.911974	99
Es	0.821811	1.916942	0.643894	99
Es	1.181278	2.374837	-0.307902	99
Es	0.742441	1.010310	-1.664367	99
39
Properties=species:S:1:pos:R:3:Z:I:1 energy=-338.7311309461088 field_type=dipole dipole="0.000000 0.000000 0.000000" charge=0
C	-1.371590	-1.138441	-0.146697	6
C	0.142600	-0.997681	-0.146277	6
C	0.579000	0.419838	-0.155727	6
N	0.766420	1.084439	-1.299757	7
O	1.165310	2.362009	-0.912307	8
N	1.220550	2.470768	0.476953	7
C	0.858010	1.269499	0.921043	6
H	-1.654950	-2.195632	-0.135987	1
H	-1.812530	-0.676971	-1.037277	1
H	-1.813930	-0.658611	0.733263	1
H	0.554590	-1.520391	-1.018627	1
H	0.550190	-1.499671	0.738663	1
H	0.816330	1.080849	1.982733	1
Es	0.361543	-0.263342	-0.147903	99
Es	0.742617	1.010326	-1.664286	99
Es	1.133989	2.279049	-0.826056	99
Es	-1.371529	-1.138436	-0.146685	99
Es	0.440817	0.880625	-0.752774	99
Es	0.402973	-1.342346	-0.734910	99
Es	0.390747	-1.335439	0.469145	99
Es	1.330908	2.795888	0.623348	99
Es	0.858015	1.269549	0.921053	99
Es	1.220372	2.470204	0.476622	99
Es	0.823576	1.128731	1.628030	99
Es	0.766484	1.084642	-1.299124	99
Es	1.251426	2.597707	-1.116408	99
Es	-0.582722	-1.043862	-0.144138	99
Es	1.165052	2.361669	-0.911978	99
Es	-1.555233	-1.865475	-0.131056	99
Es	0.822299	1.916356	0.643737	99
Es	0.698192	0.812436	0.417161	99
Es	-1.644958	-0.814585	-0.756295	99
Es	1.260111	1.839823	0.661340	99
Es	0.578998	0.419841	-0.155768	99
Es	0.142579	-0.997585	-0.146259	99
Es	0.980419	1.807236	-1.045150	99
Es	1.181402	2.374800	-0.307905	99
Es	0.942019	0.750275	-0.742072	99
Es	-1.651419	-0.805866	0.453171	99
39
Properties=species:S:1:pos:R:3:Z:I:1 energy=-338.7311309461088 field_type=dipole dipole="0.000000 0.000000 0.000000" charge=0
C	-1.371590	-1.138441	-0.146697	6
C	0.142600	-0.997681	-0.146277	6
C	0.579000	0.419838	-0.155727	6
N	0.766420	1.084439	-1.299757	7
O	1.165310	2.362009	-0.912307	8
N	1.220550	2.470768	0.476953	7
C	0.858010	1.269499	0.921043	6
H	-1.654950	-2.195632	-0.135987	1
H	-1.812530	-0.676971	-1.037277	1
H	-1.813930	-0.658611	0.733263	1
H	0.554590	-1.520391	-1.018627	1
H	0.550190	-1.499671	0.738663	1
H	0.816330	1.080849	1.982733	1
Es	1.330890	2.795866	0.623236	99
Es	0.578993	0.419842	-0.155769	99
Es	1.251838	2.597584	-1.116439	99
Es	0.390738	-1.335523	0.469124	99
Es	-1.371503	-1.138435	-0.146684	99
Es	-0.582467	-1.043582	-0.143894	99
Es	0.142592	-0.997588	-0.146259	99
Es	0.361690	-0.263416	-0.147878	99
Es	1.180348	2.375125	-0.307929	99
Es	-1.651773	-0.806066	0.452937	99
Es	-1.644941	-0.814561	-0.756333	99
Es	0.981780	1.806753	-1.045193	99
Es	0.858016	1.269549	0.921053	99
Es	1.132962	2.279408	-0.826207	99
Es	0.697932	0.812617	0.417157	99
Es	0.402761	-1.342281	-0.734949	99
Es	0.449293	0.873967	-0.756825	99
Es	0.823451	1.128578	1.628016	99
Es	0.766481	1.084633	-1.299122	99
Es	-1.555052	-1.865519	-0.130980	99
Es	0.742860	1.010335	-1.664143	99
Es	1.220374	2.470203	0.476624	99
Es	0.933688	0.756937	-0.737829	99
Es	1.165222	2.361654	-0.911996	99
Es	0.817513	1.919540	0.644782	99
Es	1.264987	1.836602	0.660339	99
39
Properties=species:S:1:pos:R:3:Z:I:1 energy=-338.7311309461088 field_type=dipole dipole="0.000000 0.000000 0.000000" charge=0
C	-1.371590	-1.138441	-0.146697	6
C	0.142600	-0.997681	-0.146277	6
C	0.579000	0.419838	-0.155727	6
N	0.766420	1.084439	-1.299757	7
O	1.165310	2.362009	-0.912307	8
N	1.220550	2.470768	0.476953	7
C	0.858010	1.269499	0.921043	6
H	-1.654950	-2.195632	-0.135987	1
H	-1.812530	-0.676971	-1.037277	1
H	-1.813930	-0.658611	0.733263	1
H	0.554590	-1.520391	-1.018627	1
H	0.550190	-1.499671	0.738663	1
H	0.816330	1.080849	1.982733	1
Es	0.828095	1.912194	0.642472	99
Es	-0.582694	-1.043709	-0.144077	99
Es	-1.555049	-1.865538	-0.130942	99
Es	-1.371529	-1.138436	-0.146686	99
Es	1.330805	2.795745	0.623130	99
Es	0.742823	1.010405	-1.664084	99
Es	0.823376	1.128601	1.628023	99
Es	0.766482	1.084635	-1.299123	99
Es	-1.651825	-0.806027	0.452892	99
Es	1.251442	2.597734	-1.116456	99
Es	1.254103	1.843767	0.662762	99
Es	0.361438	-0.263360	-0.147784	99
Es	-1.645021	-0.814576	-0.756320	99
Es	0.698249	0.812488	0.417036	99
Es	0.938371	0.753730	-0.739810	99
Es	0.578994	0.419842	-0.155768	99
Es	1.132813	2.279588	-0.826187	99
Es	1.220369	2.470196	0.476635	99
Es	1.165211	2.361646	-0.911996	99
Es	1.181078	2.375014	-0.307981	99
Es	0.142593	-0.997587	-0.146261	99
Es	0.858028	1.269545	0.921052	99
Es	0.444655	0.877313	-0.754873	99
Es	0.390659	-1.335571	0.469138	99
Es	0.403356	-1.342148	-0.734762	99
Es	0.981851	1.806730	-1.045191	99
39
Properties=species:S:1:pos:R:3:Z:I:1 energy=-338.7311309461088 field_type=dipole dipole="0.000000 0.000000 0.000000" charge=0
C	-1.371590	-1.138441	-0.146697	6
C	0.142600	-0.997681	-0.146277	6
C	0.579000	0.419838	-0.155727	6
N	0.766420	1.084439	-1.299757	7
O	1.165310	2.362009	-0.912307	8
N	1.220550	2.470768	0.476953	7
C	0.858010	1.269499	0.921043	6
H	-1.654950	-2.195632	-0.135987	1
H	-1.812530	-0.676971	-1.037277	1
H	-1.813930	-0.658611	0.733263	1
H	0.554590	-1.520391	-1.018627	1
H	0.550190	-1.499671	0.738663	1
H	0.816330	1.080849	1.982733	1
Es	-0.581439	-1.043587	-0.143860	99
Es	0.946245	0.746148	-0.745222	99
Es	1.251660	2.597732	-1.116422	99
Es	-1.371527	-1.138436	-0.146684	99
Es	1.243474	1.850042	0.664514	99
Es	0.402227	-1.342250	-0.734777	99
Es	0.858014	1.269550	0.921052	99
Es	0.390107	-1.335679	0.469130	99
Es	0.142592	-0.997588	-0.146259	99
Es	1.165317	2.361600	-0.911981	99
Es	0.361579	-0.263352	-0.148030	99
Es	0.766483	1.084638	-1.299124	99
Es	0.578993	0.419842	-0.155768	99
Es	-1.555335	-1.865517	-0.130638	99
Es	0.698105	0.812607	0.416968	99
Es	1.331307	2.795587	0.623175	99
Es	1.134116	2.279321	-0.826075	99
Es	0.838741	1.905517	0.640741	99
Es	0.979948	1.807499	-1.045190	99
Es	-1.651355	-0.806120	0.452627	99
Es	1.220368	2.470200	0.476630	99
Es	0.742566	1.010257	-1.664127	99
Es	1.181308	2.374816	-0.308060	99
Es	0.436784	0.885289	-0.749477	99
Es	-1.644984	-0.814409	-0.756303	99
Es	0.823376	1.128512	1.628000	99
39
Properties=species:S:1:pos:R:3:Z:I:1 energy=-338.7311309461088 field_type=dipole dipole="0.000000 0.000000 0.000000" charge=0
C	-1.371590	-1.138441	-0.146697	6
C	0.142600	-0.997681	-0.146277	6
C	0.579000	0.419838	-0.155727	6
N	0.766420	1.084439	-1.299757	7
O	1.165310	2.362009	-0.912307	8
N	1.220550	2.470768	0.476953	7
C	0.858010	1.269499	0.921043	6
H	-1.654950	-2.195632	-0.135987	1
H	-1.812530	-0.676971	-1.037277	1
H	-1.813930	-0.658611	0.733263	1
H	0.554590	-1.520391	-1.018627	1
H	0.550190	-1.499671	0.738663	1
H	0.816330	1.080849	1.982733	1
Es	0.858016	1.269549	0.921053	99
Es	0.830290	1.910557	0.642040	99
Es	0.361582	-0.263332	-0.147686	99
Es	-1.651719	-0.806147	0.452686	99
Es	1.220373	2.470210	0.476664	99
Es	0.142581	-0.997584	-0.146260	99
Es	-0.582350	-1.043706	-0.143978	99
Es	-1.371524	-1.138435	-0.146686	99
Es	1.134138	2.279236	-0.826259	99
Es	-1.644538	-0.814405	-0.756377	99
Es	0.697986	0.812652	0.416971	99
Es	0.389899	-1.335741	0.469078	99
Es	0.743171	1.010281	-1.663918	99
Es	0.403177	-1.342057	-0.734694	99
Es	0.446659	0.875648	-0.755898	99
Es	1.251050	2.597907	-1.116504	99
Es	0.980918	1.807186	-1.045265	99
Es	1.180984	2.375014	-0.308017	99
Es	1.252022	1.845060	0.663154	99
Es	0.766482	1.084634	-1.299122	99
Es	1.330725	2.795731	0.623080	99
Es	1.165264	2.361623	-0.911996	99
Es	0.578993	0.419843	-0.155769	99
Es	-1.555148	-1.865532	-0.130772	99
Es	0.936323	0.755548	-0.738689	99
Es	0.823320	1.128480	1.628002	99
39
Properties=species:S:1:pos:R:3:Z:I:1 energy=-338.7311309461088 field_type=dipole dipole="0.000000 0.000000 0.000000" charge=0
C	-1.371590	-1.138441	-0.146697	6
C	0.142600	-0.997681	-0.146277	6
C	0.579000	0.419838	-0.155727	6
N	0.766420	1.084439	-1.299757	7
O	1.165310	2.362009	-0.912307	8
N	1.220550	2.470768	0.476953	7
C	0.858010	1.269499	0.921043	6
H	-1.654950	-2.195632	-0.135987	1
H	-1.812530	-0.676971	-1.037277	1
H	-1.813930	-0.658611	0.733263	1
H	0.554590	-1.520391	-1.018627	1
H	0.550190	-1.499671	0.738663	1
H	0.816330	1.080849	1.982733	1
Es	1.250829	2.598081	-1.116472	99
Es	0.823263	1.128421	1.628003	99
Es	0.858005	1.269554	0.921053	99
Es	1.330904	2.795568	0.623127	99
Es	-0.581678	-1.043694	-0.143938	99
Es	0.361650	-0.263336	-0.147860	99
Es	0.742815	1.010391	-1.663882	99
Es	-1.651532	-0.806140	0.452573	99
Es	0.402763	-1.342064	-0.734588	99
Es	0.578992	0.419843	-0.155768	99
Es	0.142589	-0.997587	-0.146259	99
Es	0.938344	0.754167	-0.739705	99
Es	1.247291	1.847815	0.663911	99
Es	-1.555407	-1.865498	-0.130666	99
Es	1.165238	2.361636	-0.911995	99
Es	-1.371530	-1.138437	-0.146685	99
Es	0.981105	1.807062	-1.045230	99
Es	0.835091	1.907411	0.641308	99