46
Properties=species:S:1:pos:R:3:Z:I:1 energy=-325.1165030988107 field_type=dipole dipole="0.000000 0.000000 0.000000" charge=0
C	-0.715888	-1.760073	-1.206511	6
C	-0.416688	-1.236623	0.190299	6
C	0.371142	0.071417	0.142239	6
O	1.658052	-0.162223	-0.490331	8
C	-0.409088	1.323437	-0.345421	6
N	0.166472	2.095827	0.777689	7
C	0.429702	0.829947	1.498129	6
H	-1.293358	-2.687983	-1.146811	1
H	0.205312	-1.970693	-1.758901	1
H	-1.296208	-1.034843	-1.785431	1
H	0.150202	-1.992393	0.747169	1
H	-1.365048	-1.095853	0.723249	1
H	2.102092	0.701777	-0.474791	1
H	-1.501788	1.239487	-0.299831	1
H	-0.132358	1.697257	-1.336231	1
H	1.010312	2.612867	0.532589	1
H	1.393362	0.800217	2.016189	1
H	-0.356228	0.568447	2.216709	1
Es	0.166856	2.095427	0.777411	99
Es	0.313491	1.576537	1.130462	99
Es	-0.216488	1.580932	-1.024079	99
Es	-1.151602	1.256664	-0.303390	99
Es	-0.052694	2.326301	0.937797	99
Es	-0.026620	-1.748230	0.572748	99
Es	-1.064593	-1.126085	0.556008	99
Es	-0.564734	-1.494971	-0.511324	99
Es	1.092552	0.811515	1.851516	99
Es	-1.114360	-1.258358	-1.597206	99
Es	1.179065	-0.046626	-0.250665	99
Es	-0.416688	-1.236610	0.190265	99
Es	-0.047487	0.655805	-0.189728	99
Es	1.657937	-0.161926	-0.490206	99
Es	0.371345	0.071413	0.142149	99
Es	-1.113477	-2.392644	-1.163003	99
Es	-0.114651	0.648501	1.976383	99
Es	0.429680	0.830077	1.498054	99
Es	-0.083899	1.807992	0.256358	99
Es	0.435172	0.378228	0.871966	99
Es	-0.093663	-1.903569	-1.578647	99
Es	-0.715899	-1.760058	-1.206479	99
Es	1.599065	-0.228953	-0.783470	99
Es	-0.019782	-0.590311	0.157681	99
Es	-0.409022	1.323504	-0.345309	99
Es	1.886118	0.312106	-0.476257	99
Es	0.695416	2.366239	0.608905	99
Es	1.811270	-0.344069	-0.297917	99
46
Properties=species:S:1:pos:R:3:Z:I:1 energy=-325.1165030988107 field_type=dipole dipole="0.000000 0.000000 0.000000" charge=0
C	-0.715888	-1.760073	-1.206511	6
C	-0.416688	-1.236623	0.190299	6
C	0.371142	0.071417	0.142239	6
O	1.658052	-0.162223	-0.490331	8
C	-0.409088	1.323437	-0.345421	6
N	0.166472	2.095827	0.777689	7
C	0.429702	0.829947	1.498129	6
H	-1.293358	-2.687983	-1.146811	1
H	0.205312	-1.970693	-1.758901	1
H	-1.296208	-1.034843	-1.785431	1
H	0.150202	-1.992393	0.747169	1
H	-1.365048	-1.095853	0.723249	1
H	2.102092	0.701777	-0.474791	1
H	-1.501788	1.239487	-0.299831	1
H	-0.132358	1.697257	-1.336231	1
H	1.010312	2.612867	0.532589	1
H	1.393362	0.800217	2.016189	1
H	-0.356228	0.568447	2.216709	1
Es	1.598279	-0.225261	-0.779736	99
Es	0.312242	1.576330	1.130863	99
Es	1.092834	0.811375	1.851058	99
Es	1.887559	0.312700	-0.476784	99
Es	-0.051161	2.323503	0.936526	99
Es	-1.114226	-1.258235	-1.596679	99
Es	-0.047394	0.656318	-0.189465	99
Es	1.177836	-0.047460	-0.250273	99
Es	-0.416688	-1.236610	0.190265	99
Es	1.657927	-0.161886	-0.490178	99
Es	-0.019576	-0.590303	0.157698	99
Es	-0.715898	-1.760058	-1.206478	99
Es	1.811925	-0.347410	-0.301558	99
Es	-0.026768	-1.748307	0.572355	99
Es	0.435309	0.378994	0.871929	99
Es	-0.216159	1.580905	-1.024255	99
Es	-0.564691	-1.495001	-0.511478	99
Es	0.429679	0.830078	1.498053	99
Es	-1.065015	-1.126311	0.556053	99
Es	-1.113897	-2.393111	-1.162722	99
Es	-0.115172	0.648093	1.976676	99
Es	-0.093235	-1.903161	-1.578726	99
Es	0.166856	2.095448	0.777398	99
Es	0.696511	2.368369	0.609310	99
Es	0.371348	0.071412	0.142148	99
Es	-0.085014	1.808415	0.256412	99
Es	-0.409025	1.323506	-0.345311	99
Es	-1.152078	1.256499	-0.303080	99
46
Properties=species:S:1:pos:R:3:Z:I:1 energy=-325.1165030988107 field_type=dipole dipole="0.000000 0.000000 0.000000" charge=0
C	-0.715888	-1.760073	-1.206511	6
C	-0.416688	-1.236623	0.190299	6
C	0.371142	0.071417	0.142239	6
O	1.658052	-0.162223	-0.490331	8
C	-0.409088	1.323437	-0.345421	6
N	0.166472	2.095827	0.777689	7
C	0.429702	0.829947	1.498129	6
H	-1.293358	-2.687983	-1.146811	1
H	0.205312	-1.970693	-1.758901	1
H	-1.296208	-1.034843	-1.785431	1
H	0.150202	-1.992393	0.747169	1
H	-1.365048	-1.095853	0.723249	1
H	2.102092	0.701777	-0.474791	1
H	-1.501788	1.239487	-0.299831	1
H	-0.132358	1.697257	-1.336231	1
H	1.010312	2.612867	0.532589	1
H	1.393362	0.800217	2.016189	1
H	-0.356228	0.568447	2.216709	1
Es	1.812037	-0.350731	-0.305099	99
Es	-1.065418	-1.126518	0.556146	99
Es	-0.215939	1.580989	-1.024455	99
Es	0.429680	0.830077	1.498054	99
Es	0.311494	1.576224	1.131827	99
Es	0.371343	0.071414	0.142150	99
Es	-0.050699	2.322366	0.934979	99
Es	-0.026882	-1.748253	0.571995	99
Es	-0.416689	-1.236612	0.190267	99
Es	-0.047398	0.656672	-0.189300	99
Es	-1.114137	-1.258182	-1.596457	99
Es	-0.715898	-1.760058	-1.206477	99
Es	1.092991	0.811257	1.850816	99
Es	-0.409024	1.323505	-0.345310	99
Es	-0.019322	-0.590236	0.157522	99
Es	-0.564527	-1.495025	-0.511406	99
Es	1.177002	-0.048611	-0.250310	99
Es	1.657950	-0.161961	-0.490224	99
Es	-0.085002	1.808217	0.256868	99
Es	0.435290	0.379351	0.872033	99
Es	1.888800	0.312941	-0.474975	99
Es	0.696950	2.369426	0.609225	99
Es	-0.093050	-1.902994	-1.578743	99
Es	1.597859	-0.220790	-0.777892	99
Es	-0.115561	0.647911	1.976813	99
Es	-1.152269	1.256322	-0.302880	99
Es	0.166847	2.095453	0.777410	99
Es	-1.114116	-2.393323	-1.162554	99
46
Properties=species:S:1:pos:R:3:Z:I:1 energy=-325.1165030988107 field_type=dipole dipole="0.000000 0.000000 0.000000" charge=0
C	-0.715888	-1.760073	-1.206511	6
C	-0.416688	-1.236623	0.190299	6
C	0.371142	0.071417	0.142239	6
O	1.658052	-0.162223	-0.490331	8
C	-0.409088	1.323437	-0.345421	6
N	0.166472	2.095827	0.777689	7
C	0.429702	0.829947	1.498129	6
H	-1.293358	-2.687983	-1.146811	1
H	0.205312	-1.970693	-1.758901	1
H	-1.296208	-1.034843	-1.785431	1
H	0.150202	-1.992393	0.747169	1
H	-1.365048	-1.095853	0.723249	1
H	2.102092	0.701777	-0.474791	1
H	-1.501788	1.239487	-0.299831	1
H	-0.132358	1.697257	-1.336231	1
H	1.010312	2.612867	0.532589	1
H	1.393362	0.800217	2.016189	1
H	-0.356228	0.568447	2.216709	1
Es	-0.115838	0.647736	1.976812	99
Es	1.598039	-0.223464	-0.775556	99
Es	-1.113965	-1.258195	-1.596209	99
Es	0.435277	0.379753	0.872066	99
Es	-0.085690	1.808251	0.256980	99
Es	-0.215670	1.580976	-1.024528	99
Es	0.310902	1.576144	1.132839	99
Es	-0.564631	-1.495025	-0.511494	99
Es	0.429679	0.830076	1.498055	99
Es	-1.152556	1.256173	-0.302768	99
Es	-0.049487	2.320903	0.933690	99
Es	-0.026960	-1.748252	0.571847	99
Es	-1.065551	-1.126574	0.556194	99
Es	-0.092805	-1.902837	-1.578773	99
Es	-1.114377	-2.393457	-1.162520	99
Es	-0.047331	0.657013	-0.189193	99
Es	0.166884	2.095414	0.777387	99
Es	1.812363	-0.349035	-0.303793	99
Es	0.697041	2.370643	0.609289	99
Es	1.176746	-0.048213	-0.250252	99
Es	0.371347	0.071412	0.142147	99
Es	-0.416688	-1.236610	0.190265	99
Es	1.093205	0.811202	1.850709	99
Es	-0.715899	-1.760058	-1.206478	99
Es	1.657949	-0.162004	-0.490226	99
Es	1.888632	0.313574	-0.478671	99
Es	-0.019282	-0.590219	0.157515	99
Es	-0.409025	1.323504	-0.345312	99
46
Properties=species:S:1:pos:R:3:Z:I:1 energy=-325.1165030988107 field_type=dipole dipole="0.000000 0.000000 0.000000" charge=0
C	-0.715888	-1.760073	-1.206511	6
C	-0.416688	-1.236623	0.190299	6
C	0.371142	0.071417	0.142239	6
O	1.658052	-0.162223	-0.490331	8
C	-0.409088	1.323437	-0.345421	6
N	0.166472	2.095827	0.777689	7
C	0.429702	0.829947	1.498129	6
H	-1.293358	-2.687983	-1.146811	1
H	0.205312	-1.970693	-1.758901	1
H	-1.296208	-1.034843	-1.785431	1
H	0.150202	-1.992393	0.747169	1
H	-1.365048	-1.095853	0.723249	1
H	2.102092	0.701777	-0.474791	1
H	-1.501788	1.239487	-0.299831	1
H	-0.132358	1.697257	-1.336231	1
H	1.010312	2.612867	0.532589	1
H	1.393362	0.800217	2.016189	1
H	-0.356228	0.568447	2.216709	1
Es	-1.152675	1.256096	-0.302666	99
Es	-0.564657	-1.494874	-0.511528	99
Es	-0.715899	-1.760058	-1.206478	99
Es	-0.116002	0.647664	1.976777	99
Es	-0.215530	1.580985	-1.024632	99
Es	0.310678	1.576119	1.132659	99
Es	-0.026962	-1.748404	0.571757	99
Es	-0.086504	1.808462	0.257308	99
Es	1.812240	-0.347007	-0.303769	99
Es	0.166886	2.095427	0.777393	99
Es	-0.416688	-1.236610	0.190265	99
Es	-0.047396	0.657284	-0.189134	99
Es	1.093318	0.811073	1.850661	99
Es	0.371346	0.071413	0.142148	99
Es	1.176799	-0.048538	-0.249065	99
Es	-0.092723	-1.902811	-1.578762	99
Es	1.657978	-0.161965	-0.490229	99
Es	0.697433	2.370870	0.609003	99
Es	1.597877	-0.225718	-0.774228	99
Es	-1.114485	-2.393536	-1.162370	99
Es	-1.113928	-1.258171	-1.596150	99
Es	-0.019195	-0.590173	0.157434	99
Es	-0.048747	2.320331	0.933656	99
Es	0.435212	0.379863	0.872213	99
Es	0.429680	0.830075	1.498055	99
Es	-1.065630	-1.126564	0.556179	99
Es	-0.409024	1.323505	-0.345309	99
Es	1.888907	0.314094	-0.481164	99
46
Properties=species:S:1:pos:R:3:Z:I:1 energy=-325.1165030988107 field_type=dipole dipole="0.000000 0.000000 0.000000" charge=0
C	-0.715888	-1.760073	-1.206511	6
C	-0.416688	-1.236623	0.190299	6
C	0.371142	0.071417	0.142239	6
O	1.658052	-0.162223	-0.490331	8
C	-0.409088	1.323437	-0.345421	6
N	0.166472	2.095827	0.777689	7
C	0.429702	0.829947	1.498129	6
H	-1.293358	-2.687983	-1.146811	1
H	0.205312	-1.970693	-1.758901	1
H	-1.296208	-1.034843	-1.785431	1
H	0.150202	-1.992393	0.747169	1
H	-1.365048	-1.095853	0.723249	1
H	2.102092	0.701777	-0.474791	1
H	-1.501788	1.239487	-0.299831	1
H	-0.132358	1.697257	-1.336231	1
H	1.010312	2.612867	0.532589	1
H	1.393362	0.800217	2.016189	1
H	-0.356228	0.568447	2.216709	1
Es	-0.409025	1.323507	-0.345308	99
Es	-0.715899	-1.760059	-1.206480	99
Es	0.435400	0.380163	0.872258	99
Es	-1.114462	-2.393720	-1.162241	99
Es	-1.114025	-1.258195	-1.595987	99
Es	-0.047460	0.657395	-0.188968	99
Es	0.371347	0.071413	0.142148	99
Es	0.429678	0.830077	1.498055	99
Es	-0.116190	0.647376	1.976868	99
Es	1.093387	0.811091	1.850463	99
Es	0.166862	2.095420	0.777401	99
Es	1.811336	-0.345142	-0.302237	99
Es	1.599961	-0.227579	-0.775034	99
Es	1.175904	-0.048367	-0.250503	99
Es	0.310025	1.576120	1.133212	99
Es	-0.416688	-1.236610	0.190265	99
Es	-1.065818	-1.126767	0.556152	99
Es	-0.092555	-1.902580	-1.578793	99
Es	-0.086949	1.808517	0.257321	99
Es	-0.027000	-1.748350	0.571620	99
Es	0.697641	2.371017	0.609028	99
Es	-1.152768	1.256084	-0.302646	99
Es	-0.564595	-1.494908	-0.511585	99
Es	1.888708	0.313937	-0.480482	99
Es	1.657905	-0.161870	-0.490222	99
Es	-0.215339	1.581052	-1.024693	99
Es	-0.019132	-0.590136	0.157515	99
Es	-0.047941	2.319946	0.932897	99
46
Properties=species:S:1:pos:R:3:Z:I:1 energy=-325.1165030988107 field_type=dipole dipole="0.000000 0.000000 0.000000" charge=0
C	-0.715888	-1.760073	-1.206511	6
C	-0.416688	-1.236623	0.190299	6
C	0.371142	0.071417	0.142239	6
O	1.658052	-0.162223	-0.490331	8
C	-0.409088	1.323437	-0.345421	6
N	0.166472	2.095827	0.777689	7
C	0.429702	0.829947	1.498129	6
H	-1.293358	-2.687983	-1.146811	1
H	0.205312	-1.970693	-1.758901	1
H	-1.296208	-1.034843	-1.785431	1
H	0.150202	-1.992393	0.747169	1
H	-1.365048	-1.095853	0.723249	1
H	2.102092	0.701777	-0.474791	1
H	-1.501788	1.239487	-0.299831	1
H	-0.132358	1.697257	-1.336231	1
H	1.010312	2.612867	0.532589	1
H	1.393362	0.800217	2.016189	1
H	-0.356228	0.568447	2.216709	1
Es	-0.116307	0.647293	1.976881	99
Es	-0.215263	1.581057	-1.024754	99
Es	1.175522	-0.048493	-0.251398	99
Es	1.093539	0.811001	1.850356	99
Es	-1.114623	-2.393697	-1.162251	99
Es	-1.113906	-1.257993	-1.595956	99
Es	-0.019078	-0.590137	0.157453	99
Es	-0.416686	-1.236611	0.190265	99
Es	0.697811	2.371547	0.608946	99
Es	0.309809	1.576110	1.133389	99
Es	0.429680	0.830077	1.498054	99
Es	1.657964	-0.161967	-0.490247	99
Es	-0.564584	-1.495114	-0.511530	99
Es	-0.715899	-1.760057	-1.206478	99
Es	-1.065840	-1.126722	0.556265	99
Es	-0.087008	1.808452	0.257577	99
Es	-0.047742	2.319318	0.932477	99
Es	0.435318	0.380404	0.872258	99
Es	1.600756	-0.228345	-0.774817	99
Es	0.166809	2.095459	0.777436	99
Es	-0.047477	0.657586	-0.188980	99
Es	1.810865	-0.344379	-0.301389	99
Es	-0.092591	-1.902679	-1.578740	99
Es	1.888768	0.314136	-0.480631	99
Es	-0.026997	-1.748304	0.571555	99
Es	-1.152861	1.255971	-0.302556	99
Es	0.371350	0.071412	0.142146	99
Es	-0.409023	1.323505	-0.345308	99
46
Properties=species:S:1:pos:R:3:Z:I:1 energy=-325.1165030988107 field_type=dipole dipole="0.000000 0.000000 0.000000" charge=0
C	-0.715888	-1.760073	-1.206511	6
C	-0.416688	-1.236623	0.190299	6
C	0.371142	0.071417	0.142239	6
O	1.658052	-0.162223	-0.490331	8
C	-0.409088	1.323437	-0.345421	6
N	0.166472	2.095827	0.777689	7
C	0.429702	0.829947	1.498129	6
H	-1.293358	-2.687983	-1.146811	1
H	0.205312	-1.970693	-1.758901	1
H	-1.296208	-1.034843	-1.785431	1
H	0.150202	-1.992393	0.747169	1
H	-1.365048	-1.095853	0.723249	1
H	2.102092	0.701777	-0.474791	1
H	-1.501788	1.239487	-0.299831	1
H	-0.132358	1.697257	-1.336231	1
H	1.010312	2.612867	0.532589	1
H	1.393362	0.800217	2.016189	1
H	-0.356228	0.568447	2.216709	1
Es	1.598816	-0.223811	-0.774022	99
Es	-1.065900	-1.126723	0.556246	99
Es	0.371343	0.071414	0.142150	99
Es	0.429678	0.830078	1.498053	99
Es	0.435354	0.380535	0.872407	99
Es	-0.564627	-1.494912	-0.511528	99
Es	-1.113835	-1.258080	-1.595948	99
Es	-0.715899	-1.760058	-1.206478	99
Es	0.166847	2.095425	0.777436	99
Es	-0.092502	-1.902718	-1.578758	99
Es	1.093589	0.811031	1.850309	99
Es	-0.046993	2.318945	0.932299	99
Es	-0.416688	-1.236610	0.190265	99
Es	-0.026995	-1.748396	0.571499	99
Es	-0.047448	0.657629	-0.188907	99
Es	-0.409024	1.323505	-0.345309	99
Es	-0.215185	1.581102	-1.024873	99
Es	-1.152882	1.255922	-0.302457	99
Es	-0.087757	1.808437	0.257538	99
Es	1.811834	-0.347740	-0.305604	99
Es	0.697888	2.371666	0.608889	99
Es	1.175733	-0.049502	-0.249480	99
Es	-1.114718	-2.393663	-1.162186	99
Es	-0.116342	0.647202	1.976905	99
Es	0.309609	1.576279	1.133543	99
Es	1.889526	0.313990	-0.479183	99
Es	-0.019073	-0.590167	0.157429	99
Es	1.657959	-0.161948	-0.490210	99
46
Properties=species:S:1:pos:R:3:Z:I:1 energy=-325.1165030988107 field_type=dipole dipole="0.000000 0.000000 0.000000" charge=0
C	-0.715888	-1.760073	-1.206511	6
C	-0.416688	-1.236623	0.190299	6
C	0.371142	0.071417	0.142239	6
O	1.658052	-0.162223	-0.490331	8
C	-0.409088	1.323437	-0.345421	6
N	0.166472	2.095827	0.777689	7
C	0.429702	0.829947	1.498129	6
H	-1.293358	-2.687983	-1.146811	1
H	0.205312	-1.970693	-1.758901	1
H	-1.296208	-1.034843	-1.785431	1
H	0.150202	-1.992393	0.747169	1
H	-1.365048	-1.095853	0.723249	1
H	2.102092	0.701777	-0.474791	1
H	-1.501788	1.239487	-0.299831	1
H	-0.132358	1.697257	-1.336231	1
H	1.010312	2.612867	0.532589	1
H	1.393362	0.800217	2.016189	1
H	-0.356228	0.568447	2.216709	1
Es	-1.153019	1.255839	-0.302358	99
Es	1.889520	0.314058	-0.480419	99
Es	0.166871	2.095409	0.777385	99
Es	0.435273	0.380624	0.872344	99
Es	-0.409026	1.323502	-0.345312	99
Es	0.371346	0.071413	0.142147	99
Es	-0.046783	2.318542	0.931698	99
Es	-1.114769	-2.393682	-1.162198	99
Es	-0.087572	1.808373	0.257519	99
Es	-1.065913	-1.126806	0.556322	99
Es	-0.416688	-1.236610	0.190265	99
Es	1.599235	-0.225509	-0.773628	99
Es	1.175725	-0.048740	-0.250153	99
Es	-0.018988	-0.590145	0.157507	99
Es	0.429680	0.830077	1.498056	99
Es	-0.715899	-1.760058	-1.206479	99
Es	1.657969	-0.161944	-0.490236	99
Es	-0.092363	-1.902667	-1.578724	99
Es	1.811469	-0.346840	-0.304029	99
Es	0.698008	2.372011	0.609055	99
Es	-0.564781	-1.494894	-0.511560	99
Es	-0.027007	-1.748410	0.571367	99
Es	-0.215099	1.581089	-1.024895	99
Es	1.093672	0.810996	1.850263	99
Es	-0.047500	0.657823	-0.188947	99
Es	0.309208	1.576233	1.134000	99
Es	-1.113795	-1.258083	-1.595892	99
Es	-0.116466	0.647228	1.976923	99
46
Properties=species:S:1:pos:R:3:Z:I:1 energy=-325.1165030988107 field_type=dipole dipole="0.000000 0.000000 0.000000" charge=0
C	-0.715888	-1.760073	-1.206511	6
C	-0.416688	-1.236623	0.190299	6
C	0.371142	0.071417	0.142239	6
O	1.658052	-0.162223	-0.490331	8
C	-0.409088	1.323437	-0.345421	6
N	0.166472	2.095827	0.777689	7
C	0.429702	0.829947	1.498129	6
H	-1.293358	-2.687983	-1.146811	1
H	0.205312	-1.970693	-1.758901	1
H	-1.296208	-1.034843	-1.785431	1
H	0.150202	-1.992393	0.747169	1
H	-1.365048	-1.095853	0.723249	1
H	2.102092	0.701777	-0.474791	1
H	-1.501788	1.239487	-0.299831	1
H	-0.132358	1.697257	-1.336231	1
H	1.010312	2.612867	0.532589	1
H	1.393362	0.800217	2.016189	1
H	-0.356228	0.568447	2.216709	1
Es	-1.065979	-1.126789	0.556316	99
Es	-1.114791	-2.393693	-1.162124	99
Es	-0.092345	-1.902682	-1.578719	99
Es	1.093789	0.810964	1.850257	99
Es	-1.152980	1.255835	-0.302351	99
Es	0.429679	0.830078	1.498054	99
Es	-0.564732	-1.494883	-0.511588	99
Es	-0.409024	1.323505	-0.345308	99
Es	0.309118	1.576029	1.134137	99
Es	-1.113790	-1.258103	-1.595904	99
Es	-0.116593	0.647181	1.976874	99
Es	1.599527	-0.225351	-0.773404	99
Es	0.698051	2.372066	0.608855	99
Es	1.811662	-0.346748	-0.304153	99
Es	-0.019088	-0.590172	0.157358	99
Es	1.889395	0.313952	-0.480518	99
Es	-0.047472	0.657845	-0.188735	99
Es	-0.026999	-1.748367	0.571383	99
Es	-0.416687	-1.236611	0.190265	99
Es	1.657973	-0.161949	-0.490155	99
Es	0.371342	0.071414	0.142150	99
Es	-0.087982	1.808606	0.257714	99
Es	0.435285	0.380718	0.872444	99
Es	0.166874	2.095421	0.777395	99
Es	-0.046330	2.318349	0.931537	99
Es	-0.715899	-1.760058	-1.206479	99
Es	1.175373	-0.048819	-0.250314	99
Es	-0.215070	1.581092	-1.024962	99
46
Properties=species:S:1:pos:R:3:Z:I:1 energy=-325.1165030988107 field_type=dipole dipole="0.000000 0.000000 0.000000" charge=0
C	-0.715888	-1.760073	-1.206511	6
C	-0.416688	-1.236623	0.190299	6
C	0.371142	0.071417	0.142239	6
O	1.658052	-0.162223	-0.490331	8
C	-0.409088	1.323437	-0.345421	6
N	0.166472	2.095827	0.777689	7
C	0.429702	0.829947	1.498129	6
H	-1.293358	-2.687983	-1.146811	1
H	0.205312	-1.970693	-1.758901	1
H	-1.296208	-1.034843	-1.785431	1
H	0.150202	-1.992393	0.747169	1
H	-1.365048	-1.095853	0.723249	1
H	2.102092	0.701777	-0.474791	1
H	-1.501788	1.239487	-0.299831	1
H	-0.132358	1.697257	-1.336231	1
H	1.010312	2.612867	0.532589	1
H	1.393362	0.800217	2.016189	1
H	-0.356228	0.568447	2.216709	1
Es	1.093799	0.810903	1.850140	99
Es	-0.092378	-1.902598	-1.578790	99
Es	0.429679	0.830077	1.498054	99
Es	-1.153043	1.255847	-0.302309	99
Es	-0.409024	1.323506	-0.345307	99
Es	1.657969	-0.161989	-0.490225	99
Es	-0.027056	-1.748359	0.571370	99
Es	-1.114797	-2.393762	-1.162103	99
Es	-1.113813	-1.258114	-1.595817	99
Es	-0.088045	1.808648	0.257502	99
Es	-0.215027	1.581120	-1.024963	99
Es	-0.564567	-1.494893	-0.511548	99
Es	1.888763	0.314351	-0.482089	99
Es	-0.715899	-1.760058	-1.206479	99
Es	-0.018927	-0.590159	0.157483	99
Es	1.811246	-0.343540	-0.302037	99
Es	1.601432	-0.228639	-0.772970	99
Es	0.371346	0.071412	0.142148	99
Es	0.698104	2.372294	0.609126	99
Es	-0.116644	0.647012	1.976908	99
Es	1.174498	-0.049142	-0.251163	99
Es	0.308749	1.576114	1.134489	99
Es	0.166835	2.095433	0.777416	99
Es	-0.047552	0.657893	-0.188864	99
Es	-0.045920	2.317969	0.931058	99
Es	0.435350	0.380926	0.872471	99
Es	-1.066082	-1.126810	0.556257	99
Es	-0.416688	-1.236611	0.190265	99
46
Properties=species:S:1:pos:R:3:Z:I:1 energy=-325.1165030988107 field_type=dipole dipole="0.000000 0.000000 0.000000" charge=0
C	-0.715888	-1.760073	-1.206511	6
C	-0.416688	-1.236623	0.190299	6
C	0.371142	0.071417	0.142239	6
O	1.658052	-0.162223	-0.490331	8
C	-0.409088	1.323437	-0.345421	6
N	0.166472	2.095827	0.777689	7
C	0.429702	0.829947	1.498129	6
H	-1.293358	-2.687983	-1.146811	1
H	0.205312	-1.970693	-1.758901	1
H	-1.296208	-1.034843	-1.785431	1
H	0.150202	-1.992393	0.747169	1
H	-1.365048	-1.095853	0.723249	1
H	2.102092	0.701777	-0.474791	1
H	-1.501788	1.239487	-0.299831	1
H	-0.132358	1.697257	-1.336231	1
H	1.010312	2.612867	0.532589	1
H	1.393362	0.800217	2.016189	1
H	-0.356228	0.568447	2.216709	1
Es	1.812195	-0.349030	-0.306748	99
Es	-0.564592	-1.494940	-0.511639	99
Es	-0.027082	-1.748308	0.571247	99
Es	0.166870	2.095421	0.777400	99
Es	0.435218	0.381030	0.872544	99
Es	-1.153016	1.255664	-0.302254	99
Es	-0.214978	1.581148	-1.025086	99
Es	-0.092322	-1.902610	-1.578855	99
Es	0.371343	0.071415	0.142149	99
Es	1.175765	-0.049113	-0.248824	99
Es	0.308627	1.576238	1.134792	99
Es	-0.416688	-1.236609	0.190264	99
Es	0.698157	2.372691	0.608987	99
Es	-0.409025	1.323508	-0.345306	99
Es	-0.047384	0.658007	-0.188780	99
Es	1.890023	0.313516	-0.479403	99
Es	1.657902	-0.161912	-0.490219	99
Es	1.598122	-0.222426	-0.773259	99
Es	1.093834	0.810857	1.850145	99
Es	-1.113852	-1.258090	-1.595739	99
Es	-0.715899	-1.760058	-1.206477	99
Es	-0.116714	0.647031	1.976880	99
Es	-0.088610	1.808652	0.257731	99
Es	-1.114815	-2.393720	-1.162065	99
Es	-1.066112	-1.126781	0.556408	99
Es	-0.045342	2.317397	0.930676	99
Es	-0.018996	-0.590225	0.157400	99
Es	0.429679	0.830077	1.498055	99
46
Properties=species:S:1:pos:R:3:Z:I:1 energy=-325.1165030988107 field_type=dipole dipole="0.000000 0.000000 0.000000" charge=0
C	-0.715888	-1.760073	-1.206511	6
C	-0.416688	-1.236623	0.190299	6
C	0.371142	0.071417	0.142239	6
O	1.658052	-0.162223	-0.490331	8
C	-0.409088	1.323437	-0.345421	6
N	0.166472	2.095827	0.777689	7
C	0.429702	0.829947	1.498129	6
H	-1.293358	-2.687983	-1.146811	1
H	0.205312	-1.970693	-1.758901	1
H	-1.296208	-1.034843	-1.785431	1
H	0.150202	-1.992393	0.747169	1
H	-1.365048	-1.095853	0.723249	1
H	2.102092	0.701777	-0.474791	1
H	-1.501788	1.239487	-0.299831	1
H	-0.132358	1.697257	-1.336231	1
H	1.010312	2.612867	0.532589	1
H	1.393362	0.800217	2.016189	1
H	-0.356228	0.568447	2.216709	1
Es	-1.113760	-1.258024	-1.595831	99
Es	1.657905	-0.161923	-0.490242	99
Es	0.429679	0.830077	1.498054	99
Es	-0.409025	1.323506	-0.345310	99
Es	-0.047551	0.658019	-0.188837	99
Es	-0.715899	-1.760058	-1.206479	99
Es	0.371347	0.071413	0.142148	99
Es	-0.092324	-1.902697	-1.578745	99
Es	0.698319	2.372680	0.608832	99
Es	-0.045301	2.317314	0.931036	99
Es	1.811326	-0.345623	-0.303665	99
Es	-0.027092	-1.748398	0.571310	99
Es	-0.416688	-1.236610	0.190265	99
Es	-1.114897	-2.393718	-1.162022	99
Es	1.599836	-0.226690	-0.773021	99
Es	0.166873	2.095420	0.777395	99
Es	1.093830	0.810909	1.850139	99
Es	0.308637	1.576172	1.134329	99
Es	-0.564602	-1.494929	-0.511500	99
Es	0.435287	0.380971	0.872622	99
Es	-1.153094	1.255742	-0.302169	99
Es	-0.018884	-0.590075	0.157313	99
Es	-0.088814	1.808658	0.257887	99
Es	-0.214912	1.581211	-1.025094	99
Es	1.175225	-0.048520	-0.250059	99
Es	-1.066115	-1.126818	0.556268	99
Es	-0.116682	0.647000	1.976902	99
Es	1.889682	0.313819	-0.481506	99
46
Properties=species:S:1:pos:R:3:Z:I:1 energy=-325.1165030988107 field_type=dipole dipole="0.000000 0.000000 0.000000" charge=0
C	-0.715888	-1.760073	-1.206511	6
C	-0.416688	-1.236623	0.190299	6
C	0.371142	0.071417	0.142239	6
O	1.658052	-0.162223	-0.490331	8
C	-0.409088	1.323437	-0.345421	6
N	0.166472	2.095827	0.777689	7
C	0.429702	0.829947	1.498129	6
H	-1.293358	-2.687983	-1.146811	1
H	0.205312	-1.970693	-1.758901	1
H	-1.296208	-1.034843	-1.785431	1
H	0.150202	-1.992393	0.747169	1
H	-1.365048	-1.095853	0.723249	1
H	2.102092	0.701777	-0.474791	1
H	-1.501788	1.239487	-0.299831	1
H	-0.132358	1.697257	-1.336231	1
H	1.010312	2.612867	0.532589	1
H	1.393362	0.800217	2.016189	1
H	-0.356228	0.568447	2.216709	1
Es	1.093939	0.810877	1.850089	99
Es	1.175452	-0.049358	-0.249418	99
Es	0.371349	0.071411	0.142146	99
Es	0.698230	2.372843	0.608899	99
Es	1.811803	-0.346737	-0.305214	99
Es	-1.114829	-2.393732	-1.162200	99
Es	1.657908	-0.161941	-0.490193	99
Es	-0.092162	-1.902485	-1.578851	99
Es	-1.066199	-1.126816	0.556372	99
Es	-1.113840	-1.258078	-1.595607	99
Es	0.435255	0.381072	0.872593	99
Es	-0.019014	-0.590187	0.157289	99
Es	-0.564695	-1.495101	-0.511479	99
Es	-0.026986	-1.748283	0.571279	99
Es	1.889648	0.314084	-0.480682	99
Es	-0.715899	-1.760059	-1.206481	99
Es	-0.044974	2.317120	0.930173	99
Es	1.599182	-0.224966	-0.772982	99
Es	0.166860	2.095428	0.777404	99
Es	-0.409024	1.323505	-0.345310	99
Es	-0.214856	1.581097	-1.025059	99
Es	0.429680	0.830076	1.498055	99
Es	-0.116770	0.646971	1.976899	99
Es	0.308249	1.576211	1.135167	99
Es	-0.416688	-1.236611	0.190265	99
Es	-0.088622	1.808646	0.257860	99
Es	-1.153126	1.255801	-0.302262	99
Es	-0.047561	0.658041	-0.188730	99
46
Properties=species:S:1:pos:R:3:Z:I:1 energy=-325.1165030988107 field_type=dipole dipole="0.000000 0.000000 0.000000" charge=0
C	-0.715888	-1.760073	-1.206511	6
C	-0.416688	-1.236623	0.190299	6
C	0.371142	0.071417	0.142239	6
O	1.658052	-0.162223	-0.490331	8
C	-0.409088	1.323437	-0.345421	6
N	0.166472	2.095827	0.777689	7
C	0.429702	0.829947	1.498129	6
H	-1.293358	-2.687983	-1.146811	1
H	0.205312	-1.970693	-1.758901	1
H	-1.296208	-1.034843	-1.785431	1
H	0.150202	-1.992393	0.747169	1
H	-1.365048	-1.095853	0.723249	1
H	2.102092	0.701777	-0.474791	1
H	-1.501788	1.239487	-0.299831	1
H	-0.132358	1.697257	-1.336231	1
H	1.010312	2.612867	0.532589	1
H	1.393362	0.800217	2.016189	1
H	-0.356228	0.568447	2.216709	1
Es	-1.066247	-1.126899	0.556506	99
Es	1.812268	-0.346275	-0.304001	99
Es	-0.018948	-0.590245	0.157476	99
Es	-0.715899	-1.760058	-1.206479	99
Es	-1.153138	1.255689	-0.302168	99
Es	-0.026976	-1.748265	0.571091	99
Es	-0.409025	1.323506	-0.345309	99
Es	-1.114889	-2.393707	-1.162093	99
Es	0.166883	2.095417	0.777390	99
Es	-0.092169	-1.902501	-1.579005	99
Es	0.429679	0.830076	1.498055	99
Es	1.888703	0.314299	-0.480986	99
Es	-0.044359	2.316843	0.930170	99
Es	-0.116808	0.646960	1.977002	99
Es	-1.113847	-1.258160	-1.595511	99
Es	0.435403	0.381158	0.872509	99
Es	-0.047599	0.658128	-0.188716	99
Es	-0.214828	1.581075	-1.025153	99
Es	1.600423	-0.225464	-0.772586	99
Es	-0.564623	-1.494959	-0.511521	99
Es	0.308213	1.576167	1.135202	99
Es	1.174610	-0.049580	-0.250762	99
Es	1.657955	-0.161903	-0.490200	99
Es	-0.089260	1.808866	0.257816	99
Es	0.371341	0.071414	0.142150	99
Es	-0.416688	-1.236610	0.190265	99
Es	0.698280	2.372897	0.608858	99
Es	1.093853	0.810962	1.850021	99
46
Properties=species:S:1:pos:R:3:Z:I:1 energy=-325.1165030988107 field_type=dipole dipole="0.000000 0.000000 0.000000" charge=0
C	-0.715888	-1.760073	-1.206511	6
C	-0.416688	-1.236623	0.190299	6
C	0.371142	0.071417	0.142239	6
O	1.658052	-0.162223	-0.490331	8
C	-0.409088	1.323437	-0.345421	6
N	0.166472	2.095827	0.777689	7
C	0.429702	0.829947	1.498129	6
H	-1.293358	-2.687983	-1.146811	1
H	0.205312	-1.970693	-1.758901	1
H	-1.296208	-1.034843	-1.785431	1
H	0.150202	-1.992393	0.747169	1
H	-1.365048	-1.095853	0.723249	1
H	2.102092	0.701777	-0.474791	1
H	-1.501788	1.239487	-0.299831	1
H	-0.132358	1.697257	-1.336231	1
H	1.010312	2.612867	0.532589	1
H	1.393362	0.800217	2.016189	1
H	-0.356228	0.568447	2.216709	1
Es	0.308026	1.576203	1.135319	99
Es	-0.416687	-1.236610	0.190264	99
Es	-1.066242	-1.126888	0.556390	99
Es	-1.113804	-1.258137	-1.595559	99
Es	-0.214686	1.581176	-1.025172	99
Es	-0.088924	1.808587	0.257789	99
Es	0.435311	0.381179	0.872587	99
Es	-0.027043	-1.748311	0.571167	99
Es	1.175741	-0.049157	-0.249177	99
Es	1.598146	-0.222414	-0.773023	99
Es	-0.409025	1.323506	-0.345308	99
Es	0.698308	2.373016	0.609022	99
Es	-1.114937	-2.393686	-1.162044	99
Es	1.657929	-0.161919	-0.490235	99
Es	0.166862	2.095426	0.777402	99
Es	-1.153196	1.255636	-0.302178	99
Es	1.811644	-0.349130	-0.306876	99
Es	0.429679	0.830076	1.498055	99
Es	-0.564618	-1.494922	-0.511612	99
Es	-0.715900	-1.760061	-1.206481	99
Es	-0.116828	0.646886	1.977020	99
Es	-0.018898	-0.590165	0.157520	99
Es	-0.092123	-1.902561	-1.578945	99
Es	0.371347	0.071411	0.142147	99
Es	1.093952	0.810914	1.849941	99
Es	-0.047655	0.658267	-0.188709	99
Es	-0.044614	2.316806	0.929926	99
Es	1.890542	0.313702	-0.479209	99
46
Properties=species:S:1:pos:R:3:Z:I:1 energy=-325.1165030988107 field_type=dipole dipole="0.000000 0.000000 0.000000" charge=0
C	-0.715888	-1.760073	-1.206511	6
C	-0.416688	-1.236623	0.190299	6
C	0.371142	0.071417	0.142239	6
O	1.658052	-0.162223	-0.490331	8
C	-0.409088	1.323437	-0.345421	6
N	0.166472	2.095827	0.777689	7
C	0.429702	0.829947	1.498129	6
H	-1.293358	-2.687983	-1.146811	1
H	0.205312	-1.970693	-1.758901	1
H	-1.296208	-1.034843	-1.785431	1
H	0.150202	-1.992393	0.747169	1
H	-1.365048	-1.095853	0.723249	1
H	2.102092	0.701777	-0.474791	1
H	-1.501788	1.239487	-0.299831	1
H	-0.132358	1.697257	-1.336231	1
H	1.010312	2.612867	0.532589	1
H	1.393362	0.800217	2.016189	1
H	-0.356228	0.568447	2.216709	1
Es	-1.113770	-1.258152	-1.595592	99
Es	1.174769	-0.049311	-0.250575	99
Es	-0.214773	1.581191	-1.025230	99
Es	-1.066269	-1.126810	0.556414	99
Es	-0.564602	-1.494929	-0.511624	99
Es	-0.116909	0.646861	1.976994	99
Es	1.811010	-0.347869	-0.305712	99
Es	0.435316	0.381280	0.872661	99
Es	-0.409025	1.323506	-0.345310	99
Es	-0.018874	-0.590294	0.157436	99
Es	1.890510	0.313860	-0.479249	99
Es	-0.092143	-1.902558	-1.578917	99
Es	1.093972	0.810873	1.849933	99
Es	1.599719	-0.223570	-0.772712	99
Es	0.307721	1.576305	1.135866	99
Es	-0.047634	0.658202	-0.188718	99
Es	-0.027050	-1.748266	0.571199	99
Es	0.429678	0.830077	1.498055	99
Es	1.657981	-0.161995	-0.490228	99
Es	-0.416688	-1.236611	0.190265	99
Es	0.698372	2.372651	0.608797	99
Es	-0.044397	2.317119	0.929456	99
Es	0.371345	0.071413	0.142147	99
Es	-1.114955	-2.393715	-1.162035	99
Es	-0.715899	-1.760058	-1.206479	99
Es	-0.088840	1.808528	0.257881	99
Es	-1.153130	1.255685	-0.302097	99
Es	0.166872	2.095419	0.777395	99
46
Properties=species:S:1:pos:R:3:Z:I:1 energy=-325.1165030988107 field_type=dipole dipole="0.000000 0.000000 0.000000" charge=0
C	-0.715888	-1.760073	-1.206511	6
C	-0.416688	-1.236623	0.190299	6
C	0.371142	0.071417	0.142239	6
O	1.658052	-0.162223	-0.490331	8
C	-0.409088	1.323437	-0.345421	6
N	0.166472	2.095827	0.777689	7
C	0.429702	0.829947	1.498129	6
H	-1.293358	-2.687983	-1.146811	1
H	0.205312	-1.970693	-1.758901	1
H	-1.296208	-1.034843	-1.785431	1
H	0.150202	-1.992393	0.747169	1
H	-1.365048	-1.095853	0.723249	1
H	2.102092	0.701777	-0.474791	1
H	-1.501788	1.239487	-0.299831	1
H	-0.132358	1.697257	-1.336231	1
H	1.010312	2.612867	0.532589	1
H	1.393362	0.800217	2.016189	1
H	-0.356228	0.568447	2.216709	1
Es	-0.027090	-1.748162	0.571153	99
Es	-1.113842	-1.258079	-1.595617	99
Es	0.166869	2.095418	0.777394	99
Es	1.890679	0.313843	-0.479731	99
Es	-1.066281	-1.126781	0.556515	99
Es	-0.214703	1.581164	-1.025207	99
Es	-0.018808	-0.590365	0.157390	99
Es	0.307931	1.576382	1.135675	99
Es	0.435225	0.381264	0.872745	99
Es	1.811671	-0.348960	-0.307214	99
Es	1.598298	-0.222588	-0.772215	99
Es	0.429679	0.830077	1.498054	99
Es	-0.409024	1.323505	-0.345309	99
Es	-0.116960	0.646965	1.976884	99
Es	-0.564656	-1.495083	-0.511740	99
Es	-0.092050	-1.902643	-1.578886	99
Es	-0.416688	-1.236610	0.190265	99
Es	0.698398	2.372961	0.608895	99
Es	-0.715899	-1.760058	-1.206479	99
Es	1.175494	-0.049293	-0.248997	99
Es	-0.043936	2.316623	0.929567	99