41
Properties=species:S:1:pos:R:3:Z:I:1 energy=-359.7728702587189 field_type=dipole dipole="0.000000 0.000000 0.000000" charge=0
C	-0.691023	-1.747881	0.052340	6
C	0.579917	-0.961581	-0.211240	6
C	0.310877	0.523509	-0.136110	6
C	0.384367	1.165669	1.233940	6
O	0.583067	0.492029	2.233840	8
N	0.003247	1.170609	-1.222720	7
O	-0.237373	2.526559	-0.985770	8
H	-0.494983	-2.822241	-0.013310	1
H	-1.466123	-1.495891	-0.678790	1
H	-1.092013	-1.532951	1.047840	1
H	0.961287	-1.200631	-1.210670	1
H	1.359627	-1.235051	0.507090	1
H	0.257177	2.257489	1.261300	1
H	-0.458053	2.860359	-1.877740	1
Es	-0.690976	-1.747855	0.052327	99
Es	0.310876	0.523551	-0.136084	99
Es	0.590882	0.662404	2.494408	99
Es	0.299018	1.897587	1.248095	99
Es	0.757450	0.769789	1.827406	99
Es	0.445467	-0.193677	-0.172536	99
Es	0.343325	0.853252	0.532312	99
Es	1.101943	-1.134858	0.271658	99
Es	-0.136093	0.835669	-0.665528	99
Es	-0.052186	-1.333163	-0.077616	99
Es	-0.960009	-1.598144	0.725404	99
Es	-0.353536	2.696808	-1.462121	99
Es	0.261118	0.709048	1.882478	99
Es	-0.132388	1.932772	-1.083994	99
Es	0.583011	0.492200	2.233568	99
Es	0.034566	2.633884	-0.896612	99
Es	0.384369	1.165602	1.233870	99
Es	0.612812	0.187406	2.169573	99
Es	-0.551550	-2.476177	0.006013	99
Es	-0.486524	2.528928	-0.806932	99
Es	0.423626	0.953941	-0.756245	99
Es	-1.213279	-1.573317	-0.448303	99
Es	0.833352	-1.116774	-0.888774	99
Es	0.579862	-0.961489	-0.211228	99
Es	-0.030042	1.050916	-1.585211	99
Es	0.003280	1.170880	-1.222123	99
Es	-0.237391	2.526416	-0.986044	99
41
Properties=species:S:1:pos:R:3:Z:I:1 energy=-359.7728702587189 field_type=dipole dipole="0.000000 0.000000 0.000000" charge=0
C	-0.691023	-1.747881	0.052340	6
C	0.579917	-0.961581	-0.211240	6
C	0.310877	0.523509	-0.136110	6
C	0.384367	1.165669	1.233940	6
O	0.583067	0.492029	2.233840	8
N	0.003247	1.170609	-1.222720	7
O	-0.237373	2.526559	-0.985770	8
H	-0.494983	-2.822241	-0.013310	1
H	-1.466123	-1.495891	-0.678790	1
H	-1.092013	-1.532951	1.047840	1
H	0.961287	-1.200631	-1.210670	1
H	1.359627	-1.235051	0.507090	1
H	0.257177	2.257489	1.261300	1
H	-0.458053	2.860359	-1.877740	1
Es	0.421764	0.955413	-0.754001	99
Es	-0.135622	0.836688	-0.664143	99
Es	-0.471889	2.531501	-0.805946	99
Es	0.617328	0.180018	2.182526	99
Es	-0.027667	1.048898	-1.585407	99
Es	0.342453	0.853254	0.532169	99
Es	-0.549285	-2.476156	0.007248	99
Es	0.589996	0.670729	2.481450	99
Es	0.443510	-0.193731	-0.173102	99
Es	0.830806	-1.117425	-0.888532	99
Es	-1.214911	-1.571250	-0.451336	99
Es	0.579860	-0.961490	-0.211231	99
Es	-0.237387	2.526440	-0.986022	99
Es	1.103140	-1.138003	0.275298	99
Es	0.021103	2.623453	-0.899838	99
Es	-0.132945	1.930300	-1.080081	99
Es	-0.354736	2.706918	-1.467808	99
Es	0.310876	0.523549	-0.136080	99
Es	0.259917	0.708151	1.882497	99
Es	0.583009	0.492207	2.233553	99
Es	0.003283	1.170871	-1.222113	99
Es	-0.690973	-1.747852	0.052328	99
Es	0.384353	1.165601	1.233871	99
Es	-0.051841	-1.331932	-0.078011	99
Es	-0.957536	-1.597666	0.725300	99
Es	0.755713	0.769394	1.827197	99
Es	0.298665	1.897716	1.247975	99
41
Properties=species:S:1:pos:R:3:Z:I:1 energy=-359.7728702587189 field_type=dipole dipole="0.000000 0.000000 0.000000" charge=0
C	-0.691023	-1.747881	0.052340	6
C	0.579917	-0.961581	-0.211240	6
C	0.310877	0.523509	-0.136110	6
C	0.384367	1.165669	1.233940	6
O	0.583067	0.492029	2.233840	8
N	0.003247	1.170609	-1.222720	7
O	-0.237373	2.526559	-0.985770	8
H	-0.494983	-2.822241	-0.013310	1
H	-1.466123	-1.495891	-0.678790	1
H	-1.092013	-1.532951	1.047840	1
H	0.961287	-1.200631	-1.210670	1
H	1.359627	-1.235051	0.507090	1
H	0.257177	2.257489	1.261300	1
H	-0.458053	2.860359	-1.877740	1
Es	-0.690976	-1.747854	0.052328	99
Es	-0.547760	-2.475235	0.007403	99
Es	0.012098	2.612735	-0.912534	99
Es	0.582996	0.492367	2.233590	99
Es	-0.355261	2.710749	-1.468992	99
Es	-0.135052	1.928361	-1.074904	99
Es	-1.214356	-1.569153	-0.454268	99
Es	-0.134529	0.837769	-0.663236	99
Es	0.829187	-1.118270	-0.889448	99
Es	-0.026387	1.047323	-1.586260	99
Es	0.579860	-0.961488	-0.211231	99
Es	-0.050641	-1.330646	-0.078551	99
Es	0.756754	0.762066	1.823238	99
Es	-0.460064	2.539795	-0.799259	99
Es	0.626763	0.171476	2.258994	99
Es	0.298879	1.897590	1.248108	99
Es	0.419787	0.956159	-0.752651	99
Es	0.342213	0.853366	0.532301	99
Es	0.579323	0.692680	2.413407	99
Es	-0.956131	-1.597271	0.726405	99
Es	0.441412	-0.193880	-0.173259	99
Es	0.384364	1.165601	1.233868	99
Es	0.260048	0.701832	1.878060	99
Es	0.310880	0.523550	-0.136078	99
Es	0.003283	1.170882	-1.222112	99
Es	1.101781	-1.141272	0.278895	99
Es	-0.237485	2.526366	-0.986051	99
41
Properties=species:S:1:pos:R:3:Z:I:1 energy=-359.7728702587189 field_type=dipole dipole="0.000000 0.000000 0.000000" charge=0
C	-0.691023	-1.747881	0.052340	6
C	0.579917	-0.961581	-0.211240	6
C	0.310877	0.523509	-0.136110	6
C	0.384367	1.165669	1.233940	6
O	0.583067	0.492029	2.233840	8
N	0.003247	1.170609	-1.222720	7
O	-0.237373	2.526559	-0.985770	8
H	-0.494983	-2.822241	-0.013310	1
H	-1.466123	-1.495891	-0.678790	1
H	-1.092013	-1.532951	1.047840	1
H	0.961287	-1.200631	-1.210670	1
H	1.359627	-1.235051	0.507090	1
H	0.257177	2.257489	1.261300	1
H	-0.458053	2.860359	-1.877740	1
Es	0.299119	1.897707	1.248091	99
Es	-0.690975	-1.747855	0.052329	99
Es	0.342700	0.853587	0.532198	99
Es	1.101281	-1.142718	0.279779	99
Es	-0.145229	1.926319	-1.070226	99
Es	0.440894	-0.193438	-0.174235	99
Es	-0.237517	2.526298	-0.986083	99
Es	0.258164	0.698023	1.874616	99
Es	-0.050279	-1.330196	-0.078620	99
Es	0.384364	1.165602	1.233868	99
Es	-0.133064	0.839290	-0.662367	99
Es	-0.547592	-2.476039	0.008789	99
Es	0.828351	-1.118927	-0.888368	99
Es	0.760292	0.761277	1.823892	99
Es	0.418704	0.955847	-0.752506	99
Es	-0.390975	2.599066	-0.730039	99
Es	-1.214246	-1.568123	-0.455040	99
Es	0.003273	1.170904	-1.222137	99
Es	0.569571	0.658077	2.308270	99
Es	0.310866	0.523546	-0.136076	99
Es	-0.955414	-1.596548	0.724962	99
Es	-0.361824	2.713297	-1.466776	99
Es	-0.028030	1.046014	-1.586349	99
Es	0.583000	0.491936	2.233145	99
Es	0.579864	-0.961492	-0.211230	99
Es	-0.039684	2.552937	-0.989398	99
Es	0.635371	0.211207	2.367273	99
41
Properties=species:S:1:pos:R:3:Z:I:1 energy=-359.7728702587189 field_type=dipole dipole="0.000000 0.000000 0.000000" charge=0
C	-0.691023	-1.747881	0.052340	6
C	0.579917	-0.961581	-0.211240	6
C	0.310877	0.523509	-0.136110	6
C	0.384367	1.165669	1.233940	6
O	0.583067	0.492029	2.233840	8
N	0.003247	1.170609	-1.222720	7
O	-0.237373	2.526559	-0.985770	8
H	-0.494983	-2.822241	-0.013310	1
H	-1.466123	-1.495891	-0.678790	1
H	-1.092013	-1.532951	1.047840	1
H	0.961287	-1.200631	-1.210670	1
H	1.359627	-1.235051	0.507090	1
H	0.257177	2.257489	1.261300	1
H	-0.458053	2.860359	-1.877740	1
Es	-0.050446	-1.330254	-0.078743	99
Es	-0.690975	-1.747853	0.052332	99
Es	-0.237832	2.526157	-0.986112	99
Es	-0.955482	-1.596471	0.724132	99
Es	0.384365	1.165601	1.233867	99
Es	0.579862	-0.961492	-0.211231	99
Es	0.253383	0.707181	1.881988	99
Es	0.441376	-0.193332	-0.173630	99
Es	0.298983	1.898002	1.247525	99
Es	0.003280	1.170874	-1.222115	99
Es	0.570964	0.582551	2.229279	99
Es	-0.350462	2.718926	-1.467303	99
Es	-0.135625	0.837430	-0.662926	99
Es	0.420175	0.956703	-0.752315	99
Es	-0.238033	2.656632	-0.704912	99
Es	-0.547636	-2.476903	0.008970	99
Es	1.101218	-1.143004	0.279591	99
Es	-0.208807	2.490198	-1.016760	99
Es	0.763974	0.770299	1.827821	99
Es	0.341762	0.853285	0.531706	99
Es	-0.024821	1.047505	-1.583888	99
Es	0.582678	0.495029	2.233754	99
Es	-0.140868	1.926386	-1.069448	99
Es	0.634658	0.265084	2.434297	99
Es	0.828614	-1.118774	-0.887429	99
Es	-1.214188	-1.567707	-0.454610	99
Es	0.310867	0.523545	-0.136077	99
41
Properties=species:S:1:pos:R:3:Z:I:1 energy=-359.7728702587189 field_type=dipole dipole="0.000000 0.000000 0.000000" charge=0
C	-0.691023	-1.747881	0.052340	6
C	0.579917	-0.961581	-0.211240	6
C	0.310877	0.523509	-0.136110	6
C	0.384367	1.165669	1.233940	6
O	0.583067	0.492029	2.233840	8
N	0.003247	1.170609	-1.222720	7
O	-0.237373	2.526559	-0.985770	8
H	-0.494983	-2.822241	-0.013310	1
H	-1.466123	-1.495891	-0.678790	1
H	-1.092013	-1.532951	1.047840	1
H	0.961287	-1.200631	-1.210670	1
H	1.359627	-1.235051	0.507090	1
H	0.257177	2.257489	1.261300	1
H	-0.458053	2.860359	-1.877740	1
Es	-0.954954	-1.596083	0.724115	99
Es	0.571863	0.569020	2.222691	99
Es	-0.023528	1.047208	-1.583077	99
Es	0.254285	0.708670	1.883635	99
Es	-0.547171	-2.476989	0.009237	99
Es	0.419797	0.957238	-0.751868	99
Es	-0.049751	-1.329708	-0.079083	99
Es	0.440807	-0.193286	-0.173488	99
Es	0.310878	0.523548	-0.136079	99
Es	0.384364	1.165601	1.233868	99
Es	-1.212947	-1.566001	-0.455928	99
Es	0.763372	0.773427	1.829131	99
Es	-0.135705	0.837426	-0.662767	99
Es	-0.140290	1.926664	-1.067746	99
Es	0.828122	-1.119181	-0.887304	99
Es	-0.346396	2.720303	-1.467613	99
Es	-0.240692	2.486635	-1.010779	99
Es	0.582078	0.495137	2.228686	99
Es	0.579862	-0.961489	-0.211230	99
Es	-0.690977	-1.747856	0.052329	99
Es	0.299094	1.898092	1.247263	99
Es	-0.233731	2.524021	-0.988757	99
Es	0.003284	1.170869	-1.222109	99
Es	-0.214985	2.660591	-0.711239	99
Es	0.341289	0.853194	0.531549	99
Es	0.633683	0.273763	2.443039	99
Es	1.099331	-1.145217	0.281285	99
41
Properties=species:S:1:pos:R:3:Z:I:1 energy=-359.7728702587189 field_type=dipole dipole="0.000000 0.000000 0.000000" charge=0
C	-0.691023	-1.747881	0.052340	6
C	0.579917	-0.961581	-0.211240	6
C	0.310877	0.523509	-0.136110	6
C	0.384367	1.165669	1.233940	6
O	0.583067	0.492029	2.233840	8
N	0.003247	1.170609	-1.222720	7
O	-0.237373	2.526559	-0.985770	8
H	-0.494983	-2.822241	-0.013310	1
H	-1.466123	-1.495891	-0.678790	1
H	-1.092013	-1.532951	1.047840	1
H	0.961287	-1.200631	-1.210670	1
H	1.359627	-1.235051	0.507090	1
H	0.257177	2.257489	1.261300	1
H	-0.458053	2.860359	-1.877740	1
Es	0.579861	-0.961491	-0.211230	99
Es	-0.144437	1.926624	-1.065912	99
Es	-1.211792	-1.564562	-0.456883	99
Es	-0.214817	2.659905	-0.713848	99
Es	-0.238297	2.525717	-0.986248	99
Es	-0.233046	2.484954	-1.014106	99
Es	0.576705	0.522211	2.211864	99
Es	0.384368	1.165601	1.233867	99
Es	0.577949	0.523394	2.223735	99
Es	-0.690973	-1.747858	0.052328	99
Es	0.254788	0.711220	1.885382	99
Es	-0.136008	0.837390	-0.662568	99
Es	0.762825	0.775470	1.830597	99
Es	0.440625	-0.192923	-0.174091	99
Es	0.632904	0.287592	2.455567	99
Es	-0.022644	1.047122	-1.582000	99
Es	0.419417	0.957580	-0.751622	99
Es	0.827528	-1.119831	-0.886403	99
Es	0.299176	1.898195	1.247088	99
Es	0.003284	1.170870	-1.222106	99
Es	1.097029	-1.147649	0.282806	99
Es	-0.048573	-1.328670	-0.079612	99
Es	-0.345481	2.720965	-1.467525	99
Es	-0.954467	-1.595466	0.723335	99
Es	0.341180	0.853165	0.531308	99
Es	-0.546985	-2.477471	0.010114	99
Es	0.310865	0.523545	-0.136076	99
41
Properties=species:S:1:pos:R:3:Z:I:1 energy=-359.7728702587189 field_type=dipole dipole="0.000000 0.000000 0.000000" charge=0
C	-0.691023	-1.747881	0.052340	6
C	0.579917	-0.961581	-0.211240	6
C	0.310877	0.523509	-0.136110	6
C	0.384367	1.165669	1.233940	6
O	0.583067	0.492029	2.233840	8
N	0.003247	1.170609	-1.222720	7
O	-0.237373	2.526559	-0.985770	8
H	-0.494983	-2.822241	-0.013310	1
H	-1.466123	-1.495891	-0.678790	1
H	-1.092013	-1.532951	1.047840	1
H	0.961287	-1.200631	-1.210670	1
H	1.359627	-1.235051	0.507090	1
H	0.257177	2.257489	1.261300	1
H	-0.458053	2.860359	-1.877740	1
Es	1.095543	-1.149108	0.283836	99
Es	-0.048264	-1.328386	-0.079595	99
Es	0.440425	-0.192869	-0.174570	99
Es	-0.146562	1.927057	-1.062634	99
Es	0.826998	-1.120143	-0.885738	99
Es	-0.954142	-1.594928	0.722484	99
Es	0.299325	1.898225	1.246902	99
Es	-0.225233	2.657140	-0.715980	99
Es	0.571511	0.552692	2.201357	99
Es	0.583009	0.492124	2.233433	99
Es	-1.210528	-1.563410	-0.457944	99
Es	0.256252	0.706861	1.886956	99
Es	0.310864	0.523545	-0.136077	99
Es	0.384366	1.165601	1.233867	99
Es	-0.346963	2.720986	-1.467341	99
Es	-0.690975	-1.747855	0.052328	99
Es	-0.546898	-2.477705	0.011214	99
Es	-0.239179	2.524274	-0.986898	99
Es	0.760302	0.778307	1.828055	99
Es	0.419402	0.957566	-0.751578	99
Es	0.341194	0.853231	0.531198	99
Es	0.003288	1.170857	-1.222105	99
Es	0.579861	-0.961491	-0.211230	99
Es	-0.135668	0.837851	-0.662291	99
Es	0.633992	0.289887	2.457375	99
Es	-0.217994	2.488528	-1.015778	99
Es	-0.022942	1.046760	-1.581486	99
41
Properties=species:S:1:pos:R:3:Z:I:1 energy=-359.7728702587189 field_type=dipole dipole="0.000000 0.000000 0.000000" charge=0
C	-0.691023	-1.747881	0.052340	6
C	0.579917	-0.961581	-0.211240	6
C	0.310877	0.523509	-0.136110	6
C	0.384367	1.165669	1.233940	6
O	0.583067	0.492029	2.233840	8
N	0.003247	1.170609	-1.222720	7
O	-0.237373	2.526559	-0.985770	8
H	-0.494983	-2.822241	-0.013310	1
H	-1.466123	-1.495891	-0.678790	1
H	-1.092013	-1.532951	1.047840	1
H	0.961287	-1.200631	-1.210670	1
H	1.359627	-1.235051	0.507090	1
H	0.257177	2.257489	1.261300	1
H	-0.458053	2.860359	-1.877740	1
Es	-0.135896	0.837699	-0.662262	99
Es	0.440181	-0.192918	-0.174409	99
Es	0.384364	1.165601	1.233867	99
Es	0.632060	0.291636	2.459257	99
Es	0.571598	0.551184	2.200205	99
Es	-0.022046	1.046768	-1.580394	99
Es	0.003282	1.170879	-1.222096	99
Es	-0.953978	-1.594885	0.722666	99
Es	0.340865	0.853182	0.531036	99
Es	-0.236677	2.526255	-0.986433	99
Es	0.419325	0.957928	-0.751343	99
Es	-0.690975	-1.747855	0.052328	99
Es	-0.546680	-2.477556	0.011173	99
Es	0.583007	0.491856	2.233118	99
Es	0.579861	-0.961491	-0.211230	99
Es	0.256205	0.709309	1.883994	99
Es	-0.148520	1.927693	-1.060251	99
Es	-0.344786	2.721353	-1.467636	99
Es	-0.047172	-1.327605	-0.079954	99
Es	-0.234389	2.483563	-1.014486	99
Es	1.092951	-1.151015	0.285099	99
Es	0.826885	-1.120344	-0.885750	99
Es	-1.209104	-1.562167	-0.458751	99
Es	0.299410	1.898243	1.246777	99
Es	0.310860	0.523544	-0.136076	99
Es	-0.211663	2.658954	-0.721293	99
Es	0.762015	0.775788	1.830605	99
41
Properties=species:S:1:pos:R:3:Z:I:1 energy=-359.7728702587189 field_type=dipole dipole="0.000000 0.000000 0.000000" charge=0
C	-0.691023	-1.747881	0.052340	6
C	0.579917	-0.961581	-0.211240	6
C	0.310877	0.523509	-0.136110	6
C	0.384367	1.165669	1.233940	6
O	0.583067	0.492029	2.233840	8
N	0.003247	1.170609	-1.222720	7
O	-0.237373	2.526559	-0.985770	8
H	-0.494983	-2.822241	-0.013310	1
H	-1.466123	-1.495891	-0.678790	1
H	-1.092013	-1.532951	1.047840	1
H	0.961287	-1.200631	-1.210670	1
H	1.359627	-1.235051	0.507090	1
H	0.257177	2.257489	1.261300	1
H	-0.458053	2.860359	-1.877740	1
Es	-0.203034	2.659719	-0.725550	99
Es	-0.021702	1.046724	-1.579479	99
Es	-1.207758	-1.561090	-0.459436	99
Es	0.826594	-1.120528	-0.885413	99
Es	-0.243728	2.482971	-1.012138	99
Es	-0.136033	0.837754	-0.662157	99
Es	-0.344453	2.721338	-1.467779	99
Es	0.299461	1.898262	1.246605	99
Es	0.582956	0.492882	2.233735	99
Es	-0.690975	-1.747854	0.052329	99
Es	-0.546580	-2.477540	0.011410	99
Es	-0.046201	-1.327082	-0.080191	99
Es	0.579862	-0.961491	-0.211230	99
Es	0.632405	0.294694	2.461703	99
Es	0.340817	0.853136	0.530946	99
Es	-0.953792	-1.594709	0.722574	99
Es	1.090841	-1.152598	0.286011	99
Es	0.310867	0.523544	-0.136079	99
Es	0.419286	0.958075	-0.751234	99
Es	0.760167	0.778950	1.828131	99
Es	-0.235561	2.525186	-0.987476	99
Es	0.384362	1.165601	1.233868	99
Es	0.439960	-0.192861	-0.174571	99
Es	0.003283	1.170878	-1.222102	99
Es	0.571894	0.545730	2.196080	99
Es	0.257327	0.707486	1.887571	99
Es	-0.149281	1.928419	-1.058367	99
41
Properties=species:S:1:pos:R:3:Z:I:1 energy=-359.7728702587189 field_type=dipole dipole="0.000000 0.000000 0.000000" charge=0
C	-0.691023	-1.747881	0.052340	6
C	0.579917	-0.961581	-0.211240	6
C	0.310877	0.523509	-0.136110	6
C	0.384367	1.165669	1.233940	6
O	0.583067	0.492029	2.233840	8
N	0.003247	1.170609	-1.222720	7
O	-0.237373	2.526559	-0.985770	8
H	-0.494983	-2.822241	-0.013310	1
H	-1.466123	-1.495891	-0.678790	1
H	-1.092013	-1.532951	1.047840	1
H	0.961287	-1.200631	-1.210670	1
H	1.359627	-1.235051	0.507090	1
H	0.257177	2.257489	1.261300	1
H	-0.458053	2.860359	-1.877740	1
Es	0.418971	0.958346	-0.751098	99
Es	-0.247044	2.495225	-1.002993	99
Es	0.440052	-0.192809	-0.174742	99
Es	0.571862	0.546365	2.196500	99
Es	-0.343763	2.721626	-1.467760	99
Es	-0.199629	2.659356	-0.728845	99
Es	0.257148	0.708422	1.885186	99
Es	-0.136027	0.837668	-0.662071	99
Es	0.582985	0.491874	2.232952	99
Es	0.340644	0.853154	0.530724	99
Es	1.088728	-1.154048	0.286771	99
Es	-0.546493	-2.477582	0.011695	99
Es	-0.045611	-1.326686	-0.080416	99
Es	0.384367	1.165601	1.233867	99
Es	-0.953491	-1.594434	0.722451	99
Es	0.631590	0.296323	2.463197	99
Es	0.579864	-0.961493	-0.211232	99
Es	-0.690975	-1.747854	0.052329	99
Es	0.761150	0.776714	1.829378	99
Es	0.826386	-1.120773	-0.885059	99
Es	-0.232487	2.512191	-0.996750	99
Es	0.299457	1.898268	1.246553	99
Es	-1.206498	-1.560081	-0.459988	99
Es	-0.021200	1.046748	-1.578773	99
Es	-0.153153	1.929049	-1.055940	99
Es	0.003285	1.170880	-1.222097	99
Es	0.310867	0.523545	-0.136078	99
41
Properties=species:S:1:pos:R:3:Z:I:1 energy=-359.7728702587189 field_type=dipole dipole="0.000000 0.000000 0.000000" charge=0
C	-0.691023	-1.747881	0.052340	6
C	0.579917	-0.961581	-0.211240	6
C	0.310877	0.523509	-0.136110	6
C	0.384367	1.165669	1.233940	6
O	0.583067	0.492029	2.233840	8
N	0.003247	1.170609	-1.222720	7
O	-0.237373	2.526559	-0.985770	8
H	-0.494983	-2.822241	-0.013310	1
H	-1.466123	-1.495891	-0.678790	1
H	-1.092013	-1.532951	1.047840	1
H	0.961287	-1.200631	-1.210670	1
H	1.359627	-1.235051	0.507090	1
H	0.257177	2.257489	1.261300	1
H	-0.458053	2.860359	-1.877740	1
Es	-0.953479	-1.594280	0.722315	99
Es	0.761104	0.776949	1.829116	99
Es	0.257382	0.708497	1.885632	99
Es	0.299542	1.898278	1.246459	99
Es	0.571994	0.543152	2.193690	99
Es	-0.190676	2.659453	-0.734174	99
Es	1.086868	-1.155228	0.287392	99
Es	0.826226	-1.120972	-0.884881	99
Es	-1.204880	-1.559025	-0.460647	99
Es	-0.020814	1.046737	-1.578096	99
Es	-0.045153	-1.326517	-0.080367	99
Es	0.384366	1.165601	1.233867	99
Es	-0.690975	-1.747855	0.052328	99
Es	-0.136096	0.837756	-0.662060	99
Es	0.003288	1.170846	-1.222111	99
Es	-0.343178	2.721706	-1.467854	99
Es	-0.250770	2.479693	-1.011814	99
Es	0.579862	-0.961490	-0.211230	99
Es	-0.153908	1.930112	-1.053316	99
Es	0.631103	0.298872	2.465303	99
Es	0.583005	0.492197	2.233497	99
Es	0.340467	0.853149	0.530564	99
Es	0.310862	0.523545	-0.136077	99
Es	-0.237586	2.526267	-0.986098	99
Es	-0.546515	-2.477581	0.011962	99
Es	0.418948	0.958478	-0.750906	99
Es	0.439999	-0.192742	-0.174731	99
41
Properties=species:S:1:pos:R:3:Z:I:1 energy=-359.7728702587189 field_type=dipole dipole="0.000000 0.000000 0.000000" charge=0
C	-0.691023	-1.747881	0.052340	6
C	0.579917	-0.961581	-0.211240	6
C	0.310877	0.523509	-0.136110	6
C	0.384367	1.165669	1.233940	6
O	0.583067	0.492029	2.233840	8
N	0.003247	1.170609	-1.222720	7
O	-0.237373	2.526559	-0.985770	8
H	-0.494983	-2.822241	-0.013310	1
H	-1.466123	-1.495891	-0.678790	1
H	-1.092013	-1.532951	1.047840	1
H	0.961287	-1.200631	-1.210670	1
H	1.359627	-1.235051	0.507090	1
H	0.257177	2.257489	1.261300	1
H	-0.458053	2.860359	-1.877740	1
Es	-0.135884	0.837756	-0.661786	99
Es	0.384367	1.165601	1.233867	99
Es	0.299607	1.898263	1.246426	99
Es	0.003287	1.170864	-1.222097	99
Es	-0.343990	2.721734	-1.467707	99
Es	-0.197917	2.657786	-0.733903	99
Es	0.631192	0.302582	2.468169	99
Es	-0.690974	-1.747854	0.052330	99
Es	0.760067	0.778474	1.828045	99
Es	-0.953166	-1.593829	0.721340	99
Es	-0.155996	1.930617	-1.052334	99
Es	0.258220	0.707136	1.886859	99
Es	0.825807	-1.121358	-0.884018	99
Es	-1.204286	-1.558540	-0.460917	99
Es	0.340693	0.853190	0.530556	99
Es	0.440215	-0.192490	-0.175693	99
Es	0.579860	-0.961492	-0.211229	99
Es	-0.021138	1.046798	-1.577211	99
Es	0.418580	0.958494	-0.751119	99
Es	-0.044298	-1.325971	-0.080482	99
Es	-0.237542	2.488754	-1.009953	99
Es	0.572177	0.539312	2.190711	99
Es	-0.546714	-2.477927	0.013010	99
Es	1.085459	-1.156149	0.287845	99
Es	-0.240514	2.518149	-0.990330	99
Es	0.310865	0.523543	-0.136078	99
Es	0.583008	0.492153	2.233460	99
41
Properties=species:S:1:pos:R:3:Z:I:1 energy=-359.7728702587189 field_type=dipole dipole="0.000000 0.000000 0.000000" charge=0
C	-0.691023	-1.747881	0.052340	6
C	0.579917	-0.961581	-0.211240	6
C	0.310877	0.523509	-0.136110	6
C	0.384367	1.165669	1.233940	6
O	0.583067	0.492029	2.233840	8
N	0.003247	1.170609	-1.222720	7
O	-0.237373	2.526559	-0.985770	8
H	-0.494983	-2.822241	-0.013310	1
H	-1.466123	-1.495891	-0.678790	1
H	-1.092013	-1.532951	1.047840	1
H	0.961287	-1.200631	-1.210670	1
H	1.359627	-1.235051	0.507090	1
H	0.257177	2.257489	1.261300	1
H	-0.458053	2.860359	-1.877740	1
Es	-0.136047	0.838213	-0.661834	99
Es	-0.157356	1.931604	-1.049985	99
Es	-0.236153	2.516690	-0.992661	99
Es	-0.344311	2.721361	-1.467910	99
Es	0.384367	1.165601	1.233867	99
Es	0.572269	0.537629	2.189441	99
Es	0.340669	0.853174	0.530403	99
Es	0.419070	0.958371	-0.750879	99
Es	-1.203584	-1.558092	-0.461226	99
Es	-0.546502	-2.477645	0.012777	99
Es	-0.043703	-1.325610	-0.080590	99
Es	0.440145	-0.192527	-0.175745	99
Es	0.825580	-1.121445	-0.883737	99
Es	0.757299	0.781627	1.826046	99
Es	-0.242035	2.489852	-1.007639	99
Es	0.003289	1.170845	-1.222107	99
Es	0.299603	1.898287	1.246283	99
Es	-0.690975	-1.747853	0.052328	99
Es	1.084186	-1.156945	0.288272	99
Es	0.579861	-0.961492	-0.211230	99
Es	-0.021354	1.046620	-1.576982	99
Es	0.583002	0.492279	2.233550	99
Es	0.631971	0.303000	2.468349	99
Es	-0.953103	-1.593955	0.721679	99
Es	0.260112	0.705122	1.889872	99
Es	0.310868	0.523545	-0.136077	99
Es	-0.196182	2.657340	-0.736505	99
41
Properties=species:S:1:pos:R:3:Z:I:1 energy=-359.7728702587189 field_type=dipole dipole="0.000000 0.000000 0.000000" charge=0
C	-0.691023	-1.747881	0.052340	6
C	0.579917	-0.961581	-0.211240	6
C	0.310877	0.523509	-0.136110	6
C	0.384367	1.165669	1.233940	6
O	0.583067	0.492029	2.233840	8
N	0.003247	1.170609	-1.222720	7
O	-0.237373	2.526559	-0.985770	8
H	-0.494983	-2.822241	-0.013310	1
H	-1.466123	-1.495891	-0.678790	1
H	-1.092013	-1.532951	1.047840	1
H	0.961287	-1.200631	-1.210670	1
H	1.359627	-1.235051	0.507090	1
H	0.257177	2.257489	1.261300	1
H	-0.458053	2.860359	-1.877740	1
Es	-0.238500	2.525534	-0.986283	99
Es	-0.021372	1.046612	-1.576552	99
Es	-0.159622	1.932649	-1.047665	99
Es	-0.690970	-1.747852	0.052326	99
Es	0.631804	0.303277	2.468605	99
Es	-0.135857	0.838154	-0.661590	99
Es	0.340699	0.853224	0.530338	99
Es	0.572217	0.538831	2.190493	99
Es	0.440242	-0.192435	-0.176190	99
Es	0.003283	1.170879	-1.222096	99
Es	0.299681	1.898263	1.246274	99
Es	0.259232	0.705572	1.887978	99
Es	0.758471	0.780072	1.827068	99
Es	-0.234753	2.481144	-1.015252	99
Es	0.579861	-0.961491	-0.211230	99
Es	0.825311	-1.121636	-0.883278	99
Es	-1.202523	-1.557367	-0.461556	99
Es	0.583003	0.491904	2.233116	99
Es	-0.546627	-2.477766	0.013191	99
Es	-0.343895	2.721461	-1.467940	99
Es	-0.952961	-1.593770	0.721317	99
Es	0.384368	1.165601	1.233867	99
Es	1.083074	-1.157600	0.288581	99
Es	0.418664	0.958483	-0.751024	99
Es	-0.199109	2.655890	-0.738155	99
Es	0.310860	0.523544	-0.136076	99
Es	-0.043599	-1.325579	-0.080508	99
41
Properties=species:S:1:pos:R:3:Z:I:1 energy=-359.7728702587189 field_type=dipole dipole="0.000000 0.000000 0.000000" charge=0
C	-0.691023	-1.747881	0.052340	6
C	0.579917	-0.961581	-0.211240	6
C	0.310877	0.523509	-0.136110	6
C	0.384367	1.165669	1.233940	6
O	0.583067	0.492029	2.233840	8
N	0.003247	1.170609	-1.222720	7
O	-0.237373	2.526559	-0.985770	8
H	-0.494983	-2.822241	-0.013310	1
H	-1.466123	-1.495891	-0.678790	1
H	-1.092013	-1.532951	1.047840	1
H	0.961287	-1.200631	-1.210670	1
H	1.359627	-1.235051	0.507090	1
H	0.257177	2.257489	1.261300	1
H	-0.458053	2.860359	-1.877740	1
Es	-0.952925	-1.593736	0.721807	99
Es	0.340511	0.853201	0.530326	99
Es	-0.160755	1.934131	-1.044298	99
Es	0.631398	0.303658	2.468971	99
Es	1.081021	-1.158789	0.289047	99
Es	0.384372	1.165601	1.233867	99
Es	0.310861	0.523544	-0.136077	99
Es	-0.546337	-2.477585	0.012844	99
Es	0.579862	-0.961490	-0.211230	99
Es	-0.021070	1.046810	-1.576611	99
Es	0.003290	1.170817	-1.222134	99
Es	0.759031	0.779726	1.827609	99
Es	-0.342656	2.721603	-1.468093	99
Es	-0.042838	-1.325118	-0.080654	99
Es	-0.252006	2.478770	-1.011321	99
Es	0.258830	0.706580	1.887885	99
Es	-0.237323	2.525332	-0.986720	99
Es	0.299618	1.898237	1.246311	99
Es	-0.136127	0.838104	-0.661806	99
Es	-0.183161	2.656803	-0.744767	99
Es	0.583007	0.492163	2.233470	99
Es	0.572292	0.537460	2.189326	99
Es	-0.690974	-1.747854	0.052327	99
Es	0.825297	-1.121710	-0.883715	99
Es	0.419022	0.958507	-0.750849	99
Es	-1.201340	-1.556672	-0.461901	99
Es	0.440085	-0.192494	-0.175854	99
41
Properties=species:S:1:pos:R:3:Z:I:1 energy=-359.7728702587189 field_type=dipole dipole="0.000000 0.000000 0.000000" charge=0
C	-0.691023	-1.747881	0.052340	6
C	0.579917	-0.961581	-0.211240	6
C	0.310877	0.523509	-0.136110	6
C	0.384367	1.165669	1.233940	6
O	0.583067	0.492029	2.233840	8
N	0.003247	1.170609	-1.222720	7
O	-0.237373	2.526559	-0.985770	8
H	-0.494983	-2.822241	-0.013310	1
H	-1.466123	-1.495891	-0.678790	1
H	-1.092013	-1.532951	1.047840	1
H	0.961287	-1.200631	-1.210670	1
H	1.359627	-1.235051	0.507090	1
H	0.257177	2.257489	1.261300	1
H	-0.458053	2.860359	-1.877740	1
Es	0.631550	0.304602	2.469670	99
Es	-0.242590	2.514341	-0.991927	99
Es	-0.546389	-2.477664	0.013318	99
Es	0.003279	1.170894	-1.222092	99
Es	-0.188193	2.655801	-0.744152	99
Es	0.310860	0.523544	-0.136077	99
Es	0.418786	0.958522	-0.750789	99
Es	0.384362	1.165601	1.233868	99
Es	0.440206	-0.192402	-0.176444	99
Es	0.579866	-0.961492	-0.211233	99
Es	1.080183	-1.159170	0.289309	99
Es	-0.690975	-1.747854	0.052328	99
Es	0.260263	0.704871	1.889003	99
Es	-0.136066	0.838297	-0.661664	99
Es	-0.042542	-1.324900	-0.080669	99
Es	0.825186	-1.121859	-0.883131	99
Es	-1.200921	-1.556424	-0.462077	99
Es	0.757543	0.780947	1.826146	99
Es	-0.344346	2.721470	-1.467873	99
Es	0.572311	0.537236	2.189248	99
Es	-0.952857	-1.593636	0.721348	99
Es	0.583006	0.491930	2.233186	99
Es	-0.021108	1.046675	-1.575974	99
Es	0.299672	1.898267	1.246197	99
Es	-0.239032	2.490384	-1.007977	99
Es	-0.161675	1.934440	-1.044154	99
Es	0.340606	0.853179	0.530375	99
41
Properties=species:S:1:pos:R:3:Z:I:1 energy=-359.7728702587189 field_type=dipole dipole="0.000000 0.000000 0.000000" charge=0
C	-0.691023	-1.747881	0.052340	6
C	0.579917	-0.961581	-0.211240	6
C	0.310877	0.523509	-0.136110	6
C	0.384367	1.165669	1.233940	6
O	0.583067	0.492029	2.233840	8
N	0.003247	1.170609	-1.222720	7
O	-0.237373	2.526559	-0.985770	8
H	-0.494983	-2.822241	-0.013310	1
H	-1.466123	-1.495891	-0.678790	1
H	-1.092013	-1.532951	1.047840	1
H	0.961287	-1.200631	-1.210670	1
H	1.359627	-1.235051	0.507090	1
H	0.257177	2.257489	1.261300	1
H	-0.458053	2.860359	-1.877740	1
Es	-1.199667	-1.555589	-0.462374	99
Es	-0.546349	-2.477545	0.013133	99
Es	-0.162795	1.935204	-1.043000	99
Es	0.384365	1.165601	1.233868	99
Es	0.631328	0.306472	2.471119	99
Es	-0.135978	0.838195	-0.661521	99
Es	0.340639	0.853160	0.530343	99
Es	-0.952763	-1.593670	0.721587	99
Es	0.310863	0.523544	-0.136078	99
Es	-0.343275	2.721593	-1.468009	99
Es	-0.239950	2.523902	-0.986824	99
Es	-0.020850	1.046814	-1.575305	99
Es	0.440107	-0.192358	-0.176623	99
Es	-0.690975	-1.747854	0.052328	99
Es	0.418446	0.958712	-0.750808	99
Es	-0.043125	-1.325436	-0.080515	99
Es	0.572465	0.534442	2.187056	99
Es	0.825006	-1.121928	-0.882921	99
Es	0.583006	0.492181	2.233483	99
Es	0.003289	1.170845	-1.222107	99
Es	0.579862	-0.961493	-0.211232	99
Es	-0.183080	2.655701	-0.747014	99
Es	0.260085	0.705776	1.889177	99
Es	-0.246810	2.479830	-1.012029	99
Es	0.757771	0.780726	1.826436	99
Es	1.079699	-1.159488	0.289416	99
Es	0.299673	1.898263	1.246178	99
41
Properties=species:S:1:pos:R:3:Z:I:1 energy=-359.7728702587189 field_type=dipole dipole="0.000000 0.000000 0.000000" charge=0
C	-0.691023	-1.747881	0.052340	6
C	0.579917	-0.961581	-0.211240	6
C	0.310877	0.523509	-0.136110	6
C	0.384367	1.165669	1.233940	6
O	0.583067	0.492029	2.233840	8
N	0.003247	1.170609	-1.222720	7
O	-0.237373	2.526559	-0.985770	8
H	-0.494983	-2.822241	-0.013310	1
H	-1.466123	-1.495891	-0.678790	1
H	-1.092013	-1.532951	1.047840	1
H	0.961287	-1.200631	-1.210670	1
H	1.359627	-1.235051	0.507090	1
H	0.257177	2.257489	1.261300	1
H	-0.458053	2.860359	-1.877740	1
Es	-0.546474	-2.477717	0.013682	99
Es	0.418151	0.958759	-0.750874	99
Es	0.384367	1.165601	1.233867	99
Es	-0.020993	1.046759	-1.575086	99
Es	-0.244078	2.488709	-1.007251	99
Es	0.440334	-0.192192	-0.177138	99
Es	-0.041822	-1.324606	-0.080643	99
Es	-0.344001	2.721417	-1.467989	99
Es	0.340562	0.853217	0.530352	99
Es	1.078454	-1.160221	0.289652	99
Es	-0.236312	2.515470	-0.993058	99
Es	-0.187024	2.654421	-0.747504	99
Es	0.003284	1.170880	-1.222092	99
Es	-1.199624	-1.555607	-0.462437	99
Es	0.572337	0.536096	2.188264	99
Es	-0.164466	1.936150	-1.041348	99
Es	0.631294	0.305802	2.470631	99
Es	-0.135586	0.838160	-0.661467	99
Es	0.260311	0.704447	1.888088	99
Es	0.579861	-0.961491	-0.211230	99
Es	0.824679	-1.122223	-0.882564	99
Es	0.757782	0.780851	1.826663	99
Es	0.299692	1.898241	1.246275	99
Es	0.582996	0.492380	2.233603	99
Es	-0.690975	-1.747854	0.052327	99
Es	0.310861	0.523544	-0.136077	99
Es	-0.952626	-1.593397	0.721114	99
41
Properties=species:S:1:pos:R:3:Z:I:1 energy=-359.7728702587189 field_type=dipole dipole="0.000000 0.000000 0.000000" charge=0
C	-0.691023	-1.747881	0.052340	6
C	0.579917	-0.961581	-0.211240	6
C	0.310877	0.523509	-0.136110	6
C	0.384367	1.165669	1.233940	6
O	0.583067	0.492029	2.233840	8
N	0.003247	1.170609	-1.222720	7
O	-0.237373	2.526559	-0.985770	8
H	-0.494983	-2.822241	-0.013310	1
H	-1.466123	-1.495891	-0.678790	1
H	-1.092013	-1.532951	1.047840	1
H	0.961287	-1.200631	-1.210670	1
H	1.359627	-1.235051	0.507090	1
H	0.257177	2.257489	1.261300	1
H	-0.458053	2.860359	-1.877740	1
Es	-0.690975	-1.747854	0.052328	99
Es	0.572521	0.533319	2.186235	99
Es	0.582993	0.492408	2.233613	99
Es	-0.344603	2.721461	-1.467857	99
Es	-0.188459	2.653662	-0.748072	99
Es	0.310864	0.523545	-0.136077	99
Es	-0.546324	-2.477529	0.013653	99
Es	-0.021590	1.046888	-1.574092	99
Es	0.384367	1.165601	1.233867	99
Es	0.824455	-1.122276	-0.881646	99
Es	0.299664	1.898220	1.246120	99
Es	0.340883	0.853130	0.530520	99
Es	-1.199768	-1.555708	-0.462477	99
Es	0.003289	1.170836	-1.222115	99
Es	1.079118	-1.159846	0.289590	99
Es	-0.136099	0.838560	-0.661434	99
Es	0.267516	0.700231	1.894462	99
Es	-0.240999	2.480076	-1.013630	99
Es	-0.952565	-1.593496	0.721191	99
Es	-0.162850	1.936202	-1.041831	99