45
Properties=species:S:1:pos:R:3:Z:I:1 energy=-288.0396373729513 field_type=dipole dipole="0.000000 0.000000 0.000000" charge=0
C	-1.293548	0.795191	-0.077897	6
C	-1.294988	-0.758189	0.004893	6
C	0.044702	-1.365939	0.507153	6
C	1.113262	-0.724339	-0.290827	6
N	2.317101	0.020311	-0.079937	7
C	1.114272	0.742511	0.181433	6
C	0.040852	1.397461	-0.598957	6
H	-2.126818	1.136770	-0.701867	1
H	-1.475558	1.182791	0.933263	1
H	-1.492688	-1.145239	-1.003407	1
H	-2.120398	-1.097049	0.640753	1
H	0.163942	-1.196910	1.584173	1
H	0.040612	-2.449059	0.344483	1
H	0.982992	-0.970109	-1.342737	1
H	2.787542	-0.276189	0.776413	1
H	1.009262	0.998461	1.233513	1
H	0.047152	2.479841	-0.432707	1
H	0.142312	1.229690	-1.677747	1
Es	-1.294945	-0.758156	0.004902	99
Es	1.009103	-0.876754	-1.014456	99
Es	0.666569	-1.100085	0.142238	99
Es	-0.613677	1.080864	-0.337225	99
Es	0.952466	0.001873	-0.058088	99
Es	-1.857157	-0.986829	0.442795	99
Es	1.847713	-0.472836	-0.141907	99
Es	-1.293501	0.795159	-0.077904	99
Es	-1.279221	0.018868	-0.036457	99
Es	2.577763	-0.132221	0.449430	99
Es	0.665480	1.128079	-0.239638	99
Es	0.029109	-2.115038	0.396178	99
Es	-1.424203	-1.025011	-0.688967	99
Es	0.031305	2.145282	-0.483650	99
Es	-1.859760	1.025981	-0.507428	99
Es	0.044701	-1.365901	0.507125	99
Es	1.113425	-0.724182	-0.290719	99
Es	2.316659	0.020235	-0.079454	99
Es	0.128573	-1.243914	1.245659	99
Es	1.114443	0.742339	0.181346	99
Es	1.027135	0.896378	0.911931	99
Es	0.109216	1.276718	-1.333663	99
Es	0.040851	1.397421	-0.598913	99
Es	2.507943	0.062033	-0.372887	99
Es	-1.412188	1.062530	0.618921	99
Es	-0.615544	-1.047441	0.257872	99
Es	1.863988	0.498239	0.048163	99
45
Properties=species:S:1:pos:R:3:Z:I:1 energy=-288.0396373729513 field_type=dipole dipole="0.000000 0.000000 0.000000" charge=0
C	-1.293548	0.795191	-0.077897	6
C	-1.294988	-0.758189	0.004893	6
C	0.044702	-1.365939	0.507153	6
C	1.113262	-0.724339	-0.290827	6
N	2.317101	0.020311	-0.079937	7
C	1.114272	0.742511	0.181433	6
C	0.040852	1.397461	-0.598957	6
H	-2.126818	1.136770	-0.701867	1
H	-1.475558	1.182791	0.933263	1
H	-1.492688	-1.145239	-1.003407	1
H	-2.120398	-1.097049	0.640753	1
H	0.163942	-1.196910	1.584173	1
H	0.040612	-2.449059	0.344483	1
H	0.982992	-0.970109	-1.342737	1
H	2.787542	-0.276189	0.776413	1
H	1.009262	0.998461	1.233513	1
H	0.047152	2.479841	-0.432707	1
H	0.142312	1.229690	-1.677747	1
Es	-1.859110	1.026497	-0.506899	99
Es	-0.615575	-1.047229	0.258715	99
Es	2.503764	0.062109	-0.366035	99
Es	1.009712	-0.878121	-1.013719	99
Es	0.667331	-1.099059	0.142205	99
Es	1.864207	0.502884	0.047699	99
Es	-1.424838	-1.025565	-0.688641	99
Es	-1.412239	1.062819	0.618379	99
Es	0.949371	0.001885	-0.057695	99
Es	0.044701	-1.365901	0.507124	99
Es	-1.293503	0.795159	-0.077907	99
Es	0.029405	-2.117085	0.396311	99
Es	0.031318	2.147292	-0.483795	99
Es	0.666255	1.126933	-0.239773	99
Es	1.113443	-0.724181	-0.290709	99
Es	-1.280015	0.018951	-0.036212	99
Es	0.108975	1.276238	-1.331854	99
Es	2.580540	-0.131621	0.446699	99
Es	1.114455	0.742363	0.181336	99
Es	1.028278	0.897951	0.910887	99
Es	0.040852	1.397419	-0.598914	99
Es	0.128752	-1.243322	1.243872	99
Es	-0.613667	1.080513	-0.337736	99
Es	2.316649	0.020229	-0.079407	99
Es	-1.855793	-0.986871	0.441751	99
Es	-1.294946	-0.758154	0.004902	99
Es	1.847924	-0.478503	-0.145379	99
45
Properties=species:S:1:pos:R:3:Z:I:1 energy=-288.0396373729513 field_type=dipole dipole="0.000000 0.000000 0.000000" charge=0
C	-1.293548	0.795191	-0.077897	6
C	-1.294988	-0.758189	0.004893	6
C	0.044702	-1.365939	0.507153	6
C	1.113262	-0.724339	-0.290827	6
N	2.317101	0.020311	-0.079937	7
C	1.114272	0.742511	0.181433	6
C	0.040852	1.397461	-0.598957	6
H	-2.126818	1.136770	-0.701867	1
H	-1.475558	1.182791	0.933263	1
H	-1.492688	-1.145239	-1.003407	1
H	-2.120398	-1.097049	0.640753	1
H	0.163942	-1.196910	1.584173	1
H	0.040612	-2.449059	0.344483	1
H	0.982992	-0.970109	-1.342737	1
H	2.787542	-0.276189	0.776413	1
H	1.009262	0.998461	1.233513	1
H	0.047152	2.479841	-0.432707	1
H	0.142312	1.229690	-1.677747	1
Es	2.500086	0.062388	-0.361344	99
Es	1.864701	0.505465	0.047531	99
Es	-1.854783	-0.986811	0.441046	99
Es	1.114449	0.742352	0.181341	99
Es	1.848927	-0.481533	-0.147624	99
Es	-1.280649	0.019000	-0.036001	99
Es	-1.425341	-1.025851	-0.688638	99
Es	-1.412534	1.062900	0.618168	99
Es	1.113434	-0.724174	-0.290713	99
Es	1.009905	-0.879392	-1.013268	99
Es	-1.294945	-0.758154	0.004901	99
Es	-0.613761	1.080291	-0.338445	99
Es	0.109065	1.276322	-1.330511	99
Es	0.947103	0.001580	-0.057774	99
Es	0.667812	-1.097675	0.142314	99
Es	-0.615684	-1.047006	0.259369	99
Es	2.316654	0.020236	-0.079446	99
Es	-1.293502	0.795159	-0.077905	99
Es	0.040852	1.397421	-0.598913	99
Es	2.582884	-0.131295	0.444564	99
Es	1.028824	0.899045	0.910352	99
Es	0.031276	2.148280	-0.483846	99
Es	0.029549	-2.118040	0.396212	99
Es	0.044702	-1.365900	0.507127	99
Es	0.128860	-1.243333	1.242752	99
Es	-1.858533	1.026566	-0.506369	99
Es	0.666892	1.125789	-0.239676	99
45
Properties=species:S:1:pos:R:3:Z:I:1 energy=-288.0396373729513 field_type=dipole dipole="0.000000 0.000000 0.000000" charge=0
C	-1.293548	0.795191	-0.077897	6
C	-1.294988	-0.758189	0.004893	6
C	0.044702	-1.365939	0.507153	6
C	1.113262	-0.724339	-0.290827	6
N	2.317101	0.020311	-0.079937	7
C	1.114272	0.742511	0.181433	6
C	0.040852	1.397461	-0.598957	6
H	-2.126818	1.136770	-0.701867	1
H	-1.475558	1.182791	0.933263	1
H	-1.492688	-1.145239	-1.003407	1
H	-2.120398	-1.097049	0.640753	1
H	0.163942	-1.196910	1.584173	1
H	0.040612	-2.449059	0.344483	1
H	0.982992	-0.970109	-1.342737	1
H	2.787542	-0.276189	0.776413	1
H	1.009262	0.998461	1.233513	1
H	0.047152	2.479841	-0.432707	1
H	0.142312	1.229690	-1.677747	1
Es	-0.615664	-1.046844	0.259662	99
Es	-0.613870	1.080046	-0.338924	99
Es	0.040851	1.397420	-0.598914	99
Es	0.667478	1.124601	-0.239804	99
Es	1.849981	-0.483821	-0.149021	99
Es	0.945213	0.001401	-0.057850	99
Es	1.009950	-0.880423	-1.012946	99
Es	1.865085	0.506941	0.047849	99
Es	-1.425987	-1.026142	-0.688601	99
Es	1.028940	0.899934	0.910002	99
Es	1.113440	-0.724179	-0.290707	99
Es	-1.412793	1.062913	0.618195	99
Es	0.044702	-1.365900	0.507123	99
Es	-1.281321	0.018996	-0.036137	99
Es	-1.857954	1.026671	-0.505934	99
Es	-1.294946	-0.758154	0.004901	99
Es	0.128716	-1.243454	1.241825	99
Es	-1.853833	-0.986633	0.440664	99
Es	-1.293502	0.795159	-0.077905	99
Es	0.031429	2.148953	-0.483725	99
Es	2.497311	0.062869	-0.358186	99
Es	1.114453	0.742358	0.181338	99
Es	2.584582	-0.130866	0.442692	99
Es	2.316634	0.020233	-0.079431	99
Es	0.668537	-1.096315	0.142358	99
Es	0.109079	1.276525	-1.329495	99
Es	0.029736	-2.118658	0.396177	99
45
Properties=species:S:1:pos:R:3:Z:I:1 energy=-288.0396373729513 field_type=dipole dipole="0.000000 0.000000 0.000000" charge=0
C	-1.293548	0.795191	-0.077897	6
C	-1.294988	-0.758189	0.004893	6
C	0.044702	-1.365939	0.507153	6
C	1.113262	-0.724339	-0.290827	6
N	2.317101	0.020311	-0.079937	7
C	1.114272	0.742511	0.181433	6
C	0.040852	1.397461	-0.598957	6
H	-2.126818	1.136770	-0.701867	1
H	-1.475558	1.182791	0.933263	1
H	-1.492688	-1.145239	-1.003407	1
H	-2.120398	-1.097049	0.640753	1
H	0.163942	-1.196910	1.584173	1
H	0.040612	-2.449059	0.344483	1
H	0.982992	-0.970109	-1.342737	1
H	2.787542	-0.276189	0.776413	1
H	1.009262	0.998461	1.233513	1
H	0.047152	2.479841	-0.432707	1
H	0.142312	1.229690	-1.677747	1
Es	1.009925	-0.881297	-1.012690	99
Es	2.316735	0.020246	-0.079606	99
Es	-0.613981	1.079751	-0.339292	99
Es	2.492358	0.063594	-0.355275	99
Es	0.943605	0.001673	-0.057950	99
Es	0.109097	1.276756	-1.328609	99
Es	1.029008	0.900719	0.909857	99
Es	-0.615827	-1.046525	0.260140	99
Es	0.044702	-1.365900	0.507124	99
Es	0.669004	-1.095091	0.142236	99
Es	-1.293504	0.795159	-0.077904	99
Es	0.029766	-2.119126	0.396076	99
Es	1.113434	-0.724175	-0.290712	99
Es	-1.426178	-1.026365	-0.688696	99
Es	-1.413127	1.063037	0.618176	99
Es	1.851105	-0.485908	-0.150107	99
Es	2.588605	-0.130272	0.440338	99
Es	0.668248	1.123518	-0.239690	99
Es	-1.853353	-0.986593	0.440453	99
Es	0.128760	-1.243578	1.241115	99
Es	-1.857381	1.026645	-0.505651	99
Es	1.114458	0.742357	0.181335	99
Es	1.865079	0.507373	0.048395	99
Es	0.031614	2.149363	-0.483724	99
Es	-1.281813	0.019001	-0.036122	99
Es	-1.294945	-0.758154	0.004902	99
Es	0.040852	1.397420	-0.598913	99
45
Properties=species:S:1:pos:R:3:Z:I:1 energy=-288.0396373729513 field_type=dipole dipole="0.000000 0.000000 0.000000" charge=0
C	-1.293548	0.795191	-0.077897	6
C	-1.294988	-0.758189	0.004893	6
C	0.044702	-1.365939	0.507153	6
C	1.113262	-0.724339	-0.290827	6
N	2.317101	0.020311	-0.079937	7
C	1.114272	0.742511	0.181433	6
C	0.040852	1.397461	-0.598957	6
H	-2.126818	1.136770	-0.701867	1
H	-1.475558	1.182791	0.933263	1
H	-1.492688	-1.145239	-1.003407	1
H	-2.120398	-1.097049	0.640753	1
H	0.163942	-1.196910	1.584173	1
H	0.040612	-2.449059	0.344483	1
H	0.982992	-0.970109	-1.342737	1
H	2.787542	-0.276189	0.776413	1
H	1.009262	0.998461	1.233513	1
H	0.047152	2.479841	-0.432707	1
H	0.142312	1.229690	-1.677747	1
Es	-0.614068	1.079594	-0.339691	99
Es	1.114451	0.742350	0.181339	99
Es	0.109192	1.276940	-1.327979	99
Es	2.488533	0.063485	-0.353162	99
Es	0.044701	-1.365900	0.507123	99
Es	1.851596	-0.486544	-0.150497	99
Es	-1.852843	-0.986628	0.440260	99
Es	0.031795	2.149671	-0.483634	99
Es	1.865721	0.508586	0.048960	99
Es	0.040851	1.397419	-0.598914	99
Es	2.316619	0.020235	-0.079419	99
Es	-0.615792	-1.046357	0.260480	99
Es	-1.413596	1.063240	0.618329	99
Es	0.029769	-2.119405	0.395954	99
Es	-1.282358	0.018984	-0.036054	99
Es	0.669689	-1.093742	0.142107	99
Es	1.028779	0.901504	0.909664	99
Es	-1.856710	1.026457	-0.505443	99
Es	1.113448	-0.724192	-0.290696	99
Es	-1.294947	-0.758154	0.004904	99
Es	0.942243	0.001340	-0.058212	99
Es	2.591801	-0.130211	0.438076	99
Es	-1.293504	0.795157	-0.077905	99
Es	0.128701	-1.243857	1.240456	99
Es	-1.426504	-1.026363	-0.688777	99
Es	0.668770	1.122334	-0.239605	99
Es	1.009909	-0.882315	-1.012461	99
45
Properties=species:S:1:pos:R:3:Z:I:1 energy=-288.0396373729513 field_type=dipole dipole="0.000000 0.000000 0.000000" charge=0
C	-1.293548	0.795191	-0.077897	6
C	-1.294988	-0.758189	0.004893	6
C	0.044702	-1.365939	0.507153	6
C	1.113262	-0.724339	-0.290827	6
N	2.317101	0.020311	-0.079937	7
C	1.114272	0.742511	0.181433	6
C	0.040852	1.397461	-0.598957	6
H	-2.126818	1.136770	-0.701867	1
H	-1.475558	1.182791	0.933263	1
H	-1.492688	-1.145239	-1.003407	1
H	-2.120398	-1.097049	0.640753	1
H	0.163942	-1.196910	1.584173	1
H	0.040612	-2.449059	0.344483	1
H	0.982992	-0.970109	-1.342737	1
H	2.787542	-0.276189	0.776413	1
H	1.009262	0.998461	1.233513	1
H	0.047152	2.479841	-0.432707	1
H	0.142312	1.229690	-1.677747	1
Es	-1.852451	-0.986668	0.440063	99
Es	1.113441	-0.724181	-0.290708	99
Es	1.114464	0.742368	0.181329	99
Es	0.941123	0.001358	-0.058138	99
Es	-1.426660	-1.026442	-0.688833	99
Es	-0.615955	-1.046122	0.260804	99
Es	-1.294947	-0.758154	0.004902	99
Es	0.669361	1.121326	-0.239555	99
Es	0.128681	-1.244135	1.239879	99
Es	0.040852	1.397417	-0.598911	99
Es	0.670383	-1.092621	0.142036	99
Es	-1.293501	0.795160	-0.077903	99
Es	1.865966	0.509186	0.049324	99
Es	-1.413872	1.063221	0.618303	99
Es	1.852323	-0.487556	-0.151342	99
Es	2.486394	0.063730	-0.351293	99
Es	1.009711	-0.883140	-1.012261	99
Es	1.028687	0.902264	0.909441	99
Es	0.029855	-2.119590	0.395837	99
Es	0.044701	-1.365899	0.507123	99
Es	-1.856302	1.026451	-0.505210	99
Es	0.109200	1.277199	-1.327438	99
Es	-0.614130	1.079430	-0.339875	99
Es	0.031878	2.149847	-0.483514	99
Es	2.316633	0.020236	-0.079444	99
Es	2.593196	-0.130018	0.436649	99
Es	-1.282787	0.018963	-0.036058	99
45
Properties=species:S:1:pos:R:3:Z:I:1 energy=-288.0396373729513 field_type=dipole dipole="0.000000 0.000000 0.000000" charge=0
C	-1.293548	0.795191	-0.077897	6
C	-1.294988	-0.758189	0.004893	6
C	0.044702	-1.365939	0.507153	6
C	1.113262	-0.724339	-0.290827	6
N	2.317101	0.020311	-0.079937	7
C	1.114272	0.742511	0.181433	6
C	0.040852	1.397461	-0.598957	6
H	-2.126818	1.136770	-0.701867	1
H	-1.475558	1.182791	0.933263	1
H	-1.492688	-1.145239	-1.003407	1
H	-2.120398	-1.097049	0.640753	1
H	0.163942	-1.196910	1.584173	1
H	0.040612	-2.449059	0.344483	1
H	0.982992	-0.970109	-1.342737	1
H	2.787542	-0.276189	0.776413	1
H	1.009262	0.998461	1.233513	1
H	0.047152	2.479841	-0.432707	1
H	0.142312	1.229690	-1.677747	1
Es	-1.294946	-0.758154	0.004901	99
Es	1.009531	-0.883901	-1.012048	99
Es	-1.852192	-0.986614	0.439969	99
Es	0.044702	-1.365899	0.507123	99
Es	0.669972	1.120347	-0.239468	99
Es	-1.855654	1.026294	-0.504905	99
Es	0.031899	2.150021	-0.483459	99
Es	2.483364	0.064004	-0.349544	99
Es	-1.283265	0.018910	-0.036194	99
Es	-1.426832	-1.026498	-0.688875	99
Es	1.852840	-0.488386	-0.151824	99
Es	-1.414200	1.063465	0.618473	99
Es	0.670912	-1.091497	0.141995	99
Es	0.109234	1.277422	-1.326893	99
Es	-0.615979	-1.045936	0.261131	99
Es	2.595771	-0.129697	0.434863	99
Es	1.113446	-0.724183	-0.290712	99
Es	0.029838	-2.119803	0.395773	99
Es	-0.614177	1.079141	-0.340327	99
Es	1.114462	0.742357	0.181331	99
Es	1.866090	0.509366	0.049777	99
Es	1.028525	0.903007	0.909332	99
Es	0.128590	-1.244356	1.239304	99
Es	2.316632	0.020237	-0.079445	99
Es	-1.293503	0.795158	-0.077905	99
Es	0.940335	0.001402	-0.058252	99
Es	0.040852	1.397420	-0.598913	99
45
Properties=species:S:1:pos:R:3:Z:I:1 energy=-288.0396373729513 field_type=dipole dipole="0.000000 0.000000 0.000000" charge=0
C	-1.293548	0.795191	-0.077897	6
C	-1.294988	-0.758189	0.004893	6
C	0.044702	-1.365939	0.507153	6
C	1.113262	-0.724339	-0.290827	6
N	2.317101	0.020311	-0.079937	7
C	1.114272	0.742511	0.181433	6
C	0.040852	1.397461	-0.598957	6
H	-2.126818	1.136770	-0.701867	1
H	-1.475558	1.182791	0.933263	1
H	-1.492688	-1.145239	-1.003407	1
H	-2.120398	-1.097049	0.640753	1
H	0.163942	-1.196910	1.584173	1
H	0.040612	-2.449059	0.344483	1
H	0.982992	-0.970109	-1.342737	1
H	2.787542	-0.276189	0.776413	1
H	1.009262	0.998461	1.233513	1
H	0.047152	2.479841	-0.432707	1
H	0.142312	1.229690	-1.677747	1
Es	1.114464	0.742371	0.181324	99
Es	-1.852088	-0.986616	0.439933	99
Es	1.028244	0.903633	0.909216	99
Es	1.009381	-0.884506	-1.011895	99
Es	1.113431	-0.724174	-0.290716	99
Es	0.032081	2.150140	-0.483314	99
Es	1.866261	0.509638	0.050297	99
Es	-1.414580	1.063580	0.618554	99
Es	0.109223	1.277597	-1.326567	99
Es	0.939382	0.001461	-0.058314	99
Es	-1.293503	0.795158	-0.077904	99
Es	0.671654	-1.090753	0.141824	99
Es	2.316804	0.020256	-0.079727	99
Es	2.480091	0.064046	-0.347387	99
Es	0.040850	1.397419	-0.598915	99
Es	2.598382	-0.129546	0.432980	99
Es	1.853386	-0.488789	-0.152407	99
Es	-1.855152	1.026115	-0.504711	99
Es	0.029806	-2.119854	0.395759	99
Es	-0.614248	1.079120	-0.340467	99
Es	-0.616051	-1.045850	0.261256	99
Es	0.670520	1.119427	-0.239355	99
Es	0.128483	-1.244537	1.238960	99
Es	-1.283434	0.018873	-0.036402	99
Es	-1.426899	-1.026528	-0.688841	99
Es	-1.294945	-0.758153	0.004902	99
Es	0.044702	-1.365899	0.507123	99
45
Properties=species:S:1:pos:R:3:Z:I:1 energy=-288.0396373729513 field_type=dipole dipole="0.000000 0.000000 0.000000" charge=0
C	-1.293548	0.795191	-0.077897	6
C	-1.294988	-0.758189	0.004893	6
C	0.044702	-1.365939	0.507153	6
C	1.113262	-0.724339	-0.290827	6
N	2.317101	0.020311	-0.079937	7
C	1.114272	0.742511	0.181433	6
C	0.040852	1.397461	-0.598957	6
H	-2.126818	1.136770	-0.701867	1
H	-1.475558	1.182791	0.933263	1
H	-1.492688	-1.145239	-1.003407	1
H	-2.120398	-1.097049	0.640753	1
H	0.163942	-1.196910	1.584173	1
H	0.040612	-2.449059	0.344483	1
H	0.982992	-0.970109	-1.342737	1
H	2.787542	-0.276189	0.776413	1
H	1.009262	0.998461	1.233513	1
H	0.047152	2.479841	-0.432707	1
H	0.142312	1.229690	-1.677747	1
Es	0.672097	-1.089757	0.141781	99
Es	-1.854836	1.026048	-0.504492	99
Es	0.029858	-2.119953	0.395643	99
Es	0.044701	-1.365899	0.507122	99
Es	0.670960	1.118639	-0.239272	99
Es	2.599677	-0.129338	0.431746	99
Es	-0.616060	-1.045746	0.261503	99
Es	-0.614254	1.078933	-0.340827	99
Es	1.009214	-0.885212	-1.011667	99
Es	1.113435	-0.724175	-0.290714	99
Es	0.128367	-1.244738	1.238609	99
Es	1.028029	0.904079	0.909147	99
Es	2.316609	0.020256	-0.079434	99
Es	2.478572	0.064219	-0.346282	99
Es	-1.414721	1.063680	0.618569	99
Es	-1.283915	0.018886	-0.036337	99
Es	0.109214	1.277818	-1.326173	99
Es	0.040852	1.397419	-0.598913	99
Es	0.938807	0.001553	-0.058507	99
Es	-1.294944	-0.758152	0.004907	99
Es	1.114467	0.742364	0.181328	99
Es	-1.427057	-1.026634	-0.688918	99
Es	0.032206	2.150234	-0.483192	99
Es	-1.851770	-0.986566	0.439791	99
Es	1.866394	0.509815	0.050581	99
Es	1.853848	-0.489304	-0.152889	99
Es	-1.293503	0.795159	-0.077904	99
45
Properties=species:S:1:pos:R:3:Z:I:1 energy=-288.0396373729513 field_type=dipole dipole="0.000000 0.000000 0.000000" charge=0
C	-1.293548	0.795191	-0.077897	6
C	-1.294988	-0.758189	0.004893	6
C	0.044702	-1.365939	0.507153	6
C	1.113262	-0.724339	-0.290827	6
N	2.317101	0.020311	-0.079937	7
C	1.114272	0.742511	0.181433	6
C	0.040852	1.397461	-0.598957	6
H	-2.126818	1.136770	-0.701867	1
H	-1.475558	1.182791	0.933263	1
H	-1.492688	-1.145239	-1.003407	1
H	-2.120398	-1.097049	0.640753	1
H	0.163942	-1.196910	1.584173	1
H	0.040612	-2.449059	0.344483	1
H	0.982992	-0.970109	-1.342737	1
H	2.787542	-0.276189	0.776413	1
H	1.009262	0.998461	1.233513	1
H	0.047152	2.479841	-0.432707	1
H	0.142312	1.229690	-1.677747	1
Es	0.029948	-2.120014	0.395680	99
Es	2.477890	0.064581	-0.345370	99
Es	-1.293504	0.795158	-0.077904	99
Es	0.671553	1.117871	-0.239084	99
Es	1.114455	0.742357	0.181338	99
Es	1.009076	-0.885842	-1.011493	99
Es	-1.414969	1.063746	0.618581	99
Es	2.316569	0.020232	-0.079336	99
Es	-1.294945	-0.758154	0.004901	99
Es	0.128407	-1.244965	1.238080	99
Es	-1.427320	-1.026766	-0.688997	99
Es	-1.854461	1.026014	-0.504382	99
Es	0.937735	0.001380	-0.058495	99
Es	-0.614451	1.078817	-0.341003	99
Es	1.027802	0.904780	0.908891	99
Es	1.113442	-0.724187	-0.290701	99
Es	2.599956	-0.129481	0.431075	99
Es	-1.284138	0.018767	-0.036420	99
Es	1.866629	0.509818	0.051032	99
Es	0.672798	-1.089098	0.141621	99
Es	0.109330	1.278011	-1.325749	99
Es	0.040852	1.397420	-0.598914	99
Es	-1.851443	-0.986472	0.439823	99
Es	-0.616265	-1.045513	0.261732	99
Es	1.854346	-0.489213	-0.153623	99
Es	0.044702	-1.365898	0.507123	99
Es	0.032254	2.150280	-0.483200	99
45
Properties=species:S:1:pos:R:3:Z:I:1 energy=-288.0396373729513 field_type=dipole dipole="0.000000 0.000000 0.000000" charge=0
C	-1.293548	0.795191	-0.077897	6
C	-1.294988	-0.758189	0.004893	6
C	0.044702	-1.365939	0.507153	6
C	1.113262	-0.724339	-0.290827	6
N	2.317101	0.020311	-0.079937	7
C	1.114272	0.742511	0.181433	6
C	0.040852	1.397461	-0.598957	6
H	-2.126818	1.136770	-0.701867	1
H	-1.475558	1.182791	0.933263	1
H	-1.492688	-1.145239	-1.003407	1
H	-2.120398	-1.097049	0.640753	1
H	0.163942	-1.196910	1.584173	1
H	0.040612	-2.449059	0.344483	1
H	0.982992	-0.970109	-1.342737	1
H	2.787542	-0.276189	0.776413	1
H	1.009262	0.998461	1.233513	1
H	0.047152	2.479841	-0.432707	1
H	0.142312	1.229690	-1.677747	1
Es	2.474060	0.064207	-0.343683	99
Es	0.040852	1.397418	-0.598913	99
Es	0.032380	2.150313	-0.483057	99
Es	0.109240	1.278069	-1.325731	99
Es	0.128261	-1.245016	1.238064	99
Es	0.044702	-1.365900	0.507124	99
Es	0.938144	0.001526	-0.058674	99
Es	2.603600	-0.128801	0.428442	99
Es	-1.415214	1.063855	0.618650	99
Es	0.671731	1.117228	-0.239060	99
Es	2.316607	0.020233	-0.079396	99
Es	-1.294945	-0.758154	0.004902	99
Es	-0.616189	-1.045544	0.261688	99
Es	1.866596	0.510108	0.051467	99
Es	-0.614339	1.078769	-0.340987	99
Es	1.114467	0.742371	0.181322	99
Es	-1.851568	-0.986630	0.439804	99
Es	1.027516	0.905161	0.908907	99
Es	1.854343	-0.489920	-0.153108	99
Es	-1.854171	1.025861	-0.504319	99
Es	1.113435	-0.724175	-0.290713	99
Es	0.029888	-2.120072	0.395537	99
Es	1.008937	-0.886270	-1.011409	99
Es	-1.427163	-1.026644	-0.688966	99
Es	0.672819	-1.088392	0.141637	99
Es	-1.284240	0.018870	-0.036419	99
Es	-1.293504	0.795159	-0.077904	99
45
Properties=species:S:1:pos:R:3:Z:I:1 energy=-288.0396373729513 field_type=dipole dipole="0.000000 0.000000 0.000000" charge=0
C	-1.293548	0.795191	-0.077897	6
C	-1.294988	-0.758189	0.004893	6
C	0.044702	-1.365939	0.507153	6
C	1.113262	-0.724339	-0.290827	6
N	2.317101	0.020311	-0.079937	7
C	1.114272	0.742511	0.181433	6
C	0.040852	1.397461	-0.598957	6
H	-2.126818	1.136770	-0.701867	1
H	-1.475558	1.182791	0.933263	1
H	-1.492688	-1.145239	-1.003407	1
H	-2.120398	-1.097049	0.640753	1
H	0.163942	-1.196910	1.584173	1
H	0.040612	-2.449059	0.344483	1
H	0.982992	-0.970109	-1.342737	1
H	2.787542	-0.276189	0.776413	1
H	1.009262	0.998461	1.233513	1
H	0.047152	2.479841	-0.432707	1
H	0.142312	1.229690	-1.677747	1
Es	-1.415581	1.064107	0.618822	99
Es	1.866477	0.509767	0.051925	99
Es	2.470178	0.064068	-0.341493	99
Es	0.937435	0.001655	-0.058609	99
Es	-1.853581	1.025654	-0.504139	99
Es	-1.284427	0.018819	-0.036585	99
Es	-1.294946	-0.758155	0.004901	99
Es	1.114461	0.742364	0.181331	99
Es	1.854630	-0.490094	-0.153247	99
Es	1.008969	-0.886424	-1.011356	99
Es	0.109389	1.277994	-1.325877	99
Es	1.027285	0.905576	0.908720	99
Es	-0.614332	1.078735	-0.341055	99
Es	-1.427129	-1.026640	-0.689049	99
Es	0.029782	-2.120063	0.395553	99
Es	0.032475	2.150341	-0.482955	99
Es	0.671993	1.116865	-0.238743	99
Es	-0.616339	-1.045378	0.261892	99
Es	0.673210	-1.088274	0.141376	99
Es	2.607419	-0.128161	0.425814	99
Es	0.040852	1.397418	-0.598911	99
Es	-1.851570	-0.986704	0.439899	99
Es	1.113443	-0.724187	-0.290701	99
Es	2.316589	0.020237	-0.079378	99
Es	-1.293503	0.795157	-0.077903	99
Es	0.128364	-1.245147	1.237853	99
Es	0.044702	-1.365901	0.507123	99
45
Properties=species:S:1:pos:R:3:Z:I:1 energy=-288.0396373729513 field_type=dipole dipole="0.000000 0.000000 0.000000" charge=0
C	-1.293548	0.795191	-0.077897	6
C	-1.294988	-0.758189	0.004893	6
C	0.044702	-1.365939	0.507153	6
C	1.113262	-0.724339	-0.290827	6
N	2.317101	0.020311	-0.079937	7
C	1.114272	0.742511	0.181433	6
C	0.040852	1.397461	-0.598957	6
H	-2.126818	1.136770	-0.701867	1
H	-1.475558	1.182791	0.933263	1
H	-1.492688	-1.145239	-1.003407	1
H	-2.120398	-1.097049	0.640753	1
H	0.163942	-1.196910	1.584173	1
H	0.040612	-2.449059	0.344483	1
H	0.982992	-0.970109	-1.342737	1
H	2.787542	-0.276189	0.776413	1
H	1.009262	0.998461	1.233513	1
H	0.047152	2.479841	-0.432707	1
H	0.142312	1.229690	-1.677747	1
Es	0.109379	1.278235	-1.325462	99
Es	-0.616329	-1.045262	0.261986	99
Es	-0.614376	1.078580	-0.341318	99
Es	-1.293506	0.795157	-0.077907	99
Es	1.008684	-0.886892	-1.011208	99
Es	2.470181	0.064160	-0.341081	99
Es	0.040852	1.397418	-0.598912	99
Es	0.936928	0.001720	-0.058566	99
Es	2.316571	0.020227	-0.079322	99
Es	0.673812	-1.087604	0.141287	99
Es	-1.851333	-0.986636	0.439876	99
Es	1.027050	0.906048	0.908616	99
Es	-1.294946	-0.758153	0.004901	99
Es	1.866606	0.509859	0.051897	99
Es	-1.415664	1.064129	0.618769	99
Es	0.032500	2.150394	-0.482881	99
Es	1.854978	-0.490256	-0.153631	99
Es	2.607151	-0.128217	0.425707	99
Es	-1.853425	1.025636	-0.504023	99
Es	-1.284635	0.018793	-0.036540	99
Es	0.029764	-2.120113	0.395467	99
Es	0.044703	-1.365898	0.507124	99
Es	0.128239	-1.245329	1.237559	99
Es	1.113440	-0.724178	-0.290709	99
Es	-1.427311	-1.026726	-0.689085	99
Es	1.114469	0.742376	0.181320	99
Es	0.672462	1.116160	-0.238658	99
45
Properties=species:S:1:pos:R:3:Z:I:1 energy=-288.0396373729513 field_type=dipole dipole="0.000000 0.000000 0.000000" charge=0
C	-1.293548	0.795191	-0.077897	6
C	-1.294988	-0.758189	0.004893	6
C	0.044702	-1.365939	0.507153	6
C	1.113262	-0.724339	-0.290827	6
N	2.317101	0.020311	-0.079937	7
C	1.114272	0.742511	0.181433	6
C	0.040852	1.397461	-0.598957	6
H	-2.126818	1.136770	-0.701867	1
H	-1.475558	1.182791	0.933263	1
H	-1.492688	-1.145239	-1.003407	1
H	-2.120398	-1.097049	0.640753	1
H	0.163942	-1.196910	1.584173	1
H	0.040612	-2.449059	0.344483	1
H	0.982992	-0.970109	-1.342737	1
H	2.787542	-0.276189	0.776413	1
H	1.009262	0.998461	1.233513	1
H	0.047152	2.479841	-0.432707	1
H	0.142312	1.229690	-1.677747	1
Es	-1.293503	0.795158	-0.077904	99
Es	0.044703	-1.365901	0.507126	99
Es	0.673879	-1.087481	0.141195	99
Es	0.032530	2.150403	-0.482838	99
Es	2.316560	0.020219	-0.079277	99
Es	-1.284765	0.018798	-0.036768	99
Es	1.855012	-0.490459	-0.153359	99
Es	1.113444	-0.724196	-0.290690	99
Es	1.026903	0.906501	0.908501	99
Es	1.008653	-0.887035	-1.011090	99
Es	0.936847	0.001778	-0.058634	99
Es	0.672636	1.115749	-0.238389	99
Es	0.128244	-1.245278	1.237561	99
Es	0.109395	1.278113	-1.325677	99
Es	2.610424	-0.127561	0.423279	99
Es	-0.614320	1.078601	-0.341296	99
Es	-1.415889	1.064305	0.618968	99
Es	1.866310	0.509613	0.052251	99
Es	0.029698	-2.120160	0.395484	99
Es	-1.294946	-0.758154	0.004901	99
Es	-1.852987	1.025511	-0.503881	99
Es	-0.616307	-1.045252	0.262006	99
Es	1.114463	0.742364	0.181328	99
Es	-1.427128	-1.026621	-0.689079	99
Es	0.040852	1.397419	-0.598913	99
Es	-1.851526	-0.986744	0.439875	99
Es	2.467063	0.063937	-0.339473	99
45
Properties=species:S:1:pos:R:3:Z:I:1 energy=-288.0396373729513 field_type=dipole dipole="0.000000 0.000000 0.000000" charge=0
C	-1.293548	0.795191	-0.077897	6
C	-1.294988	-0.758189	0.004893	6
C	0.044702	-1.365939	0.507153	6
C	1.113262	-0.724339	-0.290827	6
N	2.317101	0.020311	-0.079937	7
C	1.114272	0.742511	0.181433	6
C	0.040852	1.397461	-0.598957	6
H	-2.126818	1.136770	-0.701867	1
H	-1.475558	1.182791	0.933263	1
H	-1.492688	-1.145239	-1.003407	1
H	-2.120398	-1.097049	0.640753	1
H	0.163942	-1.196910	1.584173	1
H	0.040612	-2.449059	0.344483	1
H	0.982992	-0.970109	-1.342737	1
H	2.787542	-0.276189	0.776413	1
H	1.009262	0.998461	1.233513	1
H	0.047152	2.479841	-0.432707	1
H	0.142312	1.229690	-1.677747	1
Es	-1.427302	-1.026718	-0.689070	99
Es	-1.415959	1.064356	0.618941	99
Es	1.855557	-0.490635	-0.154275	99
Es	-1.852903	1.025443	-0.503823	99
Es	1.008498	-0.887238	-1.011000	99
Es	-1.294945	-0.758154	0.004901	99
Es	0.040852	1.397419	-0.598913	99
Es	1.866380	0.509647	0.052578	99
Es	0.044703	-1.365901	0.507124	99
Es	1.114467	0.742378	0.181316	99
Es	-1.851340	-0.986649	0.439864	99
Es	0.673021	1.115288	-0.238345	99
Es	-1.293503	0.795158	-0.077905	99
Es	-1.284811	0.018792	-0.036758	99
Es	0.032549	2.150445	-0.482861	99
Es	-0.614401	1.078502	-0.341430	99
Es	1.113432	-0.724177	-0.290713	99
Es	2.467318	0.064310	-0.338937	99
Es	0.674215	-1.087063	0.141107	99
Es	0.936456	0.001817	-0.058572	99
Es	0.029728	-2.120173	0.395466	99
Es	1.026807	0.906776	0.908377	99
Es	2.609717	-0.127874	0.423416	99
Es	2.316587	0.020258	-0.079396	99
Es	-0.616359	-1.045243	0.262108	99
Es	0.109305	1.278268	-1.325321	99
Es	0.128176	-1.245401	1.237325	99
45
Properties=species:S:1:pos:R:3:Z:I:1 energy=-288.0396373729513 field_type=dipole dipole="0.000000 0.000000 0.000000" charge=0
C	-1.293548	0.795191	-0.077897	6
C	-1.294988	-0.758189	0.004893	6
C	0.044702	-1.365939	0.507153	6
C	1.113262	-0.724339	-0.290827	6
N	2.317101	0.020311	-0.079937	7
C	1.114272	0.742511	0.181433	6
C	0.040852	1.397461	-0.598957	6
H	-2.126818	1.136770	-0.701867	1
H	-1.475558	1.182791	0.933263	1
H	-1.492688	-1.145239	-1.003407	1
H	-2.120398	-1.097049	0.640753	1
H	0.163942	-1.196910	1.584173	1
H	0.040612	-2.449059	0.344483	1
H	0.982992	-0.970109	-1.342737	1
H	2.787542	-0.276189	0.776413	1
H	1.009262	0.998461	1.233513	1
H	0.047152	2.479841	-0.432707	1
H	0.142312	1.229690	-1.677747	1
Es	0.029605	-2.120154	0.395453	99
Es	1.855422	-0.490731	-0.153709	99
Es	2.316577	0.020227	-0.079335	99
Es	1.008680	-0.887378	-1.010989	99
Es	-0.614346	1.078554	-0.341292	99
Es	0.128204	-1.245378	1.237436	99
Es	2.613221	-0.127108	0.420611	99
Es	-1.294946	-0.758153	0.004901	99
Es	1.114454	0.742365	0.181335	99
Es	-1.851403	-0.986735	0.439984	99
Es	0.032688	2.150420	-0.482779	99
Es	1.026585	0.907055	0.908331	99
Es	0.109351	1.278170	-1.325579	99
Es	0.674169	-1.087040	0.141004	99
Es	-1.427218	-1.026689	-0.689192	99
Es	-1.293503	0.795158	-0.077905	99
Es	-1.416211	1.064467	0.619073	99
Es	0.936419	0.001888	-0.058751	99
Es	0.673077	1.115097	-0.238225	99
Es	-1.284931	0.018756	-0.036879	99
Es	-0.616342	-1.045136	0.262070	99
Es	0.040852	1.397419	-0.598913	99
Es	1.113442	-0.724186	-0.290702	99
Es	-1.852518	1.025335	-0.503719	99
Es	1.866374	0.509610	0.052731	99
Es	2.463842	0.063696	-0.336877	99
Es	0.044702	-1.365898	0.507123	99
45
Properties=species:S:1:pos:R:3:Z:I:1 energy=-288.0396373729513 field_type=dipole dipole="0.000000 0.000000 0.000000" charge=0
C	-1.293548	0.795191	-0.077897	6
C	-1.294988	-0.758189	0.004893	6
C	0.044702	-1.365939	0.507153	6
C	1.113262	-0.724339	-0.290827	6
N	2.317101	0.020311	-0.079937	7
C	1.114272	0.742511	0.181433	6
C	0.040852	1.397461	-0.598957	6
H	-2.126818	1.136770	-0.701867	1
H	-1.475558	1.182791	0.933263	1
H	-1.492688	-1.145239	-1.003407	1
H	-2.120398	-1.097049	0.640753	1
H	0.163942	-1.196910	1.584173	1
H	0.040612	-2.449059	0.344483	1
H	0.982992	-0.970109	-1.342737	1
H	2.787542	-0.276189	0.776413	1
H	1.009262	0.998461	1.233513	1
H	0.047152	2.479841	-0.432707	1
H	0.142312	1.229690	-1.677747	1
Es	-1.427268	-1.026730	-0.689154	99
Es	-1.294945	-0.758154	0.004901	99
Es	0.040852	1.397417	-0.598912	99
Es	0.936140	0.002030	-0.058740	99
Es	0.032653	2.150455	-0.482731	99
Es	-0.616421	-1.045101	0.262202	99
Es	2.612998	-0.127089	0.420661	99
Es	0.109471	1.278338	-1.325285	99
Es	0.673449	1.114562	-0.237951	99
Es	0.128159	-1.245521	1.237189	99
Es	-1.285087	0.018769	-0.036884	99
Es	-1.851307	-0.986698	0.439895	99
Es	1.114466	0.742375	0.181320	99
Es	2.463951	0.064021	-0.337083	99
Es	0.674579	-1.086450	0.140949	99
Es	-1.416248	1.064536	0.619061	99
Es	-1.293503	0.795158	-0.077905	99
Es	1.026389	0.907435	0.908206	99
Es	-1.852407	1.025339	-0.503704	99
Es	0.029711	-2.120176	0.395410	99
Es	0.044702	-1.365899	0.507124	99
Es	2.316715	0.020230	-0.079516	99
Es	1.113428	-0.724177	-0.290718	99
Es	-0.614450	1.078359	-0.341585	99
Es	1.866376	0.509357	0.052994	99
Es	1.008390	-0.887816	-1.010805	99
Es	1.855453	-0.490940	-0.153733	99
45
Properties=species:S:1:pos:R:3:Z:I:1 energy=-288.0396373729513 field_type=dipole dipole="0.000000 0.000000 0.000000" charge=0
C	-1.293548	0.795191	-0.077897	6
C	-1.294988	-0.758189	0.004893	6
C	0.044702	-1.365939	0.507153	6
C	1.113262	-0.724339	-0.290827	6
N	2.317101	0.020311	-0.079937	7
C	1.114272	0.742511	0.181433	6
C	0.040852	1.397461	-0.598957	6
H	-2.126818	1.136770	-0.701867	1
H	-1.475558	1.182791	0.933263	1
H	-1.492688	-1.145239	-1.003407	1
H	-2.120398	-1.097049	0.640753	1