41
Properties=species:S:1:pos:R:3:Z:I:1 energy=-359.8517470916432 field_type=dipole dipole="0.000000 0.000000 0.000000" charge=0
C	-1.489197	0.507099	-0.078549	6
C	-0.018497	0.296469	0.093491	6
C	0.630143	-0.878851	0.058181	6
N	0.126603	-2.132041	-0.184539	7
C	0.756773	1.529909	0.368781	6
O	1.851234	1.648649	-0.412109	8
O	0.404384	2.379298	1.168151	8
H	-1.677607	1.259399	-0.852059	1
H	-1.938627	0.854899	0.857491	1
H	-2.012167	-0.404721	-0.380259	1
H	1.704503	-0.919251	0.244741	1
H	-0.879956	-2.221591	-0.062859	1
H	0.633173	-2.882111	0.284261	1
H	1.909233	0.962849	-1.104719	1
Es	0.589836	2.622789	1.177317	99
Es	1.856764	1.274575	-0.764756	99
Es	-0.743430	0.390972	0.007770	99
Es	0.209084	-2.093537	-0.475812	99
Es	1.850951	1.648383	-0.412149	99
Es	-1.833359	-0.125900	-0.283127	99
Es	-1.489128	0.507062	-0.078558	99
Es	0.377286	0.903875	0.219026	99
Es	0.668086	1.974604	1.068817	99
Es	-0.018519	0.296555	0.093500	99
Es	-1.781750	0.732407	0.546706	99
Es	0.630156	-0.879068	0.058156	99
Es	0.425372	-2.563918	0.112492	99
Es	0.404473	2.379068	1.167936	99
Es	0.149119	2.281584	1.307410	99
Es	1.424975	1.579843	-0.143928	99
Es	1.358392	-0.904054	0.179439	99
Es	-1.605395	1.010307	-0.601213	99
Es	1.821821	1.911100	-0.527000	99
Es	0.343887	-0.202541	-0.259675	99
Es	0.244099	-0.245667	0.396152	99
Es	0.314768	-1.592734	-0.010653	99
Es	0.126556	-2.131810	-0.183944	99
Es	0.387037	2.202326	0.716173	99
Es	-0.468878	-2.179076	-0.091698	99
Es	2.029328	1.586946	-0.207041	99
Es	0.757001	1.529895	0.368611	99
41
Properties=species:S:1:pos:R:3:Z:I:1 energy=-359.8517470916432 field_type=dipole dipole="0.000000 0.000000 0.000000" charge=0
C	-1.489197	0.507099	-0.078549	6
C	-0.018497	0.296469	0.093491	6
C	0.630143	-0.878851	0.058181	6
N	0.126603	-2.132041	-0.184539	7
C	0.756773	1.529909	0.368781	6
O	1.851234	1.648649	-0.412109	8
O	0.404384	2.379298	1.168151	8
H	-1.677607	1.259399	-0.852059	1
H	-1.938627	0.854899	0.857491	1
H	-2.012167	-0.404721	-0.380259	1
H	1.704503	-0.919251	0.244741	1
H	-0.879956	-2.221591	-0.062859	1
H	0.633173	-2.882111	0.284261	1
H	1.909233	0.962849	-1.104719	1
Es	0.314635	-1.593428	-0.004812	99
Es	0.126547	-2.131821	-0.183963	99
Es	0.243501	-0.242241	0.397190	99
Es	1.417326	1.593264	-0.154399	99
Es	0.630156	-0.879067	0.058150	99
Es	1.867284	1.265635	-0.763888	99
Es	1.865313	1.923171	-0.516310	99
Es	0.343705	-0.205680	-0.262432	99
Es	-0.018517	0.296555	0.093495	99
Es	0.757009	1.529889	0.368618	99
Es	0.389085	2.202988	0.724597	99
Es	-0.463779	-2.179092	-0.087935	99
Es	0.199897	-2.081385	-0.468897	99
Es	-1.489128	0.507061	-0.078558	99
Es	0.378059	0.903163	0.223457	99
Es	-0.743549	0.391129	0.009047	99
Es	-1.782839	0.734545	0.548626	99
Es	0.431444	-2.576070	0.094968	99
Es	0.575873	2.638190	1.184857	99
Es	0.153335	2.272278	1.288276	99
Es	0.674849	1.969503	1.070722	99
Es	1.850979	1.648395	-0.412129	99
Es	1.982319	1.569632	-0.207795	99
Es	0.404495	2.379060	1.167909	99
Es	-1.603763	1.008096	-0.600491	99
Es	-1.832667	-0.126192	-0.284526	99
Es	1.356963	-0.903594	0.176177	99
41
Properties=species:S:1:pos:R:3:Z:I:1 energy=-359.8517470916432 field_type=dipole dipole="0.000000 0.000000 0.000000" charge=0
C	-1.489197	0.507099	-0.078549	6
C	-0.018497	0.296469	0.093491	6
C	0.630143	-0.878851	0.058181	6
N	0.126603	-2.132041	-0.184539	7
C	0.756773	1.529909	0.368781	6
O	1.851234	1.648649	-0.412109	8
O	0.404384	2.379298	1.168151	8
H	-1.677607	1.259399	-0.852059	1
H	-1.938627	0.854899	0.857491	1
H	-2.012167	-0.404721	-0.380259	1
H	1.704503	-0.919251	0.244741	1
H	-0.879956	-2.221591	-0.062859	1
H	0.633173	-2.882111	0.284261	1
H	1.909233	0.962849	-1.104719	1
Es	1.850920	1.648364	-0.412170	99
Es	0.630155	-0.879069	0.058140	99
Es	1.356112	-0.903249	0.174530	99
Es	0.174528	2.246749	1.254226	99
Es	0.404613	2.379104	1.167849	99
Es	-0.459484	-2.178463	-0.084107	99
Es	-0.018518	0.296558	0.093490	99
Es	0.193024	-2.075759	-0.462812	99
Es	-1.602783	1.006253	-0.599868	99
Es	0.343267	-0.207519	-0.263685	99
Es	0.378449	0.902189	0.225371	99
Es	0.683394	1.970034	1.067541	99
Es	-1.489128	0.507061	-0.078558	99
Es	1.971788	1.578461	-0.218658	99
Es	0.541440	2.659188	1.215639	99
Es	0.435277	-2.582437	0.082523	99
Es	-1.783787	0.736093	0.549616	99
Es	0.393123	2.207690	0.730263	99
Es	0.126552	-2.131823	-0.183967	99
Es	1.863892	1.921944	-0.516740	99
Es	1.878205	1.258864	-0.757902	99
Es	0.757011	1.529886	0.368622	99
Es	1.418015	1.592136	-0.148953	99
Es	0.243821	-0.240204	0.397759	99
Es	-1.832156	-0.126043	-0.285353	99
Es	0.314635	-1.593465	-0.002727	99
Es	-0.743831	0.391441	0.009885	99
41
Properties=species:S:1:pos:R:3:Z:I:1 energy=-359.8517470916432 field_type=dipole dipole="0.000000 0.000000 0.000000" charge=0
C	-1.489197	0.507099	-0.078549	6
C	-0.018497	0.296469	0.093491	6
C	0.630143	-0.878851	0.058181	6
N	0.126603	-2.132041	-0.184539	7
C	0.756773	1.529909	0.368781	6
O	1.851234	1.648649	-0.412109	8
O	0.404384	2.379298	1.168151	8
H	-1.677607	1.259399	-0.852059	1
H	-1.938627	0.854899	0.857491	1
H	-2.012167	-0.404721	-0.380259	1
H	1.704503	-0.919251	0.244741	1
H	-0.879956	-2.221591	-0.062859	1
H	0.633173	-2.882111	0.284261	1
H	1.909233	0.962849	-1.104719	1
Es	0.630155	-0.879066	0.058148	99
Es	0.689654	1.972110	1.066214	99
Es	1.851025	1.648408	-0.412148	99
Es	-1.602263	1.004876	-0.599619	99
Es	-0.018520	0.296559	0.093497	99
Es	1.875439	1.921427	-0.513159	99
Es	-0.743913	0.391404	0.010450	99
Es	-0.456514	-2.177088	-0.079204	99
Es	0.208213	2.232154	1.220502	99
Es	0.396119	2.210298	0.733411	99
Es	0.757012	1.529886	0.368626	99
Es	0.437641	-2.585697	0.073742	99
Es	-1.831822	-0.125833	-0.285535	99
Es	1.355716	-0.902804	0.173493	99
Es	0.378623	0.901795	0.226143	99
Es	0.126558	-2.131758	-0.183952	99
Es	-1.489129	0.507063	-0.078559	99
Es	0.244170	-0.239194	0.397906	99
Es	1.884682	1.255362	-0.753650	99
Es	0.186651	-2.074692	-0.457558	99
Es	1.956448	1.577225	-0.224992	99
Es	0.404560	2.379080	1.167864	99
Es	-1.784512	0.737234	0.549945	99
Es	0.316370	-1.592905	-0.004189	99
Es	1.415096	1.597207	-0.150445	99
Es	0.498172	2.669397	1.247044	99
Es	0.342902	-0.208464	-0.264022	99
41
Properties=species:S:1:pos:R:3:Z:I:1 energy=-359.8517470916432 field_type=dipole dipole="0.000000 0.000000 0.000000" charge=0
C	-1.489197	0.507099	-0.078549	6
C	-0.018497	0.296469	0.093491	6
C	0.630143	-0.878851	0.058181	6
N	0.126603	-2.132041	-0.184539	7
C	0.756773	1.529909	0.368781	6
O	1.851234	1.648649	-0.412109	8
O	0.404384	2.379298	1.168151	8
H	-1.677607	1.259399	-0.852059	1
H	-1.938627	0.854899	0.857491	1
H	-2.012167	-0.404721	-0.380259	1
H	1.704503	-0.919251	0.244741	1
H	-0.879956	-2.221591	-0.062859	1
H	0.633173	-2.882111	0.284261	1
H	1.909233	0.962849	-1.104719	1
Es	0.438858	-2.587150	0.068843	99
Es	0.691301	1.970756	1.067886	99
Es	0.342477	-0.209043	-0.263792	99
Es	0.244518	-0.238661	0.397772	99
Es	-1.784653	0.737492	0.549991	99
Es	-1.831723	-0.125958	-0.285656	99
Es	0.401498	2.214274	0.735000	99
Es	1.355631	-0.902522	0.172921	99
Es	1.893914	1.925420	-0.505954	99
Es	1.412560	1.600051	-0.152508	99
Es	-1.489126	0.507063	-0.078558	99
Es	0.251185	2.232749	1.184914	99
Es	0.317793	-1.591830	-0.006313	99
Es	0.630155	-0.879068	0.058150	99
Es	-0.018522	0.296557	0.093509	99
Es	0.447633	2.666332	1.279278	99
Es	1.888428	1.254395	-0.751502	99
Es	0.404887	2.379059	1.167601	99
Es	-0.743985	0.391150	0.010987	99
Es	0.184692	-2.074555	-0.450642	99
Es	0.126556	-2.131796	-0.183967	99
Es	-1.602100	1.004593	-0.599476	99
Es	1.936863	1.571484	-0.232295	99
Es	1.850956	1.648295	-0.412121	99
Es	-0.457056	-2.176990	-0.078934	99
Es	0.757012	1.529887	0.368627	99
Es	0.378781	0.902001	0.226194	99
41
Properties=species:S:1:pos:R:3:Z:I:1 energy=-359.8517470916432 field_type=dipole dipole="0.000000 0.000000 0.000000" charge=0
C	-1.489197	0.507099	-0.078549	6
C	-0.018497	0.296469	0.093491	6
C	0.630143	-0.878851	0.058181	6
N	0.126603	-2.132041	-0.184539	7
C	0.756773	1.529909	0.368781	6
O	1.851234	1.648649	-0.412109	8
O	0.404384	2.379298	1.168151	8
H	-1.677607	1.259399	-0.852059	1
H	-1.938627	0.854899	0.857491	1
H	-2.012167	-0.404721	-0.380259	1
H	1.704503	-0.919251	0.244741	1
H	-0.879956	-2.221591	-0.062859	1
H	0.633173	-2.882111	0.284261	1
H	1.909233	0.962849	-1.104719	1
Es	0.439760	-2.588294	0.064620	99
Es	0.630156	-0.879066	0.058147	99
Es	-1.601873	1.004100	-0.599175	99
Es	-0.744070	0.391094	0.011249	99
Es	0.318155	-1.591036	-0.007133	99
Es	1.851036	1.648411	-0.412153	99
Es	-1.831711	-0.126129	-0.285828	99
Es	0.270465	2.237121	1.174356	99
Es	1.934393	1.575444	-0.239333	99
Es	-0.455885	-2.176940	-0.077909	99
Es	1.355338	-0.902347	0.172582	99
Es	0.691776	1.969096	1.065506	99
Es	0.182435	-2.074408	-0.446677	99
Es	0.757010	1.529887	0.368624	99
Es	1.891403	1.925109	-0.507898	99
Es	0.378889	0.902021	0.226564	99
Es	1.891362	1.251977	-0.747488	99
Es	0.428906	2.663711	1.287626	99
Es	-1.489130	0.507061	-0.078557	99
Es	0.342438	-0.209734	-0.263630	99
Es	0.400609	2.214294	0.739049	99
Es	-0.018522	0.296560	0.093511	99
Es	0.126528	-2.131819	-0.183993	99
Es	0.404597	2.379098	1.167858	99
Es	1.414502	1.598654	-0.147455	99
Es	-1.784766	0.737979	0.550010	99
Es	0.244729	-0.237859	0.397479	99
41
Properties=species:S:1:pos:R:3:Z:I:1 energy=-359.8517470916432 field_type=dipole dipole="0.000000 0.000000 0.000000" charge=0
C	-1.489197	0.507099	-0.078549	6
C	-0.018497	0.296469	0.093491	6
C	0.630143	-0.878851	0.058181	6
N	0.126603	-2.132041	-0.184539	7
C	0.756773	1.529909	0.368781	6
O	1.851234	1.648649	-0.412109	8
O	0.404384	2.379298	1.168151	8
H	-1.677607	1.259399	-0.852059	1
H	-1.938627	0.854899	0.857491	1
H	-2.012167	-0.404721	-0.380259	1
H	1.704503	-0.919251	0.244741	1
H	-0.879956	-2.221591	-0.062859	1
H	0.633173	-2.882111	0.284261	1
H	1.909233	0.962849	-1.104719	1
Es	1.851100	1.648098	-0.411881	99
Es	0.401012	2.215169	0.741664	99
Es	0.404721	2.379116	1.167774	99
Es	1.929070	1.575410	-0.243277	99
Es	0.342307	-0.209863	-0.263735	99
Es	0.286784	2.242594	1.165096	99
Es	0.244763	-0.237827	0.397635	99
Es	-1.784752	0.738371	0.550010	99
Es	-1.489128	0.507061	-0.078558	99
Es	-0.455559	-2.177011	-0.078007	99
Es	-0.018523	0.296558	0.093507	99
Es	0.181208	-2.073486	-0.441579	99
Es	0.413123	2.659697	1.295616	99
Es	0.630154	-0.879069	0.058156	99
Es	0.440513	-2.589621	0.059554	99
Es	0.318489	-1.590737	-0.007096	99
Es	0.379026	0.901909	0.226837	99
Es	1.894199	1.927351	-0.506452	99
Es	1.355162	-0.902169	0.172283	99
Es	-1.831621	-0.126377	-0.285754	99
Es	-1.601787	1.003757	-0.599150	99
Es	0.126556	-2.131758	-0.183933	99
Es	1.892900	1.251327	-0.746148	99
Es	0.690619	1.966842	1.064078	99
Es	1.415318	1.597410	-0.146590	99
Es	0.757012	1.529887	0.368621	99
Es	-0.744134	0.391343	0.011285	99
41
Properties=species:S:1:pos:R:3:Z:I:1 energy=-359.8517470916432 field_type=dipole dipole="0.000000 0.000000 0.000000" charge=0
C	-1.489197	0.507099	-0.078549	6
C	-0.018497	0.296469	0.093491	6
C	0.630143	-0.878851	0.058181	6
N	0.126603	-2.132041	-0.184539	7
C	0.756773	1.529909	0.368781	6
O	1.851234	1.648649	-0.412109	8
O	0.404384	2.379298	1.168151	8
H	-1.677607	1.259399	-0.852059	1
H	-1.938627	0.854899	0.857491	1
H	-2.012167	-0.404721	-0.380259	1
H	1.704503	-0.919251	0.244741	1
H	-0.879956	-2.221591	-0.062859	1
H	0.633173	-2.882111	0.284261	1
H	1.909233	0.962849	-1.104719	1
Es	-1.831377	-0.126543	-0.286030	99
Es	0.399862	2.214569	0.744551	99
Es	0.378986	0.902150	0.227017	99
Es	1.850867	1.648372	-0.412194	99
Es	-0.018524	0.296558	0.093512	99
Es	0.342208	-0.209622	-0.264072	99
Es	1.922892	1.573392	-0.244787	99
Es	0.630156	-0.879071	0.058147	99
Es	-0.744263	0.391173	0.011773	99
Es	0.440688	-2.590109	0.058085	99
Es	0.401036	2.656673	1.299680	99
Es	0.300835	2.248419	1.159041	99
Es	0.689780	1.964712	1.063015	99
Es	0.757017	1.529886	0.368628	99
Es	-1.489127	0.507062	-0.078557	99
Es	0.244857	-0.237993	0.397555	99
Es	0.126556	-2.131750	-0.183932	99
Es	1.900877	1.927022	-0.503883	99
Es	-0.454304	-2.176630	-0.076919	99
Es	1.894202	1.250524	-0.744697	99
Es	0.179406	-2.074398	-0.439932	99
Es	-1.601329	1.003407	-0.599045	99
Es	-1.785091	0.738747	0.550020	99
Es	0.404690	2.379135	1.167801	99
Es	1.354984	-0.902187	0.172203	99
Es	1.413701	1.600260	-0.148725	99
Es	0.318947	-1.589774	-0.008302	99
41
Properties=species:S:1:pos:R:3:Z:I:1 energy=-359.8517470916432 field_type=dipole dipole="0.000000 0.000000 0.000000" charge=0
C	-1.489197	0.507099	-0.078549	6
C	-0.018497	0.296469	0.093491	6
C	0.630143	-0.878851	0.058181	6
N	0.126603	-2.132041	-0.184539	7
C	0.756773	1.529909	0.368781	6
O	1.851234	1.648649	-0.412109	8
O	0.404384	2.379298	1.168151	8
H	-1.677607	1.259399	-0.852059	1
H	-1.938627	0.854899	0.857491	1
H	-2.012167	-0.404721	-0.380259	1
H	1.704503	-0.919251	0.244741	1
H	-0.879956	-2.221591	-0.062859	1
H	0.633173	-2.882111	0.284261	1
H	1.909233	0.962849	-1.104719	1
Es	0.379163	0.902218	0.227026	99
Es	1.414220	1.599758	-0.147867	99
Es	1.895282	1.249821	-0.743207	99
Es	1.918837	1.573361	-0.248121	99
Es	0.244866	-0.237125	0.397475	99
Es	0.441070	-2.590783	0.054828	99
Es	0.399963	2.215290	0.746196	99
Es	1.903229	1.928263	-0.503013	99
Es	0.687867	1.962493	1.061846	99
Es	0.387487	2.651581	1.306409	99
Es	0.630157	-0.879065	0.058150	99
Es	0.126551	-2.131734	-0.183894	99
Es	-0.744184	0.391536	0.011592	99
Es	-0.018523	0.296558	0.093513	99
Es	1.354681	-0.902034	0.172084	99
Es	0.342200	-0.210632	-0.263639	99
Es	0.316238	2.255147	1.151584	99
Es	-0.454566	-2.176747	-0.077258	99
Es	-1.489128	0.507063	-0.078558	99
Es	-1.601593	1.003650	-0.599001	99
Es	0.757017	1.529885	0.368629	99
Es	-1.831283	-0.126860	-0.286005	99
Es	0.404567	2.379074	1.167877	99
Es	0.319267	-1.589883	-0.008248	99
Es	1.850911	1.648390	-0.412059	99
Es	0.179081	-2.073740	-0.436410	99
Es	-1.784844	0.738497	0.550023	99
41
Properties=species:S:1:pos:R:3:Z:I:1 energy=-359.8517470916432 field_type=dipole dipole="0.000000 0.000000 0.000000" charge=0
C	-1.489197	0.507099	-0.078549	6
C	-0.018497	0.296469	0.093491	6
C	0.630143	-0.878851	0.058181	6
N	0.126603	-2.132041	-0.184539	7
C	0.756773	1.529909	0.368781	6
O	1.851234	1.648649	-0.412109	8
O	0.404384	2.379298	1.168151	8
H	-1.677607	1.259399	-0.852059	1
H	-1.938627	0.854899	0.857491	1
H	-2.012167	-0.404721	-0.380259	1
H	1.704503	-0.919251	0.244741	1
H	-0.879956	-2.221591	-0.062859	1
H	0.633173	-2.882111	0.284261	1
H	1.909233	0.962849	-1.104719	1
Es	0.318260	-1.590652	-0.006179	99
Es	1.904798	1.927340	-0.502681	99
Es	-0.018524	0.296558	0.093512	99
Es	-0.453724	-2.176972	-0.077913	99
Es	0.387302	2.651774	1.306020	99
Es	1.850900	1.648359	-0.412172	99
Es	0.179453	-2.072321	-0.436213	99
Es	1.916842	1.573499	-0.249059	99
Es	1.896177	1.248887	-0.741697	99
Es	1.413650	1.601465	-0.148660	99
Es	0.757017	1.529884	0.368631	99
Es	-1.784951	0.738792	0.550118	99
Es	0.687518	1.961499	1.059717	99
Es	0.400963	2.216234	0.749101	99
Es	0.379097	0.902247	0.227031	99
Es	0.126550	-2.131759	-0.183946	99
Es	-1.601319	1.003424	-0.599073	99
Es	-1.831107	-0.126924	-0.286038	99
Es	-0.744419	0.391432	0.011735	99
Es	-1.489127	0.507061	-0.078557	99
Es	1.354351	-0.901879	0.171973	99
Es	0.404582	2.379094	1.167865	99
Es	0.315684	2.255077	1.151077	99
Es	0.342150	-0.210954	-0.263693	99
Es	0.630155	-0.879067	0.058144	99
Es	0.245004	-0.236791	0.397633	99
Es	0.441253	-2.591322	0.053276	99
41
Properties=species:S:1:pos:R:3:Z:I:1 energy=-359.8517470916432 field_type=dipole dipole="0.000000 0.000000 0.000000" charge=0
C	-1.489197	0.507099	-0.078549	6
C	-0.018497	0.296469	0.093491	6
C	0.630143	-0.878851	0.058181	6
N	0.126603	-2.132041	-0.184539	7
C	0.756773	1.529909	0.368781	6
O	1.851234	1.648649	-0.412109	8
O	0.404384	2.379298	1.168151	8
H	-1.677607	1.259399	-0.852059	1
H	-1.938627	0.854899	0.857491	1
H	-2.012167	-0.404721	-0.380259	1
H	1.704503	-0.919251	0.244741	1
H	-0.879956	-2.221591	-0.062859	1
H	0.633173	-2.882111	0.284261	1
H	1.909233	0.962849	-1.104719	1
Es	0.332262	2.263596	1.144731	99
Es	0.757017	1.529884	0.368630	99
Es	-0.018523	0.296561	0.093510	99
Es	1.896869	1.248825	-0.741370	99
Es	0.374646	2.646690	1.311040	99
Es	0.342148	-0.210692	-0.263755	99
Es	-1.784995	0.738993	0.550007	99
Es	1.850839	1.648442	-0.412221	99
Es	1.910783	1.928975	-0.499320	99
Es	0.176641	-2.073837	-0.432088	99
Es	0.379163	0.902297	0.227050	99
Es	1.354339	-0.901908	0.171991	99
Es	0.244916	-0.237126	0.397674	99
Es	0.684536	1.959273	1.063682	99
Es	-0.452761	-2.176393	-0.075924	99
Es	-1.489127	0.507061	-0.078558	99
Es	0.319535	-1.589147	-0.009057	99
Es	0.126543	-2.131826	-0.183965	99
Es	1.910379	1.571890	-0.252078	99
Es	-1.601231	1.003259	-0.598974	99
Es	-0.744233	0.391374	0.011676	99
Es	0.404760	2.379198	1.167767	99
Es	-1.831278	-0.126866	-0.286040	99
Es	0.630155	-0.879068	0.058146	99
Es	1.413497	1.601405	-0.149200	99
Es	0.399842	2.214941	0.746537	99
Es	0.441811	-2.591820	0.050063	99
41
Properties=species:S:1:pos:R:3:Z:I:1 energy=-359.8517470916432 field_type=dipole dipole="0.000000 0.000000 0.000000" charge=0
C	-1.489197	0.507099	-0.078549	6
C	-0.018497	0.296469	0.093491	6
C	0.630143	-0.878851	0.058181	6
N	0.126603	-2.132041	-0.184539	7
C	0.756773	1.529909	0.368781	6
O	1.851234	1.648649	-0.412109	8
O	0.404384	2.379298	1.168151	8
H	-1.677607	1.259399	-0.852059	1
H	-1.938627	0.854899	0.857491	1
H	-2.012167	-0.404721	-0.380259	1
H	1.704503	-0.919251	0.244741	1
H	-0.879956	-2.221591	-0.062859	1
H	0.633173	-2.882111	0.284261	1
H	1.909233	0.962849	-1.104719	1
Es	-1.831211	-0.127244	-0.286044	99
Es	0.366585	2.643485	1.313764	99
Es	0.404825	2.379078	1.167665	99
Es	0.126560	-2.131936	-0.184177	99
Es	1.897304	1.248751	-0.740976	99
Es	-0.018522	0.296558	0.093504	99
Es	-1.601180	1.003000	-0.598838	99
Es	0.757015	1.529885	0.368629	99
Es	0.176437	-2.074054	-0.429087	99
Es	0.244856	-0.236929	0.397430	99
Es	0.342109	-0.210975	-0.263500	99
Es	0.630156	-0.879067	0.058145	99
Es	0.341179	2.268227	1.141007	99
Es	-0.744341	0.391649	0.011592	99
Es	1.850789	1.648375	-0.412130	99
Es	0.683196	1.957712	1.062534	99
Es	0.441823	-2.592103	0.048680	99
Es	0.319722	-1.588352	-0.009784	99
Es	-0.452855	-2.176635	-0.076625	99
Es	0.400278	2.215247	0.748727	99
Es	1.906728	1.929126	-0.501205	99
Es	0.379326	0.902341	0.227348	99
Es	1.354317	-0.901836	0.171795	99
Es	1.414620	1.599820	-0.147138	99
Es	1.912868	1.573491	-0.252744	99
Es	-1.489127	0.507063	-0.078558	99
Es	-1.784924	0.739308	0.549937	99
41
Properties=species:S:1:pos:R:3:Z:I:1 energy=-359.8517470916432 field_type=dipole dipole="0.000000 0.000000 0.000000" charge=0
C	-1.489197	0.507099	-0.078549	6
C	-0.018497	0.296469	0.093491	6
C	0.630143	-0.878851	0.058181	6
N	0.126603	-2.132041	-0.184539	7
C	0.756773	1.529909	0.368781	6
O	1.851234	1.648649	-0.412109	8
O	0.404384	2.379298	1.168151	8
H	-1.677607	1.259399	-0.852059	1
H	-1.938627	0.854899	0.857491	1
H	-2.012167	-0.404721	-0.380259	1
H	1.704503	-0.919251	0.244741	1
H	-0.879956	-2.221591	-0.062859	1
H	0.633173	-2.882111	0.284261	1
H	1.909233	0.962849	-1.104719	1
Es	0.630155	-0.879068	0.058145	99
Es	0.342017	-0.211598	-0.263260	99
Es	-1.831265	-0.127443	-0.286182	99
Es	-1.784925	0.739592	0.549865	99
Es	0.244892	-0.236296	0.397116	99
Es	0.404629	2.379137	1.167828	99
Es	0.177098	-2.073498	-0.427428	99
Es	-0.453239	-2.176827	-0.077674	99
Es	1.850880	1.648381	-0.412156	99
Es	1.898026	1.248206	-0.739728	99
Es	1.916241	1.576599	-0.254843	99
Es	-0.018525	0.296556	0.093519	99
Es	1.899820	1.930028	-0.504386	99
Es	-1.601049	1.002753	-0.598585	99
Es	0.379311	0.902494	0.227463	99
Es	0.363144	2.642033	1.314915	99
Es	1.354160	-0.901712	0.171695	99
Es	1.417357	1.596341	-0.143038	99
Es	0.757016	1.529884	0.368631	99
Es	0.399190	2.215004	0.751245	99
Es	0.319581	-1.588641	-0.009101	99
Es	0.441880	-2.592483	0.047150	99
Es	-0.744355	0.391576	0.011635	99
Es	0.345477	2.270084	1.139816	99
Es	-1.489128	0.507062	-0.078557	99
Es	0.683588	1.957544	1.059789	99
Es	0.126556	-2.131725	-0.183924	99
41
Properties=species:S:1:pos:R:3:Z:I:1 energy=-359.8517470916432 field_type=dipole dipole="0.000000 0.000000 0.000000" charge=0
C	-1.489197	0.507099	-0.078549	6
C	-0.018497	0.296469	0.093491	6
C	0.630143	-0.878851	0.058181	6
N	0.126603	-2.132041	-0.184539	7
C	0.756773	1.529909	0.368781	6
O	1.851234	1.648649	-0.412109	8
O	0.404384	2.379298	1.168151	8
H	-1.677607	1.259399	-0.852059	1
H	-1.938627	0.854899	0.857491	1
H	-2.012167	-0.404721	-0.380259	1
H	1.704503	-0.919251	0.244741	1
H	-0.879956	-2.221591	-0.062859	1
H	0.633173	-2.882111	0.284261	1
H	1.909233	0.962849	-1.104719	1
Es	1.416080	1.597941	-0.144854	99
Es	1.898639	1.248198	-0.739650	99
Es	-1.831122	-0.127339	-0.286040	99
Es	0.379177	0.902560	0.227501	99
Es	0.319330	-1.587988	-0.009392	99
Es	1.914949	1.576099	-0.254329	99
Es	1.901547	1.929046	-0.503328	99
Es	0.442329	-2.592811	0.044444	99
Es	-0.018521	0.296555	0.093511	99
Es	0.404630	2.379114	1.167859	99
Es	-1.600981	1.002651	-0.598807	99
Es	0.400828	2.215811	0.750307	99
Es	-1.785027	0.739695	0.549917	99
Es	1.851032	1.648213	-0.412024	99
Es	0.344930	2.270121	1.139120	99
Es	0.175934	-2.073679	-0.424851	99
Es	-0.452176	-2.176978	-0.077253	99
Es	0.126569	-2.131725	-0.183939	99
Es	-1.489127	0.507062	-0.078557	99
Es	0.757019	1.529885	0.368631	99
Es	0.682299	1.956661	1.061501	99
Es	1.354051	-0.901712	0.171658	99
Es	0.244909	-0.236336	0.397353	99
Es	0.342059	-0.211556	-0.263476	99
Es	0.363323	2.642117	1.314801	99
Es	-0.744303	0.391447	0.011704	99
Es	0.630155	-0.879067	0.058144	99
41
Properties=species:S:1:pos:R:3:Z:I:1 energy=-359.8517470916432 field_type=dipole dipole="0.000000 0.000000 0.000000" charge=0
C	-1.489197	0.507099	-0.078549	6
C	-0.018497	0.296469	0.093491	6
C	0.630143	-0.878851	0.058181	6
N	0.126603	-2.132041	-0.184539	7
C	0.756773	1.529909	0.368781	6
O	1.851234	1.648649	-0.412109	8
O	0.404384	2.379298	1.168151	8
H	-1.677607	1.259399	-0.852059	1
H	-1.938627	0.854899	0.857491	1
H	-2.012167	-0.404721	-0.380259	1
H	1.704503	-0.919251	0.244741	1
H	-0.879956	-2.221591	-0.062859	1
H	0.633173	-2.882111	0.284261	1
H	1.909233	0.962849	-1.104719	1
Es	0.348516	2.272431	1.138948	99
Es	0.379203	0.902415	0.227427	99
Es	1.899281	1.247869	-0.738946	99
Es	-1.785015	0.739607	0.549968	99
Es	0.399504	2.214285	0.751933	99
Es	-1.831074	-0.127346	-0.286097	99
Es	0.244963	-0.235800	0.397296	99
Es	0.630155	-0.879067	0.058145	99
Es	0.360676	2.641724	1.314433	99
Es	1.353908	-0.901574	0.171557	99
Es	1.912190	1.575498	-0.255742	99
Es	-0.451488	-2.176829	-0.076492	99
Es	0.682364	1.956554	1.060815	99
Es	0.442364	-2.592764	0.044541	99
Es	0.404935	2.378859	1.167436	99
Es	1.903775	1.929439	-0.502178	99
Es	0.175346	-2.073958	-0.425780	99
Es	0.757017	1.529884	0.368631	99
Es	1.416003	1.598362	-0.145124	99
Es	0.319382	-1.588127	-0.009318	99
Es	0.126569	-2.131604	-0.183947	99
Es	-1.489127	0.507065	-0.078560	99
Es	-0.018523	0.296559	0.093510	99
Es	1.850922	1.648346	-0.412161	99
Es	-0.744393	0.391547	0.011751	99
Es	-1.600957	1.002752	-0.598815	99
Es	0.342036	-0.212141	-0.263280	99
41
Properties=species:S:1:pos:R:3:Z:I:1 energy=-359.8517470916432 field_type=dipole dipole="0.000000 0.000000 0.000000" charge=0
C	-1.489197	0.507099	-0.078549	6
C	-0.018497	0.296469	0.093491	6
C	0.630143	-0.878851	0.058181	6
N	0.126603	-2.132041	-0.184539	7
C	0.756773	1.529909	0.368781	6
O	1.851234	1.648649	-0.412109	8
O	0.404384	2.379298	1.168151	8
H	-1.677607	1.259399	-0.852059	1
H	-1.938627	0.854899	0.857491	1
H	-2.012167	-0.404721	-0.380259	1
H	1.704503	-0.919251	0.244741	1
H	-0.879956	-2.221591	-0.062859	1
H	0.633173	-2.882111	0.284261	1
H	1.909233	0.962849	-1.104719	1
Es	1.414149	1.601375	-0.148750	99
Es	-1.489129	0.507061	-0.078558	99
Es	0.319319	-1.588282	-0.008774	99
Es	1.909067	1.573219	-0.254451	99
Es	1.898767	1.247452	-0.738594	99
Es	0.680240	1.954390	1.058077	99
Es	1.909456	1.929049	-0.500185	99
Es	1.850682	1.648367	-0.412171	99
Es	-1.830825	-0.127663	-0.286177	99
Es	0.757018	1.529884	0.368632	99
Es	-0.018522	0.296558	0.093506	99
Es	1.353671	-0.901615	0.171693	99
Es	0.630155	-0.879067	0.058141	99
Es	-0.744503	0.391895	0.011662	99
Es	-0.451259	-2.176678	-0.076971	99
Es	0.355023	2.275787	1.135308	99
Es	0.342056	-0.211707	-0.263548	99
Es	0.126539	-2.131632	-0.183955	99
Es	0.355415	2.638596	1.317509	99
Es	0.244908	-0.236278	0.397536	99
Es	0.379253	0.902530	0.227481	99
Es	0.401102	2.216438	0.754654	99
Es	0.404195	2.378703	1.167918	99
Es	0.175724	-2.073740	-0.426210	99
Es	0.441985	-2.593020	0.044981	99
Es	-1.600971	1.002806	-0.598794	99
Es	-1.784984	0.739552	0.549996	99
41
Properties=species:S:1:pos:R:3:Z:I:1 energy=-359.8517470916432 field_type=dipole dipole="0.000000 0.000000 0.000000" charge=0
C	-1.489197	0.507099	-0.078549	6
C	-0.018497	0.296469	0.093491	6
C	0.630143	-0.878851	0.058181	6
N	0.126603	-2.132041	-0.184539	7
C	0.756773	1.529909	0.368781	6
O	1.851234	1.648649	-0.412109	8
O	0.404384	2.379298	1.168151	8
H	-1.677607	1.259399	-0.852059	1
H	-1.938627	0.854899	0.857491	1
H	-2.012167	-0.404721	-0.380259	1
H	1.704503	-0.919251	0.244741	1
H	-0.879956	-2.221591	-0.062859	1
H	0.633173	-2.882111	0.284261	1
H	1.909233	0.962849	-1.104719	1
Es	0.244806	-0.236412	0.397601	99
Es	0.757016	1.529884	0.368631	99
Es	1.903753	1.929262	-0.502274	99
Es	0.175057	-2.073494	-0.422600	99
Es	1.416162	1.598392	-0.144629	99
Es	-0.018524	0.296557	0.093517	99
Es	-0.744487	0.391935	0.011572	99
Es	-0.451226	-2.176854	-0.076856	99
Es	-1.600905	1.002720	-0.598701	99
Es	0.126542	-2.131859	-0.184022	99
Es	0.379235	0.902458	0.227658	99
Es	1.911476	1.575929	-0.257169	99
Es	0.319412	-1.587910	-0.009367	99
Es	1.353672	-0.901533	0.171585	99
Es	-1.784939	0.739678	0.549984	99
Es	0.404607	2.379103	1.167853	99
Es	1.850831	1.648323	-0.411908	99
Es	0.398376	2.214018	0.753819	99
Es	-1.489128	0.507062	-0.078558	99
Es	0.353781	2.638337	1.317139	99
Es	0.442559	-2.593262	0.041879	99
Es	-1.830914	-0.127701	-0.286220	99
Es	0.630155	-0.879068	0.058145	99
Es	0.358671	2.277688	1.135296	99
Es	1.899924	1.247571	-0.738180	99
Es	0.342095	-0.211609	-0.263579	99
Es	0.680527	1.954770	1.059336	99
41
Properties=species:S:1:pos:R:3:Z:I:1 energy=-359.8517470916432 field_type=dipole dipole="0.000000 0.000000 0.000000" charge=0
C	-1.489197	0.507099	-0.078549	6
C	-0.018497	0.296469	0.093491	6
C	0.630143	-0.878851	0.058181	6
N	0.126603	-2.132041	-0.184539	7
C	0.756773	1.529909	0.368781	6
O	1.851234	1.648649	-0.412109	8
O	0.404384	2.379298	1.168151	8
H	-1.677607	1.259399	-0.852059	1
H	-1.938627	0.854899	0.857491	1
H	-2.012167	-0.404721	-0.380259	1
H	1.704503	-0.919251	0.244741	1
H	-0.879956	-2.221591	-0.062859	1
H	0.633173	-2.882111	0.284261	1
H	1.909233	0.962849	-1.104719	1
Es	0.319173	-1.587780	-0.009312	99
Es	-0.018524	0.296558	0.093514	99
Es	0.630155	-0.879066	0.058142	99
Es	0.357560	2.277134	1.134964	99
Es	0.353796	2.638354	1.317244	99
Es	-1.600777	1.002537	-0.598728	99
Es	-1.785023	0.739881	0.549994	99
Es	-1.830934	-0.127585	-0.286183	99
Es	0.400126	2.215418	0.756302	99
Es	1.899837	1.247423	-0.737886	99
Es	0.757015	1.529884	0.368628	99
Es	-0.744451	0.391632	0.011749	99
Es	0.174768	-2.073635	-0.422725	99
Es	0.342039	-0.212080	-0.263403	99
Es	1.850830	1.648371	-0.412196	99
Es	0.442374	-2.593502	0.041683	99
Es	-1.489129	0.507061	-0.078558	99
Es	0.679789	1.953924	1.057096	99
Es	0.379229	0.902578	0.227711	99
Es	1.901096	1.929012	-0.503781	99
Es	1.416302	1.598036	-0.144711	99
Es	0.126539	-2.131769	-0.183942	99
Es	-0.450649	-2.176633	-0.076731	99
Es	0.244908	-0.235900	0.397269	99
Es	0.404683	2.379114	1.167809	99
Es	1.353749	-0.901593	0.171532	99
Es	1.914054	1.576610	-0.255528	99
41
Properties=species:S:1:pos:R:3:Z:I:1 energy=-359.8517470916432 field_type=dipole dipole="0.000000 0.000000 0.000000" charge=0
C	-1.489197	0.507099	-0.078549	6
C	-0.018497	0.296469	0.093491	6
C	0.630143	-0.878851	0.058181	6
N	0.126603	-2.132041	-0.184539	7
C	0.756773	1.529909	0.368781	6
O	1.851234	1.648649	-0.412109	8
O	0.404384	2.379298	1.168151	8
H	-1.677607	1.259399	-0.852059	1
H	-1.938627	0.854899	0.857491	1
H	-2.012167	-0.404721	-0.380259	1
H	1.704503	-0.919251	0.244741	1
H	-0.879956	-2.221591	-0.062859	1
H	0.633173	-2.882111	0.284261	1
H	1.909233	0.962849	-1.104719	1
Es	0.442566	-2.593370	0.041163	99
Es	0.244984	-0.235783	0.397392	99
Es	-0.018521	0.296559	0.093504	99
Es	1.911402	1.575330	-0.255390	99
Es	0.404476	2.379010	1.167904	99
Es	0.342037	-0.212186	-0.263342	99
Es	0.173826	-2.073833	-0.423014	99
Es	0.398225	2.214456	0.756994	99
Es	0.630155	-0.879067	0.058144	99
Es	0.319682	-1.587911	-0.009547	99
Es	0.365445	2.281688	1.132866	99
Es	1.353487	-0.901474	0.171485	99
Es	0.126541	-2.131891	-0.184028	99
Es	1.903819	1.930077	-0.502215	99
Es	1.850729	1.648368	-0.412157	99
Es	0.678440	1.952742	1.056692	99
Es	1.415718	1.598447	-0.146913	99
Es	0.379302	0.902444	0.227547	99
Es	-1.785054	0.739884	0.550010	99
Es	-0.744652	0.391850	0.011705	99
Es	1.900429	1.247271	-0.737414	99
Es	-0.450162	-2.176460	-0.075513	99
Es	-1.600745	1.002518	-0.598669	99
Es	-1.830843	-0.127686	-0.286267	99
Es	0.757011	1.529881	0.368631	99
Es	0.349364	2.636055	1.318943	99
Es	-1.489127	0.507062	-0.078557	99
41
Properties=species:S:1:pos:R:3:Z:I:1 energy=-359.8517470916432 field_type=dipole dipole="0.000000 0.000000 0.000000" charge=0
C	-1.489197	0.507099	-0.078549	6
C	-0.018497	0.296469	0.093491	6
C	0.630143	-0.878851	0.058181	6
N	0.126603	-2.132041	-0.184539	7
C	0.756773	1.529909	0.368781	6
O	1.851234	1.648649	-0.412109	8
O	0.404384	2.379298	1.168151	8
H	-1.677607	1.259399	-0.852059	1
H	-1.938627	0.854899	0.857491	1
H	-2.012167	-0.404721	-0.380259	1
H	1.704503	-0.919251	0.244741	1
H	-0.879956	-2.221591	-0.062859	1
H	0.633173	-2.882111	0.284261	1
H	1.909233	0.962849	-1.104719	1
Es	0.244960	-0.235747	0.397173	99
Es	0.399369	2.214174	0.754672	99
Es	0.379237	0.902576	0.227801	99
Es	1.850986	1.648249	-0.412083	99
Es	0.680220	1.954504	1.059299	99
Es	0.359271	2.278020	1.134741	99
Es	0.319160	-1.587671	-0.009040	99
Es	0.630155	-0.879067	0.058144	99
Es	0.174523	-2.073329	-0.419391	99
Es	-0.450456	-2.176799	-0.076994	99
Es	0.352413	2.638169	1.316786	99
Es	-1.600551	1.001964	-0.598514	99
Es	0.342042	-0.212201	-0.263380	99
Es	0.442644	-2.593862	0.038283	99
Es	1.900738	1.246969	-0.736816	99
Es	1.418559	1.595622	-0.141086	99
Es	1.914915	1.579084	-0.258675	99
Es	0.404638	2.379122	1.167833	99
Es	-0.744477	0.391644	0.011867	99
Es	1.353625	-0.901533	0.171524	99
Es	0.126559	-2.131685	-0.183888	99
Es	-0.018524	0.296560	0.093508	99
Es	-1.785366	0.740395	0.549822	99
Es	1.896832	1.929537	-0.505436	99
Es	-1.489128	0.507061	-0.078557	99