41
Properties=species:S:1:pos:R:3:Z:I:1 energy=-359.8575284792324 field_type=dipole dipole="0.000000 0.000000 0.000000" charge=0
C	-0.451188	-1.991179	0.034695	6
C	0.683562	-1.018909	0.291545	6
N	0.189602	0.332071	0.427305	7
C	0.284842	1.272481	-0.571035	6
O	0.831532	1.137161	-1.653895	8
C	-0.365848	2.599651	-0.228985	6
O	-1.051648	2.721591	0.777295	8
H	-0.067438	-3.011049	-0.063345	1
H	-0.990868	-1.735309	-0.884245	1
H	-1.173278	-1.975029	0.859165	1
H	1.411202	-1.067769	-0.523785	1
H	1.193752	-1.272879	1.224665	1
H	-0.337828	0.600042	1.256115	1
H	-0.156398	3.409122	-0.945495	1
Es	-0.041429	1.936317	-0.390601	99
Es	-0.365850	2.599599	-0.228950	99
Es	-0.812733	-1.813141	-0.588312	99
Es	0.111276	-1.500685	0.162672	99
Es	0.858019	1.262299	-1.184479	99
Es	0.284801	1.272441	-0.570897	99
Es	-1.064080	2.450379	0.936595	99
Es	-0.939286	-1.974744	0.601786	99
Es	0.009081	0.559002	0.006072	99
Es	-1.171881	3.004884	0.819016	99
Es	0.452498	0.646715	0.312842	99
Es	0.189496	0.332078	0.427179	99
Es	1.169276	-1.046891	-0.252743	99
Es	-0.451167	-1.991168	0.034708	99
Es	-0.592265	2.740850	0.534335	99
Es	1.026344	-1.192320	0.931131	99
Es	-0.121468	0.473390	0.909568	99
Es	0.427763	1.112428	-1.379459	99
Es	0.831380	1.137203	-1.653597	99
Es	0.812510	1.400840	-1.814871	99
Es	0.683444	-1.018729	0.291573	99
Es	0.950556	0.851112	-1.696928	99
Es	-0.183953	-2.682716	-0.029473	99
Es	0.389947	-0.232041	0.364685	99
Es	-0.223836	3.140105	-0.712694	99
Es	-0.997912	2.605949	0.269495	99
Es	-1.051461	2.721537	0.777035	99
41
Properties=species:S:1:pos:R:3:Z:I:1 energy=-359.8575284792324 field_type=dipole dipole="0.000000 0.000000 0.000000" charge=0
C	-0.451188	-1.991179	0.034695	6
C	0.683562	-1.018909	0.291545	6
N	0.189602	0.332071	0.427305	7
C	0.284842	1.272481	-0.571035	6
O	0.831532	1.137161	-1.653895	8
C	-0.365848	2.599651	-0.228985	6
O	-1.051648	2.721591	0.777295	8
H	-0.067438	-3.011049	-0.063345	1
H	-0.990868	-1.735309	-0.884245	1
H	-1.173278	-1.975029	0.859165	1
H	1.411202	-1.067769	-0.523785	1
H	1.193752	-1.272879	1.224665	1
H	-0.337828	0.600042	1.256115	1
H	-0.156398	3.409122	-0.945495	1
Es	0.111630	-1.500599	0.162899	99
Es	0.946490	0.856949	-1.683943	99
Es	-0.223860	3.140089	-0.713290	99
Es	-1.161133	3.000130	0.805257	99
Es	-0.942031	-1.975545	0.606226	99
Es	-1.073642	2.450720	0.951669	99
Es	1.171602	-1.047704	-0.256415	99
Es	-0.810011	-1.813829	-0.589437	99
Es	0.409849	0.576709	0.360368	99
Es	1.023282	-1.192053	0.932042	99
Es	0.819030	1.402519	-1.827495	99
Es	-0.997301	2.608057	0.268108	99
Es	0.831410	1.137173	-1.653683	99
Es	0.284797	1.272439	-0.570899	99
Es	-1.051453	2.721534	0.777024	99
Es	-0.451167	-1.991168	0.034709	99
Es	-0.131076	0.472960	0.910327	99
Es	0.858060	1.259588	-1.187512	99
Es	0.683448	-1.018734	0.291572	99
Es	0.067823	0.629791	-0.035003	99
Es	-0.365852	2.599597	-0.228957	99
Es	-0.042639	1.936020	-0.390687	99
Es	0.382818	-0.233607	0.358341	99
Es	-0.183176	-2.678513	-0.030788	99
Es	-0.593410	2.742723	0.535096	99
Es	0.426306	1.107401	-1.376875	99
Es	0.189276	0.332044	0.427034	99
41
Properties=species:S:1:pos:R:3:Z:I:1 energy=-359.8575284792324 field_type=dipole dipole="0.000000 0.000000 0.000000" charge=0
C	-0.451188	-1.991179	0.034695	6
C	0.683562	-1.018909	0.291545	6
N	0.189602	0.332071	0.427305	7
C	0.284842	1.272481	-0.571035	6
O	0.831532	1.137161	-1.653895	8
C	-0.365848	2.599651	-0.228985	6
O	-1.051648	2.721591	0.777295	8
H	-0.067438	-3.011049	-0.063345	1
H	-0.990868	-1.735309	-0.884245	1
H	-1.173278	-1.975029	0.859165	1
H	1.411202	-1.067769	-0.523785	1
H	1.193752	-1.272879	1.224665	1
H	-0.337828	0.600042	1.256115	1
H	-0.156398	3.409122	-0.945495	1
Es	-1.093734	2.466707	0.975360	99
Es	-0.808485	-1.814557	-0.589755	99
Es	-0.223744	3.139808	-0.713295	99
Es	-0.451167	-1.991167	0.034709	99
Es	-0.943225	-1.975921	0.607903	99
Es	0.831349	1.137271	-1.653579	99
Es	0.857936	1.263565	-1.188969	99
Es	-0.183139	-2.676171	-0.031147	99
Es	-1.142022	2.993066	0.780144	99
Es	-0.365848	2.599597	-0.228958	99
Es	0.348566	0.525578	0.370023	99
Es	1.021514	-1.191882	0.932210	99
Es	0.933571	0.860817	-1.659174	99
Es	-0.132940	0.474318	0.911816	99
Es	0.130433	0.679412	-0.044300	99
Es	0.683447	-1.018730	0.291572	99
Es	-1.051421	2.721539	0.776982	99
Es	-0.591654	2.738708	0.537188	99
Es	-0.998049	2.603159	0.267804	99
Es	1.172646	-1.048052	-0.257884	99
Es	0.383384	-0.233927	0.356621	99
Es	-0.043178	1.936077	-0.390474	99
Es	0.189122	0.332058	0.426894	99
Es	0.284795	1.272438	-0.570898	99
Es	0.836814	1.388998	-1.848943	99
Es	0.111922	-1.500327	0.162847	99
Es	0.422176	1.112309	-1.379010	99
41
Properties=species:S:1:pos:R:3:Z:I:1 energy=-359.8575284792324 field_type=dipole dipole="0.000000 0.000000 0.000000" charge=0
C	-0.451188	-1.991179	0.034695	6
C	0.683562	-1.018909	0.291545	6
N	0.189602	0.332071	0.427305	7
C	0.284842	1.272481	-0.571035	6
O	0.831532	1.137161	-1.653895	8
C	-0.365848	2.599651	-0.228985	6
O	-1.051648	2.721591	0.777295	8
H	-0.067438	-3.011049	-0.063345	1
H	-0.990868	-1.735309	-0.884245	1
H	-1.173278	-1.975029	0.859165	1
H	1.411202	-1.067769	-0.523785	1
H	1.193752	-1.272879	1.224665	1
H	-0.337828	0.600042	1.256115	1
H	-0.156398	3.409122	-0.945495	1
Es	-1.108419	2.963017	0.744229	99
Es	1.020777	-1.192125	0.932471	99
Es	0.683449	-1.018741	0.291571	99
Es	0.172145	0.704193	-0.039809	99
Es	0.831384	1.137102	-1.653528	99
Es	-1.127158	2.507551	1.009538	99
Es	-0.451166	-1.991166	0.034708	99
Es	0.284793	1.272438	-0.570900	99
Es	-1.000635	2.597130	0.268959	99
Es	-0.223871	3.139612	-0.713331	99
Es	1.172640	-1.048449	-0.258869	99
Es	0.941775	0.856715	-1.673045	99
Es	-0.365854	2.599594	-0.228962	99
Es	-0.589110	2.734176	0.537974	99
Es	-1.051417	2.721431	0.777017	99
Es	0.826943	1.394181	-1.836194	99
Es	0.299274	0.497958	0.360875	99
Es	-0.043336	1.936168	-0.390277	99
Es	-0.943549	-1.975608	0.608708	99
Es	0.860016	1.263593	-1.191401	99
Es	0.421938	1.110807	-1.375603	99
Es	0.111915	-1.500110	0.162914	99
Es	-0.182848	-2.675408	-0.031168	99
Es	-0.129727	0.476540	0.914841	99
Es	0.189124	0.332008	0.426938	99
Es	0.387630	-0.233320	0.358097	99
Es	-0.807644	-1.814596	-0.590061	99
41
Properties=species:S:1:pos:R:3:Z:I:1 energy=-359.8575284792324 field_type=dipole dipole="0.000000 0.000000 0.000000" charge=0
C	-0.451188	-1.991179	0.034695	6
C	0.683562	-1.018909	0.291545	6
N	0.189602	0.332071	0.427305	7
C	0.284842	1.272481	-0.571035	6
O	0.831532	1.137161	-1.653895	8
C	-0.365848	2.599651	-0.228985	6
O	-1.051648	2.721591	0.777295	8
H	-0.067438	-3.011049	-0.063345	1
H	-0.990868	-1.735309	-0.884245	1
H	-1.173278	-1.975029	0.859165	1
H	1.411202	-1.067769	-0.523785	1
H	1.193752	-1.272879	1.224665	1
H	-0.337828	0.600042	1.256115	1
H	-0.156398	3.409122	-0.945495	1
Es	-1.149011	2.999108	0.789983	99
Es	0.683447	-1.018731	0.291572	99
Es	1.172756	-1.049100	-0.259104	99
Es	0.871722	0.934669	-1.583340	99
Es	-0.043203	1.936161	-0.390099	99
Es	-0.126863	0.478496	0.916672	99
Es	-0.224122	3.139611	-0.713272	99
Es	0.203236	0.719785	-0.031052	99
Es	-0.451168	-1.991168	0.034707	99
Es	0.284792	1.272437	-0.570900	99
Es	-0.807240	-1.813800	-0.589633	99
Es	0.416428	1.123457	-1.382235	99
Es	-0.999312	2.602680	0.268401	99
Es	-0.943463	-1.974832	0.609000	99
Es	-0.182014	-2.676317	-0.031640	99
Es	-0.365859	2.599594	-0.228964	99
Es	-1.051442	2.721608	0.776970	99
Es	0.859783	1.276542	-1.193512	99
Es	0.189434	0.332030	0.427170	99
Es	1.020239	-1.192513	0.932331	99
Es	-0.592415	2.738328	0.535532	99
Es	0.258435	0.479635	0.347589	99
Es	0.111409	-1.500146	0.162876	99
Es	0.393912	-0.232240	0.360407	99
Es	-1.084505	2.461780	0.966894	99
Es	0.831270	1.137454	-1.653543	99
Es	0.902823	1.290164	-1.917120	99
41
Properties=species:S:1:pos:R:3:Z:I:1 energy=-359.8575284792324 field_type=dipole dipole="0.000000 0.000000 0.000000" charge=0
C	-0.451188	-1.991179	0.034695	6
C	0.683562	-1.018909	0.291545	6
N	0.189602	0.332071	0.427305	7
C	0.284842	1.272481	-0.571035	6
O	0.831532	1.137161	-1.653895	8
C	-0.365848	2.599651	-0.228985	6
O	-1.051648	2.721591	0.777295	8
H	-0.067438	-3.011049	-0.063345	1
H	-0.990868	-1.735309	-0.884245	1
H	-1.173278	-1.975029	0.859165	1
H	1.411202	-1.067769	-0.523785	1
H	1.193752	-1.272879	1.224665	1
H	-0.337828	0.600042	1.256115	1
H	-0.156398	3.409122	-0.945495	1
Es	-0.124310	0.479301	0.918357	99
Es	0.831371	1.137217	-1.653601	99
Es	-0.365854	2.599596	-0.228960	99
Es	-0.451166	-1.991168	0.034709	99
Es	1.172381	-1.049426	-0.259702	99
Es	-1.166714	2.581433	1.036710	99
Es	-1.067842	2.897178	0.715795	99
Es	0.938245	0.856189	-1.664513	99
Es	1.019841	-1.193000	0.932904	99
Es	0.284800	1.272440	-0.570897	99
Es	-0.806988	-1.813560	-0.590187	99
Es	0.189310	0.332009	0.427088	99
Es	-0.181521	-2.675867	-0.031499	99
Es	-0.943244	-1.974739	0.609526	99
Es	-1.051389	2.721372	0.777005	99
Es	0.683445	-1.018725	0.291574	99
Es	-0.588602	2.730265	0.539969	99
Es	0.858071	1.263802	-1.194674	99
Es	0.214222	0.724404	-0.027569	99
Es	-1.001744	2.593237	0.268518	99
Es	0.423498	1.112441	-1.372922	99
Es	0.830776	1.392418	-1.844151	99
Es	-0.224228	3.139594	-0.713509	99
Es	0.244748	0.473689	0.342117	99
Es	0.111397	-1.499852	0.162882	99
Es	0.393736	-0.231876	0.360793	99
Es	-0.043172	1.936319	-0.390073	99
41
Properties=species:S:1:pos:R:3:Z:I:1 energy=-359.8575284792324 field_type=dipole dipole="0.000000 0.000000 0.000000" charge=0
C	-0.451188	-1.991179	0.034695	6
C	0.683562	-1.018909	0.291545	6
N	0.189602	0.332071	0.427305	7
C	0.284842	1.272481	-0.571035	6
O	0.831532	1.137161	-1.653895	8
C	-0.365848	2.599651	-0.228985	6
O	-1.051648	2.721591	0.777295	8
H	-0.067438	-3.011049	-0.063345	1
H	-0.990868	-1.735309	-0.884245	1
H	-1.173278	-1.975029	0.859165	1
H	1.411202	-1.067769	-0.523785	1
H	1.193752	-1.272879	1.224665	1
H	-0.337828	0.600042	1.256115	1
H	-0.156398	3.409122	-0.945495	1
Es	-0.365856	2.599594	-0.228963	99
Es	0.190125	0.332366	0.427418	99
Es	0.851342	1.369817	-1.871896	99
Es	0.395801	-0.231410	0.361681	99
Es	-0.180640	-2.676851	-0.032067	99
Es	-1.065418	2.894952	0.713715	99
Es	0.918907	0.865882	-1.633965	99
Es	-1.169280	2.587838	1.037869	99
Es	-0.043129	1.936292	-0.390099	99
Es	-0.589485	2.728074	0.540754	99
Es	-0.224500	3.139622	-0.713359	99
Es	-0.943175	-1.973872	0.609738	99
Es	0.858464	1.268759	-1.197328	99
Es	1.019211	-1.193521	0.932608	99
Es	0.230051	0.468064	0.335914	99
Es	-1.000668	2.591730	0.268854	99
Es	0.110972	-1.499711	0.162705	99
Es	0.224499	0.728630	-0.023084	99
Es	-1.051261	2.721074	0.776957	99
Es	0.284797	1.272441	-0.570898	99
Es	0.831286	1.137346	-1.653499	99
Es	0.422016	1.119947	-1.373147	99
Es	0.683450	-1.018735	0.291572	99
Es	1.172474	-1.050069	-0.259914	99
Es	-0.123166	0.480446	0.918906	99
Es	-0.451166	-1.991168	0.034708	99
Es	-0.806581	-1.812844	-0.589490	99
41
Properties=species:S:1:pos:R:3:Z:I:1 energy=-359.8575284792324 field_type=dipole dipole="0.000000 0.000000 0.000000" charge=0
C	-0.451188	-1.991179	0.034695	6
C	0.683562	-1.018909	0.291545	6
N	0.189602	0.332071	0.427305	7
C	0.284842	1.272481	-0.571035	6
O	0.831532	1.137161	-1.653895	8
C	-0.365848	2.599651	-0.228985	6
O	-1.051648	2.721591	0.777295	8
H	-0.067438	-3.011049	-0.063345	1
H	-0.990868	-1.735309	-0.884245	1
H	-1.173278	-1.975029	0.859165	1
H	1.411202	-1.067769	-0.523785	1
H	1.193752	-1.272879	1.224665	1
H	-0.337828	0.600042	1.256115	1
H	-0.156398	3.409122	-0.945495	1
Es	0.928892	1.232407	-1.929776	99
Es	-0.123381	0.480151	0.918702	99
Es	0.231097	0.731266	-0.020504	99
Es	-0.043240	1.936261	-0.390022	99
Es	0.415416	1.125506	-1.377262	99
Es	1.172162	-1.050555	-0.260234	99
Es	0.284795	1.272437	-0.570897	99
Es	1.018970	-1.193974	0.932921	99
Es	-0.996091	2.600088	0.268651	99
Es	-0.451166	-1.991167	0.034709	99
Es	0.189401	0.332022	0.427150	99
Es	-1.051415	2.721450	0.777005	99
Es	-0.943061	-1.973671	0.609886	99
Es	0.683447	-1.018731	0.291572	99
Es	-0.365854	2.599595	-0.228962	99
Es	0.831268	1.137444	-1.653541	99
Es	-0.180043	-2.677130	-0.032301	99
Es	-1.133533	2.992984	0.770155	99
Es	-0.806215	-1.812007	-0.589589	99
Es	0.861502	1.275573	-1.198427	99
Es	0.398383	-0.230359	0.363227	99
Es	-0.224497	3.139715	-0.713532	99
Es	0.221591	0.464859	0.332177	99
Es	0.845020	0.991142	-1.570683	99
Es	-1.099361	2.474391	0.985934	99
Es	-0.595781	2.734700	0.536323	99
Es	0.110763	-1.499709	0.163009	99
41
Properties=species:S:1:pos:R:3:Z:I:1 energy=-359.8575284792324 field_type=dipole dipole="0.000000 0.000000 0.000000" charge=0
C	-0.451188	-1.991179	0.034695	6
C	0.683562	-1.018909	0.291545	6
N	0.189602	0.332071	0.427305	7
C	0.284842	1.272481	-0.571035	6
O	0.831532	1.137161	-1.653895	8
C	-0.365848	2.599651	-0.228985	6
O	-1.051648	2.721591	0.777295	8
H	-0.067438	-3.011049	-0.063345	1
H	-0.990868	-1.735309	-0.884245	1
H	-1.173278	-1.975029	0.859165	1
H	1.411202	-1.067769	-0.523785	1
H	1.193752	-1.272879	1.224665	1
H	-0.337828	0.600042	1.256115	1
H	-0.156398	3.409122	-0.945495	1
Es	0.844931	0.992694	-1.569499	99
Es	1.172208	-1.050883	-0.260324	99
Es	0.110421	-1.499836	0.162852	99
Es	0.217660	0.463431	0.330352	99
Es	-0.805796	-1.811429	-0.589448	99
Es	-1.123910	2.986639	0.757703	99
Es	0.683448	-1.018731	0.291571	99
Es	0.860368	1.276953	-1.199339	99
Es	0.234353	0.732708	-0.018715	99
Es	-1.110030	2.485970	0.996552	99
Es	-0.043287	1.936168	-0.390142	99
Es	-0.123083	0.480354	0.918840	99
Es	0.831293	1.137399	-1.653563	99
Es	-0.993668	2.597343	0.268773	99
Es	0.284796	1.272439	-0.570898	99
Es	1.018455	-1.194414	0.932963	99
Es	-1.051441	2.721492	0.777029	99
Es	-0.942972	-1.973041	0.610024	99
Es	-0.179458	-2.677600	-0.032469	99
Es	0.930007	1.229893	-1.930048	99
Es	-0.365856	2.599595	-0.228964	99
Es	-0.224647	3.139727	-0.713513	99
Es	0.415571	1.125026	-1.377195	99
Es	0.189501	0.332045	0.427209	99
Es	0.398375	-0.230381	0.363161	99
Es	-0.451167	-1.991167	0.034709	99
Es	-0.597006	2.732297	0.538067	99
41
Properties=species:S:1:pos:R:3:Z:I:1 energy=-359.8575284792324 field_type=dipole dipole="0.000000 0.000000 0.000000" charge=0
C	-0.451188	-1.991179	0.034695	6
C	0.683562	-1.018909	0.291545	6
N	0.189602	0.332071	0.427305	7
C	0.284842	1.272481	-0.571035	6
O	0.831532	1.137161	-1.653895	8
C	-0.365848	2.599651	-0.228985	6
O	-1.051648	2.721591	0.777295	8
H	-0.067438	-3.011049	-0.063345	1
H	-0.990868	-1.735309	-0.884245	1
H	-1.173278	-1.975029	0.859165	1
H	1.411202	-1.067769	-0.523785	1
H	1.193752	-1.272879	1.224665	1
H	-0.337828	0.600042	1.256115	1
H	-0.156398	3.409122	-0.945495	1
Es	1.172046	-1.051240	-0.260582	99
Es	-1.116029	2.494134	1.002641	99
Es	-1.051424	2.721489	0.776996	99
Es	0.397577	-0.230567	0.362897	99
Es	0.928122	1.230359	-1.930883	99
Es	-0.995070	2.595882	0.269889	99
Es	0.861866	1.275371	-1.205663	99
Es	-0.179148	-2.677770	-0.032694	99
Es	0.219827	0.464148	0.331458	99
Es	0.683446	-1.018731	0.291572	99
Es	-0.596343	2.729679	0.537437	99
Es	-0.451165	-1.991166	0.034709	99
Es	-0.043285	1.936200	-0.390135	99
Es	-0.943013	-1.972727	0.610143	99
Es	1.018151	-1.194741	0.932947	99
Es	-1.117097	2.982576	0.751235	99
Es	0.415792	1.127237	-1.370025	99
Es	-0.365855	2.599595	-0.228963	99
Es	-0.122819	0.480550	0.918981	99
Es	-0.224701	3.139745	-0.713498	99
Es	0.233067	0.732161	-0.019276	99
Es	0.845098	0.991512	-1.569529	99
Es	0.831290	1.137366	-1.653554	99
Es	-0.805559	-1.811335	-0.589120	99
Es	0.110482	-1.499486	0.162758	99
Es	0.189015	0.332011	0.426846	99
Es	0.284797	1.272440	-0.570898	99
41
Properties=species:S:1:pos:R:3:Z:I:1 energy=-359.8575284792324 field_type=dipole dipole="0.000000 0.000000 0.000000" charge=0
C	-0.451188	-1.991179	0.034695	6
C	0.683562	-1.018909	0.291545	6
N	0.189602	0.332071	0.427305	7
C	0.284842	1.272481	-0.571035	6
O	0.831532	1.137161	-1.653895	8
C	-0.365848	2.599651	-0.228985	6
O	-1.051648	2.721591	0.777295	8
H	-0.067438	-3.011049	-0.063345	1
H	-0.990868	-1.735309	-0.884245	1
H	-1.173278	-1.975029	0.859165	1
H	1.411202	-1.067769	-0.523785	1
H	1.193752	-1.272879	1.224665	1
H	-0.337828	0.600042	1.256115	1
H	-0.156398	3.409122	-0.945495	1
Es	-1.051426	2.721457	0.777011	99
Es	-0.596794	2.731241	0.537176	99
Es	-1.112923	2.490082	1.000312	99
Es	0.212662	0.461695	0.327921	99
Es	0.831334	1.137287	-1.653567	99
Es	0.842361	0.999491	-1.569012	99
Es	-0.451166	-1.991167	0.034709	99
Es	0.415759	1.126770	-1.368030	99
Es	-0.043303	1.936199	-0.390164	99
Es	-0.942882	-1.972594	0.610438	99
Es	-0.121989	0.480675	0.919558	99
Es	-0.365855	2.599595	-0.228964	99
Es	-0.224752	3.139708	-0.713587	99
Es	-0.179049	-2.677513	-0.032680	99
Es	0.238067	0.733913	-0.017047	99
Es	-0.805213	-1.810963	-0.589434	99
Es	0.930787	1.223206	-1.931630	99
Es	0.189669	0.332108	0.427290	99
Es	-1.119747	2.983760	0.754526	99
Es	0.398087	-0.230203	0.363099	99
Es	0.110486	-1.499616	0.162772	99
Es	1.017717	-1.194992	0.933264	99
Es	0.683447	-1.018730	0.291572	99
Es	0.284795	1.272439	-0.570898	99
Es	0.861945	1.275039	-1.207441	99
Es	-0.994930	2.597246	0.269277	99
Es	1.171979	-1.051442	-0.260781	99
41
Properties=species:S:1:pos:R:3:Z:I:1 energy=-359.8575284792324 field_type=dipole dipole="0.000000 0.000000 0.000000" charge=0
C	-0.451188	-1.991179	0.034695	6
C	0.683562	-1.018909	0.291545	6
N	0.189602	0.332071	0.427305	7
C	0.284842	1.272481	-0.571035	6
O	0.831532	1.137161	-1.653895	8
C	-0.365848	2.599651	-0.228985	6
O	-1.051648	2.721591	0.777295	8
H	-0.067438	-3.011049	-0.063345	1
H	-0.990868	-1.735309	-0.884245	1
H	-1.173278	-1.975029	0.859165	1
H	1.411202	-1.067769	-0.523785	1
H	1.193752	-1.272879	1.224665	1
H	-0.337828	0.600042	1.256115	1
H	-0.156398	3.409122	-0.945495	1
Es	-0.804907	-1.810637	-0.589500	99
Es	0.936288	1.214990	-1.931414	99
Es	-0.122020	0.480497	0.919614	99
Es	-0.942870	-1.972517	0.610576	99
Es	-0.043183	1.936244	-0.390044	99
Es	0.838308	1.010030	-1.569375	99
Es	-0.451164	-1.991168	0.034711	99
Es	-1.051415	2.721438	0.777012	99
Es	1.171829	-1.051547	-0.261048	99
Es	-0.178774	-2.677439	-0.032769	99
Es	-0.597483	2.731976	0.536320	99
Es	1.017216	-1.195560	0.933519	99
Es	0.831173	1.137572	-1.653435	99
Es	0.207645	0.459362	0.325964	99
Es	0.110855	-1.499286	0.162722	99
Es	0.397956	-0.229929	0.363558	99
Es	0.415786	1.125155	-1.372155	99
Es	-0.224737	3.139785	-0.713643	99
Es	0.190748	0.332984	0.427363	99
Es	0.683446	-1.018730	0.291571	99
Es	-0.994648	2.598144	0.269570	99
Es	0.241808	0.735065	-0.015610	99
Es	-0.365855	2.599595	-0.228964	99
Es	0.860559	1.274069	-1.203332	99
Es	-1.121244	2.984694	0.756105	99
Es	0.284797	1.272439	-0.570896	99
Es	-1.111044	2.487466	0.999271	99
41
Properties=species:S:1:pos:R:3:Z:I:1 energy=-359.8575284792324 field_type=dipole dipole="0.000000 0.000000 0.000000" charge=0
C	-0.451188	-1.991179	0.034695	6
C	0.683562	-1.018909	0.291545	6
N	0.189602	0.332071	0.427305	7
C	0.284842	1.272481	-0.571035	6
O	0.831532	1.137161	-1.653895	8
C	-0.365848	2.599651	-0.228985	6
O	-1.051648	2.721591	0.777295	8
H	-0.067438	-3.011049	-0.063345	1
H	-0.990868	-1.735309	-0.884245	1
H	-1.173278	-1.975029	0.859165	1
H	1.411202	-1.067769	-0.523785	1
H	1.193752	-1.272879	1.224665	1
H	-0.337828	0.600042	1.256115	1
H	-0.156398	3.409122	-0.945495	1
Es	1.017107	-1.195781	0.933544	99
Es	-0.451166	-1.991167	0.034709	99
Es	1.171756	-1.051791	-0.261009	99
Es	-0.942741	-1.972348	0.610516	99
Es	-0.121711	0.480753	0.919612	99
Es	-1.115070	2.492939	1.003558	99
Es	-0.597511	2.730509	0.535920	99
Es	0.110457	-1.499378	0.162808	99
Es	0.416246	1.126207	-1.362908	99
Es	0.683446	-1.018730	0.291569	99
Es	-0.804824	-1.810060	-0.589371	99
Es	0.936064	1.209551	-1.932610	99
Es	-0.995008	2.597299	0.270269	99
Es	-0.365855	2.599594	-0.228963	99
Es	0.862651	1.271627	-1.210688	99
Es	0.831263	1.137456	-1.653538	99
Es	0.835909	1.017005	-1.569918	99
Es	0.189477	0.332036	0.427195	99
Es	-1.116734	2.981653	0.751549	99
Es	0.239942	0.734693	-0.016219	99
Es	0.211876	0.461301	0.327553	99
Es	-0.043310	1.936202	-0.390131	99
Es	-1.051400	2.721399	0.777007	99
Es	0.396581	-0.230627	0.362773	99
Es	-0.224760	3.139791	-0.713673	99
Es	-0.178412	-2.677879	-0.032966	99
Es	0.284795	1.272438	-0.570898	99
41
Properties=species:S:1:pos:R:3:Z:I:1 energy=-359.8575284792324 field_type=dipole dipole="0.000000 0.000000 0.000000" charge=0
C	-0.451188	-1.991179	0.034695	6
C	0.683562	-1.018909	0.291545	6
N	0.189602	0.332071	0.427305	7
C	0.284842	1.272481	-0.571035	6
O	0.831532	1.137161	-1.653895	8
C	-0.365848	2.599651	-0.228985	6
O	-1.051648	2.721591	0.777295	8
H	-0.067438	-3.011049	-0.063345	1
H	-0.990868	-1.735309	-0.884245	1
H	-1.173278	-1.975029	0.859165	1
H	1.411202	-1.067769	-0.523785	1
H	1.193752	-1.272879	1.224665	1
H	-0.337828	0.600042	1.256115	1
H	-0.156398	3.409122	-0.945495	1
Es	-1.051397	2.721405	0.777001	99
Es	0.210430	0.460792	0.326886	99
Es	-0.992181	2.594985	0.269028	99
Es	-1.124667	2.505483	1.011006	99
Es	-0.043283	1.936200	-0.390172	99
Es	0.683446	-1.018742	0.291570	99
Es	0.396880	-0.230455	0.363046	99
Es	-0.451166	-1.991166	0.034709	99
Es	-0.224896	3.139806	-0.713625	99
Es	1.171828	-1.051963	-0.261004	99
Es	-1.108193	2.973600	0.742376	99
Es	0.933133	1.217698	-1.932165	99
Es	-0.599184	2.728378	0.538951	99
Es	0.860725	1.274224	-1.212370	99
Es	1.016870	-1.195964	0.933345	99
Es	-0.121746	0.480920	0.919578	99
Es	-0.178305	-2.678051	-0.033102	99
Es	0.189947	0.332251	0.427384	99
Es	0.416465	1.128902	-1.363693	99
Es	-0.942764	-1.972095	0.610544	99
Es	0.831207	1.137605	-1.653556	99
Es	0.284795	1.272438	-0.570899	99
Es	0.840647	1.003340	-1.567844	99
Es	-0.804654	-1.809968	-0.589157	99
Es	0.110494	-1.499349	0.162722	99
Es	0.240494	0.734822	-0.015908	99
Es	-0.365855	2.599595	-0.228964	99
41
Properties=species:S:1:pos:R:3:Z:I:1 energy=-359.8575284792324 field_type=dipole dipole="0.000000 0.000000 0.000000" charge=0
C	-0.451188	-1.991179	0.034695	6
C	0.683562	-1.018909	0.291545	6
N	0.189602	0.332071	0.427305	7
C	0.284842	1.272481	-0.571035	6
O	0.831532	1.137161	-1.653895	8
C	-0.365848	2.599651	-0.228985	6
O	-1.051648	2.721591	0.777295	8
H	-0.067438	-3.011049	-0.063345	1
H	-0.990868	-1.735309	-0.884245	1
H	-1.173278	-1.975029	0.859165	1
H	1.411202	-1.067769	-0.523785	1
H	1.193752	-1.272879	1.224665	1
H	-0.337828	0.600042	1.256115	1
H	-0.156398	3.409122	-0.945495	1
Es	0.683446	-1.018730	0.291571	99
Es	0.242006	0.735230	-0.015383	99
Es	0.936128	1.208072	-1.932939	99
Es	-0.451167	-1.991167	0.034709	99
Es	0.861932	1.270758	-1.216163	99
Es	-0.043351	1.936227	-0.390181	99
Es	0.396260	-0.230566	0.362757	99
Es	0.209489	0.460528	0.326362	99
Es	0.110428	-1.499454	0.162780	99
Es	0.831380	1.137279	-1.653559	99
Es	-0.224793	3.139789	-0.713714	99
Es	0.417047	1.128493	-1.357793	99
Es	-1.114670	2.980086	0.748795	99
Es	-1.051448	2.721511	0.777025	99
Es	-0.994212	2.596071	0.270113	99
Es	-0.365856	2.599594	-0.228964	99
Es	-0.804507	-1.809861	-0.589647	99
Es	-0.942602	-1.972235	0.610851	99
Es	-0.598099	2.729822	0.536680	99
Es	-1.117124	2.496290	1.005824	99
Es	-0.121311	0.480832	0.919931	99
Es	0.189546	0.332060	0.427233	99
Es	1.171599	-1.051964	-0.261279	99
Es	0.835677	1.017144	-1.569230	99
Es	0.284797	1.272439	-0.570897	99
Es	-0.178281	-2.677511	-0.032918	99
Es	1.016752	-1.196047	0.933724	99
41
Properties=species:S:1:pos:R:3:Z:I:1 energy=-359.8575284792324 field_type=dipole dipole="0.000000 0.000000 0.000000" charge=0
C	-0.451188	-1.991179	0.034695	6
C	0.683562	-1.018909	0.291545	6
N	0.189602	0.332071	0.427305	7
C	0.284842	1.272481	-0.571035	6
O	0.831532	1.137161	-1.653895	8
C	-0.365848	2.599651	-0.228985	6
O	-1.051648	2.721591	0.777295	8
H	-0.067438	-3.011049	-0.063345	1
H	-0.990868	-1.735309	-0.884245	1
H	-1.173278	-1.975029	0.859165	1
H	1.411202	-1.067769	-0.523785	1
H	1.193752	-1.272879	1.224665	1
H	-0.337828	0.600042	1.256115	1
H	-0.156398	3.409122	-0.945495	1
Es	-0.993116	2.592453	0.270480	99
Es	0.396261	-0.230656	0.362880	99
Es	0.831263	1.137451	-1.653541	99
Es	0.929406	1.230283	-1.930816	99
Es	-0.942655	-1.971459	0.610714	99
Es	-0.177691	-2.678528	-0.033608	99
Es	0.284797	1.272439	-0.570897	99
Es	0.208911	0.459835	0.326573	99
Es	-0.224947	3.139844	-0.713565	99
Es	0.683447	-1.018732	0.291571	99
Es	1.016345	-1.196430	0.933264	99
Es	-1.051386	2.721381	0.776996	99
Es	-0.043227	1.936207	-0.390166	99
Es	0.110279	-1.499321	0.162719	99
Es	-0.598258	2.727500	0.538389	99
Es	-0.804144	-1.809295	-0.588615	99
Es	0.858003	1.277182	-1.210405	99
Es	0.416747	1.131327	-1.368888	99
Es	0.846722	0.985397	-1.565996	99
Es	-0.365856	2.599594	-0.228964	99
Es	0.188530	0.332221	0.426262	99
Es	-0.121736	0.481184	0.919549	99
Es	-1.135388	2.523740	1.021135	99
Es	1.171610	-1.052520	-0.261294	99
Es	0.243705	0.735916	-0.014195	99
Es	-1.097396	2.958839	0.731396	99
Es	-0.451159	-1.991160	0.034710	99
41
Properties=species:S:1:pos:R:3:Z:I:1 energy=-359.8575284792324 field_type=dipole dipole="0.000000 0.000000 0.000000" charge=0
C	-0.451188	-1.991179	0.034695	6
C	0.683562	-1.018909	0.291545	6
N	0.189602	0.332071	0.427305	7
C	0.284842	1.272481	-0.571035	6
O	0.831532	1.137161	-1.653895	8
C	-0.365848	2.599651	-0.228985	6
O	-1.051648	2.721591	0.777295	8
H	-0.067438	-3.011049	-0.063345	1
H	-0.990868	-1.735309	-0.884245	1
H	-1.173278	-1.975029	0.859165	1
H	1.411202	-1.067769	-0.523785	1
H	1.193752	-1.272879	1.224665	1
H	-0.337828	0.600042	1.256115	1
H	-0.156398	3.409122	-0.945495	1
Es	-0.224084	3.139701	-0.714811	99
Es	-1.051441	2.721774	0.776884	99
Es	-0.365857	2.599594	-0.228965	99
Es	-0.451167	-1.991168	0.034709	99
Es	0.900921	1.289008	-1.923812	99
Es	-0.604436	2.761398	0.532683	99
Es	0.865430	0.961754	-1.586669	99
Es	0.428722	1.116982	-1.329694	99
Es	-0.942177	-1.976081	0.611781	99
Es	0.391432	-0.230105	0.361638	99
Es	-0.120039	0.477527	0.921469	99
Es	0.683448	-1.018732	0.291572	99
Es	-0.996820	2.476494	0.824295	99
Es	0.249779	0.736863	-0.014067	99
Es	-0.043843	1.936222	-0.390141	99
Es	1.016444	-1.196288	0.936273	99
Es	0.831305	1.137339	-1.653538	99
Es	-0.180761	-2.671976	-0.030900	99
Es	1.170981	-1.049842	-0.261785	99
Es	0.112255	-1.498915	0.162946	99
Es	-1.219166	2.932360	0.942080	99
Es	0.855485	1.258076	-1.236193	99
Es	-0.804774	-1.811327	-0.593674	99
Es	0.189684	0.332110	0.427298	99
Es	0.205889	0.458406	0.324638	99
Es	0.284796	1.272439	-0.570898	99
Es	-1.002938	2.631081	0.262569	99
41
Properties=species:S:1:pos:R:3:Z:I:1 energy=-359.8575284792324 field_type=dipole dipole="0.000000 0.000000 0.000000" charge=0
C	-0.451188	-1.991179	0.034695	6
C	0.683562	-1.018909	0.291545	6
N	0.189602	0.332071	0.427305	7
C	0.284842	1.272481	-0.571035	6
O	0.831532	1.137161	-1.653895	8
C	-0.365848	2.599651	-0.228985	6
O	-1.051648	2.721591	0.777295	8
H	-0.067438	-3.011049	-0.063345	1
H	-0.990868	-1.735309	-0.884245	1
H	-1.173278	-1.975029	0.859165	1
H	1.411202	-1.067769	-0.523785	1
H	1.193752	-1.272879	1.224665	1
H	-0.337828	0.600042	1.256115	1
H	-0.156398	3.409122	-0.945495	1
Es	0.206680	0.458666	0.325020	99
Es	0.831275	1.137406	-1.653562	99
Es	-0.804835	-1.811295	-0.593755	99
Es	0.854895	1.256704	-1.239307	99
Es	-0.605411	2.759940	0.534386	99
Es	-0.224102	3.139635	-0.714857	99
Es	-0.043836	1.936250	-0.390112	99
Es	-1.219087	2.933779	0.940555	99
Es	-0.180954	-2.671869	-0.030902	99
Es	0.683446	-1.018731	0.291572	99
Es	0.864044	0.963890	-1.586598	99
Es	0.189513	0.332044	0.427213	99
Es	-0.451166	-1.991166	0.034709	99
Es	1.171058	-1.049668	-0.261749	99
Es	-0.365859	2.599594	-0.228966	99
Es	0.284796	1.272438	-0.570898	99
Es	-1.051424	2.721828	0.776835	99
Es	1.016370	-1.196284	0.936332	99
Es	0.112229	-1.499091	0.162800	99
Es	0.430303	1.117919	-1.326022	99
Es	0.390712	-0.230317	0.361230	99
Es	0.901434	1.287190	-1.924398	99
Es	-0.120148	0.477353	0.921468	99
Es	0.250043	0.736971	-0.013958	99
Es	-0.997788	2.475515	0.825504	99
Es	-0.942015	-1.976062	0.611910	99
Es	-1.001104	2.632052	0.261240	99
41
Properties=species:S:1:pos:R:3:Z:I:1 energy=-359.8575284792324 field_type=dipole dipole="0.000000 0.000000 0.000000" charge=0
C	-0.451188	-1.991179	0.034695	6
C	0.683562	-1.018909	0.291545	6
N	0.189602	0.332071	0.427305	7
C	0.284842	1.272481	-0.571035	6
O	0.831532	1.137161	-1.653895	8
C	-0.365848	2.599651	-0.228985	6
O	-1.051648	2.721591	0.777295	8
H	-0.067438	-3.011049	-0.063345	1
H	-0.990868	-1.735309	-0.884245	1
H	-1.173278	-1.975029	0.859165	1
H	1.411202	-1.067769	-0.523785	1
H	1.193752	-1.272879	1.224665	1
H	-0.337828	0.600042	1.256115	1
H	-0.156398	3.409122	-0.945495	1
Es	0.838229	1.011843	-1.567982	99
Es	0.284795	1.272438	-0.570898	99
Es	0.209024	0.460231	0.326305	99
Es	-0.225026	3.139761	-0.713709	99
Es	0.934252	1.211178	-1.933272	99
Es	-1.104912	2.969300	0.739054	99
Es	-0.177792	-2.678106	-0.033345	99
Es	0.859988	1.271188	-1.222270	99
Es	-0.043380	1.936201	-0.390173	99
Es	-0.451168	-1.991168	0.034708	99
Es	-0.365857	2.599594	-0.228964	99
Es	-0.803976	-1.809234	-0.589114	99
Es	1.016056	-1.196716	0.933682	99
Es	-1.051418	2.721459	0.777006	99
Es	0.831289	1.137409	-1.653557	99
Es	-1.127501	2.510203	1.014428	99
Es	0.110449	-1.499200	0.162676	99
Es	1.171548	-1.052379	-0.261387	99
Es	-0.990959	2.594610	0.268834	99
Es	0.395956	-0.230574	0.362803	99
Es	0.418417	1.129974	-1.352578	99
Es	0.683444	-1.018730	0.291572	99
Es	0.242956	0.735573	-0.014925	99
Es	-0.600504	2.728403	0.539243	99
Es	-0.942671	-1.971662	0.610809	99
Es	0.188920	0.332039	0.426744	99
Es	-0.121091	0.481058	0.919999	99
41
Properties=species:S:1:pos:R:3:Z:I:1 energy=-359.8575284792324 field_type=dipole dipole="0.000000 0.000000 0.000000" charge=0
C	-0.451188	-1.991179	0.034695	6
C	0.683562	-1.018909	0.291545	6
N	0.189602	0.332071	0.427305	7
C	0.284842	1.272481	-0.571035	6
O	0.831532	1.137161	-1.653895	8
C	-0.365848	2.599651	-0.228985	6
O	-1.051648	2.721591	0.777295	8
H	-0.067438	-3.011049	-0.063345	1
H	-0.990868	-1.735309	-0.884245	1
H	-1.173278	-1.975029	0.859165	1
H	1.411202	-1.067769	-0.523785	1
H	1.193752	-1.272879	1.224665	1
H	-0.337828	0.600042	1.256115	1
H	-0.156398	3.409122	-0.945495	1
Es	-0.120062	0.482080	0.920421	99
Es	0.245024	0.736367	-0.013292	99
Es	0.189491	0.332041	0.427204	99
Es	0.831349	1.137260	-1.653576	99
Es	-0.225160	3.139753	-0.713554	99
Es	-0.992133	2.588951	0.267507	99
Es	1.171628	-1.052705	-0.261339	99
Es	-1.059018	2.883801	0.709150	99
Es	-0.043297	1.936221	-0.390204	99
Es	0.284796	1.272439	-0.570897	99
Es	1.016221	-1.196448	0.932969	99
Es	0.892330	1.304473	-1.915816	99
Es	-0.177905	-2.678987	-0.034087	99
Es	0.683446	-1.018731	0.291572	99
Es	0.856267	1.269133	-1.225740	99
Es	-0.451166	-1.991166	0.034709	99
Es	-0.942646	-1.971163	0.610692	99
Es	0.207529	0.459928	0.325333	99
Es	-0.804134	-1.809220	-0.587962	99
Es	-1.174313	2.604046	1.042021	99