46
Properties=species:S:1:pos:R:3:Z:I:1 energy=-325.14184857289615 field_type=dipole dipole="0.000000 0.000000 0.000000" charge=0
C	-0.369050	-1.682993	-1.245743	6
C	-0.934490	-0.711633	-0.216953	6
O	-0.802180	-1.286973	1.091326	8
C	-0.296600	0.712547	-0.258033	6
N	-0.950500	1.561757	0.751277	7
C	1.208301	0.701397	-0.072943	6
C	1.917730	1.283287	0.905817	6
H	-0.446610	-1.276413	-2.258133	1
H	-0.921610	-2.628373	-1.209443	1
H	0.675120	-1.933293	-1.038153	1
H	-2.011400	-0.615153	-0.401833	1
H	0.142300	-1.238573	1.327827	1
H	-0.493300	1.153467	-1.242823	1
H	-1.003550	1.012237	1.613147	1
H	-1.925200	1.692587	0.481747	1
H	1.768470	0.180197	-0.847453	1
H	1.441570	1.852357	1.699047	1
H	3.000990	1.223567	0.921327	1
Es	1.578214	1.254325	0.248607	99
Es	-0.944722	-1.093857	1.285893	99
Es	1.577998	0.339677	-0.604384	99
Es	0.462967	0.696976	-0.145891	99
Es	-0.291185	-1.256053	1.196932	99
Es	-0.748701	-2.318485	-1.222478	99
Es	2.651971	1.242710	0.918885	99
Es	-0.786007	1.875700	0.793097	99
Es	-1.672495	-0.636171	-0.345299	99
Es	-0.421628	-1.397338	-1.934452	99
Es	1.607565	1.661515	1.444921	99
Es	-1.541612	1.619111	0.579253	99
Es	-0.425909	1.004921	-0.930808	99
Es	-0.981803	1.226182	1.259847	99
Es	-0.801958	-1.286882	1.091162	99
Es	-0.877225	-1.580780	1.064533	99
Es	0.344709	-1.841730	-1.100425	99
Es	-0.296611	0.712591	-0.257919	99
Es	-0.369049	-1.682973	-1.245747	99
Es	-0.633950	-1.194839	-0.744721	99
Es	1.539484	0.704091	0.606115	99
Es	-0.934409	-0.711723	-0.216755	99
Es	1.917778	1.283303	0.905884	99
Es	-0.678213	1.175563	0.314986	99
Es	-0.584943	-0.005980	-0.242407	99
Es	-0.950769	1.561256	0.751184	99
Es	-0.825719	-1.063637	0.599143	99
Es	1.208217	0.701347	-0.073030	99
46
Properties=species:S:1:pos:R:3:Z:I:1 energy=-325.14184857289615 field_type=dipole dipole="0.000000 0.000000 0.000000" charge=0
C	-0.369050	-1.682993	-1.245743	6
C	-0.934490	-0.711633	-0.216953	6
O	-0.802180	-1.286973	1.091326	8
C	-0.296600	0.712547	-0.258033	6
N	-0.950500	1.561757	0.751277	7
C	1.208301	0.701397	-0.072943	6
C	1.917730	1.283287	0.905817	6
H	-0.446610	-1.276413	-2.258133	1
H	-0.921610	-2.628373	-1.209443	1
H	0.675120	-1.933293	-1.038153	1
H	-2.011400	-0.615153	-0.401833	1
H	0.142300	-1.238573	1.327827	1
H	-0.493300	1.153467	-1.242823	1
H	-1.003550	1.012237	1.613147	1
H	-1.925200	1.692587	0.481747	1
H	1.768470	0.180197	-0.847453	1
H	1.441570	1.852357	1.699047	1
H	3.000990	1.223567	0.921327	1
Es	-0.784350	1.876805	0.790657	99
Es	1.607796	1.660053	1.444711	99
Es	-0.422255	-1.397004	-1.934467	99
Es	-0.749144	-2.318044	-1.222150	99
Es	-0.426659	1.005068	-0.931031	99
Es	-0.584673	-0.005555	-0.242615	99
Es	1.578369	1.255533	0.247770	99
Es	-0.369049	-1.682973	-1.245747	99
Es	-0.679998	1.174539	0.316874	99
Es	-0.828234	-1.065029	0.597268	99
Es	-0.801994	-1.286881	1.091192	99
Es	1.539810	0.703449	0.606450	99
Es	-0.934408	-0.711724	-0.216753	99
Es	-0.289394	-1.247650	1.205155	99
Es	1.208216	0.701335	-0.073026	99
Es	-0.874890	-1.580043	1.066896	99
Es	0.463170	0.696751	-0.146232	99
Es	-0.946005	-1.101614	1.277138	99
Es	-1.543162	1.617493	0.578934	99
Es	-0.950757	1.561273	0.751192	99
Es	0.345596	-1.841703	-1.099929	99
Es	-0.979894	1.227005	1.260190	99
Es	-0.633944	-1.195139	-0.744770	99
Es	1.917782	1.283309	0.905880	99
Es	-0.296609	0.712589	-0.257918	99
Es	-1.673213	-0.636332	-0.345801	99
Es	2.652334	1.242281	0.919945	99
Es	1.577551	0.341026	-0.603687	99
46
Properties=species:S:1:pos:R:3:Z:I:1 energy=-325.14184857289615 field_type=dipole dipole="0.000000 0.000000 0.000000" charge=0
C	-0.369050	-1.682993	-1.245743	6
C	-0.934490	-0.711633	-0.216953	6
O	-0.802180	-1.286973	1.091326	8
C	-0.296600	0.712547	-0.258033	6
N	-0.950500	1.561757	0.751277	7
C	1.208301	0.701397	-0.072943	6
C	1.917730	1.283287	0.905817	6
H	-0.446610	-1.276413	-2.258133	1
H	-0.921610	-2.628373	-1.209443	1
H	0.675120	-1.933293	-1.038153	1
H	-2.011400	-0.615153	-0.401833	1
H	0.142300	-1.238573	1.327827	1
H	-0.493300	1.153467	-1.242823	1
H	-1.003550	1.012237	1.613147	1
H	-1.925200	1.692587	0.481747	1
H	1.768470	0.180197	-0.847453	1
H	1.441570	1.852357	1.699047	1
H	3.000990	1.223567	0.921327	1
Es	-0.829910	-1.070087	0.594345	99
Es	-0.934408	-0.711723	-0.216753	99
Es	-0.749337	-2.317841	-1.222013	99
Es	-0.978962	1.227850	1.260050	99
Es	-0.427115	1.005069	-0.931034	99
Es	-1.673657	-0.636548	-0.346222	99
Es	-0.633955	-1.195018	-0.744660	99
Es	-0.946059	-1.104722	1.270568	99
Es	-0.422425	-1.396948	-1.934497	99
Es	1.540014	0.703185	0.606553	99
Es	1.577355	0.341740	-0.603180	99
Es	-0.801882	-1.286776	1.091111	99
Es	2.652537	1.242121	0.920507	99
Es	-1.544039	1.615480	0.578539	99
Es	-0.288918	-1.242063	1.210333	99
Es	1.917783	1.283304	0.905884	99
Es	0.463409	0.696441	-0.146515	99
Es	-0.584610	-0.005193	-0.242920	99
Es	-0.296609	0.712587	-0.257917	99
Es	-0.950723	1.561309	0.751190	99
Es	-0.681465	1.173596	0.318914	99
Es	1.578411	1.256169	0.247418	99
Es	1.208215	0.701331	-0.073024	99
Es	1.607861	1.659239	1.444579	99
Es	-0.873529	-1.577533	1.071311	99
Es	0.345929	-1.841662	-1.099598	99
Es	-0.369049	-1.682973	-1.245747	99
Es	-0.782867	1.878484	0.788905	99
46
Properties=species:S:1:pos:R:3:Z:I:1 energy=-325.14184857289615 field_type=dipole dipole="0.000000 0.000000 0.000000" charge=0
C	-0.369050	-1.682993	-1.245743	6
C	-0.934490	-0.711633	-0.216953	6
O	-0.802180	-1.286973	1.091326	8
C	-0.296600	0.712547	-0.258033	6
N	-0.950500	1.561757	0.751277	7
C	1.208301	0.701397	-0.072943	6
C	1.917730	1.283287	0.905817	6
H	-0.446610	-1.276413	-2.258133	1
H	-0.921610	-2.628373	-1.209443	1
H	0.675120	-1.933293	-1.038153	1
H	-2.011400	-0.615153	-0.401833	1
H	0.142300	-1.238573	1.327827	1
H	-0.493300	1.153467	-1.242823	1
H	-1.003550	1.012237	1.613147	1
H	-1.925200	1.692587	0.481747	1
H	1.768470	0.180197	-0.847453	1
H	1.441570	1.852357	1.699047	1
H	3.000990	1.223567	0.921327	1
Es	-0.681940	1.173068	0.320200	99
Es	-0.941506	-1.104477	1.261368	99
Es	2.652564	1.242092	0.920892	99
Es	-0.296609	0.712589	-0.257919	99
Es	1.578428	1.256498	0.247263	99
Es	-0.427559	1.004945	-0.931143	99
Es	-0.369050	-1.682974	-1.245748	99
Es	-0.950766	1.561241	0.751178	99
Es	0.463652	0.696077	-0.146979	99
Es	-0.801905	-1.286873	1.091103	99
Es	-1.544890	1.613661	0.578487	99
Es	0.346167	-1.841651	-1.099486	99
Es	-1.673903	-0.636733	-0.346443	99
Es	-0.877197	-1.575097	1.078618	99
Es	1.577464	0.342200	-0.602708	99
Es	-0.422630	-1.396938	-1.934500	99
Es	-0.584385	-0.004758	-0.243046	99
Es	1.540063	0.703044	0.606661	99
Es	-0.977522	1.229317	1.260547	99
Es	-0.289127	-1.238669	1.215422	99
Es	-0.782921	1.879129	0.787098	99
Es	1.208213	0.701335	-0.073028	99
Es	-0.749346	-2.317662	-1.221965	99
Es	1.607789	1.658836	1.444518	99
Es	-0.934410	-0.711721	-0.216758	99
Es	1.917781	1.283314	0.905876	99
Es	-0.830424	-1.075997	0.591104	99
Es	-0.634034	-1.194979	-0.744484	99
46
Properties=species:S:1:pos:R:3:Z:I:1 energy=-325.14184857289615 field_type=dipole dipole="0.000000 0.000000 0.000000" charge=0
C	-0.369050	-1.682993	-1.245743	6
C	-0.934490	-0.711633	-0.216953	6
O	-0.802180	-1.286973	1.091326	8
C	-0.296600	0.712547	-0.258033	6
N	-0.950500	1.561757	0.751277	7
C	1.208301	0.701397	-0.072943	6
C	1.917730	1.283287	0.905817	6
H	-0.446610	-1.276413	-2.258133	1
H	-0.921610	-2.628373	-1.209443	1
H	0.675120	-1.933293	-1.038153	1
H	-2.011400	-0.615153	-0.401833	1
H	0.142300	-1.238573	1.327827	1
H	-0.493300	1.153467	-1.242823	1
H	-1.003550	1.012237	1.613147	1
H	-1.925200	1.692587	0.481747	1
H	1.768470	0.180197	-0.847453	1
H	1.441570	1.852357	1.699047	1
H	3.000990	1.223567	0.921327	1
Es	1.607714	1.658706	1.444449	99
Es	-0.941096	-1.108246	1.255764	99
Es	1.578465	1.256613	0.247193	99
Es	1.540111	0.703122	0.606647	99
Es	-0.950756	1.561242	0.751170	99
Es	-1.674065	-0.636755	-0.346543	99
Es	1.577517	0.342414	-0.602383	99
Es	-0.584234	-0.004524	-0.243131	99
Es	-0.634182	-1.194895	-0.744498	99
Es	-0.369048	-1.682974	-1.245747	99
Es	1.917784	1.283309	0.905882	99
Es	-0.934408	-0.711722	-0.216755	99
Es	0.346361	-1.841574	-1.099408	99
Es	-1.545409	1.612315	0.578580	99
Es	-0.427802	1.004832	-0.931227	99
Es	-0.296610	0.712589	-0.257918	99
Es	-0.749360	-2.317599	-1.221961	99
Es	-0.782387	1.879723	0.785039	99
Es	0.463765	0.695793	-0.147133	99
Es	-0.290266	-1.232773	1.220396	99
Es	-0.874792	-1.572148	1.081451	99
Es	-0.976481	1.230952	1.261058	99
Es	2.652606	1.242002	0.921134	99
Es	-0.683019	1.171995	0.321561	99
Es	-0.422720	-1.397061	-1.934413	99
Es	-0.801953	-1.286886	1.091159	99
Es	-0.831954	-1.080965	0.588786	99
Es	1.208214	0.701332	-0.073026	99
46
Properties=species:S:1:pos:R:3:Z:I:1 energy=-325.14184857289615 field_type=dipole dipole="0.000000 0.000000 0.000000" charge=0
C	-0.369050	-1.682993	-1.245743	6
C	-0.934490	-0.711633	-0.216953	6
O	-0.802180	-1.286973	1.091326	8
C	-0.296600	0.712547	-0.258033	6
N	-0.950500	1.561757	0.751277	7
C	1.208301	0.701397	-0.072943	6
C	1.917730	1.283287	0.905817	6
H	-0.446610	-1.276413	-2.258133	1
H	-0.921610	-2.628373	-1.209443	1
H	0.675120	-1.933293	-1.038153	1
H	-2.011400	-0.615153	-0.401833	1
H	0.142300	-1.238573	1.327827	1
H	-0.493300	1.153467	-1.242823	1
H	-1.003550	1.012237	1.613147	1
H	-1.925200	1.692587	0.481747	1
H	1.768470	0.180197	-0.847453	1
H	1.441570	1.852357	1.699047	1
H	3.000990	1.223567	0.921327	1
Es	-0.833950	-1.087582	0.586006	99
Es	-0.683191	1.171863	0.322365	99
Es	-0.422749	-1.397165	-1.934217	99
Es	-0.782416	1.880039	0.784062	99
Es	1.578588	1.256929	0.246986	99
Es	-0.634142	-1.194621	-0.744267	99
Es	-1.674242	-0.636958	-0.346747	99
Es	0.346490	-1.841595	-1.099496	99
Es	-0.950790	1.561248	0.751177	99
Es	2.652504	1.241941	0.921195	99
Es	1.208213	0.701334	-0.073027	99
Es	-0.801934	-1.286838	1.091179	99
Es	-0.975696	1.231835	1.261227	99
Es	-0.296608	0.712589	-0.257920	99
Es	1.917785	1.283311	0.905881	99
Es	-0.872115	-1.567754	1.084910	99
Es	-0.934405	-0.711726	-0.216756	99
Es	1.577502	0.342527	-0.601965	99
Es	0.463960	0.695578	-0.147373	99
Es	-1.545924	1.611088	0.578408	99
Es	1.607786	1.658647	1.444507	99
Es	-0.749463	-2.317580	-1.222025	99
Es	-0.291802	-1.227359	1.224548	99
Es	-0.940243	-1.111404	1.250801	99
Es	1.540075	0.703057	0.606725	99
Es	-0.369049	-1.682973	-1.245748	99
Es	-0.428051	1.004713	-0.931181	99
Es	-0.584138	-0.004328	-0.243128	99
46
Properties=species:S:1:pos:R:3:Z:I:1 energy=-325.14184857289615 field_type=dipole dipole="0.000000 0.000000 0.000000" charge=0
C	-0.369050	-1.682993	-1.245743	6
C	-0.934490	-0.711633	-0.216953	6
O	-0.802180	-1.286973	1.091326	8
C	-0.296600	0.712547	-0.258033	6
N	-0.950500	1.561757	0.751277	7
C	1.208301	0.701397	-0.072943	6
C	1.917730	1.283287	0.905817	6
H	-0.446610	-1.276413	-2.258133	1
H	-0.921610	-2.628373	-1.209443	1
H	0.675120	-1.933293	-1.038153	1
H	-2.011400	-0.615153	-0.401833	1
H	0.142300	-1.238573	1.327827	1
H	-0.493300	1.153467	-1.242823	1
H	-1.003550	1.012237	1.613147	1
H	-1.925200	1.692587	0.481747	1
H	1.768470	0.180197	-0.847453	1
H	1.441570	1.852357	1.699047	1
H	3.000990	1.223567	0.921327	1
Es	-0.868646	-1.563844	1.084864	99
Es	-0.940500	-1.115355	1.247878	99
Es	-0.975832	1.231838	1.260299	99
Es	1.577611	0.342744	-0.601680	99
Es	1.917784	1.283308	0.905883	99
Es	1.208213	0.701338	-0.073029	99
Es	-0.934410	-0.711724	-0.216754	99
Es	-0.634236	-1.194398	-0.744160	99
Es	1.540131	0.703052	0.606713	99
Es	-0.428281	1.004557	-0.931374	99
Es	-0.802218	-1.286950	1.091401	99
Es	-0.422664	-1.397297	-1.934125	99
Es	0.346475	-1.841584	-1.099520	99
Es	-1.674296	-0.637068	-0.346798	99
Es	-0.293331	-1.223454	1.228534	99
Es	-0.749436	-2.317598	-1.222126	99
Es	-0.369050	-1.682974	-1.245746	99
Es	-0.683731	1.171742	0.323409	99
Es	1.578596	1.256881	0.247036	99
Es	1.607626	1.658521	1.444480	99
Es	-0.296608	0.712588	-0.257919	99
Es	-0.781371	1.881174	0.784121	99
Es	0.464021	0.695299	-0.147602	99
Es	2.652546	1.242045	0.921333	99
Es	-0.835292	-1.091276	0.584673	99
Es	-0.950795	1.561252	0.751173	99
Es	-0.584073	-0.003973	-0.242989	99
Es	-1.546239	1.609974	0.578153	99
46
Properties=species:S:1:pos:R:3:Z:I:1 energy=-325.14184857289615 field_type=dipole dipole="0.000000 0.000000 0.000000" charge=0
C	-0.369050	-1.682993	-1.245743	6
C	-0.934490	-0.711633	-0.216953	6
O	-0.802180	-1.286973	1.091326	8
C	-0.296600	0.712547	-0.258033	6
N	-0.950500	1.561757	0.751277	7
C	1.208301	0.701397	-0.072943	6
C	1.917730	1.283287	0.905817	6
H	-0.446610	-1.276413	-2.258133	1
H	-0.921610	-2.628373	-1.209443	1
H	0.675120	-1.933293	-1.038153	1
H	-2.011400	-0.615153	-0.401833	1
H	0.142300	-1.238573	1.327827	1
H	-0.493300	1.153467	-1.242823	1
H	-1.003550	1.012237	1.613147	1
H	-1.925200	1.692587	0.481747	1
H	1.768470	0.180197	-0.847453	1
H	1.441570	1.852357	1.699047	1
H	3.000990	1.223567	0.921327	1
Es	1.540073	0.703134	0.606726	99
Es	-0.836677	-1.098527	0.582481	99
Es	-0.422709	-1.397374	-1.933993	99
Es	-0.683893	1.171775	0.323934	99
Es	1.607619	1.658552	1.444516	99
Es	-0.870723	-1.558714	1.090404	99
Es	-0.428374	1.004464	-0.931344	99
Es	-0.296609	0.712588	-0.257919	99
Es	1.208213	0.701335	-0.073028	99
Es	-0.369050	-1.682973	-1.245748	99
Es	1.577629	0.342768	-0.601383	99
Es	1.578721	1.257024	0.246898	99
Es	-0.584056	-0.003899	-0.243099	99
Es	-1.546406	1.609082	0.578040	99
Es	-0.294596	-1.221054	1.231661	99
Es	0.346623	-1.841442	-1.099483	99
Es	-0.950821	1.561245	0.751167	99
Es	1.917784	1.283312	0.905881	99
Es	2.652479	1.241949	0.921406	99
Es	-0.781237	1.881747	0.784070	99
Es	-0.749416	-2.317645	-1.222181	99
Es	-0.975686	1.232041	1.259938	99
Es	-0.934408	-0.711724	-0.216755	99
Es	-0.801855	-1.286945	1.091026	99
Es	0.464115	0.695098	-0.147770	99
Es	-1.674348	-0.637089	-0.346844	99
Es	-0.634317	-1.194393	-0.744238	99
Es	-0.936082	-1.115519	1.241764	99
46
Properties=species:S:1:pos:R:3:Z:I:1 energy=-325.14184857289615 field_type=dipole dipole="0.000000 0.000000 0.000000" charge=0
C	-0.369050	-1.682993	-1.245743	6
C	-0.934490	-0.711633	-0.216953	6
O	-0.802180	-1.286973	1.091326	8
C	-0.296600	0.712547	-0.258033	6
N	-0.950500	1.561757	0.751277	7
C	1.208301	0.701397	-0.072943	6
C	1.917730	1.283287	0.905817	6
H	-0.446610	-1.276413	-2.258133	1
H	-0.921610	-2.628373	-1.209443	1
H	0.675120	-1.933293	-1.038153	1
H	-2.011400	-0.615153	-0.401833	1
H	0.142300	-1.238573	1.327827	1
H	-0.493300	1.153467	-1.242823	1
H	-1.003550	1.012237	1.613147	1
H	-1.925200	1.692587	0.481747	1
H	1.768470	0.180197	-0.847453	1
H	1.441570	1.852357	1.699047	1
H	3.000990	1.223567	0.921327	1
Es	1.607695	1.658660	1.444586	99
Es	-0.369050	-1.682974	-1.245747	99
Es	-0.838484	-1.104600	0.581000	99
Es	-0.749561	-2.317577	-1.222363	99
Es	-0.428361	1.004498	-0.931216	99
Es	1.578744	1.257061	0.246883	99
Es	-0.933999	-1.117940	1.237864	99
Es	1.208213	0.701335	-0.073028	99
Es	-0.950802	1.561242	0.751175	99
Es	1.917785	1.283311	0.905882	99
Es	-0.634292	-1.194378	-0.744188	99
Es	-0.296609	0.712588	-0.257919	99
Es	-0.422650	-1.397279	-1.933835	99
Es	-0.975329	1.232863	1.260170	99
Es	-0.934411	-0.711723	-0.216755	99
Es	-0.801983	-1.286881	1.091165	99
Es	2.652420	1.241888	0.921304	99
Es	-0.296452	-1.217543	1.234818	99
Es	-0.780684	1.881925	0.782940	99
Es	-1.546588	1.608719	0.578166	99
Es	-0.584152	-0.003856	-0.243203	99
Es	1.540052	0.703160	0.606750	99
Es	-1.674402	-0.637224	-0.346898	99
Es	-0.684638	1.171047	0.324610	99
Es	0.346719	-1.841546	-1.099425	99
Es	1.577633	0.342766	-0.601205	99
Es	-0.868989	-1.553747	1.092395	99
Es	0.464171	0.695020	-0.147798	99
46
Properties=species:S:1:pos:R:3:Z:I:1 energy=-325.14184857289615 field_type=dipole dipole="0.000000 0.000000 0.000000" charge=0
C	-0.369050	-1.682993	-1.245743	6
C	-0.934490	-0.711633	-0.216953	6
O	-0.802180	-1.286973	1.091326	8
C	-0.296600	0.712547	-0.258033	6
N	-0.950500	1.561757	0.751277	7
C	1.208301	0.701397	-0.072943	6
C	1.917730	1.283287	0.905817	6
H	-0.446610	-1.276413	-2.258133	1
H	-0.921610	-2.628373	-1.209443	1
H	0.675120	-1.933293	-1.038153	1
H	-2.011400	-0.615153	-0.401833	1
H	0.142300	-1.238573	1.327827	1
H	-0.493300	1.153467	-1.242823	1
H	-1.003550	1.012237	1.613147	1
H	-1.925200	1.692587	0.481747	1
H	1.768470	0.180197	-0.847453	1
H	1.441570	1.852357	1.699047	1
H	3.000990	1.223567	0.921327	1
Es	1.578914	1.257153	0.246756	99
Es	-1.674427	-0.637169	-0.346862	99
Es	0.346716	-1.841493	-1.099524	99
Es	-0.840109	-1.108423	0.580370	99
Es	-0.934412	-0.711721	-0.216757	99
Es	-0.749378	-2.317506	-1.222107	99
Es	2.652430	1.241906	0.921560	99
Es	-0.296609	0.712589	-0.257919	99
Es	-0.422845	-1.397493	-1.934012	99
Es	1.539965	0.703217	0.606748	99
Es	1.917785	1.283308	0.905884	99
Es	-0.583941	-0.003661	-0.243040	99
Es	-0.684492	1.171374	0.324948	99
Es	-0.934151	-1.121699	1.236346	99
Es	-0.428584	1.004391	-0.931463	99
Es	-0.634361	-1.194297	-0.744170	99
Es	-0.779653	1.883031	0.784810	99
Es	-0.801945	-1.286838	1.091171	99
Es	1.607592	1.658494	1.444496	99
Es	1.577689	0.342917	-0.600910	99
Es	1.208213	0.701333	-0.073026	99
Es	-0.976276	1.231807	1.258231	99
Es	-0.298418	-1.213707	1.237500	99
Es	0.464154	0.694808	-0.147979	99
Es	-0.950772	1.561271	0.751175	99
Es	-0.865238	-1.550002	1.091803	99
Es	-1.546803	1.608202	0.577845	99
Es	-0.369049	-1.682974	-1.245748	99
46
Properties=species:S:1:pos:R:3:Z:I:1 energy=-325.14184857289615 field_type=dipole dipole="0.000000 0.000000 0.000000" charge=0
C	-0.369050	-1.682993	-1.245743	6
C	-0.934490	-0.711633	-0.216953	6
O	-0.802180	-1.286973	1.091326	8
C	-0.296600	0.712547	-0.258033	6
N	-0.950500	1.561757	0.751277	7
C	1.208301	0.701397	-0.072943	6
C	1.917730	1.283287	0.905817	6
H	-0.446610	-1.276413	-2.258133	1
H	-0.921610	-2.628373	-1.209443	1
H	0.675120	-1.933293	-1.038153	1
H	-2.011400	-0.615153	-0.401833	1
H	0.142300	-1.238573	1.327827	1
H	-0.493300	1.153467	-1.242823	1
H	-1.003550	1.012237	1.613147	1
H	-1.925200	1.692587	0.481747	1
H	1.768470	0.180197	-0.847453	1
H	1.441570	1.852357	1.699047	1
H	3.000990	1.223567	0.921327	1
Es	-0.583914	-0.003559	-0.242942	99
Es	1.917785	1.283308	0.905884	99
Es	-0.869878	-1.545917	1.097031	99
Es	-0.841526	-1.114190	0.579607	99
Es	-0.780638	1.882804	0.782871	99
Es	1.577694	0.342832	-0.600760	99
Es	1.607588	1.658610	1.444582	99
Es	-0.298403	-1.214093	1.238343	99
Es	-0.928165	-1.119631	1.230964	99
Es	-0.634337	-1.194123	-0.744131	99
Es	-0.428713	1.004252	-0.931395	99
Es	-0.749528	-2.317664	-1.222389	99
Es	0.346605	-1.841545	-1.099624	99
Es	-0.422583	-1.397471	-1.933740	99
Es	-0.934409	-0.711722	-0.216757	99
Es	0.464293	0.694797	-0.148196	99
Es	-1.546991	1.606981	0.577595	99
Es	-0.684538	1.171457	0.325803	99
Es	1.539972	0.703185	0.606793	99
Es	-0.369049	-1.682975	-1.245748	99
Es	-0.950799	1.561202	0.751171	99
Es	1.208213	0.701334	-0.073027	99
Es	-0.801931	-1.286837	1.091162	99
Es	1.578944	1.257221	0.246702	99
Es	-0.975040	1.233241	1.259591	99
Es	-0.296613	0.712587	-0.257915	99
Es	2.652329	1.241914	0.921491	99
Es	-1.674374	-0.637180	-0.346839	99
46
Properties=species:S:1:pos:R:3:Z:I:1 energy=-325.14184857289615 field_type=dipole dipole="0.000000 0.000000 0.000000" charge=0
C	-0.369050	-1.682993	-1.245743	6
C	-0.934490	-0.711633	-0.216953	6
O	-0.802180	-1.286973	1.091326	8
C	-0.296600	0.712547	-0.258033	6
N	-0.950500	1.561757	0.751277	7
C	1.208301	0.701397	-0.072943	6
C	1.917730	1.283287	0.905817	6
H	-0.446610	-1.276413	-2.258133	1
H	-0.921610	-2.628373	-1.209443	1
H	0.675120	-1.933293	-1.038153	1
H	-2.011400	-0.615153	-0.401833	1
H	0.142300	-1.238573	1.327827	1
H	-0.493300	1.153467	-1.242823	1
H	-1.003550	1.012237	1.613147	1
H	-1.925200	1.692587	0.481747	1
H	1.768470	0.180197	-0.847453	1
H	1.441570	1.852357	1.699047	1
H	3.000990	1.223567	0.921327	1
Es	1.208210	0.701333	-0.073028	99
Es	0.464230	0.694641	-0.148355	99
Es	-0.296608	0.712588	-0.257919	99
Es	-0.583705	-0.003522	-0.242987	99
Es	1.578896	1.257311	0.246684	99
Es	1.540034	0.702969	0.606892	99
Es	-0.950782	1.561244	0.751165	99
Es	-0.801946	-1.286890	1.091128	99
Es	1.607602	1.658584	1.444511	99
Es	-0.300359	-1.210984	1.240680	99
Es	0.346557	-1.841490	-1.099592	99
Es	-0.422467	-1.397247	-1.933596	99
Es	-0.931228	-1.124661	1.232755	99
Es	2.652323	1.241996	0.921543	99
Es	-1.674457	-0.637294	-0.346972	99
Es	1.917782	1.283310	0.905884	99
Es	-0.975891	1.232628	1.258272	99
Es	-0.779580	1.883670	0.783966	99
Es	-0.862917	-1.541465	1.093229	99
Es	-0.369050	-1.682973	-1.245749	99
Es	-1.547049	1.606549	0.577128	99
Es	-0.634343	-1.194150	-0.743904	99
Es	-0.843435	-1.116629	0.579292	99
Es	1.577678	0.343045	-0.600564	99
Es	-0.934409	-0.711721	-0.216757	99
Es	-0.684658	1.171541	0.326479	99
Es	-0.428753	1.004252	-0.931508	99
Es	-0.749682	-2.317818	-1.222550	99
46
Properties=species:S:1:pos:R:3:Z:I:1 energy=-325.14184857289615 field_type=dipole dipole="0.000000 0.000000 0.000000" charge=0
C	-0.369050	-1.682993	-1.245743	6
C	-0.934490	-0.711633	-0.216953	6
O	-0.802180	-1.286973	1.091326	8
C	-0.296600	0.712547	-0.258033	6
N	-0.950500	1.561757	0.751277	7
C	1.208301	0.701397	-0.072943	6
C	1.917730	1.283287	0.905817	6
H	-0.446610	-1.276413	-2.258133	1
H	-0.921610	-2.628373	-1.209443	1
H	0.675120	-1.933293	-1.038153	1
H	-2.011400	-0.615153	-0.401833	1
H	0.142300	-1.238573	1.327827	1
H	-0.493300	1.153467	-1.242823	1
H	-1.003550	1.012237	1.613147	1
H	-1.925200	1.692587	0.481747	1
H	1.768470	0.180197	-0.847453	1
H	1.441570	1.852357	1.699047	1
H	3.000990	1.223567	0.921327	1
Es	0.346656	-1.841448	-1.099556	99
Es	1.607637	1.658587	1.444491	99
Es	-0.844742	-1.121236	0.578952	99
Es	1.208217	0.701332	-0.073028	99
Es	-0.779111	1.883647	0.782899	99
Es	-0.934410	-0.711722	-0.216757	99
Es	2.652301	1.241929	0.921594	99
Es	0.464271	0.694440	-0.148464	99
Es	1.578965	1.257398	0.246616	99
Es	-1.547018	1.606527	0.577193	99
Es	-0.422463	-1.397260	-1.933493	99
Es	1.577724	0.343125	-0.600344	99
Es	-0.583984	-0.003609	-0.243182	99
Es	-0.301907	-1.208672	1.242462	99
Es	-0.369049	-1.682974	-1.245748	99
Es	-0.428582	1.004462	-0.931271	99
Es	-0.801798	-1.286392	1.091239	99
Es	1.917784	1.283309	0.905883	99
Es	-0.930687	-1.127137	1.231222	99
Es	-0.975634	1.233109	1.258757	99
Es	1.539906	0.703029	0.606936	99
Es	-1.674466	-0.637362	-0.347044	99
Es	-0.296609	0.712589	-0.257919	99
Es	-0.749738	-2.317834	-1.222601	99
Es	-0.950780	1.561239	0.751170	99
Es	-0.685333	1.171044	0.326868	99
Es	-0.634374	-1.194110	-0.743925	99
Es	-0.860781	-1.537191	1.093177	99
46
Properties=species:S:1:pos:R:3:Z:I:1 energy=-325.14184857289615 field_type=dipole dipole="0.000000 0.000000 0.000000" charge=0
C	-0.369050	-1.682993	-1.245743	6
C	-0.934490	-0.711633	-0.216953	6
O	-0.802180	-1.286973	1.091326	8
C	-0.296600	0.712547	-0.258033	6
N	-0.950500	1.561757	0.751277	7
C	1.208301	0.701397	-0.072943	6
C	1.917730	1.283287	0.905817	6
H	-0.446610	-1.276413	-2.258133	1
H	-0.921610	-2.628373	-1.209443	1
H	0.675120	-1.933293	-1.038153	1
H	-2.011400	-0.615153	-0.401833	1
H	0.142300	-1.238573	1.327827	1
H	-0.493300	1.153467	-1.242823	1
H	-1.003550	1.012237	1.613147	1
H	-1.925200	1.692587	0.481747	1
H	1.768470	0.180197	-0.847453	1
H	1.441570	1.852357	1.699047	1
H	3.000990	1.223567	0.921327	1
Es	0.346629	-1.841475	-1.099687	99
Es	-0.428872	1.004236	-0.931598	99
Es	-0.934408	-0.711725	-0.216753	99
Es	1.607641	1.658605	1.444492	99
Es	1.539985	0.702869	0.607002	99
Es	-0.422755	-1.397442	-1.933806	99
Es	1.917784	1.283305	0.905885	99
Es	-0.927765	-1.127464	1.228344	99
Es	1.208213	0.701335	-0.073027	99
Es	-0.369050	-1.682974	-1.245748	99
Es	-0.778367	1.884402	0.784795	99
Es	-0.303097	-1.207265	1.244097	99
Es	-1.547180	1.606165	0.576697	99
Es	-0.296609	0.712587	-0.257919	99
Es	-0.861313	-1.533999	1.094788	99
Es	-0.976602	1.232197	1.257012	99
Es	-0.634407	-1.194090	-0.743792	99
Es	1.577687	0.343160	-0.600381	99
Es	-0.845852	-1.124866	0.578744	99
Es	-0.801877	-1.287011	1.091020	99
Es	-1.674466	-0.637354	-0.347015	99
Es	0.464317	0.694494	-0.148456	99
Es	-0.749448	-2.317658	-1.222282	99
Es	2.652266	1.241948	0.921600	99
Es	-0.685004	1.171466	0.327236	99
Es	1.578914	1.257416	0.246621	99
Es	-0.950753	1.561285	0.751177	99
Es	-0.583616	-0.003331	-0.242918	99
46
Properties=species:S:1:pos:R:3:Z:I:1 energy=-325.14184857289615 field_type=dipole dipole="0.000000 0.000000 0.000000" charge=0
C	-0.369050	-1.682993	-1.245743	6
C	-0.934490	-0.711633	-0.216953	6
O	-0.802180	-1.286973	1.091326	8
C	-0.296600	0.712547	-0.258033	6
N	-0.950500	1.561757	0.751277	7
C	1.208301	0.701397	-0.072943	6
C	1.917730	1.283287	0.905817	6
H	-0.446610	-1.276413	-2.258133	1
H	-0.921610	-2.628373	-1.209443	1
H	0.675120	-1.933293	-1.038153	1
H	-2.011400	-0.615153	-0.401833	1
H	0.142300	-1.238573	1.327827	1
H	-0.493300	1.153467	-1.242823	1
H	-1.003550	1.012237	1.613147	1
H	-1.925200	1.692587	0.481747	1
H	1.768470	0.180197	-0.847453	1
H	1.441570	1.852357	1.699047	1
H	3.000990	1.223567	0.921327	1
Es	-0.304431	-1.204974	1.245531	99
Es	1.577690	0.343208	-0.600201	99
Es	-0.927035	-1.130437	1.227682	99
Es	-0.583638	-0.003313	-0.242943	99
Es	-1.547268	1.606273	0.577472	99
Es	-0.934409	-0.711724	-0.216754	99
Es	-0.422408	-1.397260	-1.933396	99
Es	-1.674497	-0.637397	-0.347082	99
Es	-0.975498	1.233185	1.258248	99
Es	-0.950781	1.561238	0.751173	99
Es	-0.428816	1.004311	-0.931505	99
Es	-0.685567	1.170888	0.327010	99
Es	1.917784	1.283310	0.905883	99
Es	-0.749700	-2.317916	-1.222724	99
Es	-0.847786	-1.126749	0.578971	99
Es	-0.634528	-1.194121	-0.743932	99
Es	0.464273	0.694284	-0.148490	99
Es	1.578948	1.257495	0.246576	99
Es	0.346696	-1.841313	-1.099467	99
Es	-0.369050	-1.682974	-1.245747	99
Es	-0.778781	1.883873	0.783020	99
Es	1.539994	0.702925	0.606952	99
Es	-0.858784	-1.531588	1.093585	99
Es	1.607625	1.658564	1.444438	99
Es	2.652291	1.241997	0.921650	99
Es	1.208212	0.701329	-0.073024	99
Es	-0.296610	0.712589	-0.257919	99
Es	-0.801935	-1.286886	1.091123	99
46
Properties=species:S:1:pos:R:3:Z:I:1 energy=-325.14184857289615 field_type=dipole dipole="0.000000 0.000000 0.000000" charge=0
C	-0.369050	-1.682993	-1.245743	6
C	-0.934490	-0.711633	-0.216953	6
O	-0.802180	-1.286973	1.091326	8
C	-0.296600	0.712547	-0.258033	6
N	-0.950500	1.561757	0.751277	7
C	1.208301	0.701397	-0.072943	6
C	1.917730	1.283287	0.905817	6
H	-0.446610	-1.276413	-2.258133	1
H	-0.921610	-2.628373	-1.209443	1
H	0.675120	-1.933293	-1.038153	1
H	-2.011400	-0.615153	-0.401833	1
H	0.142300	-1.238573	1.327827	1
H	-0.493300	1.153467	-1.242823	1
H	-1.003550	1.012237	1.613147	1
H	-1.925200	1.692587	0.481747	1
H	1.768470	0.180197	-0.847453	1
H	1.441570	1.852357	1.699047	1
H	3.000990	1.223567	0.921327	1
Es	-0.749526	-2.317770	-1.222358	99
Es	-1.674476	-0.637407	-0.347061	99
Es	0.464317	0.694261	-0.148614	99
Es	-0.369050	-1.682974	-1.245747	99
Es	1.607669	1.658623	1.444496	99
Es	1.577730	0.343346	-0.600023	99
Es	-0.296608	0.712588	-0.257919	99
Es	-1.547275	1.605522	0.576910	99
Es	0.346564	-1.841418	-1.099653	99
Es	1.917784	1.283309	0.905883	99
Es	-0.934408	-0.711722	-0.216757	99
Es	-0.861007	-1.528344	1.096097	99
Es	-0.428959	1.004188	-0.931678	99
Es	-0.304586	-1.205131	1.245963	99
Es	1.208213	0.701332	-0.073025	99
Es	1.540012	0.702802	0.607038	99
Es	-0.848020	-1.131544	0.578979	99
Es	-0.950778	1.561258	0.751161	99
Es	1.578931	1.257604	0.246506	99
Es	-0.634398	-1.194012	-0.743784	99
Es	-0.422629	-1.397405	-1.933731	99
Es	2.652160	1.241930	0.921672	99
Es	-0.976043	1.232711	1.257302	99
Es	-0.924353	-1.128795	1.224823	99
Es	-0.685160	1.171345	0.327283	99
Es	-0.801888	-1.286751	1.091144	99
Es	-0.583614	-0.003298	-0.242868	99
Es	-0.778607	1.884570	0.784088	99
46
Properties=species:S:1:pos:R:3:Z:I:1 energy=-325.14184857289615 field_type=dipole dipole="0.000000 0.000000 0.000000" charge=0
C	-0.369050	-1.682993	-1.245743	6
C	-0.934490	-0.711633	-0.216953	6
O	-0.802180	-1.286973	1.091326	8
C	-0.296600	0.712547	-0.258033	6
N	-0.950500	1.561757	0.751277	7
C	1.208301	0.701397	-0.072943	6
C	1.917730	1.283287	0.905817	6
H	-0.446610	-1.276413	-2.258133	1
H	-0.921610	-2.628373	-1.209443	1
H	0.675120	-1.933293	-1.038153	1
H	-2.011400	-0.615153	-0.401833	1
H	0.142300	-1.238573	1.327827	1
H	-0.493300	1.153467	-1.242823	1
H	-1.003550	1.012237	1.613147	1
H	-1.925200	1.692587	0.481747	1
H	1.768470	0.180197	-0.847453	1
H	1.441570	1.852357	1.699047	1
H	3.000990	1.223567	0.921327	1
Es	-0.749388	-2.317572	-1.222232	99
Es	1.607557	1.658526	1.444495	99
Es	1.208212	0.701333	-0.073026	99
Es	-0.860402	-1.527047	1.095801	99
Es	-1.674634	-0.637536	-0.347279	99
Es	-0.934409	-0.711722	-0.216757	99
Es	-0.847653	-1.133161	0.578626	99
Es	-0.422729	-1.397533	-1.933920	99
Es	0.464308	0.694272	-0.148720	99
Es	1.917785	1.283308	0.905884	99
Es	-0.634272	-1.193778	-0.743491	99
Es	-0.801915	-1.286804	1.091169	99
Es	1.579067	1.257442	0.246519	99
Es	-0.923824	-1.129753	1.223509	99
Es	1.577737	0.343348	-0.599944	99
Es	0.346540	-1.841549	-1.099675	99
Es	2.652232	1.241888	0.921773	99
Es	-0.429053	1.004129	-0.931771	99
Es	-0.685358	1.171406	0.327792	99
Es	-0.369050	-1.682974	-1.245747	99
Es	-1.547191	1.605274	0.576560	99
Es	-0.777795	1.885203	0.784895	99
Es	-0.976718	1.232250	1.256383	99
Es	1.539945	0.702946	0.607000	99
Es	-0.296609	0.712588	-0.257918	99
Es	-0.583468	-0.003111	-0.242719	99
Es	-0.950801	1.561243	0.751167	99
Es	-0.306120	-1.203799	1.247755	99
46
Properties=species:S:1:pos:R:3:Z:I:1 energy=-325.14184857289615 field_type=dipole dipole="0.000000 0.000000 0.000000" charge=0
C	-0.369050	-1.682993	-1.245743	6
C	-0.934490	-0.711633	-0.216953	6
O	-0.802180	-1.286973	1.091326	8
C	-0.296600	0.712547	-0.258033	6
N	-0.950500	1.561757	0.751277	7
C	1.208301	0.701397	-0.072943	6
C	1.917730	1.283287	0.905817	6
H	-0.446610	-1.276413	-2.258133	1
H	-0.921610	-2.628373	-1.209443	1
H	0.675120	-1.933293	-1.038153	1
H	-2.011400	-0.615153	-0.401833	1
H	0.142300	-1.238573	1.327827	1
H	-0.493300	1.153467	-1.242823	1
H	-1.003550	1.012237	1.613147	1
H	-1.925200	1.692587	0.481747	1
H	1.768470	0.180197	-0.847453	1
H	1.441570	1.852357	1.699047	1
H	3.000990	1.223567	0.921327	1
Es	-0.922107	-1.131742	1.222826	99
Es	-0.306517	-1.202438	1.247887	99
Es	-0.428959	1.004143	-0.931610	99
Es	0.464353	0.694225	-0.148676	99
Es	2.652179	1.242074	0.921605	99
Es	1.577727	0.343331	-0.599818	99
Es	-0.686084	1.170702	0.327860	99
Es	-0.934410	-0.711719	-0.216760	99
Es	-0.801876	-1.286708	1.091161	99
Es	-0.583534	-0.003206	-0.242803	99
Es	-0.422243	-1.397357	-1.933107	99
Es	1.208213	0.701334	-0.073027	99
Es	0.346606	-1.841423	-1.099719	99
Es	-0.859186	-1.524527	1.095767	99
Es	-0.950780	1.561236	0.751156	99
Es	-0.974513	1.234497	1.259580	99
Es	1.578927	1.257542	0.246550	99