42
Properties=species:S:1:pos:R:3:Z:I:1 energy=-339.88486464318044 field_type=dipole dipole="0.000000 0.000000 0.000000" charge=0
C	-2.300728	-0.350537	0.291911	6
N	-0.884908	-0.515637	0.608791	7
C	-0.159279	-1.298957	-0.383269	6
C	0.000841	0.202693	-0.314179	6
C	1.199192	0.777593	0.322511	6
N	2.263881	0.893343	-0.400489	7
O	3.278412	1.463023	0.378821	8
H	-2.680728	0.555483	0.775051	1
H	-2.866108	-1.200077	0.688571	1
H	-2.518619	-0.274867	-0.780479	1
H	-0.702538	-1.720437	-1.219979	1
H	0.646461	-1.917697	-0.005709	1
H	-0.448598	0.801713	-1.097619	1
H	1.142802	1.094343	1.378631	1
H	4.029922	1.490013	-0.242559	1
Es	-0.645979	-0.979184	0.212209	99
Es	-0.548917	-0.071965	0.245988	99
Es	3.333110	1.254517	0.597926	99
Es	2.344787	0.805234	-0.761391	99
Es	-0.305082	0.609227	-0.836562	99
Es	-2.436861	-0.299318	-0.451693	99
Es	2.836592	1.214591	0.038156	99
Es	-0.780328	-0.533106	0.948854	99
Es	3.180655	1.748372	0.435245	99
Es	2.263799	0.893503	-0.399917	99
Es	1.160938	0.987974	1.023872	99
Es	0.383822	-1.719099	-0.128290	99
Es	-0.536943	-1.581211	-0.948684	99
Es	-0.885011	-0.515600	0.608138	99
Es	1.879843	0.577441	0.002390	99
Es	0.000755	0.202533	-0.314023	99
Es	-2.556658	0.269617	0.617233	99
Es	-0.159369	-1.298754	-0.383148	99
Es	0.603364	0.493179	0.008904	99
Es	-2.683651	-0.931405	0.557902	99
Es	0.079051	-0.537757	-0.508314	99
Es	1.708635	1.108724	-0.165534	99
Es	-2.300589	-0.350552	0.291931	99
Es	3.678395	1.476118	0.042090	99
Es	1.199162	0.777570	0.322487	99
Es	3.278476	1.462914	0.378487	99
Es	-1.491752	-0.444383	0.435432	99
42
Properties=species:S:1:pos:R:3:Z:I:1 energy=-339.88486464318044 field_type=dipole dipole="0.000000 0.000000 0.000000" charge=0
C	-2.300728	-0.350537	0.291911	6
N	-0.884908	-0.515637	0.608791	7
C	-0.159279	-1.298957	-0.383269	6
C	0.000841	0.202693	-0.314179	6
C	1.199192	0.777593	0.322511	6
N	2.263881	0.893343	-0.400489	7
O	3.278412	1.463023	0.378821	8
H	-2.680728	0.555483	0.775051	1
H	-2.866108	-1.200077	0.688571	1
H	-2.518619	-0.274867	-0.780479	1
H	-0.702538	-1.720437	-1.219979	1
H	0.646461	-1.917697	-0.005709	1
H	-0.448598	0.801713	-1.097619	1
H	1.142802	1.094343	1.378631	1
H	4.029922	1.490013	-0.242559	1
Es	2.263816	0.893520	-0.399888	99
Es	-2.436332	-0.298765	-0.449729	99
Es	-2.556207	0.269827	0.615892	99
Es	-0.647765	-0.980748	0.217015	99
Es	0.080711	-0.534759	-0.512033	99
Es	-0.535963	-1.581721	-0.947353	99
Es	-0.779734	-0.534773	0.938924	99
Es	3.278480	1.462947	0.378474	99
Es	0.000761	0.202536	-0.314027	99
Es	3.330996	1.257417	0.582703	99
Es	-0.547633	-0.070116	0.248269	99
Es	-1.495135	-0.444324	0.440790	99
Es	2.835671	1.212664	0.039903	99
Es	-0.885015	-0.515601	0.608113	99
Es	0.604700	0.492535	0.008290	99
Es	1.199160	0.777574	0.322486	99
Es	-2.685051	-0.932796	0.558084	99
Es	-2.300593	-0.350552	0.291930	99
Es	-0.303830	0.607184	-0.834835	99
Es	1.160950	0.988039	1.023348	99
Es	3.178703	1.744712	0.448510	99
Es	1.880098	0.577984	0.003607	99
Es	1.708978	1.108347	-0.164483	99
Es	2.343586	0.805766	-0.762356	99
Es	-0.159373	-1.298754	-0.383144	99
Es	0.382306	-1.718067	-0.129421	99
Es	3.683959	1.479108	0.040618	99
42
Properties=species:S:1:pos:R:3:Z:I:1 energy=-339.88486464318044 field_type=dipole dipole="0.000000 0.000000 0.000000" charge=0
C	-2.300728	-0.350537	0.291911	6
N	-0.884908	-0.515637	0.608791	7
C	-0.159279	-1.298957	-0.383269	6
C	0.000841	0.202693	-0.314179	6
C	1.199192	0.777593	0.322511	6
N	2.263881	0.893343	-0.400489	7
O	3.278412	1.463023	0.378821	8
H	-2.680728	0.555483	0.775051	1
H	-2.866108	-1.200077	0.688571	1
H	-2.518619	-0.274867	-0.780479	1
H	-0.702538	-1.720437	-1.219979	1
H	0.646461	-1.917697	-0.005709	1
H	-0.448598	0.801713	-1.097619	1
H	1.142802	1.094343	1.378631	1
H	4.029922	1.490013	-0.242559	1
Es	0.081714	-0.532923	-0.514025	99
Es	3.686420	1.481548	0.039955	99
Es	-0.535055	-1.581909	-0.946500	99
Es	-1.497201	-0.444907	0.445416	99
Es	1.199159	0.777571	0.322488	99
Es	1.880190	0.578873	0.004408	99
Es	-0.885013	-0.515597	0.608112	99
Es	3.177286	1.742214	0.457765	99
Es	-0.302853	0.605394	-0.833608	99
Es	-0.778542	-0.535842	0.932212	99
Es	3.278431	1.462987	0.378447	99
Es	-2.436059	-0.298359	-0.448275	99
Es	1.160881	0.987958	1.023147	99
Es	-0.547405	-0.069080	0.248911	99
Es	-2.555852	0.269838	0.615029	99
Es	2.835462	1.209157	0.042068	99
Es	2.263793	0.893507	-0.399899	99
Es	0.380991	-1.717095	-0.130228	99
Es	-2.686045	-0.933500	0.558073	99
Es	-0.649206	-0.981121	0.219641	99
Es	1.709374	1.108032	-0.163447	99
Es	-0.159367	-1.298752	-0.383144	99
Es	0.605642	0.492525	0.007664	99
Es	2.342812	0.805660	-0.763197	99
Es	3.330518	1.261019	0.570771	99
Es	-2.300592	-0.350552	0.291931	99
Es	0.000761	0.202537	-0.314025	99
42
Properties=species:S:1:pos:R:3:Z:I:1 energy=-339.88486464318044 field_type=dipole dipole="0.000000 0.000000 0.000000" charge=0
C	-2.300728	-0.350537	0.291911	6
N	-0.884908	-0.515637	0.608791	7
C	-0.159279	-1.298957	-0.383269	6
C	0.000841	0.202693	-0.314179	6
C	1.199192	0.777593	0.322511	6
N	2.263881	0.893343	-0.400489	7
O	3.278412	1.463023	0.378821	8
H	-2.680728	0.555483	0.775051	1
H	-2.866108	-1.200077	0.688571	1
H	-2.518619	-0.274867	-0.780479	1
H	-0.702538	-1.720437	-1.219979	1
H	0.646461	-1.917697	-0.005709	1
H	-0.448598	0.801713	-1.097619	1
H	1.142802	1.094343	1.378631	1
H	4.029922	1.490013	-0.242559	1
Es	0.082435	-0.531495	-0.515945	99
Es	1.199157	0.777574	0.322488	99
Es	-0.777341	-0.536265	0.926153	99
Es	1.880211	0.579451	0.004660	99
Es	3.176987	1.739908	0.467235	99
Es	-0.546768	-0.069232	0.248506	99
Es	-2.435999	-0.298166	-0.447591	99
Es	1.709702	1.107526	-0.162564	99
Es	2.342152	0.805821	-0.763923	99
Es	3.330118	1.263671	0.559078	99
Es	0.000753	0.202538	-0.314020	99
Es	3.687716	1.483448	0.039522	99
Es	-0.302214	0.604173	-0.832263	99
Es	-0.534272	-1.582061	-0.945758	99
Es	-2.300597	-0.350552	0.291932	99
Es	-2.686916	-0.933641	0.558613	99
Es	-0.159369	-1.298753	-0.383145	99
Es	3.278430	1.463019	0.378474	99
Es	1.160948	0.987991	1.023064	99
Es	-2.555236	0.269602	0.614136	99
Es	-0.650970	-0.981180	0.221956	99
Es	-1.498791	-0.445165	0.450406	99
Es	2.263811	0.893519	-0.399884	99
Es	2.835063	1.206889	0.043980	99
Es	0.606366	0.492429	0.007137	99
Es	0.379879	-1.716265	-0.130685	99
Es	-0.885011	-0.515599	0.608129	99
42
Properties=species:S:1:pos:R:3:Z:I:1 energy=-339.88486464318044 field_type=dipole dipole="0.000000 0.000000 0.000000" charge=0
C	-2.300728	-0.350537	0.291911	6
N	-0.884908	-0.515637	0.608791	7
C	-0.159279	-1.298957	-0.383269	6
C	0.000841	0.202693	-0.314179	6
C	1.199192	0.777593	0.322511	6
N	2.263881	0.893343	-0.400489	7
O	3.278412	1.463023	0.378821	8
H	-2.680728	0.555483	0.775051	1
H	-2.866108	-1.200077	0.688571	1
H	-2.518619	-0.274867	-0.780479	1
H	-0.702538	-1.720437	-1.219979	1
H	0.646461	-1.917697	-0.005709	1
H	-0.448598	0.801713	-1.097619	1
H	1.142802	1.094343	1.378631	1
H	4.029922	1.490013	-0.242559	1
Es	-0.546290	-0.069146	0.248755	99
Es	1.199159	0.777564	0.322491	99
Es	-0.885012	-0.515597	0.608106	99
Es	-2.435969	-0.297815	-0.446930	99
Es	-0.301784	0.603074	-0.831307	99
Es	-2.687464	-0.933929	0.558784	99
Es	3.688075	1.485373	0.038996	99
Es	-0.533691	-1.581661	-0.945141	99
Es	0.379008	-1.716028	-0.131095	99
Es	2.341757	0.806135	-0.764416	99
Es	1.880244	0.579573	0.004858	99
Es	3.330030	1.264900	0.548336	99
Es	0.000760	0.202536	-0.314024	99
Es	-1.499798	-0.445497	0.453883	99
Es	-0.159362	-1.298762	-0.383152	99
Es	-0.652057	-0.980752	0.223216	99
Es	-0.776784	-0.536938	0.921594	99
Es	-2.554890	0.269275	0.613661	99
Es	3.177252	1.737725	0.476887	99
Es	0.083130	-0.530611	-0.517058	99
Es	1.160909	0.987836	1.023132	99
Es	0.606923	0.492677	0.006599	99
Es	-2.300600	-0.350551	0.291931	99
Es	2.263800	0.893523	-0.399878	99
Es	2.834527	1.205907	0.045028	99
Es	1.709920	1.107406	-0.162037	99
Es	3.278452	1.462964	0.378472	99
42
Properties=species:S:1:pos:R:3:Z:I:1 energy=-339.88486464318044 field_type=dipole dipole="0.000000 0.000000 0.000000" charge=0
C	-2.300728	-0.350537	0.291911	6
N	-0.884908	-0.515637	0.608791	7
C	-0.159279	-1.298957	-0.383269	6
C	0.000841	0.202693	-0.314179	6
C	1.199192	0.777593	0.322511	6
N	2.263881	0.893343	-0.400489	7
O	3.278412	1.463023	0.378821	8
H	-2.680728	0.555483	0.775051	1
H	-2.866108	-1.200077	0.688571	1
H	-2.518619	-0.274867	-0.780479	1
H	-0.702538	-1.720437	-1.219979	1
H	0.646461	-1.917697	-0.005709	1
H	-0.448598	0.801713	-1.097619	1
H	1.142802	1.094343	1.378631	1
H	4.029922	1.490013	-0.242559	1
Es	-2.300595	-0.350552	0.291933	99
Es	3.278384	1.463082	0.378354	99
Es	-0.159373	-1.298748	-0.383141	99
Es	3.329593	1.267069	0.537436	99
Es	-0.653430	-0.980281	0.224454	99
Es	-0.533100	-1.581629	-0.944643	99
Es	-0.301463	0.602376	-0.830673	99
Es	-0.776318	-0.537462	0.918418	99
Es	2.834276	1.204526	0.046525	99
Es	3.177676	1.735696	0.486412	99
Es	-2.436188	-0.297835	-0.446480	99
Es	-2.554493	0.269084	0.613152	99
Es	0.607379	0.492650	0.006206	99
Es	3.688349	1.486490	0.038564	99
Es	-2.687892	-0.933767	0.559267	99
Es	1.710096	1.107364	-0.161604	99
Es	1.199158	0.777571	0.322489	99
Es	2.263801	0.893513	-0.399887	99
Es	1.160876	0.987676	1.023115	99
Es	2.341585	0.806117	-0.764790	99
Es	-1.500247	-0.445964	0.456428	99
Es	-0.545661	-0.069656	0.248165	99
Es	0.000758	0.202532	-0.314027	99
Es	1.880262	0.579895	0.005121	99
Es	0.378562	-1.715496	-0.131347	99
Es	-0.885010	-0.515596	0.608102	99
Es	0.083258	-0.529475	-0.517857	99
42
Properties=species:S:1:pos:R:3:Z:I:1 energy=-339.88486464318044 field_type=dipole dipole="0.000000 0.000000 0.000000" charge=0
C	-2.300728	-0.350537	0.291911	6
N	-0.884908	-0.515637	0.608791	7
C	-0.159279	-1.298957	-0.383269	6
C	0.000841	0.202693	-0.314179	6
C	1.199192	0.777593	0.322511	6
N	2.263881	0.893343	-0.400489	7
O	3.278412	1.463023	0.378821	8
H	-2.680728	0.555483	0.775051	1
H	-2.866108	-1.200077	0.688571	1
H	-2.518619	-0.274867	-0.780479	1
H	-0.702538	-1.720437	-1.219979	1
H	0.646461	-1.917697	-0.005709	1
H	-0.448598	0.801713	-1.097619	1
H	1.142802	1.094343	1.378631	1
H	4.029922	1.490013	-0.242559	1
Es	-2.554216	0.268746	0.612871	99
Es	1.160888	0.987613	1.023151	99
Es	0.377872	-1.715182	-0.131573	99
Es	2.833916	1.203995	0.047192	99
Es	-0.654455	-0.980247	0.225398	99
Es	-0.301114	0.601646	-0.830068	99
Es	-0.159373	-1.298751	-0.383141	99
Es	-2.300595	-0.350552	0.291933	99
Es	1.880229	0.580126	0.005320	99
Es	-2.688266	-0.933832	0.559416	99
Es	0.607604	0.492891	0.005864	99
Es	2.341253	0.806037	-0.764980	99
Es	-1.500622	-0.445941	0.459885	99
Es	-0.775936	-0.537470	0.914805	99
Es	-2.436155	-0.297559	-0.446256	99
Es	3.688671	1.487365	0.038462	99
Es	0.000758	0.202538	-0.314023	99
Es	-0.532683	-1.581463	-0.944185	99
Es	2.263811	0.893515	-0.399885	99
Es	1.710245	1.107297	-0.161362	99
Es	3.278399	1.463041	0.378387	99
Es	0.083793	-0.529079	-0.518608	99
Es	3.178230	1.733878	0.489730	99
Es	-0.885020	-0.515597	0.608098	99
Es	-0.545365	-0.069883	0.247691	99
Es	3.329211	1.268492	0.533075	99
Es	1.199164	0.777558	0.322493	99
42
Properties=species:S:1:pos:R:3:Z:I:1 energy=-339.88486464318044 field_type=dipole dipole="0.000000 0.000000 0.000000" charge=0
C	-2.300728	-0.350537	0.291911	6
N	-0.884908	-0.515637	0.608791	7
C	-0.159279	-1.298957	-0.383269	6
C	0.000841	0.202693	-0.314179	6
C	1.199192	0.777593	0.322511	6
N	2.263881	0.893343	-0.400489	7
O	3.278412	1.463023	0.378821	8
H	-2.680728	0.555483	0.775051	1
H	-2.866108	-1.200077	0.688571	1
H	-2.518619	-0.274867	-0.780479	1
H	-0.702538	-1.720437	-1.219979	1
H	0.646461	-1.917697	-0.005709	1
H	-0.448598	0.801713	-1.097619	1
H	1.142802	1.094343	1.378631	1
H	4.029922	1.490013	-0.242559	1
Es	-0.884972	-0.515607	0.608248	99
Es	1.199158	0.777568	0.322490	99
Es	0.377455	-1.715047	-0.131705	99
Es	3.178746	1.731554	0.498178	99
Es	1.880327	0.579887	0.005353	99
Es	2.263828	0.893522	-0.399886	99
Es	0.083997	-0.528421	-0.518936	99
Es	-0.532317	-1.581239	-0.943720	99
Es	1.710362	1.107232	-0.161003	99
Es	-0.545013	-0.070266	0.247232	99
Es	0.607886	0.492856	0.005579	99
Es	-0.159374	-1.298742	-0.383138	99
Es	1.160845	0.987600	1.023138	99
Es	-0.775778	-0.537462	0.912256	99
Es	2.341061	0.806395	-0.765202	99
Es	-2.300600	-0.350552	0.291931	99
Es	-2.688573	-0.933808	0.559620	99
Es	-0.300959	0.601276	-0.829861	99
Es	0.000755	0.202536	-0.314021	99
Es	3.688659	1.488719	0.038162	99
Es	-2.553984	0.268447	0.612572	99
Es	-2.436190	-0.297403	-0.446050	99
Es	-1.500878	-0.446260	0.462012	99
Es	-0.655185	-0.980006	0.226219	99
Es	2.833774	1.203258	0.047993	99
Es	3.328756	1.270200	0.523709	99
Es	3.278456	1.462948	0.378522	99
42
Properties=species:S:1:pos:R:3:Z:I:1 energy=-339.88486464318044 field_type=dipole dipole="0.000000 0.000000 0.000000" charge=0
C	-2.300728	-0.350537	0.291911	6
N	-0.884908	-0.515637	0.608791	7
C	-0.159279	-1.298957	-0.383269	6
C	0.000841	0.202693	-0.314179	6
C	1.199192	0.777593	0.322511	6
N	2.263881	0.893343	-0.400489	7
O	3.278412	1.463023	0.378821	8
H	-2.680728	0.555483	0.775051	1
H	-2.866108	-1.200077	0.688571	1
H	-2.518619	-0.274867	-0.780479	1
H	-0.702538	-1.720437	-1.219979	1
H	0.646461	-1.917697	-0.005709	1
H	-0.448598	0.801713	-1.097619	1
H	1.142802	1.094343	1.378631	1
H	4.029922	1.490013	-0.242559	1
Es	-2.436219	-0.297335	-0.445874	99
Es	3.689206	1.488441	0.038366	99
Es	-2.553795	0.268268	0.612326	99
Es	0.377048	-1.714776	-0.131840	99
Es	1.199158	0.777569	0.322489	99
Es	1.710415	1.107250	-0.160807	99
Es	0.084236	-0.528075	-0.519419	99
Es	2.833918	1.201952	0.049089	99
Es	-0.532081	-1.581195	-0.943369	99
Es	0.608140	0.493016	0.005253	99
Es	-0.159374	-1.298739	-0.383135	99
Es	2.341033	0.806090	-0.765365	99
Es	-2.300599	-0.350548	0.291932	99
Es	3.178723	1.731068	0.498052	99
Es	1.880233	0.580378	0.005356	99
Es	-0.775519	-0.537012	0.910289	99
Es	1.160841	0.987458	1.023258	99
Es	-0.300787	0.600774	-0.829466	99
Es	-0.885016	-0.515595	0.608087	99
Es	0.000745	0.202528	-0.314013	99
Es	3.278429	1.463023	0.378452	99
Es	-0.655537	-0.979854	0.227140	99
Es	-0.545001	-0.070791	0.246513	99
Es	-2.688802	-0.933769	0.559813	99
Es	2.263816	0.893519	-0.399880	99
Es	3.328116	1.272134	0.522413	99
Es	-1.501082	-0.446600	0.464032	99
42
Properties=species:S:1:pos:R:3:Z:I:1 energy=-339.88486464318044 field_type=dipole dipole="0.000000 0.000000 0.000000" charge=0
C	-2.300728	-0.350537	0.291911	6
N	-0.884908	-0.515637	0.608791	7
C	-0.159279	-1.298957	-0.383269	6
C	0.000841	0.202693	-0.314179	6
C	1.199192	0.777593	0.322511	6
N	2.263881	0.893343	-0.400489	7
O	3.278412	1.463023	0.378821	8
H	-2.680728	0.555483	0.775051	1
H	-2.866108	-1.200077	0.688571	1
H	-2.518619	-0.274867	-0.780479	1
H	-0.702538	-1.720437	-1.219979	1
H	0.646461	-1.917697	-0.005709	1
H	-0.448598	0.801713	-1.097619	1
H	1.142802	1.094343	1.378631	1
H	4.029922	1.490013	-0.242559	1
Es	2.833766	1.200723	0.050366	99
Es	-1.501060	-0.446598	0.465394	99
Es	-0.531771	-1.580961	-0.943004	99
Es	1.199158	0.777569	0.322489	99
Es	-2.689048	-0.933619	0.560154	99
Es	2.263803	0.893516	-0.399883	99
Es	1.160851	0.987471	1.023248	99
Es	-0.544659	-0.071042	0.246223	99
Es	0.000746	0.202533	-0.314017	99
Es	1.880281	0.580312	0.005422	99
Es	0.608289	0.492995	0.005080	99
Es	-0.300638	0.600561	-0.829259	99
Es	-0.656406	-0.979565	0.227384	99
Es	-2.436352	-0.297350	-0.445684	99
Es	3.179245	1.729863	0.501583	99
Es	3.327736	1.274041	0.517764	99
Es	-2.300591	-0.350552	0.291932	99
Es	-0.884998	-0.515600	0.608168	99
Es	-0.159375	-1.298741	-0.383138	99
Es	3.689146	1.488857	0.038117	99
Es	0.376852	-1.714692	-0.131959	99
Es	3.278400	1.463068	0.378396	99
Es	-0.775391	-0.537375	0.908755	99
Es	1.710571	1.107090	-0.160507	99
Es	0.084238	-0.527668	-0.519727	99
Es	-2.553526	0.268110	0.612026	99
Es	2.340974	0.806240	-0.765632	99
42
Properties=species:S:1:pos:R:3:Z:I:1 energy=-339.88486464318044 field_type=dipole dipole="0.000000 0.000000 0.000000" charge=0
C	-2.300728	-0.350537	0.291911	6
N	-0.884908	-0.515637	0.608791	7
C	-0.159279	-1.298957	-0.383269	6
C	0.000841	0.202693	-0.314179	6
C	1.199192	0.777593	0.322511	6
N	2.263881	0.893343	-0.400489	7
O	3.278412	1.463023	0.378821	8
H	-2.680728	0.555483	0.775051	1
H	-2.866108	-1.200077	0.688571	1
H	-2.518619	-0.274867	-0.780479	1
H	-0.702538	-1.720437	-1.219979	1
H	0.646461	-1.917697	-0.005709	1
H	-0.448598	0.801713	-1.097619	1
H	1.142802	1.094343	1.378631	1
H	4.029922	1.490013	-0.242559	1
Es	3.278404	1.463065	0.378401	99
Es	0.084319	-0.527317	-0.520028	99
Es	1.710560	1.107165	-0.160490	99
Es	-0.300490	0.600176	-0.828903	99
Es	-0.159377	-1.298739	-0.383135	99
Es	-0.544323	-0.071414	0.245876	99
Es	-0.656959	-0.979504	0.228067	99
Es	-2.553362	0.267980	0.611812	99
Es	-2.689248	-0.933557	0.560316	99
Es	2.833736	1.200969	0.050239	99
Es	-1.501098	-0.446688	0.466916	99
Es	1.199157	0.777570	0.322491	99
Es	-2.300598	-0.350552	0.291932	99
Es	3.689346	1.489128	0.038181	99
Es	1.160805	0.987444	1.023253	99
Es	0.608564	0.492997	0.004889	99
Es	1.880293	0.580388	0.005530	99
Es	-0.885028	-0.515596	0.608076	99
Es	2.340871	0.806207	-0.765658	99
Es	0.376591	-1.714535	-0.132100	99
Es	-0.531526	-1.580775	-0.942756	99
Es	-2.436367	-0.297319	-0.445515	99
Es	2.263807	0.893519	-0.399876	99
Es	3.179541	1.728740	0.504660	99
Es	0.000750	0.202534	-0.314019	99
Es	3.327308	1.274610	0.514511	99
Es	-0.775432	-0.537313	0.907019	99
42
Properties=species:S:1:pos:R:3:Z:I:1 energy=-339.88486464318044 field_type=dipole dipole="0.000000 0.000000 0.000000" charge=0
C	-2.300728	-0.350537	0.291911	6
N	-0.884908	-0.515637	0.608791	7
C	-0.159279	-1.298957	-0.383269	6
C	0.000841	0.202693	-0.314179	6
C	1.199192	0.777593	0.322511	6
N	2.263881	0.893343	-0.400489	7
O	3.278412	1.463023	0.378821	8
H	-2.680728	0.555483	0.775051	1
H	-2.866108	-1.200077	0.688571	1
H	-2.518619	-0.274867	-0.780479	1
H	-0.702538	-1.720437	-1.219979	1
H	0.646461	-1.917697	-0.005709	1
H	-0.448598	0.801713	-1.097619	1
H	1.142802	1.094343	1.378631	1
H	4.029922	1.490013	-0.242559	1
Es	0.000752	0.202535	-0.314019	99
Es	2.263800	0.893513	-0.399887	99
Es	3.326679	1.276552	0.505286	99
Es	3.181036	1.725071	0.514218	99
Es	-0.657486	-0.979355	0.228505	99
Es	-0.159375	-1.298739	-0.383136	99
Es	1.160801	0.987330	1.023212	99
Es	2.833480	1.201238	0.050288	99
Es	-0.300498	0.600300	-0.829302	99
Es	3.688980	1.490524	0.037767	99
Es	1.880366	0.580114	0.005608	99
Es	-2.689472	-0.933558	0.560428	99
Es	-0.885021	-0.515594	0.608077	99
Es	1.710506	1.107460	-0.160478	99
Es	0.376665	-1.714683	-0.132164	99
Es	0.608624	0.492788	0.004934	99
Es	-0.531295	-1.580472	-0.942220	99
Es	-0.543893	-0.071527	0.245683	99
Es	0.084221	-0.527045	-0.520056	99
Es	-2.300598	-0.350551	0.291932	99
Es	-2.553185	0.267875	0.611620	99
Es	-2.436347	-0.297232	-0.445351	99
Es	3.278291	1.463055	0.378100	99
Es	2.340724	0.806324	-0.765451	99
Es	-1.501106	-0.446932	0.467879	99
Es	-0.775563	-0.537375	0.905728	99
Es	1.199158	0.777569	0.322490	99
42
Properties=species:S:1:pos:R:3:Z:I:1 energy=-339.88486464318044 field_type=dipole dipole="0.000000 0.000000 0.000000" charge=0
C	-2.300728	-0.350537	0.291911	6
N	-0.884908	-0.515637	0.608791	7
C	-0.159279	-1.298957	-0.383269	6
C	0.000841	0.202693	-0.314179	6
C	1.199192	0.777593	0.322511	6
N	2.263881	0.893343	-0.400489	7
O	3.278412	1.463023	0.378821	8
H	-2.680728	0.555483	0.775051	1
H	-2.866108	-1.200077	0.688571	1
H	-2.518619	-0.274867	-0.780479	1
H	-0.702538	-1.720437	-1.219979	1
H	0.646461	-1.917697	-0.005709	1
H	-0.448598	0.801713	-1.097619	1
H	1.142802	1.094343	1.378631	1
H	4.029922	1.490013	-0.242559	1
Es	2.263834	0.893520	-0.399896	99
Es	-2.689524	-0.933499	0.560535	99
Es	0.000753	0.202537	-0.314019	99
Es	-0.775457	-0.537160	0.904107	99
Es	1.710648	1.107451	-0.160457	99
Es	3.278306	1.463266	0.378214	99
Es	0.376526	-1.714647	-0.132152	99
Es	-2.436451	-0.297168	-0.445268	99
Es	3.181071	1.724772	0.515495	99
Es	2.340726	0.806237	-0.765670	99
Es	0.608832	0.492759	0.004756	99
Es	2.833481	1.200523	0.050976	99
Es	-2.300596	-0.350551	0.291933	99
Es	1.199158	0.777568	0.322490	99
Es	-0.531115	-1.580368	-0.942063	99
Es	-2.553109	0.267698	0.611565	99
Es	3.326566	1.277112	0.503327	99
Es	-1.501055	-0.447122	0.469435	99
Es	1.880293	0.580324	0.005840	99
Es	1.160819	0.987246	1.023208	99
Es	-0.300401	0.600094	-0.829032	99
Es	3.688938	1.490685	0.037612	99
Es	-0.884987	-0.515605	0.608217	99
Es	-0.543705	-0.071951	0.244904	99
Es	0.084141	-0.526815	-0.520291	99
Es	-0.658073	-0.978984	0.229058	99
Es	-0.159378	-1.298736	-0.383133	99
42
Properties=species:S:1:pos:R:3:Z:I:1 energy=-339.88486464318044 field_type=dipole dipole="0.000000 0.000000 0.000000" charge=0
C	-2.300728	-0.350537	0.291911	6
N	-0.884908	-0.515637	0.608791	7
C	-0.159279	-1.298957	-0.383269	6
C	0.000841	0.202693	-0.314179	6
C	1.199192	0.777593	0.322511	6
N	2.263881	0.893343	-0.400489	7
O	3.278412	1.463023	0.378821	8
H	-2.680728	0.555483	0.775051	1
H	-2.866108	-1.200077	0.688571	1
H	-2.518619	-0.274867	-0.780479	1
H	-0.702538	-1.720437	-1.219979	1
H	0.646461	-1.917697	-0.005709	1
H	-0.448598	0.801713	-1.097619	1
H	1.142802	1.094343	1.378631	1
H	4.029922	1.490013	-0.242559	1
Es	-2.300596	-0.350552	0.291933	99
Es	1.880476	0.579961	0.005637	99
Es	-0.530931	-1.580164	-0.941822	99
Es	3.689089	1.490848	0.037657	99
Es	-0.300363	0.599972	-0.829032	99
Es	1.199158	0.777568	0.322490	99
Es	-0.159376	-1.298739	-0.383135	99
Es	-2.436507	-0.297120	-0.445104	99
Es	3.326076	1.278106	0.499864	99
Es	3.278388	1.463062	0.378359	99
Es	2.340637	0.806535	-0.765763	99
Es	-1.500976	-0.447091	0.470228	99
Es	-2.689766	-0.933381	0.560746	99
Es	-0.775566	-0.537511	0.903125	99
Es	3.181564	1.723579	0.518582	99
Es	0.000744	0.202534	-0.314020	99
Es	0.609056	0.492750	0.004607	99
Es	1.160662	0.987291	1.023215	99
Es	0.084169	-0.526558	-0.520310	99
Es	2.263843	0.893525	-0.399895	99
Es	2.833185	1.200794	0.051082	99
Es	1.710624	1.107391	-0.160119	99
Es	0.376387	-1.714583	-0.132272	99
Es	-0.543420	-0.071934	0.245245	99
Es	-2.552907	0.267493	0.611306	99
Es	-0.658384	-0.978999	0.229010	99
Es	-0.885025	-0.515594	0.608076	99
