45
Properties=species:S:1:pos:R:3:Z:I:1 energy=-341.1089840555504 field_type=dipole dipole="0.000000 0.000000 0.000000" charge=0
C	-0.917610	-2.021281	-0.675857	6
O	-1.218360	-1.127041	0.390173	8
C	-0.770460	0.200469	0.131233	6
C	-1.327661	1.098349	1.226583	6
C	0.745669	0.292289	0.157413	6
N	1.400079	0.728639	-0.872997	7
N	2.738949	0.733299	-0.689397	7
H	-1.397810	-2.980541	-0.461897	1
H	0.161549	-2.187571	-0.746857	1
H	-1.306311	-1.642501	-1.626327	1
H	-1.149151	0.541919	-0.839467	1
H	-1.010431	0.753709	2.217993	1
H	-2.422730	1.076569	1.219693	1
H	-0.995701	2.134369	1.102863	1
H	1.247300	-0.039321	1.086193	1
H	3.201149	0.962009	-1.573577	1
H	3.021529	1.476639	-0.045767	1
Es	-0.770459	0.200273	0.131338	99
Es	2.073179	0.753875	-0.767139	99
Es	-1.058452	-1.224062	0.636691	99
Es	-1.218249	-1.127036	0.389984	99
Es	-0.177962	-2.131857	-0.730111	99
Es	1.130352	0.269250	-0.500850	99
Es	-1.180701	-1.756778	-1.330079	99
Es	2.827753	0.421365	-0.567999	99
Es	2.738681	0.733865	-0.689605	99
Es	-1.085516	-1.439505	-0.032559	99
Es	-1.101821	0.862883	1.895247	99
Es	1.256990	0.825635	-1.205933	99
Es	-1.245255	-2.674193	-0.530075	99
Es	-0.917662	-2.021134	-0.675687	99
Es	1.082412	0.073837	0.790008	99
Es	-1.522119	-1.101031	0.393236	99
Es	0.004479	0.243213	0.141097	99
Es	-2.067157	1.085095	1.214657	99
Es	-1.095927	1.799577	1.134132	99
Es	1.400350	0.728488	-0.872460	99
Es	-1.040202	0.650958	0.682449	99
Es	1.095960	0.817515	-0.311284	99
Es	0.745642	0.292327	0.157424	99
Es	3.008202	0.888608	-1.223435	99
Es	-1.327639	1.098341	1.226560	99
Es	-1.023911	-0.635202	0.260837	99
Es	-1.024027	0.430968	-0.535232	99
Es	2.884512	1.187776	-0.305641	99
45
Properties=species:S:1:pos:R:3:Z:I:1 energy=-341.1089840555504 field_type=dipole dipole="0.000000 0.000000 0.000000" charge=0
C	-0.917610	-2.021281	-0.675857	6
O	-1.218360	-1.127041	0.390173	8
C	-0.770460	0.200469	0.131233	6
C	-1.327661	1.098349	1.226583	6
C	0.745669	0.292289	0.157413	6
N	1.400079	0.728639	-0.872997	7
N	2.738949	0.733299	-0.689397	7
H	-1.397810	-2.980541	-0.461897	1
H	0.161549	-2.187571	-0.746857	1
H	-1.306311	-1.642501	-1.626327	1
H	-1.149151	0.541919	-0.839467	1
H	-1.010431	0.753709	2.217993	1
H	-2.422730	1.076569	1.219693	1
H	-0.995701	2.134369	1.102863	1
H	1.247300	-0.039321	1.086193	1
H	3.201149	0.962009	-1.573577	1
H	3.021529	1.476639	-0.045767	1
Es	1.130920	0.268648	-0.499881	99
Es	-1.327640	1.098341	1.226563	99
Es	-0.178079	-2.130870	-0.730452	99
Es	2.826506	0.427993	-0.567987	99
Es	-1.022976	-0.634200	0.260881	99
Es	-2.067254	1.084839	1.214559	99
Es	-1.087966	-1.438858	-0.032833	99
Es	1.400354	0.728485	-0.872447	99
Es	-1.179983	-1.756281	-1.329210	99
Es	-1.040272	0.651154	0.682573	99
Es	1.082240	0.073763	0.789437	99
Es	0.745637	0.292325	0.157436	99
Es	-0.770458	0.200275	0.131335	99
Es	2.883226	1.185099	-0.305309	99
Es	-1.529542	-1.106281	0.409691	99
Es	-1.245933	-2.675441	-0.530273	99
Es	3.011296	0.888272	-1.226433	99
Es	-0.917660	-2.021137	-0.675690	99
Es	-1.102056	0.862571	1.894893	99
Es	2.738688	0.733863	-0.689612	99
Es	-1.049819	-1.220780	0.620634	99
Es	0.004546	0.242440	0.140903	99
Es	1.256305	0.825204	-1.204527	99
Es	-1.023983	0.430748	-0.534960	99
Es	-1.095470	1.800056	1.134168	99
Es	1.096139	0.818303	-0.310620	99
Es	2.072868	0.751450	-0.767127	99
Es	-1.218180	-1.126929	0.389858	99
45
Properties=species:S:1:pos:R:3:Z:I:1 energy=-341.1089840555504 field_type=dipole dipole="0.000000 0.000000 0.000000" charge=0
C	-0.917610	-2.021281	-0.675857	6
O	-1.218360	-1.127041	0.390173	8
C	-0.770460	0.200469	0.131233	6
C	-1.327661	1.098349	1.226583	6
C	0.745669	0.292289	0.157413	6
N	1.400079	0.728639	-0.872997	7
N	2.738949	0.733299	-0.689397	7
H	-1.397810	-2.980541	-0.461897	1
H	0.161549	-2.187571	-0.746857	1
H	-1.306311	-1.642501	-1.626327	1
H	-1.149151	0.541919	-0.839467	1
H	-1.010431	0.753709	2.217993	1
H	-2.422730	1.076569	1.219693	1
H	-0.995701	2.134369	1.102863	1
H	1.247300	-0.039321	1.086193	1
H	3.201149	0.962009	-1.573577	1
H	3.021529	1.476639	-0.045767	1
Es	2.882488	1.182591	-0.304823	99
Es	0.745636	0.292330	0.157433	99
Es	-1.023877	0.430632	-0.535022	99
Es	-1.534720	-1.113103	0.428343	99
Es	-2.067000	1.084482	1.214476	99
Es	1.400322	0.728482	-0.872451	99
Es	-1.101937	0.862346	1.895080	99
Es	-0.770458	0.200270	0.131335	99
Es	-1.179476	-1.755843	-1.329028	99
Es	-1.040389	0.651397	0.682525	99
Es	1.131382	0.268189	-0.499457	99
Es	-1.090767	-1.437302	-0.033279	99
Es	-1.023693	-0.633357	0.260034	99
Es	-0.178472	-2.130294	-0.730403	99
Es	1.082209	0.073739	0.789289	99
Es	-1.246202	-2.676238	-0.530237	99
Es	-1.218061	-1.126968	0.389876	99
Es	-1.095600	1.800414	1.133883	99
Es	0.004632	0.242023	0.140980	99
Es	-1.041302	-1.216480	0.603331	99
Es	1.097029	0.817680	-0.309680	99
Es	2.825295	0.432895	-0.568866	99
Es	2.072576	0.749809	-0.767586	99
Es	1.255013	0.825810	-1.203465	99
Es	2.738697	0.733861	-0.689612	99
Es	-1.327640	1.098341	1.226561	99
Es	3.013426	0.888482	-1.227978	99
Es	-0.917661	-2.021135	-0.675689	99
45
Properties=species:S:1:pos:R:3:Z:I:1 energy=-341.1089840555504 field_type=dipole dipole="0.000000 0.000000 0.000000" charge=0
C	-0.917610	-2.021281	-0.675857	6
O	-1.218360	-1.127041	0.390173	8
C	-0.770460	0.200469	0.131233	6
C	-1.327661	1.098349	1.226583	6
C	0.745669	0.292289	0.157413	6
N	1.400079	0.728639	-0.872997	7
N	2.738949	0.733299	-0.689397	7
H	-1.397810	-2.980541	-0.461897	1
H	0.161549	-2.187571	-0.746857	1
H	-1.306311	-1.642501	-1.626327	1
H	-1.149151	0.541919	-0.839467	1
H	-1.010431	0.753709	2.217993	1
H	-2.422730	1.076569	1.219693	1
H	-0.995701	2.134369	1.102863	1
H	1.247300	-0.039321	1.086193	1
H	3.201149	0.962009	-1.573577	1
H	3.021529	1.476639	-0.045767	1
Es	-1.101738	0.861942	1.895705	99
Es	0.745635	0.292332	0.157436	99
Es	3.014405	0.889409	-1.228631	99
Es	-0.770459	0.200271	0.131336	99
Es	-0.178801	-2.130006	-0.730082	99
Es	-2.066647	1.084505	1.214158	99
Es	1.082322	0.073646	0.789374	99
Es	-1.246074	-2.676552	-0.529972	99
Es	1.097895	0.816542	-0.309361	99
Es	-1.097588	-1.434717	-0.035623	99
Es	1.253863	0.826429	-1.204261	99
Es	-1.023872	0.430768	-0.535499	99
Es	-0.917660	-2.021133	-0.675687	99
Es	-1.327639	1.098340	1.226561	99
Es	1.400361	0.728486	-0.872453	99
Es	2.825686	0.436071	-0.568902	99
Es	2.071937	0.747370	-0.766712	99
Es	2.881296	1.181207	-0.305542	99
Es	0.004487	0.241745	0.141218	99
Es	2.738696	0.733829	-0.689604	99
Es	-1.218278	-1.126900	0.389773	99
Es	-1.040482	0.651560	0.682518	99
Es	-1.179341	-1.755519	-1.329366	99
Es	-1.095681	1.800434	1.133430	99
Es	1.131893	0.268758	-0.498528	99
Es	-1.027609	-0.631938	0.258139	99
Es	-1.029968	-1.205283	0.566116	99
Es	-1.535189	-1.128546	0.470030	99
45
Properties=species:S:1:pos:R:3:Z:I:1 energy=-341.1089840555504 field_type=dipole dipole="0.000000 0.000000 0.000000" charge=0
C	-0.917610	-2.021281	-0.675857	6
O	-1.218360	-1.127041	0.390173	8
C	-0.770460	0.200469	0.131233	6
C	-1.327661	1.098349	1.226583	6
C	0.745669	0.292289	0.157413	6
N	1.400079	0.728639	-0.872997	7
N	2.738949	0.733299	-0.689397	7
H	-1.397810	-2.980541	-0.461897	1
H	0.161549	-2.187571	-0.746857	1
H	-1.306311	-1.642501	-1.626327	1
H	-1.149151	0.541919	-0.839467	1
H	-1.010431	0.753709	2.217993	1
H	-2.422730	1.076569	1.219693	1
H	-0.995701	2.134369	1.102863	1
H	1.247300	-0.039321	1.086193	1
H	3.201149	0.962009	-1.573577	1
H	3.021529	1.476639	-0.045767	1
Es	-0.179032	-2.129825	-0.729874	99
Es	3.015400	0.889991	-1.229064	99
Es	1.082362	0.073622	0.789449	99
Es	-0.917661	-2.021134	-0.675688	99
Es	-1.246156	-2.676800	-0.529830	99
Es	-1.327640	1.098338	1.226558	99
Es	-1.179160	-1.755171	-1.329490	99
Es	2.738720	0.733759	-0.689577	99
Es	2.824852	0.438784	-0.569970	99
Es	0.745635	0.292329	0.157435	99
Es	-1.031287	-1.200833	0.553586	99
Es	-0.770458	0.200273	0.131335	99
Es	-2.066282	1.084652	1.213685	99
Es	-1.023884	0.430819	-0.535686	99
Es	-1.095574	1.800442	1.133053	99
Es	-1.218253	-1.126949	0.389833	99
Es	2.071629	0.746556	-0.766514	99
Es	-1.534722	-1.133862	0.481874	99
Es	0.004423	0.241586	0.141209	99
Es	1.400356	0.728483	-0.872445	99
Es	-1.040516	0.651610	0.682646	99
Es	-1.097568	-1.434503	-0.034732	99
Es	1.132400	0.269200	-0.497728	99
Es	2.881221	1.179236	-0.305324	99
Es	-1.101908	0.861635	1.896296	99
Es	1.252912	0.826364	-1.204340	99
Es	1.098464	0.815872	-0.309072	99
Es	-1.026823	-0.631423	0.257945	99
45
Properties=species:S:1:pos:R:3:Z:I:1 energy=-341.1089840555504 field_type=dipole dipole="0.000000 0.000000 0.000000" charge=0
C	-0.917610	-2.021281	-0.675857	6
O	-1.218360	-1.127041	0.390173	8
C	-0.770460	0.200469	0.131233	6
C	-1.327661	1.098349	1.226583	6
C	0.745669	0.292289	0.157413	6
N	1.400079	0.728639	-0.872997	7
N	2.738949	0.733299	-0.689397	7
H	-1.397810	-2.980541	-0.461897	1
H	0.161549	-2.187571	-0.746857	1
H	-1.306311	-1.642501	-1.626327	1
H	-1.149151	0.541919	-0.839467	1
H	-1.010431	0.753709	2.217993	1
H	-2.422730	1.076569	1.219693	1
H	-0.995701	2.134369	1.102863	1
H	1.247300	-0.039321	1.086193	1
H	3.201149	0.962009	-1.573577	1
H	3.021529	1.476639	-0.045767	1
Es	1.082528	0.073589	0.789530	99
Es	2.738702	0.733873	-0.689607	99
Es	1.099181	0.814363	-0.309008	99
Es	-1.246099	-2.676731	-0.529650	99
Es	3.015962	0.890512	-1.229119	99
Es	0.004459	0.241687	0.141319	99
Es	-1.101625	0.861446	1.896684	99
Es	0.745636	0.292329	0.157435	99
Es	1.132316	0.269760	-0.497749	99
Es	-0.917661	-2.021137	-0.675690	99
Es	-1.095516	1.800083	1.132778	99
Es	-2.066444	1.084801	1.213374	99
Es	-1.103683	-1.431929	-0.036299	99
Es	-1.218287	-1.126906	0.389753	99
Es	1.400355	0.728484	-0.872445	99
Es	-1.028847	-0.630374	0.256903	99
Es	1.252275	0.827402	-1.204838	99
Es	-0.770458	0.200273	0.131336	99
Es	-1.024233	0.431053	-0.535863	99
Es	2.881087	1.178008	-0.305653	99
Es	2.824805	0.440099	-0.570180	99
Es	-1.525654	-1.146181	0.513178	99
Es	-1.040416	0.651560	0.682657	99
Es	-1.327640	1.098342	1.226561	99
Es	-1.032227	-1.192234	0.525029	99
Es	-0.178909	-2.129717	-0.729823	99
Es	-1.179364	-1.755111	-1.329546	99
Es	2.071210	0.745707	-0.765495	99
45
Properties=species:S:1:pos:R:3:Z:I:1 energy=-341.1089840555504 field_type=dipole dipole="0.000000 0.000000 0.000000" charge=0
C	-0.917610	-2.021281	-0.675857	6
O	-1.218360	-1.127041	0.390173	8
C	-0.770460	0.200469	0.131233	6
C	-1.327661	1.098349	1.226583	6
C	0.745669	0.292289	0.157413	6
N	1.400079	0.728639	-0.872997	7
N	2.738949	0.733299	-0.689397	7
H	-1.397810	-2.980541	-0.461897	1
H	0.161549	-2.187571	-0.746857	1
H	-1.306311	-1.642501	-1.626327	1
H	-1.149151	0.541919	-0.839467	1
H	-1.010431	0.753709	2.217993	1
H	-2.422730	1.076569	1.219693	1
H	-0.995701	2.134369	1.102863	1
H	1.247300	-0.039321	1.086193	1
H	3.201149	0.962009	-1.573577	1
H	3.021529	1.476639	-0.045767	1
Es	-1.218285	-1.126891	0.389805	99
Es	1.400358	0.728486	-0.872450	99
Es	1.099382	0.813943	-0.309405	99
Es	0.004562	0.241688	0.141405	99
Es	-1.179331	-1.754903	-1.329873	99
Es	-1.101266	0.861364	1.896900	99
Es	1.251563	0.827146	-1.204968	99
Es	2.881723	1.176097	-0.304568	99
Es	-1.036679	-1.185408	0.508834	99
Es	-1.024296	0.431115	-0.535997	99
Es	-0.770457	0.200275	0.131335	99
Es	-1.327638	1.098340	1.226558	99
Es	1.132666	0.270450	-0.496737	99
Es	-1.246180	-2.676582	-0.529418	99
Es	-1.095453	1.799755	1.132508	99
Es	-0.917661	-2.021136	-0.675689	99
Es	-1.040378	0.651753	0.682615	99
Es	0.745635	0.292327	0.157435	99
Es	-1.030310	-0.629960	0.255766	99
Es	2.824022	0.441848	-0.571986	99
Es	2.738687	0.733881	-0.689627	99
Es	3.016417	0.891453	-1.229011	99
Es	-2.066780	1.084795	1.213104	99
Es	2.071027	0.745049	-0.765312	99
Es	-0.178959	-2.129864	-0.729477	99
Es	-1.518945	-1.153891	0.530160	99
Es	1.082596	0.073477	0.789620	99
Es	-1.104569	-1.431556	-0.035956	99
45
Properties=species:S:1:pos:R:3:Z:I:1 energy=-341.1089840555504 field_type=dipole dipole="0.000000 0.000000 0.000000" charge=0
C	-0.917610	-2.021281	-0.675857	6
O	-1.218360	-1.127041	0.390173	8
C	-0.770460	0.200469	0.131233	6
C	-1.327661	1.098349	1.226583	6
C	0.745669	0.292289	0.157413	6
N	1.400079	0.728639	-0.872997	7
N	2.738949	0.733299	-0.689397	7
H	-1.397810	-2.980541	-0.461897	1
H	0.161549	-2.187571	-0.746857	1
H	-1.306311	-1.642501	-1.626327	1
H	-1.149151	0.541919	-0.839467	1
H	-1.010431	0.753709	2.217993	1
H	-2.422730	1.076569	1.219693	1
H	-0.995701	2.134369	1.102863	1
H	1.247300	-0.039321	1.086193	1
H	3.201149	0.962009	-1.573577	1
H	3.021529	1.476639	-0.045767	1
Es	-1.106846	-1.430284	-0.036201	99
Es	-1.029270	-0.630139	0.255892	99
Es	-1.024352	0.431162	-0.536200	99
Es	0.004566	0.241772	0.141709	99
Es	2.070968	0.744019	-0.765208	99
Es	1.099819	0.813107	-0.309139	99
Es	3.016901	0.891633	-1.229045	99
Es	-2.066743	1.084870	1.212818	99
Es	-1.101253	0.861323	1.897239	99
Es	-1.040401	0.651655	0.682613	99
Es	1.400376	0.728486	-0.872459	99
Es	2.824622	0.443188	-0.571134	99
Es	1.082690	0.073579	0.789670	99
Es	-1.218251	-1.126912	0.389813	99
Es	1.250908	0.827393	-1.204592	99
Es	-0.770457	0.200273	0.131335	99
Es	-1.179432	-1.754847	-1.329926	99
Es	-1.246163	-2.676510	-0.529347	99
Es	0.745635	0.292325	0.157434	99
Es	2.738682	0.733898	-0.689625	99
Es	1.132644	0.270702	-0.496926	99
Es	-1.040412	-1.182510	0.498287	99
Es	-0.917662	-2.021134	-0.675687	99
Es	-1.327641	1.098339	1.226559	99
Es	-1.095446	1.799580	1.132268	99
Es	-0.178850	-2.129802	-0.729382	99
Es	2.880897	1.175759	-0.306041	99
Es	-1.514075	-1.157876	0.540845	99
45
Properties=species:S:1:pos:R:3:Z:I:1 energy=-341.1089840555504 field_type=dipole dipole="0.000000 0.000000 0.000000" charge=0
C	-0.917610	-2.021281	-0.675857	6
O	-1.218360	-1.127041	0.390173	8
C	-0.770460	0.200469	0.131233	6
C	-1.327661	1.098349	1.226583	6
C	0.745669	0.292289	0.157413	6
N	1.400079	0.728639	-0.872997	7
N	2.738949	0.733299	-0.689397	7
H	-1.397810	-2.980541	-0.461897	1
H	0.161549	-2.187571	-0.746857	1
H	-1.306311	-1.642501	-1.626327	1
H	-1.149151	0.541919	-0.839467	1
H	-1.010431	0.753709	2.217993	1
H	-2.422730	1.076569	1.219693	1
H	-0.995701	2.134369	1.102863	1
H	1.247300	-0.039321	1.086193	1
H	3.201149	0.962009	-1.573577	1
H	3.021529	1.476639	-0.045767	1
Es	1.400368	0.728489	-0.872457	99
Es	1.132770	0.271268	-0.496540	99
Es	-1.029540	-0.629914	0.255843	99
Es	-1.179480	-1.754739	-1.329870	99
Es	0.004667	0.241854	0.141644	99
Es	-0.178663	-2.129808	-0.729297	99
Es	2.738671	0.733907	-0.689641	99
Es	2.070717	0.744224	-0.764686	99
Es	2.881264	1.174453	-0.305681	99
Es	-1.100972	0.861279	1.897205	99
Es	-1.024565	0.431193	-0.536094	99
Es	-1.246378	-2.676397	-0.529230	99
Es	2.824092	0.443668	-0.571906	99
Es	0.745635	0.292327	0.157435	99
Es	-1.327639	1.098340	1.226561	99
Es	-1.218358	-1.126874	0.389691	99
Es	-1.040295	0.651805	0.682640	99
Es	-1.107748	-1.429527	-0.036327	99
Es	-1.045683	-1.178123	0.486965	99
Es	-0.770457	0.200272	0.131335	99
Es	1.082807	0.073541	0.789639	99
Es	-1.095313	1.799331	1.132179	99
Es	-0.917662	-2.021135	-0.675689	99
Es	1.099964	0.812686	-0.309247	99
Es	3.017284	0.892168	-1.228915	99
Es	1.250715	0.827274	-1.205079	99
Es	-1.507589	-1.163356	0.552402	99
Es	-2.067160	1.084847	1.212688	99
45
Properties=species:S:1:pos:R:3:Z:I:1 energy=-341.1089840555504 field_type=dipole dipole="0.000000 0.000000 0.000000" charge=0
C	-0.917610	-2.021281	-0.675857	6
O	-1.218360	-1.127041	0.390173	8
C	-0.770460	0.200469	0.131233	6
C	-1.327661	1.098349	1.226583	6
C	0.745669	0.292289	0.157413	6
N	1.400079	0.728639	-0.872997	7
N	2.738949	0.733299	-0.689397	7
H	-1.397810	-2.980541	-0.461897	1
H	0.161549	-2.187571	-0.746857	1
H	-1.306311	-1.642501	-1.626327	1
H	-1.149151	0.541919	-0.839467	1
H	-1.010431	0.753709	2.217993	1
H	-2.422730	1.076569	1.219693	1
H	-0.995701	2.134369	1.102863	1
H	1.247300	-0.039321	1.086193	1
H	3.201149	0.962009	-1.573577	1
H	3.021529	1.476639	-0.045767	1
Es	2.881272	1.173407	-0.305484	99
Es	-1.095296	1.799163	1.132153	99
Es	1.400364	0.728484	-0.872441	99
Es	2.070641	0.743560	-0.764664	99
Es	2.823556	0.445161	-0.572771	99
Es	-1.179478	-1.754671	-1.329956	99
Es	3.017733	0.892582	-1.228895	99
Es	-2.067058	1.085039	1.212504	99
Es	1.132847	0.271303	-0.496324	99
Es	-1.027881	-0.630190	0.255154	99
Es	-1.101090	0.861238	1.897454	99
Es	-1.327640	1.098341	1.226562	99
Es	-1.047495	-1.177578	0.484328	99
Es	-1.218355	-1.126874	0.389725	99
Es	-0.770456	0.200271	0.131334	99
Es	-1.024571	0.431157	-0.536144	99
Es	2.738749	0.733701	-0.689542	99
Es	-1.246368	-2.676393	-0.529122	99
Es	-0.917660	-2.021141	-0.675693	99
Es	1.250402	0.827360	-1.204980	99
Es	-1.108595	-1.429240	-0.035206	99
Es	1.082821	0.073504	0.789637	99
Es	-1.040211	0.651788	0.682514	99
Es	-0.178706	-2.129772	-0.729195	99
Es	1.100230	0.812563	-0.309120	99
Es	0.004691	0.241880	0.141687	99
Es	-1.506630	-1.163918	0.554622	99
Es	0.745635	0.292326	0.157435	99
45
Properties=species:S:1:pos:R:3:Z:I:1 energy=-341.1089840555504 field_type=dipole dipole="0.000000 0.000000 0.000000" charge=0
C	-0.917610	-2.021281	-0.675857	6
O	-1.218360	-1.127041	0.390173	8
C	-0.770460	0.200469	0.131233	6
C	-1.327661	1.098349	1.226583	6
C	0.745669	0.292289	0.157413	6
N	1.400079	0.728639	-0.872997	7
N	2.738949	0.733299	-0.689397	7
H	-1.397810	-2.980541	-0.461897	1
H	0.161549	-2.187571	-0.746857	1
H	-1.306311	-1.642501	-1.626327	1
H	-1.149151	0.541919	-0.839467	1
H	-1.010431	0.753709	2.217993	1
H	-2.422730	1.076569	1.219693	1
H	-0.995701	2.134369	1.102863	1
H	1.247300	-0.039321	1.086193	1
H	3.201149	0.962009	-1.573577	1
H	3.021529	1.476639	-0.045767	1
Es	3.018116	0.892836	-1.228792	99
Es	-1.503031	-1.167793	0.560336	99
Es	-1.100875	0.861221	1.897523	99
Es	-1.040398	0.651730	0.682715	99
Es	-2.067180	1.085030	1.212480	99
Es	-1.246422	-2.676374	-0.528999	99
Es	-0.770458	0.200267	0.131338	99
Es	2.882735	1.171350	-0.303712	99
Es	-1.327640	1.098341	1.226561	99
Es	-0.178546	-2.129657	-0.729225	99
Es	0.004721	0.241903	0.141705	99
Es	-1.028978	-0.629949	0.254309	99
Es	-1.218381	-1.126895	0.389692	99
Es	-1.179609	-1.754667	-1.329851	99
Es	-1.106974	-1.429481	-0.034351	99
Es	-0.917661	-2.021136	-0.675689	99
Es	1.250223	0.827329	-1.205171	99
Es	1.100289	0.812272	-0.309284	99
Es	0.745635	0.292328	0.157436	99
Es	1.400355	0.728484	-0.872440	99
Es	2.070433	0.744099	-0.764186	99
Es	1.132983	0.271575	-0.496003	99
Es	-1.024724	0.431223	-0.536109	99
Es	2.738644	0.733932	-0.689659	99
Es	1.082895	0.073501	0.789576	99
Es	2.822030	0.446270	-0.574949	99
Es	-1.095138	1.799079	1.131790	99
Es	-1.051593	-1.173767	0.478529	99
45
Properties=species:S:1:pos:R:3:Z:I:1 energy=-341.1089840555504 field_type=dipole dipole="0.000000 0.000000 0.000000" charge=0
C	-0.917610	-2.021281	-0.675857	6
O	-1.218360	-1.127041	0.390173	8
C	-0.770460	0.200469	0.131233	6
C	-1.327661	1.098349	1.226583	6
C	0.745669	0.292289	0.157413	6
N	1.400079	0.728639	-0.872997	7
N	2.738949	0.733299	-0.689397	7
H	-1.397810	-2.980541	-0.461897	1
H	0.161549	-2.187571	-0.746857	1
H	-1.306311	-1.642501	-1.626327	1
H	-1.149151	0.541919	-0.839467	1
H	-1.010431	0.753709	2.217993	1
H	-2.422730	1.076569	1.219693	1
H	-0.995701	2.134369	1.102863	1
H	1.247300	-0.039321	1.086193	1
H	3.201149	0.962009	-1.573577	1
H	3.021529	1.476639	-0.045767	1
Es	1.249771	0.827490	-1.205148	99
Es	-1.055569	-1.172729	0.472694	99
Es	-0.917661	-2.021135	-0.675689	99
Es	2.823790	0.446578	-0.572672	99
Es	1.082846	0.073667	0.789700	99
Es	2.880918	1.172238	-0.306525	99
Es	-1.499751	-1.169288	0.565485	99
Es	2.070460	0.742473	-0.763914	99
Es	-1.095346	1.798679	1.131914	99
Es	-1.108739	-1.428774	-0.034824	99
Es	1.133052	0.271767	-0.495937	99
Es	-1.100610	0.861323	1.897621	99
Es	-0.770458	0.200280	0.131335	99
Es	-1.327640	1.098340	1.226561	99
Es	1.400364	0.728483	-0.872443	99
Es	-1.024786	0.431224	-0.536179	99
Es	2.738666	0.733920	-0.689639	99
Es	1.100654	0.811703	-0.309213	99
Es	-1.246496	-2.676202	-0.528955	99
Es	-0.178502	-2.129773	-0.729065	99
Es	-1.026597	-0.630200	0.255330	99
Es	0.745634	0.292339	0.157439	99
Es	-2.067456	1.085079	1.212398	99
Es	-1.218250	-1.126931	0.389797	99
Es	3.018218	0.893184	-1.228788	99
Es	-1.040197	0.651820	0.682500	99
Es	-1.179626	-1.754553	-1.329969	99
Es	0.004763	0.242047	0.141755	99
45
Properties=species:S:1:pos:R:3:Z:I:1 energy=-341.1089840555504 field_type=dipole dipole="0.000000 0.000000 0.000000" charge=0
C	-0.917610	-2.021281	-0.675857	6
O	-1.218360	-1.127041	0.390173	8
C	-0.770460	0.200469	0.131233	6
C	-1.327661	1.098349	1.226583	6
C	0.745669	0.292289	0.157413	6
N	1.400079	0.728639	-0.872997	7
N	2.738949	0.733299	-0.689397	7
H	-1.397810	-2.980541	-0.461897	1
H	0.161549	-2.187571	-0.746857	1
H	-1.306311	-1.642501	-1.626327	1
H	-1.149151	0.541919	-0.839467	1
H	-1.010431	0.753709	2.217993	1
H	-2.422730	1.076569	1.219693	1
H	-0.995701	2.134369	1.102863	1
H	1.247300	-0.039321	1.086193	1
H	3.201149	0.962009	-1.573577	1
H	3.021529	1.476639	-0.045767	1
Es	-1.327640	1.098340	1.226561	99
Es	1.100623	0.811705	-0.309200	99
Es	-0.770457	0.200271	0.131335	99
Es	-1.040133	0.651740	0.682337	99
Es	1.082946	0.073549	0.789594	99
Es	-1.059163	-1.170870	0.465639	99
Es	1.249572	0.827090	-1.204856	99
Es	2.070443	0.743546	-0.764338	99
Es	-0.178181	-2.129689	-0.729235	99
Es	3.018670	0.893355	-1.228551	99
Es	-0.917661	-2.021134	-0.675688	99
Es	-1.179910	-1.754701	-1.329751	99
Es	-1.095326	1.798574	1.131906	99
Es	1.400370	0.728488	-0.872452	99
Es	0.745635	0.292329	0.157436	99
Es	-2.067651	1.085073	1.212494	99
Es	2.738662	0.733924	-0.689645	99
Es	2.823187	0.446456	-0.573158	99
Es	0.004844	0.242147	0.141860	99
Es	-1.100472	0.861411	1.897523	99
Es	-1.111206	-1.427655	-0.034801	99
Es	2.881296	1.171236	-0.306228	99
Es	-1.494251	-1.172161	0.573014	99
Es	-1.024914	0.431202	-0.536170	99
Es	1.133063	0.272054	-0.495840	99
Es	-1.218452	-1.126838	0.389629	99
Es	-1.246541	-2.676069	-0.528848	99
Es	-1.025900	-0.630323	0.255004	99
45
Properties=species:S:1:pos:R:3:Z:I:1 energy=-341.1089840555504 field_type=dipole dipole="0.000000 0.000000 0.000000" charge=0
C	-0.917610	-2.021281	-0.675857	6
O	-1.218360	-1.127041	0.390173	8
C	-0.770460	0.200469	0.131233	6
C	-1.327661	1.098349	1.226583	6
C	0.745669	0.292289	0.157413	6
N	1.400079	0.728639	-0.872997	7
N	2.738949	0.733299	-0.689397	7
H	-1.397810	-2.980541	-0.461897	1
H	0.161549	-2.187571	-0.746857	1
H	-1.306311	-1.642501	-1.626327	1
H	-1.149151	0.541919	-0.839467	1
H	-1.010431	0.753709	2.217993	1
H	-2.422730	1.076569	1.219693	1
H	-0.995701	2.134369	1.102863	1
H	1.247300	-0.039321	1.086193	1
H	3.201149	0.962009	-1.573577	1
H	3.021529	1.476639	-0.045767	1
Es	-0.770457	0.200275	0.131334	99
Es	3.018999	0.893010	-1.228655	99
Es	-1.179932	-1.754592	-1.329846	99
Es	-1.100389	0.861295	1.897676	99
Es	2.738712	0.733824	-0.689597	99
Es	2.881202	1.171059	-0.306457	99
Es	-1.108547	-1.429043	-0.033106	99
Es	1.100563	0.811526	-0.309360	99
Es	-1.040084	0.651885	0.682351	99
Es	-0.917661	-2.021138	-0.675691	99
Es	1.082975	0.073643	0.789718	99
Es	0.004858	0.242145	0.141871	99
Es	1.400349	0.728485	-0.872452	99
Es	2.823013	0.448202	-0.573338	99
Es	1.133219	0.272401	-0.495518	99
Es	-1.095230	1.798345	1.131830	99
Es	0.745635	0.292335	0.157437	99
Es	-1.217966	-1.126872	0.389627	99
Es	-0.178212	-2.129695	-0.729138	99
Es	2.070215	0.742342	-0.763527	99
Es	-1.246541	-2.676044	-0.528742	99
Es	1.249592	0.826874	-1.205420	99
Es	-1.492870	-1.173905	0.574816	99
Es	-1.327640	1.098341	1.226561	99
Es	-2.067786	1.085170	1.212245	99
Es	-1.024913	0.431241	-0.536228	99
Es	-1.063660	-1.167869	0.463199	99
Es	-1.025994	-0.630189	0.253979	99
45
Properties=species:S:1:pos:R:3:Z:I:1 energy=-341.1089840555504 field_type=dipole dipole="0.000000 0.000000 0.000000" charge=0
C	-0.917610	-2.021281	-0.675857	6
O	-1.218360	-1.127041	0.390173	8
C	-0.770460	0.200469	0.131233	6
C	-1.327661	1.098349	1.226583	6
C	0.745669	0.292289	0.157413	6
N	1.400079	0.728639	-0.872997	7
N	2.738949	0.733299	-0.689397	7
H	-1.397810	-2.980541	-0.461897	1
H	0.161549	-2.187571	-0.746857	1
H	-1.306311	-1.642501	-1.626327	1
H	-1.149151	0.541919	-0.839467	1
H	-1.010431	0.753709	2.217993	1
H	-2.422730	1.076569	1.219693	1
H	-0.995701	2.134369	1.102863	1
H	1.247300	-0.039321	1.086193	1
H	3.201149	0.962009	-1.573577	1
H	3.021529	1.476639	-0.045767	1
Es	-0.178084	-2.129632	-0.729184	99
Es	-1.180045	-1.754647	-1.329780	99
Es	2.881230	1.170304	-0.306639	99
Es	1.083056	0.073668	0.789634	99
Es	0.004851	0.242155	0.141870	99
Es	-1.065516	-1.166935	0.458205	99
Es	2.822851	0.448488	-0.573384	99
Es	2.738673	0.733793	-0.689633	99
Es	1.400351	0.728483	-0.872441	99
Es	0.745634	0.292333	0.157437	99
Es	-1.025740	-0.630360	0.253722	99
Es	-1.110950	-1.427763	-0.033355	99
Es	-1.100270	0.861278	1.897506	99
Es	-1.327639	1.098340	1.226561	99
Es	1.249283	0.827077	-1.204873	99
Es	1.100776	0.811140	-0.309339	99
Es	-0.917661	-2.021137	-0.675691	99
Es	-1.218056	-1.126962	0.389891	99
Es	2.070382	0.742594	-0.763870	99
Es	-1.039985	0.651891	0.682088	99
Es	-1.488851	-1.175829	0.580084	99
Es	-1.025007	0.431232	-0.536145	99
Es	1.133059	0.272485	-0.495669	99
Es	-2.067964	1.085267	1.212418	99
Es	-0.770458	0.200273	0.131334	99
Es	3.019291	0.893283	-1.228489	99
Es	-1.095222	1.798217	1.132033	99
Es	-1.246537	-2.675986	-0.528724	99
45
Properties=species:S:1:pos:R:3:Z:I:1 energy=-341.1089840555504 field_type=dipole dipole="0.000000 0.000000 0.000000" charge=0
C	-0.917610	-2.021281	-0.675857	6
O	-1.218360	-1.127041	0.390173	8
C	-0.770460	0.200469	0.131233	6
C	-1.327661	1.098349	1.226583	6
C	0.745669	0.292289	0.157413	6
N	1.400079	0.728639	-0.872997	7
N	2.738949	0.733299	-0.689397	7
H	-1.397810	-2.980541	-0.461897	1
H	0.161549	-2.187571	-0.746857	1
H	-1.306311	-1.642501	-1.626327	1
H	-1.149151	0.541919	-0.839467	1
H	-1.010431	0.753709	2.217993	1
H	-2.422730	1.076569	1.219693	1
H	-0.995701	2.134369	1.102863	1
H	1.247300	-0.039321	1.086193	1
H	3.201149	0.962009	-1.573577	1
H	3.021529	1.476639	-0.045767	1
Es	2.823213	0.448772	-0.572777	99
Es	1.400360	0.728486	-0.872449	99
Es	-1.095219	1.798059	1.131710	99
Es	2.880709	1.170393	-0.307594	99
Es	-1.025105	0.431204	-0.536100	99
Es	2.738674	0.733900	-0.689641	99
Es	0.745635	0.292326	0.157435	99
Es	1.249052	0.826983	-1.204802	99
Es	-1.039979	0.651849	0.682217	99
Es	-0.917661	-2.021137	-0.675691	99
Es	3.019476	0.893256	-1.228514	99
Es	-1.218392	-1.126889	0.389637	99
Es	-1.327639	1.098340	1.226561	99
Es	2.070341	0.742193	-0.763793	99
Es	-1.100146	0.861435	1.897689	99
Es	1.100874	0.810966	-0.309353	99
Es	0.004943	0.242305	0.141836	99
Es	-1.067842	-1.166025	0.455645	99
Es	-1.486951	-1.176687	0.582547	99
Es	-1.246734	-2.675841	-0.528568	99
Es	-0.178000	-2.129724	-0.729084	99
Es	-1.180034	-1.754595	-1.329804	99
Es	-0.770456	0.200274	0.131335	99
Es	-1.111022	-1.427656	-0.033977	99
Es	-2.068062	1.085220	1.212273	99
Es	1.133194	0.272546	-0.495480	99
Es	-1.024842	-0.630625	0.254608	99
Es	1.083066	0.073724	0.789702	99
45
Properties=species:S:1:pos:R:3:Z:I:1 energy=-341.1089840555504 field_type=dipole dipole="0.000000 0.000000 0.000000" charge=0
C	-0.917610	-2.021281	-0.675857	6
O	-1.218360	-1.127041	0.390173	8
C	-0.770460	0.200469	0.131233	6
C	-1.327661	1.098349	1.226583	6
C	0.745669	0.292289	0.157413	6
N	1.400079	0.728639	-0.872997	7
N	2.738949	0.733299	-0.689397	7
H	-1.397810	-2.980541	-0.461897	1
H	0.161549	-2.187571	-0.746857	1
H	-1.306311	-1.642501	-1.626327	1
H	-1.149151	0.541919	-0.839467	1
H	-1.010431	0.753709	2.217993	1
H	-2.422730	1.076569	1.219693	1
H	-0.995701	2.134369	1.102863	1
H	1.247300	-0.039321	1.086193	1
H	3.201149	0.962009	-1.573577	1
H	3.021529	1.476639	-0.045767	1
Es	2.822897	0.449458	-0.573299	99
Es	-1.327639	1.098340	1.226561	99
Es	0.745634	0.292328	0.157436	99
Es	3.019583	0.893356	-1.228533	99
Es	-1.039905	0.651864	0.681919	99
Es	0.004846	0.242266	0.142039	99
Es	-1.110561	-1.427674	-0.032365	99
Es	-0.178039	-2.129615	-0.729076	99
Es	-1.025041	0.431212	-0.536256	99
Es	-0.770457	0.200276	0.131335	99
Es	-1.218291	-1.126867	0.389564	99
Es	-1.095380	1.797974	1.131907	99
Es	-1.180066	-1.754565	-1.329815	99
Es	1.400366	0.728484	-0.872444	99
Es	-1.487454	-1.176856	0.582100	99
Es	-1.023723	-0.630813	0.253707	99
Es	-1.246629	-2.675923	-0.528568	99
Es	1.249120	0.826866	-1.205180	99
Es	2.880835	1.169951	-0.307471	99
Es	-1.069045	-1.165648	0.455499	99
Es	1.100866	0.811088	-0.309338	99
Es	1.133330	0.272592	-0.495259	99
Es	1.083071	0.073783	0.789651	99
Es	2.070180	0.741875	-0.763331	99
Es	-2.067964	1.085308	1.212298	99
Es	-0.917662	-2.021136	-0.675691	99
Es	-1.100137	0.861341	1.897762	99
Es	2.738717	0.733785	-0.689582	99
45
Properties=species:S:1:pos:R:3:Z:I:1 energy=-341.1089840555504 field_type=dipole dipole="0.000000 0.000000 0.000000" charge=0
C	-0.917610	-2.021281	-0.675857	6
O	-1.218360	-1.127041	0.390173	8
C	-0.770460	0.200469	0.131233	6
C	-1.327661	1.098349	1.226583	6
C	0.745669	0.292289	0.157413	6
N	1.400079	0.728639	-0.872997	7
N	2.738949	0.733299	-0.689397	7
H	-1.397810	-2.980541	-0.461897	1
H	0.161549	-2.187571	-0.746857	1
H	-1.306311	-1.642501	-1.626327	1
H	-1.149151	0.541919	-0.839467	1
H	-1.010431	0.753709	2.217993	1
H	-2.422730	1.076569	1.219693	1
H	-0.995701	2.134369	1.102863	1
H	1.247300	-0.039321	1.086193	1
H	3.201149	0.962009	-1.573577	1
H	3.021529	1.476639	-0.045767	1
Es	-1.486312	-1.177191	0.583620	99
Es	2.823453	0.450362	-0.572407	99
Es	1.133468	0.272839	-0.495135	99
Es	1.100904	0.810968	-0.309259	99
Es	-1.218311	-1.126896	0.389761	99
Es	-1.327640	1.098340	1.226561	99
Es	-1.039848	0.651919	0.682046	99
Es	-1.069418	-1.165319	0.454168	99
Es	-1.025088	0.431175	-0.536149	99
Es	-2.067989	1.085317	1.212128	99
Es	-1.100180	0.861387	1.897892	99
Es	0.004903	0.242290	0.141922	99
Es	-1.111068	-1.427597	-0.032714	99
Es	1.400355	0.728481	-0.872436	99
Es	3.019794	0.893248	-1.228571	99
Es	0.745634	0.292331	0.157438	99
Es	-0.770457	0.200276	0.131335	99
Es	-0.917661	-2.021139	-0.675692	99
Es	-1.246821	-2.675871	-0.528533	99
Es	2.070164	0.740895	-0.763031	99
Es	2.880124	1.170157	-0.308707	99
Es	1.083081	0.073834	0.789670	99
Es	-0.178018	-2.129645	-0.728986	99
Es	-1.095341	1.797891	1.131788	99
Es	-1.179965	-1.754455	-1.329793	99
Es	-1.023955	-0.630941	0.253585	99
Es	1.248962	0.826528	-1.205309	99
Es	2.738680	0.733868	-0.689622	99
45
Properties=species:S:1:pos:R:3:Z:I:1 energy=-341.1089840555504 field_type=dipole dipole="0.000000 0.000000 0.000000" charge=0
C	-0.917610	-2.021281	-0.675857	6
O	-1.218360	-1.127041	0.390173	8
C	-0.770460	0.200469	0.131233	6
C	-1.327661	1.098349	1.226583	6
C	0.745669	0.292289	0.157413	6
N	1.400079	0.728639	-0.872997	7
N	2.738949	0.733299	-0.689397	7
H	-1.397810	-2.980541	-0.461897	1