42
Properties=species:S:1:pos:R:3:Z:I:1 energy=-339.97884156480205 field_type=dipole dipole="0.000000 0.000000 0.000000" charge=0
N	-2.321711	-0.121833	0.999704	7
C	-1.136261	-0.118173	0.489704	6
C	-0.333190	-1.417163	0.400524	6
O	0.669310	-1.413503	-0.619546	8
C	1.461589	-0.221893	-0.554156	6
C	0.597809	1.022267	-0.794076	6
N	-0.553530	1.065197	0.094934	7
H	-2.683400	0.830327	0.942014	1
H	-1.001301	-2.261793	0.226854	1
H	0.163159	-1.571843	1.371004	1
H	1.967609	-0.174883	0.416364	1
H	2.227609	-0.289763	-1.331086	1
H	1.195809	1.932737	-0.673306	1
H	0.218469	1.006057	-1.822616	1
H	-0.471971	1.734257	0.853684	1
Es	1.982020	-0.263786	-1.084294	99
Es	1.461425	-0.222049	-0.554164	99
Es	1.006438	1.640224	-0.702459	99
Es	-0.491310	1.436962	0.559296	99
Es	1.028222	0.405778	-0.664769	99
Es	-0.001112	-1.499765	1.065977	99
Es	0.951988	-0.949216	-0.566193	99
Es	-1.964242	-0.163059	0.536267	99
Es	0.346116	1.004588	-1.496606	99
Es	-0.730308	-0.751126	0.416151	99
Es	-1.136108	-0.118098	0.489614	99
Es	-2.321394	-0.121473	0.999520	99
Es	-0.782126	-1.978150	0.280898	99
Es	0.855008	-1.647903	-0.552482	99
Es	-0.036228	1.025490	-0.254614	99
Es	0.597700	1.022253	-0.793937	99
Es	-2.506893	-0.407020	1.145865	99
Es	-1.717291	-0.066040	1.041531	99
Es	-0.794727	1.133623	-0.057679	99
Es	-0.333036	-1.417050	0.400364	99
Es	-2.528695	0.460414	0.971563	99
Es	0.669246	-1.413243	-0.619314	99
Es	0.295379	-1.375767	-0.221083	99
Es	-0.742967	0.534836	0.289116	99
Es	1.801711	-0.180949	0.122352	99
Es	-0.553067	1.064815	0.095343	99
Es	0.516758	-1.389848	-0.884717	99
42
Properties=species:S:1:pos:R:3:Z:I:1 energy=-339.97884156480205 field_type=dipole dipole="0.000000 0.000000 0.000000" charge=0
N	-2.321711	-0.121833	0.999704	7
C	-1.136261	-0.118173	0.489704	6
C	-0.333190	-1.417163	0.400524	6
O	0.669310	-1.413503	-0.619546	8
C	1.461589	-0.221893	-0.554156	6
C	0.597809	1.022267	-0.794076	6
N	-0.553530	1.065197	0.094934	7
H	-2.683400	0.830327	0.942014	1
H	-1.001301	-2.261793	0.226854	1
H	0.163159	-1.571843	1.371004	1
H	1.967609	-0.174883	0.416364	1
H	2.227609	-0.289763	-1.331086	1
H	1.195809	1.932737	-0.673306	1
H	0.218469	1.006057	-1.822616	1
H	-0.471971	1.734257	0.853684	1
Es	1.006629	1.640322	-0.703161	99
Es	-1.717568	-0.064427	1.041791	99
Es	0.954146	-0.949345	-0.567007	99
Es	1.028307	0.405802	-0.664364	99
Es	-2.321405	-0.121462	0.999518	99
Es	-0.730127	-0.751001	0.416683	99
Es	0.289658	-1.375827	-0.222341	99
Es	-2.528287	0.459345	0.970465	99
Es	-0.747518	0.534703	0.287467	99
Es	-0.001699	-1.499444	1.065162	99
Es	-0.790750	1.134791	-0.054718	99
Es	-0.035068	1.025450	-0.255061	99
Es	1.983654	-0.263687	-1.084748	99
Es	0.597698	1.022252	-0.793937	99
Es	-1.963180	-0.161137	0.537806	99
Es	0.523082	-1.390592	-0.880811	99
Es	-0.782419	-1.978428	0.281284	99
Es	0.346896	1.004472	-1.495657	99
Es	0.669273	-1.413205	-0.619247	99
Es	0.852666	-1.646867	-0.554150	99
Es	-1.136109	-0.118096	0.489616	99
Es	-0.492451	1.435285	0.558513	99
Es	-2.508497	-0.409276	1.145489	99
Es	-0.553102	1.064852	0.095303	99
Es	1.800296	-0.180939	0.121457	99
Es	1.461423	-0.222051	-0.554167	99
Es	-0.333039	-1.417050	0.400361	99
42
Properties=species:S:1:pos:R:3:Z:I:1 energy=-339.97884156480205 field_type=dipole dipole="0.000000 0.000000 0.000000" charge=0
N	-2.321711	-0.121833	0.999704	7
C	-1.136261	-0.118173	0.489704	6
C	-0.333190	-1.417163	0.400524	6
O	0.669310	-1.413503	-0.619546	8
C	1.461589	-0.221893	-0.554156	6
C	0.597809	1.022267	-0.794076	6
N	-0.553530	1.065197	0.094934	7
H	-2.683400	0.830327	0.942014	1
H	-1.001301	-2.261793	0.226854	1
H	0.163159	-1.571843	1.371004	1
H	1.967609	-0.174883	0.416364	1
H	2.227609	-0.289763	-1.331086	1
H	1.195809	1.932737	-0.673306	1
H	0.218469	1.006057	-1.822616	1
H	-0.471971	1.734257	0.853684	1
Es	0.669264	-1.413234	-0.619302	99
Es	-2.527394	0.458445	0.969379	99
Es	-0.782376	-1.978434	0.281483	99
Es	-0.002009	-1.499319	1.064835	99
Es	0.597699	1.022252	-0.793937	99
Es	-1.716908	-0.063552	1.042143	99
Es	0.956392	-0.950381	-0.566168	99
Es	-0.033484	1.025147	-0.253685	99
Es	-0.333040	-1.417051	0.400362	99
Es	-0.493371	1.433530	0.557709	99
Es	-0.787923	1.136521	-0.053847	99
Es	0.850872	-1.649055	-0.559320	99
Es	0.347374	1.004391	-1.495042	99
Es	-0.553058	1.064824	0.095342	99
Es	-0.730124	-0.750940	0.416955	99
Es	1.461423	-0.222052	-0.554166	99
Es	0.525367	-1.386512	-0.875923	99
Es	1.006732	1.640280	-0.703657	99
Es	-2.510195	-0.410087	1.145360	99
Es	0.287151	-1.376486	-0.222618	99
Es	1.799304	-0.180936	0.120701	99
Es	-1.963408	-0.160157	0.538796	99
Es	-0.751419	0.534647	0.285978	99
Es	1.984776	-0.263678	-1.084982	99
Es	-2.321386	-0.121435	0.999509	99
Es	1.028346	0.405809	-0.663985	99
Es	-1.136100	-0.118095	0.489627	99
42
Properties=species:S:1:pos:R:3:Z:I:1 energy=-339.97884156480205 field_type=dipole dipole="0.000000 0.000000 0.000000" charge=0
N	-2.321711	-0.121833	0.999704	7
C	-1.136261	-0.118173	0.489704	6
C	-0.333190	-1.417163	0.400524	6
O	0.669310	-1.413503	-0.619546	8
C	1.461589	-0.221893	-0.554156	6
C	0.597809	1.022267	-0.794076	6
N	-0.553530	1.065197	0.094934	7
H	-2.683400	0.830327	0.942014	1
H	-1.001301	-2.261793	0.226854	1
H	0.163159	-1.571843	1.371004	1
H	1.967609	-0.174883	0.416364	1
H	2.227609	-0.289763	-1.331086	1
H	1.195809	1.932737	-0.673306	1
H	0.218469	1.006057	-1.822616	1
H	-0.471971	1.734257	0.853684	1
Es	-0.782300	-1.978494	0.281733	99
Es	-2.321416	-0.121467	0.999531	99
Es	0.669276	-1.413308	-0.619357	99
Es	-2.527591	0.457733	0.969138	99
Es	1.798438	-0.180938	0.120143	99
Es	-0.787909	1.138174	-0.053230	99
Es	0.347822	1.004519	-1.494563	99
Es	1.006914	1.640168	-0.703842	99
Es	-0.730239	-0.750913	0.416989	99
Es	0.528047	-1.384980	-0.871766	99
Es	-1.136103	-0.118097	0.489621	99
Es	-0.333035	-1.417049	0.400357	99
Es	0.284522	-1.376030	-0.223811	99
Es	1.028266	0.405724	-0.663846	99
Es	0.597700	1.022252	-0.793935	99
Es	-2.510617	-0.410607	1.144510	99
Es	-0.492963	1.431210	0.557323	99
Es	-1.716714	-0.062893	1.043104	99
Es	-0.032947	1.024999	-0.253646	99
Es	-0.002308	-1.499088	1.064548	99
Es	0.849317	-1.650311	-0.561691	99
Es	-0.752699	0.535045	0.285592	99
Es	-1.963149	-0.159378	0.539085	99
Es	0.958115	-0.950933	-0.566569	99
Es	1.461424	-0.222050	-0.554166	99
Es	-0.553059	1.064837	0.095341	99
Es	1.985717	-0.263683	-1.085048	99
42
Properties=species:S:1:pos:R:3:Z:I:1 energy=-339.97884156480205 field_type=dipole dipole="0.000000 0.000000 0.000000" charge=0
N	-2.321711	-0.121833	0.999704	7
C	-1.136261	-0.118173	0.489704	6
C	-0.333190	-1.417163	0.400524	6
O	0.669310	-1.413503	-0.619546	8
C	1.461589	-0.221893	-0.554156	6
C	0.597809	1.022267	-0.794076	6
N	-0.553530	1.065197	0.094934	7
H	-2.683400	0.830327	0.942014	1
H	-1.001301	-2.261793	0.226854	1
H	0.163159	-1.571843	1.371004	1
H	1.967609	-0.174883	0.416364	1
H	2.227609	-0.289763	-1.331086	1
H	1.195809	1.932737	-0.673306	1
H	0.218469	1.006057	-1.822616	1
H	-0.471971	1.734257	0.853684	1
Es	-0.782323	-1.978388	0.281749	99
Es	1.797892	-0.180949	0.119664	99
Es	1.028427	0.405773	-0.663524	99
Es	-0.786704	1.141851	-0.052108	99
Es	-0.553015	1.064794	0.095412	99
Es	1.006828	1.640024	-0.704167	99
Es	-0.730189	-0.751007	0.417006	99
Es	1.986314	-0.263619	-1.085170	99
Es	-1.964074	-0.158831	0.539691	99
Es	-0.002517	-1.499005	1.064507	99
Es	-2.510989	-0.411015	1.144642	99
Es	-1.715750	-0.062371	1.042764	99
Es	-1.136107	-0.118097	0.489615	99
Es	-0.756079	0.535029	0.283225	99
Es	-0.491700	1.427495	0.557902	99
Es	0.529292	-1.380047	-0.866929	99
Es	-2.321403	-0.121458	0.999521	99
Es	1.461424	-0.222051	-0.554167	99
Es	-0.333039	-1.417050	0.400360	99
Es	0.348019	1.004453	-1.494314	99
Es	0.283116	-1.376320	-0.224224	99
Es	0.597702	1.022254	-0.793937	99
Es	0.669262	-1.413233	-0.619292	99
Es	-0.032242	1.024852	-0.252977	99
Es	0.847853	-1.653523	-0.567456	99
Es	0.959928	-0.952308	-0.565140	99
Es	-2.527418	0.457187	0.968893	99
42
Properties=species:S:1:pos:R:3:Z:I:1 energy=-339.97884156480205 field_type=dipole dipole="0.000000 0.000000 0.000000" charge=0
N	-2.321711	-0.121833	0.999704	7
C	-1.136261	-0.118173	0.489704	6
C	-0.333190	-1.417163	0.400524	6
O	0.669310	-1.413503	-0.619546	8
C	1.461589	-0.221893	-0.554156	6
C	0.597809	1.022267	-0.794076	6
N	-0.553530	1.065197	0.094934	7
H	-2.683400	0.830327	0.942014	1
H	-1.001301	-2.261793	0.226854	1
H	0.163159	-1.571843	1.371004	1
H	1.967609	-0.174883	0.416364	1
H	2.227609	-0.289763	-1.331086	1
H	1.195809	1.932737	-0.673306	1
H	0.218469	1.006057	-1.822616	1
H	-0.471971	1.734257	0.853684	1
Es	0.597701	1.022252	-0.793937	99
Es	1.461423	-0.222052	-0.554167	99
Es	-0.333038	-1.417049	0.400361	99
Es	0.669304	-1.413240	-0.619225	99
Es	-1.136103	-0.118097	0.489620	99
Es	-2.321387	-0.121466	0.999513	99
Es	-2.527249	0.456659	0.968534	99
Es	0.532316	-1.384877	-0.867958	99
Es	-0.031669	1.024732	-0.252283	99
Es	-1.715557	-0.061963	1.043385	99
Es	-0.553120	1.064918	0.095245	99
Es	1.797257	-0.181033	0.119104	99
Es	-0.002703	-1.498895	1.064185	99
Es	-0.730273	-0.750922	0.417123	99
Es	-0.755263	0.535514	0.284254	99
Es	-0.492756	1.427896	0.556855	99
Es	0.280580	-1.375228	-0.226184	99
Es	0.960692	-0.951950	-0.566639	99
Es	1.028514	0.405839	-0.663270	99
Es	0.846721	-1.650019	-0.562937	99
Es	1.987008	-0.263657	-1.085086	99
Es	0.348272	1.004457	-1.493971	99
Es	-1.964026	-0.158513	0.539858	99
Es	1.006760	1.639974	-0.704408	99
Es	-0.782231	-1.978473	0.281941	99
Es	-2.511538	-0.411096	1.144349	99
Es	-0.787127	1.140729	-0.052714	99
42
Properties=species:S:1:pos:R:3:Z:I:1 energy=-339.97884156480205 field_type=dipole dipole="0.000000 0.000000 0.000000" charge=0
N	-2.321711	-0.121833	0.999704	7
C	-1.136261	-0.118173	0.489704	6
C	-0.333190	-1.417163	0.400524	6
O	0.669310	-1.413503	-0.619546	8
C	1.461589	-0.221893	-0.554156	6
C	0.597809	1.022267	-0.794076	6
N	-0.553530	1.065197	0.094934	7
H	-2.683400	0.830327	0.942014	1
H	-1.001301	-2.261793	0.226854	1
H	0.163159	-1.571843	1.371004	1
H	1.967609	-0.174883	0.416364	1
H	2.227609	-0.289763	-1.331086	1
H	1.195809	1.932737	-0.673306	1
H	0.218469	1.006057	-1.822616	1
H	-0.471971	1.734257	0.853684	1
Es	-0.333037	-1.417049	0.400358	99
Es	-2.512071	-0.411236	1.143954	99
Es	-2.321403	-0.121457	0.999522	99
Es	-0.782150	-1.978393	0.281966	99
Es	-0.492272	1.426090	0.556618	99
Es	-1.715302	-0.061959	1.043557	99
Es	0.962944	-0.953623	-0.564959	99
Es	0.597701	1.022253	-0.793936	99
Es	-0.755937	0.535618	0.283941	99
Es	0.348490	1.004457	-1.493634	99
Es	1.987406	-0.263656	-1.085113	99
Es	-0.553049	1.064818	0.095361	99
Es	1.028667	0.405776	-0.663140	99
Es	0.532986	-1.381503	-0.865579	99
Es	-1.964219	-0.157979	0.540074	99
Es	-0.730385	-0.751038	0.417095	99
Es	1.461424	-0.222052	-0.554165	99
Es	-0.002854	-1.498841	1.064176	99
Es	-0.031497	1.024970	-0.252410	99
Es	1.006663	1.639910	-0.704668	99
Es	0.844754	-1.651500	-0.566542	99
Es	-0.787300	1.142065	-0.052193	99
Es	1.796882	-0.180998	0.118744	99
Es	-2.526885	0.456484	0.968582	99
Es	-1.136103	-0.118097	0.489617	99
Es	0.279798	-1.375397	-0.226411	99
Es	0.669257	-1.413223	-0.619267	99
42
Properties=species:S:1:pos:R:3:Z:I:1 energy=-339.97884156480205 field_type=dipole dipole="0.000000 0.000000 0.000000" charge=0
N	-2.321711	-0.121833	0.999704	7
C	-1.136261	-0.118173	0.489704	6
C	-0.333190	-1.417163	0.400524	6
O	0.669310	-1.413503	-0.619546	8
C	1.461589	-0.221893	-0.554156	6
C	0.597809	1.022267	-0.794076	6
N	-0.553530	1.065197	0.094934	7
H	-2.683400	0.830327	0.942014	1
H	-1.001301	-2.261793	0.226854	1
H	0.163159	-1.571843	1.371004	1
H	1.967609	-0.174883	0.416364	1
H	2.227609	-0.289763	-1.331086	1
H	1.195809	1.932737	-0.673306	1
H	0.218469	1.006057	-1.822616	1
H	-0.471971	1.734257	0.853684	1
Es	0.277980	-1.374532	-0.228034	99
Es	-0.490986	1.423473	0.556895	99
Es	-0.002960	-1.498956	1.063932	99
Es	-2.511920	-0.411113	1.144645	99
Es	0.844281	-1.650898	-0.565189	99
Es	0.597700	1.022252	-0.793934	99
Es	-0.787330	1.144764	-0.051707	99
Es	0.963301	-0.953371	-0.566173	99
Es	-2.526851	0.456210	0.968446	99
Es	1.796271	-0.180993	0.118356	99
Es	-0.333039	-1.417050	0.400360	99
Es	-0.730249	-0.750821	0.417302	99
Es	1.988029	-0.263708	-1.084939	99
Es	-0.553037	1.064808	0.095361	99
Es	-1.136106	-0.118099	0.489613	99
Es	1.461424	-0.222052	-0.554169	99
Es	-0.031361	1.024661	-0.252192	99
Es	-0.757509	0.535643	0.282919	99
Es	1.006650	1.639778	-0.704708	99
Es	-0.782188	-1.978311	0.282039	99
Es	-1.714619	-0.061549	1.043026	99
Es	1.028735	0.405902	-0.662944	99
Es	-1.965173	-0.158141	0.540105	99
Es	0.669241	-1.413259	-0.619335	99
Es	0.348671	1.004425	-1.493625	99
Es	-2.321406	-0.121457	0.999516	99
Es	0.534957	-1.383166	-0.864020	99
42
Properties=species:S:1:pos:R:3:Z:I:1 energy=-339.97884156480205 field_type=dipole dipole="0.000000 0.000000 0.000000" charge=0
N	-2.321711	-0.121833	0.999704	7
C	-1.136261	-0.118173	0.489704	6
C	-0.333190	-1.417163	0.400524	6
O	0.669310	-1.413503	-0.619546	8
C	1.461589	-0.221893	-0.554156	6
C	0.597809	1.022267	-0.794076	6
N	-0.553530	1.065197	0.094934	7
H	-2.683400	0.830327	0.942014	1
H	-1.001301	-2.261793	0.226854	1
H	0.163159	-1.571843	1.371004	1
H	1.967609	-0.174883	0.416364	1
H	2.227609	-0.289763	-1.331086	1
H	1.195809	1.932737	-0.673306	1
H	0.218469	1.006057	-1.822616	1
H	-0.471971	1.734257	0.853684	1
Es	-0.789071	1.145006	-0.052161	99
Es	-1.715334	-0.061579	1.044361	99
Es	-0.003074	-1.498767	1.063866	99
Es	-1.136104	-0.118099	0.489617	99
Es	-0.552995	1.064779	0.095402	99
Es	0.964194	-0.953449	-0.566718	99
Es	-2.321395	-0.121462	0.999522	99
Es	-0.756174	0.536107	0.283595	99
Es	0.597700	1.022253	-0.793935	99
Es	0.669311	-1.413256	-0.619291	99
Es	1.988193	-0.263675	-1.085013	99
Es	-0.490713	1.422478	0.556733	99
Es	1.461426	-0.222049	-0.554167	99
Es	-0.782274	-1.978348	0.282064	99
Es	-2.526461	0.456047	0.968152	99
Es	0.348783	1.004379	-1.493419	99
Es	0.535916	-1.382090	-0.860760	99
Es	-2.512680	-0.410927	1.144042	99
Es	0.843348	-1.651513	-0.567498	99
Es	1.796134	-0.181079	0.118118	99
Es	-0.031317	1.024799	-0.252292	99
Es	1.028754	0.405950	-0.662759	99
Es	-1.964172	-0.158035	0.539751	99
Es	-0.333040	-1.417050	0.400360	99
Es	0.277108	-1.374803	-0.228394	99
Es	1.006650	1.639759	-0.704869	99
Es	-0.730204	-0.750935	0.417241	99
42
Properties=species:S:1:pos:R:3:Z:I:1 energy=-339.97884156480205 field_type=dipole dipole="0.000000 0.000000 0.000000" charge=0
N	-2.321711	-0.121833	0.999704	7
C	-1.136261	-0.118173	0.489704	6
C	-0.333190	-1.417163	0.400524	6
O	0.669310	-1.413503	-0.619546	8
C	1.461589	-0.221893	-0.554156	6
C	0.597809	1.022267	-0.794076	6
N	-0.553530	1.065197	0.094934	7
H	-2.683400	0.830327	0.942014	1
H	-1.001301	-2.261793	0.226854	1
H	0.163159	-1.571843	1.371004	1
H	1.967609	-0.174883	0.416364	1
H	2.227609	-0.289763	-1.331086	1
H	1.195809	1.932737	-0.673306	1
H	0.218469	1.006057	-1.822616	1
H	-0.471971	1.734257	0.853684	1
Es	0.966136	-0.955002	-0.564995	99
Es	1.795785	-0.181007	0.117759	99
Es	-0.003080	-1.498745	1.063841	99
Es	-1.964744	-0.157907	0.539716	99
Es	-0.757340	0.536053	0.282679	99
Es	0.348896	1.004563	-1.493318	99
Es	0.669266	-1.413257	-0.619284	99
Es	-0.782198	-1.978293	0.282150	99
Es	1.988550	-0.263684	-1.084954	99
Es	0.276352	-1.374535	-0.229143	99
Es	-2.526963	0.455915	0.968541	99
Es	-0.490371	1.420763	0.556632	99
Es	1.006721	1.639609	-0.704821	99
Es	0.536483	-1.379943	-0.859782	99
Es	-0.552968	1.064741	0.095430	99
Es	-0.030973	1.024999	-0.252062	99
Es	0.597699	1.022251	-0.793935	99
Es	0.841592	-1.652368	-0.569370	99
Es	-1.715024	-0.061240	1.043775	99
Es	-0.333040	-1.417051	0.400359	99
Es	1.461424	-0.222050	-0.554167	99
Es	-2.321403	-0.121460	0.999520	99
Es	-0.730308	-0.750946	0.417335	99
Es	-2.511958	-0.411163	1.144327	99
Es	-1.136105	-0.118098	0.489614	99
Es	1.028735	0.405801	-0.662762	99
Es	-0.788655	1.146495	-0.051537	99
42
Properties=species:S:1:pos:R:3:Z:I:1 energy=-339.97884156480205 field_type=dipole dipole="0.000000 0.000000 0.000000" charge=0
N	-2.321711	-0.121833	0.999704	7
C	-1.136261	-0.118173	0.489704	6
C	-0.333190	-1.417163	0.400524	6
O	0.669310	-1.413503	-0.619546	8
C	1.461589	-0.221893	-0.554156	6
C	0.597809	1.022267	-0.794076	6
N	-0.553530	1.065197	0.094934	7
H	-2.683400	0.830327	0.942014	1
H	-1.001301	-2.261793	0.226854	1
H	0.163159	-1.571843	1.371004	1
H	1.967609	-0.174883	0.416364	1
H	2.227609	-0.289763	-1.331086	1
H	1.195809	1.932737	-0.673306	1
H	0.218469	1.006057	-1.822616	1
H	-0.471971	1.734257	0.853684	1
Es	1.006457	1.639475	-0.704960	99
Es	0.275533	-1.373918	-0.229994	99
Es	-2.526559	0.455441	0.967836	99
Es	0.669126	-1.413107	-0.619355	99
Es	-1.964608	-0.157779	0.540063	99
Es	1.028921	0.405797	-0.662588	99
Es	-0.553116	1.064919	0.095253	99
Es	-0.003263	-1.498832	1.063870	99
Es	1.461424	-0.222050	-0.554164	99
Es	-2.512706	-0.411194	1.144338	99
Es	-1.136105	-0.118099	0.489614	99
Es	-0.757629	0.536242	0.283039	99
Es	0.841230	-1.651512	-0.567933	99
Es	-0.787751	1.145200	-0.051606	99
Es	0.597700	1.022252	-0.793935	99
Es	-1.714862	-0.060769	1.044274	99
Es	-0.333040	-1.417050	0.400359	99
Es	-2.321388	-0.121456	0.999512	99
Es	0.349026	1.004599	-1.493229	99
Es	-0.491361	1.421738	0.555843	99
Es	0.537635	-1.381196	-0.860163	99
Es	-0.030553	1.024833	-0.251492	99
Es	1.795533	-0.181019	0.117577	99
Es	0.966575	-0.955329	-0.564999	99
Es	-0.730361	-0.750935	0.417252	99
Es	1.988807	-0.263688	-1.084922	99
Es	-0.782156	-1.978124	0.282058	99
42
Properties=species:S:1:pos:R:3:Z:I:1 energy=-339.97884156480205 field_type=dipole dipole="0.000000 0.000000 0.000000" charge=0
N	-2.321711	-0.121833	0.999704	7
C	-1.136261	-0.118173	0.489704	6
C	-0.333190	-1.417163	0.400524	6
O	0.669310	-1.413503	-0.619546	8
C	1.461589	-0.221893	-0.554156	6
C	0.597809	1.022267	-0.794076	6
N	-0.553530	1.065197	0.094934	7
H	-2.683400	0.830327	0.942014	1
H	-1.001301	-2.261793	0.226854	1
H	0.163159	-1.571843	1.371004	1
H	1.967609	-0.174883	0.416364	1
H	2.227609	-0.289763	-1.331086	1
H	1.195809	1.932737	-0.673306	1
H	0.218469	1.006057	-1.822616	1
H	-0.471971	1.734257	0.853684	1
Es	-0.782191	-1.978161	0.282149	99
Es	0.538108	-1.381654	-0.858284	99
Es	0.349112	1.004511	-1.493071	99
Es	0.275107	-1.373930	-0.230137	99
Es	0.966207	-0.954703	-0.566383	99
Es	-0.757618	0.536461	0.282739	99
Es	0.669331	-1.413234	-0.619186	99
Es	0.841300	-1.651463	-0.568452	99
Es	-2.526140	0.455170	0.968201	99
Es	-0.490000	1.419373	0.556321	99
Es	-1.136103	-0.118096	0.489618	99
Es	1.989068	-0.263740	-1.084834	99
Es	-1.714312	-0.060854	1.043987	99
Es	-0.730263	-0.750923	0.417322	99
Es	-0.553055	1.064816	0.095333	99
Es	-0.333036	-1.417049	0.400359	99
Es	1.795282	-0.181047	0.117344	99
Es	1.006519	1.639484	-0.705083	99
Es	1.461426	-0.222049	-0.554168	99
Es	-0.789102	1.147411	-0.051476	99
Es	-2.512919	-0.410944	1.144545	99
Es	1.028964	0.405851	-0.662489	99
Es	-2.321397	-0.121455	0.999519	99
Es	0.597701	1.022254	-0.793935	99
Es	-1.965429	-0.157582	0.539737	99
Es	-0.030718	1.024786	-0.251791	99
Es	-0.003335	-1.498791	1.063661	99
42
Properties=species:S:1:pos:R:3:Z:I:1 energy=-339.97884156480205 field_type=dipole dipole="0.000000 0.000000 0.000000" charge=0
N	-2.321711	-0.121833	0.999704	7
C	-1.136261	-0.118173	0.489704	6
C	-0.333190	-1.417163	0.400524	6
O	0.669310	-1.413503	-0.619546	8
C	1.461589	-0.221893	-0.554156	6
C	0.597809	1.022267	-0.794076	6
N	-0.553530	1.065197	0.094934	7
H	-2.683400	0.830327	0.942014	1
H	-1.001301	-2.261793	0.226854	1
H	0.163159	-1.571843	1.371004	1
H	1.967609	-0.174883	0.416364	1
H	2.227609	-0.289763	-1.331086	1
H	1.195809	1.932737	-0.673306	1
H	0.218469	1.006057	-1.822616	1
H	-0.471971	1.734257	0.853684	1
Es	1.989276	-0.263697	-1.084860	99
Es	1.006327	1.639439	-0.705238	99
Es	-0.490141	1.418724	0.556249	99
Es	0.966817	-0.955126	-0.566297	99
Es	0.537480	-1.380118	-0.857156	99
Es	-0.003452	-1.498860	1.063679	99
Es	-0.333038	-1.417049	0.400359	99
Es	-0.030235	1.024481	-0.250917	99
Es	-0.759065	0.536462	0.281784	99
Es	0.275807	-1.374234	-0.229224	99
Es	-1.136105	-0.118097	0.489616	99
Es	-2.526373	0.455224	0.968031	99
Es	1.029171	0.405857	-0.662391	99
Es	-1.714392	-0.060817	1.044428	99
Es	1.795063	-0.180985	0.117211	99
Es	-2.512939	-0.411051	1.144103	99
Es	-0.782093	-1.978032	0.282110	99
Es	0.349191	1.004440	-1.492998	99
Es	-0.787979	1.148138	-0.051304	99
Es	0.597699	1.022253	-0.793934	99
Es	1.461424	-0.222051	-0.554166	99
Es	-0.553122	1.064849	0.095300	99
Es	0.669244	-1.413232	-0.619280	99
Es	-2.321391	-0.121456	0.999514	99
Es	-1.965141	-0.157499	0.539991	99
Es	0.840831	-1.652214	-0.570354	99
Es	-0.730359	-0.750908	0.417291	99
42
Properties=species:S:1:pos:R:3:Z:I:1 energy=-339.97884156480205 field_type=dipole dipole="0.000000 0.000000 0.000000" charge=0
N	-2.321711	-0.121833	0.999704	7
C	-1.136261	-0.118173	0.489704	6
C	-0.333190	-1.417163	0.400524	6
O	0.669310	-1.413503	-0.619546	8
C	1.461589	-0.221893	-0.554156	6
C	0.597809	1.022267	-0.794076	6
N	-0.553530	1.065197	0.094934	7
H	-2.683400	0.830327	0.942014	1
H	-1.001301	-2.261793	0.226854	1
H	0.163159	-1.571843	1.371004	1
H	1.967609	-0.174883	0.416364	1
H	2.227609	-0.289763	-1.331086	1
H	1.195809	1.932737	-0.673306	1
H	0.218469	1.006057	-1.822616	1
H	-0.471971	1.734257	0.853684	1
Es	0.597701	1.022252	-0.793936	99
Es	-0.489820	1.418112	0.555949	99
Es	-0.758432	0.536697	0.282395	99
Es	0.968526	-0.956542	-0.564938	99
Es	0.349306	1.004568	-1.492963	99
Es	-2.321384	-0.121455	0.999507	99
Es	-1.965853	-0.157284	0.540185	99
Es	-2.513393	-0.410938	1.144371	99
Es	0.839248	-1.652966	-0.572785	99
Es	-2.525815	0.455063	0.968080	99
Es	1.461425	-0.222050	-0.554167	99
Es	-0.003457	-1.498729	1.063661	99
Es	0.669300	-1.413278	-0.619289	99
Es	-1.713800	-0.060938	1.043997	99
Es	1.029157	0.405834	-0.662381	99
Es	0.538099	-1.377859	-0.855523	99
Es	-0.788969	1.148348	-0.051259	99
Es	-1.136105	-0.118097	0.489615	99
Es	1.006304	1.639363	-0.705150	99
Es	1.989484	-0.263725	-1.084773	99
Es	-0.730460	-0.750929	0.417107	99
Es	-0.553024	1.064822	0.095380	99
Es	-0.030399	1.024572	-0.251405	99
Es	-0.333039	-1.417050	0.400358	99
Es	0.275050	-1.374289	-0.229753	99
Es	-0.781997	-1.978092	0.282209	99
Es	1.794855	-0.180969	0.117054	99
42
Properties=species:S:1:pos:R:3:Z:I:1 energy=-339.97884156480205 field_type=dipole dipole="0.000000 0.000000 0.000000" charge=0
N	-2.321711	-0.121833	0.999704	7
C	-1.136261	-0.118173	0.489704	6
C	-0.333190	-1.417163	0.400524	6
O	0.669310	-1.413503	-0.619546	8
C	1.461589	-0.221893	-0.554156	6
C	0.597809	1.022267	-0.794076	6
N	-0.553530	1.065197	0.094934	7
H	-2.683400	0.830327	0.942014	1
H	-1.001301	-2.261793	0.226854	1
H	0.163159	-1.571843	1.371004	1
H	1.967609	-0.174883	0.416364	1
H	2.227609	-0.289763	-1.331086	1
H	1.195809	1.932737	-0.673306	1
H	0.218469	1.006057	-1.822616	1
H	-0.471971	1.734257	0.853684	1
Es	-0.333039	-1.417049	0.400358	99
Es	-1.965674	-0.157538	0.539912	99
Es	0.349319	1.004556	-1.492904	99
Es	0.838194	-1.651777	-0.571840	99
Es	-0.553029	1.064805	0.095370	99
Es	-1.714067	-0.060358	1.044086	99
Es	1.989640	-0.263712	-1.084775	99
Es	-0.489376	1.417084	0.555786	99
Es	1.006191	1.639307	-0.705264	99
Es	-0.030385	1.024711	-0.251472	99
Es	-0.003475	-1.498840	1.063710	99
Es	-1.136102	-0.118096	0.489615	99
Es	0.669292	-1.413239	-0.619234	99
Es	-0.730470	-0.750961	0.417121	99
Es	-0.759688	0.536407	0.281820	99
Es	1.794698	-0.180994	0.116932	99
Es	0.969527	-0.956612	-0.564951	99
Es	-2.511750	-0.411139	1.144361	99
Es	-0.781968	-1.977935	0.282183	99
Es	1.029308	0.405799	-0.662271	99
Es	-0.788194	1.149492	-0.050437	99
Es	0.539279	-1.378980	-0.855248	99
Es	0.273918	-1.374254	-0.231055	99
Es	-2.321391	-0.121461	0.999519	99
Es	0.597700	1.022253	-0.793933	99
Es	-2.527374	0.455026	0.968325	99
Es	1.461424	-0.222051	-0.554168	99
42
Properties=species:S:1:pos:R:3:Z:I:1 energy=-339.97884156480205 field_type=dipole dipole="0.000000 0.000000 0.000000" charge=0
N	-2.321711	-0.121833	0.999704	7
C	-1.136261	-0.118173	0.489704	6
C	-0.333190	-1.417163	0.400524	6
O	0.669310	-1.413503	-0.619546	8
C	1.461589	-0.221893	-0.554156	6
C	0.597809	1.022267	-0.794076	6
N	-0.553530	1.065197	0.094934	7
H	-2.683400	0.830327	0.942014	1
H	-1.001301	-2.261793	0.226854	1
H	0.163159	-1.571843	1.371004	1
H	1.967609	-0.174883	0.416364	1
H	2.227609	-0.289763	-1.331086	1
H	1.195809	1.932737	-0.673306	1
H	0.218469	1.006057	-1.822616	1
H	-0.471971	1.734257	0.853684	1
Es	0.539883	-1.381302	-0.856295	99
Es	-0.730484	-0.750911	0.417159	99
Es	0.273528	-1.373592	-0.231419	99
Es	1.006124	1.639190	-0.705292	99
Es	-0.030183	1.024622	-0.251039	99
Es	1.461424	-0.222051	-0.554167	99
Es	-0.553001	1.064729	0.095428	99
Es	-0.489628	1.416998	0.555741	99
Es	0.349423	1.004681	-1.492781	99
Es	1.029294	0.405907	-0.662165	99
Es	-0.788316	1.149472	-0.050792	99
Es	0.669428	-1.413273	-0.619085	99
Es	-0.781925	-1.977946	0.282233	99
Es	-0.003579	-1.498835	1.063565	99
Es	0.597700	1.022253	-0.793935	99
Es	-1.714574	-0.060479	1.045058	99
Es	0.969325	-0.956469	-0.565898	99
Es	-1.136106	-0.118098	0.489614	99
Es	-2.526305	0.454895	0.967953	99
Es	1.989897	-0.263756	-1.084601	99
Es	-2.321391	-0.121450	0.999515	99
Es	-0.333040	-1.417050	0.400357	99
Es	-1.964888	-0.157378	0.539736	99
Es	1.794475	-0.181102	0.116566	99
Es	0.838188	-1.650250	-0.569567	99
Es	-2.513099	-0.410977	1.144030	99
Es	-0.759665	0.536611	0.281627	99
42
Properties=species:S:1:pos:R:3:Z:I:1 energy=-339.97884156480205 field_type=dipole dipole="0.000000 0.000000 0.000000" charge=0
N	-2.321711	-0.121833	0.999704	7
C	-1.136261	-0.118173	0.489704	6
C	-0.333190	-1.417163	0.400524	6
O	0.669310	-1.413503	-0.619546	8
C	1.461589	-0.221893	-0.554156	6
C	0.597809	1.022267	-0.794076	6
N	-0.553530	1.065197	0.094934	7
H	-2.683400	0.830327	0.942014	1
H	-1.001301	-2.261793	0.226854	1
H	0.163159	-1.571843	1.371004	1
H	1.967609	-0.174883	0.416364	1
H	2.227609	-0.289763	-1.331086	1
H	1.195809	1.932737	-0.673306	1
H	0.218469	1.006057	-1.822616	1
H	-0.471971	1.734257	0.853684	1
Es	-1.965759	-0.157620	0.539901	99
Es	0.273106	-1.373339	-0.231893	99
Es	0.969415	-0.956666	-0.565998	99
Es	-0.030130	1.024613	-0.251041	99
Es	-0.788667	1.149657	-0.050754	99
Es	-0.489459	1.416451	0.556066	99
Es	-2.525155	0.454798	0.967502	99
Es	-0.759458	0.536786	0.281377	99
Es	-2.321388	-0.121456	0.999512	99
Es	0.597699	1.022252	-0.793934	99
Es	1.006064	1.639220	-0.705423	99
Es	1.461423	-0.222052	-0.554159	99
Es	-0.003579	-1.498737	1.063471	99
Es	0.838305	-1.650603	-0.569485	99
Es	-0.553073	1.064839	0.095311	99
Es	-2.514044	-0.410460	1.144933	99
Es	1.029367	0.405950	-0.662025	99
Es	1.990049	-0.263765	-1.084555	99
Es	0.540254	-1.380895	-0.855453	99
Es	1.794329	-0.181098	0.116389	99
Es	-1.713955	-0.060565	1.044452	99
Es	-0.333039	-1.417049	0.400357	99
Es	-0.781803	-1.978012	0.282367	99
Es	-1.136106	-0.118097	0.489616	99
Es	0.349453	1.004557	-1.492716	99
Es	0.669258	-1.413385	-0.619422	99
Es	-0.730600	-0.750881	0.417150	99
42
Properties=species:S:1:pos:R:3:Z:I:1 energy=-339.97884156480205 field_type=dipole dipole="0.000000 0.000000 0.000000" charge=0
N	-2.321711	-0.121833	0.999704	7
C	-1.136261	-0.118173	0.489704	6
C	-0.333190	-1.417163	0.400524	6
O	0.669310	-1.413503	-0.619546	8
C	1.461589	-0.221893	-0.554156	6
C	0.597809	1.022267	-0.794076	6
N	-0.553530	1.065197	0.094934	7
H	-2.683400	0.830327	0.942014	1
H	-1.001301	-2.261793	0.226854	1
H	0.163159	-1.571843	1.371004	1
H	1.967609	-0.174883	0.416364	1
H	2.227609	-0.289763	-1.331086	1
H	1.195809	1.932737	-0.673306	1
H	0.218469	1.006057	-1.822616	1
H	-0.471971	1.734257	0.853684	1
Es	-0.003672	-1.498795	1.063563	99
Es	-0.788713	1.149246	-0.050978	99
Es	-0.759360	0.536872	0.282193	99
Es	-2.321391	-0.121449	0.999511	99
Es	1.990063	-0.263766	-1.084584	99
Es	0.273495	-1.373643	-0.231236	99
Es	-0.730498	-0.750951	0.417117	99
Es	-1.136104	-0.118096	0.489614	99
Es	0.971722	-0.958208	-0.564873	99
Es	-2.525943	0.454748	0.967966	99
Es	1.461425	-0.222050	-0.554168	99
Es	0.539849	-1.378184	-0.853680	99
Es	0.597699	1.022254	-0.793934	99
Es	-1.966018	-0.157504	0.539782	99
Es	-1.713809	-0.060439	1.044275	99
Es	-0.030006	1.024560	-0.250866	99
Es	0.669271	-1.413307	-0.619350	99
Es	1.006079	1.639104	-0.705374	99
Es	-0.489761	1.416842	0.555230	99
Es	-0.333039	-1.417050	0.400358	99
Es	0.836096	-1.651514	-0.572985	99
Es	-0.553021	1.064804	0.095364	99
Es	1.794303	-0.181046	0.116419	99
Es	-2.513169	-0.410641	1.144755	99
Es	1.029369	0.405832	-0.662138	99
Es	-0.781860	-1.977873	0.282251	99
Es	0.349502	1.004697	-1.492687	99
42
Properties=species:S:1:pos:R:3:Z:I:1 energy=-339.97884156480205 field_type=dipole dipole="0.000000 0.000000 0.000000" charge=0
N	-2.321711	-0.121833	0.999704	7
C	-1.136261	-0.118173	0.489704	6
C	-0.333190	-1.417163	0.400524	6
O	0.669310	-1.413503	-0.619546	8
C	1.461589	-0.221893	-0.554156	6
C	0.597809	1.022267	-0.794076	6
N	-0.553530	1.065197	0.094934	7
H	-2.683400	0.830327	0.942014	1
H	-1.001301	-2.261793	0.226854	1
H	0.163159	-1.571843	1.371004	1
H	1.967609	-0.174883	0.416364	1
H	2.227609	-0.289763	-1.331086	1
H	1.195809	1.932737	-0.673306	1
H	0.218469	1.006057	-1.822616	1
H	-0.471971	1.734257	0.853684	1
Es	-1.136105	-0.118098	0.489613	99
Es	1.990228	-0.263750	-1.084540	99
Es	1.461425	-0.222050	-0.554168	99
Es	1.029294	0.405890	-0.661985	99
Es	-0.553074	1.064890	0.095305	99
Es	0.597700	1.022252	-0.793935	99
Es	-2.513000	-0.410729	1.144563	99
Es	-0.030033	1.024536	-0.250967	99
Es	-1.714162	-0.060186	1.044827	99
Es	-0.781896	-1.977752	0.282189	99
Es	-2.526187	0.454584	0.968033	99
Es	-2.321391	-0.121453	0.999513	99
Es	0.273318	-1.373834	-0.231325	99
Es	-0.761459	0.536667	0.280012	99
Es	-1.965556	-0.157463	0.539485	99
Es	0.540038	-1.376679	-0.851939	99
Es	1.794134	-0.181041	0.116247	99
Es	1.006114	1.639162	-0.705462	99
Es	-0.488064	1.413481	0.556219	99
Es	0.836653	-1.652983	-0.574910	99
Es	0.669252	-1.413247	-0.619300	99
Es	-0.730484	-0.750943	0.417116	99
Es	0.971232	-0.958095	-0.564643	99
Es	-0.003688	-1.498903	1.063586	99
Es	0.349519	1.004536	-1.492663	99
Es	-0.788262	1.152700	-0.049685	99
Es	-0.333038	-1.417050	0.400358	99
42
Properties=species:S:1:pos:R:3:Z:I:1 energy=-339.97884156480205 field_type=dipole dipole="0.000000 0.000000 0.000000" charge=0
N	-2.321711	-0.121833	0.999704	7
C	-1.136261	-0.118173	0.489704	6
C	-0.333190	-1.417163	0.400524	6
O	0.669310	-1.413503	-0.619546	8
C	1.461589	-0.221893	-0.554156	6
C	0.597809	1.022267	-0.794076	6
N	-0.553530	1.065197	0.094934	7
H	-2.683400	0.830327	0.942014	1
H	-1.001301	-2.261793	0.226854	1
H	0.163159	-1.571843	1.371004	1
H	1.967609	-0.174883	0.416364	1