39
Properties=species:S:1:pos:R:3:Z:I:1 energy=-338.82068942921364 field_type=dipole dipole="0.000000 0.000000 0.000000" charge=0
N	-2.591467	-0.037895	0.015948	7
C	-1.306227	-0.050945	0.008168	6
N	-0.557157	-1.179625	0.020098	7
C	0.799423	-1.220125	0.014868	6
C	1.499963	-0.086775	-0.006142	6
C	0.781183	1.225295	-0.024592	6
O	-0.666937	1.141755	-0.013112	8
H	-2.857937	0.953215	0.003388	1
H	-1.073827	-2.049155	0.036618	1
H	1.252303	-2.205675	0.028698	1
H	2.583753	-0.094165	-0.010612	1
H	1.074473	1.817705	0.847888	1
H	1.062453	1.786395	-0.921222	1
Es	0.799180	-1.220234	0.014873	99
Es	-0.850454	0.653968	-0.008953	99
Es	-2.812578	-0.327220	0.020915	99
Es	-2.093967	-0.036562	0.297202	99
Es	1.499968	-0.086667	-0.006132	99
Es	1.090828	-1.888925	0.024340	99
Es	1.180964	-0.630932	-0.325769	99
Es	2.227884	-0.076983	-0.009378	99
Es	0.780924	1.225199	-0.024584	99
Es	-0.557042	-1.179209	0.021488	99
Es	-0.771582	1.246258	-0.261431	99
Es	-0.129658	1.112835	-0.017646	99
Es	-0.666734	1.141401	-0.013152	99
Es	1.129171	0.562614	-0.015167	99
Es	-1.305863	-0.050870	0.008165	99
Es	0.982442	1.620601	0.568825	99
Es	-0.762175	1.237148	0.239030	99
Es	0.974252	1.599204	-0.634261	99
Es	-0.864209	-0.674032	0.043251	99
Es	-2.095799	-0.044617	-0.271195	99
Es	0.030814	-1.187487	0.039807	99
Es	1.184202	-0.620407	0.333240	99
Es	-0.540037	-1.109866	-0.044579	99
Es	-2.743276	0.555513	0.008675	99
Es	-0.857549	-1.693449	0.040803	99
Es	-2.591088	-0.037557	0.015945	99
39
Properties=species:S:1:pos:R:3:Z:I:1 energy=-338.82068942921364 field_type=dipole dipole="0.000000 0.000000 0.000000" charge=0
N	-2.591467	-0.037895	0.015948	7
C	-1.306227	-0.050945	0.008168	6
N	-0.557157	-1.179625	0.020098	7
C	0.799423	-1.220125	0.014868	6
C	1.499963	-0.086775	-0.006142	6
C	0.781183	1.225295	-0.024592	6
O	-0.666937	1.141755	-0.013112	8
H	-2.857937	0.953215	0.003388	1
H	-1.073827	-2.049155	0.036618	1
H	1.252303	-2.205675	0.028698	1
H	2.583753	-0.094165	-0.010612	1
H	1.074473	1.817705	0.847888	1
H	1.062453	1.786395	-0.921222	1
Es	-1.305860	-0.050875	0.008142	99
Es	-0.759715	1.235406	0.228323	99
Es	-2.591094	-0.037541	0.015933	99
Es	-0.125915	1.117229	-0.018469	99
Es	0.974362	1.599114	-0.633618	99
Es	1.090962	-1.888153	0.024305	99
Es	0.982511	1.620619	0.568127	99
Es	0.032395	-1.186966	0.021830	99
Es	-2.817569	-0.333088	0.021021	99
Es	-0.859291	-1.693662	0.031223	99
Es	0.780925	1.225197	-0.024588	99
Es	2.230087	-0.077145	-0.009416	99
Es	-0.539878	-1.111105	0.002734	99
Es	-0.771786	1.245425	-0.252721	99
Es	1.129246	0.561589	-0.015091	99
Es	-0.865263	-0.673767	0.022439	99
Es	1.183446	-0.619877	0.331504	99
Es	-0.556879	-1.178552	0.022354	99
Es	-0.666736	1.141422	-0.013122	99
Es	0.799179	-1.220234	0.014871	99
Es	1.499967	-0.086668	-0.006139	99
Es	-2.091890	-0.033832	0.292520	99
Es	-0.856755	0.652042	-0.006173	99
Es	-2.739074	0.554715	0.008685	99
Es	1.180612	-0.630450	-0.323849	99
Es	-2.097368	-0.041117	-0.266515	99
39
Properties=species:S:1:pos:R:3:Z:I:1 energy=-338.82068942921364 field_type=dipole dipole="0.000000 0.000000 0.000000" charge=0
N	-2.591467	-0.037895	0.015948	7
C	-1.306227	-0.050945	0.008168	6
N	-0.557157	-1.179625	0.020098	7
C	0.799423	-1.220125	0.014868	6
C	1.499963	-0.086775	-0.006142	6
C	0.781183	1.225295	-0.024592	6
O	-0.666937	1.141755	-0.013112	8
H	-2.857937	0.953215	0.003388	1
H	-1.073827	-2.049155	0.036618	1
H	1.252303	-2.205675	0.028698	1
H	2.583753	-0.094165	-0.010612	1
H	1.074473	1.817705	0.847888	1
H	1.062453	1.786395	-0.921222	1
Es	-0.860229	-1.693357	0.029600	99
Es	-0.757502	1.213893	-0.252116	99
Es	0.799175	-1.220236	0.014865	99
Es	0.032345	-1.186595	0.017425	99
Es	1.499970	-0.086665	-0.006140	99
Es	-0.557130	-1.179535	0.019520	99
Es	-2.097161	-0.039882	-0.263966	99
Es	1.183061	-0.619584	0.330160	99
Es	1.180593	-0.630291	-0.322310	99
Es	2.231281	-0.077182	-0.009536	99
Es	-0.124106	1.120496	-0.014016	99
Es	-2.092187	-0.032239	0.290110	99
Es	0.982405	1.620213	0.567605	99
Es	-0.772500	1.263897	0.214232	99
Es	-2.820474	-0.335544	0.021287	99
Es	-1.305857	-0.050870	0.008166	99
Es	-0.865070	-0.674611	0.010991	99
Es	1.091190	-1.887606	0.024583	99
Es	-0.666744	1.141405	-0.013032	99
Es	1.129203	0.560837	-0.015444	99
Es	-0.539460	-1.109917	0.023041	99
Es	-0.860209	0.651825	0.002789	99
Es	-2.736257	0.554094	0.008188	99
Es	0.780923	1.225198	-0.024586	99
Es	-2.591084	-0.037545	0.015951	99
Es	0.974441	1.599525	-0.633057	99
39
Properties=species:S:1:pos:R:3:Z:I:1 energy=-338.82068942921364 field_type=dipole dipole="0.000000 0.000000 0.000000" charge=0
N	-2.591467	-0.037895	0.015948	7
C	-1.306227	-0.050945	0.008168	6
N	-0.557157	-1.179625	0.020098	7
C	0.799423	-1.220125	0.014868	6
C	1.499963	-0.086775	-0.006142	6
C	0.781183	1.225295	-0.024592	6
O	-0.666937	1.141755	-0.013112	8
H	-2.857937	0.953215	0.003388	1
H	-1.073827	-2.049155	0.036618	1
H	1.252303	-2.205675	0.028698	1
H	2.583753	-0.094165	-0.010612	1
H	1.074473	1.817705	0.847888	1
H	1.062453	1.786395	-0.921222	1
Es	1.499967	-0.086669	-0.006139	99
Es	1.183563	-0.619906	0.335171	99
Es	0.983741	1.619903	0.569794	99
Es	-0.673066	1.100804	-0.008190	99
Es	-0.864222	-0.676052	0.000736	99
Es	-1.305861	-0.050870	0.008164	99
Es	-2.093320	-0.031639	0.295916	99
Es	-2.591082	-0.037552	0.015936	99
Es	-0.838407	1.401803	-0.042070	99
Es	1.088942	-1.885200	0.023897	99
Es	-0.861434	-1.692738	0.023029	99
Es	-0.672681	1.108403	0.018820	99
Es	-0.539591	-1.110547	0.054868	99
Es	-2.733583	0.548150	0.009198	99
Es	2.231149	-0.075522	-0.009394	99
Es	1.129071	0.560741	-0.014937	99
Es	-2.824013	-0.331056	0.022035	99
Es	-0.120933	1.126865	-0.019235	99
Es	-2.095528	-0.039437	-0.271230	99
Es	0.799180	-1.220233	0.014871	99
Es	0.032187	-1.186704	0.004481	99
Es	0.975385	1.598003	-0.635025	99
Es	0.780924	1.225197	-0.024590	99
Es	-0.875493	0.652620	-0.011532	99
Es	-0.556761	-1.178087	0.017212	99
Es	1.180489	-0.630555	-0.327473	99
39
Properties=species:S:1:pos:R:3:Z:I:1 energy=-338.82068942921364 field_type=dipole dipole="0.000000 0.000000 0.000000" charge=0
N	-2.591467	-0.037895	0.015948	7
C	-1.306227	-0.050945	0.008168	6
N	-0.557157	-1.179625	0.020098	7
C	0.799423	-1.220125	0.014868	6
C	1.499963	-0.086775	-0.006142	6
C	0.781183	1.225295	-0.024592	6
O	-0.666937	1.141755	-0.013112	8
H	-2.857937	0.953215	0.003388	1
H	-1.073827	-2.049155	0.036618	1
H	1.252303	-2.205675	0.028698	1
H	2.583753	-0.094165	-0.010612	1
H	1.074473	1.817705	0.847888	1
H	1.062453	1.786395	-0.921222	1
Es	-2.823384	-0.338016	0.020809	99
Es	-0.785445	1.295359	0.190456	99
Es	1.180573	-0.630071	-0.320586	99
Es	-0.861150	-1.692821	0.031713	99
Es	1.091364	-1.886888	0.025016	99
Es	-1.305854	-0.050871	0.008163	99
Es	-0.864699	-0.675811	0.005648	99
Es	0.032321	-1.186119	0.019740	99
Es	1.129610	0.559664	-0.015835	99
Es	1.182450	-0.619002	0.328687	99
Es	-0.122369	1.124645	-0.011368	99
Es	2.232638	-0.077200	-0.009488	99
Es	-2.091864	-0.030213	0.288372	99
Es	1.499969	-0.086663	-0.006148	99
Es	0.799176	-1.220236	0.014872	99
Es	-2.591083	-0.037556	0.015937	99
Es	-0.867000	0.652412	0.010628	99
Es	-2.733319	0.552796	0.007001	99
Es	-0.666712	1.141387	-0.013020	99
Es	0.982067	1.620019	0.566533	99
Es	-0.549715	-1.150358	0.008992	99
Es	0.780916	1.225196	-0.024595	99
Es	-0.546907	-1.138965	0.034657	99
Es	0.974437	1.599855	-0.632355	99
Es	-2.097716	-0.038337	-0.260686	99
Es	-0.739686	1.177519	-0.238830	99
39
Properties=species:S:1:pos:R:3:Z:I:1 energy=-338.82068942921364 field_type=dipole dipole="0.000000 0.000000 0.000000" charge=0
N	-2.591467	-0.037895	0.015948	7
C	-1.306227	-0.050945	0.008168	6
N	-0.557157	-1.179625	0.020098	7
C	0.799423	-1.220125	0.014868	6
C	1.499963	-0.086775	-0.006142	6
C	0.781183	1.225295	-0.024592	6
O	-0.666937	1.141755	-0.013112	8
H	-2.857937	0.953215	0.003388	1
H	-1.073827	-2.049155	0.036618	1
H	1.252303	-2.205675	0.028698	1
H	2.583753	-0.094165	-0.010612	1
H	1.074473	1.817705	0.847888	1
H	1.062453	1.786395	-0.921222	1
Es	0.974656	1.599924	-0.632481	99
Es	1.180910	-0.629950	-0.320932	99
Es	-0.555888	-1.174607	0.025676	99
Es	-0.726475	1.149993	-0.226553	99
Es	-2.731737	0.551714	0.006552	99
Es	-0.540738	-1.114609	0.013859	99
Es	-2.100558	-0.038124	-0.260822	99
Es	0.981976	1.619822	0.566287	99
Es	-0.864374	-0.676200	0.004090	99
Es	-0.666777	1.141167	-0.012814	99
Es	-0.121965	1.125607	-0.009200	99
Es	1.129746	0.559180	-0.015585	99
Es	1.091061	-1.886310	0.025458	99
Es	-2.825072	-0.337741	0.021492	99
Es	2.233007	-0.076961	-0.009555	99
Es	-2.591097	-0.037548	0.015950	99
Es	-0.861724	-1.692392	0.033871	99
Es	-1.305854	-0.050869	0.008168	99
Es	0.799177	-1.220236	0.014871	99
Es	-0.796619	1.320760	0.169892	99
Es	0.780920	1.225197	-0.024590	99
Es	1.182119	-0.619167	0.328728	99
Es	0.032318	-1.186138	0.023415	99
Es	1.499972	-0.086661	-0.006139	99
Es	-0.869340	0.653644	0.016554	99
Es	-2.089024	-0.029773	0.288120	99
39
Properties=species:S:1:pos:R:3:Z:I:1 energy=-338.82068942921364 field_type=dipole dipole="0.000000 0.000000 0.000000" charge=0
N	-2.591467	-0.037895	0.015948	7
C	-1.306227	-0.050945	0.008168	6
N	-0.557157	-1.179625	0.020098	7
C	0.799423	-1.220125	0.014868	6
C	1.499963	-0.086775	-0.006142	6
C	0.781183	1.225295	-0.024592	6
O	-0.666937	1.141755	-0.013112	8
H	-2.857937	0.953215	0.003388	1
H	-1.073827	-2.049155	0.036618	1
H	1.252303	-2.205675	0.028698	1
H	2.583753	-0.094165	-0.010612	1
H	1.074473	1.817705	0.847888	1
H	1.062453	1.786395	-0.921222	1
Es	-0.121955	1.126115	-0.025786	99
Es	-0.807012	1.335042	-0.179556	99
Es	1.129746	0.559055	-0.014272	99
Es	-0.539951	-1.109766	0.011111	99
Es	-0.557028	-1.179131	0.018400	99
Es	0.973926	1.597911	-0.631863	99
Es	-0.713699	1.134480	0.187059	99
Es	1.179113	-0.629649	-0.321322	99
Es	-2.591073	-0.037561	0.015932	99
Es	0.780920	1.225198	-0.024587	99
Es	1.090836	-1.885947	0.023117	99
Es	1.183820	-0.619468	0.328736	99
Es	-1.305855	-0.050869	0.008158	99
Es	-2.092420	-0.037994	-0.263614	99
Es	-0.863704	-0.676606	0.030282	99
Es	0.032372	-1.185981	0.014269	99
Es	-0.666714	1.141363	-0.013002	99
Es	0.799175	-1.220236	0.014871	99
Es	-2.097079	-0.029479	0.286812	99
Es	-0.862278	-1.692304	0.026088	99
Es	-2.826896	-0.336915	0.023246	99
Es	0.983079	1.621599	0.567129	99
Es	2.233240	-0.076814	-0.009584	99
Es	1.499973	-0.086661	-0.006140	99
Es	-0.871809	0.653961	-0.030917	99
Es	-2.730107	0.550381	0.009743	99
39
Properties=species:S:1:pos:R:3:Z:I:1 energy=-338.82068942921364 field_type=dipole dipole="0.000000 0.000000 0.000000" charge=0
N	-2.591467	-0.037895	0.015948	7
C	-1.306227	-0.050945	0.008168	6
N	-0.557157	-1.179625	0.020098	7
C	0.799423	-1.220125	0.014868	6
C	1.499963	-0.086775	-0.006142	6
C	0.781183	1.225295	-0.024592	6
O	-0.666937	1.141755	-0.013112	8
H	-2.857937	0.953215	0.003388	1
H	-1.073827	-2.049155	0.036618	1
H	1.252303	-2.205675	0.028698	1
H	2.583753	-0.094165	-0.010612	1
H	1.074473	1.817705	0.847888	1
H	1.062453	1.786395	-0.921222	1
Es	1.088634	-1.883908	0.024829	99
Es	1.499972	-0.086665	-0.006141	99
Es	1.180843	-0.630644	-0.326083	99
Es	0.780914	1.225194	-0.024592	99
Es	1.129281	0.559406	-0.015658	99
Es	-0.862655	-0.678256	-0.011569	99
Es	-0.540845	-1.109223	0.053028	99
Es	-0.675003	1.110476	-0.058745	99
Es	2.232705	-0.075379	-0.009451	99
Es	-2.829180	-0.331892	0.020947	99
Es	0.032671	-1.186809	0.013754	99
Es	-2.591078	-0.037555	0.015941	99
Es	0.983571	1.619335	0.569098	99
Es	-0.120597	1.128032	-0.013290	99
Es	-2.091860	-0.029713	0.295534	99
Es	-0.832043	1.393048	0.050688	99
Es	-1.305856	-0.050870	0.008168	99
Es	-2.096954	-0.038257	-0.268132	99
Es	-0.556706	-1.177784	0.017070	99
Es	-2.728689	0.545578	0.007178	99
Es	-0.863046	-1.691769	0.028479	99
Es	0.975728	1.598442	-0.634813	99
Es	-0.878018	0.654247	0.002735	99
Es	-0.675043	1.104340	-0.043559	99
Es	1.182698	-0.619415	0.334027	99
Es	0.799177	-1.220234	0.014870	99
39
Properties=species:S:1:pos:R:3:Z:I:1 energy=-338.82068942921364 field_type=dipole dipole="0.000000 0.000000 0.000000" charge=0
N	-2.591467	-0.037895	0.015948	7
C	-1.306227	-0.050945	0.008168	6
N	-0.557157	-1.179625	0.020098	7
C	0.799423	-1.220125	0.014868	6
C	1.499963	-0.086775	-0.006142	6
C	0.781183	1.225295	-0.024592	6
O	-0.666937	1.141755	-0.013112	8
H	-2.857937	0.953215	0.003388	1
H	-1.073827	-2.049155	0.036618	1
H	1.252303	-2.205675	0.028698	1
H	2.583753	-0.094165	-0.010612	1
H	1.074473	1.817705	0.847888	1
H	1.062453	1.786395	-0.921222	1
Es	-2.727969	0.548219	0.006261	99
Es	1.181828	-0.618930	0.329520	99
Es	2.233611	-0.076257	-0.009187	99
Es	-2.090976	-0.029032	0.290656	99
Es	-0.813910	1.359831	0.121426	99
Es	1.181165	-0.630273	-0.321729	99
Es	-0.557137	-1.179571	0.020330	99
Es	-2.591113	-0.037544	0.015939	99
Es	1.090298	-1.885092	0.025641	99
Es	0.975198	1.599962	-0.632909	99
Es	0.982188	1.619226	0.566607	99
Es	-1.305855	-0.050869	0.008167	99
Es	0.032408	-1.185912	0.022899	99
Es	-0.862875	-1.691783	0.033325	99
Es	-2.829299	-0.335982	0.019959	99
Es	-0.666826	1.141282	-0.013033	99
Es	0.799174	-1.220239	0.014879	99
Es	-0.539796	-1.108809	0.027351	99
Es	0.780921	1.225197	-0.024591	99
Es	-0.863518	-0.677549	-0.002924	99
Es	1.499971	-0.086662	-0.006153	99
Es	1.129791	0.558337	-0.015918	99
Es	-0.874205	0.655837	0.023706	99
Es	-0.704567	1.106116	-0.187109	99
Es	-0.121510	1.127582	-0.007162	99
Es	-2.098377	-0.037360	-0.261640	99
39
Properties=species:S:1:pos:R:3:Z:I:1 energy=-338.82068942921364 field_type=dipole dipole="0.000000 0.000000 0.000000" charge=0
N	-2.591467	-0.037895	0.015948	7
C	-1.306227	-0.050945	0.008168	6
N	-0.557157	-1.179625	0.020098	7
C	0.799423	-1.220125	0.014868	6
C	1.499963	-0.086775	-0.006142	6
C	0.781183	1.225295	-0.024592	6
O	-0.666937	1.141755	-0.013112	8
H	-2.857937	0.953215	0.003388	1
H	-1.073827	-2.049155	0.036618	1
H	1.252303	-2.205675	0.028698	1
H	2.583753	-0.094165	-0.010612	1
H	1.074473	1.817705	0.847888	1
H	1.062453	1.786395	-0.921222	1
Es	0.982180	1.619080	0.566536	99
Es	1.181204	-0.630096	-0.321600	99
Es	0.032372	-1.185925	0.023998	99
Es	-2.087753	-0.029037	0.289475	99
Es	0.780915	1.225197	-0.024589	99
Es	1.090320	-1.884821	0.025675	99
Es	-2.591079	-0.037562	0.015941	99
Es	0.975202	1.600103	-0.632798	99
Es	-2.830268	-0.335659	0.021354	99
Es	1.499972	-0.086663	-0.006142	99
Es	-0.815586	1.362362	0.116148	99
Es	-2.101612	-0.037394	-0.262107	99
Es	-0.550037	-1.150477	0.034111	99
Es	1.129837	0.558292	-0.015959	99
Es	-0.121243	1.127966	-0.007110	99
Es	0.799174	-1.220236	0.014865	99
Es	-2.727023	0.547870	0.006547	99
Es	2.233696	-0.076227	-0.009333	99
Es	1.181756	-0.618973	0.329462	99
Es	-1.305855	-0.050869	0.008167	99
Es	-0.666723	1.141227	-0.012681	99
Es	-0.863080	-1.691572	0.034958	99
Es	-0.875438	0.655883	0.020440	99
Es	-0.546832	-1.138180	0.010066	99
Es	-0.863419	-0.677715	-0.002160	99
Es	-0.702061	1.103147	-0.178950	99
39
Properties=species:S:1:pos:R:3:Z:I:1 energy=-338.82068942921364 field_type=dipole dipole="0.000000 0.000000 0.000000" charge=0
N	-2.591467	-0.037895	0.015948	7
C	-1.306227	-0.050945	0.008168	6
N	-0.557157	-1.179625	0.020098	7
C	0.799423	-1.220125	0.014868	6
C	1.499963	-0.086775	-0.006142	6
C	0.781183	1.225295	-0.024592	6
O	-0.666937	1.141755	-0.013112	8
H	-2.857937	0.953215	0.003388	1
H	-1.073827	-2.049155	0.036618	1
H	1.252303	-2.205675	0.028698	1
H	2.583753	-0.094165	-0.010612	1
H	1.074473	1.817705	0.847888	1
H	1.062453	1.786395	-0.921222	1
Es	-2.591083	-0.037546	0.015942	99
Es	1.129882	0.558177	-0.015871	99
Es	1.182175	-0.618784	0.330179	99
Es	-2.726185	0.546489	0.006122	99
Es	1.089858	-1.884418	0.025417	99
Es	0.032459	-1.185953	0.023320	99
Es	-0.697971	1.093742	-0.166441	99
Es	1.180867	-0.630442	-0.321992	99
Es	-2.087569	-0.028521	0.290560	99
Es	-0.121100	1.128248	-0.007511	99
Es	-0.876256	0.656670	0.023591	99
Es	-0.818961	1.370382	0.101330	99
Es	1.499971	-0.086662	-0.006147	99
Es	-0.556704	-1.177818	0.023445	99
Es	0.982366	1.619158	0.566778	99
Es	-0.863509	-1.691433	0.033208	99
Es	2.233813	-0.076166	-0.009426	99
Es	-0.540154	-1.110608	0.022171	99
Es	0.799175	-1.220236	0.014869	99
Es	0.975326	1.599803	-0.633074	99
Es	-2.831316	-0.334759	0.021493	99
Es	0.780917	1.225195	-0.024588	99
Es	-2.101659	-0.037406	-0.262941	99
Es	-0.863174	-0.677876	-0.001163	99
Es	-1.305854	-0.050869	0.008163	99
Es	-0.666695	1.141358	-0.013123	99
39
Properties=species:S:1:pos:R:3:Z:I:1 energy=-338.82068942921364 field_type=dipole dipole="0.000000 0.000000 0.000000" charge=0
N	-2.591467	-0.037895	0.015948	7
C	-1.306227	-0.050945	0.008168	6
N	-0.557157	-1.179625	0.020098	7
C	0.799423	-1.220125	0.014868	6
C	1.499963	-0.086775	-0.006142	6
C	0.781183	1.225295	-0.024592	6
O	-0.666937	1.141755	-0.013112	8
H	-2.857937	0.953215	0.003388	1
H	-1.073827	-2.049155	0.036618	1
H	1.252303	-2.205675	0.028698	1
H	2.583753	-0.094165	-0.010612	1
H	1.074473	1.817705	0.847888	1
H	1.062453	1.786395	-0.921222	1
Es	1.179079	-0.629515	-0.321977	99
Es	-0.820258	1.366577	-0.132925	99
Es	0.983487	1.621218	0.567457	99
Es	-2.725518	0.546244	0.009932	99
Es	-2.591081	-0.037551	0.015940	99
Es	-0.862705	-0.677743	0.034406	99
Es	0.032448	-1.186111	0.014486	99
Es	-0.556760	-1.178032	0.022831	99
Es	0.974160	1.597785	-0.631971	99
Es	-1.305855	-0.050870	0.008160	99
Es	1.089960	-1.884436	0.022929	99
Es	-0.877222	0.655874	-0.031103	99
Es	-2.831951	-0.334766	0.021967	99
Es	0.780918	1.225196	-0.024591	99
Es	-0.121169	1.127835	-0.025475	99
Es	0.799176	-1.220235	0.014871	99
Es	1.183849	-0.619654	0.329507	99
Es	-0.540538	-1.110265	0.001418	99
Es	1.499973	-0.086661	-0.006146	99
Es	-0.666692	1.141336	-0.012940	99
Es	-0.695706	1.098816	0.140362	99
Es	2.233953	-0.076077	-0.009597	99
Es	-2.089617	-0.036861	-0.264228	99
Es	-0.863603	-1.691446	0.026954	99
Es	-2.099647	-0.028879	0.288498	99
Es	1.129937	0.557944	-0.014450	99
39
Properties=species:S:1:pos:R:3:Z:I:1 energy=-338.82068942921364 field_type=dipole dipole="0.000000 0.000000 0.000000" charge=0
N	-2.591467	-0.037895	0.015948	7
C	-1.306227	-0.050945	0.008168	6
N	-0.557157	-1.179625	0.020098	7
C	0.799423	-1.220125	0.014868	6
C	1.499963	-0.086775	-0.006142	6
C	0.781183	1.225295	-0.024592	6
O	-0.666937	1.141755	-0.013112	8
H	-2.857937	0.953215	0.003388	1
H	-1.073827	-2.049155	0.036618	1
H	1.252303	-2.205675	0.028698	1
H	2.583753	-0.094165	-0.010612	1
H	1.074473	1.817705	0.847888	1
H	1.062453	1.786395	-0.921222	1
Es	-2.725045	0.545455	0.006192	99
Es	-2.591085	-0.037551	0.015945	99
Es	-2.099763	-0.037100	-0.262938	99
Es	-0.821030	1.375152	0.090681	99
Es	-2.089438	-0.028359	0.291353	99
Es	-1.305855	-0.050869	0.008166	99
Es	1.182034	-0.618952	0.330186	99
Es	-0.863769	-1.691138	0.033558	99
Es	-0.694377	1.088811	-0.154122	99
Es	-0.877857	0.656988	0.021389	99
Es	1.499972	-0.086664	-0.006145	99
Es	0.975407	1.599698	-0.633074	99
Es	0.780923	1.225199	-0.024583	99
Es	0.032523	-1.185900	0.022948	99
Es	-0.863081	-0.678322	-0.001848	99
Es	1.129904	0.557904	-0.015870	99
Es	-2.832532	-0.334286	0.020642	99
Es	0.982407	1.619134	0.566767	99
Es	1.181079	-0.630349	-0.322046	99
Es	-0.120983	1.128255	-0.007675	99
Es	0.799177	-1.220235	0.014867	99
Es	-0.666740	1.141094	-0.012453	99
Es	2.234003	-0.076014	-0.009348	99
Es	-0.557135	-1.179560	0.019688	99
Es	-0.539784	-1.108692	0.026634	99
Es	1.089664	-1.883974	0.025401	99
39
Properties=species:S:1:pos:R:3:Z:I:1 energy=-338.82068942921364 field_type=dipole dipole="0.000000 0.000000 0.000000" charge=0
N	-2.591467	-0.037895	0.015948	7
C	-1.306227	-0.050945	0.008168	6
N	-0.557157	-1.179625	0.020098	7
C	0.799423	-1.220125	0.014868	6
C	1.499963	-0.086775	-0.006142	6
C	0.781183	1.225295	-0.024592	6
O	-0.666937	1.141755	-0.013112	8
H	-2.857937	0.953215	0.003388	1
H	-1.073827	-2.049155	0.036618	1
H	1.252303	-2.205675	0.028698	1
H	2.583753	-0.094165	-0.010612	1
H	1.074473	1.817705	0.847888	1
H	1.062453	1.786395	-0.921222	1
Es	-2.833034	-0.333993	0.022764	99
Es	1.499972	-0.086664	-0.006145	99
Es	-0.823665	1.375270	-0.113244	99
Es	0.799175	-1.220236	0.014870	99
Es	-0.666903	1.140169	-0.014294	99
Es	0.780916	1.225195	-0.024585	99
Es	1.130038	0.557650	-0.014546	99
Es	-0.862783	-0.677890	0.030882	99
Es	1.183632	-0.619859	0.330177	99
Es	-0.690380	1.089938	0.121646	99
Es	-0.121023	1.128423	-0.025582	99
Es	-1.305855	-0.050870	0.008161	99
Es	-0.551716	-1.157893	0.028684	99
Es	0.032453	-1.185999	0.013027	99
Es	-2.092961	-0.036531	-0.265735	99
Es	2.234051	-0.075826	-0.009614	99
Es	0.974340	1.597790	-0.632228	99
Es	1.089482	-1.883856	0.023076	99
Es	-2.096267	-0.028991	0.288793	99
Es	-0.863916	-1.691258	0.026864	99
Es	-2.724520	0.545243	0.010292	99
Es	-0.545326	-1.130628	0.000782	99
Es	-0.878974	0.656477	-0.030660	99
Es	0.983567	1.621024	0.567620	99
Es	-2.591084	-0.037554	0.015941	99
Es	1.179400	-0.629406	-0.322631	99
39
Properties=species:S:1:pos:R:3:Z:I:1 energy=-338.82068942921364 field_type=dipole dipole="0.000000 0.000000 0.000000" charge=0
N	-2.591467	-0.037895	0.015948	7
C	-1.306227	-0.050945	0.008168	6
N	-0.557157	-1.179625	0.020098	7
C	0.799423	-1.220125	0.014868	6
C	1.499963	-0.086775	-0.006142	6
C	0.781183	1.225295	-0.024592	6
O	-0.666937	1.141755	-0.013112	8
H	-2.857937	0.953215	0.003388	1
H	-1.073827	-2.049155	0.036618	1
H	1.252303	-2.205675	0.028698	1
H	2.583753	-0.094165	-0.010612	1
H	1.074473	1.817705	0.847888	1
H	1.062453	1.786395	-0.921222	1
Es	-1.305855	-0.050870	0.008165	99
Es	1.089613	-1.883806	0.022857	99
Es	-2.096394	-0.028924	0.288693	99
Es	-0.691284	1.090913	0.122889	99
Es	1.179108	-0.629513	-0.322085	99
Es	0.799175	-1.220236	0.014869	99
Es	1.183907	-0.619734	0.329783	99
Es	-2.092855	-0.036196	-0.265627	99
Es	0.780911	1.225196	-0.024588	99
Es	0.032411	-1.186123	0.011079	99
Es	-0.539887	-1.108856	0.010445	99
Es	-0.864153	-1.691064	0.026711	99
Es	2.234172	-0.076047	-0.009678	99
Es	1.499972	-0.086663	-0.006141	99
Es	-2.591052	-0.037562	0.015939	99
Es	-0.557127	-1.179516	0.020649	99
Es	-0.120896	1.128210	-0.024421	99
Es	0.974127	1.597842	-0.631783	99
Es	-2.724132	0.544818	0.010466	99
Es	0.983596	1.621068	0.567566	99
Es	1.130140	0.557634	-0.014708	99
Es	-0.879578	0.656604	-0.029149	99
Es	-0.862597	-0.678001	0.031185	99
Es	-2.833467	-0.333957	0.022626	99
Es	-0.822494	1.373288	-0.118026	99
Es	-0.666743	1.141217	-0.013403	99
39
Properties=species:S:1:pos:R:3:Z:I:1 energy=-338.82068942921364 field_type=dipole dipole="0.000000 0.000000 0.000000" charge=0
N	-2.591467	-0.037895	0.015948	7
C	-1.306227	-0.050945	0.008168	6
N	-0.557157	-1.179625	0.020098	7
C	0.799423	-1.220125	0.014868	6
C	1.499963	-0.086775	-0.006142	6
C	0.781183	1.225295	-0.024592	6
O	-0.666937	1.141755	-0.013112	8
H	-2.857937	0.953215	0.003388	1
H	-1.073827	-2.049155	0.036618	1
H	1.252303	-2.205675	0.028698	1
H	2.583753	-0.094165	-0.010612	1
H	1.074473	1.817705	0.847888	1
H	1.062453	1.786395	-0.921222	1
Es	-0.690114	1.088775	0.116626	99
Es	-2.591084	-0.037551	0.015938	99
Es	-0.666815	1.141386	-0.012246	99
Es	-2.097273	-0.028618	0.288805	99
Es	0.974278	1.597617	-0.632056	99
Es	-0.540003	-1.108688	0.007785	99
Es	1.179241	-0.629494	-0.322201	99
Es	0.032457	-1.186048	0.013127	99
Es	0.780917	1.225195	-0.024588	99
Es	-0.864210	-1.691023	0.026814	99
Es	-2.091971	-0.036536	-0.265558	99
Es	1.129957	0.557657	-0.014336	99
Es	-0.862514	-0.678075	0.032065	99
Es	-0.823063	1.375122	-0.113734	99
Es	-1.305854	-0.050869	0.008164	99
Es	-2.723686	0.544557	0.010051	99
Es	0.799175	-1.220236	0.014873	99
Es	-0.120854	1.128120	-0.024270	99
Es	1.499974	-0.086664	-0.006144	99
Es	1.183968	-0.619903	0.329718	99
Es	-2.833904	-0.333718	0.022883	99
Es	0.983618	1.621158	0.567528	99
Es	1.089421	-1.883646	0.022941	99
Es	-0.880145	0.656776	-0.028480	99
Es	-0.557138	-1.179571	0.020319	99
Es	2.234241	-0.075999	-0.009709	99
39
Properties=species:S:1:pos:R:3:Z:I:1 energy=-338.82068942921364 field_type=dipole dipole="0.000000 0.000000 0.000000" charge=0
N	-2.591467	-0.037895	0.015948	7
C	-1.306227	-0.050945	0.008168	6
N	-0.557157	-1.179625	0.020098	7
C	0.799423	-1.220125	0.014868	6
C	1.499963	-0.086775	-0.006142	6
C	0.781183	1.225295	-0.024592	6
O	-0.666937	1.141755	-0.013112	8
H	-2.857937	0.953215	0.003388	1
H	-1.073827	-2.049155	0.036618	1
H	1.252303	-2.205675	0.028698	1
H	2.583753	-0.094165	-0.010612	1
H	1.074473	1.817705	0.847888	1
H	1.062453	1.786395	-0.921222	1
Es	-0.546910	-1.138761	0.008105	99
Es	1.129740	0.557978	-0.015564	99
Es	-2.093050	-0.028709	0.293972	99
Es	-0.675052	1.092612	-0.045752	99
Es	1.182745	-0.619488	0.333272	99
Es	-0.863030	-0.677827	0.008786	99
Es	-0.120323	1.129130	-0.013575	99
Es	-0.882141	0.656366	-0.000507	99
Es	0.780929	1.225199	-0.024585	99
Es	-2.095822	-0.037133	-0.267789	99
Es	-2.723439	0.542415	0.008003	99
Es	-2.834555	-0.330987	0.021448	99
Es	0.032723	-1.186209	0.018951	99
Es	-0.549764	-1.149947	0.033996	99
Es	-0.864290	-1.690913	0.030800	99
Es	0.983687	1.619267	0.568702	99
Es	-1.305856	-0.050870	0.008165	99
Es	0.799175	-1.220237	0.014871	99
Es	0.975693	1.598395	-0.634187	99
Es	1.088062	-1.882521	0.024548	99
Es	-0.832614	1.396626	0.007569	99
Es	-2.591065	-0.037555	0.015950	99
Es	1.180651	-0.630435	-0.325459	99
Es	1.499968	-0.086663	-0.006145	99
Es	-0.670609	1.115084	-0.009902	99
Es	2.233764	-0.075094	-0.009358	99
