39
Properties=species:S:1:pos:R:3:Z:I:1 energy=-338.7687433164367 field_type=dipole dipole="0.000000 0.000000 0.000000" charge=0
N	-0.436966	-1.743425	-1.015956	7
C	-0.899356	-1.024285	0.174134	6
C	-0.275166	0.329715	0.261754	6
N	-0.990046	1.366065	0.726104	7
O	-0.139466	2.456305	0.698154	8
C	1.073895	2.069315	0.237794	6
C	1.049425	0.730345	-0.045876	6
H	-0.956836	-2.616635	-1.087696	1
H	0.538274	-2.006005	-0.890686	1
H	-0.652476	-1.603105	1.071174	1
H	-1.990556	-0.934025	0.126364	1
H	1.820844	2.845845	0.175314	1
H	1.858425	0.129895	-0.430576	1
Es	-0.476672	-1.550252	-1.306227	99
Es	-0.585932	0.885083	0.790687	99
Es	-0.572071	-0.335132	0.212343	99
Es	-1.340097	1.424039	0.849352	99
Es	-0.436892	-1.743736	-1.015461	99
Es	-0.275201	0.329716	0.261782	99
Es	0.150969	-1.908036	-0.918462	99
Es	1.073689	2.069476	0.237893	99
Es	-0.625639	-1.441314	-0.481034	99
Es	-0.183194	2.689798	0.892793	99
Es	-0.106416	2.441540	0.432852	99
Es	1.049424	0.730320	-0.045887	99
Es	-0.749083	1.007350	0.263713	99
Es	-0.745439	-2.274307	-1.035316	99
Es	-0.139194	2.455794	0.698147	99
Es	0.334730	2.278308	0.616074	99
Es	1.588847	0.320158	-0.301324	99
Es	0.948840	1.366144	-0.205881	99
Es	0.405873	0.471014	0.091264	99
Es	-1.630817	-0.959044	0.142590	99
Es	-0.989424	1.366042	0.725909	99
Es	1.129081	1.243001	0.375683	99
Es	-0.463417	1.980100	0.715741	99
Es	-0.722677	-1.403524	0.792914	99
Es	1.574265	2.583996	0.195518	99
Es	-0.899243	-1.024282	0.174014	99
39
Properties=species:S:1:pos:R:3:Z:I:1 energy=-338.7687433164367 field_type=dipole dipole="0.000000 0.000000 0.000000" charge=0
N	-0.436966	-1.743425	-1.015956	7
C	-0.899356	-1.024285	0.174134	6
C	-0.275166	0.329715	0.261754	6
N	-0.990046	1.366065	0.726104	7
O	-0.139466	2.456305	0.698154	8
C	1.073895	2.069315	0.237794	6
C	1.049425	0.730345	-0.045876	6
H	-0.956836	-2.616635	-1.087696	1
H	0.538274	-2.006005	-0.890686	1
H	-0.652476	-1.603105	1.071174	1
H	-1.990556	-0.934025	0.126364	1
H	1.820844	2.845845	0.175314	1
H	1.858425	0.129895	-0.430576	1
Es	0.153427	-1.903061	-0.923060	99
Es	-0.989418	1.366041	0.725908	99
Es	-0.275200	0.329712	0.261780	99
Es	-0.139267	2.455837	0.698080	99
Es	0.951141	1.369476	-0.201427	99
Es	-0.571497	-0.334027	0.213989	99
Es	-0.749189	-2.277946	-1.039297	99
Es	-0.723921	-1.402460	0.789523	99
Es	0.403291	0.472240	0.091892	99
Es	-0.041123	2.348676	0.691631	99
Es	1.575014	2.584842	0.194487	99
Es	1.073690	2.069475	0.237893	99
Es	1.125081	1.243364	0.373746	99
Es	-0.583767	0.882459	0.785224	99
Es	-0.474064	-1.560307	-1.293713	99
Es	1.589759	0.320087	-0.300998	99
Es	-1.630823	-0.961346	0.143871	99
Es	-0.235097	2.759923	0.769517	99
Es	-0.436893	-1.743767	-1.015437	99
Es	-0.899246	-1.024282	0.174016	99
Es	-1.342270	1.422306	0.848252	99
Es	0.329611	2.302567	0.498523	99
Es	1.049426	0.730315	-0.045884	99
Es	-0.471801	1.981204	0.697289	99
Es	-0.627067	-1.433826	-0.484280	99
Es	-0.745487	1.004745	0.268153	99
39
Properties=species:S:1:pos:R:3:Z:I:1 energy=-338.7687433164367 field_type=dipole dipole="0.000000 0.000000 0.000000" charge=0
N	-0.436966	-1.743425	-1.015956	7
C	-0.899356	-1.024285	0.174134	6
C	-0.275166	0.329715	0.261754	6
N	-0.990046	1.366065	0.726104	7
O	-0.139466	2.456305	0.698154	8
C	1.073895	2.069315	0.237794	6
C	1.049425	0.730345	-0.045876	6
H	-0.956836	-2.616635	-1.087696	1
H	0.538274	-2.006005	-0.890686	1
H	-0.652476	-1.603105	1.071174	1
H	-1.990556	-0.934025	0.126364	1
H	1.820844	2.845845	0.175314	1
H	1.858425	0.129895	-0.430576	1
Es	-0.899240	-1.024286	0.174017	99
Es	-0.724643	-1.401112	0.787132	99
Es	1.049426	0.730315	-0.045884	99
Es	-0.139284	2.455852	0.698093	99
Es	1.073692	2.069477	0.237889	99
Es	1.575225	2.585195	0.193976	99
Es	-0.628593	-1.425825	-0.488661	99
Es	1.121620	1.241905	0.371300	99
Es	1.590367	0.319905	-0.300633	99
Es	-1.630892	-0.962959	0.144715	99
Es	-0.583157	0.882212	0.782482	99
Es	-0.472798	-1.571250	-1.283405	99
Es	-0.275201	0.329711	0.261776	99
Es	-0.436890	-1.743791	-1.015400	99
Es	-0.050096	2.356042	0.661929	99
Es	-0.750340	-2.279844	-1.040393	99
Es	0.333983	2.298971	0.512977	99
Es	-1.343815	1.421281	0.846815	99
Es	0.951807	1.372295	-0.199287	99
Es	-0.989426	1.366033	0.725896	99
Es	-0.742724	1.002306	0.270396	99
Es	-0.470167	1.980182	0.701054	99
Es	-0.231055	2.759442	0.780966	99
Es	0.155123	-1.899154	-0.927273	99
Es	-0.571081	-0.333566	0.215279	99
Es	0.402470	0.472911	0.093923	99
39
Properties=species:S:1:pos:R:3:Z:I:1 energy=-338.7687433164367 field_type=dipole dipole="0.000000 0.000000 0.000000" charge=0
N	-0.436966	-1.743425	-1.015956	7
C	-0.899356	-1.024285	0.174134	6
C	-0.275166	0.329715	0.261754	6
N	-0.990046	1.366065	0.726104	7
O	-0.139466	2.456305	0.698154	8
C	1.073895	2.069315	0.237794	6
C	1.049425	0.730345	-0.045876	6
H	-0.956836	-2.616635	-1.087696	1
H	0.538274	-2.006005	-0.890686	1
H	-0.652476	-1.603105	1.071174	1
H	-1.990556	-0.934025	0.126364	1
H	1.820844	2.845845	0.175314	1
H	1.858425	0.129895	-0.430576	1
Es	-0.050464	2.358036	0.657917	99
Es	-0.436900	-1.743731	-1.015461	99
Es	-0.275201	0.329711	0.261774	99
Es	1.575334	2.585453	0.193603	99
Es	-0.471825	-1.581769	-1.273277	99
Es	0.333385	2.298380	0.513757	99
Es	1.073689	2.069478	0.237890	99
Es	-0.582743	0.880823	0.780327	99
Es	1.590707	0.319834	-0.300436	99
Es	-0.469691	1.980074	0.701550	99
Es	-0.139314	2.455863	0.698021	99
Es	1.115887	1.236998	0.369236	99
Es	-0.899246	-1.024280	0.174015	99
Es	-0.741167	1.001865	0.271899	99
Es	-1.631028	-0.964211	0.145676	99
Es	-0.750554	-2.281118	-1.040535	99
Es	-0.570887	-0.333298	0.216137	99
Es	-0.630379	-1.418235	-0.494475	99
Es	0.401967	0.473338	0.095230	99
Es	-0.724977	-1.399681	0.785099	99
Es	1.049429	0.730312	-0.045879	99
Es	0.955596	1.378020	-0.197015	99
Es	0.156391	-1.895904	-0.930857	99
Es	-0.989414	1.366043	0.725904	99
Es	-0.229763	2.759655	0.783693	99
Es	-1.344518	1.420593	0.845885	99
39
Properties=species:S:1:pos:R:3:Z:I:1 energy=-338.7687433164367 field_type=dipole dipole="0.000000 0.000000 0.000000" charge=0
N	-0.436966	-1.743425	-1.015956	7
C	-0.899356	-1.024285	0.174134	6
C	-0.275166	0.329715	0.261754	6
N	-0.990046	1.366065	0.726104	7
O	-0.139466	2.456305	0.698154	8
C	1.073895	2.069315	0.237794	6
C	1.049425	0.730345	-0.045876	6
H	-0.956836	-2.616635	-1.087696	1
H	0.538274	-2.006005	-0.890686	1
H	-0.652476	-1.603105	1.071174	1
H	-1.990556	-0.934025	0.126364	1
H	1.820844	2.845845	0.175314	1
H	1.858425	0.129895	-0.430576	1
Es	0.401900	0.473553	0.096616	99
Es	0.333002	2.298140	0.514675	99
Es	1.590929	0.319704	-0.300218	99
Es	-0.740353	1.002087	0.272825	99
Es	-0.471386	-1.590311	-1.262950	99
Es	0.157446	-1.892759	-0.934850	99
Es	-0.570852	-0.333035	0.216704	99
Es	-0.899248	-1.024279	0.174015	99
Es	1.575381	2.585525	0.193309	99
Es	-0.275201	0.329711	0.261777	99
Es	-0.139323	2.455882	0.697950	99
Es	1.073693	2.069477	0.237890	99
Es	-1.344742	1.419950	0.846056	99
Es	-0.230612	2.760775	0.780138	99
Es	-0.750638	-2.282032	-1.041128	99
Es	-0.582387	0.879512	0.778304	99
Es	0.955939	1.379734	-0.196112	99
Es	1.049422	0.730317	-0.045898	99
Es	-0.631474	-1.412902	-0.499652	99
Es	-0.436892	-1.743761	-1.015452	99
Es	-0.989413	1.366035	0.725908	99
Es	-0.049354	2.358837	0.658918	99
Es	1.113594	1.235954	0.367774	99
Es	-1.631027	-0.965278	0.146548	99
Es	-0.468731	1.979568	0.703273	99
Es	-0.725361	-1.398155	0.783259	99
39
Properties=species:S:1:pos:R:3:Z:I:1 energy=-338.7687433164367 field_type=dipole dipole="0.000000 0.000000 0.000000" charge=0
N	-0.436966	-1.743425	-1.015956	7
C	-0.899356	-1.024285	0.174134	6
C	-0.275166	0.329715	0.261754	6
N	-0.990046	1.366065	0.726104	7
O	-0.139466	2.456305	0.698154	8
C	1.073895	2.069315	0.237794	6
C	1.049425	0.730345	-0.045876	6
H	-0.956836	-2.616635	-1.087696	1
H	0.538274	-2.006005	-0.890686	1
H	-0.652476	-1.603105	1.071174	1
H	-1.990556	-0.934025	0.126364	1
H	1.820844	2.845845	0.175314	1
H	1.858425	0.129895	-0.430576	1
Es	-0.275200	0.329710	0.261778	99
Es	-1.345147	1.419745	0.845046	99
Es	1.590958	0.319591	-0.300242	99
Es	-0.436890	-1.743810	-1.015400	99
Es	-0.582224	0.879791	0.778398	99
Es	-0.470822	-1.595923	-1.255890	99
Es	-0.632065	-1.409066	-0.503907	99
Es	1.073691	2.069478	0.237889	99
Es	1.101457	1.224220	0.363125	99
Es	-0.229651	2.760998	0.781657	99
Es	0.401171	0.474200	0.095656	99
Es	-0.570703	-0.332975	0.216869	99
Es	-0.048616	2.359661	0.658514	99
Es	-0.739417	1.000869	0.273546	99
Es	-0.989410	1.366050	0.725908	99
Es	0.967260	1.391205	-0.189934	99
Es	-0.725764	-1.397184	0.782018	99
Es	0.157789	-1.891126	-0.937087	99
Es	1.575487	2.585578	0.193366	99
Es	-1.631048	-0.965784	0.146970	99
Es	-0.899237	-1.024289	0.174020	99
Es	0.332460	2.297737	0.515135	99
Es	-0.469221	1.979889	0.701430	99
Es	-0.139311	2.455877	0.698020	99
Es	-0.750664	-2.282501	-1.041323	99
Es	1.049429	0.730311	-0.045880	99
39
Properties=species:S:1:pos:R:3:Z:I:1 energy=-338.7687433164367 field_type=dipole dipole="0.000000 0.000000 0.000000" charge=0
N	-0.436966	-1.743425	-1.015956	7
C	-0.899356	-1.024285	0.174134	6
C	-0.275166	0.329715	0.261754	6
N	-0.990046	1.366065	0.726104	7
O	-0.139466	2.456305	0.698154	8
C	1.073895	2.069315	0.237794	6
C	1.049425	0.730345	-0.045876	6
H	-0.956836	-2.616635	-1.087696	1
H	0.538274	-2.006005	-0.890686	1
H	-0.652476	-1.603105	1.071174	1
H	-1.990556	-0.934025	0.126364	1
H	1.820844	2.845845	0.175314	1
H	1.858425	0.129895	-0.430576	1
Es	-0.229441	2.761498	0.780688	99
Es	-0.048189	2.360219	0.658152	99
Es	-0.989409	1.366038	0.725909	99
Es	-0.582102	0.879396	0.778397	99
Es	-0.750482	-2.283037	-1.041736	99
Es	0.400778	0.474472	0.095331	99
Es	1.575477	2.585644	0.193379	99
Es	1.049429	0.730311	-0.045881	99
Es	-0.739012	1.000591	0.273747	99
Es	-0.726067	-1.396489	0.781108	99
Es	-0.436887	-1.743804	-1.015378	99
Es	-0.899243	-1.024280	0.174012	99
Es	-0.275202	0.329710	0.261774	99
Es	1.590987	0.319519	-0.300234	99
Es	-0.468913	1.979595	0.702321	99
Es	-0.470263	-1.601610	-1.248039	99
Es	-1.630931	-0.966197	0.147284	99
Es	0.332022	2.297497	0.515720	99
Es	-0.139312	2.455877	0.697994	99
Es	0.158041	-1.889261	-0.939445	99
Es	-0.570709	-0.332900	0.217216	99
Es	1.073688	2.069479	0.237888	99
Es	-1.345144	1.419733	0.844460	99
Es	-0.632840	-1.405216	-0.508716	99
Es	1.095631	1.219619	0.359819	99
Es	0.972403	1.395850	-0.186089	99
39
Properties=species:S:1:pos:R:3:Z:I:1 energy=-338.7687433164367 field_type=dipole dipole="0.000000 0.000000 0.000000" charge=0
N	-0.436966	-1.743425	-1.015956	7
C	-0.899356	-1.024285	0.174134	6
C	-0.275166	0.329715	0.261754	6
N	-0.990046	1.366065	0.726104	7
O	-0.139466	2.456305	0.698154	8
C	1.073895	2.069315	0.237794	6
C	1.049425	0.730345	-0.045876	6
H	-0.956836	-2.616635	-1.087696	1
H	0.538274	-2.006005	-0.890686	1
H	-0.652476	-1.603105	1.071174	1
H	-1.990556	-0.934025	0.126364	1
H	1.820844	2.845845	0.175314	1
H	1.858425	0.129895	-0.430576	1
Es	0.157908	-1.889128	-0.939894	99
Es	-0.139322	2.455892	0.697949	99
Es	1.590857	0.319433	-0.300489	99
Es	-0.469056	1.979894	0.700741	99
Es	-0.469825	-1.603378	-1.245402	99
Es	-0.570645	-0.332853	0.217065	99
Es	-1.630947	-0.966522	0.147667	99
Es	-1.344805	1.419419	0.845133	99
Es	-0.750742	-2.283069	-1.041978	99
Es	-0.581945	0.879158	0.777977	99
Es	-0.048424	2.361419	0.654818	99
Es	0.333082	2.296435	0.520073	99
Es	0.400242	0.474828	0.094478	99
Es	0.982750	1.403711	-0.177143	99
Es	-0.989408	1.366047	0.725894	99
Es	1.575538	2.585648	0.193590	99
Es	1.049428	0.730311	-0.045880	99
Es	-0.632753	-1.404052	-0.510301	99
Es	1.084797	1.211262	0.351983	99
Es	-0.275203	0.329711	0.261770	99
Es	-0.726158	-1.395821	0.780386	99
Es	-0.739112	1.000780	0.273501	99
Es	-0.436899	-1.743762	-1.015433	99
Es	-0.899250	-1.024278	0.174010	99
Es	-0.229487	2.761687	0.781273	99
Es	1.073689	2.069478	0.237892	99
39
Properties=species:S:1:pos:R:3:Z:I:1 energy=-338.7687433164367 field_type=dipole dipole="0.000000 0.000000 0.000000" charge=0
N	-0.436966	-1.743425	-1.015956	7
C	-0.899356	-1.024285	0.174134	6
C	-0.275166	0.329715	0.261754	6
N	-0.990046	1.366065	0.726104	7
O	-0.139466	2.456305	0.698154	8
C	1.073895	2.069315	0.237794	6
C	1.049425	0.730345	-0.045876	6
H	-0.956836	-2.616635	-1.087696	1
H	0.538274	-2.006005	-0.890686	1
H	-0.652476	-1.603105	1.071174	1
H	-1.990556	-0.934025	0.126364	1
H	1.820844	2.845845	0.175314	1
H	1.858425	0.129895	-0.430576	1
Es	-0.738903	1.001232	0.273608	99
Es	-0.899248	-1.024279	0.174013	99
Es	-0.570789	-0.332770	0.217174	99
Es	-0.750434	-2.283359	-1.042028	99
Es	-0.436892	-1.743782	-1.015403	99
Es	-0.139318	2.455890	0.698006	99
Es	1.575557	2.585705	0.193584	99
Es	-0.989400	1.366046	0.725914	99
Es	1.590902	0.319443	-0.300340	99
Es	-0.048997	2.362351	0.651573	99
Es	-0.726345	-1.395438	0.779900	99
Es	0.400065	0.474822	0.094766	99
Es	0.157877	-1.888371	-0.940759	99
Es	-0.469486	-1.606226	-1.241355	99
Es	-0.228478	2.761641	0.782739	99
Es	-0.469031	1.979765	0.701322	99
Es	-1.630803	-0.966783	0.147795	99
Es	0.332967	2.296017	0.521273	99
Es	-0.633204	-1.401936	-0.513277	99
Es	1.049427	0.730312	-0.045885	99
Es	-0.581917	0.878584	0.777364	99
Es	-0.275202	0.329711	0.261773	99
Es	1.081373	1.209179	0.348897	99
Es	1.073690	2.069478	0.237888	99
Es	0.985613	1.405745	-0.174161	99
Es	-1.344714	1.419276	0.845298	99
39
Properties=species:S:1:pos:R:3:Z:I:1 energy=-338.7687433164367 field_type=dipole dipole="0.000000 0.000000 0.000000" charge=0
N	-0.436966	-1.743425	-1.015956	7
C	-0.899356	-1.024285	0.174134	6
C	-0.275166	0.329715	0.261754	6
N	-0.990046	1.366065	0.726104	7
O	-0.139466	2.456305	0.698154	8
C	1.073895	2.069315	0.237794	6
C	1.049425	0.730345	-0.045876	6
H	-0.956836	-2.616635	-1.087696	1
H	0.538274	-2.006005	-0.890686	1
H	-0.652476	-1.603105	1.071174	1
H	-1.990556	-0.934025	0.126364	1
H	1.820844	2.845845	0.175314	1
H	1.858425	0.129895	-0.430576	1
Es	-0.750459	-2.283479	-1.042266	99
Es	-0.633575	-1.400257	-0.515579	99
Es	0.332788	2.296150	0.521018	99
Es	1.590769	0.319288	-0.300424	99
Es	-0.436882	-1.743843	-1.015338	99
Es	-0.469258	-1.608257	-1.238035	99
Es	1.575611	2.585695	0.193711	99
Es	-0.738782	1.000454	0.273250	99
Es	-0.989405	1.366047	0.725909	99
Es	-1.344588	1.419496	0.844591	99
Es	1.049425	0.730313	-0.045893	99
Es	-0.726383	-1.395606	0.779950	99
Es	1.073689	2.069480	0.237889	99
Es	0.157895	-1.887760	-0.941744	99
Es	-1.630685	-0.966692	0.147774	99
Es	-0.228341	2.761611	0.783254	99
Es	-0.469011	1.979757	0.701015	99
Es	0.399909	0.475070	0.094417	99
Es	-0.048771	2.362604	0.651569	99
Es	-0.581922	0.878876	0.778384	99
Es	-0.139308	2.455866	0.698046	99
Es	-0.899248	-1.024279	0.174017	99
Es	-0.275202	0.329711	0.261775	99
Es	1.074734	1.204982	0.342824	99
Es	0.991932	1.409831	-0.167534	99
Es	-0.570621	-0.332806	0.217102	99
39
Properties=species:S:1:pos:R:3:Z:I:1 energy=-338.7687433164367 field_type=dipole dipole="0.000000 0.000000 0.000000" charge=0
N	-0.436966	-1.743425	-1.015956	7
C	-0.899356	-1.024285	0.174134	6
C	-0.275166	0.329715	0.261754	6
N	-0.990046	1.366065	0.726104	7
O	-0.139466	2.456305	0.698154	8
C	1.073895	2.069315	0.237794	6
C	1.049425	0.730345	-0.045876	6
H	-0.956836	-2.616635	-1.087696	1
H	0.538274	-2.006005	-0.890686	1
H	-0.652476	-1.603105	1.071174	1
H	-1.990556	-0.934025	0.126364	1
H	1.820844	2.845845	0.175314	1
H	1.858425	0.129895	-0.430576	1
Es	0.157678	-1.887656	-0.942006	99
Es	-0.633443	-1.399260	-0.517124	99
Es	1.575557	2.585730	0.193725	99
Es	-0.570718	-0.332746	0.217284	99
Es	-0.047504	2.362257	0.654544	99
Es	-0.581761	0.878506	0.777915	99
Es	-1.630686	-0.967004	0.148064	99
Es	-0.726529	-1.394970	0.779238	99
Es	0.399842	0.475107	0.094462	99
Es	-0.228557	2.761952	0.782227	99
Es	-0.750636	-2.283525	-1.042774	99
Es	1.590795	0.319254	-0.300389	99
Es	1.049433	0.730307	-0.045866	99
Es	-0.468999	1.979736	0.700768	99
Es	0.992937	1.410485	-0.166328	99
Es	-0.436887	-1.743803	-1.015402	99
Es	-1.344673	1.419304	0.844515	99
Es	-0.899250	-1.024280	0.174021	99
Es	1.073282	1.204350	0.341534	99
Es	-0.468787	-1.609786	-1.235320	99
Es	-0.139274	2.455882	0.698050	99
Es	-0.738535	1.000713	0.273690	99
Es	1.073689	2.069478	0.237887	99
Es	0.331957	2.296466	0.519285	99
Es	-0.275203	0.329711	0.261772	99
Es	-0.989419	1.366041	0.725907	99
39
Properties=species:S:1:pos:R:3:Z:I:1 energy=-338.7687433164367 field_type=dipole dipole="0.000000 0.000000 0.000000" charge=0
N	-0.436966	-1.743425	-1.015956	7
C	-0.899356	-1.024285	0.174134	6
C	-0.275166	0.329715	0.261754	6
N	-0.990046	1.366065	0.726104	7
O	-0.139466	2.456305	0.698154	8
C	1.073895	2.069315	0.237794	6
C	1.049425	0.730345	-0.045876	6
H	-0.956836	-2.616635	-1.087696	1
H	0.538274	-2.006005	-0.890686	1
H	-0.652476	-1.603105	1.071174	1
H	-1.990556	-0.934025	0.126364	1
H	1.820844	2.845845	0.175314	1
H	1.858425	0.129895	-0.430576	1
Es	-0.750918	-2.283328	-1.043283	99
Es	-0.989408	1.366044	0.725906	99
Es	-0.581857	0.877775	0.778038	99
Es	-0.726739	-1.394910	0.779176	99
Es	-0.468599	-1.608974	-1.236246	99
Es	0.399607	0.475328	0.094033	99
Es	1.575620	2.585708	0.193910	99
Es	-0.738763	1.001422	0.273547	99
Es	0.331822	2.296313	0.519155	99
Es	-0.570521	-0.332783	0.217303	99
Es	1.073687	2.069480	0.237890	99
Es	-0.275202	0.329711	0.261772	99
Es	1.590790	0.319140	-0.300256	99
Es	-0.436890	-1.743802	-1.015389	99
Es	-1.630586	-0.966908	0.147910	99
Es	-0.469517	1.980108	0.699546	99
Es	-0.899248	-1.024280	0.174019	99
Es	0.999914	1.414164	-0.158310	99
Es	-0.633158	-1.399968	-0.515960	99
Es	1.066024	1.200132	0.334009	99
Es	1.049424	0.730314	-0.045896	99
Es	-1.344336	1.419462	0.844367	99
Es	-0.227980	2.761821	0.783622	99
Es	-0.139325	2.455875	0.697853	99
Es	0.157531	-1.888133	-0.941580	99
Es	-0.047062	2.362537	0.654542	99
39
Properties=species:S:1:pos:R:3:Z:I:1 energy=-338.7687433164367 field_type=dipole dipole="0.000000 0.000000 0.000000" charge=0
N	-0.436966	-1.743425	-1.015956	7
C	-0.899356	-1.024285	0.174134	6
C	-0.275166	0.329715	0.261754	6
N	-0.990046	1.366065	0.726104	7
O	-0.139466	2.456305	0.698154	8
C	1.073895	2.069315	0.237794	6
C	1.049425	0.730345	-0.045876	6
H	-0.956836	-2.616635	-1.087696	1
H	0.538274	-2.006005	-0.890686	1
H	-0.652476	-1.603105	1.071174	1
H	-1.990556	-0.934025	0.126364	1
H	1.820844	2.845845	0.175314	1
H	1.858425	0.129895	-0.430576	1
Es	1.003307	1.415837	-0.153974	99
Es	1.575587	2.585751	0.193860	99
Es	-0.047680	2.363376	0.652728	99
Es	0.332381	2.295719	0.521802	99
Es	-0.726771	-1.394969	0.779253	99
Es	-0.275203	0.329712	0.261770	99
Es	-0.989408	1.366040	0.725906	99
Es	-0.436890	-1.743821	-1.015395	99
Es	-0.750424	-2.283709	-1.043017	99
Es	-1.630456	-0.966877	0.147900	99
Es	1.049432	0.730308	-0.045870	99
Es	-0.228392	2.762275	0.781737	99
Es	1.073689	2.069478	0.237891	99
Es	-1.344470	1.419416	0.844184	99
Es	-0.468444	-1.609897	-1.235078	99
Es	-0.570675	-0.332743	0.217239	99
Es	0.399343	0.475409	0.093346	99
Es	1.590716	0.319175	-0.300366	99
Es	-0.899244	-1.024281	0.174014	99
Es	0.157253	-1.887825	-0.941421	99
Es	-0.633539	-1.398955	-0.517660	99
Es	-0.138914	2.455537	0.698245	99
Es	-0.738543	0.998708	0.272866	99
Es	-0.469199	1.979889	0.700326	99
Es	1.062534	1.198208	0.330106	99
Es	-0.581679	0.880490	0.779287	99
39
Properties=species:S:1:pos:R:3:Z:I:1 energy=-338.7687433164367 field_type=dipole dipole="0.000000 0.000000 0.000000" charge=0
N	-0.436966	-1.743425	-1.015956	7
C	-0.899356	-1.024285	0.174134	6
C	-0.275166	0.329715	0.261754	6
N	-0.990046	1.366065	0.726104	7
O	-0.139466	2.456305	0.698154	8
C	1.073895	2.069315	0.237794	6
C	1.049425	0.730345	-0.045876	6
H	-0.956836	-2.616635	-1.087696	1
H	0.538274	-2.006005	-0.890686	1
H	-0.652476	-1.603105	1.071174	1
H	-1.990556	-0.934025	0.126364	1
H	1.820844	2.845845	0.175314	1
H	1.858425	0.129895	-0.430576	1
Es	-0.275201	0.329710	0.261777	99
Es	-1.344360	1.419440	0.844167	99
Es	-0.989408	1.366059	0.725905	99
Es	1.575594	2.585742	0.193976	99
Es	-0.581780	0.877904	0.778247	99
Es	1.049426	0.730313	-0.045893	99
Es	-0.899248	-1.024279	0.174015	99
Es	-0.726790	-1.394840	0.779000	99
Es	1.004759	1.416545	-0.152107	99
Es	0.399368	0.475497	0.093712	99
Es	-0.469251	1.979940	0.699153	99
Es	-0.046450	2.362809	0.654944	99
Es	-0.436882	-1.743845	-1.015346	99
Es	-1.630443	-0.966967	0.148042	99
Es	1.073689	2.069478	0.237890	99
Es	-0.570560	-0.332757	0.217254	99
Es	-0.468536	-1.610707	-1.233532	99
Es	0.331627	2.296171	0.519994	99
Es	0.157430	-1.887379	-0.942445	99
Es	-0.750656	-2.283636	-1.043218	99
Es	1.590685	0.319009	-0.300338	99
Es	-0.139265	2.455848	0.698113	99
Es	1.060745	1.197438	0.328205	99
Es	-0.633455	-1.398711	-0.517983	99
Es	-0.228208	2.762241	0.782529	99
Es	-0.738518	1.001228	0.273619	99
39
Properties=species:S:1:pos:R:3:Z:I:1 energy=-338.7687433164367 field_type=dipole dipole="0.000000 0.000000 0.000000" charge=0
N	-0.436966	-1.743425	-1.015956	7
C	-0.899356	-1.024285	0.174134	6
C	-0.275166	0.329715	0.261754	6
N	-0.990046	1.366065	0.726104	7
O	-0.139466	2.456305	0.698154	8
C	1.073895	2.069315	0.237794	6
C	1.049425	0.730345	-0.045876	6
H	-0.956836	-2.616635	-1.087696	1
H	0.538274	-2.006005	-0.890686	1
H	-0.652476	-1.603105	1.071174	1
H	-1.990556	-0.934025	0.126364	1
H	1.820844	2.845845	0.175314	1
H	1.858425	0.129895	-0.430576	1
Es	-0.139319	2.455893	0.697929	99
Es	1.058457	1.196317	0.325337	99
Es	0.157018	-1.887900	-0.941229	99
Es	-0.899245	-1.024280	0.174012	99
Es	-0.750611	-2.283735	-1.043533	99
Es	-0.469448	1.980006	0.699280	99
Es	1.575577	2.585762	0.193976	99
Es	-1.344326	1.419295	0.844273	99
Es	-0.570657	-0.332680	0.217190	99
Es	-0.633655	-1.397912	-0.519299	99
Es	1.590568	0.318961	-0.300389	99
Es	-0.046326	2.362851	0.654987	99
Es	1.049427	0.730312	-0.045886	99
Es	0.399254	0.475606	0.093635	99
Es	-0.467884	-1.611181	-1.232803	99
Es	-0.436920	-1.743649	-1.015568	99
Es	0.331366	2.296195	0.519442	99
Es	-0.581693	0.878046	0.778157	99
Es	-0.726775	-1.394701	0.778922	99
Es	1.007132	1.417622	-0.149135	99
Es	1.073688	2.069479	0.237889	99
Es	-0.275201	0.329710	0.261777	99
Es	-1.630390	-0.967096	0.148112	99
Es	-0.738459	1.001108	0.273495	99
Es	-0.989406	1.366046	0.725904	99
Es	-0.227861	2.762174	0.783206	99
39
Properties=species:S:1:pos:R:3:Z:I:1 energy=-338.7687433164367 field_type=dipole dipole="0.000000 0.000000 0.000000" charge=0
N	-0.436966	-1.743425	-1.015956	7
C	-0.899356	-1.024285	0.174134	6
C	-0.275166	0.329715	0.261754	6
N	-0.990046	1.366065	0.726104	7
O	-0.139466	2.456305	0.698154	8
C	1.073895	2.069315	0.237794	6
C	1.049425	0.730345	-0.045876	6
H	-0.956836	-2.616635	-1.087696	1
H	0.538274	-2.006005	-0.890686	1
H	-0.652476	-1.603105	1.071174	1
H	-1.990556	-0.934025	0.126364	1
H	1.820844	2.845845	0.175314	1
H	1.858425	0.129895	-0.430576	1
Es	1.073687	2.069479	0.237885	99
Es	-0.471550	-1.590739	-1.270121	99
Es	-0.571878	-0.332207	0.217330	99
Es	-0.899246	-1.024280	0.174016	99
Es	1.149214	1.363694	0.229891	99
Es	1.591495	0.318927	-0.298710	99
Es	0.152173	-1.892177	-0.931703	99
Es	-0.139301	2.455894	0.697963	99
Es	1.574558	2.586271	0.190338	99
Es	0.404652	0.472725	0.111110	99
Es	-0.275201	0.329710	0.261777	99
Es	-1.342760	1.419575	0.846160	99
Es	1.049433	0.730308	-0.045865	99
Es	-0.631726	-1.409306	-0.503028	99
Es	-0.726534	-1.400098	0.786161	99
Es	-1.627146	-0.965124	0.144845	99
Es	-0.581880	0.876047	0.776608	99
Es	-0.436895	-1.743785	-1.015419	99
Es	-0.232261	2.763930	0.769837	99
Es	-0.464451	1.977607	0.712739	99
Es	-0.989408	1.366041	0.725911	99
Es	0.323135	2.300667	0.497337	99
Es	0.911308	1.247404	-0.070349	99
Es	-0.741849	1.007995	0.273202	99
Es	-0.037723	2.359429	0.675787	99
Es	-0.745537	-2.285740	-1.034023	99
39
Properties=species:S:1:pos:R:3:Z:I:1 energy=-338.7687433164367 field_type=dipole dipole="0.000000 0.000000 0.000000" charge=0
N	-0.436966	-1.743425	-1.015956	7
C	-0.899356	-1.024285	0.174134	6
C	-0.275166	0.329715	0.261754	6
N	-0.990046	1.366065	0.726104	7
O	-0.139466	2.456305	0.698154	8
C	1.073895	2.069315	0.237794	6
C	1.049425	0.730345	-0.045876	6
H	-0.956836	-2.616635	-1.087696	1
H	0.538274	-2.006005	-0.890686	1
H	-0.652476	-1.603105	1.071174	1
H	-1.990556	-0.934025	0.126364	1
H	1.820844	2.845845	0.175314	1
H	1.858425	0.129895	-0.430576	1
Es	-0.633603	-1.397195	-0.520327	99
Es	-0.468038	-1.612113	-1.231304	99
Es	-0.046912	2.363766	0.652414	99
Es	-0.899246	-1.024279	0.174013	99
Es	1.010662	1.419163	-0.144160	99
Es	0.331686	2.295794	0.521467	99
Es	-0.570692	-0.332686	0.217182	99
Es	1.575545	2.585790	0.194025	99
Es	-0.726831	-1.394643	0.778857	99
Es	-0.581644	0.878518	0.778692	99
Es	-0.436880	-1.743799	-1.015407	99
Es	-0.750530	-2.283786	-1.043348	99
Es	1.073689	2.069478	0.237890	99
Es	1.049425	0.730314	-0.045894	99
Es	-0.139250	2.455785	0.697592	99
Es	-0.275202	0.329710	0.261774	99
Es	-0.227574	2.762213	0.783653	99
Es	-0.469293	1.979891	0.699723	99
Es	-0.989406	1.366047	0.725906	99
Es	0.157029	-1.887575	-0.942041	99
Es	0.399207	0.475828	0.093587	99
Es	1.590574	0.318838	-0.300448	99
Es	-1.630269	-0.967117	0.148127	99
Es	-0.738545	1.000410	0.273120	99
Es	1.054488	1.194601	0.320523	99
Es	-1.344077	1.419299	0.844063	99
39
Properties=species:S:1:pos:R:3:Z:I:1 energy=-338.7687433164367 field_type=dipole dipole="0.000000 0.000000 0.000000" charge=0
N	-0.436966	-1.743425	-1.015956	7
C	-0.899356	-1.024285	0.174134	6
C	-0.275166	0.329715	0.261754	6
N	-0.990046	1.366065	0.726104	7
O	-0.139466	2.456305	0.698154	8
C	1.073895	2.069315	0.237794	6
C	1.049425	0.730345	-0.045876	6
H	-0.956836	-2.616635	-1.087696	1
H	0.538274	-2.006005	-0.890686	1
H	-0.652476	-1.603105	1.071174	1
H	-1.990556	-0.934025	0.126364	1
H	1.820844	2.845845	0.175314	1
H	1.858425	0.129895	-0.430576	1
Es	1.574513	2.586341	0.190323	99
Es	0.911746	1.245049	-0.065192	99
Es	-0.989421	1.366024	0.725907	99
Es	-0.745336	-2.285975	-1.033826	99
Es	-0.436888	-1.743803	-1.015384	99
Es	-0.581930	0.875313	0.775942	99
Es	0.404573	0.472943	0.111070	99
Es	-0.275200	0.329710	0.261779	99
Es	1.049435	0.730308	-0.045856	99
Es	-0.232520	2.764263	0.768337	99
Es	-1.342773	1.419538	0.846164	99
Es	1.148454	1.365864	0.225026	99
Es	0.152054	-1.891772	-0.932270	99
Es	-0.464198	1.977400	0.712921	99
Es	-0.571923	-0.332165	0.217149	99
Es	-0.471688	-1.591479	-1.269274	99
Es	1.073687	2.069479	0.237884	99
Es	-1.626979	-0.965210	0.144882	99
Es	-0.726583	-1.399994	0.786121	99
Es	1.591467	0.318858	-0.298932	99
Es	-0.139326	2.455899	0.697894	99
Es	-0.037067	2.359450	0.677103	99
Es	-0.741698	1.008687	0.273943	99
Es	-0.631665	-1.408842	-0.503497	99
Es	-0.899247	-1.024280	0.174017	99
Es	0.322824	2.300645	0.497446	99
39
Properties=species:S:1:pos:R:3:Z:I:1 energy=-338.7687433164367 field_type=dipole dipole="0.000000 0.000000 0.000000" charge=0
N	-0.436966	-1.743425	-1.015956	7
C	-0.899356	-1.024285	0.174134	6
C	-0.275166	0.329715	0.261754	6
N	-0.990046	1.366065	0.726104	7
O	-0.139466	2.456305	0.698154	8
C	1.073895	2.069315	0.237794	6
C	1.049425	0.730345	-0.045876	6
H	-0.956836	-2.616635	-1.087696	1
H	0.538274	-2.006005	-0.890686	1
H	-0.652476	-1.603105	1.071174	1
H	-1.990556	-0.934025	0.126364	1
H	1.820844	2.845845	0.175314	1
H	1.858425	0.129895	-0.430576	1
Es	0.331205	2.295997	0.520225	99
Es	-0.738555	1.000521	0.272930	99
Es	-0.633569	-1.397325	-0.520072	99
Es	1.016667	1.421420	-0.135671	99
Es	-0.467738	-1.611329	-1.232605	99
Es	0.156626	-1.888151	-0.940941	99
Es	0.398940	0.475507	0.093235	99
Es	-1.344083	1.419591	0.843465	99
Es	1.048328	1.191737	0.312326	99
Es	-0.750485	-2.283855	-1.043418	99
Es	-0.726949	-1.394867	0.779160	99
Es	-1.630055	-0.966942	0.147867	99
Es	1.073689	2.069478	0.237888	99
Es	-0.899247	-1.024280	0.174015	99
Es	1.049425	0.730314	-0.045893	99
Es	-0.570740	-0.332636	0.217127	99
Es	-0.045984	2.363537	0.653627	99
Es	-0.227331	2.762149	0.784365	99
Es	-0.581602	0.878677	0.779609	99
Es	-0.275203	0.329711	0.261771	99
Es	-0.436889	-1.743801	-1.015421	99
Es	1.590534	0.319033	-0.300440	99
Es	-0.989414	1.366042	0.725905	99
Es	-0.139291	2.455860	0.698070	99
Es	1.575600	2.585771	0.194148	99
Es	-0.469569	1.980091	0.698406	99
39
Properties=species:S:1:pos:R:3:Z:I:1 energy=-338.7687433164367 field_type=dipole dipole="0.000000 0.000000 0.000000" charge=0
N	-0.436966	-1.743425	-1.015956	7
C	-0.899356	-1.024285	0.174134	6
C	-0.275166	0.329715	0.261754	6
N	-0.990046	1.366065	0.726104	7
O	-0.139466	2.456305	0.698154	8
C	1.073895	2.069315	0.237794	6
C	1.049425	0.730345	-0.045876	6
H	-0.956836	-2.616635	-1.087696	1
H	0.538274	-2.006005	-0.890686	1
H	-0.652476	-1.603105	1.071174	1
H	-1.990556	-0.934025	0.126364	1
H	1.820844	2.845845	0.175314	1
H	1.858425	0.129895	-0.430576	1
Es	1.049427	0.730312	-0.045889	99
Es	-0.467812	-1.612431	-1.230998	99
Es	-0.738583	0.999097	0.272549	99
Es	-0.227202	2.762446	0.783859	99
Es	-0.469191	1.979883	0.699744	99
Es	-1.630113	-0.967232	0.148231	99
Es	-0.633622	-1.396808	-0.520980	99
Es	-0.047102	2.364366	0.649807	99
Es	0.331785	2.295118	0.523275	99
Es	1.049204	1.192426	0.313491	99
Es	-0.726897	-1.394487	0.778646	99
Es	-0.436914	-1.743673	-1.015533	99
Es	1.575526	2.585836	0.194008	99
Es	-0.275203	0.329711	0.261770	99
Es	1.590556	0.318743	-0.300281	99
Es	1.073689	2.069478	0.237891	99
Es	0.398975	0.475926	0.093505	99
Es	1.015628	1.421059	-0.137185	99
Es	-0.139287	2.455871	0.698072	99
Es	-1.343994	1.419365	0.844014	99
Es	-0.581519	0.879810	0.779447	99
Es	-0.989406	1.366044	0.725904	99
Es	-0.750307	-2.283999	-1.043237	99
Es	0.156640	-1.887702	-0.941621	99
Es	-0.899248	-1.024279	0.174015	99
Es	-0.570716	-0.332631	0.217177	99
39
Properties=species:S:1:pos:R:3:Z:I:1 energy=-338.7687433164367 field_type=dipole dipole="0.000000 0.000000 0.000000" charge=0
N	-0.436966	-1.743425	-1.015956	7
C	-0.899356	-1.024285	0.174134	6
C	-0.275166	0.329715	0.261754	6
N	-0.990046	1.366065	0.726104	7
O	-0.139466	2.456305	0.698154	8
C	1.073895	2.069315	0.237794	6
C	1.049425	0.730345	-0.045876	6
H	-0.956836	-2.616635	-1.087696	1
H	0.538274	-2.006005	-0.890686	1
H	-0.652476	-1.603105	1.071174	1
H	-1.990556	-0.934025	0.126364	1
H	1.820844	2.845845	0.175314	1
H	1.858425	0.129895	-0.430576	1
Es	1.049428	0.730311	-0.045885	99
Es	0.403223	0.473005	0.109094	99
Es	-0.746229	-2.285160	-1.035608	99
Es	-0.469929	-1.585036	-1.276203	99
Es	0.323586	2.300014	0.499537	99
Es	1.141051	1.382893	0.182162	99
Es	1.591250	0.318648	-0.298925	99
Es	1.073687	2.069479	0.237886	99
Es	-0.989410	1.366036	0.725908	99
Es	-0.232676	2.764465	0.767821	99
Es	-1.626940	-0.964699	0.144688	99
Es	-0.631124	-1.412758	-0.499267	99
Es	0.919772	1.225707	-0.021264	99
Es	-0.436885	-1.743785	-1.015469	99
Es	-1.341870	1.420163	0.845313	99
Es	-0.571781	-0.332376	0.216625	99
Es	-0.726461	-1.400601	0.786792	99