44
Properties=species:S:1:pos:R:3:Z:I:1 energy=-360.96024536305515 field_type=dipole dipole="0.000000 0.000000 0.000000" charge=0
N	-2.032871	-0.195282	0.731389	7
C	-1.001521	-0.893362	-0.027441	6
C	0.215369	-0.022892	-0.172951	6
C	1.037839	0.190198	1.068559	6
O	2.241909	0.901338	0.786679	8
C	0.811369	0.171648	-1.555531	6
O	-0.000051	1.180878	-0.940011	8
H	-2.889220	-0.747692	0.718699	1
H	-2.252970	0.674178	0.241409	1
H	-1.404641	-1.169342	-1.008371	1
H	-0.735871	-1.823892	0.485939	1
H	1.318979	-0.771802	1.510399	1
H	0.478250	0.760168	1.818950	1
H	1.953479	1.747128	0.391649	1
H	0.387039	-0.365642	-2.395111	1
H	1.872910	0.364368	-1.654261	1
Es	-1.267034	-1.082525	-0.710630	99
Es	0.515145	-0.189614	-2.128463	99
Es	2.368587	0.966420	1.058710	99
Es	0.623366	-0.151037	-0.847125	99
Es	2.241621	0.901433	0.786618	99
Es	0.016922	0.772265	-0.578713	99
Es	-1.927455	-0.129689	1.064423	99
Es	2.388090	0.744076	0.565003	99
Es	0.811170	0.171846	-1.555369	99
Es	0.624099	0.081014	0.435735	99
Es	2.072948	1.347454	0.577393	99
Es	-0.811884	-1.524996	0.324421	99
Es	1.222092	-0.470816	1.359448	99
Es	0.643980	0.574924	1.567722	99
Es	-2.167544	0.313596	0.419656	99
Es	-2.033020	-0.195401	0.730850	99
Es	-0.391172	-0.454123	-0.100645	99
Es	1.523719	0.312486	-1.629309	99
Es	0.215313	-0.022639	-0.173137	99
Es	1.770563	0.644479	0.881039	99
Es	1.038014	0.190302	1.068446	99
Es	-2.546779	-0.534839	0.703230	99
Es	-1.001578	-0.893278	-0.027364	99
Es	0.318164	0.863807	-1.261675	99
Es	-0.285031	1.178374	-1.063117	99
Es	0.000093	1.180601	-0.939990	99
Es	0.188241	1.404296	-0.824775	99
Es	-1.592926	-0.501348	0.384098	99
44
Properties=species:S:1:pos:R:3:Z:I:1 energy=-360.96024536305515 field_type=dipole dipole="0.000000 0.000000 0.000000" charge=0
N	-2.032871	-0.195282	0.731389	7
C	-1.001521	-0.893362	-0.027441	6
C	0.215369	-0.022892	-0.172951	6
C	1.037839	0.190198	1.068559	6
O	2.241909	0.901338	0.786679	8
C	0.811369	0.171648	-1.555531	6
O	-0.000051	1.180878	-0.940011	8
H	-2.889220	-0.747692	0.718699	1
H	-2.252970	0.674178	0.241409	1
H	-1.404641	-1.169342	-1.008371	1
H	-0.735871	-1.823892	0.485939	1
H	1.318979	-0.771802	1.510399	1
H	0.478250	0.760168	1.818950	1
H	1.953479	1.747128	0.391649	1
H	0.387039	-0.365642	-2.395111	1
H	1.872910	0.364368	-1.654261	1
Es	0.811179	0.171845	-1.555366	99
Es	2.072320	1.350283	0.576867	99
Es	0.000090	1.180581	-0.939967	99
Es	0.014118	0.771009	-0.574332	99
Es	1.038016	0.190303	1.068442	99
Es	-2.033001	-0.195393	0.730888	99
Es	-2.545279	-0.534424	0.705758	99
Es	0.515818	-0.188166	-2.128191	99
Es	2.393666	0.738915	0.566455	99
Es	2.241629	0.901426	0.786601	99
Es	0.215315	-0.022642	-0.173137	99
Es	0.184606	1.402282	-0.827032	99
Es	1.222283	-0.471941	1.359449	99
Es	-2.168682	0.316093	0.419615	99
Es	-0.392179	-0.453902	-0.100719	99
Es	1.771694	0.645949	0.886615	99
Es	-0.279508	1.179629	-1.062154	99
Es	-1.001580	-0.893274	-0.027362	99
Es	-1.592877	-0.502248	0.384178	99
Es	-0.811070	-1.526531	0.324573	99
Es	0.624372	-0.154065	-0.845888	99
Es	-1.927880	-0.131194	1.061731	99
Es	1.522478	0.312980	-1.630297	99
Es	0.319086	0.866517	-1.265503	99
Es	0.643476	0.575465	1.567270	99
Es	-1.266562	-1.081309	-0.710098	99
Es	0.624162	0.081612	0.436150	99
Es	2.362012	0.967267	1.051935	99
44
Properties=species:S:1:pos:R:3:Z:I:1 energy=-360.96024536305515 field_type=dipole dipole="0.000000 0.000000 0.000000" charge=0
N	-2.032871	-0.195282	0.731389	7
C	-1.001521	-0.893362	-0.027441	6
C	0.215369	-0.022892	-0.172951	6
C	1.037839	0.190198	1.068559	6
O	2.241909	0.901338	0.786679	8
C	0.811369	0.171648	-1.555531	6
O	-0.000051	1.180878	-0.940011	8
H	-2.889220	-0.747692	0.718699	1
H	-2.252970	0.674178	0.241409	1
H	-1.404641	-1.169342	-1.008371	1
H	-0.735871	-1.823892	0.485939	1
H	1.318979	-0.771802	1.510399	1
H	0.478250	0.760168	1.818950	1
H	1.953479	1.747128	0.391649	1
H	0.387039	-0.365642	-2.395111	1
H	1.872910	0.364368	-1.654261	1
Es	0.516222	-0.187362	-2.128110	99
Es	0.319288	0.869106	-1.268991	99
Es	1.038007	0.190294	1.068451	99
Es	0.643237	0.575673	1.567161	99
Es	-2.033006	-0.195391	0.730877	99
Es	0.625032	-0.155676	-0.845246	99
Es	0.000230	1.180599	-0.939934	99
Es	1.771951	0.647288	0.892544	99
Es	-1.266215	-1.080707	-0.709853	99
Es	-1.926544	-0.132232	1.061107	99
Es	0.624035	0.082062	0.436627	99
Es	1.521608	0.313203	-1.630715	99
Es	0.180665	1.402596	-0.829050	99
Es	-0.810605	-1.527285	0.324739	99
Es	2.357194	0.968961	1.045045	99
Es	-2.543872	-0.533761	0.707674	99
Es	2.241557	0.901451	0.786615	99
Es	2.397574	0.734827	0.569315	99
Es	0.811168	0.171852	-1.555378	99
Es	-1.001578	-0.893275	-0.027363	99
Es	-0.275278	1.177801	-1.060100	99
Es	-0.392772	-0.453676	-0.100754	99
Es	0.013650	0.770126	-0.571374	99
Es	0.215308	-0.022640	-0.173136	99
Es	2.072773	1.351302	0.574755	99
Es	-1.594398	-0.502815	0.382696	99
Es	-2.169902	0.317298	0.419638	99
Es	1.222374	-0.472552	1.359240	99
44
Properties=species:S:1:pos:R:3:Z:I:1 energy=-360.96024536305515 field_type=dipole dipole="0.000000 0.000000 0.000000" charge=0
N	-2.032871	-0.195282	0.731389	7
C	-1.001521	-0.893362	-0.027441	6
C	0.215369	-0.022892	-0.172951	6
C	1.037839	0.190198	1.068559	6
O	2.241909	0.901338	0.786679	8
C	0.811369	0.171648	-1.555531	6
O	-0.000051	1.180878	-0.940011	8
H	-2.889220	-0.747692	0.718699	1
H	-2.252970	0.674178	0.241409	1
H	-1.404641	-1.169342	-1.008371	1
H	-0.735871	-1.823892	0.485939	1
H	1.318979	-0.771802	1.510399	1
H	0.478250	0.760168	1.818950	1
H	1.953479	1.747128	0.391649	1
H	0.387039	-0.365642	-2.395111	1
H	1.872910	0.364368	-1.654261	1
Es	0.811171	0.171851	-1.555372	99
Es	-0.393328	-0.453612	-0.100693	99
Es	1.772481	0.648072	0.895961	99
Es	0.000042	1.180665	-0.939993	99
Es	-1.001580	-0.893274	-0.027361	99
Es	0.623943	0.082234	0.436798	99
Es	-1.926795	-0.132387	1.060975	99
Es	-2.542874	-0.533276	0.708201	99
Es	1.038014	0.190297	1.068448	99
Es	-2.170474	0.317695	0.418998	99
Es	2.397749	0.733473	0.568631	99
Es	2.356285	0.967557	1.040652	99
Es	0.012336	0.770031	-0.569154	99
Es	-2.033025	-0.195385	0.730828	99
Es	0.625524	-0.156935	-0.844718	99
Es	1.222477	-0.472928	1.359297	99
Es	-0.810191	-1.527867	0.324757	99
Es	0.643117	0.575872	1.566954	99
Es	-0.271091	1.176046	-1.058844	99
Es	0.516511	-0.186709	-2.127983	99
Es	1.520949	0.313485	-1.631102	99
Es	2.241549	0.901483	0.786609	99
Es	-1.594511	-0.503381	0.382963	99
Es	2.072708	1.353183	0.576320	99
Es	0.319882	0.870835	-1.271397	99
Es	0.177483	1.402806	-0.830392	99
Es	-1.265961	-1.080124	-0.709766	99
Es	0.215314	-0.022638	-0.173136	99
44
Properties=species:S:1:pos:R:3:Z:I:1 energy=-360.96024536305515 field_type=dipole dipole="0.000000 0.000000 0.000000" charge=0
N	-2.032871	-0.195282	0.731389	7
C	-1.001521	-0.893362	-0.027441	6
C	0.215369	-0.022892	-0.172951	6
C	1.037839	0.190198	1.068559	6
O	2.241909	0.901338	0.786679	8
C	0.811369	0.171648	-1.555531	6
O	-0.000051	1.180878	-0.940011	8
H	-2.889220	-0.747692	0.718699	1
H	-2.252970	0.674178	0.241409	1
H	-1.404641	-1.169342	-1.008371	1
H	-0.735871	-1.823892	0.485939	1
H	1.318979	-0.771802	1.510399	1
H	0.478250	0.760168	1.818950	1
H	1.953479	1.747128	0.391649	1
H	0.387039	-0.365642	-2.395111	1
H	1.872910	0.364368	-1.654261	1
Es	1.520394	0.313620	-1.631384	99
Es	0.516692	-0.186170	-2.127904	99
Es	-2.033017	-0.195396	0.730822	99
Es	0.318982	0.871018	-1.273505	99
Es	-0.809993	-1.528255	0.324847	99
Es	2.352308	0.970744	1.037510	99
Es	1.773256	0.648193	0.898980	99
Es	-2.171005	0.318309	0.419097	99
Es	-1.595587	-0.503585	0.382027	99
Es	0.623992	0.082376	0.437068	99
Es	1.038012	0.190297	1.068448	99
Es	-2.542079	-0.532779	0.708883	99
Es	2.401393	0.731392	0.572445	99
Es	0.642944	0.576013	1.566792	99
Es	0.010450	0.769885	-0.568026	99
Es	-0.000040	1.180697	-0.940008	99
Es	-0.393686	-0.453559	-0.100534	99
Es	0.177895	1.400844	-0.830994	99
Es	1.222492	-0.473205	1.359277	99
Es	-1.925921	-0.133106	1.061024	99
Es	0.215315	-0.022646	-0.173136	99
Es	2.072156	1.351963	0.572455	99
Es	-0.268456	1.177981	-1.057456	99
Es	-1.001582	-0.893274	-0.027360	99
Es	-1.265745	-1.079732	-0.709762	99
Es	2.241525	0.901471	0.786659	99
Es	0.625838	-0.157880	-0.844415	99
Es	0.811171	0.171850	-1.555373	99
44
Properties=species:S:1:pos:R:3:Z:I:1 energy=-360.96024536305515 field_type=dipole dipole="0.000000 0.000000 0.000000" charge=0
N	-2.032871	-0.195282	0.731389	7
C	-1.001521	-0.893362	-0.027441	6
C	0.215369	-0.022892	-0.172951	6
C	1.037839	0.190198	1.068559	6
O	2.241909	0.901338	0.786679	8
C	0.811369	0.171648	-1.555531	6
O	-0.000051	1.180878	-0.940011	8
H	-2.889220	-0.747692	0.718699	1
H	-2.252970	0.674178	0.241409	1
H	-1.404641	-1.169342	-1.008371	1
H	-0.735871	-1.823892	0.485939	1
H	1.318979	-0.771802	1.510399	1
H	0.478250	0.760168	1.818950	1
H	1.953479	1.747128	0.391649	1
H	0.387039	-0.365642	-2.395111	1
H	1.872910	0.364368	-1.654261	1
Es	0.000026	1.180515	-0.940000	99
Es	-0.394015	-0.453521	-0.100445	99
Es	1.519910	0.313747	-1.631398	99
Es	-1.265679	-1.079499	-0.709886	99
Es	-1.925621	-0.133103	1.060587	99
Es	-2.541564	-0.532662	0.709694	99
Es	2.241576	0.901454	0.786609	99
Es	1.773786	0.649575	0.904928	99
Es	1.222591	-0.473326	1.359345	99
Es	0.624050	0.082371	0.437237	99
Es	1.038015	0.190302	1.068448	99
Es	-1.595748	-0.503758	0.381807	99
Es	-2.171559	0.318457	0.418933	99
Es	-2.032999	-0.195403	0.730837	99
Es	-1.001582	-0.893273	-0.027360	99
Es	0.626046	-0.158493	-0.844217	99
Es	-0.266096	1.175436	-1.056806	99
Es	0.010442	0.770007	-0.566692	99
Es	0.811171	0.171850	-1.555372	99
Es	0.516921	-0.185878	-2.127984	99
Es	0.215313	-0.022643	-0.173135	99
Es	2.400153	0.729813	0.572071	99
Es	0.175281	1.402383	-0.832316	99
Es	0.642844	0.576109	1.566674	99
Es	-0.809744	-1.528422	0.324937	99
Es	0.319248	0.872121	-1.274400	99
Es	2.352588	0.970603	1.032244	99
Es	2.072349	1.352306	0.572137	99
44
Properties=species:S:1:pos:R:3:Z:I:1 energy=-360.96024536305515 field_type=dipole dipole="0.000000 0.000000 0.000000" charge=0
N	-2.032871	-0.195282	0.731389	7
C	-1.001521	-0.893362	-0.027441	6
C	0.215369	-0.022892	-0.172951	6
C	1.037839	0.190198	1.068559	6
O	2.241909	0.901338	0.786679	8
C	0.811369	0.171648	-1.555531	6
O	-0.000051	1.180878	-0.940011	8
H	-2.889220	-0.747692	0.718699	1
H	-2.252970	0.674178	0.241409	1
H	-1.404641	-1.169342	-1.008371	1
H	-0.735871	-1.823892	0.485939	1
H	1.318979	-0.771802	1.510399	1
H	0.478250	0.760168	1.818950	1
H	1.953479	1.747128	0.391649	1
H	0.387039	-0.365642	-2.395111	1
H	1.872910	0.364368	-1.654261	1
Es	0.320116	0.873627	-1.275854	99
Es	-1.001580	-0.893274	-0.027362	99
Es	2.241559	0.901432	0.786584	99
Es	-1.596342	-0.504324	0.381724	99
Es	0.626096	-0.159025	-0.844028	99
Es	2.072674	1.353182	0.572305	99
Es	-2.171790	0.318365	0.418277	99
Es	0.010774	0.770237	-0.565599	99
Es	0.811175	0.171848	-1.555378	99
Es	1.774204	0.650199	0.907302	99
Es	-2.541133	-0.532149	0.710501	99
Es	0.215311	-0.022635	-0.173134	99
Es	-2.033015	-0.195393	0.730839	99
Es	-1.925186	-0.132843	1.060488	99
Es	1.519719	0.313796	-1.631550	99
Es	0.642890	0.576158	1.566604	99
Es	0.171340	1.404437	-0.833294	99
Es	0.517045	-0.185493	-2.127842	99
Es	1.038018	0.190300	1.068447	99
Es	0.623887	0.082484	0.437423	99
Es	-1.265570	-1.079318	-0.709828	99
Es	-0.263388	1.171573	-1.055727	99
Es	0.000163	1.180576	-0.939958	99
Es	2.353284	0.969547	1.029903	99
Es	-0.809526	-1.528610	0.324987	99
Es	2.398619	0.729332	0.571822	99
Es	-0.394246	-0.453495	-0.100549	99
Es	1.222605	-0.473466	1.359375	99
44
Properties=species:S:1:pos:R:3:Z:I:1 energy=-360.96024536305515 field_type=dipole dipole="0.000000 0.000000 0.000000" charge=0
N	-2.032871	-0.195282	0.731389	7
C	-1.001521	-0.893362	-0.027441	6
C	0.215369	-0.022892	-0.172951	6
C	1.037839	0.190198	1.068559	6
O	2.241909	0.901338	0.786679	8
C	0.811369	0.171648	-1.555531	6
O	-0.000051	1.180878	-0.940011	8
H	-2.889220	-0.747692	0.718699	1
H	-2.252970	0.674178	0.241409	1
H	-1.404641	-1.169342	-1.008371	1
H	-0.735871	-1.823892	0.485939	1
H	1.318979	-0.771802	1.510399	1
H	0.478250	0.760168	1.818950	1
H	1.953479	1.747128	0.391649	1
H	0.387039	-0.365642	-2.395111	1
H	1.872910	0.364368	-1.654261	1
Es	0.623882	0.082559	0.437523	99
Es	1.038017	0.190301	1.068445	99
Es	-0.261093	1.170564	-1.054885	99
Es	0.169538	1.404709	-0.834100	99
Es	-1.596516	-0.504239	0.381531	99
Es	0.517188	-0.185255	-2.127863	99
Es	0.000642	1.180694	-0.939733	99
Es	1.519402	0.313912	-1.631610	99
Es	0.811169	0.171853	-1.555374	99
Es	2.399702	0.728406	0.573280	99
Es	0.319898	0.874259	-1.276822	99
Es	1.774546	0.650574	0.909796	99
Es	1.222641	-0.473612	1.359389	99
Es	-2.540477	-0.532056	0.710478	99
Es	2.351725	0.970695	1.027575	99
Es	0.010050	0.770282	-0.564974	99
Es	-1.001580	-0.893273	-0.027362	99
Es	-2.172349	0.318407	0.418154	99
Es	0.642861	0.576233	1.566522	99
Es	0.626327	-0.159469	-0.843894	99
Es	-0.809488	-1.528782	0.324954	99
Es	-0.394429	-0.453583	-0.100378	99
Es	2.072665	1.352531	0.570676	99
Es	0.215311	-0.022642	-0.173134	99
Es	-1.925099	-0.132994	1.060815	99
Es	-1.265399	-1.079044	-0.709941	99
Es	2.241580	0.901440	0.786574	99
Es	-2.033010	-0.195401	0.730836	99
44
Properties=species:S:1:pos:R:3:Z:I:1 energy=-360.96024536305515 field_type=dipole dipole="0.000000 0.000000 0.000000" charge=0
N	-2.032871	-0.195282	0.731389	7
C	-1.001521	-0.893362	-0.027441	6
C	0.215369	-0.022892	-0.172951	6
C	1.037839	0.190198	1.068559	6
O	2.241909	0.901338	0.786679	8
C	0.811369	0.171648	-1.555531	6
O	-0.000051	1.180878	-0.940011	8
H	-2.889220	-0.747692	0.718699	1
H	-2.252970	0.674178	0.241409	1
H	-1.404641	-1.169342	-1.008371	1
H	-0.735871	-1.823892	0.485939	1
H	1.318979	-0.771802	1.510399	1
H	0.478250	0.760168	1.818950	1
H	1.953479	1.747128	0.391649	1
H	0.387039	-0.365642	-2.395111	1
H	1.872910	0.364368	-1.654261	1
Es	2.241608	0.901420	0.786566	99
Es	-2.539888	-0.531662	0.709827	99
Es	-0.809322	-1.528895	0.324997	99
Es	-2.172509	0.318497	0.417970	99
Es	0.320133	0.874780	-1.277657	99
Es	1.038014	0.190294	1.068448	99
Es	-0.000146	1.180363	-0.940129	99
Es	-1.001580	-0.893272	-0.027361	99
Es	0.517236	-0.185043	-2.127812	99
Es	0.167963	1.406189	-0.834569	99
Es	1.519191	0.314003	-1.631742	99
Es	0.626388	-0.159775	-0.843831	99
Es	0.642839	0.576213	1.566449	99
Es	2.350568	0.971004	1.024385	99
Es	0.010384	0.770520	-0.564296	99
Es	1.222660	-0.473644	1.359438	99
Es	0.215312	-0.022641	-0.173136	99
Es	-0.394640	-0.453514	-0.100335	99
Es	2.072575	1.352503	0.569579	99
Es	-2.032998	-0.195384	0.730919	99
Es	0.811170	0.171851	-1.555370	99
Es	1.775389	0.650987	0.912936	99
Es	-1.265410	-1.078943	-0.709879	99
Es	-1.925325	-0.133321	1.061555	99
Es	2.400039	0.727773	0.574410	99
Es	-0.259205	1.168527	-1.053927	99
Es	-1.596658	-0.504363	0.381543	99
Es	0.623916	0.082599	0.437500	99
44
Properties=species:S:1:pos:R:3:Z:I:1 energy=-360.96024536305515 field_type=dipole dipole="0.000000 0.000000 0.000000" charge=0
N	-2.032871	-0.195282	0.731389	7
C	-1.001521	-0.893362	-0.027441	6
C	0.215369	-0.022892	-0.172951	6
C	1.037839	0.190198	1.068559	6
O	2.241909	0.901338	0.786679	8
C	0.811369	0.171648	-1.555531	6
O	-0.000051	1.180878	-0.940011	8
H	-2.889220	-0.747692	0.718699	1
H	-2.252970	0.674178	0.241409	1
H	-1.404641	-1.169342	-1.008371	1
H	-0.735871	-1.823892	0.485939	1
H	1.318979	-0.771802	1.510399	1
H	0.478250	0.760168	1.818950	1
H	1.953479	1.747128	0.391649	1
H	0.387039	-0.365642	-2.395111	1
H	1.872910	0.364368	-1.654261	1
Es	-1.596874	-0.504474	0.381287	99
Es	0.215312	-0.022641	-0.173135	99
Es	-2.539649	-0.531478	0.710108	99
Es	-0.809263	-1.528937	0.325095	99
Es	2.241626	0.901459	0.786540	99
Es	-0.258550	1.168504	-1.054194	99
Es	0.009601	0.770196	-0.564071	99
Es	2.352273	0.969464	1.021088	99
Es	2.073440	1.353164	0.569692	99
Es	0.626478	-0.159837	-0.843775	99
Es	0.320514	0.875565	-1.277815	99
Es	0.642828	0.576257	1.566420	99
Es	-1.925123	-0.133467	1.061568	99
Es	-2.172662	0.318618	0.417985	99
Es	0.623855	0.082533	0.437676	99
Es	0.167522	1.405579	-0.834533	99
Es	-1.001580	-0.893274	-0.027361	99
Es	1.776004	0.652924	0.917157	99
Es	0.811170	0.171851	-1.555373	99
Es	1.222686	-0.473669	1.359460	99
Es	-0.394700	-0.453500	-0.100437	99
Es	1.038010	0.190296	1.068449	99
Es	0.000074	1.180589	-0.939989	99
Es	-1.265375	-1.078901	-0.709921	99
Es	-2.033019	-0.195398	0.730799	99
Es	2.396774	0.726652	0.573338	99
Es	0.517327	-0.185012	-2.127968	99
Es	1.519006	0.314004	-1.631608	99
44
Properties=species:S:1:pos:R:3:Z:I:1 energy=-360.96024536305515 field_type=dipole dipole="0.000000 0.000000 0.000000" charge=0
N	-2.032871	-0.195282	0.731389	7
C	-1.001521	-0.893362	-0.027441	6
C	0.215369	-0.022892	-0.172951	6
C	1.037839	0.190198	1.068559	6
O	2.241909	0.901338	0.786679	8
C	0.811369	0.171648	-1.555531	6
O	-0.000051	1.180878	-0.940011	8
H	-2.889220	-0.747692	0.718699	1
H	-2.252970	0.674178	0.241409	1
H	-1.404641	-1.169342	-1.008371	1
H	-0.735871	-1.823892	0.485939	1
H	1.318979	-0.771802	1.510399	1
H	0.478250	0.760168	1.818950	1
H	1.953479	1.747128	0.391649	1
H	0.387039	-0.365642	-2.395111	1
H	1.872910	0.364368	-1.654261	1
Es	0.167138	1.405544	-0.835351	99
Es	1.222691	-0.473793	1.359556	99
Es	0.623815	0.082645	0.437788	99
Es	-0.000152	1.180320	-0.940134	99
Es	-0.257213	1.168406	-1.052537	99
Es	0.319351	0.875613	-1.279305	99
Es	-2.033019	-0.195400	0.730819	99
Es	1.518717	0.314108	-1.631641	99
Es	-1.001578	-0.893275	-0.027362	99
Es	2.400363	0.726875	0.575264	99
Es	0.642894	0.576294	1.566297	99
Es	-1.597197	-0.504652	0.380889	99
Es	0.811168	0.171851	-1.555372	99
Es	-1.265192	-1.078619	-0.710285	99
Es	2.349283	0.970823	1.020199	99
Es	2.072910	1.352546	0.568809	99
Es	-1.924209	-0.132888	1.060355	99
Es	1.038011	0.190296	1.068449	99
Es	-2.539830	-0.531588	0.711849	99
Es	1.775980	0.651807	0.916636	99
Es	-0.809162	-1.529017	0.325159	99
Es	0.010094	0.770467	-0.563383	99
Es	0.517451	-0.184833	-2.127993	99
Es	2.241490	0.901571	0.786894	99
Es	0.215313	-0.022642	-0.173135	99
Es	-0.395010	-0.453733	-0.100143	99
Es	-2.172984	0.318435	0.417823	99
Es	0.626583	-0.160093	-0.843666	99
44
Properties=species:S:1:pos:R:3:Z:I:1 energy=-360.96024536305515 field_type=dipole dipole="0.000000 0.000000 0.000000" charge=0
N	-2.032871	-0.195282	0.731389	7
C	-1.001521	-0.893362	-0.027441	6
C	0.215369	-0.022892	-0.172951	6
C	1.037839	0.190198	1.068559	6
O	2.241909	0.901338	0.786679	8
C	0.811369	0.171648	-1.555531	6
O	-0.000051	1.180878	-0.940011	8
H	-2.889220	-0.747692	0.718699	1
H	-2.252970	0.674178	0.241409	1
H	-1.404641	-1.169342	-1.008371	1
H	-0.735871	-1.823892	0.485939	1
H	1.318979	-0.771802	1.510399	1
H	0.478250	0.760168	1.818950	1
H	1.953479	1.747128	0.391649	1
H	0.387039	-0.365642	-2.395111	1
H	1.872910	0.364368	-1.654261	1
Es	-0.257552	1.167823	-1.052903	99
Es	0.000060	1.180551	-0.940004	99
Es	0.319634	0.875733	-1.279116	99
Es	-2.033018	-0.195401	0.730795	99
Es	1.777393	0.652661	0.920945	99
Es	-2.539997	-0.531856	0.712709	99
Es	0.623707	0.082690	0.437796	99
Es	-1.597683	-0.504643	0.380903	99
Es	0.642922	0.576291	1.566452	99
Es	2.241635	0.901440	0.786579	99
Es	0.215311	-0.022640	-0.173135	99
Es	-2.173032	0.318286	0.417385	99
Es	-1.923447	-0.132568	1.059962	99
Es	-1.001580	-0.893274	-0.027362	99
Es	2.072681	1.353050	0.569297	99
Es	0.626620	-0.160294	-0.843510	99
Es	1.518593	0.314084	-1.631627	99
Es	0.517461	-0.184781	-2.128050	99
Es	-0.395024	-0.453516	-0.100195	99
Es	-0.809061	-1.528997	0.325199	99
Es	0.166800	1.405584	-0.835739	99
Es	0.010386	0.770711	-0.563112	99
Es	2.349506	0.970015	1.016789	99
Es	1.222713	-0.473774	1.359426	99
Es	1.038013	0.190300	1.068448	99
Es	2.398758	0.726365	0.574251	99
Es	0.811167	0.171848	-1.555371	99
Es	-1.265260	-1.078620	-0.710333	99
44
Properties=species:S:1:pos:R:3:Z:I:1 energy=-360.96024536305515 field_type=dipole dipole="0.000000 0.000000 0.000000" charge=0
N	-2.032871	-0.195282	0.731389	7
C	-1.001521	-0.893362	-0.027441	6
C	0.215369	-0.022892	-0.172951	6
C	1.037839	0.190198	1.068559	6
O	2.241909	0.901338	0.786679	8
C	0.811369	0.171648	-1.555531	6
O	-0.000051	1.180878	-0.940011	8
H	-2.889220	-0.747692	0.718699	1
H	-2.252970	0.674178	0.241409	1
H	-1.404641	-1.169342	-1.008371	1
H	-0.735871	-1.823892	0.485939	1
H	1.318979	-0.771802	1.510399	1
H	0.478250	0.760168	1.818950	1
H	1.953479	1.747128	0.391649	1
H	0.387039	-0.365642	-2.395111	1
H	1.872910	0.364368	-1.654261	1
Es	-2.539024	-0.531013	0.709970	99
Es	-0.256973	1.168986	-1.052302	99
Es	0.811170	0.171855	-1.555374	99
Es	1.222711	-0.473861	1.359474	99
Es	2.398506	0.725967	0.574834	99
Es	-2.172875	0.318824	0.417820	99
Es	1.038012	0.190298	1.068449	99
Es	0.167653	1.404622	-0.835530	99
Es	2.349011	0.970209	1.014474	99
Es	-1.265208	-1.078534	-0.710176	99
Es	-0.395037	-0.453578	-0.100098	99
Es	0.623748	0.082826	0.437835	99
Es	0.318814	0.875698	-1.279855	99
Es	2.241608	0.901458	0.786628	99
Es	0.009635	0.770428	-0.563166	99
Es	0.000129	1.180584	-0.939970	99
Es	0.517476	-0.184593	-2.127874	99
Es	2.072963	1.352613	0.568318	99
Es	-1.001580	-0.893275	-0.027362	99
Es	-1.924475	-0.133977	1.062333	99
Es	1.518610	0.314151	-1.631790	99
Es	0.215311	-0.022640	-0.173134	99
Es	-2.033018	-0.195404	0.730810	99
Es	1.777873	0.653364	0.923507	99
Es	0.642873	0.576301	1.566330	99
Es	-0.809117	-1.529137	0.325160	99
Es	-1.597806	-0.504591	0.380767	99
Es	0.626715	-0.160512	-0.843598	99
44
Properties=species:S:1:pos:R:3:Z:I:1 energy=-360.96024536305515 field_type=dipole dipole="0.000000 0.000000 0.000000" charge=0
N	-2.032871	-0.195282	0.731389	7
C	-1.001521	-0.893362	-0.027441	6
C	0.215369	-0.022892	-0.172951	6
C	1.037839	0.190198	1.068559	6
O	2.241909	0.901338	0.786679	8
C	0.811369	0.171648	-1.555531	6
O	-0.000051	1.180878	-0.940011	8
H	-2.889220	-0.747692	0.718699	1
H	-2.252970	0.674178	0.241409	1
H	-1.404641	-1.169342	-1.008371	1
H	-0.735871	-1.823892	0.485939	1
H	1.318979	-0.771802	1.510399	1
H	0.478250	0.760168	1.818950	1
H	1.953479	1.747128	0.391649	1
H	0.387039	-0.365642	-2.395111	1
H	1.872910	0.364368	-1.654261	1
Es	-2.173171	0.318253	0.417173	99
Es	-1.924647	-0.133536	1.063267	99
Es	0.517490	-0.184607	-2.127779	99
Es	0.215315	-0.022643	-0.173132	99
Es	-2.538566	-0.530800	0.709532	99
Es	-2.033016	-0.195398	0.730812	99
Es	2.347514	0.970149	1.013293	99
Es	1.222719	-0.473897	1.359498	99
Es	0.166945	1.404081	-0.835301	99
Es	-1.001581	-0.893273	-0.027361	99
Es	1.518446	0.314140	-1.631878	99
Es	-0.809111	-1.529200	0.325223	99
Es	-0.395218	-0.453647	-0.099951	99
Es	-1.265109	-1.078441	-0.710235	99
Es	0.319192	0.876515	-1.280425	99
Es	0.623849	0.082754	0.437768	99
Es	0.000363	1.180603	-0.939866	99
Es	0.642865	0.576290	1.566284	99
Es	2.399594	0.725742	0.575397	99
Es	-0.256013	1.169138	-1.052181	99
Es	-1.597779	-0.504629	0.380841	99
Es	2.241662	0.901437	0.786600	99
Es	1.777928	0.653459	0.924040	99
Es	0.626693	-0.160532	-0.843386	99
Es	0.008927	0.770105	-0.563245	99
Es	2.073234	1.352849	0.568414	99
Es	1.038013	0.190297	1.068448	99
Es	0.811167	0.171860	-1.555372	99
44
Properties=species:S:1:pos:R:3:Z:I:1 energy=-360.96024536305515 field_type=dipole dipole="0.000000 0.000000 0.000000" charge=0
N	-2.032871	-0.195282	0.731389	7
C	-1.001521	-0.893362	-0.027441	6
C	0.215369	-0.022892	-0.172951	6
C	1.037839	0.190198	1.068559	6
O	2.241909	0.901338	0.786679	8
C	0.811369	0.171648	-1.555531	6
O	-0.000051	1.180878	-0.940011	8
H	-2.889220	-0.747692	0.718699	1
H	-2.252970	0.674178	0.241409	1
H	-1.404641	-1.169342	-1.008371	1
H	-0.735871	-1.823892	0.485939	1
H	1.318979	-0.771802	1.510399	1
H	0.478250	0.760168	1.818950	1
H	1.953479	1.747128	0.391649	1
H	0.387039	-0.365642	-2.395111	1
H	1.872910	0.364368	-1.654261	1
Es	-1.597580	-0.504495	0.381055	99
Es	0.319973	0.876663	-1.280111	99
Es	-2.173274	0.318308	0.417188	99
Es	-1.001580	-0.893278	-0.027364	99
Es	-2.538961	-0.531308	0.710600	99
Es	0.642940	0.576334	1.566225	99
Es	1.518419	0.314152	-1.631636	99
Es	2.241588	0.901457	0.786571	99
Es	-1.265086	-1.078399	-0.710361	99
Es	-0.808940	-1.529155	0.325219	99
Es	-0.395369	-0.453741	-0.099990	99
Es	0.517554	-0.184506	-2.128087	99
Es	0.163484	1.407724	-0.836571	99
Es	2.073145	1.352985	0.568225	99
Es	-0.254784	1.164386	-1.051761	99
Es	0.811172	0.171852	-1.555372	99
Es	0.623876	0.082746	0.437662	99
Es	0.010586	0.770917	-0.562411	99
Es	0.626575	-0.160444	-0.843552	99
Es	-2.033017	-0.195398	0.730828	99
Es	0.215314	-0.022643	-0.173136	99
Es	-1.924350	-0.133187	1.062030	99
Es	1.779307	0.654062	0.928203	99
Es	2.348853	0.969138	1.010299	99
Es	0.000125	1.180583	-0.939966	99
Es	1.038012	0.190297	1.068448	99
Es	2.396995	0.725874	0.574608	99
Es	1.222727	-0.473855	1.359637	99
44
Properties=species:S:1:pos:R:3:Z:I:1 energy=-360.96024536305515 field_type=dipole dipole="0.000000 0.000000 0.000000" charge=0
N	-2.032871	-0.195282	0.731389	7
C	-1.001521	-0.893362	-0.027441	6
C	0.215369	-0.022892	-0.172951	6
C	1.037839	0.190198	1.068559	6
O	2.241909	0.901338	0.786679	8
C	0.811369	0.171648	-1.555531	6
O	-0.000051	1.180878	-0.940011	8
H	-2.889220	-0.747692	0.718699	1
H	-2.252970	0.674178	0.241409	1
H	-1.404641	-1.169342	-1.008371	1
H	-0.735871	-1.823892	0.485939	1
H	1.318979	-0.771802	1.510399	1
H	0.478250	0.760168	1.818950	1
H	1.953479	1.747128	0.391649	1
H	0.387039	-0.365642	-2.395111	1
H	1.872910	0.364368	-1.654261	1
Es	0.626704	-0.160776	-0.843413	99
Es	0.010552	0.770678	-0.562106	99
Es	-0.808993	-1.529181	0.325227	99
Es	0.642882	0.576339	1.566210	99
Es	-0.253913	1.164701	-1.051062	99
Es	-2.538541	-0.530878	0.709902	99
Es	-1.264994	-1.078284	-0.710522	99
Es	1.222696	-0.473890	1.359598	99
Es	0.811167	0.171851	-1.555371	99
Es	-1.001580	-0.893274	-0.027362	99
Es	-2.173259	0.318520	0.417303	99
Es	-0.395375	-0.453714	-0.099900	99
Es	0.623736	0.082706	0.437903	99
Es	-1.597550	-0.504682	0.381037	99
Es	0.000131	1.180535	-0.939981	99
Es	2.241668	0.901423	0.786612	99
Es	0.517663	-0.184384	-2.127973	99
Es	2.073165	1.352947	0.568091	99
Es	2.399169	0.726404	0.575749	99
Es	0.319475	0.877525	-1.281072	99
Es	2.347089	0.969776	1.010811	99
Es	1.518292	0.314198	-1.631698	99
Es	0.163183	1.406892	-0.836793	99
Es	1.778811	0.653002	0.926526	99
Es	-2.033002	-0.195394	0.730867	99
Es	1.038014	0.190299	1.068448	99
Es	-1.924799	-0.133624	1.062580	99
Es	0.215312	-0.022646	-0.173130	99
44
Properties=species:S:1:pos:R:3:Z:I:1 energy=-360.96024536305515 field_type=dipole dipole="0.000000 0.000000 0.000000" charge=0
N	-2.032871	-0.195282	0.731389	7
C	-1.001521	-0.893362	-0.027441	6
C	0.215369	-0.022892	-0.172951	6
C	1.037839	0.190198	1.068559	6
O	2.241909	0.901338	0.786679	8
C	0.811369	0.171648	-1.555531	6
O	-0.000051	1.180878	-0.940011	8
H	-2.889220	-0.747692	0.718699	1
H	-2.252970	0.674178	0.241409	1
H	-1.404641	-1.169342	-1.008371	1
H	-0.735871	-1.823892	0.485939	1
H	1.318979	-0.771802	1.510399	1
H	0.478250	0.760168	1.818950	1
H	1.953479	1.747128	0.391649	1
H	0.387039	-0.365642	-2.395111	1
H	1.872910	0.364368	-1.654261	1
Es	-1.597903	-0.504834	0.381035	99
Es	2.397596	0.725457	0.574829	99
Es	0.626752	-0.160716	-0.843345	99
Es	1.038015	0.190300	1.068447	99
Es	-1.264931	-1.078183	-0.710557	99
Es	-1.924019	-0.132850	1.061803	99
Es	2.348320	0.969703	1.010254	99
Es	1.518354	0.314276	-1.631915	99
Es	-0.395446	-0.453836	-0.100037	99
Es	2.072925	1.352553	0.567813	99
Es	-2.033011	-0.195387	0.730846	99
Es	0.517558	-0.184320	-2.127821	99
Es	0.811171	0.171857	-1.555377	99
Es	1.779400	0.654409	0.928320	99
Es	0.623634	0.082623	0.438000	99
Es	0.642952	0.576304	1.566188	99
Es	2.241614	0.901438	0.786576	99
Es	0.321126	0.877706	-1.279828	99
Es	-2.173491	0.318120	0.416681	99
Es	-0.808953	-1.529247	0.325239	99
Es	1.222744	-0.473851	1.359684	99
Es	-0.252111	1.160802	-1.051702	99
Es	0.159721	1.410053	-0.837759	99
Es	-2.538709	-0.531053	0.711305	99
Es	0.215310	-0.022634	-0.173133	99
Es	0.010693	0.771196	-0.561645	99
Es	-1.001580	-0.893276	-0.027363	99
Es	-0.000026	1.180459	-0.940058	99
44
Properties=species:S:1:pos:R:3:Z:I:1 energy=-360.96024536305515 field_type=dipole dipole="0.000000 0.000000 0.000000" charge=0
N	-2.032871	-0.195282	0.731389	7
C	-1.001521	-0.893362	-0.027441	6
C	0.215369	-0.022892	-0.172951	6
C	1.037839	0.190198	1.068559	6
O	2.241909	0.901338	0.786679	8
C	0.811369	0.171648	-1.555531	6
O	-0.000051	1.180878	-0.940011	8
H	-2.889220	-0.747692	0.718699	1
H	-2.252970	0.674178	0.241409	1
H	-1.404641	-1.169342	-1.008371	1
H	-0.735871	-1.823892	0.485939	1
H	1.318979	-0.771802	1.510399	1
H	0.478250	0.760168	1.818950	1
H	1.953479	1.747128	0.391649	1
H	0.387039	-0.365642	-2.395111	1
H	1.872910	0.364368	-1.654261	1
Es	2.346637	0.970357	1.008426	99
Es	0.011953	0.771624	-0.561370	99
Es	-2.537843	-0.530456	0.709283	99
Es	0.157407	1.412564	-0.838655	99
Es	0.321002	0.877747	-1.280261	99
Es	2.241534	0.901474	0.786682	99
Es	0.517575	-0.184266	-2.127665	99
Es	-1.264983	-1.078305	-0.710483	99
Es	1.518466	0.314248	-1.631977	99
Es	2.398879	0.725710	0.576647	99
Es	1.222708	-0.473853	1.359815	99
Es	-0.250983	1.157664	-1.050914	99
Es	-0.808883	-1.529170	0.325232	99
Es	-2.173632	0.318084	0.416828	99
Es	0.642950	0.576303	1.566053	99
Es	1.779690	0.654183	0.929679	99
Es	-1.597633	-0.504875	0.381051	99
Es	0.626466	-0.160797	-0.843341	99
Es	2.073160	1.351890	0.566264	99
Es	0.215313	-0.022641	-0.173133	99
Es	0.000100	1.180597	-0.939971	99
Es	0.623803	0.082623	0.437950	99
Es	0.811172	0.171854	-1.555372	99
Es	1.038012	0.190296	1.068448	99
Es	-2.033016	-0.195403	0.730798	99
Es	-1.001581	-0.893274	-0.027361	99
Es	-0.395483	-0.453654	-0.099897	99
Es	-1.925084	-0.133455	1.063722	99
44
Properties=species:S:1:pos:R:3:Z:I:1 energy=-360.96024536305515 field_type=dipole dipole="0.000000 0.000000 0.000000" charge=0
N	-2.032871	-0.195282	0.731389	7
C	-1.001521	-0.893362	-0.027441	6
C	0.215369	-0.022892	-0.172951	6
C	1.037839	0.190198	1.068559	6
O	2.241909	0.901338	0.786679	8
C	0.811369	0.171648	-1.555531	6
O	-0.000051	1.180878	-0.940011	8
H	-2.889220	-0.747692	0.718699	1
H	-2.252970	0.674178	0.241409	1
H	-1.404641	-1.169342	-1.008371	1
H	-0.735871	-1.823892	0.485939	1
H	1.318979	-0.771802	1.510399	1
H	0.478250	0.760168	1.818950	1
H	1.953479	1.747128	0.391649	1
H	0.387039	-0.365642	-2.395111	1
H	1.872910	0.364368	-1.654261	1
Es	-1.001581	-0.893274	-0.027361	99
Es	0.626586	-0.161015	-0.843341	99
Es	-0.808851	-1.529277	0.325304	99
Es	-0.395657	-0.453713	-0.099737	99
Es	-1.924390	-0.133161	1.062956	99
Es	1.222714	-0.473920	1.359660	99
Es	0.642933	0.576332	1.566161	99
Es	2.400581	0.725341	0.577684	99
Es	2.345338	0.970890	1.009606	99
Es	1.518396	0.314267	-1.632065	99
Es	0.321059	0.878834	-1.280922	99
Es	0.517538	-0.184196	-2.127632	99