46
Properties=species:S:1:pos:R:3:Z:I:1 energy=-325.140020064935 field_type=dipole dipole="0.000000 0.000000 0.000000" charge=0
N	-1.729281	-0.343692	1.026908	7
C	-1.583691	0.120218	-0.356292	6
C	-0.285851	0.908948	-0.583302	6
C	0.974899	0.076518	-0.464542	6
C	1.568849	-0.448312	-1.551492	6
C	1.571509	-0.082752	0.909208	6
O	0.877769	-1.077782	1.640858	8
H	-2.581791	-0.905102	1.093218	1
H	-1.887891	0.461968	1.635438	1
H	-2.440701	0.757748	-0.602212	1
H	-1.618861	-0.744112	-1.028892	1
H	-0.233591	1.761068	0.105888	1
H	-0.333341	1.351918	-1.587471	1
H	1.152029	-0.325932	-2.545922	1
H	2.476089	-1.039142	-1.466402	1
H	1.529399	0.860358	1.463388	1
H	2.623869	-0.378002	0.858978	1
H	-0.079421	-0.953912	1.452638	1
Es	-0.285859	0.908905	-0.583285	99
Es	0.963080	-1.343198	1.511811	99
Es	2.185437	-0.847722	-1.500427	99
Es	-0.919933	0.506009	-0.455872	99
Es	0.335714	0.483536	-0.513126	99
Es	-2.248447	-0.669927	1.058386	99
Es	1.101970	-0.461954	-0.981937	99
Es	1.264885	0.004863	0.208563	99
Es	1.286157	-0.366376	-2.231663	99
Es	-1.834892	0.149907	1.379852	99
Es	-0.322557	1.201114	-1.268326	99
Es	2.293924	-0.282542	0.864058	99
Es	-0.253667	1.482093	-0.101983	99
Es	0.974813	0.076592	-0.464456	99
Es	0.403418	-0.997842	1.535780	99
Es	-1.606390	-0.470427	-0.811356	99
Es	1.125362	-0.681760	1.345443	99
Es	1.568884	-0.448356	-1.551580	99
Es	1.571373	-0.082877	0.909260	99
Es	1.536824	0.581715	1.277748	99
Es	-1.423086	-0.534681	1.138714	99
Es	-1.583669	0.120195	-0.356129	99
Es	-1.729671	-0.343418	1.026745	99
Es	-1.682394	-0.133760	0.437419	99
Es	1.456614	0.086318	-1.062045	99
Es	0.929255	-1.013264	1.937190	99
Es	0.877618	-1.077523	1.640592	99
Es	-2.172586	0.566734	-0.530416	99
46
Properties=species:S:1:pos:R:3:Z:I:1 energy=-325.140020064935 field_type=dipole dipole="0.000000 0.000000 0.000000" charge=0
N	-1.729281	-0.343692	1.026908	7
C	-1.583691	0.120218	-0.356292	6
C	-0.285851	0.908948	-0.583302	6
C	0.974899	0.076518	-0.464542	6
C	1.568849	-0.448312	-1.551492	6
C	1.571509	-0.082752	0.909208	6
O	0.877769	-1.077782	1.640858	8
H	-2.581791	-0.905102	1.093218	1
H	-1.887891	0.461968	1.635438	1
H	-2.440701	0.757748	-0.602212	1
H	-1.618861	-0.744112	-1.028892	1
H	-0.233591	1.761068	0.105888	1
H	-0.333341	1.351918	-1.587471	1
H	1.152029	-0.325932	-2.545922	1
H	2.476089	-1.039142	-1.466402	1
H	1.529399	0.860358	1.463388	1
H	2.623869	-0.378002	0.858978	1
H	-0.079421	-0.953912	1.452638	1
Es	-0.285860	0.908905	-0.583284	99
Es	-1.427994	-0.535459	1.139452	99
Es	-1.834772	0.151337	1.381977	99
Es	1.126149	-0.684595	1.343642	99
Es	0.404014	-0.994724	1.535874	99
Es	0.961934	-1.346645	1.513847	99
Es	-0.919881	0.506168	-0.456132	99
Es	0.974814	0.076593	-0.464457	99
Es	0.877648	-1.077559	1.640650	99
Es	0.335155	0.482745	-0.513197	99
Es	-2.247481	-0.668625	1.056908	99
Es	1.456605	0.086683	-1.062591	99
Es	-2.171868	0.566792	-0.530298	99
Es	-1.729686	-0.343412	1.026740	99
Es	1.536528	0.582473	1.277818	99
Es	1.286568	-0.366151	-2.231082	99
Es	-1.583669	0.120193	-0.356130	99
Es	1.101612	-0.463183	-0.981520	99
Es	1.568884	-0.448355	-1.551578	99
Es	1.571367	-0.082883	0.909263	99
Es	0.928912	-1.009561	1.936475	99
Es	2.186311	-0.846923	-1.500902	99
Es	-0.322846	1.200442	-1.267798	99
Es	-1.606413	-0.470999	-0.811944	99
Es	2.294157	-0.283118	0.863575	99
Es	-0.253832	1.482986	-0.101375	99
Es	1.264582	0.004422	0.208705	99
Es	-1.678761	-0.135192	0.436322	99
46
Properties=species:S:1:pos:R:3:Z:I:1 energy=-325.140020064935 field_type=dipole dipole="0.000000 0.000000 0.000000" charge=0
N	-1.729281	-0.343692	1.026908	7
C	-1.583691	0.120218	-0.356292	6
C	-0.285851	0.908948	-0.583302	6
C	0.974899	0.076518	-0.464542	6
C	1.568849	-0.448312	-1.551492	6
C	1.571509	-0.082752	0.909208	6
O	0.877769	-1.077782	1.640858	8
H	-2.581791	-0.905102	1.093218	1
H	-1.887891	0.461968	1.635438	1
H	-2.440701	0.757748	-0.602212	1
H	-1.618861	-0.744112	-1.028892	1
H	-0.233591	1.761068	0.105888	1
H	-0.333341	1.351918	-1.587471	1
H	1.152029	-0.325932	-2.545922	1
H	2.476089	-1.039142	-1.466402	1
H	1.529399	0.860358	1.463388	1
H	2.623869	-0.378002	0.858978	1
H	-0.079421	-0.953912	1.452638	1
Es	0.403748	-0.992550	1.538583	99
Es	1.568884	-0.448360	-1.551582	99
Es	-1.583669	0.120193	-0.356128	99
Es	-1.432760	-0.535403	1.140378	99
Es	-1.834361	0.152249	1.383154	99
Es	0.959948	-1.347691	1.513948	99
Es	-0.285861	0.908907	-0.583285	99
Es	2.187054	-0.846213	-1.501365	99
Es	0.974813	0.076591	-0.464455	99
Es	2.294517	-0.283471	0.863215	99
Es	-1.606554	-0.471365	-0.812427	99
Es	-2.171346	0.566934	-0.530051	99
Es	1.101456	-0.464105	-0.981131	99
Es	-0.323125	1.200052	-1.267268	99
Es	1.571368	-0.082886	0.909263	99
Es	1.456626	0.087037	-1.063037	99
Es	0.877641	-1.077635	1.640729	99
Es	1.124483	-0.687893	1.340173	99
Es	-2.247065	-0.667575	1.056152	99
Es	-0.254000	1.483531	-0.100907	99
Es	-0.919825	0.506245	-0.456425	99
Es	1.286828	-0.365983	-2.230524	99
Es	0.932782	-1.006935	1.936745	99
Es	1.536180	0.582803	1.277829	99
Es	-1.674833	-0.136884	0.435130	99
Es	0.334665	0.482019	-0.513189	99
Es	1.264272	0.004154	0.208689	99
Es	-1.729686	-0.343409	1.026747	99
46
Properties=species:S:1:pos:R:3:Z:I:1 energy=-325.140020064935 field_type=dipole dipole="0.000000 0.000000 0.000000" charge=0
N	-1.729281	-0.343692	1.026908	7
C	-1.583691	0.120218	-0.356292	6
C	-0.285851	0.908948	-0.583302	6
C	0.974899	0.076518	-0.464542	6
C	1.568849	-0.448312	-1.551492	6
C	1.571509	-0.082752	0.909208	6
O	0.877769	-1.077782	1.640858	8
H	-2.581791	-0.905102	1.093218	1
H	-1.887891	0.461968	1.635438	1
H	-2.440701	0.757748	-0.602212	1
H	-1.618861	-0.744112	-1.028892	1
H	-0.233591	1.761068	0.105888	1
H	-0.333341	1.351918	-1.587471	1
H	1.152029	-0.325932	-2.545922	1
H	2.476089	-1.039142	-1.466402	1
H	1.529399	0.860358	1.463388	1
H	2.623869	-0.378002	0.858978	1
H	-0.079421	-0.953912	1.452638	1
Es	-1.583670	0.120193	-0.356132	99
Es	-1.671037	-0.138615	0.433828	99
Es	1.568889	-0.448352	-1.551584	99
Es	0.974812	0.076593	-0.464455	99
Es	2.294915	-0.283767	0.862691	99
Es	-2.170992	0.566864	-0.530001	99
Es	0.937233	-1.007133	1.936838	99
Es	1.535799	0.583088	1.277834	99
Es	-1.437734	-0.534650	1.140988	99
Es	-0.323195	1.199610	-1.266716	99
Es	1.456405	0.086928	-1.063357	99
Es	1.123252	-0.690143	1.338439	99
Es	1.286969	-0.365615	-2.230013	99
Es	0.957631	-1.347381	1.512178	99
Es	-1.834691	0.152844	1.384749	99
Es	0.402893	-0.990124	1.541730	99
Es	-1.729695	-0.343411	1.026754	99
Es	-2.245657	-0.666918	1.055406	99
Es	-1.606500	-0.471603	-0.812715	99
Es	-0.285861	0.908905	-0.583284	99
Es	1.571368	-0.082884	0.909263	99
Es	0.334362	0.481576	-0.513076	99
Es	-0.919744	0.506270	-0.456880	99
Es	2.187844	-0.845706	-1.501760	99
Es	1.263981	0.003860	0.208962	99
Es	1.101363	-0.464572	-0.980910	99
Es	0.877648	-1.077592	1.640712	99
Es	-0.254410	1.484090	-0.100527	99
46
Properties=species:S:1:pos:R:3:Z:I:1 energy=-325.140020064935 field_type=dipole dipole="0.000000 0.000000 0.000000" charge=0
N	-1.729281	-0.343692	1.026908	7
C	-1.583691	0.120218	-0.356292	6
C	-0.285851	0.908948	-0.583302	6
C	0.974899	0.076518	-0.464542	6
C	1.568849	-0.448312	-1.551492	6
C	1.571509	-0.082752	0.909208	6
O	0.877769	-1.077782	1.640858	8
H	-2.581791	-0.905102	1.093218	1
H	-1.887891	0.461968	1.635438	1
H	-2.440701	0.757748	-0.602212	1
H	-1.618861	-0.744112	-1.028892	1
H	-0.233591	1.761068	0.105888	1
H	-0.333341	1.351918	-1.587471	1
H	1.152029	-0.325932	-2.545922	1
H	2.476089	-1.039142	-1.466402	1
H	1.529399	0.860358	1.463388	1
H	2.623869	-0.378002	0.858978	1
H	-0.079421	-0.953912	1.452638	1
Es	1.123314	-0.693056	1.336061	99
Es	-2.170597	0.566845	-0.530084	99
Es	-0.919677	0.506310	-0.457141	99
Es	1.571367	-0.082885	0.909264	99
Es	1.456208	0.086870	-1.063587	99
Es	0.938050	-1.003610	1.935965	99
Es	1.535569	0.583272	1.277912	99
Es	-2.244957	-0.666003	1.054533	99
Es	-1.442375	-0.533954	1.141827	99
Es	0.957061	-1.348577	1.514797	99
Es	1.263755	0.003588	0.209184	99
Es	2.295166	-0.284104	0.862277	99
Es	0.974807	0.076588	-0.464453	99
Es	-0.254699	1.484199	-0.100132	99
Es	-1.666988	-0.140342	0.433178	99
Es	-1.583669	0.120193	-0.356131	99
Es	-0.285861	0.908905	-0.583284	99
Es	1.568885	-0.448358	-1.551582	99
Es	-1.606408	-0.471780	-0.812945	99
Es	-1.834958	0.153257	1.385703	99
Es	2.188436	-0.845152	-1.502178	99
Es	0.402599	-0.989080	1.542040	99
Es	1.287083	-0.365337	-2.229569	99
Es	1.101301	-0.465027	-0.980736	99
Es	0.334325	0.481077	-0.513283	99
Es	-0.323571	1.199603	-1.266182	99
Es	0.877706	-1.077673	1.640765	99
Es	-1.729694	-0.343413	1.026743	99
46
Properties=species:S:1:pos:R:3:Z:I:1 energy=-325.140020064935 field_type=dipole dipole="0.000000 0.000000 0.000000" charge=0
N	-1.729281	-0.343692	1.026908	7
C	-1.583691	0.120218	-0.356292	6
C	-0.285851	0.908948	-0.583302	6
C	0.974899	0.076518	-0.464542	6
C	1.568849	-0.448312	-1.551492	6
C	1.571509	-0.082752	0.909208	6
O	0.877769	-1.077782	1.640858	8
H	-2.581791	-0.905102	1.093218	1
H	-1.887891	0.461968	1.635438	1
H	-2.440701	0.757748	-0.602212	1
H	-1.618861	-0.744112	-1.028892	1
H	-0.233591	1.761068	0.105888	1
H	-0.333341	1.351918	-1.587471	1
H	1.152029	-0.325932	-2.545922	1
H	2.476089	-1.039142	-1.466402	1
H	1.529399	0.860358	1.463388	1
H	2.623869	-0.378002	0.858978	1
H	-0.079421	-0.953912	1.452638	1
Es	1.101369	-0.465068	-0.980612	99
Es	1.571367	-0.082883	0.909263	99
Es	0.953018	-1.347085	1.509964	99
Es	0.334099	0.480747	-0.513397	99
Es	0.974809	0.076585	-0.464453	99
Es	-1.606355	-0.471899	-0.813224	99
Es	2.188961	-0.844855	-1.502361	99
Es	-0.254874	1.484482	-0.099873	99
Es	1.535343	0.583358	1.278006	99
Es	0.877628	-1.077554	1.640698	99
Es	-1.447577	-0.533029	1.142251	99
Es	-1.662767	-0.142480	0.432451	99
Es	1.568887	-0.448355	-1.551583	99
Es	1.287116	-0.365277	-2.229192	99
Es	-1.834650	0.153515	1.386672	99
Es	0.943889	-1.008105	1.935569	99
Es	-2.244450	-0.664870	1.054025	99
Es	-0.285860	0.908901	-0.583286	99
Es	-2.170214	0.566927	-0.530094	99
Es	1.122756	-0.694007	1.336112	99
Es	0.401559	-0.984946	1.547048	99
Es	-1.583669	0.120192	-0.356128	99
Es	1.455975	0.086741	-1.063844	99
Es	-0.323786	1.199370	-1.265752	99
Es	-1.729703	-0.343406	1.026745	99
Es	-0.919653	0.506260	-0.457261	99
Es	2.295368	-0.284316	0.861971	99
Es	1.263591	0.003409	0.209247	99
46
Properties=species:S:1:pos:R:3:Z:I:1 energy=-325.140020064935 field_type=dipole dipole="0.000000 0.000000 0.000000" charge=0
N	-1.729281	-0.343692	1.026908	7
C	-1.583691	0.120218	-0.356292	6
C	-0.285851	0.908948	-0.583302	6
C	0.974899	0.076518	-0.464542	6
C	1.568849	-0.448312	-1.551492	6
C	1.571509	-0.082752	0.909208	6
O	0.877769	-1.077782	1.640858	8
H	-2.581791	-0.905102	1.093218	1
H	-1.887891	0.461968	1.635438	1
H	-2.440701	0.757748	-0.602212	1
H	-1.618861	-0.744112	-1.028892	1
H	-0.233591	1.761068	0.105888	1
H	-0.333341	1.351918	-1.587471	1
H	1.152029	-0.325932	-2.545922	1
H	2.476089	-1.039142	-1.466402	1
H	1.529399	0.860358	1.463388	1
H	2.623869	-0.378002	0.858978	1
H	-0.079421	-0.953912	1.452638	1
Es	1.535040	0.583305	1.278182	99
Es	0.974812	0.076591	-0.464453	99
Es	-1.452092	-0.532235	1.142673	99
Es	-1.658761	-0.144420	0.432224	99
Es	0.334054	0.480509	-0.513542	99
Es	1.568887	-0.448357	-1.551582	99
Es	-1.729661	-0.343424	1.026751	99
Es	1.101416	-0.465278	-0.980407	99
Es	0.946385	-1.009226	1.935588	99
Es	1.571371	-0.082884	0.909262	99
Es	1.287091	-0.365116	-2.228845	99
Es	1.455805	0.086606	-1.064051	99
Es	-0.919425	0.506225	-0.457587	99
Es	-1.835205	0.153678	1.387588	99
Es	-1.606225	-0.471977	-0.813358	99
Es	-1.583668	0.120192	-0.356128	99
Es	0.877616	-1.077544	1.640655	99
Es	-2.243524	-0.663692	1.053081	99
Es	0.401024	-0.983891	1.548743	99
Es	-2.170004	0.566868	-0.530164	99
Es	0.951358	-1.345904	1.509133	99
Es	1.122607	-0.694881	1.334935	99
Es	-0.285861	0.908906	-0.583285	99
Es	2.189398	-0.844484	-1.502683	99
Es	1.263468	0.003350	0.209283	99
Es	-0.255267	1.484545	-0.099427	99
Es	2.295655	-0.284467	0.861641	99
Es	-0.324116	1.199362	-1.265265	99
46
Properties=species:S:1:pos:R:3:Z:I:1 energy=-325.140020064935 field_type=dipole dipole="0.000000 0.000000 0.000000" charge=0
N	-1.729281	-0.343692	1.026908	7
C	-1.583691	0.120218	-0.356292	6
C	-0.285851	0.908948	-0.583302	6
C	0.974899	0.076518	-0.464542	6
C	1.568849	-0.448312	-1.551492	6
C	1.571509	-0.082752	0.909208	6
O	0.877769	-1.077782	1.640858	8
H	-2.581791	-0.905102	1.093218	1
H	-1.887891	0.461968	1.635438	1
H	-2.440701	0.757748	-0.602212	1
H	-1.618861	-0.744112	-1.028892	1
H	-0.233591	1.761068	0.105888	1
H	-0.333341	1.351918	-1.587471	1
H	1.152029	-0.325932	-2.545922	1
H	2.476089	-1.039142	-1.466402	1
H	1.529399	0.860358	1.463388	1
H	2.623869	-0.378002	0.858978	1
H	-0.079421	-0.953912	1.452638	1
Es	2.295792	-0.284662	0.861338	99
Es	1.286958	-0.365043	-2.228403	99
Es	1.568890	-0.448353	-1.551585	99
Es	-1.729692	-0.343428	1.026750	99
Es	1.571368	-0.082883	0.909263	99
Es	1.534801	0.583386	1.278353	99
Es	0.945731	-1.002733	1.934995	99
Es	2.189734	-0.844433	-1.503037	99
Es	-1.655580	-0.146056	0.432060	99
Es	-0.919491	0.506441	-0.457836	99
Es	-1.835998	0.153735	1.388252	99
Es	0.334021	0.480209	-0.513677	99
Es	0.974811	0.076589	-0.464454	99
Es	0.877639	-1.077568	1.640617	99
Es	-0.324330	1.199216	-1.264776	99
Es	-0.255575	1.484718	-0.099189	99
Es	1.263415	0.003266	0.209371	99
Es	-2.169879	0.566803	-0.530169	99
Es	-1.455546	-0.530760	1.142720	99
Es	0.400885	-0.984788	1.546951	99
Es	1.124288	-0.700106	1.329225	99
Es	1.455709	0.086521	-1.064145	99
Es	1.101575	-0.465270	-0.980296	99
Es	-1.605985	-0.472123	-0.813552	99
Es	-2.242419	-0.663395	1.052644	99
Es	-1.583669	0.120193	-0.356130	99
Es	0.950587	-1.346024	1.516956	99
Es	-0.285861	0.908905	-0.583284	99
46
Properties=species:S:1:pos:R:3:Z:I:1 energy=-325.140020064935 field_type=dipole dipole="0.000000 0.000000 0.000000" charge=0
N	-1.729281	-0.343692	1.026908	7
C	-1.583691	0.120218	-0.356292	6
C	-0.285851	0.908948	-0.583302	6
C	0.974899	0.076518	-0.464542	6
C	1.568849	-0.448312	-1.551492	6
C	1.571509	-0.082752	0.909208	6
O	0.877769	-1.077782	1.640858	8
H	-2.581791	-0.905102	1.093218	1
H	-1.887891	0.461968	1.635438	1
H	-2.440701	0.757748	-0.602212	1
H	-1.618861	-0.744112	-1.028892	1
H	-0.233591	1.761068	0.105888	1
H	-0.333341	1.351918	-1.587471	1
H	1.152029	-0.325932	-2.545922	1
H	2.476089	-1.039142	-1.466402	1
H	1.529399	0.860358	1.463388	1
H	2.623869	-0.378002	0.858978	1
H	-0.079421	-0.953912	1.452638	1
Es	0.947864	-1.004732	1.934569	99
Es	1.571369	-0.082882	0.909262	99
Es	0.334283	0.480180	-0.514079	99
Es	-0.919236	0.506411	-0.458023	99
Es	0.946873	-1.344097	1.517071	99
Es	-1.605902	-0.472189	-0.813759	99
Es	0.974806	0.076586	-0.464453	99
Es	2.295886	-0.284784	0.861143	99
Es	1.568888	-0.448353	-1.551584	99
Es	1.263354	0.003138	0.209487	99
Es	-1.458823	-0.529697	1.142632	99
Es	1.455591	0.086231	-1.064233	99
Es	-0.256001	1.484828	-0.098878	99
Es	-1.652755	-0.147937	0.431985	99
Es	-2.241754	-0.662726	1.052405	99
Es	2.189983	-0.844349	-1.503184	99
Es	-0.285861	0.908905	-0.583284	99
Es	0.877619	-1.077535	1.640636	99
Es	0.400561	-0.982406	1.548855	99
Es	-1.729700	-0.343416	1.026748	99
Es	1.101542	-0.465261	-0.980242	99
Es	-0.324720	1.199105	-1.264255	99
Es	-2.169740	0.566889	-0.530108	99
Es	1.126441	-0.702215	1.327312	99
Es	-1.836189	0.153937	1.388705	99
Es	1.534532	0.583444	1.278556	99
Es	-1.583668	0.120192	-0.356127	99
Es	1.286938	-0.364912	-2.228197	99
46
Properties=species:S:1:pos:R:3:Z:I:1 energy=-325.140020064935 field_type=dipole dipole="0.000000 0.000000 0.000000" charge=0
N	-1.729281	-0.343692	1.026908	7
C	-1.583691	0.120218	-0.356292	6
C	-0.285851	0.908948	-0.583302	6
C	0.974899	0.076518	-0.464542	6
C	1.568849	-0.448312	-1.551492	6
C	1.571509	-0.082752	0.909208	6
O	0.877769	-1.077782	1.640858	8
H	-2.581791	-0.905102	1.093218	1
H	-1.887891	0.461968	1.635438	1
H	-2.440701	0.757748	-0.602212	1
H	-1.618861	-0.744112	-1.028892	1
H	-0.233591	1.761068	0.105888	1
H	-0.333341	1.351918	-1.587471	1
H	1.152029	-0.325932	-2.545922	1
H	2.476089	-1.039142	-1.466402	1
H	1.529399	0.860358	1.463388	1
H	2.623869	-0.378002	0.858978	1
H	-0.079421	-0.953912	1.452638	1
Es	-0.285861	0.908905	-0.583285	99
Es	-2.169622	0.566914	-0.530158	99
Es	0.877682	-1.077616	1.640716	99
Es	0.334174	0.479837	-0.514153	99
Es	2.190217	-0.844013	-1.503282	99
Es	-0.919285	0.506465	-0.458127	99
Es	0.945960	-1.343791	1.517023	99
Es	-1.729723	-0.343425	1.026750	99
Es	-2.240894	-0.661684	1.051601	99
Es	0.949235	-1.004888	1.933581	99
Es	-1.605689	-0.472245	-0.813913	99
Es	1.286925	-0.364838	-2.228126	99
Es	1.263247	0.003058	0.209579	99
Es	1.455444	0.086090	-1.064360	99
Es	0.400037	-0.981279	1.550236	99
Es	1.101664	-0.465308	-0.980088	99
Es	-1.836738	0.153781	1.389537	99
Es	-0.324782	1.199028	-1.264011	99
Es	2.296021	-0.284918	0.861047	99
Es	-1.583668	0.120191	-0.356128	99
Es	0.974806	0.076585	-0.464453	99
Es	1.126521	-0.703145	1.326735	99
Es	1.571370	-0.082883	0.909262	99
Es	1.534402	0.583407	1.278596	99
Es	-1.462303	-0.528907	1.142465	99
Es	-0.256220	1.484899	-0.098696	99
Es	1.568894	-0.448347	-1.551580	99
Es	-1.649637	-0.149516	0.432195	99
46
Properties=species:S:1:pos:R:3:Z:I:1 energy=-325.140020064935 field_type=dipole dipole="0.000000 0.000000 0.000000" charge=0
N	-1.729281	-0.343692	1.026908	7
C	-1.583691	0.120218	-0.356292	6
C	-0.285851	0.908948	-0.583302	6
C	0.974899	0.076518	-0.464542	6
C	1.568849	-0.448312	-1.551492	6
C	1.571509	-0.082752	0.909208	6
O	0.877769	-1.077782	1.640858	8
H	-2.581791	-0.905102	1.093218	1
H	-1.887891	0.461968	1.635438	1
H	-2.440701	0.757748	-0.602212	1
H	-1.618861	-0.744112	-1.028892	1
H	-0.233591	1.761068	0.105888	1
H	-0.333341	1.351918	-1.587471	1
H	1.152029	-0.325932	-2.545922	1
H	2.476089	-1.039142	-1.466402	1
H	1.529399	0.860358	1.463388	1
H	2.623869	-0.378002	0.858978	1
H	-0.079421	-0.953912	1.452638	1
Es	1.533986	0.583397	1.278937	99
Es	-0.325108	1.198994	-1.263597	99
Es	0.399743	-0.981346	1.550475	99
Es	0.950014	-1.001987	1.932806	99
Es	1.127999	-0.707403	1.322123	99
Es	0.974810	0.076587	-0.464454	99
Es	-1.729625	-0.343461	1.026792	99
Es	-1.646998	-0.151023	0.432441	99
Es	-1.605633	-0.472307	-0.813939	99
Es	-2.169586	0.566973	-0.530172	99
Es	1.286864	-0.364789	-2.227945	99
Es	-2.240484	-0.661134	1.051309	99
Es	-0.919038	0.506408	-0.458339	99
Es	1.101743	-0.465284	-0.980117	99
Es	0.877708	-1.077592	1.640701	99
Es	1.455378	0.086008	-1.064311	99
Es	2.190304	-0.844138	-1.503409	99
Es	-1.583669	0.120192	-0.356130	99
Es	-1.836734	0.153789	1.390034	99
Es	-0.256592	1.484905	-0.098473	99
Es	-1.465406	-0.527814	1.142024	99
Es	2.296104	-0.284917	0.860860	99
Es	0.944255	-1.342306	1.521745	99
Es	1.263344	0.003047	0.209684	99
Es	-0.285861	0.908906	-0.583285	99
Es	0.334401	0.479890	-0.514478	99
Es	1.568887	-0.448356	-1.551582	99
Es	1.571370	-0.082883	0.909262	99
46
Properties=species:S:1:pos:R:3:Z:I:1 energy=-325.140020064935 field_type=dipole dipole="0.000000 0.000000 0.000000" charge=0
N	-1.729281	-0.343692	1.026908	7
C	-1.583691	0.120218	-0.356292	6
C	-0.285851	0.908948	-0.583302	6
C	0.974899	0.076518	-0.464542	6
C	1.568849	-0.448312	-1.551492	6
C	1.571509	-0.082752	0.909208	6
O	0.877769	-1.077782	1.640858	8
H	-2.581791	-0.905102	1.093218	1
H	-1.887891	0.461968	1.635438	1
H	-2.440701	0.757748	-0.602212	1
H	-1.618861	-0.744112	-1.028892	1
H	-0.233591	1.761068	0.105888	1
H	-0.333341	1.351918	-1.587471	1
H	1.152029	-0.325932	-2.545922	1
H	2.476089	-1.039142	-1.466402	1
H	1.529399	0.860358	1.463388	1
H	2.623869	-0.378002	0.858978	1
H	-0.079421	-0.953912	1.452638	1
Es	-1.837619	0.153947	1.389883	99
Es	-1.605582	-0.472360	-0.814127	99
Es	0.399643	-0.981716	1.550021	99
Es	1.533787	0.583382	1.279270	99
Es	-1.467157	-0.526942	1.142296	99
Es	1.263311	0.003001	0.209608	99
Es	-2.169497	0.567091	-0.530073	99
Es	2.190382	-0.844303	-1.503663	99
Es	-0.918912	0.506503	-0.458466	99
Es	1.130298	-0.710734	1.318613	99
Es	1.568887	-0.448357	-1.551583	99
Es	-0.285861	0.908906	-0.583284	99
Es	1.571368	-0.082883	0.909263	99
Es	2.296103	-0.285037	0.860660	99
Es	0.950190	-1.000975	1.933020	99
Es	-0.325342	1.198856	-1.263162	99
Es	0.334457	0.479806	-0.514675	99
Es	-1.583672	0.120194	-0.356134	99
Es	1.455412	0.086061	-1.064378	99
Es	0.974810	0.076589	-0.464454	99
Es	-0.256780	1.485040	-0.098237	99
Es	1.286749	-0.364816	-2.227624	99
Es	-1.729705	-0.343427	1.026749	99
Es	1.101746	-0.465261	-0.980091	99
Es	-2.239819	-0.660690	1.051073	99
Es	0.877627	-1.077539	1.640659	99
Es	-1.644893	-0.152521	0.432598	99
Es	0.942247	-1.339459	1.525198	99
46
Properties=species:S:1:pos:R:3:Z:I:1 energy=-325.140020064935 field_type=dipole dipole="0.000000 0.000000 0.000000" charge=0
N	-1.729281	-0.343692	1.026908	7
C	-1.583691	0.120218	-0.356292	6
C	-0.285851	0.908948	-0.583302	6
C	0.974899	0.076518	-0.464542	6
C	1.568849	-0.448312	-1.551492	6
C	1.571509	-0.082752	0.909208	6
O	0.877769	-1.077782	1.640858	8
H	-2.581791	-0.905102	1.093218	1
H	-1.887891	0.461968	1.635438	1
H	-2.440701	0.757748	-0.602212	1
H	-1.618861	-0.744112	-1.028892	1
H	-0.233591	1.761068	0.105888	1
H	-0.333341	1.351918	-1.587471	1
H	1.152029	-0.325932	-2.545922	1
H	2.476089	-1.039142	-1.466402	1
H	1.529399	0.860358	1.463388	1
H	2.623869	-0.378002	0.858978	1
H	-0.079421	-0.953912	1.452638	1
Es	1.286712	-0.364923	-2.227431	99
Es	0.951655	-0.998929	1.931167	99
Es	1.455495	0.086102	-1.064429	99
Es	1.263263	0.002996	0.209572	99
Es	2.296069	-0.285072	0.860571	99
Es	0.334615	0.479964	-0.514975	99
Es	-1.467950	-0.526381	1.141810	99
Es	-1.837858	0.153890	1.390401	99
Es	-1.583668	0.120191	-0.356127	99
Es	-0.256969	1.485042	-0.098015	99
Es	1.533629	0.583386	1.279497	99
Es	0.399101	-0.980772	1.551594	99
Es	-1.644683	-0.152742	0.432655	99
Es	1.571370	-0.082883	0.909263	99
Es	2.190416	-0.844371	-1.503770	99
Es	-0.918931	0.506504	-0.458618	99
Es	-1.605459	-0.472464	-0.814244	99
Es	-0.285861	0.908905	-0.583285	99
Es	-1.729713	-0.343401	1.026743	99
Es	1.568893	-0.448349	-1.551588	99
Es	0.974811	0.076590	-0.464454	99
Es	1.101673	-0.465328	-0.980062	99
Es	0.877681	-1.077579	1.640668	99
Es	0.940298	-1.337652	1.529082	99
Es	-0.325442	1.198848	-1.262782	99
Es	-2.239126	-0.660815	1.051075	99
Es	1.131452	-0.715381	1.314770	99
Es	-2.169295	0.566981	-0.530125	99
46
Properties=species:S:1:pos:R:3:Z:I:1 energy=-325.140020064935 field_type=dipole dipole="0.000000 0.000000 0.000000" charge=0
N	-1.729281	-0.343692	1.026908	7
C	-1.583691	0.120218	-0.356292	6
C	-0.285851	0.908948	-0.583302	6
C	0.974899	0.076518	-0.464542	6
C	1.568849	-0.448312	-1.551492	6
C	1.571509	-0.082752	0.909208	6
O	0.877769	-1.077782	1.640858	8
H	-2.581791	-0.905102	1.093218	1
H	-1.887891	0.461968	1.635438	1
H	-2.440701	0.757748	-0.602212	1
H	-1.618861	-0.744112	-1.028892	1
H	-0.233591	1.761068	0.105888	1
H	-0.333341	1.351918	-1.587471	1
H	1.152029	-0.325932	-2.545922	1
H	2.476089	-1.039142	-1.466402	1
H	1.529399	0.860358	1.463388	1
H	2.623869	-0.378002	0.858978	1
H	-0.079421	-0.953912	1.452638	1
Es	1.132615	-0.715948	1.314313	99
Es	2.296148	-0.285169	0.860359	99
Es	1.455383	0.085836	-1.064401	99
Es	1.286671	-0.364710	-2.227248	99
Es	1.568889	-0.448352	-1.551584	99
Es	0.334631	0.479841	-0.515179	99
Es	-0.918942	0.506590	-0.458578	99
Es	0.399245	-0.980275	1.551548	99
Es	-1.837309	0.153900	1.390801	99
Es	0.974807	0.076587	-0.464455	99
Es	0.939213	-1.336587	1.529108	99
Es	0.877628	-1.077554	1.640678	99
Es	-1.583668	0.120192	-0.356128	99
Es	2.190537	-0.844336	-1.504021	99
Es	0.951596	-0.999806	1.931440	99
Es	-1.470837	-0.526096	1.141464	99
Es	-1.729703	-0.343415	1.026746	99
Es	-1.605269	-0.472475	-0.814361	99
Es	-0.285861	0.908907	-0.583285	99
Es	1.263285	0.003029	0.209801	99
Es	-0.325643	1.198769	-1.262611	99
Es	1.571369	-0.082882	0.909262	99
Es	1.101706	-0.465321	-0.980015	99
Es	-1.642085	-0.154389	0.432955	99
Es	-0.257081	1.485084	-0.097920	99
Es	1.533495	0.583322	1.279640	99
Es	-2.169436	0.567128	-0.530056	99
Es	-2.239204	-0.659512	1.050688	99
46
Properties=species:S:1:pos:R:3:Z:I:1 energy=-325.140020064935 field_type=dipole dipole="0.000000 0.000000 0.000000" charge=0
N	-1.729281	-0.343692	1.026908	7
C	-1.583691	0.120218	-0.356292	6
C	-0.285851	0.908948	-0.583302	6
C	0.974899	0.076518	-0.464542	6
C	1.568849	-0.448312	-1.551492	6
C	1.571509	-0.082752	0.909208	6
O	0.877769	-1.077782	1.640858	8
H	-2.581791	-0.905102	1.093218	1
H	-1.887891	0.461968	1.635438	1
H	-2.440701	0.757748	-0.602212	1
H	-1.618861	-0.744112	-1.028892	1
H	-0.233591	1.761068	0.105888	1
H	-0.333341	1.351918	-1.587471	1
H	1.152029	-0.325932	-2.545922	1
H	2.476089	-1.039142	-1.466402	1
H	1.529399	0.860358	1.463388	1
H	2.623869	-0.378002	0.858978	1
H	-0.079421	-0.953912	1.452638	1
Es	-1.605217	-0.472517	-0.814322	99
Es	-1.640520	-0.155467	0.433363	99
Es	2.296221	-0.285183	0.860368	99
Es	1.263278	0.002903	0.209717	99
Es	1.286670	-0.364752	-2.227210	99
Es	-1.838220	0.153971	1.390769	99
Es	1.455293	0.085807	-1.064481	99
Es	-0.257443	1.485030	-0.097840	99
Es	-0.285861	0.908907	-0.583286	99
Es	-0.918752	0.506552	-0.458734	99
Es	-1.583668	0.120192	-0.356127	99
Es	0.399222	-0.981114	1.550292	99
Es	1.132899	-0.717746	1.313122	99
Es	0.939566	-1.336014	1.531259	99
Es	0.334653	0.479805	-0.515015	99
Es	1.533312	0.583339	1.279626	99
Es	0.951089	-0.997634	1.931647	99
Es	1.101805	-0.465208	-0.979983	99
Es	0.974808	0.076588	-0.464455	99
Es	-0.325662	1.198773	-1.262580	99
Es	-1.472390	-0.524927	1.141376	99
Es	2.190665	-0.844306	-1.503953	99
Es	-1.729687	-0.343419	1.026749	99
Es	-2.238484	-0.659510	1.050499	99
Es	0.877625	-1.077533	1.640678	99
Es	1.568890	-0.448350	-1.551584	99
Es	-2.169283	0.567053	-0.530197	99
Es	1.571369	-0.082884	0.909263	99
46
Properties=species:S:1:pos:R:3:Z:I:1 energy=-325.140020064935 field_type=dipole dipole="0.000000 0.000000 0.000000" charge=0
N	-1.729281	-0.343692	1.026908	7
C	-1.583691	0.120218	-0.356292	6
C	-0.285851	0.908948	-0.583302	6
C	0.974899	0.076518	-0.464542	6
C	1.568849	-0.448312	-1.551492	6
C	1.571509	-0.082752	0.909208	6
O	0.877769	-1.077782	1.640858	8
H	-2.581791	-0.905102	1.093218	1
H	-1.887891	0.461968	1.635438	1
H	-2.440701	0.757748	-0.602212	1
H	-1.618861	-0.744112	-1.028892	1
H	-0.233591	1.761068	0.105888	1
H	-0.333341	1.351918	-1.587471	1
H	1.152029	-0.325932	-2.545922	1
H	2.476089	-1.039142	-1.466402	1
H	1.529399	0.860358	1.463388	1
H	2.623869	-0.378002	0.858978	1
H	-0.079421	-0.953912	1.452638	1
Es	1.101631	-0.465431	-0.980019	99
Es	1.533291	0.583354	1.279821	99
Es	-0.285861	0.908904	-0.583283	99
Es	1.263289	0.002945	0.209677	99
Es	0.974806	0.076587	-0.464453	99
Es	-1.583668	0.120192	-0.356128	99
Es	0.877650	-1.077667	1.640709	99
Es	-1.605092	-0.472568	-0.814530	99
Es	-0.918706	0.506658	-0.458820	99
Es	1.568890	-0.448353	-1.551585	99
Es	-1.729709	-0.343420	1.026757	99
Es	2.190614	-0.844423	-1.504112	99
Es	-2.238356	-0.659372	1.050563	99
Es	-1.640520	-0.155585	0.433274	99
Es	2.296150	-0.285250	0.860184	99
Es	1.134241	-0.721435	1.310216	99
Es	1.571368	-0.082885	0.909264	99
Es	0.334827	0.479919	-0.515237	99
Es	-0.257592	1.485103	-0.097589	99
Es	-1.838011	0.153920	1.391020	99
Es	-2.169227	0.567084	-0.530095	99
Es	-1.472671	-0.524903	1.141116	99
Es	1.286638	-0.364827	-2.227026	99
Es	-0.325822	1.198692	-1.262193	99
Es	0.936764	-1.333120	1.532927	99
Es	0.399044	-0.979624	1.552760	99
Es	0.952814	-0.998101	1.930239	99
Es	1.455396	0.085964	-1.064495	99
46
Properties=species:S:1:pos:R:3:Z:I:1 energy=-325.140020064935 field_type=dipole dipole="0.000000 0.000000 0.000000" charge=0
N	-1.729281	-0.343692	1.026908	7
C	-1.583691	0.120218	-0.356292	6
C	-0.285851	0.908948	-0.583302	6
C	0.974899	0.076518	-0.464542	6
C	1.568849	-0.448312	-1.551492	6
C	1.571509	-0.082752	0.909208	6
O	0.877769	-1.077782	1.640858	8
H	-2.581791	-0.905102	1.093218	1
H	-1.887891	0.461968	1.635438	1
H	-2.440701	0.757748	-0.602212	1
H	-1.618861	-0.744112	-1.028892	1
H	-0.233591	1.761068	0.105888	1
H	-0.333341	1.351918	-1.587471	1
H	1.152029	-0.325932	-2.545922	1
H	2.476089	-1.039142	-1.466402	1
H	1.529399	0.860358	1.463388	1
H	2.623869	-0.378002	0.858978	1
H	-0.079421	-0.953912	1.452638	1
Es	-2.169396	0.567335	-0.529928	99
Es	0.877641	-1.077604	1.640712	99
Es	1.263298	0.002853	0.209655	99
Es	1.286564	-0.364863	-2.226936	99
Es	-0.918874	0.506588	-0.458851	99
Es	1.568887	-0.448357	-1.551583	99
Es	-1.474116	-0.523728	1.140832	99
Es	-1.729764	-0.343451	1.026748	99
Es	1.571370	-0.082882	0.909263	99
Es	2.190639	-0.844462	-1.504195	99
Es	1.533198	0.583400	1.279842	99
Es	-1.583668	0.120191	-0.356128	99
Es	-2.237623	-0.659352	1.050514	99
Es	-0.257681	1.485156	-0.097552	99
Es	-0.325737	1.198647	-1.262178	99
Es	-1.638825	-0.156854	0.433393	99
Es	-1.604999	-0.472597	-0.814664	99
Es	-0.285861	0.908906	-0.583285	99
Es	0.952238	-0.996307	1.930052	99
Es	0.334750	0.479898	-0.515129	99
Es	1.135003	-0.723681	1.308641	99
Es	0.937093	-1.331627	1.535728	99
Es	0.398599	-0.980697	1.551647	99
Es	2.296143	-0.285268	0.860162	99
Es	1.101717	-0.465390	-0.979999	99
Es	0.974809	0.076587	-0.464454	99
Es	-1.838659	0.153923	1.391136	99
Es	1.455434	0.085992	-1.064479	99
46
Properties=species:S:1:pos:R:3:Z:I:1 energy=-325.140020064935 field_type=dipole dipole="0.000000 0.000000 0.000000" charge=0
N	-1.729281	-0.343692	1.026908	7
C	-1.583691	0.120218	-0.356292	6
C	-0.285851	0.908948	-0.583302	6
C	0.974899	0.076518	-0.464542	6
C	1.568849	-0.448312	-1.551492	6
C	1.571509	-0.082752	0.909208	6
O	0.877769	-1.077782	1.640858	8
H	-2.581791	-0.905102	1.093218	1
H	-1.887891	0.461968	1.635438	1
H	-2.440701	0.757748	-0.602212	1
H	-1.618861	-0.744112	-1.028892	1
H	-0.233591	1.761068	0.105888	1
H	-0.333341	1.351918	-1.587471	1
H	1.152029	-0.325932	-2.545922	1
H	2.476089	-1.039142	-1.466402	1
H	1.529399	0.860358	1.463388	1
H	2.623869	-0.378002	0.858978	1
H	-0.079421	-0.953912	1.452638	1
Es	1.101656	-0.465385	-0.980010	99
Es	-0.257825	1.485250	-0.097502	99
Es	0.974808	0.076588	-0.464456	99
Es	1.286545	-0.364875	-2.226776	99
Es	-0.285861	0.908906	-0.583285	99
Es	-2.169225	0.567204	-0.530101	99
Es	1.263293	0.002870	0.209700	99
Es	-1.583667	0.120190	-0.356130	99
Es	-1.729717	-0.343410	1.026744	99
Es	-1.838765	0.153902	1.391157	99
Es	1.571369	-0.082882	0.909262	99
Es	-0.326098	1.198488	-1.261668	99
Es	-1.638851	-0.156729	0.433513	99
Es	0.934887	-1.330148	1.537230	99
Es	2.296147	-0.285317	0.860070	99
Es	1.136781	-0.726665	1.306969	99
Es	-0.918727	0.506601	-0.458731	99
Es	0.877624	-1.077525	1.640690	99
Es	1.533100	0.583369	1.279985	99
Es	2.190609	-0.844605	-1.504326	99