39
Properties=species:S:1:pos:R:3:Z:I:1 energy=-338.7168371522243 field_type=dipole dipole="0.000000 0.000000 0.000000" charge=0
N	-2.977689	0.300865	-0.034931	7
N	-1.627549	0.400525	-0.032441	7
C	-1.037249	-0.739205	0.108849	6
O	0.306131	-0.891355	0.134879	8
C	1.065531	0.317435	0.008219	6
C	2.494441	-0.008755	0.101459	6
C	3.663101	-0.274015	0.181079	6
H	-3.380819	1.214585	0.192719	1
H	-3.316239	0.115825	-0.984211	1
H	-1.538279	-1.714735	0.223149	1
H	0.794070	1.012565	0.810749	1
H	0.855800	0.780385	-0.963861	1
H	4.698750	-0.514125	0.254339	1
Es	-3.157784	0.197108	-0.612517	99
Es	1.806868	0.136398	0.057382	99
Es	-1.036935	-0.739247	0.108808	99
Es	0.898491	0.777269	0.546135	99
Es	1.065550	0.317138	0.008255	99
Es	-1.393615	-0.048412	0.310738	99
Es	0.333767	-1.050179	-0.105795	99
Es	-2.977436	0.301299	-0.035332	99
Es	0.334813	-1.000531	0.402632	99
Es	-1.395576	-0.096506	-0.273483	99
Es	3.061168	-0.356627	-0.145387	99
Es	-2.300083	0.344145	-0.046828	99
Es	3.038938	-0.270888	0.472399	99
Es	-1.450152	0.726689	-0.055423	99
Es	4.337897	-0.428712	0.228240	99
Es	3.663334	-0.274057	0.181092	99
Es	-1.627822	0.399976	-0.032401	99
Es	0.564595	-0.421564	0.085511	99
Es	0.939126	0.622986	-0.641449	99
Es	-1.373077	-1.391955	0.181071	99
Es	-0.202131	-0.779483	0.119802	99
Es	-3.094262	0.041857	0.190892	99
Es	3.146630	0.213745	0.094734	99
Es	2.494172	-0.008682	0.101441	99
Es	0.305915	-0.890974	0.134811	99
Es	-3.207525	0.858854	0.089152	99
39
Properties=species:S:1:pos:R:3:Z:I:1 energy=-338.7168371522243 field_type=dipole dipole="0.000000 0.000000 0.000000" charge=0
N	-2.977689	0.300865	-0.034931	7
N	-1.627549	0.400525	-0.032441	7
C	-1.037249	-0.739205	0.108849	6
O	0.306131	-0.891355	0.134879	8
C	1.065531	0.317435	0.008219	6
C	2.494441	-0.008755	0.101459	6
C	3.663101	-0.274015	0.181079	6
H	-3.380819	1.214585	0.192719	1
H	-3.316239	0.115825	-0.984211	1
H	-1.538279	-1.714735	0.223149	1
H	0.794070	1.012565	0.810749	1
H	0.855800	0.780385	-0.963861	1
H	4.698750	-0.514125	0.254339	1
Es	-2.977424	0.301330	-0.035362	99
Es	-1.627829	0.399962	-0.032395	99
Es	3.147151	0.209461	0.088459	99
Es	1.065553	0.317144	0.008255	99
Es	-1.036931	-0.739249	0.108789	99
Es	0.412535	-1.111466	0.329284	99
Es	-1.392689	-0.047608	0.311757	99
Es	-3.213880	0.859913	0.094315	99
Es	0.896392	0.776594	0.543527	99
Es	-3.158557	0.193470	-0.608425	99
Es	0.305869	-0.890948	0.134979	99
Es	-1.372689	-1.390683	0.180571	99
Es	-3.091292	0.050348	0.177426	99
Es	0.568323	-0.424443	0.096540	99
Es	4.339097	-0.432491	0.228711	99
Es	-1.451744	0.716999	-0.052056	99
Es	2.494160	-0.008678	0.101441	99
Es	-2.299588	0.344339	-0.042964	99
Es	-0.211604	-0.780876	0.146921	99
Es	0.262396	-0.933915	-0.071110	99
Es	3.056889	-0.363852	-0.133123	99
Es	-1.392492	-0.094139	-0.277004	99
Es	3.663346	-0.274061	0.181094	99
Es	0.937399	0.621905	-0.638307	99
Es	3.042491	-0.259474	0.466167	99
Es	1.809985	0.140067	0.056990	99
39
Properties=species:S:1:pos:R:3:Z:I:1 energy=-338.7168371522243 field_type=dipole dipole="0.000000 0.000000 0.000000" charge=0
N	-2.977689	0.300865	-0.034931	7
N	-1.627549	0.400525	-0.032441	7
C	-1.037249	-0.739205	0.108849	6
O	0.306131	-0.891355	0.134879	8
C	1.065531	0.317435	0.008219	6
C	2.494441	-0.008755	0.101459	6
C	3.663101	-0.274015	0.181079	6
H	-3.380819	1.214585	0.192719	1
H	-3.316239	0.115825	-0.984211	1
H	-1.538279	-1.714735	0.223149	1
H	0.794070	1.012565	0.810749	1
H	0.855800	0.780385	-0.963861	1
H	4.698750	-0.514125	0.254339	1
Es	0.232203	-0.864581	0.086602	99
Es	-3.216274	0.859325	0.096515	99
Es	-0.218230	-0.787182	0.119421	99
Es	-1.371908	-1.389453	0.181079	99
Es	2.494162	-0.008660	0.101431	99
Es	1.065552	0.317144	0.008255	99
Es	-1.389449	-0.045245	0.316754	99
Es	1.811022	0.140926	0.056738	99
Es	0.305849	-0.890914	0.135078	99
Es	0.449437	-1.172016	0.205287	99
Es	-1.390746	-0.091510	-0.281682	99
Es	3.039756	-0.267591	0.463697	99
Es	-3.089323	0.055925	0.171022	99
Es	4.339458	-0.433035	0.229361	99
Es	-2.299485	0.345405	-0.040671	99
Es	-1.627793	0.399951	-0.032393	99
Es	0.896099	0.775325	0.542378	99
Es	-1.036934	-0.739246	0.108816	99
Es	3.663350	-0.274062	0.181093	99
Es	-1.456685	0.706927	-0.052675	99
Es	-2.977436	0.301319	-0.035356	99
Es	3.145310	0.205340	0.098183	99
Es	0.936465	0.622165	-0.637547	99
Es	-3.159387	0.191634	-0.607136	99
Es	3.061266	-0.352206	-0.140251	99
Es	0.568590	-0.426037	0.090478	99
39
Properties=species:S:1:pos:R:3:Z:I:1 energy=-338.7168371522243 field_type=dipole dipole="0.000000 0.000000 0.000000" charge=0
N	-2.977689	0.300865	-0.034931	7
N	-1.627549	0.400525	-0.032441	7
C	-1.037249	-0.739205	0.108849	6
O	0.306131	-0.891355	0.134879	8
C	1.065531	0.317435	0.008219	6
C	2.494441	-0.008755	0.101459	6
C	3.663101	-0.274015	0.181079	6
H	-3.380819	1.214585	0.192719	1
H	-3.316239	0.115825	-0.984211	1
H	-1.538279	-1.714735	0.223149	1
H	0.794070	1.012565	0.810749	1
H	0.855800	0.780385	-0.963861	1
H	4.698750	-0.514125	0.254339	1
Es	-2.299242	0.345791	-0.039460	99
Es	1.065551	0.317141	0.008253	99
Es	1.811896	0.141655	0.056836	99
Es	-1.390213	-0.090591	-0.282884	99
Es	-1.458843	0.701038	-0.053590	99
Es	0.455188	-1.173710	0.189804	99
Es	-3.158798	0.189416	-0.603760	99
Es	-0.218522	-0.787029	0.111556	99
Es	0.305892	-0.890947	0.134939	99
Es	-1.387903	-0.043594	0.318738	99
Es	-1.371488	-1.388539	0.181515	99
Es	-3.219838	0.859418	0.097028	99
Es	-2.977441	0.301325	-0.035372	99
Es	3.059313	-0.356078	-0.132359	99
Es	0.895879	0.774302	0.541078	99
Es	3.145708	0.204511	0.090693	99
Es	4.339642	-0.433618	0.229504	99
Es	3.663350	-0.274067	0.181093	99
Es	-1.036929	-0.739251	0.108800	99
Es	0.564678	-0.428278	0.089447	99
Es	-3.087062	0.060408	0.165505	99
Es	-1.627835	0.399953	-0.032395	99
Es	3.041265	-0.262886	0.463331	99
Es	2.494155	-0.008675	0.101434	99
Es	0.230779	-0.860251	0.111270	99
Es	0.935685	0.622205	-0.636524	99
39
Properties=species:S:1:pos:R:3:Z:I:1 energy=-338.7168371522243 field_type=dipole dipole="0.000000 0.000000 0.000000" charge=0
N	-2.977689	0.300865	-0.034931	7
N	-1.627549	0.400525	-0.032441	7
C	-1.037249	-0.739205	0.108849	6
O	0.306131	-0.891355	0.134879	8
C	1.065531	0.317435	0.008219	6
C	2.494441	-0.008755	0.101459	6
C	3.663101	-0.274015	0.181079	6
H	-3.380819	1.214585	0.192719	1
H	-3.316239	0.115825	-0.984211	1
H	-1.538279	-1.714735	0.223149	1
H	0.794070	1.012565	0.810749	1
H	0.855800	0.780385	-0.963861	1
H	4.698750	-0.514125	0.254339	1
Es	2.494153	-0.008670	0.101436	99
Es	0.231162	-0.859775	0.116957	99
Es	0.896087	0.773299	0.539919	99
Es	0.935111	0.622471	-0.635521	99
Es	3.036221	-0.280661	0.452954	99
Es	-1.461281	0.696384	-0.053060	99
Es	-1.036931	-0.739248	0.108816	99
Es	1.065548	0.317139	0.008261	99
Es	3.663350	-0.274065	0.181097	99
Es	-3.223054	0.859434	0.096629	99
Es	-1.371123	-1.387794	0.181817	99
Es	1.812437	0.142012	0.056766	99
Es	0.560432	-0.430794	0.086868	99
Es	-2.977403	0.301361	-0.035388	99
Es	-1.389960	-0.088090	-0.284664	99
Es	3.145501	0.208100	0.107513	99
Es	0.459705	-1.172518	0.187684	99
Es	-3.158861	0.185871	-0.600127	99
Es	3.064579	-0.341840	-0.138912	99
Es	4.339757	-0.433795	0.229810	99
Es	-1.627851	0.399933	-0.032397	99
Es	-1.385938	-0.043464	0.319902	99
Es	-3.084109	0.065956	0.161078	99
Es	-0.218599	-0.786352	0.109858	99
Es	0.305118	-0.890503	0.135771	99
Es	-2.299184	0.345259	-0.038587	99
39
Properties=species:S:1:pos:R:3:Z:I:1 energy=-338.7168371522243 field_type=dipole dipole="0.000000 0.000000 0.000000" charge=0
N	-2.977689	0.300865	-0.034931	7
N	-1.627549	0.400525	-0.032441	7
C	-1.037249	-0.739205	0.108849	6
O	0.306131	-0.891355	0.134879	8
C	1.065531	0.317435	0.008219	6
C	2.494441	-0.008755	0.101459	6
C	3.663101	-0.274015	0.181079	6
H	-3.380819	1.214585	0.192719	1
H	-3.316239	0.115825	-0.984211	1
H	-1.538279	-1.714735	0.223149	1
H	0.794070	1.012565	0.810749	1
H	0.855800	0.780385	-0.963861	1
H	4.698750	-0.514125	0.254339	1
Es	1.812762	0.142171	0.056769	99
Es	-1.462770	0.693027	-0.053344	99
Es	0.556388	-0.433007	0.087086	99
Es	0.230276	-0.858991	0.119478	99
Es	4.339884	-0.433794	0.229718	99
Es	-1.627865	0.399915	-0.032404	99
Es	0.896262	0.772506	0.539076	99
Es	0.463676	-1.171014	0.186664	99
Es	3.146547	0.207426	0.091105	99
Es	-3.226657	0.859137	0.095033	99
Es	0.934719	0.622646	-0.634603	99
Es	-0.218622	-0.785719	0.108972	99
Es	-1.390306	-0.086617	-0.285288	99
Es	-2.299138	0.345037	-0.037643	99
Es	0.305919	-0.890965	0.134941	99
Es	-3.157350	0.184192	-0.595669	99
Es	1.065554	0.317146	0.008254	99
Es	-1.384383	-0.043297	0.320686	99
Es	-1.036929	-0.739248	0.108822	99
Es	3.040659	-0.266647	0.456306	99
Es	-1.370834	-1.387218	0.181981	99
Es	3.059098	-0.355121	-0.125787	99
Es	-2.977396	0.301380	-0.035409	99
Es	3.663350	-0.274070	0.181098	99
Es	-3.082130	0.069446	0.157202	99
Es	2.494153	-0.008671	0.101434	99
39
Properties=species:S:1:pos:R:3:Z:I:1 energy=-338.7168371522243 field_type=dipole dipole="0.000000 0.000000 0.000000" charge=0
N	-2.977689	0.300865	-0.034931	7
N	-1.627549	0.400525	-0.032441	7
C	-1.037249	-0.739205	0.108849	6
O	0.306131	-0.891355	0.134879	8
C	1.065531	0.317435	0.008219	6
C	2.494441	-0.008755	0.101459	6
C	3.663101	-0.274015	0.181079	6
H	-3.380819	1.214585	0.192719	1
H	-3.316239	0.115825	-0.984211	1
H	-1.538279	-1.714735	0.223149	1
H	0.794070	1.012565	0.810749	1
H	0.855800	0.780385	-0.963861	1
H	4.698750	-0.514125	0.254339	1
Es	-3.229787	0.858525	0.093030	99
Es	3.043872	-0.256969	0.456739	99
Es	4.339983	-0.433702	0.229735	99
Es	-1.382629	-0.042620	0.321530	99
Es	1.812976	0.142357	0.056912	99
Es	0.934582	0.622983	-0.633812	99
Es	0.896710	0.771736	0.538160	99
Es	1.065551	0.317143	0.008258	99
Es	-2.977409	0.301384	-0.035418	99
Es	0.305874	-0.890913	0.135079	99
Es	2.494152	-0.008668	0.101436	99
Es	-1.464652	0.689772	-0.053576	99
Es	-1.390401	-0.085079	-0.286235	99
Es	0.230142	-0.858578	0.121549	99
Es	-3.080140	0.072690	0.154372	99
Es	-1.370606	-1.386742	0.182402	99
Es	0.469404	-1.168684	0.183780	99
Es	-1.627847	0.399916	-0.032399	99
Es	3.663350	-0.274073	0.181095	99
Es	-2.299171	0.344716	-0.037363	99
Es	3.147567	0.207369	0.079466	99
Es	0.550451	-0.435488	0.087802	99
Es	-3.156226	0.182511	-0.591242	99
Es	-1.036927	-0.739249	0.108816	99
Es	-0.218779	-0.785847	0.108971	99
Es	3.054829	-0.364842	-0.114608	99
39
Properties=species:S:1:pos:R:3:Z:I:1 energy=-338.7168371522243 field_type=dipole dipole="0.000000 0.000000 0.000000" charge=0
N	-2.977689	0.300865	-0.034931	7
N	-1.627549	0.400525	-0.032441	7
C	-1.037249	-0.739205	0.108849	6
O	0.306131	-0.891355	0.134879	8
C	1.065531	0.317435	0.008219	6
C	2.494441	-0.008755	0.101459	6
C	3.663101	-0.274015	0.181079	6
H	-3.380819	1.214585	0.192719	1
H	-3.316239	0.115825	-0.984211	1
H	-1.538279	-1.714735	0.223149	1
H	0.794070	1.012565	0.810749	1
H	0.855800	0.780385	-0.963861	1
H	4.698750	-0.514125	0.254339	1
Es	3.048905	-0.378625	-0.101654	99
Es	0.474009	-1.165911	0.184668	99
Es	4.340088	-0.433538	0.229646	99
Es	-0.218793	-0.785462	0.108930	99
Es	-1.036928	-0.739250	0.108817	99
Es	-2.977400	0.301354	-0.035382	99
Es	2.494152	-0.008669	0.101434	99
Es	-1.465985	0.687368	-0.052935	99
Es	1.813108	0.142435	0.057034	99
Es	0.545735	-0.438554	0.086636	99
Es	0.934526	0.622963	-0.633187	99
Es	-3.232814	0.857487	0.090704	99
Es	-1.391048	-0.082755	-0.286710	99
Es	-1.370414	-1.386360	0.182556	99
Es	1.065552	0.317140	0.008254	99
Es	3.663352	-0.274068	0.181095	99
Es	0.305820	-0.890966	0.134463	99
Es	-2.299114	0.344791	-0.037428	99
Es	3.048874	-0.241989	0.456813	99
Es	0.896767	0.771320	0.537585	99
Es	-1.627855	0.399912	-0.032392	99
Es	-1.380884	-0.043542	0.321314	99
Es	3.148473	0.206147	0.066437	99
Es	0.230136	-0.858442	0.122409	99
Es	-3.078282	0.075653	0.151978	99
Es	-3.155110	0.181210	-0.586606	99
