40
Properties=species:S:1:pos:R:3:Z:I:1 energy=-322.78427910841225 field_type=dipole dipole="0.000000 0.000000 0.000000" charge=0
O	-2.170526	0.334265	1.283469	8
C	-1.128076	0.030045	0.727959	6
C	-0.647516	-1.366385	0.364439	6
N	0.622264	-1.197505	-0.391831	7
C	1.017214	0.218515	-0.289711	6
C	0.284274	1.270175	-1.067481	6
C	-0.087386	1.012365	0.366989	6
H	-1.391606	-1.874455	-0.252411	1
H	-0.463626	-1.921755	1.288789	1
H	1.330124	-1.820135	-0.000031	1
H	2.044204	0.422985	-0.005671	1
H	0.810894	2.190545	-1.294231	1
H	-0.400846	0.956985	-1.847381	1
H	0.180604	1.744355	1.117099	1
Es	-0.647389	-1.366313	0.364384	99
Es	-1.913348	0.244685	0.859575	99
Es	0.637627	1.889980	-1.204980	99
Es	0.081896	1.505151	0.868205	99
Es	-1.128040	0.030021	0.727938	99
Es	1.017035	0.218489	-0.289746	99
Es	0.756519	0.700707	-0.849848	99
Es	-0.075464	1.243998	-0.330184	99
Es	-2.193979	0.640353	1.327184	99
Es	-1.155086	-1.702048	-0.041826	99
Es	-2.350224	0.084510	1.352584	99
Es	1.716369	0.352432	-0.101198	99
Es	-0.087297	1.012312	0.366833	99
Es	-0.895909	-0.678675	0.539373	99
Es	1.048851	-1.550129	-0.129861	99
Es	0.079195	-1.263445	-0.043167	99
Es	-0.180379	1.055139	-1.585203	99
Es	-1.679565	0.199631	1.306065	99
Es	0.284259	1.270097	-1.067272	99
Es	0.799393	-0.578888	-0.330321	99
Es	0.622354	-1.197322	-0.391201	99
Es	0.497129	0.569710	0.202426	99
Es	0.573073	-1.278582	-0.723726	99
Es	-0.614335	0.545296	0.519533	99
Es	-2.170225	0.333984	1.283290	99
Es	-0.528243	-1.729057	0.991046	99
40
Properties=species:S:1:pos:R:3:Z:I:1 energy=-322.78427910841225 field_type=dipole dipole="0.000000 0.000000 0.000000" charge=0
O	-2.170526	0.334265	1.283469	8
C	-1.128076	0.030045	0.727959	6
C	-0.647516	-1.366385	0.364439	6
N	0.622264	-1.197505	-0.391831	7
C	1.017214	0.218515	-0.289711	6
C	0.284274	1.270175	-1.067481	6
C	-0.087386	1.012365	0.366989	6
H	-1.391606	-1.874455	-0.252411	1
H	-0.463626	-1.921755	1.288789	1
H	1.330124	-1.820135	-0.000031	1
H	2.044204	0.422985	-0.005671	1
H	0.810894	2.190545	-1.294231	1
H	-0.400846	0.956985	-1.847381	1
H	0.180604	1.744355	1.117099	1
Es	-2.348064	0.084916	1.352276	99
Es	-2.195824	0.640855	1.327425	99
Es	0.077185	-1.263602	-0.043256	99
Es	-1.913671	0.243248	0.858957	99
Es	0.636486	1.888592	-1.206184	99
Es	0.759141	0.697138	-0.851390	99
Es	-0.178202	1.056519	-1.583258	99
Es	-2.170284	0.334188	1.283336	99
Es	-1.152787	-1.700346	-0.039940	99
Es	1.017029	0.218498	-0.289744	99
Es	1.052881	-1.553333	-0.134680	99
Es	1.716744	0.351928	-0.103287	99
Es	-0.529528	-1.730500	0.990773	99
Es	0.799399	-0.579980	-0.333753	99
Es	-0.079909	1.246589	-0.325962	99
Es	0.622344	-1.197316	-0.391179	99
Es	-0.087306	1.012317	0.366827	99
Es	-1.128040	0.030022	0.727936	99
Es	-1.679494	0.199997	1.307364	99
Es	0.080630	1.503992	0.866222	99
Es	0.572678	-1.273730	-0.716668	99
Es	0.284263	1.270103	-1.067281	99
Es	0.499271	0.570116	0.202801	99
Es	-0.897465	-0.677874	0.539105	99
Es	-0.615866	0.546013	0.519075	99
Es	-0.647394	-1.366313	0.364388	99
40
Properties=species:S:1:pos:R:3:Z:I:1 energy=-322.78427910841225 field_type=dipole dipole="0.000000 0.000000 0.000000" charge=0
O	-2.170526	0.334265	1.283469	8
C	-1.128076	0.030045	0.727959	6
C	-0.647516	-1.366385	0.364439	6
N	0.622264	-1.197505	-0.391831	7
C	1.017214	0.218515	-0.289711	6
C	0.284274	1.270175	-1.067481	6
C	-0.087386	1.012365	0.366989	6
H	-1.391606	-1.874455	-0.252411	1
H	-0.463626	-1.921755	1.288789	1
H	1.330124	-1.820135	-0.000031	1
H	2.044204	0.422985	-0.005671	1
H	0.810894	2.190545	-1.294231	1
H	-0.400846	0.956985	-1.847381	1
H	0.180604	1.744355	1.117099	1
Es	-2.170210	0.334154	1.283298	99
Es	-1.914443	0.242270	0.857360	99
Es	-0.647388	-1.366312	0.364385	99
Es	-2.347032	0.085068	1.354596	99
Es	1.716990	0.351388	-0.104572	99
Es	0.799492	-0.580811	-0.335665	99
Es	-0.898699	-0.677335	0.538403	99
Es	0.284263	1.270099	-1.067275	99
Es	0.076554	-1.263141	-0.042654	99
Es	-1.128040	0.030021	0.727935	99
Es	0.571644	-1.270637	-0.712210	99
Es	0.761025	0.694904	-0.852884	99
Es	-0.616951	0.546371	0.519464	99
Es	0.635521	1.887555	-1.206798	99
Es	-2.195908	0.640122	1.327314	99
Es	-0.530552	-1.731836	0.990786	99
Es	1.017032	0.218491	-0.289742	99
Es	-0.082889	1.248077	-0.323496	99
Es	1.055203	-1.555581	-0.138554	99
Es	-1.150666	-1.698648	-0.038356	99
Es	-1.679713	0.201708	1.307167	99
Es	0.622337	-1.197325	-0.391206	99
Es	-0.087299	1.012311	0.366833	99
Es	0.500172	0.570726	0.203017	99
Es	-0.176385	1.057479	-1.581681	99
Es	0.080160	1.502921	0.864441	99
40
Properties=species:S:1:pos:R:3:Z:I:1 energy=-322.78427910841225 field_type=dipole dipole="0.000000 0.000000 0.000000" charge=0
O	-2.170526	0.334265	1.283469	8
C	-1.128076	0.030045	0.727959	6
C	-0.647516	-1.366385	0.364439	6
N	0.622264	-1.197505	-0.391831	7
C	1.017214	0.218515	-0.289711	6
C	0.284274	1.270175	-1.067481	6
C	-0.087386	1.012365	0.366989	6
H	-1.391606	-1.874455	-0.252411	1
H	-0.463626	-1.921755	1.288789	1
H	1.330124	-1.820135	-0.000031	1
H	2.044204	0.422985	-0.005671	1
H	0.810894	2.190545	-1.294231	1
H	-0.400846	0.956985	-1.847381	1
H	0.180604	1.744355	1.117099	1
Es	-0.174759	1.057926	-1.580205	99
Es	0.571434	-1.268260	-0.709668	99
Es	-0.617649	0.546436	0.519923	99
Es	-0.085228	1.249162	-0.321942	99
Es	0.799277	-0.581768	-0.336249	99
Es	-2.341526	0.083792	1.352379	99
Es	0.079938	1.501893	0.863063	99
Es	-2.201415	0.640434	1.330029	99
Es	0.284260	1.270099	-1.067276	99
Es	-0.647392	-1.366313	0.364387	99
Es	-0.087305	1.012317	0.366826	99
Es	-1.679623	0.202737	1.307994	99
Es	-0.531304	-1.732893	0.990684	99
Es	-2.170208	0.334134	1.283303	99
Es	1.017036	0.218487	-0.289744	99
Es	0.622344	-1.197309	-0.391157	99
Es	0.500822	0.571225	0.202847	99
Es	-0.899891	-0.677000	0.537858	99
Es	0.075849	-1.262708	-0.042572	99
Es	0.634960	1.887017	-1.207466	99
Es	1.056796	-1.556731	-0.141178	99
Es	-1.128040	0.030021	0.727934	99
Es	-1.914502	0.242168	0.856359	99
Es	1.717299	0.350990	-0.105428	99
Es	0.761827	0.693474	-0.853871	99
Es	-1.148784	-1.697292	-0.036926	99
40
Properties=species:S:1:pos:R:3:Z:I:1 energy=-322.78427910841225 field_type=dipole dipole="0.000000 0.000000 0.000000" charge=0
O	-2.170526	0.334265	1.283469	8
C	-1.128076	0.030045	0.727959	6
C	-0.647516	-1.366385	0.364439	6
N	0.622264	-1.197505	-0.391831	7
C	1.017214	0.218515	-0.289711	6
C	0.284274	1.270175	-1.067481	6
C	-0.087386	1.012365	0.366989	6
H	-1.391606	-1.874455	-0.252411	1
H	-0.463626	-1.921755	1.288789	1
H	1.330124	-1.820135	-0.000031	1
H	2.044204	0.422985	-0.005671	1
H	0.810894	2.190545	-1.294231	1
H	-0.400846	0.956985	-1.847381	1
H	0.180604	1.744355	1.117099	1
Es	-2.206304	0.639122	1.332905	99
Es	0.571298	-1.266987	-0.707927	99
Es	0.501323	0.571429	0.202740	99
Es	-1.128041	0.030020	0.727934	99
Es	-0.086848	1.250109	-0.320794	99
Es	0.799079	-0.582447	-0.336988	99
Es	0.762392	0.692567	-0.854594	99
Es	-0.618311	0.546622	0.520324	99
Es	-0.087306	1.012317	0.366830	99
Es	-0.647389	-1.366313	0.364385	99
Es	-1.679170	0.204437	1.308596	99
Es	0.075492	-1.262165	-0.042494	99
Es	-0.531928	-1.733547	0.990667	99
Es	-2.170216	0.334065	1.283309	99
Es	0.622342	-1.197313	-0.391151	99
Es	-2.337422	0.081469	1.349895	99
Es	1.057761	-1.557362	-0.142668	99
Es	-1.914108	0.244142	0.855620	99
Es	1.017037	0.218488	-0.289749	99
Es	1.717575	0.350621	-0.106184	99
Es	0.079906	1.500987	0.861989	99
Es	0.634377	1.886490	-1.207998	99
Es	-0.173560	1.058243	-1.578963	99
Es	-0.900900	-0.676764	0.537136	99
Es	0.284262	1.270099	-1.067278	99
Es	-1.147125	-1.696292	-0.035639	99
40
Properties=species:S:1:pos:R:3:Z:I:1 energy=-322.78427910841225 field_type=dipole dipole="0.000000 0.000000 0.000000" charge=0
O	-2.170526	0.334265	1.283469	8
C	-1.128076	0.030045	0.727959	6
C	-0.647516	-1.366385	0.364439	6
N	0.622264	-1.197505	-0.391831	7
C	1.017214	0.218515	-0.289711	6
C	0.284274	1.270175	-1.067481	6
C	-0.087386	1.012365	0.366989	6
H	-1.391606	-1.874455	-0.252411	1
H	-0.463626	-1.921755	1.288789	1
H	1.330124	-1.820135	-0.000031	1
H	2.044204	0.422985	-0.005671	1
H	0.810894	2.190545	-1.294231	1
H	-0.400846	0.956985	-1.847381	1
H	0.180604	1.744355	1.117099	1
Es	0.622346	-1.197301	-0.391127	99
Es	-0.087908	1.250488	-0.320053	99
Es	1.017039	0.218480	-0.289755	99
Es	-1.145736	-1.695526	-0.034590	99
Es	-0.532376	-1.734055	0.990609	99
Es	0.570306	-1.265661	-0.705590	99
Es	-0.647388	-1.366314	0.364383	99
Es	-0.618873	0.546998	0.520786	99
Es	0.798875	-0.582843	-0.338087	99
Es	0.075744	-1.261423	-0.041651	99
Es	1.717720	0.350181	-0.106597	99
Es	-1.128041	0.030021	0.727932	99
Es	-2.170231	0.334198	1.283315	99
Es	-2.199154	0.639724	1.329236	99
Es	0.079979	1.500377	0.861025	99
Es	0.501270	0.571425	0.202847	99
Es	-0.087305	1.012316	0.366830	99
Es	1.058919	-1.558422	-0.145076	99
Es	-2.342788	0.085128	1.354462	99
Es	0.633770	1.886066	-1.208211	99
Es	0.763227	0.691954	-0.855346	99
Es	-1.679852	0.202873	1.308448	99
Es	-1.915146	0.241293	0.855077	99
Es	0.284265	1.270106	-1.067290	99
Es	-0.901757	-0.676513	0.536457	99
Es	-0.172685	1.058462	-1.578129	99
40
Properties=species:S:1:pos:R:3:Z:I:1 energy=-322.78427910841225 field_type=dipole dipole="0.000000 0.000000 0.000000" charge=0
O	-2.170526	0.334265	1.283469	8
C	-1.128076	0.030045	0.727959	6
C	-0.647516	-1.366385	0.364439	6
N	0.622264	-1.197505	-0.391831	7
C	1.017214	0.218515	-0.289711	6
C	0.284274	1.270175	-1.067481	6
C	-0.087386	1.012365	0.366989	6
H	-1.391606	-1.874455	-0.252411	1
H	-0.463626	-1.921755	1.288789	1
H	1.330124	-1.820135	-0.000031	1
H	2.044204	0.422985	-0.005671	1
H	0.810894	2.190545	-1.294231	1
H	-0.400846	0.956985	-1.847381	1
H	0.180604	1.744355	1.117099	1
Es	0.501557	0.571509	0.202808	99
Es	-2.195810	0.638936	1.328126	99
Es	0.075636	-1.260951	-0.041555	99
Es	-0.087305	1.012316	0.366830	99
Es	-0.532814	-1.734734	0.990323	99
Es	-0.902771	-0.676331	0.535927	99
Es	0.284262	1.270102	-1.067268	99
Es	-0.172063	1.058830	-1.577495	99
Es	1.059480	-1.558465	-0.145632	99
Es	-1.680195	0.202874	1.308033	99
Es	0.622343	-1.197307	-0.391134	99
Es	-0.088870	1.251154	-0.319504	99
Es	1.717953	0.349973	-0.107106	99
Es	0.798568	-0.583680	-0.338012	99
Es	-1.128042	0.030021	0.727930	99
Es	0.763605	0.691166	-0.855608	99
Es	-2.345267	0.086095	1.356719	99
Es	-2.170326	0.334231	1.283366	99
Es	0.079827	1.499943	0.860297	99
Es	-0.647391	-1.366317	0.364375	99
Es	-1.915516	0.241115	0.854473	99
Es	0.633428	1.885447	-1.208323	99
Es	-1.144213	-1.694676	-0.033461	99
Es	0.570296	-1.264870	-0.705459	99
Es	1.017036	0.218487	-0.289748	99
Es	-0.619189	0.547170	0.521003	99
40
Properties=species:S:1:pos:R:3:Z:I:1 energy=-322.78427910841225 field_type=dipole dipole="0.000000 0.000000 0.000000" charge=0
O	-2.170526	0.334265	1.283469	8
C	-1.128076	0.030045	0.727959	6
C	-0.647516	-1.366385	0.364439	6
N	0.622264	-1.197505	-0.391831	7
C	1.017214	0.218515	-0.289711	6
C	0.284274	1.270175	-1.067481	6
C	-0.087386	1.012365	0.366989	6
H	-1.391606	-1.874455	-0.252411	1
H	-0.463626	-1.921755	1.288789	1
H	1.330124	-1.820135	-0.000031	1
H	2.044204	0.422985	-0.005671	1
H	0.810894	2.190545	-1.294231	1
H	-0.400846	0.956985	-1.847381	1
H	0.180604	1.744355	1.117099	1
Es	0.798438	-0.583801	-0.338124	99
Es	1.059767	-1.558328	-0.146200	99
Es	0.284261	1.270097	-1.067271	99
Es	-0.619643	0.547369	0.521517	99
Es	0.622335	-1.197314	-0.391193	99
Es	-0.089644	1.251549	-0.319021	99
Es	-0.647386	-1.366311	0.364386	99
Es	-1.680372	0.204458	1.309248	99
Es	-1.128041	0.030021	0.727931	99
Es	-2.170164	0.334276	1.283292	99
Es	-0.171286	1.058936	-1.576720	99
Es	-2.337657	0.082563	1.351272	99
Es	-0.903334	-0.676359	0.535457	99
Es	0.570427	-1.264442	-0.705029	99
Es	-0.087309	1.012319	0.366832	99
Es	0.501587	0.571677	0.202631	99
Es	-2.204986	0.638756	1.333040	99
Es	0.633366	1.885379	-1.208673	99
Es	1.718169	0.349661	-0.107388	99
Es	0.075444	-1.260758	-0.041404	99
Es	-1.143403	-1.694156	-0.032793	99
Es	1.017038	0.218488	-0.289750	99
Es	0.079956	1.499130	0.859378	99
Es	0.763657	0.690699	-0.855975	99
Es	-1.913886	0.243078	0.854054	99
Es	-0.533114	-1.734950	0.990405	99
40
Properties=species:S:1:pos:R:3:Z:I:1 energy=-322.78427910841225 field_type=dipole dipole="0.000000 0.000000 0.000000" charge=0
O	-2.170526	0.334265	1.283469	8
C	-1.128076	0.030045	0.727959	6
C	-0.647516	-1.366385	0.364439	6
N	0.622264	-1.197505	-0.391831	7
C	1.017214	0.218515	-0.289711	6
C	0.284274	1.270175	-1.067481	6
C	-0.087386	1.012365	0.366989	6
H	-1.391606	-1.874455	-0.252411	1
H	-0.463626	-1.921755	1.288789	1
H	1.330124	-1.820135	-0.000031	1
H	2.044204	0.422985	-0.005671	1
H	0.810894	2.190545	-1.294231	1
H	-0.400846	0.956985	-1.847381	1
H	0.180604	1.744355	1.117099	1
Es	-1.128042	0.030021	0.727934	99
Es	0.569980	-1.263291	-0.704595	99
Es	-0.619797	0.547593	0.521746	99
Es	0.764354	0.690335	-0.856599	99
Es	-2.348515	0.088131	1.358062	99
Es	1.017035	0.218488	-0.289744	99
Es	0.501919	0.571701	0.202298	99
Es	-2.170237	0.334183	1.283314	99
Es	-0.090387	1.251721	-0.318339	99
Es	0.622320	-1.197330	-0.391285	99
Es	-1.142275	-1.693532	-0.031935	99
Es	1.718119	0.349392	-0.107766	99
Es	-0.087305	1.012315	0.366831	99
Es	-0.170895	1.059113	-1.575953	99
Es	-2.192293	0.637962	1.326902	99
Es	-0.533366	-1.735468	0.990196	99
Es	-1.681340	0.202252	1.309159	99
Es	-0.903924	-0.676173	0.534977	99
Es	-1.914661	0.240715	0.853496	99
Es	0.284261	1.270100	-1.067270	99
Es	0.079981	1.499128	0.859151	99
Es	1.060384	-1.559005	-0.147219	99
Es	0.075556	-1.260059	-0.041210	99
Es	0.632616	1.884967	-1.208856	99
Es	0.798115	-0.584910	-0.337776	99
Es	-0.647388	-1.366313	0.364384	99
40
Properties=species:S:1:pos:R:3:Z:I:1 energy=-322.78427910841225 field_type=dipole dipole="0.000000 0.000000 0.000000" charge=0
O	-2.170526	0.334265	1.283469	8
C	-1.128076	0.030045	0.727959	6
C	-0.647516	-1.366385	0.364439	6
N	0.622264	-1.197505	-0.391831	7
C	1.017214	0.218515	-0.289711	6
C	0.284274	1.270175	-1.067481	6
C	-0.087386	1.012365	0.366989	6
H	-1.391606	-1.874455	-0.252411	1
H	-0.463626	-1.921755	1.288789	1
H	1.330124	-1.820135	-0.000031	1
H	2.044204	0.422985	-0.005671	1
H	0.810894	2.190545	-1.294231	1
H	-0.400846	0.956985	-1.847381	1
H	0.180604	1.744355	1.117099	1
Es	0.284260	1.270098	-1.067270	99
Es	0.501897	0.571648	0.202098	99
Es	-0.647388	-1.366312	0.364385	99
Es	-1.141358	-1.693067	-0.031147	99
Es	-2.170213	0.334230	1.283308	99
Es	-1.680740	0.201628	1.308308	99
Es	-0.170295	1.059213	-1.575380	99
Es	-0.904459	-0.676129	0.534563	99
Es	0.764818	0.689936	-0.856762	99
Es	0.569763	-1.262360	-0.705188	99
Es	0.797971	-0.585693	-0.337093	99
Es	1.017036	0.218486	-0.289748	99
Es	-0.087306	1.012320	0.366833	99
Es	1.718127	0.349223	-0.107795	99
Es	-0.620033	0.547886	0.522088	99
Es	-2.186040	0.637274	1.322826	99
Es	-0.091260	1.251855	-0.318201	99
Es	-0.533587	-1.735708	0.989985	99
Es	-1.128043	0.030021	0.727931	99
Es	0.075700	-1.259841	-0.041132	99
Es	0.079999	1.498946	0.858635	99
Es	1.060645	-1.559299	-0.147854	99
Es	-2.353407	0.091560	1.362924	99
Es	0.622339	-1.197304	-0.391105	99
Es	-1.916557	0.238625	0.853711	99
Es	0.632349	1.884800	-1.209014	99
40
Properties=species:S:1:pos:R:3:Z:I:1 energy=-322.78427910841225 field_type=dipole dipole="0.000000 0.000000 0.000000" charge=0
O	-2.170526	0.334265	1.283469	8
C	-1.128076	0.030045	0.727959	6
C	-0.647516	-1.366385	0.364439	6
N	0.622264	-1.197505	-0.391831	7
C	1.017214	0.218515	-0.289711	6
C	0.284274	1.270175	-1.067481	6
C	-0.087386	1.012365	0.366989	6
H	-1.391606	-1.874455	-0.252411	1
H	-0.463626	-1.921755	1.288789	1
H	1.330124	-1.820135	-0.000031	1
H	2.044204	0.422985	-0.005671	1
H	0.810894	2.190545	-1.294231	1
H	-0.400846	0.956985	-1.847381	1
H	0.180604	1.744355	1.117099	1
Es	-2.217774	0.638113	1.339776	99
Es	-0.620688	0.548099	0.523308	99
Es	0.075130	-1.260113	-0.041209	99
Es	0.080476	1.497516	0.857008	99
Es	-1.128044	0.030021	0.727930	99
Es	0.284262	1.270102	-1.067275	99
Es	-2.170218	0.334224	1.283309	99
Es	0.570472	-1.262731	-0.704083	99
Es	1.060673	-1.558596	-0.147904	99
Es	-0.087306	1.012318	0.366841	99
Es	0.763599	0.689974	-0.856603	99
Es	-0.090679	1.251907	-0.318015	99
Es	-0.904547	-0.676396	0.534497	99
Es	-0.169907	1.058888	-1.575034	99
Es	-0.533806	-1.735608	0.990386	99
Es	1.718660	0.349005	-0.108285	99
Es	-1.911784	0.244945	0.853199	99
Es	1.017036	0.218487	-0.289741	99
Es	-0.647386	-1.366313	0.364384	99
Es	0.622342	-1.197300	-0.391139	99
Es	0.632987	1.885297	-1.209661	99
Es	0.797949	-0.584503	-0.337815	99
Es	0.501591	0.571915	0.202431	99
Es	-1.141568	-1.692867	-0.031316	99
Es	-1.681369	0.207226	1.310080	99
Es	-2.325883	0.078429	1.344834	99
40
Properties=species:S:1:pos:R:3:Z:I:1 energy=-322.78427910841225 field_type=dipole dipole="0.000000 0.000000 0.000000" charge=0
O	-2.170526	0.334265	1.283469	8
C	-1.128076	0.030045	0.727959	6
C	-0.647516	-1.366385	0.364439	6
N	0.622264	-1.197505	-0.391831	7
C	1.017214	0.218515	-0.289711	6
C	0.284274	1.270175	-1.067481	6
C	-0.087386	1.012365	0.366989	6
H	-1.391606	-1.874455	-0.252411	1
H	-0.463626	-1.921755	1.288789	1
H	1.330124	-1.820135	-0.000031	1
H	2.044204	0.422985	-0.005671	1
H	0.810894	2.190545	-1.294231	1
H	-0.400846	0.956985	-1.847381	1
H	0.180604	1.744355	1.117099	1
Es	0.797862	-0.584594	-0.338147	99
Es	-0.087307	1.012316	0.366831	99
Es	-0.904833	-0.676417	0.534198	99
Es	1.718727	0.348916	-0.108421	99
Es	-0.090892	1.251902	-0.317706	99
Es	-2.170153	0.334289	1.283285	99
Es	1.060884	-1.558548	-0.148366	99
Es	-0.620954	0.548218	0.523827	99
Es	-1.680037	0.206633	1.308826	99
Es	0.075224	-1.260005	-0.040897	99
Es	0.763576	0.689766	-0.856866	99
Es	-0.169539	1.058955	-1.574538	99
Es	0.632926	1.885274	-1.209909	99
Es	-2.322315	0.077600	1.342695	99
Es	1.017037	0.218487	-0.289750	99
Es	-0.647389	-1.366316	0.364379	99
Es	0.622349	-1.197293	-0.391067	99
Es	-2.220828	0.637081	1.343654	99
Es	0.501611	0.572134	0.202345	99
Es	0.284264	1.270095	-1.067269	99
Es	-1.128041	0.030021	0.727932	99
Es	-1.141135	-1.692665	-0.030963	99
Es	-0.533971	-1.735627	0.990411	99
Es	0.570368	-1.262585	-0.703658	99
Es	0.080514	1.497126	0.856347	99
Es	-1.913728	0.247272	0.852732	99
40
Properties=species:S:1:pos:R:3:Z:I:1 energy=-322.78427910841225 field_type=dipole dipole="0.000000 0.000000 0.000000" charge=0
O	-2.170526	0.334265	1.283469	8
C	-1.128076	0.030045	0.727959	6
C	-0.647516	-1.366385	0.364439	6
N	0.622264	-1.197505	-0.391831	7
C	1.017214	0.218515	-0.289711	6
C	0.284274	1.270175	-1.067481	6
C	-0.087386	1.012365	0.366989	6
H	-1.391606	-1.874455	-0.252411	1
H	-0.463626	-1.921755	1.288789	1
H	1.330124	-1.820135	-0.000031	1
H	2.044204	0.422985	-0.005671	1
H	0.810894	2.190545	-1.294231	1
H	-0.400846	0.956985	-1.847381	1
H	0.180604	1.744355	1.117099	1
Es	-0.092628	1.252311	-0.317956	99
Es	0.622341	-1.197307	-0.391119	99
Es	0.079749	1.499342	0.858769	99
Es	0.502283	0.571489	0.201883	99
Es	0.797895	-0.587208	-0.336726	99
Es	0.284259	1.270104	-1.067279	99
Es	-0.169592	1.059573	-1.574170	99
Es	-1.138913	-1.691786	-0.029261	99
Es	-0.647390	-1.366311	0.364386	99
Es	0.568372	-1.260343	-0.703880	99
Es	1.717885	0.349012	-0.108218	99
Es	-0.619994	0.548037	0.521884	99
Es	-0.087308	1.012318	0.366836	99
Es	-0.534091	-1.736735	0.989303	99
Es	-0.905846	-0.675879	0.533618	99
Es	-2.373139	0.106904	1.375365	99
Es	-1.128041	0.030022	0.727930	99
Es	1.061366	-1.561045	-0.150730	99
Es	-1.682328	0.196677	1.307692	99
Es	1.017037	0.218484	-0.289745	99
Es	-2.170229	0.334187	1.283315	99
Es	-2.162422	0.630472	1.311787	99
Es	-1.918661	0.235387	0.853061	99
Es	0.076402	-1.258995	-0.040305	99
Es	0.765953	0.689285	-0.857354	99
Es	0.631257	1.884040	-1.209182	99
40
Properties=species:S:1:pos:R:3:Z:I:1 energy=-322.78427910841225 field_type=dipole dipole="0.000000 0.000000 0.000000" charge=0
O	-2.170526	0.334265	1.283469	8
C	-1.128076	0.030045	0.727959	6
C	-0.647516	-1.366385	0.364439	6
N	0.622264	-1.197505	-0.391831	7
C	1.017214	0.218515	-0.289711	6
C	0.284274	1.270175	-1.067481	6
C	-0.087386	1.012365	0.366989	6
H	-1.391606	-1.874455	-0.252411	1
H	-0.463626	-1.921755	1.288789	1
H	1.330124	-1.820135	-0.000031	1
H	2.044204	0.422985	-0.005671	1
H	0.810894	2.190545	-1.294231	1
H	-0.400846	0.956985	-1.847381	1
H	0.180604	1.744355	1.117099	1
Es	1.061467	-1.561591	-0.151397	99
Es	0.766277	0.689173	-0.857662	99
Es	0.568229	-1.259748	-0.703464	99
Es	0.076281	-1.258900	-0.040555	99
Es	-0.087300	1.012311	0.366833	99
Es	-0.169317	1.059629	-1.573485	99
Es	-2.170205	0.334185	1.283301	99
Es	1.717715	0.348986	-0.108264	99
Es	-0.534112	-1.737024	0.989180	99
Es	-1.128041	0.030020	0.727933	99
Es	0.622337	-1.197303	-0.391118	99
Es	-2.155387	0.627252	1.307916	99
Es	-1.681669	0.195024	1.306789	99
Es	-0.093024	1.252298	-0.317800	99
Es	0.284262	1.270102	-1.067270	99
Es	0.502454	0.571470	0.201749	99
Es	-1.921000	0.234228	0.853131	99
Es	-0.906049	-0.675850	0.533548	99
Es	-1.138431	-1.691454	-0.028828	99
Es	0.079519	1.499613	0.859249	99
Es	-0.647399	-1.366316	0.364384	99
Es	-2.378475	0.113012	1.380101	99
Es	0.797923	-0.587564	-0.336550	99
Es	-0.619747	0.547926	0.521399	99
Es	0.630871	1.884074	-1.209469	99
Es	1.017040	0.218482	-0.289749	99
40
Properties=species:S:1:pos:R:3:Z:I:1 energy=-322.78427910841225 field_type=dipole dipole="0.000000 0.000000 0.000000" charge=0
O	-2.170526	0.334265	1.283469	8
C	-1.128076	0.030045	0.727959	6
C	-0.647516	-1.366385	0.364439	6
N	0.622264	-1.197505	-0.391831	7
C	1.017214	0.218515	-0.289711	6
C	0.284274	1.270175	-1.067481	6
C	-0.087386	1.012365	0.366989	6
H	-1.391606	-1.874455	-0.252411	1
H	-0.463626	-1.921755	1.288789	1
H	1.330124	-1.820135	-0.000031	1
H	2.044204	0.422985	-0.005671	1
H	0.810894	2.190545	-1.294231	1
H	-0.400846	0.956985	-1.847381	1
H	0.180604	1.744355	1.117099	1
Es	-0.087314	1.012321	0.366831	99
Es	0.073597	-1.265464	-0.043485	99
Es	-2.332322	0.574806	1.402047	99
Es	-0.620197	0.545980	0.522468	99
Es	-0.086522	1.247585	-0.322099	99
Es	0.080688	1.498914	0.858534	99
Es	-1.145001	-1.693859	-0.034329	99
Es	-1.907393	0.267875	0.852670	99
Es	1.717515	0.351326	-0.107828	99
Es	-2.190433	0.231697	1.280359	99
Es	-2.196070	0.220556	1.282501	99
Es	0.801041	-0.574381	-0.356161	99
Es	0.637044	1.890363	-1.212552	99
Es	-0.647388	-1.366314	0.364384	99
Es	1.057111	-1.561069	-0.151639	99
Es	1.017037	0.218491	-0.289761	99
Es	-0.902810	-0.677233	0.536754	99
Es	0.622349	-1.197299	-0.391111	99
Es	0.571558	-1.268510	-0.679454	99
Es	-0.533259	-1.735988	0.990254	99
Es	0.500221	0.574722	0.204278	99
Es	-1.680506	0.207310	1.313676	99
Es	-1.128043	0.030021	0.727930	99
Es	0.757568	0.691715	-0.854991	99
Es	-0.168511	1.058367	-1.572094	99
Es	0.284260	1.270106	-1.067277	99
40
Properties=species:S:1:pos:R:3:Z:I:1 energy=-322.78427910841225 field_type=dipole dipole="0.000000 0.000000 0.000000" charge=0
O	-2.170526	0.334265	1.283469	8
C	-1.128076	0.030045	0.727959	6
C	-0.647516	-1.366385	0.364439	6
N	0.622264	-1.197505	-0.391831	7
C	1.017214	0.218515	-0.289711	6
C	0.284274	1.270175	-1.067481	6
C	-0.087386	1.012365	0.366989	6
H	-1.391606	-1.874455	-0.252411	1
H	-0.463626	-1.921755	1.288789	1
H	1.330124	-1.820135	-0.000031	1
H	2.044204	0.422985	-0.005671	1
H	0.810894	2.190545	-1.294231	1
H	-0.400846	0.956985	-1.847381	1
H	0.180604	1.744355	1.117099	1
Es	-2.187974	0.636326	1.325159	99
Es	-2.351371	0.090137	1.362089	99
Es	-0.621052	0.548582	0.523617	99
Es	-0.087309	1.012318	0.366830	99
Es	1.017032	0.218491	-0.289744	99
Es	-2.170221	0.333980	1.283293	99
Es	-0.092902	1.252472	-0.316927	99
Es	-1.128039	0.030019	0.727934	99
Es	0.502201	0.571892	0.201589	99
Es	-0.906405	-0.676066	0.533080	99
Es	0.797200	-0.587439	-0.335233	99
Es	-1.138293	-1.691230	-0.028669	99
Es	0.765537	0.688946	-0.857806	99
Es	-0.168746	1.059468	-1.573322	99
Es	0.075801	-1.259136	-0.040385	99
Es	-1.681654	0.202821	1.308649	99
Es	0.284258	1.270103	-1.067270	99
Es	1.061853	-1.560276	-0.151221	99
Es	0.080243	1.497602	0.856441	99
Es	0.569227	-1.258883	-0.704753	99
Es	1.718533	0.348174	-0.108776	99
Es	-0.534407	-1.736752	0.989561	99
Es	-1.915589	0.240020	0.852268	99
Es	0.631331	1.884070	-1.209797	99
Es	0.622355	-1.197290	-0.391091	99
Es	-0.647392	-1.366312	0.364386	99
40
Properties=species:S:1:pos:R:3:Z:I:1 energy=-322.78427910841225 field_type=dipole dipole="0.000000 0.000000 0.000000" charge=0
O	-2.170526	0.334265	1.283469	8
C	-1.128076	0.030045	0.727959	6
C	-0.647516	-1.366385	0.364439	6
N	0.622264	-1.197505	-0.391831	7
C	1.017214	0.218515	-0.289711	6
C	0.284274	1.270175	-1.067481	6
C	-0.087386	1.012365	0.366989	6
H	-1.391606	-1.874455	-0.252411	1
H	-0.463626	-1.921755	1.288789	1
H	1.330124	-1.820135	-0.000031	1
H	2.044204	0.422985	-0.005671	1
H	0.810894	2.190545	-1.294231	1
H	-0.400846	0.956985	-1.847381	1
H	0.180604	1.744355	1.117099	1
Es	-1.128042	0.030021	0.727931	99
Es	-0.621008	0.548584	0.523525	99
Es	1.061817	-1.560103	-0.150866	99
Es	-2.170086	0.334369	1.283259	99
Es	0.284261	1.270104	-1.067271	99
Es	-0.087306	1.012318	0.366840	99
Es	1.718565	0.348177	-0.108987	99
Es	0.080237	1.497699	0.856535	99
Es	0.797191	-0.587997	-0.335748	99
Es	0.502084	0.571878	0.201581	99
Es	0.075908	-1.258469	-0.040196	99
Es	-2.353800	0.091690	1.363712	99
Es	-0.534531	-1.736842	0.989428	99
Es	0.622349	-1.197291	-0.391061	99
Es	0.765673	0.688778	-0.857781	99
Es	-1.137729	-1.691014	-0.028244	99
Es	-1.681264	0.201362	1.307678	99
Es	-0.168567	1.059540	-1.573117	99
Es	-1.916961	0.239968	0.852390	99
Es	-0.093084	1.252396	-0.316964	99
Es	-0.906883	-0.676104	0.532825	99
Es	0.631182	1.884044	-1.209779	99
Es	1.017032	0.218489	-0.289744	99
Es	-2.184684	0.635924	1.324434	99
Es	0.569258	-1.259172	-0.704864	99
Es	-0.647394	-1.366314	0.364387	99
40
Properties=species:S:1:pos:R:3:Z:I:1 energy=-322.78427910841225 field_type=dipole dipole="0.000000 0.000000 0.000000" charge=0
O	-2.170526	0.334265	1.283469	8
C	-1.128076	0.030045	0.727959	6
C	-0.647516	-1.366385	0.364439	6
N	0.622264	-1.197505	-0.391831	7
C	1.017214	0.218515	-0.289711	6
C	0.284274	1.270175	-1.067481	6
C	-0.087386	1.012365	0.366989	6
H	-1.391606	-1.874455	-0.252411	1
H	-0.463626	-1.921755	1.288789	1
H	1.330124	-1.820135	-0.000031	1
H	2.044204	0.422985	-0.005671	1
H	0.810894	2.190545	-1.294231	1
H	-0.400846	0.956985	-1.847381	1
H	0.180604	1.744355	1.117099	1
Es	0.766814	0.688842	-0.857837	99
Es	1.017037	0.218486	-0.289742	99
Es	-0.647390	-1.366313	0.364387	99
Es	-1.923005	0.231933	0.853028	99
Es	-2.394841	0.133368	1.390598	99
Es	1.061567	-1.563209	-0.153560	99
Es	-2.170146	0.333918	1.283251	99
Es	-1.128042	0.030021	0.727929	99
Es	0.566908	-1.259587	-0.700658	99
Es	-0.906916	-0.675655	0.533115	99
Es	-0.087307	1.012316	0.366829	99
Es	1.717208	0.349317	-0.108336	99
Es	0.076907	-1.258417	-0.040050	99
Es	-0.093871	1.252596	-0.318172	99
Es	-0.168734	1.059765	-1.572591	99
Es	-1.683433	0.189538	1.306327	99
Es	-1.136786	-1.690443	-0.027493	99
Es	-2.135105	0.615253	1.298164	99
Es	0.079080	1.500201	0.860048	99
Es	-0.619352	0.547883	0.520560	99
Es	0.630354	1.883814	-1.209778	99
Es	0.622330	-1.197306	-0.391119	99
Es	0.284259	1.270099	-1.067270	99
Es	0.798452	-0.587820	-0.338029	99
Es	-0.534452	-1.737860	0.988445	99
Es	0.502680	0.571295	0.201858	99
40
Properties=species:S:1:pos:R:3:Z:I:1 energy=-322.78427910841225 field_type=dipole dipole="0.000000 0.000000 0.000000" charge=0
O	-2.170526	0.334265	1.283469	8
C	-1.128076	0.030045	0.727959	6
C	-0.647516	-1.366385	0.364439	6
N	0.622264	-1.197505	-0.391831	7
C	1.017214	0.218515	-0.289711	6
C	0.284274	1.270175	-1.067481	6
C	-0.087386	1.012365	0.366989	6
H	-1.391606	-1.874455	-0.252411	1
H	-0.463626	-1.921755	1.288789	1
H	1.330124	-1.820135	-0.000031	1
H	2.044204	0.422985	-0.005671	1
H	0.810894	2.190545	-1.294231	1
H	-0.400846	0.956985	-1.847381	1
H	0.180604	1.744355	1.117099	1
Es	-0.087302	1.012315	0.366835	99
Es	-1.681851	0.215969	1.311445	99
Es	-2.254549	0.081896	1.302806	99
Es	0.571073	-1.267048	-0.692462	99
Es	-1.128042	0.030021	0.727931	99
Es	1.059930	-1.558287	-0.149134	99
Es	-2.293867	0.607473	1.381361	99
Es	-0.904527	-0.676997	0.534400	99
Es	-1.906587	0.262626	0.852580	99
Es	1.718924	0.349355	-0.108788	99
Es	0.074169	-1.261705	-0.041544	99
Es	-0.647388	-1.366313	0.364385	99
Es	-0.089692	1.250806	-0.318451	99
Es	-0.168070	1.058476	-1.572672	99
Es	0.500665	0.572995	0.203371	99
Es	0.760373	0.690061	-0.856451	99
Es	0.635110	1.887354	-1.212001	99
Es	-0.534204	-1.735714	0.991032	99
Es	-2.170176	0.334235	1.283292	99
Es	0.622350	-1.197302	-0.391089	99
Es	-1.142081	-1.692481	-0.031832	99
Es	0.080946	1.495343	0.854497	99
Es	0.284261	1.270103	-1.067272	99
Es	-0.621489	0.548317	0.525162	99
Es	1.017032	0.218493	-0.289743	99
Es	0.799209	-0.577955	-0.347753	99
40
Properties=species:S:1:pos:R:3:Z:I:1 energy=-322.78427910841225 field_type=dipole dipole="0.000000 0.000000 0.000000" charge=0
O	-2.170526	0.334265	1.283469	8
C	-1.128076	0.030045	0.727959	6
C	-0.647516	-1.366385	0.364439	6
N	0.622264	-1.197505	-0.391831	7
C	1.017214	0.218515	-0.289711	6
C	0.284274	1.270175	-1.067481	6
C	-0.087386	1.012365	0.366989	6
H	-1.391606	-1.874455	-0.252411	1
H	-0.463626	-1.921755	1.288789	1
H	1.330124	-1.820135	-0.000031	1
H	2.044204	0.422985	-0.005671	1
H	0.810894	2.190545	-1.294231	1
H	-0.400846	0.956985	-1.847381	1
H	0.180604	1.744355	1.117099	1
Es	0.630186	1.883830	-1.209820	99
Es	0.622322	-1.197304	-0.391135	99
Es	-1.136374	-1.690110	-0.027168	99
Es	-0.168559	1.059881	-1.572249	99
Es	-0.534540	-1.738183	0.988336	99
Es	1.017038	0.218485	-0.289749	99
Es	0.077138	-1.258270	-0.039932	99
Es	-1.923618	0.229744	0.853500	99
Es	0.284259	1.270103	-1.067272	99
Es	0.502774	0.571327	0.201884	99
Es	0.566403	-1.259236	-0.699534	99
Es	-0.619162	0.547868	0.520435	99
Es	0.767101	0.688835	-0.858145	99
Es	-2.170146	0.334307	1.283283	99
Es	1.716902	0.349341	-0.108257	99
Es	-2.129269	0.610761	1.293628	99
Es	-0.647388	-1.366312	0.364385	99
Es	-0.094239	1.252321	-0.318234	99
Es	1.061674	-1.563935	-0.154653	99
Es	-1.128042	0.030021	0.727930	99
Es	-0.087305	1.012315	0.366831	99
Es	0.078957	1.500534	0.860199	99
Es	-0.907054	-0.675682	0.532995	99
Es	-1.683783	0.188692	1.306580	99
Es	0.798579	-0.587864	-0.338376	99
Es	-2.399636	0.140567	1.394439	99
40
Properties=species:S:1:pos:R:3:Z:I:1 energy=-322.78427910841225 field_type=dipole dipole="0.000000 0.000000 0.000000" charge=0
O	-2.170526	0.334265	1.283469	8
C	-1.128076	0.030045	0.727959	6
C	-0.647516	-1.366385	0.364439	6
N	0.622264	-1.197505	-0.391831	7
C	1.017214	0.218515	-0.289711	6
C	0.284274	1.270175	-1.067481	6
C	-0.087386	1.012365	0.366989	6
H	-1.391606	-1.874455	-0.252411	1
H	-0.463626	-1.921755	1.288789	1