41
Properties=species:S:1:pos:R:3:Z:I:1 energy=-359.8448938353388 field_type=dipole dipole="0.000000 0.000000 0.000000" charge=0
O	-2.464789	0.307349	1.378416	8
C	-1.402839	0.255769	0.759026	6
C	-0.653319	-1.062611	0.583866	6
N	0.313771	-1.087091	-0.528884	7
C	1.150331	0.106729	-0.461694	6
C	0.257911	1.326239	-0.636334	6
O	-0.792629	1.394948	0.342976	8
H	-1.392869	-1.849451	0.403746	1
H	-0.138609	-1.276572	1.527296	1
H	0.890871	-1.923461	-0.445614	1
H	1.679981	0.145119	0.498066	1
H	1.900041	0.078089	-1.258894	1
H	0.856841	2.236598	-0.532114	1
H	-0.204699	1.348348	-1.629864	1
Es	-0.054356	1.330598	-1.312102	99
Es	-0.090178	-1.062757	-0.022430	99
Es	1.509902	0.141479	0.204501	99
Es	0.257736	1.326208	-0.636122	99
Es	0.138288	-1.083847	-0.838497	99
Es	0.691382	-0.576289	-0.472559	99
Es	0.665689	1.942237	-0.560154	99
Es	-1.971014	0.313943	1.373863	99
Es	1.150219	0.106646	-0.461708	99
Es	-0.406831	1.317145	-0.014254	99
Es	-2.547390	0.020519	1.463575	99
Es	0.698758	0.713936	-0.540473	99
Es	-2.568423	0.593308	1.410212	99
Es	-2.464505	0.307352	1.378255	99
Es	0.668059	-1.584078	-0.453186	99
Es	-0.653240	-1.062507	0.583761	99
Es	-1.019315	0.940935	0.418603	99
Es	-0.998224	1.595566	0.264048	99
Es	-1.149606	-1.584006	0.469501	99
Es	-2.230828	0.263161	0.944849	99
Es	-0.679854	1.378867	0.605213	99
Es	-1.402678	0.255952	0.758916	99
Es	-0.792555	1.394542	0.342810	99
Es	0.314070	-1.087045	-0.528315	99
Es	1.656924	0.093587	-1.004255	99
Es	-1.010556	-0.385979	0.632315	99
Es	-0.310979	-1.184249	1.228724	99
41
Properties=species:S:1:pos:R:3:Z:I:1 energy=-359.8448938353388 field_type=dipole dipole="0.000000 0.000000 0.000000" charge=0
O	-2.464789	0.307349	1.378416	8
C	-1.402839	0.255769	0.759026	6
C	-0.653319	-1.062611	0.583866	6
N	0.313771	-1.087091	-0.528884	7
C	1.150331	0.106729	-0.461694	6
C	0.257911	1.326239	-0.636334	6
O	-0.792629	1.394948	0.342976	8
H	-1.392869	-1.849451	0.403746	1
H	-0.138609	-1.276572	1.527296	1
H	0.890871	-1.923461	-0.445614	1
H	1.679981	0.145119	0.498066	1
H	1.900041	0.078089	-1.258894	1
H	0.856841	2.236598	-0.532114	1
H	-0.204699	1.348348	-1.629864	1
Es	0.667246	-1.583715	-0.455535	99
Es	-0.095692	-1.063111	-0.023607	99
Es	-1.022218	0.939133	0.424751	99
Es	-0.401838	1.319700	-0.014589	99
Es	1.150220	0.106647	-0.461709	99
Es	1.507959	0.141733	0.203522	99
Es	-2.464490	0.307303	1.378242	99
Es	0.145128	-1.085187	-0.832162	99
Es	-2.229232	0.264952	0.945365	99
Es	-1.150290	-1.584355	0.470303	99
Es	-1.010108	-0.386579	0.633076	99
Es	-0.653240	-1.062506	0.583759	99
Es	0.314030	-1.087053	-0.528371	99
Es	0.257739	1.326210	-0.636120	99
Es	-2.561539	0.021601	1.467734	99
Es	0.666137	1.942494	-0.560664	99
Es	-0.994293	1.595119	0.269165	99
Es	0.691543	-0.574455	-0.475196	99
Es	-1.402680	0.255951	0.758915	99
Es	-0.311925	-1.183249	1.227775	99
Es	1.659095	0.094148	-1.005619	99
Es	-1.970692	0.312928	1.376963	99
Es	-0.053826	1.330213	-1.311418	99
Es	-0.686379	1.378137	0.594286	99
Es	0.698650	0.713176	-0.539481	99
Es	-2.556394	0.591518	1.402786	99
Es	-0.792415	1.394472	0.342921	99
41
Properties=species:S:1:pos:R:3:Z:I:1 energy=-359.8448938353388 field_type=dipole dipole="0.000000 0.000000 0.000000" charge=0
O	-2.464789	0.307349	1.378416	8
C	-1.402839	0.255769	0.759026	6
C	-0.653319	-1.062611	0.583866	6
N	0.313771	-1.087091	-0.528884	7
C	1.150331	0.106729	-0.461694	6
C	0.257911	1.326239	-0.636334	6
O	-0.792629	1.394948	0.342976	8
H	-1.392869	-1.849451	0.403746	1
H	-0.138609	-1.276572	1.527296	1
H	0.890871	-1.923461	-0.445614	1
H	1.679981	0.145119	0.498066	1
H	1.900041	0.078089	-1.258894	1
H	0.856841	2.236598	-0.532114	1
H	-0.204699	1.348348	-1.629864	1
Es	-0.992877	1.593809	0.271104	99
Es	-2.570458	0.023058	1.472418	99
Es	-2.464489	0.307284	1.378245	99
Es	-0.653237	-1.062505	0.583761	99
Es	-0.691496	1.377817	0.586882	99
Es	0.257734	1.326208	-0.636117	99
Es	-0.792554	1.394737	0.342861	99
Es	-0.397706	1.321661	-0.013246	99
Es	-2.547659	0.588827	1.397897	99
Es	0.698800	0.712672	-0.538848	99
Es	1.506719	0.141826	0.202787	99
Es	-1.402678	0.255952	0.758916	99
Es	1.660410	0.094409	-1.006321	99
Es	0.666965	-1.582566	-0.455745	99
Es	0.691338	-0.573599	-0.476569	99
Es	-0.098915	-1.063328	-0.024717	99
Es	-0.312548	-1.182759	1.227439	99
Es	-1.009944	-0.387050	0.633387	99
Es	0.314079	-1.087062	-0.528303	99
Es	1.150220	0.106648	-0.461708	99
Es	-2.229709	0.265695	0.945357	99
Es	0.149104	-1.086541	-0.829349	99
Es	-1.150507	-1.584273	0.470673	99
Es	-1.970181	0.313499	1.377350	99
Es	-1.022700	0.938197	0.428932	99
Es	-0.053519	1.330107	-1.311069	99
Es	0.666303	1.942503	-0.560928	99
41
Properties=species:S:1:pos:R:3:Z:I:1 energy=-359.8448938353388 field_type=dipole dipole="0.000000 0.000000 0.000000" charge=0
O	-2.464789	0.307349	1.378416	8
C	-1.402839	0.255769	0.759026	6
C	-0.653319	-1.062611	0.583866	6
N	0.313771	-1.087091	-0.528884	7
C	1.150331	0.106729	-0.461694	6
C	0.257911	1.326239	-0.636334	6
O	-0.792629	1.394948	0.342976	8
H	-1.392869	-1.849451	0.403746	1
H	-0.138609	-1.276572	1.527296	1
H	0.890871	-1.923461	-0.445614	1
H	1.679981	0.145119	0.498066	1
H	1.900041	0.078089	-1.258894	1
H	0.856841	2.236598	-0.532114	1
H	-0.204699	1.348348	-1.629864	1
Es	-0.993147	1.591496	0.269935	99
Es	1.661239	0.094528	-1.006694	99
Es	0.151785	-1.086748	-0.826162	99
Es	-0.053268	1.330096	-1.310846	99
Es	-1.402678	0.255952	0.758916	99
Es	-0.312977	-1.182523	1.227102	99
Es	1.505948	0.141612	0.202183	99
Es	0.698909	0.712541	-0.538225	99
Es	-0.792520	1.394563	0.342824	99
Es	-0.653241	-1.062507	0.583757	99
Es	-2.532860	0.586132	1.388519	99
Es	0.257730	1.326208	-0.636115	99
Es	0.691230	-0.572910	-0.477795	99
Es	-1.021899	0.937491	0.433519	99
Es	0.666793	-1.582704	-0.456680	99
Es	0.666238	1.942373	-0.561164	99
Es	-2.464512	0.307302	1.378258	99
Es	-1.009706	-0.387323	0.633671	99
Es	-1.969618	0.311785	1.378036	99
Es	-0.695103	1.380168	0.581818	99
Es	0.314074	-1.087054	-0.528324	99
Es	-0.100955	-1.063288	-0.025643	99
Es	1.150219	0.106647	-0.461708	99
Es	-2.585511	0.030532	1.481134	99
Es	-2.230108	0.262678	0.945417	99
Es	-0.394834	1.322357	-0.011508	99
Es	-1.150733	-1.584179	0.470867	99
41
Properties=species:S:1:pos:R:3:Z:I:1 energy=-359.8448938353388 field_type=dipole dipole="0.000000 0.000000 0.000000" charge=0
O	-2.464789	0.307349	1.378416	8
C	-1.402839	0.255769	0.759026	6
C	-0.653319	-1.062611	0.583866	6
N	0.313771	-1.087091	-0.528884	7
C	1.150331	0.106729	-0.461694	6
C	0.257911	1.326239	-0.636334	6
O	-0.792629	1.394948	0.342976	8
H	-1.392869	-1.849451	0.403746	1
H	-0.138609	-1.276572	1.527296	1
H	0.890871	-1.923461	-0.445614	1
H	1.679981	0.145119	0.498066	1
H	1.900041	0.078089	-1.258894	1
H	0.856841	2.236598	-0.532114	1
H	-0.204699	1.348348	-1.629864	1
Es	-1.009624	-0.387335	0.633973	99
Es	-0.696762	1.380913	0.578774	99
Es	-1.968195	0.310623	1.377613	99
Es	-1.402673	0.255954	0.758921	99
Es	0.153605	-1.086778	-0.824079	99
Es	1.505127	0.141692	0.201590	99
Es	1.150218	0.106645	-0.461709	99
Es	0.691054	-0.572637	-0.478337	99
Es	0.698966	0.712414	-0.537967	99
Es	-2.231819	0.260319	0.945856	99
Es	-2.596484	0.037642	1.487894	99
Es	-2.464461	0.307417	1.378218	99
Es	-0.653239	-1.062504	0.583757	99
Es	-1.150743	-1.584041	0.471011	99
Es	-1.021657	0.937317	0.435998	99
Es	-0.313354	-1.182546	1.226728	99
Es	0.257729	1.326206	-0.636118	99
Es	-0.792630	1.394475	0.342796	99
Es	-2.521729	0.582523	1.381855	99
Es	0.314100	-1.087052	-0.528278	99
Es	-0.053141	1.330105	-1.310738	99
Es	-0.102334	-1.063345	-0.026309	99
Es	0.666215	1.942305	-0.561253	99
Es	-0.992968	1.590605	0.269829	99
Es	-0.393584	1.322596	-0.010822	99
Es	1.662075	0.094463	-1.006764	99
Es	0.666800	-1.582752	-0.457350	99
41
Properties=species:S:1:pos:R:3:Z:I:1 energy=-359.8448938353388 field_type=dipole dipole="0.000000 0.000000 0.000000" charge=0
O	-2.464789	0.307349	1.378416	8
C	-1.402839	0.255769	0.759026	6
C	-0.653319	-1.062611	0.583866	6
N	0.313771	-1.087091	-0.528884	7
C	1.150331	0.106729	-0.461694	6
C	0.257911	1.326239	-0.636334	6
O	-0.792629	1.394948	0.342976	8
H	-1.392869	-1.849451	0.403746	1
H	-0.138609	-1.276572	1.527296	1
H	0.890871	-1.923461	-0.445614	1
H	1.679981	0.145119	0.498066	1
H	1.900041	0.078089	-1.258894	1
H	0.856841	2.236598	-0.532114	1
H	-0.204699	1.348348	-1.629864	1
Es	0.691235	-0.572603	-0.478580	99
Es	-2.231238	0.260176	0.945563	99
Es	1.150218	0.106648	-0.461707	99
Es	0.257736	1.326211	-0.636113	99
Es	0.314093	-1.087053	-0.528281	99
Es	-1.150576	-1.583954	0.471181	99
Es	-0.393020	1.322724	-0.010914	99
Es	-1.402675	0.255951	0.758923	99
Es	-0.313466	-1.182417	1.226712	99
Es	1.504833	0.141606	0.201385	99
Es	-1.009766	-0.387438	0.633928	99
Es	-0.990002	1.596595	0.275602	99
Es	-0.697672	1.373474	0.574091	99
Es	-1.968485	0.307240	1.378962	99
Es	-0.653240	-1.062505	0.583757	99
Es	0.155219	-1.086354	-0.822284	99
Es	-0.103735	-1.063261	-0.027113	99
Es	-2.464514	0.307301	1.378259	99
Es	-2.507759	0.577164	1.375930	99
Es	0.666005	1.942098	-0.561284	99
Es	-1.024429	0.938434	0.434906	99
Es	-0.792546	1.394602	0.342860	99
Es	0.699099	0.712355	-0.537822	99
Es	-2.610738	0.046739	1.492786	99
Es	1.662387	0.094324	-1.006834	99
Es	-0.053064	1.330301	-1.310718	99
Es	0.666594	-1.583132	-0.458104	99
41
Properties=species:S:1:pos:R:3:Z:I:1 energy=-359.8448938353388 field_type=dipole dipole="0.000000 0.000000 0.000000" charge=0
O	-2.464789	0.307349	1.378416	8
C	-1.402839	0.255769	0.759026	6
C	-0.653319	-1.062611	0.583866	6
N	0.313771	-1.087091	-0.528884	7
C	1.150331	0.106729	-0.461694	6
C	0.257911	1.326239	-0.636334	6
O	-0.792629	1.394948	0.342976	8
H	-1.392869	-1.849451	0.403746	1
H	-0.138609	-1.276572	1.527296	1
H	0.890871	-1.923461	-0.445614	1
H	1.679981	0.145119	0.498066	1
H	1.900041	0.078089	-1.258894	1
H	0.856841	2.236598	-0.532114	1
H	-0.204699	1.348348	-1.629864	1
Es	0.690558	-0.572215	-0.479533	99
Es	-0.313696	-1.182422	1.226533	99
Es	1.662857	0.094304	-1.006749	99
Es	-0.792573	1.394555	0.342855	99
Es	-1.009719	-0.387438	0.634066	99
Es	1.150217	0.106644	-0.461706	99
Es	-2.464465	0.307305	1.378235	99
Es	-0.653243	-1.062509	0.583765	99
Es	-2.498470	0.571938	1.370542	99
Es	-1.968041	0.306455	1.378650	99
Es	-1.025015	0.938764	0.433733	99
Es	-2.619683	0.054727	1.498447	99
Es	-0.989288	1.599453	0.278178	99
Es	-1.402678	0.255952	0.758915	99
Es	0.667255	-1.582773	-0.457755	99
Es	1.504368	0.141630	0.201038	99
Es	0.314037	-1.087050	-0.528363	99
Es	0.156088	-1.087113	-0.821226	99
Es	-2.232106	0.258226	0.945656	99
Es	0.665930	1.942080	-0.561427	99
Es	-0.392377	1.323147	-0.010404	99
Es	-0.052988	1.330338	-1.310519	99
Es	0.257740	1.326217	-0.636116	99
Es	-0.104245	-1.063284	-0.027365	99
Es	-0.698474	1.369893	0.572165	99
Es	0.699092	0.712248	-0.537768	99
Es	-1.150585	-1.583846	0.471242	99
41
Properties=species:S:1:pos:R:3:Z:I:1 energy=-359.8448938353388 field_type=dipole dipole="0.000000 0.000000 0.000000" charge=0
O	-2.464789	0.307349	1.378416	8
C	-1.402839	0.255769	0.759026	6
C	-0.653319	-1.062611	0.583866	6
N	0.313771	-1.087091	-0.528884	7
C	1.150331	0.106729	-0.461694	6
C	0.257911	1.326239	-0.636334	6
O	-0.792629	1.394948	0.342976	8
H	-1.392869	-1.849451	0.403746	1
H	-0.138609	-1.276572	1.527296	1
H	0.890871	-1.923461	-0.445614	1
H	1.679981	0.145119	0.498066	1
H	1.900041	0.078089	-1.258894	1
H	0.856841	2.236598	-0.532114	1
H	-0.204699	1.348348	-1.629864	1
Es	0.690459	-0.571906	-0.479995	99
Es	-2.230443	0.257720	0.945428	99
Es	-0.313876	-1.182309	1.226221	99
Es	1.663122	0.094200	-1.006783	99
Es	-2.464452	0.307227	1.378233	99
Es	-2.626367	0.060243	1.499840	99
Es	-0.653241	-1.062506	0.583758	99
Es	0.665648	1.942035	-0.561539	99
Es	0.257739	1.326209	-0.636122	99
Es	0.156797	-1.086697	-0.819357	99
Es	1.504126	0.141567	0.200669	99
Es	-0.052911	1.330373	-1.310447	99
Es	0.667105	-1.583468	-0.458736	99
Es	-1.024042	0.938206	0.437390	99
Es	-0.792558	1.394627	0.342893	99
Es	-2.492439	0.568914	1.367626	99
Es	-0.990057	1.595248	0.274799	99
Es	-1.402678	0.255952	0.758916	99
Es	0.699412	0.712299	-0.537502	99
Es	-0.104667	-1.063216	-0.027696	99
Es	-0.699607	1.374672	0.571161	99
Es	-1.969064	0.304595	1.380476	99
Es	-1.009863	-0.387398	0.634126	99
Es	1.150221	0.106647	-0.461707	99
Es	-1.150396	-1.583977	0.471445	99
Es	-0.391566	1.323022	-0.009732	99
Es	0.314091	-1.087056	-0.528278	99
41
Properties=species:S:1:pos:R:3:Z:I:1 energy=-359.8448938353388 field_type=dipole dipole="0.000000 0.000000 0.000000" charge=0
O	-2.464789	0.307349	1.378416	8
C	-1.402839	0.255769	0.759026	6
C	-0.653319	-1.062611	0.583866	6
N	0.313771	-1.087091	-0.528884	7
C	1.150331	0.106729	-0.461694	6
C	0.257911	1.326239	-0.636334	6
O	-0.792629	1.394948	0.342976	8
H	-1.392869	-1.849451	0.403746	1
H	-0.138609	-1.276572	1.527296	1
H	0.890871	-1.923461	-0.445614	1
H	1.679981	0.145119	0.498066	1
H	1.900041	0.078089	-1.258894	1
H	0.856841	2.236598	-0.532114	1
H	-0.204699	1.348348	-1.629864	1
Es	-1.968082	0.302575	1.379599	99
Es	-2.464468	0.307394	1.378223	99
Es	-0.653238	-1.062505	0.583759	99
Es	-2.634161	0.068345	1.503847	99
Es	0.314087	-1.087058	-0.528295	99
Es	-1.150450	-1.583985	0.471495	99
Es	0.257731	1.326207	-0.636113	99
Es	-2.483673	0.562770	1.364799	99
Es	0.690925	-0.571974	-0.480112	99
Es	0.699060	0.712288	-0.537434	99
Es	0.157405	-1.086631	-0.818720	99
Es	-0.313947	-1.182314	1.226061	99
Es	-0.990755	1.598337	0.276667	99
Es	1.663260	0.094280	-1.006743	99
Es	-1.402676	0.255953	0.758914	99
Es	1.150218	0.106651	-0.461707	99
Es	-1.009802	-0.387284	0.634196	99
Es	-2.232414	0.257640	0.945110	99
Es	-1.022675	0.937796	0.439583	99
Es	-0.700255	1.372439	0.567249	99
Es	0.665844	1.942121	-0.561546	99
Es	0.666760	-1.583524	-0.458926	99
Es	-0.391498	1.322652	-0.009687	99
Es	-0.052890	1.330360	-1.310320	99
Es	-0.792615	1.394514	0.342736	99
Es	1.504004	0.141449	0.200479	99
Es	-0.105197	-1.063271	-0.028022	99
41
Properties=species:S:1:pos:R:3:Z:I:1 energy=-359.8448938353388 field_type=dipole dipole="0.000000 0.000000 0.000000" charge=0
O	-2.464789	0.307349	1.378416	8
C	-1.402839	0.255769	0.759026	6
C	-0.653319	-1.062611	0.583866	6
N	0.313771	-1.087091	-0.528884	7
C	1.150331	0.106729	-0.461694	6
C	0.257911	1.326239	-0.636334	6
O	-0.792629	1.394948	0.342976	8
H	-1.392869	-1.849451	0.403746	1
H	-0.138609	-1.276572	1.527296	1
H	0.890871	-1.923461	-0.445614	1
H	1.679981	0.145119	0.498066	1
H	1.900041	0.078089	-1.258894	1
H	0.856841	2.236598	-0.532114	1
H	-0.204699	1.348348	-1.629864	1
Es	0.665552	1.942222	-0.561823	99
Es	0.666788	-1.584037	-0.459859	99
Es	-0.653240	-1.062505	0.583757	99
Es	0.314099	-1.087056	-0.528275	99
Es	-2.464573	0.307338	1.378287	99
Es	-0.105749	-1.063331	-0.028417	99
Es	-1.402677	0.255953	0.758916	99
Es	-0.314105	-1.182113	1.225736	99
Es	-2.232483	0.255462	0.946575	99
Es	-0.052808	1.330251	-1.310072	99
Es	1.503713	0.141369	0.200096	99
Es	-1.009990	-0.387260	0.634336	99
Es	0.690730	-0.571995	-0.479973	99
Es	0.257735	1.326209	-0.636117	99
Es	-0.792541	1.394544	0.342812	99
Es	-0.700831	1.380103	0.569425	99
Es	-0.992427	1.591260	0.270982	99
Es	-2.636435	0.071083	1.506168	99
Es	1.663580	0.094142	-1.006635	99
Es	-2.481593	0.561580	1.361657	99
Es	-0.391040	1.322569	-0.009238	99
Es	-1.150223	-1.584203	0.471744	99
Es	-1.021049	0.937256	0.442497	99
Es	1.150219	0.106646	-0.461709	99
Es	0.158198	-1.085974	-0.817427	99
Es	0.699374	0.712426	-0.537250	99
Es	-1.967730	0.303287	1.378895	99
41
Properties=species:S:1:pos:R:3:Z:I:1 energy=-359.8448938353388 field_type=dipole dipole="0.000000 0.000000 0.000000" charge=0
O	-2.464789	0.307349	1.378416	8
C	-1.402839	0.255769	0.759026	6
C	-0.653319	-1.062611	0.583866	6
N	0.313771	-1.087091	-0.528884	7
C	1.150331	0.106729	-0.461694	6
C	0.257911	1.326239	-0.636334	6
O	-0.792629	1.394948	0.342976	8
H	-1.392869	-1.849451	0.403746	1
H	-0.138609	-1.276572	1.527296	1
H	0.890871	-1.923461	-0.445614	1
H	1.679981	0.145119	0.498066	1
H	1.900041	0.078089	-1.258894	1
H	0.856841	2.236598	-0.532114	1
H	-0.204699	1.348348	-1.629864	1
Es	-1.966691	0.302842	1.378394	99
Es	1.150220	0.106647	-0.461708	99
Es	0.667029	-1.583968	-0.459846	99
Es	-2.234191	0.256297	0.945956	99
Es	-0.105433	-1.063307	-0.028147	99
Es	0.690487	-0.571825	-0.480400	99
Es	-1.010006	-0.387273	0.634350	99
Es	0.314079	-1.087054	-0.528295	99
Es	0.158009	-1.086196	-0.817257	99
Es	-2.464445	0.307201	1.378229	99
Es	0.699274	0.712284	-0.537195	99
Es	-0.701147	1.370085	0.565432	99
Es	-0.989963	1.600151	0.278275	99
Es	-0.052809	1.330267	-1.310101	99
Es	0.665623	1.942180	-0.561792	99
Es	1.503677	0.141396	0.200108	99
Es	-2.476163	0.555657	1.360267	99
Es	-0.653241	-1.062507	0.583761	99
Es	-2.641305	0.076766	1.508803	99
Es	1.663593	0.094249	-1.006740	99
Es	-0.792527	1.394533	0.342797	99
Es	-1.150227	-1.584015	0.471641	99
Es	-1.402677	0.255952	0.758916	99
Es	-0.390820	1.322796	-0.009081	99
Es	-0.314172	-1.182298	1.225769	99
Es	0.257738	1.326217	-0.636108	99
Es	-1.023417	0.938147	0.439062	99
41
Properties=species:S:1:pos:R:3:Z:I:1 energy=-359.8448938353388 field_type=dipole dipole="0.000000 0.000000 0.000000" charge=0
O	-2.464789	0.307349	1.378416	8
C	-1.402839	0.255769	0.759026	6
C	-0.653319	-1.062611	0.583866	6
N	0.313771	-1.087091	-0.528884	7
C	1.150331	0.106729	-0.461694	6
C	0.257911	1.326239	-0.636334	6
O	-0.792629	1.394948	0.342976	8
H	-1.392869	-1.849451	0.403746	1
H	-0.138609	-1.276572	1.527296	1
H	0.890871	-1.923461	-0.445614	1
H	1.679981	0.145119	0.498066	1
H	1.900041	0.078089	-1.258894	1
H	0.856841	2.236598	-0.532114	1
H	-0.204699	1.348348	-1.629864	1
Es	-1.402677	0.255952	0.758917	99
Es	-0.701665	1.369007	0.564690	99
Es	-2.473776	0.553593	1.359433	99
Es	-2.464455	0.307379	1.378212	99
Es	-0.989185	1.600843	0.278985	99
Es	-0.792549	1.394532	0.342792	99
Es	-0.105941	-1.063330	-0.028496	99
Es	-2.233905	0.256273	0.945663	99
Es	-0.390259	1.322810	-0.008570	99
Es	0.667128	-1.583659	-0.459394	99
Es	-2.643428	0.079107	1.510005	99
Es	-0.052794	1.330415	-1.310075	99
Es	-1.967248	0.302451	1.378335	99
Es	1.663821	0.094170	-1.006659	99
Es	1.150220	0.106649	-0.461709	99
Es	-1.150235	-1.584080	0.471750	99
Es	-1.009964	-0.387278	0.634324	99
Es	0.665467	1.942118	-0.561782	99
Es	-0.653240	-1.062505	0.583758	99
Es	0.699397	0.712238	-0.537208	99
Es	0.257731	1.326206	-0.636122	99
Es	-1.024239	0.938473	0.438597	99
Es	0.690401	-0.571623	-0.480747	99
Es	1.503456	0.141415	0.199911	99
Es	-0.314154	-1.182170	1.225723	99
Es	0.314080	-1.087060	-0.528300	99
Es	0.158509	-1.086701	-0.816943	99
41
Properties=species:S:1:pos:R:3:Z:I:1 energy=-359.8448938353388 field_type=dipole dipole="0.000000 0.000000 0.000000" charge=0
O	-2.464789	0.307349	1.378416	8
C	-1.402839	0.255769	0.759026	6
C	-0.653319	-1.062611	0.583866	6
N	0.313771	-1.087091	-0.528884	7
C	1.150331	0.106729	-0.461694	6
C	0.257911	1.326239	-0.636334	6
O	-0.792629	1.394948	0.342976	8
H	-1.392869	-1.849451	0.403746	1
H	-0.138609	-1.276572	1.527296	1
H	0.890871	-1.923461	-0.445614	1
H	1.679981	0.145119	0.498066	1
H	1.900041	0.078089	-1.258894	1
H	0.856841	2.236598	-0.532114	1
H	-0.204699	1.348348	-1.629864	1
Es	0.665420	1.942046	-0.561783	99
Es	1.663935	0.094019	-1.006606	99
Es	-1.010151	-0.387283	0.634329	99
Es	-0.314244	-1.182325	1.225775	99
Es	0.666994	-1.584105	-0.460005	99
Es	0.699465	0.712217	-0.537304	99
Es	0.314090	-1.087053	-0.528287	99
Es	1.150221	0.106647	-0.461709	99
Es	-1.150036	-1.583911	0.471699	99
Es	0.690525	-0.571861	-0.480197	99
Es	-2.473174	0.550838	1.358909	99
Es	-0.106392	-1.063267	-0.028893	99
Es	0.159025	-1.085977	-0.816500	99
Es	0.257733	1.326203	-0.636116	99
Es	-2.233899	0.256915	0.945191	99
Es	-2.464480	0.307272	1.378244	99
Es	-0.653239	-1.062505	0.583758	99
Es	-1.402676	0.255953	0.758916	99
Es	-0.792557	1.394531	0.342794	99
Es	-2.644240	0.079924	1.510480	99
Es	-1.967033	0.303881	1.378849	99
Es	-0.701901	1.367048	0.562988	99
Es	1.503340	0.141428	0.199936	99
Es	-0.390365	1.322937	-0.008837	99
Es	-1.025555	0.938803	0.438524	99
Es	-0.987568	1.602361	0.280973	99
Es	-0.052740	1.330489	-1.310038	99
41
Properties=species:S:1:pos:R:3:Z:I:1 energy=-359.8448938353388 field_type=dipole dipole="0.000000 0.000000 0.000000" charge=0
O	-2.464789	0.307349	1.378416	8
C	-1.402839	0.255769	0.759026	6
C	-0.653319	-1.062611	0.583866	6
N	0.313771	-1.087091	-0.528884	7
C	1.150331	0.106729	-0.461694	6
C	0.257911	1.326239	-0.636334	6
O	-0.792629	1.394948	0.342976	8
H	-1.392869	-1.849451	0.403746	1
H	-0.138609	-1.276572	1.527296	1
H	0.890871	-1.923461	-0.445614	1
H	1.679981	0.145119	0.498066	1
H	1.900041	0.078089	-1.258894	1
H	0.856841	2.236598	-0.532114	1
H	-0.204699	1.348348	-1.629864	1
Es	0.314083	-1.087050	-0.528293	99
Es	0.690434	-0.571607	-0.480698	99
Es	-0.653241	-1.062505	0.583759	99
Es	1.150220	0.106647	-0.461708	99
Es	-1.010012	-0.387364	0.634357	99
Es	-1.023858	0.938090	0.440098	99
Es	0.667028	-1.584161	-0.460351	99
Es	-0.314211	-1.182177	1.225694	99
Es	0.257729	1.326202	-0.636119	99
Es	-1.150189	-1.583999	0.471797	99
Es	-1.402677	0.255953	0.758917	99
Es	1.503314	0.141386	0.199799	99
Es	1.663966	0.094142	-1.006645	99
Es	-0.988828	1.602426	0.281162	99
Es	-1.966942	0.302491	1.379233	99
Es	-0.792429	1.394522	0.342897	99
Es	-2.233796	0.256421	0.945538	99
Es	-0.106420	-1.063397	-0.028878	99
Es	-0.390713	1.323349	-0.009301	99
Es	-0.052706	1.330483	-1.309974	99
Es	0.159131	-1.086077	-0.815715	99
Es	-0.702130	1.367284	0.561583	99
Es	-2.469523	0.548262	1.357298	99
Es	-2.648195	0.084587	1.511405	99
Es	0.665413	1.942074	-0.561809	99
Es	0.699417	0.712169	-0.537150	99
Es	-2.464372	0.307075	1.378197	99
41
Properties=species:S:1:pos:R:3:Z:I:1 energy=-359.8448938353388 field_type=dipole dipole="0.000000 0.000000 0.000000" charge=0
O	-2.464789	0.307349	1.378416	8
C	-1.402839	0.255769	0.759026	6
C	-0.653319	-1.062611	0.583866	6
N	0.313771	-1.087091	-0.528884	7
C	1.150331	0.106729	-0.461694	6
C	0.257911	1.326239	-0.636334	6
O	-0.792629	1.394948	0.342976	8
H	-1.392869	-1.849451	0.403746	1
H	-0.138609	-1.276572	1.527296	1
H	0.890871	-1.923461	-0.445614	1
H	1.679981	0.145119	0.498066	1
H	1.900041	0.078089	-1.258894	1
H	0.856841	2.236598	-0.532114	1
H	-0.204699	1.348348	-1.629864	1
Es	-0.314192	-1.182294	1.225727	99
Es	-1.010044	-0.387246	0.634439	99
Es	0.667133	-1.584223	-0.460277	99
Es	-0.107080	-1.063439	-0.029447	99
Es	-2.231611	0.255501	0.944618	99
Es	-1.402677	0.255952	0.758916	99
Es	-1.968702	0.302392	1.381118	99
Es	-0.792573	1.394514	0.342763	99
Es	1.150220	0.106647	-0.461708	99
Es	-2.650513	0.087367	1.511928	99
Es	-0.702544	1.367539	0.561242	99
Es	0.690300	-0.571503	-0.480583	99
Es	0.699464	0.712305	-0.537067	99
Es	-0.988359	1.602207	0.280734	99
Es	0.159747	-1.086110	-0.815212	99
Es	0.314092	-1.087052	-0.528281	99
Es	1.664025	0.094054	-1.006632	99
Es	1.503268	0.141375	0.199568	99
Es	-0.052717	1.330378	-1.309908	99
Es	0.257732	1.326207	-0.636115	99
Es	-1.024393	0.938211	0.440226	99
Es	-2.464459	0.307251	1.378224	99
Es	0.665380	1.942151	-0.561917	99
Es	-1.150126	-1.583925	0.471757	99
Es	-2.467536	0.546289	1.355787	99
Es	-0.653239	-1.062504	0.583758	99
Es	-0.390099	1.323181	-0.008566	99
41
Properties=species:S:1:pos:R:3:Z:I:1 energy=-359.8448938353388 field_type=dipole dipole="0.000000 0.000000 0.000000" charge=0
O	-2.464789	0.307349	1.378416	8
C	-1.402839	0.255769	0.759026	6
C	-0.653319	-1.062611	0.583866	6
N	0.313771	-1.087091	-0.528884	7
C	1.150331	0.106729	-0.461694	6
C	0.257911	1.326239	-0.636334	6
O	-0.792629	1.394948	0.342976	8
H	-1.392869	-1.849451	0.403746	1
H	-0.138609	-1.276572	1.527296	1
H	0.890871	-1.923461	-0.445614	1
H	1.679981	0.145119	0.498066	1
H	1.900041	0.078089	-1.258894	1
H	0.856841	2.236598	-0.532114	1
H	-0.204699	1.348348	-1.629864	1
Es	-0.702999	1.366011	0.557489	99
Es	-1.023147	0.937709	0.442816	99
Es	1.663991	0.094079	-1.006564	99
Es	-0.792556	1.394507	0.342743	99
Es	0.257739	1.326214	-0.636115	99
Es	-0.653240	-1.062506	0.583759	99
Es	0.665526	1.942247	-0.561929	99
Es	0.666791	-1.584535	-0.460804	99
Es	-2.463374	0.541366	1.352843	99
Es	-0.390505	1.322971	-0.009031	99
Es	-0.052757	1.330286	-1.309870	99
Es	-2.654632	0.093590	1.514764	99
Es	1.503296	0.141402	0.199721	99
Es	-1.966856	0.302572	1.379960	99
Es	0.159110	-1.085803	-0.815225	99
Es	-2.233552	0.254127	0.945895	99
Es	-2.464394	0.307151	1.378206	99
Es	-1.150180	-1.584065	0.471745	99
Es	-0.988750	1.604515	0.282451	99
Es	-0.314222	-1.182347	1.225515	99
Es	-1.009970	-0.387158	0.634521	99
Es	0.314084	-1.087053	-0.528291	99
Es	0.699395	0.712285	-0.537210	99
Es	-1.402677	0.255952	0.758915	99
Es	-0.106337	-1.063332	-0.028785	99
Es	1.150221	0.106647	-0.461709	99
Es	0.690491	-0.571609	-0.480721	99
41
Properties=species:S:1:pos:R:3:Z:I:1 energy=-359.8448938353388 field_type=dipole dipole="0.000000 0.000000 0.000000" charge=0
O	-2.464789	0.307349	1.378416	8
C	-1.402839	0.255769	0.759026	6
C	-0.653319	-1.062611	0.583866	6
N	0.313771	-1.087091	-0.528884	7
C	1.150331	0.106729	-0.461694	6
C	0.257911	1.326239	-0.636334	6
O	-0.792629	1.394948	0.342976	8
H	-1.392869	-1.849451	0.403746	1
H	-0.138609	-1.276572	1.527296	1
H	0.890871	-1.923461	-0.445614	1
H	1.679981	0.145119	0.498066	1
H	1.900041	0.078089	-1.258894	1
H	0.856841	2.236598	-0.532114	1
H	-0.204699	1.348348	-1.629864	1
Es	-1.010025	-0.387183	0.634439	99
Es	-0.106550	-1.063435	-0.028941	99
Es	-1.024028	0.938112	0.440461	99
Es	0.690324	-0.571137	-0.481666	99
Es	0.666836	-1.584521	-0.460844	99
Es	-0.314296	-1.182299	1.225595	99
Es	1.664134	0.094102	-1.006549	99
Es	-2.464441	0.307208	1.378228	99
Es	-0.792553	1.394533	0.342795	99
Es	0.159551	-1.086302	-0.813980	99
Es	1.150220	0.106647	-0.461708	99
Es	-0.389946	1.323044	-0.008299	99
Es	-1.150104	-1.583985	0.471771	99
Es	-2.655451	0.094427	1.515080	99
Es	-2.461849	0.540443	1.353657	99
Es	0.665416	1.942119	-0.561837	99
Es	0.699455	0.712150	-0.537137	99
Es	-0.052712	1.330581	-1.309829	99
Es	-1.967474	0.301444	1.379593	99
Es	0.257733	1.326208	-0.636114	99
Es	0.314094	-1.087055	-0.528277	99
Es	-2.233598	0.255281	0.945100	99
Es	1.503164	0.141370	0.199435	99
Es	-0.702852	1.366385	0.560030	99
Es	-0.988640	1.603641	0.281407	99
Es	-0.653236	-1.062504	0.583761	99
Es	-1.402676	0.255952	0.758918	99
41
Properties=species:S:1:pos:R:3:Z:I:1 energy=-359.8448938353388 field_type=dipole dipole="0.000000 0.000000 0.000000" charge=0
O	-2.464789	0.307349	1.378416	8
C	-1.402839	0.255769	0.759026	6
C	-0.653319	-1.062611	0.583866	6
N	0.313771	-1.087091	-0.528884	7
C	1.150331	0.106729	-0.461694	6
C	0.257911	1.326239	-0.636334	6
O	-0.792629	1.394948	0.342976	8
H	-1.392869	-1.849451	0.403746	1
H	-0.138609	-1.276572	1.527296	1
H	0.890871	-1.923461	-0.445614	1
H	1.679981	0.145119	0.498066	1
H	1.900041	0.078089	-1.258894	1
H	0.856841	2.236598	-0.532114	1
H	-0.204699	1.348348	-1.629864	1
Es	-1.968026	0.302294	1.380443	99
Es	-0.052700	1.330549	-1.309841	99
Es	-0.314365	-1.182253	1.225518	99
Es	-0.653240	-1.062504	0.583758	99
Es	-0.792691	1.394360	0.342872	99
Es	-0.106941	-1.063382	-0.029237	99
Es	-1.024226	0.938223	0.441009	99
Es	-1.402677	0.255952	0.758917	99
Es	0.667312	-1.584258	-0.460488	99
Es	0.699411	0.712198	-0.537105	99
Es	0.665414	1.942094	-0.561864	99
Es	-2.654845	0.093000	1.514261	99
Es	-1.010013	-0.387265	0.634492	99
Es	1.503130	0.141320	0.199482	99
Es	1.664164	0.094115	-1.006573	99
Es	-1.150152	-1.583975	0.471791	99
Es	-0.988010	1.604223	0.282691	99
Es	0.690011	-0.571362	-0.481320	99
Es	-2.232585	0.255741	0.944809	99
Es	-0.389765	1.323301	-0.008379	99
Es	0.257732	1.326208	-0.636112	99
Es	-2.464512	0.307318	1.378246	99
Es	-2.462856	0.540488	1.353942	99
Es	-0.703286	1.365521	0.558225	99
Es	0.314066	-1.087054	-0.528321	99
Es	1.150220	0.106648	-0.461708	99
Es	0.159923	-1.086277	-0.814418	99
41
Properties=species:S:1:pos:R:3:Z:I:1 energy=-359.8448938353388 field_type=dipole dipole="0.000000 0.000000 0.000000" charge=0
O	-2.464789	0.307349	1.378416	8
C	-1.402839	0.255769	0.759026	6
C	-0.653319	-1.062611	0.583866	6
N	0.313771	-1.087091	-0.528884	7
C	1.150331	0.106729	-0.461694	6
C	0.257911	1.326239	-0.636334	6
O	-0.792629	1.394948	0.342976	8
H	-1.392869	-1.849451	0.403746	1
H	-0.138609	-1.276572	1.527296	1
H	0.890871	-1.923461	-0.445614	1
H	1.679981	0.145119	0.498066	1
H	1.900041	0.078089	-1.258894	1
H	0.856841	2.236598	-0.532114	1
H	-0.204699	1.348348	-1.629864	1
Es	-1.010009	-0.387261	0.634606	99
Es	-0.987232	1.606547	0.285444	99
Es	-2.464453	0.307262	1.378225	99
Es	1.503096	0.141318	0.199356	99
Es	0.690066	-0.571292	-0.481494	99
Es	-0.314318	-1.182292	1.225487	99
Es	-0.653239	-1.062505	0.583758	99
Es	1.150221	0.106648	-0.461708	99
Es	-1.402677	0.255953	0.758915	99
Es	-1.024775	0.938323	0.439599	99
Es	0.665371	1.942064	-0.561867	99
Es	-1.965889	0.301669	1.378076	99
Es	-1.150123	-1.583975	0.471835	99
Es	0.159890	-1.086563	-0.814487	99
Es	0.667218	-1.584054	-0.460278	99
Es	0.314095	-1.087054	-0.528278	99
Es	0.257734	1.326209	-0.636114	99
Es	0.699464	0.712282	-0.537020	99
Es	-0.702808	1.362547	0.557906	99
Es	-0.106978	-1.063333	-0.029250	99
Es	-2.235473	0.255232	0.946148	99
Es	-0.052689	1.330530	-1.309880	99
Es	-0.792658	1.394475	0.342697	99
Es	-0.390539	1.323778	-0.009287	99
Es	-2.460503	0.538449	1.352949	99
Es	-2.656504	0.096210	1.516300	99
Es	1.664207	0.094057	-1.006548	99
41
Properties=species:S:1:pos:R:3:Z:I:1 energy=-359.8448938353388 field_type=dipole dipole="0.000000 0.000000 0.000000" charge=0
O	-2.464789	0.307349	1.378416	8
C	-1.402839	0.255769	0.759026	6
C	-0.653319	-1.062611	0.583866	6
N	0.313771	-1.087091	-0.528884	7
C	1.150331	0.106729	-0.461694	6
C	0.257911	1.326239	-0.636334	6
O	-0.792629	1.394948	0.342976	8
H	-1.392869	-1.849451	0.403746	1
H	-0.138609	-1.276572	1.527296	1
H	0.890871	-1.923461	-0.445614	1
H	1.679981	0.145119	0.498066	1
H	1.900041	0.078089	-1.258894	1
H	0.856841	2.236598	-0.532114	1
H	-0.204699	1.348348	-1.629864	1
Es	-0.390197	1.323303	-0.008883	99
Es	-1.150104	-1.584262	0.471919	99
Es	-0.653239	-1.062505	0.583759	99
Es	1.503231	0.141361	0.199495	99
Es	-2.659977	0.101259	1.517110	99
Es	-0.987451	1.606956	0.285169	99
Es	1.664069	0.094135	-1.006548	99
Es	0.665537	1.942201	-0.561851	99
Es	0.666812	-1.584644	-0.461161	99
Es	-2.235329	0.254935	0.945627	99
Es	-0.703968	1.363302	0.553696	99
Es	-0.052724	1.330472	-1.309820	99
Es	0.257734	1.326209	-0.636114	99
Es	-0.792675	1.394407	0.342773	99
Es	-0.314315	-1.182163	1.225285	99
Es	-2.464449	0.307232	1.378224	99
Es	0.314092	-1.087055	-0.528281	99
Es	0.159296	-1.085768	-0.814528	99
Es	-1.965946	0.300674	1.379064	99
Es	-1.023716	0.937699	0.443649	99