42
Properties=species:S:1:pos:R:3:Z:I:1 energy=-339.89626995556773 field_type=dipole dipole="0.000000 0.000000 0.000000" charge=0
O	-0.698490	-2.692076	0.637015	8
C	-1.066580	-1.336386	0.412755	6
C	0.166720	-0.515956	0.264645	6
C	0.795890	-0.317066	-1.081715	6
N	0.075610	0.777554	-0.423225	7
N	1.008260	1.579474	0.130465	7
C	0.631770	2.813694	0.137585	6
H	-1.523580	-3.182746	0.791515	1
H	-1.647350	-0.988036	1.272965	1
H	-1.701740	-1.295136	-0.478675	1
H	0.813320	-0.590136	1.131475	1
H	0.309470	-0.738476	-1.951395	1
H	1.875900	-0.260176	-1.143485	1
H	1.297710	3.581464	0.562705	1
H	-0.336910	3.164004	-0.262635	1
Es	-0.019020	3.053198	-0.130388	99
Es	-0.698838	-2.691954	0.636940	99
Es	1.519925	-0.269483	-1.124807	99
Es	0.599951	-0.555281	0.846589	99
Es	1.077802	3.337462	0.423550	99
Es	-0.544383	-2.697066	0.901589	99
Es	-0.455590	-0.913989	0.325870	99
Es	0.076202	0.777251	-0.422982	99
Es	0.461972	-0.598562	-1.671307	99
Es	0.545759	-0.633437	-0.414325	99
Es	0.713364	2.085901	0.389291	99
Es	-1.468065	-1.090201	1.004543	99
Es	1.333002	1.429896	0.259528	99
Es	0.795745	-0.316911	-1.081562	99
Es	0.053997	0.286172	-0.009169	99
Es	0.538353	1.178737	-0.146526	99
Es	-0.580325	-2.796104	0.373290	99
Es	1.007724	1.579703	0.130251	99
Es	-1.066492	-1.336598	0.412797	99
Es	-0.856837	-2.181008	0.555374	99
Es	0.166683	-0.515775	0.264475	99
Es	-1.154797	-2.938391	0.717047	99
Es	-1.503080	-1.299523	-0.202558	99
Es	0.954714	2.162212	-0.129070	99
Es	0.631783	2.813738	0.137595	99
Es	0.429670	0.404486	-0.802165	99
Es	-0.250340	0.907035	-0.554096	99
42
Properties=species:S:1:pos:R:3:Z:I:1 energy=-339.89626995556773 field_type=dipole dipole="0.000000 0.000000 0.000000" charge=0
O	-0.698490	-2.692076	0.637015	8
C	-1.066580	-1.336386	0.412755	6
C	0.166720	-0.515956	0.264645	6
C	0.795890	-0.317066	-1.081715	6
N	0.075610	0.777554	-0.423225	7
N	1.008260	1.579474	0.130465	7
C	0.631770	2.813694	0.137585	6
H	-1.523580	-3.182746	0.791515	1
H	-1.647350	-0.988036	1.272965	1
H	-1.701740	-1.295136	-0.478675	1
H	0.813320	-0.590136	1.131475	1
H	0.309470	-0.738476	-1.951395	1
H	1.875900	-0.260176	-1.143485	1
H	1.297710	3.581464	0.562705	1
H	-0.336910	3.164004	-0.262635	1
Es	0.538682	1.179052	-0.146282	99
Es	-1.066493	-1.336595	0.412796	99
Es	0.428415	0.408278	-0.804320	99
Es	-0.246654	0.904199	-0.552725	99
Es	-0.855724	-2.175354	0.558137	99
Es	1.517545	-0.269758	-1.125194	99
Es	1.007725	1.579707	0.130251	99
Es	1.328753	1.431888	0.258748	99
Es	-1.469208	-1.089329	1.004525	99
Es	-0.563915	-2.693136	0.889397	99
Es	1.077496	3.338111	0.423069	99
Es	-1.152240	-2.941625	0.721453	99
Es	0.795745	-0.316913	-1.081561	99
Es	0.548291	-0.637405	-0.412864	99
Es	-1.501367	-1.299463	-0.201178	99
Es	0.598287	-0.555303	0.844564	99
Es	-0.564337	-2.803526	0.377914	99
Es	-0.017751	3.052893	-0.130094	99
Es	0.463456	-0.598575	-1.670493	99
Es	-0.698845	-2.691930	0.637051	99
Es	-0.455124	-0.914762	0.325338	99
Es	0.052119	0.287444	-0.008071	99
Es	0.957260	2.162886	-0.132825	99
Es	0.712082	2.085506	0.393057	99
Es	0.076211	0.777244	-0.422978	99
Es	0.166688	-0.515764	0.264462	99
Es	0.631780	2.813739	0.137597	99
42
Properties=species:S:1:pos:R:3:Z:I:1 energy=-339.89626995556773 field_type=dipole dipole="0.000000 0.000000 0.000000" charge=0
O	-0.698490	-2.692076	0.637015	8
C	-1.066580	-1.336386	0.412755	6
C	0.166720	-0.515956	0.264645	6
C	0.795890	-0.317066	-1.081715	6
N	0.075610	0.777554	-0.423225	7
N	1.008260	1.579474	0.130465	7
C	0.631770	2.813694	0.137585	6
H	-1.523580	-3.182746	0.791515	1
H	-1.647350	-0.988036	1.272965	1
H	-1.701740	-1.295136	-0.478675	1
H	0.813320	-0.590136	1.131475	1
H	0.309470	-0.738476	-1.951395	1
H	1.875900	-0.260176	-1.143485	1
H	1.297710	3.581464	0.562705	1
H	-0.336910	3.164004	-0.262635	1
Es	0.597079	-0.555410	0.843073	99
Es	1.007738	1.579720	0.130259	99
Es	-0.569912	-2.691428	0.877859	99
Es	1.077193	3.338806	0.422816	99
Es	0.550020	-0.639895	-0.411773	99
Es	1.326713	1.434089	0.258305	99
Es	0.957785	2.163198	-0.134270	99
Es	0.539100	1.178894	-0.146253	99
Es	0.051521	0.287983	-0.007447	99
Es	-0.561891	-2.807541	0.378544	99
Es	0.076204	0.777250	-0.422981	99
Es	0.711167	2.085174	0.394522	99
Es	-1.469796	-1.088682	1.004458	99
Es	0.795741	-0.316908	-1.081553	99
Es	0.631781	2.813740	0.137598	99
Es	-0.016923	3.052331	-0.129990	99
Es	-0.698789	-2.691942	0.637028	99
Es	0.428158	0.410959	-0.805116	99
Es	-0.855167	-2.172620	0.560483	99
Es	-1.066489	-1.336601	0.412796	99
Es	-0.244590	0.902085	-0.552354	99
Es	-1.149322	-2.942627	0.729845	99
Es	-0.454738	-0.915226	0.324843	99
Es	0.464461	-0.598602	-1.670006	99
Es	-1.500266	-1.299433	-0.200207	99
Es	1.515414	-0.270046	-1.125165	99
Es	0.166687	-0.515762	0.264459	99
42
Properties=species:S:1:pos:R:3:Z:I:1 energy=-339.89626995556773 field_type=dipole dipole="0.000000 0.000000 0.000000" charge=0
O	-0.698490	-2.692076	0.637015	8
C	-1.066580	-1.336386	0.412755	6
C	0.166720	-0.515956	0.264645	6
C	0.795890	-0.317066	-1.081715	6
N	0.075610	0.777554	-0.423225	7
N	1.008260	1.579474	0.130465	7
C	0.631770	2.813694	0.137585	6
H	-1.523580	-3.182746	0.791515	1
H	-1.647350	-0.988036	1.272965	1
H	-1.701740	-1.295136	-0.478675	1
H	0.813320	-0.590136	1.131475	1
H	0.309470	-0.738476	-1.951395	1
H	1.875900	-0.260176	-1.143485	1
H	1.297710	3.581464	0.562705	1
H	-0.336910	3.164004	-0.262635	1
Es	0.710347	2.085111	0.394724	99
Es	1.324751	1.436153	0.258820	99
Es	0.076210	0.777240	-0.422978	99
Es	1.007719	1.579692	0.130247	99
Es	0.465234	-0.598452	-1.669855	99
Es	1.076951	3.339313	0.422620	99
Es	0.428572	0.412244	-0.804798	99
Es	0.631781	2.813741	0.137595	99
Es	0.551455	-0.641987	-0.411017	99
Es	-1.066490	-1.336600	0.412797	99
Es	0.539085	1.178913	-0.145984	99
Es	-1.469939	-1.088173	1.004469	99
Es	1.513228	-0.269985	-1.125178	99
Es	0.166686	-0.515759	0.264461	99
Es	-0.016238	3.051925	-0.130146	99
Es	-0.580336	-2.689657	0.870047	99
Es	-0.854208	-2.170665	0.563066	99
Es	-0.698844	-2.691920	0.637044	99
Es	0.795735	-0.316905	-1.081559	99
Es	0.051262	0.288767	-0.007154	99
Es	-0.454543	-0.915485	0.324416	99
Es	0.958458	2.163314	-0.135246	99
Es	-0.554012	-2.810825	0.382062	99
Es	-1.147642	-2.943469	0.731396	99
Es	-1.499678	-1.299422	-0.199476	99
Es	-0.243024	0.899979	-0.552542	99
Es	0.596357	-0.555580	0.841940	99
42
Properties=species:S:1:pos:R:3:Z:I:1 energy=-339.89626995556773 field_type=dipole dipole="0.000000 0.000000 0.000000" charge=0
O	-0.698490	-2.692076	0.637015	8
C	-1.066580	-1.336386	0.412755	6
C	0.166720	-0.515956	0.264645	6
C	0.795890	-0.317066	-1.081715	6
N	0.075610	0.777554	-0.423225	7
N	1.008260	1.579474	0.130465	7
C	0.631770	2.813694	0.137585	6
H	-1.523580	-3.182746	0.791515	1
H	-1.647350	-0.988036	1.272965	1
H	-1.701740	-1.295136	-0.478675	1
H	0.813320	-0.590136	1.131475	1
H	0.309470	-0.738476	-1.951395	1
H	1.875900	-0.260176	-1.143485	1
H	1.297710	3.581464	0.562705	1
H	-0.336910	3.164004	-0.262635	1
Es	-1.066490	-1.336600	0.412797	99
Es	0.166689	-0.515757	0.264457	99
Es	-0.242426	0.898245	-0.552014	99
Es	0.428393	0.414611	-0.805053	99
Es	1.511176	-0.269908	-1.124876	99
Es	-1.470134	-1.087670	1.004481	99
Es	-0.586685	-2.687410	0.863268	99
Es	0.595681	-0.555504	0.841080	99
Es	0.552759	-0.643444	-0.410320	99
Es	-1.145817	-2.944137	0.735168	99
Es	0.539163	1.179101	-0.145920	99
Es	-1.499041	-1.299430	-0.198889	99
Es	1.076535	3.339936	0.422594	99
Es	-0.854112	-2.169884	0.563447	99
Es	-0.454372	-0.915775	0.324118	99
Es	0.052141	0.287887	-0.007490	99
Es	-0.015739	3.051321	-0.130229	99
Es	0.465988	-0.598610	-1.669812	99
Es	-0.549553	-2.813435	0.384648	99
Es	0.076225	0.777237	-0.422974	99
Es	0.795742	-0.316910	-1.081555	99
Es	0.958634	2.163360	-0.135542	99
Es	0.631783	2.813742	0.137588	99
Es	0.709927	2.085067	0.394909	99
Es	1.323554	1.437704	0.258690	99
Es	-0.698826	-2.691941	0.636968	99
Es	1.007686	1.579711	0.130234	99
42
Properties=species:S:1:pos:R:3:Z:I:1 energy=-339.89626995556773 field_type=dipole dipole="0.000000 0.000000 0.000000" charge=0
O	-0.698490	-2.692076	0.637015	8
C	-1.066580	-1.336386	0.412755	6
C	0.166720	-0.515956	0.264645	6
C	0.795890	-0.317066	-1.081715	6
N	0.075610	0.777554	-0.423225	7
N	1.008260	1.579474	0.130465	7
C	0.631770	2.813694	0.137585	6
H	-1.523580	-3.182746	0.791515	1
H	-1.647350	-0.988036	1.272965	1
H	-1.701740	-1.295136	-0.478675	1
H	0.813320	-0.590136	1.131475	1
H	0.309470	-0.738476	-1.951395	1
H	1.875900	-0.260176	-1.143485	1
H	1.297710	3.581464	0.562705	1
H	-0.336910	3.164004	-0.262635	1
Es	-0.698836	-2.691954	0.636937	99
Es	0.595301	-0.555658	0.840455	99
Es	-0.454327	-0.916176	0.323765	99
Es	1.322781	1.438882	0.258535	99
Es	-1.498775	-1.299362	-0.198648	99
Es	0.631785	2.813744	0.137588	99
Es	0.553666	-0.644421	-0.409742	99
Es	0.052269	0.288110	-0.007374	99
Es	1.076409	3.340153	0.422544	99
Es	0.958472	2.163388	-0.135714	99
Es	-1.144291	-2.944911	0.738211	99
Es	0.795738	-0.316901	-1.081547	99
Es	-0.015519	3.051128	-0.130317	99
Es	0.428982	0.415603	-0.804741	99
Es	0.538833	1.179418	-0.145889	99
Es	-0.592303	-2.685878	0.856735	99
Es	-0.241391	0.896814	-0.552253	99
Es	0.466696	-0.598703	-1.669923	99
Es	0.166690	-0.515754	0.264455	99
Es	1.509236	-0.269866	-1.124470	99
Es	1.007708	1.579717	0.130245	99
Es	-1.066492	-1.336598	0.412796	99
Es	-1.469986	-1.087254	1.004553	99
Es	0.076216	0.777234	-0.422976	99
Es	-0.853609	-2.169058	0.564303	99
Es	0.709574	2.084993	0.394977	99
Es	-0.545948	-2.815182	0.387268	99
42
Properties=species:S:1:pos:R:3:Z:I:1 energy=-339.89626995556773 field_type=dipole dipole="0.000000 0.000000 0.000000" charge=0
O	-0.698490	-2.692076	0.637015	8
C	-1.066580	-1.336386	0.412755	6
C	0.166720	-0.515956	0.264645	6
C	0.795890	-0.317066	-1.081715	6
N	0.075610	0.777554	-0.423225	7
N	1.008260	1.579474	0.130465	7
C	0.631770	2.813694	0.137585	6
H	-1.523580	-3.182746	0.791515	1
H	-1.647350	-0.988036	1.272965	1
H	-1.701740	-1.295136	-0.478675	1
H	0.813320	-0.590136	1.131475	1
H	0.309470	-0.738476	-1.951395	1
H	1.875900	-0.260176	-1.143485	1
H	1.297710	3.581464	0.562705	1
H	-0.336910	3.164004	-0.262635	1
Es	-0.596303	-2.684385	0.851095	99
Es	-0.698848	-2.691926	0.636950	99
Es	0.709138	2.085033	0.394520	99
Es	0.958257	2.163316	-0.135469	99
Es	-0.454206	-0.916404	0.323673	99
Es	0.076158	0.777239	-0.423001	99
Es	-1.470019	-1.087044	1.004565	99
Es	1.007703	1.579716	0.130242	99
Es	-0.853759	-2.168757	0.564639	99
Es	-0.240543	0.895183	-0.551958	99
Es	0.595166	-0.555814	0.839993	99
Es	1.507627	-0.269781	-1.124208	99
Es	-1.066483	-1.336602	0.412797	99
Es	-0.543722	-2.817334	0.388227	99
Es	0.631778	2.813742	0.137599	99
Es	0.467216	-0.598818	-1.669933	99
Es	1.076168	3.340569	0.422492	99
Es	-1.498488	-1.299284	-0.198495	99
Es	0.538824	1.179684	-0.146207	99
Es	-0.015236	3.050733	-0.130495	99
Es	-1.142310	-2.944696	0.742434	99
Es	0.052937	0.287951	-0.007504	99
Es	0.554371	-0.645071	-0.409373	99
Es	0.166687	-0.515757	0.264454	99
Es	0.429043	0.416567	-0.804407	99
Es	0.795743	-0.316891	-1.081542	99
Es	1.321981	1.440340	0.258684	99
42
Properties=species:S:1:pos:R:3:Z:I:1 energy=-339.89626995556773 field_type=dipole dipole="0.000000 0.000000 0.000000" charge=0
O	-0.698490	-2.692076	0.637015	8
C	-1.066580	-1.336386	0.412755	6
C	0.166720	-0.515956	0.264645	6
C	0.795890	-0.317066	-1.081715	6
N	0.075610	0.777554	-0.423225	7
N	1.008260	1.579474	0.130465	7
C	0.631770	2.813694	0.137585	6
H	-1.523580	-3.182746	0.791515	1
H	-1.647350	-0.988036	1.272965	1
H	-1.701740	-1.295136	-0.478675	1
H	0.813320	-0.590136	1.131475	1
H	0.309470	-0.738476	-1.951395	1
H	1.875900	-0.260176	-1.143485	1
H	1.297710	3.581464	0.562705	1
H	-0.336910	3.164004	-0.262635	1
Es	1.007714	1.579716	0.130248	99
Es	-1.498175	-1.299221	-0.198437	99
Es	1.321123	1.441650	0.258727	99
Es	-0.853041	-2.168136	0.565741	99
Es	-0.602041	-2.683498	0.847287	99
Es	1.076115	3.340675	0.422445	99
Es	-0.698890	-2.691942	0.636833	99
Es	0.076218	0.777233	-0.422976	99
Es	0.631781	2.813743	0.137594	99
Es	-0.538997	-2.818634	0.391629	99
Es	0.708793	2.084973	0.394209	99
Es	0.467763	-0.598706	-1.669997	99
Es	0.166687	-0.515755	0.264454	99
Es	-1.141944	-2.944984	0.741840	99
Es	0.539128	1.179323	-0.145992	99
Es	0.795728	-0.316895	-1.081548	99
Es	0.555130	-0.646075	-0.409079	99
Es	-1.469954	-1.086645	1.004646	99
Es	-0.015039	3.050659	-0.130661	99
Es	-1.066488	-1.336596	0.412796	99
Es	1.506080	-0.269653	-1.123956	99
Es	0.594812	-0.555948	0.839838	99
Es	-0.454188	-0.916560	0.323359	99
Es	0.429266	0.417568	-0.804158	99
Es	-0.239923	0.894295	-0.551992	99
Es	0.958007	2.163340	-0.135419	99
Es	0.053215	0.287581	-0.007657	99
42
Properties=species:S:1:pos:R:3:Z:I:1 energy=-339.89626995556773 field_type=dipole dipole="0.000000 0.000000 0.000000" charge=0
O	-0.698490	-2.692076	0.637015	8
C	-1.066580	-1.336386	0.412755	6
C	0.166720	-0.515956	0.264645	6
C	0.795890	-0.317066	-1.081715	6
N	0.075610	0.777554	-0.423225	7
N	1.008260	1.579474	0.130465	7
C	0.631770	2.813694	0.137585	6
H	-1.523580	-3.182746	0.791515	1
H	-1.647350	-0.988036	1.272965	1
H	-1.701740	-1.295136	-0.478675	1
H	0.813320	-0.590136	1.131475	1
H	0.309470	-0.738476	-1.951395	1
H	1.875900	-0.260176	-1.143485	1
H	1.297710	3.581464	0.562705	1
H	-0.336910	3.164004	-0.262635	1
Es	-0.601863	-2.683424	0.845882	99
Es	0.076213	0.777231	-0.422977	99
Es	-0.014925	3.050291	-0.130555	99
Es	1.320555	1.442547	0.258797	99
Es	-0.454071	-0.916802	0.323179	99
Es	-0.239331	0.893137	-0.551778	99
Es	0.429266	0.418599	-0.803832	99
Es	-0.698883	-2.691928	0.636901	99
Es	0.594505	-0.555806	0.839162	99
Es	0.166691	-0.515742	0.264453	99
Es	-0.853539	-2.168094	0.565830	99
Es	-0.539905	-2.819176	0.391015	99
Es	0.555929	-0.646577	-0.408743	99
Es	0.957770	2.163329	-0.135438	99
Es	-1.470000	-1.086447	1.004687	99
Es	0.468104	-0.598816	-1.669888	99
Es	0.053877	0.287089	-0.007858	99
Es	0.631781	2.813743	0.137594	99
Es	1.504936	-0.269560	-1.123815	99
Es	0.795739	-0.316905	-1.081550	99
Es	-1.066489	-1.336601	0.412797	99
Es	0.538820	1.179607	-0.146043	99
Es	0.708716	2.085002	0.393685	99
Es	1.075859	3.341020	0.422403	99
Es	1.007767	1.579729	0.130273	99
Es	-1.497965	-1.299294	-0.197987	99
Es	-1.140679	-2.944644	0.743578	99
42
Properties=species:S:1:pos:R:3:Z:I:1 energy=-339.89626995556773 field_type=dipole dipole="0.000000 0.000000 0.000000" charge=0
O	-0.698490	-2.692076	0.637015	8
C	-1.066580	-1.336386	0.412755	6
C	0.166720	-0.515956	0.264645	6
C	0.795890	-0.317066	-1.081715	6
N	0.075610	0.777554	-0.423225	7
N	1.008260	1.579474	0.130465	7
C	0.631770	2.813694	0.137585	6
H	-1.523580	-3.182746	0.791515	1
H	-1.647350	-0.988036	1.272965	1
H	-1.701740	-1.295136	-0.478675	1
H	0.813320	-0.590136	1.131475	1
H	0.309470	-0.738476	-1.951395	1
H	1.875900	-0.260176	-1.143485	1
H	1.297710	3.581464	0.562705	1
H	-0.336910	3.164004	-0.262635	1
Es	0.795743	-0.316906	-1.081548	99
Es	-1.469909	-1.086209	1.004718	99
Es	1.075690	3.341302	0.422420	99
Es	0.957431	2.163411	-0.135173	99
Es	0.594400	-0.555845	0.838964	99
Es	0.538969	1.179551	-0.145958	99
Es	0.166686	-0.515754	0.264452	99
Es	0.631781	2.813744	0.137592	99
Es	0.556793	-0.646991	-0.408413	99
Es	-1.066487	-1.336602	0.412798	99
Es	0.708665	2.084883	0.393422	99
Es	-0.014736	3.050021	-0.130659	99
Es	-0.239092	0.892615	-0.551836	99
Es	0.054146	0.286978	-0.008135	99
Es	-1.139619	-2.945065	0.745207	99
Es	1.503140	-0.269362	-1.123447	99
Es	-1.497804	-1.299223	-0.198034	99
Es	0.076254	0.777223	-0.422959	99
Es	1.320222	1.443231	0.258682	99
Es	-0.698854	-2.691928	0.636928	99
Es	0.468615	-0.599003	-1.670192	99
Es	1.007757	1.579729	0.130269	99
Es	-0.608198	-2.681322	0.841103	99
Es	-0.534388	-2.820978	0.394954	99
Es	0.429545	0.419107	-0.803533	99
Es	-0.454087	-0.917069	0.323140	99
Es	-0.853783	-2.168029	0.565011	99
42
Properties=species:S:1:pos:R:3:Z:I:1 energy=-339.89626995556773 field_type=dipole dipole="0.000000 0.000000 0.000000" charge=0
O	-0.698490	-2.692076	0.637015	8
C	-1.066580	-1.336386	0.412755	6
C	0.166720	-0.515956	0.264645	6
C	0.795890	-0.317066	-1.081715	6
N	0.075610	0.777554	-0.423225	7
N	1.008260	1.579474	0.130465	7
C	0.631770	2.813694	0.137585	6
H	-1.523580	-3.182746	0.791515	1
H	-1.647350	-0.988036	1.272965	1
H	-1.701740	-1.295136	-0.478675	1
H	0.813320	-0.590136	1.131475	1
H	0.309470	-0.738476	-1.951395	1
H	1.875900	-0.260176	-1.143485	1
H	1.297710	3.581464	0.562705	1
H	-0.336910	3.164004	-0.262635	1
Es	0.708456	2.084966	0.393141	99
Es	-0.698863	-2.691897	0.637083	99
Es	0.557101	-0.647413	-0.408233	99
Es	1.075742	3.341219	0.422420	99
Es	-0.454045	-0.917185	0.322996	99
Es	1.007727	1.579731	0.130255	99
Es	0.631780	2.813743	0.137596	99
Es	0.468844	-0.598933	-1.670130	99
Es	0.795738	-0.316898	-1.081547	99
Es	0.538134	1.180265	-0.146339	99
Es	-1.497795	-1.299134	-0.198083	99
Es	0.957256	2.163293	-0.135006	99
Es	0.429415	0.420534	-0.803254	99
Es	-0.238205	0.891001	-0.551151	99
Es	-0.532762	-2.821897	0.396089	99
Es	0.166689	-0.515754	0.264452	99
Es	-1.469719	-1.086050	1.004796	99
Es	-1.066488	-1.336603	0.412798	99
Es	0.594258	-0.555965	0.838838	99
Es	1.502404	-0.269315	-1.123361	99
Es	1.319685	1.444081	0.258660	99
Es	-0.014866	3.050096	-0.130704	99
Es	-0.853632	-2.167819	0.565544	99
Es	0.076215	0.777248	-0.422975	99
Es	-0.610463	-2.681001	0.838739	99
Es	0.055399	0.285948	-0.008557	99
Es	-1.139127	-2.944754	0.745706	99
42
Properties=species:S:1:pos:R:3:Z:I:1 energy=-339.89626995556773 field_type=dipole dipole="0.000000 0.000000 0.000000" charge=0
O	-0.698490	-2.692076	0.637015	8
C	-1.066580	-1.336386	0.412755	6
C	0.166720	-0.515956	0.264645	6
C	0.795890	-0.317066	-1.081715	6
N	0.075610	0.777554	-0.423225	7
N	1.008260	1.579474	0.130465	7
C	0.631770	2.813694	0.137585	6
H	-1.523580	-3.182746	0.791515	1
H	-1.647350	-0.988036	1.272965	1
H	-1.701740	-1.295136	-0.478675	1
H	0.813320	-0.590136	1.131475	1
H	0.309470	-0.738476	-1.951395	1
H	1.875900	-0.260176	-1.143485	1
H	1.297710	3.581464	0.562705	1
H	-0.336910	3.164004	-0.262635	1
Es	0.708397	2.084972	0.392775	99
Es	-0.612276	-2.680802	0.837752	99
Es	-1.138707	-2.943062	0.745883	99
Es	0.594207	-0.555943	0.838387	99
Es	-1.497511	-1.299161	-0.197994	99
Es	0.956851	2.163246	-0.134821	99
Es	-0.237859	0.890736	-0.551525	99
Es	0.166688	-0.515751	0.264452	99
Es	-0.698856	-2.691934	0.636926	99
Es	-0.853182	-2.167564	0.565886	99
Es	-1.469800	-1.085795	1.004809	99
Es	-0.531776	-2.824029	0.396723	99
Es	0.076221	0.777242	-0.422975	99
Es	0.468998	-0.598870	-1.669935	99
Es	0.795731	-0.316895	-1.081541	99
Es	0.055454	0.285702	-0.008539	99
Es	-0.454142	-0.917556	0.323018	99
Es	0.538875	1.179583	-0.146071	99
Es	1.319040	1.445159	0.258479	99
Es	0.429385	0.421012	-0.802697	99
Es	1.075650	3.341439	0.422362	99
Es	1.501461	-0.269141	-1.123441	99
Es	0.557753	-0.647838	-0.408023	99
Es	0.631779	2.813744	0.137593	99
Es	1.007701	1.579723	0.130242	99
Es	-0.014719	3.049893	-0.130753	99
Es	-1.066486	-1.336602	0.412800	99
42
Properties=species:S:1:pos:R:3:Z:I:1 energy=-339.89626995556773 field_type=dipole dipole="0.000000 0.000000 0.000000" charge=0
O	-0.698490	-2.692076	0.637015	8
C	-1.066580	-1.336386	0.412755	6
C	0.166720	-0.515956	0.264645	6
C	0.795890	-0.317066	-1.081715	6
N	0.075610	0.777554	-0.423225	7
N	1.008260	1.579474	0.130465	7
C	0.631770	2.813694	0.137585	6
H	-1.523580	-3.182746	0.791515	1
H	-1.647350	-0.988036	1.272965	1
H	-1.701740	-1.295136	-0.478675	1
H	0.813320	-0.590136	1.131475	1
H	0.309470	-0.738476	-1.951395	1
H	1.875900	-0.260176	-1.143485	1
H	1.297710	3.581464	0.562705	1
H	-0.336910	3.164004	-0.262635	1
Es	0.558269	-0.647631	-0.407800	99
Es	0.956821	2.163248	-0.134676	99
Es	0.166691	-0.515749	0.264450	99
Es	1.007722	1.579726	0.130252	99
Es	-1.497653	-1.299089	-0.198065	99
Es	0.076212	0.777230	-0.422975	99
Es	0.708439	2.084992	0.392558	99
Es	0.631778	2.813743	0.137599	99
Es	0.795731	-0.316895	-1.081542	99
Es	-0.698855	-2.691935	0.636908	99
Es	-0.527381	-2.825050	0.399835	99
Es	-0.617463	-2.679301	0.832714	99
Es	0.594188	-0.556121	0.838647	99
Es	1.500311	-0.269045	-1.123046	99
Es	-1.066487	-1.336602	0.412797	99
Es	-0.014568	3.049651	-0.130758	99
Es	-1.137629	-2.943590	0.747839	99
Es	1.075455	3.341674	0.422412	99
Es	-0.454060	-0.917650	0.322617	99
Es	0.055781	0.285117	-0.008991	99
Es	0.429564	0.421784	-0.802137	99
Es	0.469351	-0.599239	-1.670273	99
Es	-1.469537	-1.085727	1.004882	99
Es	0.537410	1.180650	-0.146354	99
Es	1.319294	1.444966	0.258612	99
Es	-0.237057	0.889889	-0.551600	99
Es	-0.853452	-2.167538	0.565866	99
42
Properties=species:S:1:pos:R:3:Z:I:1 energy=-339.89626995556773 field_type=dipole dipole="0.000000 0.000000 0.000000" charge=0
O	-0.698490	-2.692076	0.637015	8
C	-1.066580	-1.336386	0.412755	6
C	0.166720	-0.515956	0.264645	6
C	0.795890	-0.317066	-1.081715	6
N	0.075610	0.777554	-0.423225	7
N	1.008260	1.579474	0.130465	7
C	0.631770	2.813694	0.137585	6
H	-1.523580	-3.182746	0.791515	1
H	-1.647350	-0.988036	1.272965	1
H	-1.701740	-1.295136	-0.478675	1
H	0.813320	-0.590136	1.131475	1
H	0.309470	-0.738476	-1.951395	1
H	1.875900	-0.260176	-1.143485	1
H	1.297710	3.581464	0.562705	1
H	-0.336910	3.164004	-0.262635	1
Es	1.007706	1.579730	0.130246	99
Es	0.631780	2.813744	0.137595	99
Es	0.795724	-0.316895	-1.081546	99
Es	-1.469417	-1.085437	1.004988	99
Es	-1.066485	-1.336603	0.412798	99
Es	-1.497522	-1.299096	-0.197902	99
Es	0.076240	0.777231	-0.422967	99
Es	0.166688	-0.515754	0.264451	99
Es	0.593935	-0.556078	0.838368	99
Es	0.956533	2.163080	-0.134679	99
Es	1.075262	3.341899	0.422336	99
Es	0.708327	2.085128	0.392296	99
Es	-0.618096	-2.679361	0.832897	99
Es	0.538014	1.180103	-0.146015	99
Es	-0.853660	-2.167520	0.566378	99
Es	1.318689	1.445885	0.258394	99
Es	-0.698883	-2.691924	0.636944	99
Es	0.429257	0.422827	-0.802348	99
Es	0.558745	-0.648349	-0.407733	99
Es	-0.014493	3.049406	-0.130688	99
Es	-0.526340	-2.824133	0.400689	99
Es	0.469823	-0.599124	-1.670245	99
Es	-0.237276	0.889471	-0.550982	99
Es	1.499423	-0.268902	-1.122865	99
Es	0.056796	0.284404	-0.009331	99
Es	-1.137796	-2.944515	0.746206	99
Es	-0.454096	-0.917710	0.322486	99
42
Properties=species:S:1:pos:R:3:Z:I:1 energy=-339.89626995556773 field_type=dipole dipole="0.000000 0.000000 0.000000" charge=0
O	-0.698490	-2.692076	0.637015	8
C	-1.066580	-1.336386	0.412755	6
C	0.166720	-0.515956	0.264645	6
C	0.795890	-0.317066	-1.081715	6
N	0.075610	0.777554	-0.423225	7
N	1.008260	1.579474	0.130465	7
C	0.631770	2.813694	0.137585	6
H	-1.523580	-3.182746	0.791515	1
H	-1.647350	-0.988036	1.272965	1
H	-1.701740	-1.295136	-0.478675	1
H	0.813320	-0.590136	1.131475	1
H	0.309470	-0.738476	-1.951395	1
H	1.875900	-0.260176	-1.143485	1
H	1.297710	3.581464	0.562705	1
H	-0.336910	3.164004	-0.262635	1
Es	0.429186	0.423997	-0.802275	99
Es	0.559269	-0.648452	-0.407389	99
Es	-0.236532	0.888906	-0.550652	99
Es	-0.853365	-2.167407	0.566072	99
Es	1.318340	1.446145	0.258500	99
Es	-0.454103	-0.917857	0.322454	99
Es	-1.469445	-1.085422	1.004968	99
Es	-0.521869	-2.827103	0.403964	99
Es	0.076231	0.777226	-0.422969	99
Es	-1.066485	-1.336602	0.412799	99
Es	0.470040	-0.599188	-1.670435	99
Es	1.498322	-0.268763	-1.122718	99
Es	0.708173	2.084968	0.392174	99
Es	0.166687	-0.515741	0.264445	99
Es	0.057263	0.283441	-0.009734	99
Es	0.593933	-0.556139	0.838334	99
Es	0.956547	2.163220	-0.134563	99
Es	-1.497446	-1.299060	-0.197953	99
Es	-1.137890	-2.942678	0.745421	99
Es	-0.622739	-2.678342	0.830768	99
Es	0.795743	-0.316901	-1.081545	99
Es	0.537579	1.180404	-0.146169	99
Es	1.075220	3.341986	0.422360	99
Es	-0.014362	3.049338	-0.130785	99
Es	-0.698905	-2.691935	0.636871	99
Es	0.631784	2.813744	0.137587	99
Es	1.007701	1.579722	0.130242	99
