41
Properties=species:S:1:pos:R:3:Z:I:1 energy=-359.7907070525768 field_type=dipole dipole="0.000000 0.000000 0.000000" charge=0
O	-1.270234	-0.249724	1.548126	8
C	-0.529754	-0.584404	0.376776	6
C	-1.464234	-0.985654	-0.755503	6
O	-2.688904	-1.003624	-0.628314	8
C	0.305616	0.600736	-0.002564	6
C	1.770236	0.638006	0.353936	6
N	1.340666	0.477626	-1.033123	7
H	-2.213494	-0.380414	1.317876	1
H	0.086846	-1.458384	0.612696	1
H	-0.975504	-1.298484	-1.694664	1
H	-0.253824	1.528806	0.009276	1
H	2.224206	-0.231934	0.813446	1
H	2.212866	1.589486	0.623976	1
H	1.455516	1.357966	-1.541944	1
Es	-0.111729	-0.010243	0.156291	99
Es	1.340548	0.478109	-1.032758	99
Es	-2.688511	-1.003588	-0.628270	99
Es	-0.073231	1.228120	0.000151	99
Es	0.784031	0.531134	-0.688458	99
Es	2.070368	1.285595	0.534198	99
Es	1.770101	0.637992	0.353704	99
Es	-0.529916	-0.584335	0.376884	99
Es	-1.225010	0.047657	1.584715	99
Es	-1.192876	-0.456344	1.755743	99
Es	-2.844516	-1.094893	-0.878845	99
Es	-1.464251	-0.985653	-0.755478	99
Es	-0.113234	-1.178867	0.510847	99
Es	-1.003977	-0.383270	1.080933	99
Es	1.399515	1.015170	-1.320585	99
Es	-2.769971	-0.908276	-0.333459	99
Es	0.979252	0.638490	0.394168	99
Es	-2.236849	-1.234064	-0.593587	99
Es	-1.000647	-0.776133	-0.195798	99
Es	2.074729	0.046781	0.665536	99
Es	1.661341	0.558603	-0.474193	99
Es	0.305827	0.600662	-0.002702	99
Es	-1.270277	-0.249796	1.547893	99
Es	1.384563	0.162004	-1.197626	99
Es	-2.258512	-0.756829	-0.754468	99
Es	-1.755023	-0.321609	1.414366	99
Es	-1.123928	-1.193189	-1.386168	99
41
Properties=species:S:1:pos:R:3:Z:I:1 energy=-359.7907070525768 field_type=dipole dipole="0.000000 0.000000 0.000000" charge=0
O	-1.270234	-0.249724	1.548126	8
C	-0.529754	-0.584404	0.376776	6
C	-1.464234	-0.985654	-0.755503	6
O	-2.688904	-1.003624	-0.628314	8
C	0.305616	0.600736	-0.002564	6
C	1.770236	0.638006	0.353936	6
N	1.340666	0.477626	-1.033123	7
H	-2.213494	-0.380414	1.317876	1
H	0.086846	-1.458384	0.612696	1
H	-0.975504	-1.298484	-1.694664	1
H	-0.253824	1.528806	0.009276	1
H	2.224206	-0.231934	0.813446	1
H	2.212866	1.589486	0.623976	1
H	1.455516	1.357966	-1.541944	1
Es	-1.189060	-0.444734	1.756122	99
Es	0.305819	0.600662	-0.002709	99
Es	-1.270358	-0.249808	1.547811	99
Es	-2.850038	-1.094823	-0.879854	99
Es	-2.236660	-1.231943	-0.595383	99
Es	2.071701	1.283704	0.532473	99
Es	-0.113283	-1.177241	0.511086	99
Es	0.775205	0.528782	-0.688114	99
Es	1.400605	1.010504	-1.320524	99
Es	-0.111786	-0.010736	0.156280	99
Es	1.770098	0.637991	0.353709	99
Es	2.075832	0.048308	0.663562	99
Es	-0.529913	-0.584339	0.376879	99
Es	1.669992	0.556854	-0.474394	99
Es	-1.764071	-0.320446	1.417751	99
Es	0.975950	0.638750	0.396709	99
Es	-2.259080	-0.759277	-0.753328	99
Es	-2.764253	-0.907902	-0.331618	99
Es	1.385023	0.171204	-1.194803	99
Es	-0.996576	-0.380084	1.081263	99
Es	-1.227078	0.031744	1.580749	99
Es	-1.124020	-1.193016	-1.386222	99
Es	-2.688573	-1.003615	-0.628326	99
Es	-0.073152	1.227261	-0.000905	99
Es	1.340545	0.478106	-1.032747	99
Es	-1.464249	-0.985651	-0.755478	99
Es	-1.000804	-0.777028	-0.196954	99
41
Properties=species:S:1:pos:R:3:Z:I:1 energy=-359.7907070525768 field_type=dipole dipole="0.000000 0.000000 0.000000" charge=0
O	-1.270234	-0.249724	1.548126	8
C	-0.529754	-0.584404	0.376776	6
C	-1.464234	-0.985654	-0.755503	6
O	-2.688904	-1.003624	-0.628314	8
C	0.305616	0.600736	-0.002564	6
C	1.770236	0.638006	0.353936	6
N	1.340666	0.477626	-1.033123	7
H	-2.213494	-0.380414	1.317876	1
H	0.086846	-1.458384	0.612696	1
H	-0.975504	-1.298484	-1.694664	1
H	-0.253824	1.528806	0.009276	1
H	2.224206	-0.231934	0.813446	1
H	2.212866	1.589486	0.623976	1
H	1.455516	1.357966	-1.541944	1
Es	1.675014	0.555748	-0.473860	99
Es	1.385128	0.177477	-1.193133	99
Es	-1.000747	-0.777268	-0.197587	99
Es	-2.257775	-0.761716	-0.753475	99
Es	0.305815	0.600657	-0.002703	99
Es	-2.757029	-0.906971	-0.330999	99
Es	-1.464247	-0.985645	-0.755481	99
Es	0.770118	0.527480	-0.689601	99
Es	1.401004	1.006834	-1.318974	99
Es	-2.238385	-1.231545	-0.596533	99
Es	-1.270354	-0.250178	1.547849	99
Es	-1.180246	-0.422163	1.771472	99
Es	2.076060	0.049221	0.662069	99
Es	-1.767875	-0.323019	1.421698	99
Es	-0.072827	1.226880	-0.001340	99
Es	2.072846	1.282700	0.531474	99
Es	-1.124020	-1.192917	-1.386294	99
Es	0.974374	0.638733	0.397723	99
Es	-0.111959	-0.011006	0.156438	99
Es	-0.990325	-0.381675	1.083262	99
Es	-2.856950	-1.093843	-0.878976	99
Es	1.770101	0.637992	0.353708	99
Es	-1.238456	0.013582	1.559440	99
Es	-0.529915	-0.584335	0.376884	99
Es	-2.688592	-1.003607	-0.628310	99
Es	1.340542	0.478122	-1.032736	99
Es	-0.113481	-1.176310	0.511024	99
41
Properties=species:S:1:pos:R:3:Z:I:1 energy=-359.7907070525768 field_type=dipole dipole="0.000000 0.000000 0.000000" charge=0
O	-1.270234	-0.249724	1.548126	8
C	-0.529754	-0.584404	0.376776	6
C	-1.464234	-0.985654	-0.755503	6
O	-2.688904	-1.003624	-0.628314	8
C	0.305616	0.600736	-0.002564	6
C	1.770236	0.638006	0.353936	6
N	1.340666	0.477626	-1.033123	7
H	-2.213494	-0.380414	1.317876	1
H	0.086846	-1.458384	0.612696	1
H	-0.975504	-1.298484	-1.694664	1
H	-0.253824	1.528806	0.009276	1
H	2.224206	-0.231934	0.813446	1
H	2.212866	1.589486	0.623976	1
H	1.455516	1.357966	-1.541944	1
Es	-0.113825	-1.175645	0.510961	99
Es	1.384800	0.181838	-1.192646	99
Es	-1.124026	-1.193035	-1.386267	99
Es	-2.862665	-1.095267	-0.876545	99
Es	-1.242620	0.000825	1.553529	99
Es	-0.529915	-0.584335	0.376883	99
Es	-0.985951	-0.379429	1.084208	99
Es	2.076066	0.050070	0.661117	99
Es	-1.464247	-0.985645	-0.755481	99
Es	-2.236003	-1.230206	-0.597138	99
Es	0.973259	0.638533	0.398162	99
Es	-0.072623	1.226657	-0.001620	99
Es	0.305812	0.600658	-0.002711	99
Es	1.679505	0.555004	-0.474472	99
Es	1.770102	0.637991	0.353710	99
Es	1.400406	1.004059	-1.316826	99
Es	-1.178256	-0.412955	1.774262	99
Es	-1.770135	-0.321925	1.423918	99
Es	-2.260467	-0.761501	-0.754541	99
Es	-1.000655	-0.777495	-0.198035	99
Es	-0.111881	-0.011265	0.156532	99
Es	0.767247	0.526712	-0.689957	99
Es	-2.751149	-0.906912	-0.331658	99
Es	1.340535	0.478132	-1.032727	99
Es	2.073417	1.281944	0.530884	99
Es	-1.270371	-0.249969	1.547824	99
Es	-2.688543	-1.003613	-0.628329	99
41
Properties=species:S:1:pos:R:3:Z:I:1 energy=-359.7907070525768 field_type=dipole dipole="0.000000 0.000000 0.000000" charge=0
O	-1.270234	-0.249724	1.548126	8
C	-0.529754	-0.584404	0.376776	6
C	-1.464234	-0.985654	-0.755503	6
O	-2.688904	-1.003624	-0.628314	8
C	0.305616	0.600736	-0.002564	6
C	1.770236	0.638006	0.353936	6
N	1.340666	0.477626	-1.033123	7
H	-2.213494	-0.380414	1.317876	1
H	0.086846	-1.458384	0.612696	1
H	-0.975504	-1.298484	-1.694664	1
H	-0.253824	1.528806	0.009276	1
H	2.224206	-0.231934	0.813446	1
H	2.212866	1.589486	0.623976	1
H	1.455516	1.357966	-1.541944	1
Es	-1.124009	-1.193000	-1.386281	99
Es	-2.237142	-1.230695	-0.598678	99
Es	-2.259730	-0.762377	-0.754924	99
Es	-1.771646	-0.321853	1.426515	99
Es	-2.746710	-0.906995	-0.331149	99
Es	-1.464246	-0.985646	-0.755480	99
Es	-0.072436	1.226656	-0.001656	99
Es	1.384889	0.184966	-1.192436	99
Es	2.074221	1.281488	0.530540	99
Es	0.305812	0.600662	-0.002705	99
Es	0.765133	0.526165	-0.690906	99
Es	2.075905	0.050554	0.660065	99
Es	-0.981992	-0.381239	1.086517	99
Es	-0.111570	-0.011459	0.156616	99
Es	-1.000533	-0.777855	-0.198242	99
Es	-1.249844	-0.016180	1.539517	99
Es	-2.688576	-1.003593	-0.628332	99
Es	-1.173598	-0.394134	1.783294	99
Es	-2.866735	-1.093867	-0.874967	99
Es	-0.114360	-1.175111	0.510942	99
Es	-1.270381	-0.250034	1.547808	99
Es	0.972661	0.638292	0.398096	99
Es	1.682057	0.554817	-0.474337	99
Es	1.340540	0.478123	-1.032742	99
Es	1.399918	1.001885	-1.314625	99
Es	-0.529916	-0.584334	0.376885	99
Es	1.770104	0.637991	0.353705	99
41
Properties=species:S:1:pos:R:3:Z:I:1 energy=-359.7907070525768 field_type=dipole dipole="0.000000 0.000000 0.000000" charge=0
O	-1.270234	-0.249724	1.548126	8
C	-0.529754	-0.584404	0.376776	6
C	-1.464234	-0.985654	-0.755503	6
O	-2.688904	-1.003624	-0.628314	8
C	0.305616	0.600736	-0.002564	6
C	1.770236	0.638006	0.353936	6
N	1.340666	0.477626	-1.033123	7
H	-2.213494	-0.380414	1.317876	1
H	0.086846	-1.458384	0.612696	1
H	-0.975504	-1.298484	-1.694664	1
H	-0.253824	1.528806	0.009276	1
H	2.224206	-0.231934	0.813446	1
H	2.212866	1.589486	0.623976	1
H	1.455516	1.357966	-1.541944	1
Es	1.399465	0.999954	-1.313453	99
Es	0.971994	0.637958	0.397862	99
Es	-0.529915	-0.584334	0.376887	99
Es	-2.871672	-1.094317	-0.872367	99
Es	-1.772682	-0.321853	1.429100	99
Es	-1.464247	-0.985643	-0.755480	99
Es	-0.111264	-0.011467	0.156640	99
Es	-2.260306	-0.762156	-0.755955	99
Es	1.340548	0.478101	-1.032755	99
Es	-1.123862	-1.193060	-1.386264	99
Es	0.764337	0.526758	-0.690177	99
Es	-1.257048	-0.035614	1.527005	99
Es	-2.236558	-1.230847	-0.597986	99
Es	-1.270361	-0.249922	1.547839	99
Es	1.770104	0.637993	0.353713	99
Es	-0.115083	-1.174946	0.510744	99
Es	0.305811	0.600653	-0.002726	99
Es	1.684349	0.554700	-0.475149	99
Es	-2.741884	-0.906589	-0.333256	99
Es	-2.688532	-1.003616	-0.628349	99
Es	-0.979220	-0.381313	1.088023	99
Es	-1.000473	-0.777897	-0.198191	99
Es	-1.168305	-0.374757	1.791623	99
Es	1.384157	0.186505	-1.192171	99
Es	2.074596	1.281209	0.530136	99
Es	2.075958	0.050972	0.659421	99
Es	-0.072090	1.226756	-0.001676	99
41
Properties=species:S:1:pos:R:3:Z:I:1 energy=-359.7907070525768 field_type=dipole dipole="0.000000 0.000000 0.000000" charge=0
O	-1.270234	-0.249724	1.548126	8
C	-0.529754	-0.584404	0.376776	6
C	-1.464234	-0.985654	-0.755503	6
O	-2.688904	-1.003624	-0.628314	8
C	0.305616	0.600736	-0.002564	6
C	1.770236	0.638006	0.353936	6
N	1.340666	0.477626	-1.033123	7
H	-2.213494	-0.380414	1.317876	1
H	0.086846	-1.458384	0.612696	1
H	-0.975504	-1.298484	-1.694664	1
H	-0.253824	1.528806	0.009276	1
H	2.224206	-0.231934	0.813446	1
H	2.212866	1.589486	0.623976	1
H	1.455516	1.357966	-1.541944	1
Es	-0.529915	-0.584333	0.376885	99
Es	-1.000341	-0.777779	-0.198124	99
Es	-2.731170	-0.907510	-0.335641	99
Es	-0.072177	1.227059	-0.001600	99
Es	0.764377	0.526324	-0.689974	99
Es	-1.270400	-0.249628	1.547668	99
Es	1.340554	0.478106	-1.032784	99
Es	-0.111262	-0.011608	0.156605	99
Es	1.384702	0.187382	-1.192939	99
Es	2.075030	1.280981	0.529620	99
Es	0.970981	0.637905	0.397617	99
Es	2.075992	0.051200	0.658971	99
Es	1.399288	0.999749	-1.311888	99
Es	-1.162766	-0.349542	1.800177	99
Es	-0.115051	-1.175066	0.510686	99
Es	0.305812	0.600658	-0.002708	99
Es	-1.264671	-0.059880	1.514439	99
Es	-2.237940	-1.232472	-0.599853	99
Es	-1.123772	-1.193078	-1.386236	99
Es	1.770099	0.637992	0.353708	99
Es	-1.464247	-0.985645	-0.755481	99
Es	-2.259432	-0.762218	-0.757330	99
Es	-2.688542	-1.003614	-0.628341	99
Es	-1.773292	-0.322259	1.431436	99
Es	-2.881910	-1.091725	-0.866561	99
Es	1.684545	0.554413	-0.475095	99
Es	-0.976675	-0.382186	1.089781	99
41
Properties=species:S:1:pos:R:3:Z:I:1 energy=-359.7907070525768 field_type=dipole dipole="0.000000 0.000000 0.000000" charge=0
O	-1.270234	-0.249724	1.548126	8
C	-0.529754	-0.584404	0.376776	6
C	-1.464234	-0.985654	-0.755503	6
O	-2.688904	-1.003624	-0.628314	8
C	0.305616	0.600736	-0.002564	6
C	1.770236	0.638006	0.353936	6
N	1.340666	0.477626	-1.033123	7
H	-2.213494	-0.380414	1.317876	1
H	0.086846	-1.458384	0.612696	1
H	-0.975504	-1.298484	-1.694664	1
H	-0.253824	1.528806	0.009276	1
H	2.224206	-0.231934	0.813446	1
H	2.212866	1.589486	0.623976	1
H	1.455516	1.357966	-1.541944	1
Es	-0.110846	-0.011660	0.156797	99
Es	0.970313	0.637908	0.397811	99
Es	0.764312	0.526474	-0.690042	99
Es	-1.123526	-1.193110	-1.386318	99
Es	2.075179	1.280495	0.529528	99
Es	0.305812	0.600656	-0.002719	99
Es	-1.464247	-0.985645	-0.755481	99
Es	-0.529915	-0.584335	0.376884	99
Es	1.685074	0.555212	-0.475753	99
Es	1.770096	0.637991	0.353709	99
Es	-0.115458	-1.174850	0.510583	99
Es	-2.688536	-1.003641	-0.628423	99
Es	-1.267896	-0.073617	1.509771	99
Es	1.399073	0.998622	-1.311355	99
Es	-2.237905	-1.233349	-0.602154	99
Es	-2.896378	-1.089611	-0.856026	99
Es	-1.160673	-0.337236	1.802725	99
Es	2.075917	0.051427	0.658541	99
Es	1.384984	0.187586	-1.192756	99
Es	-2.260464	-0.762789	-0.760425	99
Es	-0.975337	-0.381417	1.090517	99
Es	-2.715705	-0.908047	-0.340547	99
Es	-1.000371	-0.777963	-0.198138	99
Es	-0.072138	1.227192	-0.001403	99
Es	1.340564	0.478105	-1.032813	99
Es	-1.270390	-0.249725	1.547717	99
Es	-1.773722	-0.321447	1.432806	99
41
Properties=species:S:1:pos:R:3:Z:I:1 energy=-359.7907070525768 field_type=dipole dipole="0.000000 0.000000 0.000000" charge=0
O	-1.270234	-0.249724	1.548126	8
C	-0.529754	-0.584404	0.376776	6
C	-1.464234	-0.985654	-0.755503	6
O	-2.688904	-1.003624	-0.628314	8
C	0.305616	0.600736	-0.002564	6
C	1.770236	0.638006	0.353936	6
N	1.340666	0.477626	-1.033123	7
H	-2.213494	-0.380414	1.317876	1
H	0.086846	-1.458384	0.612696	1
H	-0.975504	-1.298484	-1.694664	1
H	-0.253824	1.528806	0.009276	1
H	2.224206	-0.231934	0.813446	1
H	2.212866	1.589486	0.623976	1
H	1.455516	1.357966	-1.541944	1
Es	-1.272578	-0.096304	1.502932	99
Es	1.398962	0.998447	-1.311456	99
Es	1.384859	0.187605	-1.192698	99
Es	2.074820	1.280359	0.529015	99
Es	-1.123353	-1.193071	-1.386353	99
Es	0.969518	0.637840	0.397540	99
Es	1.340543	0.478091	-1.032732	99
Es	-2.905438	-1.087261	-0.848695	99
Es	-1.156930	-0.314674	1.807157	99
Es	-1.774100	-0.320326	1.434359	99
Es	0.305814	0.600658	-0.002708	99
Es	-1.270451	-0.250322	1.547612	99
Es	-0.115317	-1.175213	0.510480	99
Es	1.770095	0.637994	0.353707	99
Es	2.076453	0.051433	0.658653	99
Es	-1.464246	-0.985644	-0.755481	99
Es	-0.110952	-0.011605	0.156787	99
Es	-2.706182	-0.908740	-0.345523	99
Es	0.764903	0.526532	-0.689287	99
Es	1.685337	0.555341	-0.476202	99
Es	-2.241016	-1.234461	-0.602219	99
Es	-0.072163	1.227445	-0.001211	99
Es	-2.688553	-1.003622	-0.628362	99
Es	-0.529915	-0.584334	0.376884	99
Es	-0.974213	-0.381911	1.091394	99
Es	-1.000263	-0.777660	-0.197936	99
Es	-2.257815	-0.763369	-0.762618	99
41
Properties=species:S:1:pos:R:3:Z:I:1 energy=-359.7907070525768 field_type=dipole dipole="0.000000 0.000000 0.000000" charge=0
O	-1.270234	-0.249724	1.548126	8
C	-0.529754	-0.584404	0.376776	6
C	-1.464234	-0.985654	-0.755503	6
O	-2.688904	-1.003624	-0.628314	8
C	0.305616	0.600736	-0.002564	6
C	1.770236	0.638006	0.353936	6
N	1.340666	0.477626	-1.033123	7
H	-2.213494	-0.380414	1.317876	1
H	0.086846	-1.458384	0.612696	1
H	-0.975504	-1.298484	-1.694664	1
H	-0.253824	1.528806	0.009276	1
H	2.224206	-0.231934	0.813446	1
H	2.212866	1.589486	0.623976	1
H	1.455516	1.357966	-1.541944	1
Es	1.684527	0.555463	-0.476584	99
Es	1.399451	0.998547	-1.311514	99
Es	-1.270388	-0.249858	1.547747	99
Es	-2.916897	-1.083628	-0.838063	99
Es	-1.774371	-0.319258	1.435260	99
Es	-1.000279	-0.777613	-0.197870	99
Es	-2.260659	-0.762863	-0.763353	99
Es	0.765201	0.526459	-0.689497	99
Es	-1.275515	-0.113542	1.499598	99
Es	0.305812	0.600657	-0.002710	99
Es	-1.154698	-0.300017	1.809205	99
Es	-1.123191	-1.193103	-1.386369	99
Es	-2.693807	-0.911547	-0.352014	99
Es	-0.973446	-0.380838	1.091684	99
Es	2.076236	0.051596	0.658499	99
Es	-0.115556	-1.175269	0.510364	99
Es	1.340537	0.478128	-1.032729	99
Es	-1.464246	-0.985648	-0.755480	99
Es	1.770094	0.637990	0.353709	99
Es	2.074935	1.280058	0.529046	99
Es	1.385501	0.187299	-1.192577	99
Es	-2.688549	-1.003627	-0.628376	99
Es	-0.072253	1.227467	-0.001165	99
Es	-0.529915	-0.584334	0.376885	99
Es	0.968966	0.638035	0.397957	99
Es	-0.110598	-0.011630	0.156944	99
Es	-2.239076	-1.235697	-0.605560	99
41
Properties=species:S:1:pos:R:3:Z:I:1 energy=-359.7907070525768 field_type=dipole dipole="0.000000 0.000000 0.000000" charge=0
O	-1.270234	-0.249724	1.548126	8
C	-0.529754	-0.584404	0.376776	6
C	-1.464234	-0.985654	-0.755503	6
O	-2.688904	-1.003624	-0.628314	8
C	0.305616	0.600736	-0.002564	6
C	1.770236	0.638006	0.353936	6
N	1.340666	0.477626	-1.033123	7
H	-2.213494	-0.380414	1.317876	1
H	0.086846	-1.458384	0.612696	1
H	-0.975504	-1.298484	-1.694664	1
H	-0.253824	1.528806	0.009276	1
H	2.224206	-0.231934	0.813446	1
H	2.212866	1.589486	0.623976	1
H	1.455516	1.357966	-1.541944	1
Es	-1.123162	-1.193111	-1.386407	99
Es	1.770092	0.637993	0.353709	99
Es	-2.239759	-1.236749	-0.607015	99
Es	-1.774593	-0.318045	1.435710	99
Es	-1.151770	-0.280038	1.811560	99
Es	0.766236	0.526911	-0.688623	99
Es	-0.973403	-0.381212	1.091925	99
Es	-1.270371	-0.249937	1.547814	99
Es	1.340538	0.478116	-1.032745	99
Es	-2.260931	-0.763207	-0.765686	99
Es	-0.115467	-1.175369	0.510335	99
Es	-1.278422	-0.134271	1.496498	99
Es	-1.000159	-0.777621	-0.197807	99
Es	-0.529915	-0.584334	0.376885	99
Es	2.076349	0.051703	0.658688	99
Es	-0.110712	-0.011627	0.156944	99
Es	-2.682344	-0.913313	-0.359871	99
Es	1.399933	0.999275	-1.312214	99
Es	2.074627	1.279718	0.528876	99
Es	-2.927432	-1.080290	-0.826147	99
Es	0.305812	0.600656	-0.002706	99
Es	-1.464247	-0.985647	-0.755480	99
Es	-0.072187	1.227601	-0.000937	99
Es	1.684951	0.554023	-0.477586	99
Es	-2.688509	-1.003687	-0.628565	99
Es	1.384357	0.187525	-1.192361	99
Es	0.968307	0.638164	0.398245	99
41
Properties=species:S:1:pos:R:3:Z:I:1 energy=-359.7907070525768 field_type=dipole dipole="0.000000 0.000000 0.000000" charge=0
O	-1.270234	-0.249724	1.548126	8
C	-0.529754	-0.584404	0.376776	6
C	-1.464234	-0.985654	-0.755503	6
O	-2.688904	-1.003624	-0.628314	8
C	0.305616	0.600736	-0.002564	6
C	1.770236	0.638006	0.353936	6
N	1.340666	0.477626	-1.033123	7
H	-2.213494	-0.380414	1.317876	1
H	0.086846	-1.458384	0.612696	1
H	-0.975504	-1.298484	-1.694664	1
H	-0.253824	1.528806	0.009276	1
H	2.224206	-0.231934	0.813446	1
H	2.212866	1.589486	0.623976	1
H	1.455516	1.357966	-1.541944	1
Es	2.076106	0.052114	0.658614	99
Es	-1.278874	-0.138761	1.496744	99
Es	1.685237	0.554109	-0.478449	99
Es	1.399569	0.999116	-1.310654	99
Es	1.340552	0.478109	-1.032777	99
Es	-1.774582	-0.317411	1.435931	99
Es	-1.464246	-0.985644	-0.755481	99
Es	-1.150796	-0.277934	1.812414	99
Es	-0.110016	-0.011766	0.157219	99
Es	-2.688498	-1.003728	-0.628687	99
Es	0.968080	0.638175	0.398921	99
Es	-0.072366	1.227425	-0.000844	99
Es	2.074439	1.279486	0.529124	99
Es	0.305813	0.600656	-0.002707	99
Es	-1.123061	-1.193099	-1.386496	99
Es	1.384731	0.187127	-1.193890	99
Es	-2.238363	-1.237007	-0.609588	99
Es	-2.263395	-0.764097	-0.766880	99
Es	-0.115916	-1.175088	0.510212	99
Es	-2.937812	-1.076749	-0.813289	99
Es	-1.270378	-0.250089	1.547812	99
Es	-1.000286	-0.777643	-0.197951	99
Es	1.770097	0.637995	0.353709	99
Es	-2.670852	-0.915740	-0.368820	99
Es	-0.529914	-0.584332	0.376887	99
Es	0.766498	0.527250	-0.688805	99
Es	-0.973950	-0.379244	1.090766	99
41
Properties=species:S:1:pos:R:3:Z:I:1 energy=-359.7907070525768 field_type=dipole dipole="0.000000 0.000000 0.000000" charge=0
O	-1.270234	-0.249724	1.548126	8
C	-0.529754	-0.584404	0.376776	6
C	-1.464234	-0.985654	-0.755503	6
O	-2.688904	-1.003624	-0.628314	8
C	0.305616	0.600736	-0.002564	6
C	1.770236	0.638006	0.353936	6
N	1.340666	0.477626	-1.033123	7
H	-2.213494	-0.380414	1.317876	1
H	0.086846	-1.458384	0.612696	1
H	-0.975504	-1.298484	-1.694664	1
H	-0.253824	1.528806	0.009276	1
H	2.224206	-0.231934	0.813446	1
H	2.212866	1.589486	0.623976	1
H	1.455516	1.357966	-1.541944	1
Es	2.074163	1.279203	0.529013	99
Es	-0.973806	-0.378814	1.090792	99
Es	-2.666801	-0.916315	-0.373127	99
Es	-2.261507	-0.764624	-0.768544	99
Es	0.305812	0.600660	-0.002708	99
Es	-1.279726	-0.147378	1.496416	99
Es	-1.464246	-0.985645	-0.755480	99
Es	-1.150036	-0.269869	1.812301	99
Es	1.340553	0.478055	-1.032764	99
Es	-1.774719	-0.316601	1.436300	99
Es	1.770092	0.637989	0.353708	99
Es	-1.000291	-0.777762	-0.197944	99
Es	0.967813	0.638316	0.399125	99
Es	2.076233	0.052139	0.658753	99
Es	1.384804	0.187205	-1.193561	99
Es	1.399219	0.998370	-1.310715	99
Es	-0.115435	-1.175043	0.510314	99
Es	-0.110734	-0.011614	0.157109	99
Es	0.766617	0.527231	-0.688972	99
Es	-1.270388	-0.250790	1.547845	99
Es	-0.529915	-0.584334	0.376885	99
Es	-1.122957	-1.193096	-1.386510	99
Es	-2.688532	-1.003668	-0.628493	99
Es	1.685802	0.554866	-0.478814	99
Es	-2.941529	-1.075036	-0.808201	99
Es	-0.072117	1.227382	-0.000833	99
Es	-2.240554	-1.237598	-0.608857	99
41
Properties=species:S:1:pos:R:3:Z:I:1 energy=-359.7907070525768 field_type=dipole dipole="0.000000 0.000000 0.000000" charge=0
O	-1.270234	-0.249724	1.548126	8
C	-0.529754	-0.584404	0.376776	6
C	-1.464234	-0.985654	-0.755503	6
O	-2.688904	-1.003624	-0.628314	8
C	0.305616	0.600736	-0.002564	6
C	1.770236	0.638006	0.353936	6
N	1.340666	0.477626	-1.033123	7
H	-2.213494	-0.380414	1.317876	1
H	0.086846	-1.458384	0.612696	1
H	-0.975504	-1.298484	-1.694664	1
H	-0.253824	1.528806	0.009276	1
H	2.224206	-0.231934	0.813446	1
H	2.212866	1.589486	0.623976	1
H	1.455516	1.357966	-1.541944	1
Es	-0.110638	-0.011658	0.157214	99
Es	-2.261774	-0.764676	-0.769137	99
Es	1.686206	0.555311	-0.479254	99
Es	-2.688571	-1.003619	-0.628359	99
Es	-0.529916	-0.584332	0.376887	99
Es	-2.661052	-0.918460	-0.378517	99
Es	1.399152	0.997910	-1.311388	99
Es	-2.240922	-1.238075	-0.610406	99
Es	-1.122943	-1.193028	-1.386545	99
Es	-0.072227	1.227347	-0.000759	99
Es	-1.270374	-0.250060	1.547813	99
Es	-1.280501	-0.155849	1.496152	99
Es	-0.115393	-1.175015	0.510250	99
Es	2.076092	0.052314	0.658711	99
Es	-1.774759	-0.315674	1.436466	99
Es	0.305816	0.600657	-0.002707	99
Es	2.074068	1.278968	0.529109	99
Es	-1.149062	-0.263317	1.812834	99
Es	-1.464246	-0.985648	-0.755479	99
Es	-0.974004	-0.378569	1.090471	99
Es	-2.946585	-1.072472	-0.800808	99
Es	0.967737	0.638354	0.399433	99
Es	1.384691	0.187080	-1.192858	99
Es	1.340538	0.478114	-1.032724	99
Es	1.770095	0.637994	0.353707	99
Es	0.766681	0.527267	-0.689055	99
Es	-1.000293	-0.777636	-0.198012	99
41
Properties=species:S:1:pos:R:3:Z:I:1 energy=-359.7907070525768 field_type=dipole dipole="0.000000 0.000000 0.000000" charge=0
O	-1.270234	-0.249724	1.548126	8
C	-0.529754	-0.584404	0.376776	6
C	-1.464234	-0.985654	-0.755503	6
O	-2.688904	-1.003624	-0.628314	8
C	0.305616	0.600736	-0.002564	6
C	1.770236	0.638006	0.353936	6
N	1.340666	0.477626	-1.033123	7
H	-2.213494	-0.380414	1.317876	1
H	0.086846	-1.458384	0.612696	1
H	-0.975504	-1.298484	-1.694664	1
H	-0.253824	1.528806	0.009276	1
H	2.224206	-0.231934	0.813446	1
H	2.212866	1.589486	0.623976	1
H	1.455516	1.357966	-1.541944	1
Es	-0.114684	-1.175397	0.510412	99
Es	-1.775088	-0.310784	1.435972	99
Es	1.340542	0.478127	-1.032749	99
Es	-0.072251	1.227469	-0.000811	99
Es	-2.239577	-1.239106	-0.609912	99
Es	-0.973824	-0.375123	1.089619	99
Es	1.401009	0.999435	-1.315192	99
Es	-2.949109	-1.070959	-0.796449	99
Es	0.767171	0.526717	-0.688644	99
Es	0.967411	0.638796	0.399242	99
Es	1.770099	0.637993	0.353706	99
Es	1.685231	0.553601	-0.479017	99
Es	-1.278043	-0.206351	1.515323	99
Es	1.383471	0.187984	-1.189549	99
Es	-1.146722	-0.231327	1.811599	99
Es	-0.529915	-0.584334	0.376884	99
Es	2.076958	0.051932	0.659234	99
Es	-0.111330	-0.011515	0.156983	99
Es	2.073363	1.278734	0.528548	99
Es	-2.262957	-0.764209	-0.769170	99
Es	-2.658786	-0.919222	-0.383161	99
Es	-2.688476	-1.003672	-0.628525	99
Es	-1.464246	-0.985646	-0.755480	99
Es	0.305813	0.600657	-0.002705	99
Es	-1.275095	-0.239877	1.531135	99
Es	-1.122897	-1.193004	-1.386527	99
Es	-1.000252	-0.777691	-0.197729	99
41
Properties=species:S:1:pos:R:3:Z:I:1 energy=-359.7907070525768 field_type=dipole dipole="0.000000 0.000000 0.000000" charge=0
O	-1.270234	-0.249724	1.548126	8
C	-0.529754	-0.584404	0.376776	6
C	-1.464234	-0.985654	-0.755503	6
O	-2.688904	-1.003624	-0.628314	8
C	0.305616	0.600736	-0.002564	6
C	1.770236	0.638006	0.353936	6
N	1.340666	0.477626	-1.033123	7
H	-2.213494	-0.380414	1.317876	1
H	0.086846	-1.458384	0.612696	1
H	-0.975504	-1.298484	-1.694664	1
H	-0.253824	1.528806	0.009276	1
H	2.224206	-0.231934	0.813446	1
H	2.212866	1.589486	0.623976	1
H	1.455516	1.357966	-1.541944	1
Es	-0.115564	-1.174668	0.510241	99
Es	-0.529916	-0.584334	0.376884	99
Es	-1.148176	-0.254390	1.813495	99
Es	-1.464246	-0.985646	-0.755480	99
Es	-0.071817	1.227116	-0.000729	99
Es	-1.281308	-0.166363	1.496489	99
Es	-1.270380	-0.250842	1.547873	99
Es	-2.652319	-0.920878	-0.389142	99
Es	1.384739	0.187114	-1.193295	99
Es	-2.954592	-1.069156	-0.787734	99
Es	2.073702	1.278599	0.529010	99
Es	-1.774743	-0.314685	1.436023	99
Es	-1.000412	-0.777821	-0.198246	99
Es	-2.264594	-0.765450	-0.769920	99
Es	-0.110816	-0.011695	0.157452	99
Es	2.076027	0.052703	0.658898	99
Es	0.305814	0.600657	-0.002704	99
Es	0.967426	0.638486	0.400266	99
Es	1.686484	0.554998	-0.479914	99
Es	-2.238846	-1.238056	-0.611882	99
Es	1.399204	0.997807	-1.310861	99
Es	-2.688513	-1.003679	-0.628557	99
Es	-1.122872	-1.193028	-1.386612	99
Es	-0.974086	-0.377150	1.089963	99
Es	1.340535	0.478136	-1.032724	99
Es	1.770095	0.637993	0.353705	99
Es	0.766993	0.527461	-0.689462	99
41
Properties=species:S:1:pos:R:3:Z:I:1 energy=-359.7907070525768 field_type=dipole dipole="0.000000 0.000000 0.000000" charge=0
O	-1.270234	-0.249724	1.548126	8
C	-0.529754	-0.584404	0.376776	6
C	-1.464234	-0.985654	-0.755503	6
O	-2.688904	-1.003624	-0.628314	8
C	0.305616	0.600736	-0.002564	6
C	1.770236	0.638006	0.353936	6
N	1.340666	0.477626	-1.033123	7
H	-2.213494	-0.380414	1.317876	1
H	0.086846	-1.458384	0.612696	1
H	-0.975504	-1.298484	-1.694664	1
H	-0.253824	1.528806	0.009276	1
H	2.224206	-0.231934	0.813446	1
H	2.212866	1.589486	0.623976	1
H	1.455516	1.357966	-1.541944	1
Es	-0.072203	1.227399	-0.000684	99
Es	-1.272175	-0.249167	1.541992	99
Es	-1.000264	-0.777586	-0.198125	99
Es	-2.688519	-1.003657	-0.628473	99
Es	-1.464246	-0.985645	-0.755480	99
Es	-2.653526	-0.920479	-0.388266	99
Es	1.686987	0.553584	-0.480043	99
Es	0.305811	0.600664	-0.002703	99
Es	1.383007	0.188630	-1.190092	99
Es	-0.115078	-1.175088	0.510324	99
Es	-2.953617	-1.068361	-0.789468	99
Es	-0.110914	-0.011717	0.157394	99
Es	-1.280979	-0.194733	1.504073	99
Es	2.076531	0.052356	0.659118	99
Es	-1.147298	-0.231976	1.811349	99
Es	-0.973373	-0.375597	1.090253	99
Es	0.967163	0.638707	0.399886	99
Es	-1.122841	-1.193053	-1.386582	99
Es	2.073396	1.278368	0.528660	99
Es	1.770101	0.637992	0.353707	99
Es	0.767211	0.527097	-0.689007	99
Es	-2.261910	-0.765509	-0.770484	99
Es	-2.241315	-1.239068	-0.610518	99
Es	-1.775036	-0.311971	1.436038	99
Es	1.400279	0.998248	-1.313990	99
Es	-0.529916	-0.584334	0.376884	99
Es	1.340538	0.478124	-1.032725	99
41
Properties=species:S:1:pos:R:3:Z:I:1 energy=-359.7907070525768 field_type=dipole dipole="0.000000 0.000000 0.000000" charge=0
O	-1.270234	-0.249724	1.548126	8
C	-0.529754	-0.584404	0.376776	6
C	-1.464234	-0.985654	-0.755503	6
O	-2.688904	-1.003624	-0.628314	8
C	0.305616	0.600736	-0.002564	6
C	1.770236	0.638006	0.353936	6
N	1.340666	0.477626	-1.033123	7
H	-2.213494	-0.380414	1.317876	1
H	0.086846	-1.458384	0.612696	1
H	-0.975504	-1.298484	-1.694664	1
H	-0.253824	1.528806	0.009276	1
H	2.224206	-0.231934	0.813446	1
H	2.212866	1.589486	0.623976	1
H	1.455516	1.357966	-1.541944	1
Es	-2.959074	-1.065430	-0.779442	99
Es	-0.114572	-1.175054	0.510395	99
Es	0.967191	0.639013	0.400310	99
Es	-0.529915	-0.584334	0.376885	99
Es	-1.273448	-0.238422	1.536219	99
Es	0.767550	0.527453	-0.688964	99
Es	1.770094	0.637991	0.353706	99
Es	-1.122854	-1.192954	-1.386631	99
Es	1.382044	0.188794	-1.188334	99
Es	-0.111360	-0.011616	0.157339	99
Es	-0.974515	-0.374251	1.088937	99
Es	-1.280259	-0.222308	1.511916	99
Es	1.340548	0.478071	-1.032750	99
Es	-1.145639	-0.218101	1.811482	99
Es	-1.000275	-0.777699	-0.198045	99
Es	-2.647483	-0.923118	-0.396686	99
Es	-2.239214	-1.239500	-0.612304	99
Es	-2.688528	-1.003623	-0.628356	99
Es	1.401024	0.998269	-1.316043	99
Es	-2.264550	-0.765460	-0.770438	99
Es	1.687129	0.552897	-0.480545	99
Es	2.076497	0.052488	0.659421	99
Es	-1.774992	-0.310357	1.435260	99
Es	-0.072245	1.227241	-0.000771	99
Es	0.305813	0.600659	-0.002706	99
Es	2.073095	1.278228	0.528662	99
Es	-1.464246	-0.985649	-0.755480	99
41
Properties=species:S:1:pos:R:3:Z:I:1 energy=-359.7907070525768 field_type=dipole dipole="0.000000 0.000000 0.000000" charge=0
O	-1.270234	-0.249724	1.548126	8
C	-0.529754	-0.584404	0.376776	6
C	-1.464234	-0.985654	-0.755503	6
O	-2.688904	-1.003624	-0.628314	8
C	0.305616	0.600736	-0.002564	6
C	1.770236	0.638006	0.353936	6
N	1.340666	0.477626	-1.033123	7
H	-2.213494	-0.380414	1.317876	1
H	0.086846	-1.458384	0.612696	1
H	-0.975504	-1.298484	-1.694664	1
H	-0.253824	1.528806	0.009276	1
H	2.224206	-0.231934	0.813446	1
H	2.212866	1.589486	0.623976	1
H	1.455516	1.357966	-1.541944	1
Es	0.767170	0.527554	-0.689673	99
Es	-2.262752	-0.766190	-0.771658	99
Es	0.305814	0.600656	-0.002705	99
Es	-2.961272	-1.064015	-0.775299	99
Es	-1.774913	-0.312019	1.435642	99
Es	-0.072011	1.227032	-0.000722	99
Es	-1.122850	-1.192949	-1.386674	99
Es	-0.114878	-1.174677	0.510299	99
Es	-1.270555	-0.251080	1.547403	99
Es	-1.464246	-0.985644	-0.755481	99
Es	-2.644971	-0.923873	-0.399725	99
Es	2.073182	1.277993	0.528892	99
Es	-2.688486	-1.003684	-0.628559	99
Es	-0.111265	-0.011709	0.157520	99
Es	0.967275	0.639020	0.400808	99
Es	-2.241356	-1.239363	-0.611989	99
Es	1.687530	0.553971	-0.480812	99
Es	1.383192	0.188357	-1.190841	99
Es	-1.146009	-0.227546	1.812556	99
Es	-0.974486	-0.375510	1.089323	99
Es	-1.282857	-0.197302	1.499000	99
Es	1.340529	0.478148	-1.032716	99
Es	1.770098	0.637985	0.353708	99
Es	2.076211	0.052655	0.659160	99
Es	-0.529915	-0.584333	0.376884	99
Es	1.399953	0.997566	-1.313030	99
Es	-1.000316	-0.777816	-0.198276	99
41
Properties=species:S:1:pos:R:3:Z:I:1 energy=-359.7907070525768 field_type=dipole dipole="0.000000 0.000000 0.000000" charge=0
O	-1.270234	-0.249724	1.548126	8
C	-0.529754	-0.584404	0.376776	6
C	-1.464234	-0.985654	-0.755503	6
O	-2.688904	-1.003624	-0.628314	8
C	0.305616	0.600736	-0.002564	6
C	1.770236	0.638006	0.353936	6
N	1.340666	0.477626	-1.033123	7
H	-2.213494	-0.380414	1.317876	1
H	0.086846	-1.458384	0.612696	1
H	-0.975504	-1.298484	-1.694664	1
H	-0.253824	1.528806	0.009276	1
H	2.224206	-0.231934	0.813446	1
H	2.212866	1.589486	0.623976	1
H	1.455516	1.357966	-1.541944	1
Es	-0.529915	-0.584334	0.376885	99
Es	0.966944	0.638876	0.400886	99
Es	-1.464246	-0.985646	-0.755481	99
Es	-2.244042	-1.238836	-0.610746	99
Es	-2.259819	-0.766845	-0.771957	99
Es	1.340545	0.478101	-1.032774	99
Es	-0.114953	-1.174607	0.510299	99
Es	-1.282814	-0.193090	1.497984	99
Es	-2.688525	-1.003654	-0.628468	99
Es	0.305817	0.600657	-0.002701	99
Es	-0.072191	1.227105	-0.000706	99
Es	-2.960185	-1.064326	-0.778128	99
Es	-1.122750	-1.193035	-1.386645	99