52
Properties=species:S:1:pos:R:3:Z:I:1 energy=-274.49444095360866 field_type=dipole dipole="0.000000 0.000000 0.000000" charge=0
C	-2.690484	-1.526170	-0.038401	6
C	-1.168864	-1.503870	-0.051421	6
C	-0.633154	-0.069730	-0.077701	6
C	0.904836	0.024280	0.018519	6
C	1.592866	-0.721390	-1.131171	6
C	1.385476	1.491340	0.020919	6
C	0.941956	2.284270	1.241559	6
H	-3.054164	-2.558800	-0.019821	1
H	-3.096464	-1.039310	-0.930531	1
H	-3.084354	-1.011900	0.844099	1
H	-0.824534	-2.058720	-0.930051	1
H	-0.793394	-2.025660	0.836429	1
H	-1.081834	0.473560	0.761809	1
H	-0.975394	0.428390	-0.993971	1
H	1.224696	-0.443430	0.958649	1
H	1.243286	-0.358900	-2.103801	1
H	1.405676	-1.797850	-1.077881	1
H	2.678986	-0.585310	-1.090091	1
H	1.038596	2.001490	-0.886011	1
H	2.482346	1.509610	-0.008561	1
H	-0.141764	2.433030	1.257169	1
H	1.407666	3.275040	1.233029	1
H	1.238026	1.780039	2.167229	1
Es	-0.931575	-1.882786	-0.655357	99
Es	-2.965149	-1.191062	-0.649455	99
Es	-0.893176	-0.789656	-0.067569	99
Es	-1.168893	-1.503843	-0.051418	99
Es	-2.939313	-2.232631	-0.025831	99
Es	-0.865630	0.271190	-0.711688	99
Es	2.140397	1.500052	0.001996	99
Es	-2.957604	-1.172078	0.566152	99
Es	1.592861	-0.721385	-1.131164	99
Es	-0.909100	-1.860074	0.560832	99
Es	1.142559	1.838797	-0.603494	99
Es	1.261353	2.960762	1.234643	99
Es	1.247257	-0.354856	-0.567476	99
Es	0.904829	0.024292	0.018473	99
Es	2.335222	-0.624205	-1.100229	99
Es	-1.935950	-1.510263	-0.042881	99
Es	1.349896	-0.470170	-1.795186	99
Es	0.941962	2.284261	1.241545	99
Es	-0.633134	-0.069757	-0.077700	99
Es	1.123957	-0.297116	0.668519	99
Es	1.461346	-1.456491	-1.094948	99
Es	1.385453	1.491344	0.020954	99
Es	1.144610	1.935319	1.873432	99
Es	-0.940359	0.301843	0.500513	99
Es	1.152336	1.885648	0.638144	99
Es	-2.690469	-1.526172	-0.038401	99
Es	1.136901	0.764530	0.022521	99
Es	0.200536	2.382353	1.251716	99
Es	0.133910	-0.025909	-0.034751	99
52
Properties=species:S:1:pos:R:3:Z:I:1 energy=-274.49444095360866 field_type=dipole dipole="0.000000 0.000000 0.000000" charge=0
C	-2.690484	-1.526170	-0.038401	6
C	-1.168864	-1.503870	-0.051421	6
C	-0.633154	-0.069730	-0.077701	6
C	0.904836	0.024280	0.018519	6
C	1.592866	-0.721390	-1.131171	6
C	1.385476	1.491340	0.020919	6
C	0.941956	2.284270	1.241559	6
H	-3.054164	-2.558800	-0.019821	1
H	-3.096464	-1.039310	-0.930531	1
H	-3.084354	-1.011900	0.844099	1
H	-0.824534	-2.058720	-0.930051	1
H	-0.793394	-2.025660	0.836429	1
H	-1.081834	0.473560	0.761809	1
H	-0.975394	0.428390	-0.993971	1
H	1.224696	-0.443430	0.958649	1
H	1.243286	-0.358900	-2.103801	1
H	1.405676	-1.797850	-1.077881	1
H	2.678986	-0.585310	-1.090091	1
H	1.038596	2.001490	-0.886011	1
H	2.482346	1.509610	-0.008561	1
H	-0.141764	2.433030	1.257169	1
H	1.407666	3.275040	1.233029	1
H	1.238026	1.780039	2.167229	1
Es	-0.633132	-0.069757	-0.077703	99
Es	1.461630	-1.456320	-1.094609	99
Es	-1.935957	-1.510276	-0.043055	99
Es	2.140207	1.499906	0.002363	99
Es	-0.865873	0.271561	-0.712247	99
Es	1.144917	1.935064	1.874169	99
Es	-2.690468	-1.526172	-0.038402	99
Es	0.133963	-0.025921	-0.034644	99
Es	-2.939052	-2.232389	-0.025602	99
Es	0.941962	2.284262	1.241545	99
Es	-0.893297	-0.789729	-0.067635	99
Es	1.385453	1.491344	0.020954	99
Es	1.261051	2.960499	1.234159	99
Es	-0.908782	-1.860377	0.561489	99
Es	1.592860	-0.721385	-1.131165	99
Es	-2.957329	-1.172531	0.566227	99
Es	-2.965522	-1.190687	-0.649958	99
Es	0.200752	2.382545	1.251389	99
Es	1.136869	0.764535	0.022538	99
Es	1.152294	1.885606	0.638175	99
Es	1.142323	1.839118	-0.604093	99
Es	1.349683	-0.469926	-1.795883	99
Es	-1.168895	-1.503841	-0.051419	99
Es	-0.940045	0.301455	0.500332	99
Es	1.247305	-0.354765	-0.567538	99
Es	-0.931837	-1.882439	-0.655186	99
Es	1.124226	-0.297423	0.669086	99
Es	2.334898	-0.624311	-1.099872	99
Es	0.904829	0.024292	0.018475	99
52
Properties=species:S:1:pos:R:3:Z:I:1 energy=-274.49444095360866 field_type=dipole dipole="0.000000 0.000000 0.000000" charge=0
C	-2.690484	-1.526170	-0.038401	6
C	-1.168864	-1.503870	-0.051421	6
C	-0.633154	-0.069730	-0.077701	6
C	0.904836	0.024280	0.018519	6
C	1.592866	-0.721390	-1.131171	6
C	1.385476	1.491340	0.020919	6
C	0.941956	2.284270	1.241559	6
H	-3.054164	-2.558800	-0.019821	1
H	-3.096464	-1.039310	-0.930531	1
H	-3.084354	-1.011900	0.844099	1
H	-0.824534	-2.058720	-0.930051	1
H	-0.793394	-2.025660	0.836429	1
H	-1.081834	0.473560	0.761809	1
H	-0.975394	0.428390	-0.993971	1
H	1.224696	-0.443430	0.958649	1
H	1.243286	-0.358900	-2.103801	1
H	1.405676	-1.797850	-1.077881	1
H	2.678986	-0.585310	-1.090091	1
H	1.038596	2.001490	-0.886011	1
H	2.482346	1.509610	-0.008561	1
H	-0.141764	2.433030	1.257169	1
H	1.407666	3.275040	1.233029	1
H	1.238026	1.780039	2.167229	1
Es	-1.935935	-1.510349	-0.043012	99
Es	-2.956993	-1.172687	0.566058	99
Es	1.142202	1.839351	-0.604425	99
Es	0.133946	-0.025952	-0.034791	99
Es	1.137013	0.764491	0.022483	99
Es	0.904829	0.024292	0.018474	99
Es	1.592860	-0.721385	-1.131164	99
Es	1.385454	1.491343	0.020954	99
Es	-0.939832	0.301271	0.500506	99
Es	-0.908663	-1.860660	0.561737	99
Es	-1.168894	-1.503841	-0.051418	99
Es	-0.633134	-0.069756	-0.077700	99
Es	1.461705	-1.456332	-1.094490	99
Es	-2.965734	-1.190451	-0.650366	99
Es	-2.939011	-2.232333	-0.025209	99
Es	1.144936	1.934821	1.874495	99
Es	1.152398	1.885645	0.638107	99
Es	1.349692	-0.469725	-1.796184	99
Es	-2.690466	-1.526172	-0.038399	99
Es	0.941968	2.284260	1.241545	99
Es	2.334666	-0.624400	-1.099682	99
Es	1.247242	-0.354796	-0.567475	99
Es	-0.893385	-0.789672	-0.067647	99
Es	1.260892	2.960451	1.234076	99
Es	1.124241	-0.297594	0.669444	99
Es	-0.931990	-1.882172	-0.655259	99
Es	2.139996	1.499839	0.002532	99
Es	-0.865954	0.271837	-0.712489	99
Es	0.200984	2.382614	1.251189	99
52
Properties=species:S:1:pos:R:3:Z:I:1 energy=-274.49444095360866 field_type=dipole dipole="0.000000 0.000000 0.000000" charge=0
C	-2.690484	-1.526170	-0.038401	6
C	-1.168864	-1.503870	-0.051421	6
C	-0.633154	-0.069730	-0.077701	6
C	0.904836	0.024280	0.018519	6
C	1.592866	-0.721390	-1.131171	6
C	1.385476	1.491340	0.020919	6
C	0.941956	2.284270	1.241559	6
H	-3.054164	-2.558800	-0.019821	1
H	-3.096464	-1.039310	-0.930531	1
H	-3.084354	-1.011900	0.844099	1
H	-0.824534	-2.058720	-0.930051	1
H	-0.793394	-2.025660	0.836429	1
H	-1.081834	0.473560	0.761809	1
H	-0.975394	0.428390	-0.993971	1
H	1.224696	-0.443430	0.958649	1
H	1.243286	-0.358900	-2.103801	1
H	1.405676	-1.797850	-1.077881	1
H	2.678986	-0.585310	-1.090091	1
H	1.038596	2.001490	-0.886011	1
H	2.482346	1.509610	-0.008561	1
H	-0.141764	2.433030	1.257169	1
H	1.407666	3.275040	1.233029	1
H	1.238026	1.780039	2.167229	1
Es	2.139841	1.499884	0.002607	99
Es	-0.893353	-0.789699	-0.067610	99
Es	-2.957036	-1.172926	0.566176	99
Es	0.941961	2.284263	1.241546	99
Es	0.200883	2.382659	1.251030	99
Es	0.904830	0.024292	0.018475	99
Es	2.334550	-0.624417	-1.099618	99
Es	0.133980	-0.025832	-0.034734	99
Es	-0.866142	0.271908	-0.712640	99
Es	1.142059	1.839466	-0.604639	99
Es	1.592862	-0.721384	-1.131164	99
Es	1.152508	1.885743	0.638225	99
Es	-2.690468	-1.526171	-0.038401	99
Es	-0.908560	-1.860758	0.561914	99
Es	-2.938828	-2.232194	-0.025288	99
Es	-2.965831	-1.190330	-0.650506	99
Es	1.260717	2.960232	1.233857	99
Es	-1.168892	-1.503844	-0.051417	99
Es	1.461847	-1.456254	-1.094348	99
Es	-1.935979	-1.510293	-0.043032	99
Es	1.137126	0.764302	0.022555	99
Es	1.124367	-0.297653	0.669604	99
Es	-0.932062	-1.882039	-0.655183	99
Es	-0.633134	-0.069757	-0.077700	99
Es	1.385455	1.491344	0.020954	99
Es	1.247263	-0.354752	-0.567558	99
Es	-0.939730	0.301117	0.500432	99
Es	1.145213	1.934746	1.874766	99
Es	1.349586	-0.469712	-1.796411	99
52
Properties=species:S:1:pos:R:3:Z:I:1 energy=-274.49444095360866 field_type=dipole dipole="0.000000 0.000000 0.000000" charge=0
C	-2.690484	-1.526170	-0.038401	6
C	-1.168864	-1.503870	-0.051421	6
C	-0.633154	-0.069730	-0.077701	6
C	0.904836	0.024280	0.018519	6
C	1.592866	-0.721390	-1.131171	6
C	1.385476	1.491340	0.020919	6
C	0.941956	2.284270	1.241559	6
H	-3.054164	-2.558800	-0.019821	1
H	-3.096464	-1.039310	-0.930531	1
H	-3.084354	-1.011900	0.844099	1
H	-0.824534	-2.058720	-0.930051	1
H	-0.793394	-2.025660	0.836429	1
H	-1.081834	0.473560	0.761809	1
H	-0.975394	0.428390	-0.993971	1
H	1.224696	-0.443430	0.958649	1
H	1.243286	-0.358900	-2.103801	1
H	1.405676	-1.797850	-1.077881	1
H	2.678986	-0.585310	-1.090091	1
H	1.038596	2.001490	-0.886011	1
H	2.482346	1.509610	-0.008561	1
H	-0.141764	2.433030	1.257169	1
H	1.407666	3.275040	1.233029	1
H	1.238026	1.780039	2.167229	1
Es	2.334401	-0.624597	-1.099482	99
Es	-1.936017	-1.510344	-0.042929	99
Es	-0.932161	-1.881825	-0.655232	99
Es	1.137002	0.764487	0.022501	99
Es	0.904829	0.024292	0.018474	99
Es	1.142081	1.839547	-0.604761	99
Es	1.385454	1.491344	0.020953	99
Es	2.139891	1.499747	0.002766	99
Es	1.152526	1.885758	0.638143	99
Es	-2.938837	-2.232161	-0.025111	99
Es	1.461775	-1.456251	-1.094304	99
Es	-2.965861	-1.190235	-0.650714	99
Es	-0.939576	0.301042	0.500526	99
Es	-0.908397	-1.860930	0.562019	99
Es	1.260714	2.960053	1.233894	99
Es	-1.168895	-1.503840	-0.051418	99
Es	0.200853	2.382815	1.250932	99
Es	1.247461	-0.354769	-0.567486	99
Es	1.145205	1.934670	1.874863	99
Es	1.124381	-0.297727	0.669718	99
Es	-0.633135	-0.069755	-0.077702	99
Es	-2.956921	-1.172966	0.566075	99
Es	1.592861	-0.721386	-1.131165	99
Es	-0.893400	-0.789753	-0.067577	99
Es	1.349589	-0.469434	-1.796602	99
Es	0.941962	2.284262	1.241544	99
Es	-0.866193	0.272041	-0.712779	99
Es	-2.690468	-1.526172	-0.038402	99
Es	0.133910	-0.025975	-0.034853	99
52
Properties=species:S:1:pos:R:3:Z:I:1 energy=-274.49444095360866 field_type=dipole dipole="0.000000 0.000000 0.000000" charge=0
C	-2.690484	-1.526170	-0.038401	6
C	-1.168864	-1.503870	-0.051421	6
C	-0.633154	-0.069730	-0.077701	6
C	0.904836	0.024280	0.018519	6
C	1.592866	-0.721390	-1.131171	6
C	1.385476	1.491340	0.020919	6
C	0.941956	2.284270	1.241559	6
H	-3.054164	-2.558800	-0.019821	1
H	-3.096464	-1.039310	-0.930531	1
H	-3.084354	-1.011900	0.844099	1
H	-0.824534	-2.058720	-0.930051	1
H	-0.793394	-2.025660	0.836429	1
H	-1.081834	0.473560	0.761809	1
H	-0.975394	0.428390	-0.993971	1
H	1.224696	-0.443430	0.958649	1
H	1.243286	-0.358900	-2.103801	1
H	1.405676	-1.797850	-1.077881	1
H	2.678986	-0.585310	-1.090091	1
H	1.038596	2.001490	-0.886011	1
H	2.482346	1.509610	-0.008561	1
H	-0.141764	2.433030	1.257169	1
H	1.407666	3.275040	1.233029	1
H	1.238026	1.780039	2.167229	1
Es	1.385453	1.491343	0.020953	99
Es	-1.936010	-1.510279	-0.043035	99
Es	1.142037	1.839636	-0.604887	99
Es	1.592861	-0.721386	-1.131165	99
Es	1.152449	1.885744	0.638169	99
Es	-2.956877	-1.173109	0.566117	99
Es	1.461937	-1.456313	-1.094223	99
Es	0.941961	2.284262	1.241546	99
Es	1.145196	1.934527	1.875003	99
Es	2.139833	1.499712	0.002854	99
Es	-2.965989	-1.190158	-0.650769	99
Es	1.247350	-0.354680	-0.567507	99
Es	1.137021	0.764477	0.022474	99
Es	-0.932185	-1.881797	-0.655156	99
Es	2.334294	-0.624473	-1.099493	99
Es	-2.938744	-2.232099	-0.025101	99
Es	1.260764	2.959973	1.233811	99
Es	1.349576	-0.469520	-1.796662	99
Es	-0.893309	-0.789732	-0.067647	99
Es	-0.866232	0.272084	-0.712885	99
Es	-0.908406	-1.860968	0.562144	99
Es	0.200934	2.382957	1.250836	99
Es	1.124431	-0.297794	0.669849	99
Es	-0.939611	0.300929	0.500509	99
Es	0.133967	-0.025921	-0.034798	99
Es	-1.168894	-1.503841	-0.051418	99
Es	-0.633134	-0.069756	-0.077700	99
Es	-2.690469	-1.526172	-0.038402	99
Es	0.904829	0.024292	0.018474	99
52
Properties=species:S:1:pos:R:3:Z:I:1 energy=-274.49444095360866 field_type=dipole dipole="0.000000 0.000000 0.000000" charge=0
C	-2.690484	-1.526170	-0.038401	6
C	-1.168864	-1.503870	-0.051421	6
C	-0.633154	-0.069730	-0.077701	6
C	0.904836	0.024280	0.018519	6
C	1.592866	-0.721390	-1.131171	6
C	1.385476	1.491340	0.020919	6
C	0.941956	2.284270	1.241559	6
H	-3.054164	-2.558800	-0.019821	1
H	-3.096464	-1.039310	-0.930531	1
H	-3.084354	-1.011900	0.844099	1
H	-0.824534	-2.058720	-0.930051	1
H	-0.793394	-2.025660	0.836429	1
H	-1.081834	0.473560	0.761809	1
H	-0.975394	0.428390	-0.993971	1
H	1.224696	-0.443430	0.958649	1
H	1.243286	-0.358900	-2.103801	1
H	1.405676	-1.797850	-1.077881	1
H	2.678986	-0.585310	-1.090091	1
H	1.038596	2.001490	-0.886011	1
H	2.482346	1.509610	-0.008561	1
H	-0.141764	2.433030	1.257169	1
H	1.407666	3.275040	1.233029	1
H	1.238026	1.780039	2.167229	1
Es	1.145324	1.934506	1.875109	99
Es	1.152471	1.885720	0.638086	99
Es	-0.866290	0.272201	-0.712968	99
Es	0.904829	0.024292	0.018473	99
Es	1.141905	1.839690	-0.604947	99
Es	1.461985	-1.456338	-1.094241	99
Es	-1.936002	-1.510356	-0.042947	99
Es	-2.966081	-1.190083	-0.650927	99
Es	0.133971	-0.025888	-0.034754	99
Es	-0.939532	0.300822	0.500510	99
Es	1.349651	-0.469471	-1.796732	99
Es	1.124413	-0.297783	0.669933	99
Es	1.136977	0.764471	0.022560	99
Es	2.334176	-0.624508	-1.099451	99
Es	-0.932275	-1.881779	-0.655080	99
Es	-2.956819	-1.173217	0.566076	99
Es	-0.893271	-0.789665	-0.067706	99
Es	-2.938672	-2.232036	-0.024998	99
Es	-0.633133	-0.069757	-0.077701	99
Es	1.260674	2.959873	1.233726	99
Es	1.592860	-0.721385	-1.131164	99
Es	2.139869	1.499726	0.002888	99
Es	-0.908355	-1.861013	0.562168	99
Es	1.247374	-0.354673	-0.567532	99
Es	-1.168894	-1.503841	-0.051418	99
Es	0.941962	2.284263	1.241545	99
Es	1.385452	1.491344	0.020954	99
Es	-2.690468	-1.526172	-0.038402	99
Es	0.200931	2.382994	1.250831	99
52
Properties=species:S:1:pos:R:3:Z:I:1 energy=-274.49444095360866 field_type=dipole dipole="0.000000 0.000000 0.000000" charge=0
C	-2.690484	-1.526170	-0.038401	6
C	-1.168864	-1.503870	-0.051421	6
C	-0.633154	-0.069730	-0.077701	6
C	0.904836	0.024280	0.018519	6
C	1.592866	-0.721390	-1.131171	6
C	1.385476	1.491340	0.020919	6
C	0.941956	2.284270	1.241559	6
H	-3.054164	-2.558800	-0.019821	1
H	-3.096464	-1.039310	-0.930531	1
H	-3.084354	-1.011900	0.844099	1
H	-0.824534	-2.058720	-0.930051	1
H	-0.793394	-2.025660	0.836429	1
H	-1.081834	0.473560	0.761809	1
H	-0.975394	0.428390	-0.993971	1
H	1.224696	-0.443430	0.958649	1
H	1.243286	-0.358900	-2.103801	1
H	1.405676	-1.797850	-1.077881	1
H	2.678986	-0.585310	-1.090091	1
H	1.038596	2.001490	-0.886011	1
H	2.482346	1.509610	-0.008561	1
H	-0.141764	2.433030	1.257169	1
H	1.407666	3.275040	1.233029	1
H	1.238026	1.780039	2.167229	1
Es	1.124403	-0.297899	0.670060	99
Es	1.349665	-0.469350	-1.796792	99
Es	0.941964	2.284268	1.241547	99
Es	-0.866405	0.272162	-0.713016	99
Es	1.141844	1.839683	-0.605036	99
Es	1.260556	2.959872	1.233767	99
Es	1.461998	-1.456399	-1.094231	99
Es	2.139736	1.499684	0.002796	99
Es	-0.633135	-0.069758	-0.077701	99
Es	-1.935971	-1.510270	-0.043039	99
Es	0.200931	2.382924	1.250794	99
Es	-0.893296	-0.789685	-0.067581	99
Es	2.334100	-0.624490	-1.099355	99
Es	-0.908333	-1.861107	0.562271	99
Es	-2.956810	-1.173241	0.566066	99
Es	0.904830	0.024292	0.018474	99
Es	1.137079	0.764426	0.022600	99
Es	1.385453	1.491343	0.020953	99
Es	1.592861	-0.721386	-1.131165	99
Es	-2.966106	-1.190070	-0.650923	99
Es	-1.168895	-1.503840	-0.051418	99
Es	-2.938679	-2.232018	-0.024992	99
Es	-0.939458	0.300821	0.500523	99
Es	-0.932273	-1.881664	-0.655111	99
Es	1.247366	-0.354655	-0.567466	99
Es	-2.690468	-1.526172	-0.038401	99
Es	1.145342	1.934523	1.875138	99
Es	1.152710	1.885828	0.638117	99
Es	0.134027	-0.025887	-0.034988	99
52
Properties=species:S:1:pos:R:3:Z:I:1 energy=-274.49444095360866 field_type=dipole dipole="0.000000 0.000000 0.000000" charge=0
C	-2.690484	-1.526170	-0.038401	6
C	-1.168864	-1.503870	-0.051421	6
C	-0.633154	-0.069730	-0.077701	6
C	0.904836	0.024280	0.018519	6
C	1.592866	-0.721390	-1.131171	6
C	1.385476	1.491340	0.020919	6
C	0.941956	2.284270	1.241559	6
H	-3.054164	-2.558800	-0.019821	1
H	-3.096464	-1.039310	-0.930531	1
H	-3.084354	-1.011900	0.844099	1
H	-0.824534	-2.058720	-0.930051	1
H	-0.793394	-2.025660	0.836429	1
H	-1.081834	0.473560	0.761809	1
H	-0.975394	0.428390	-0.993971	1
H	1.224696	-0.443430	0.958649	1
H	1.243286	-0.358900	-2.103801	1
H	1.405676	-1.797850	-1.077881	1
H	2.678986	-0.585310	-1.090091	1
H	1.038596	2.001490	-0.886011	1
H	2.482346	1.509610	-0.008561	1
H	-0.141764	2.433030	1.257169	1
H	1.407666	3.275040	1.233029	1
H	1.238026	1.780039	2.167229	1
Es	-1.168894	-1.503840	-0.051418	99
Es	-0.866352	0.272294	-0.712990	99
Es	1.152409	1.885963	0.638067	99
Es	2.334025	-0.624518	-1.099438	99
Es	1.145508	1.934317	1.875393	99
Es	1.137018	0.764392	0.022476	99
Es	-1.936017	-1.510375	-0.043104	99
Es	1.247298	-0.354561	-0.567467	99
Es	1.124497	-0.297872	0.670053	99
Es	-2.938622	-2.231972	-0.025009	99
Es	-0.908270	-1.861222	0.562272	99
Es	2.139825	1.499730	0.003038	99
Es	-0.633135	-0.069755	-0.077700	99
Es	1.260398	2.959809	1.233620	99
Es	1.349703	-0.469429	-1.796807	99
Es	0.134006	-0.025813	-0.034750	99
Es	1.385455	1.491344	0.020953	99
Es	-2.966103	-1.190075	-0.650979	99
Es	-2.690468	-1.526172	-0.038401	99
Es	1.592861	-0.721385	-1.131165	99
Es	0.201026	2.382929	1.250636	99
Es	-0.939422	0.300750	0.500397	99
Es	1.141945	1.839757	-0.605057	99
Es	-0.932307	-1.881528	-0.655100	99
Es	-2.956802	-1.173228	0.566169	99
Es	1.462074	-1.456380	-1.094246	99
Es	0.904830	0.024292	0.018474	99
Es	0.941962	2.284262	1.241546	99
Es	-0.893414	-0.789773	-0.067572	99
52
Properties=species:S:1:pos:R:3:Z:I:1 energy=-274.49444095360866 field_type=dipole dipole="0.000000 0.000000 0.000000" charge=0
C	-2.690484	-1.526170	-0.038401	6
C	-1.168864	-1.503870	-0.051421	6
C	-0.633154	-0.069730	-0.077701	6
C	0.904836	0.024280	0.018519	6
C	1.592866	-0.721390	-1.131171	6
C	1.385476	1.491340	0.020919	6
C	0.941956	2.284270	1.241559	6
H	-3.054164	-2.558800	-0.019821	1
H	-3.096464	-1.039310	-0.930531	1
H	-3.084354	-1.011900	0.844099	1
H	-0.824534	-2.058720	-0.930051	1
H	-0.793394	-2.025660	0.836429	1
H	-1.081834	0.473560	0.761809	1
H	-0.975394	0.428390	-0.993971	1
H	1.224696	-0.443430	0.958649	1
H	1.243286	-0.358900	-2.103801	1
H	1.405676	-1.797850	-1.077881	1
H	2.678986	-0.585310	-1.090091	1
H	1.038596	2.001490	-0.886011	1
H	2.482346	1.509610	-0.008561	1
H	-0.141764	2.433030	1.257169	1
H	1.407666	3.275040	1.233029	1
H	1.238026	1.780039	2.167229	1
Es	-0.893210	-0.789539	-0.067737	99
Es	1.592859	-0.721385	-1.131165	99
Es	1.385453	1.491342	0.020953	99
Es	1.349698	-0.469341	-1.796836	99
Es	-1.168894	-1.503840	-0.051418	99
Es	0.941962	2.284263	1.241546	99
Es	-0.939545	0.300714	0.500652	99
Es	1.247289	-0.354631	-0.567521	99
Es	-0.932391	-1.881552	-0.655074	99
Es	1.260589	2.959810	1.233620	99
Es	-0.866405	0.272169	-0.713271	99
Es	-2.690469	-1.526172	-0.038401	99
Es	1.141916	1.839805	-0.605163	99
Es	1.137106	0.764554	0.022560	99
Es	2.333978	-0.624465	-1.099365	99
Es	-0.633134	-0.069755	-0.077700	99
Es	-2.966211	-1.189960	-0.650900	99
Es	0.904828	0.024293	0.018474	99
Es	1.152545	1.885795	0.638168	99
Es	-1.935876	-1.510250	-0.043102	99
Es	2.139708	1.499680	0.003032	99
Es	0.200919	2.382989	1.250673	99
Es	0.134052	-0.026027	-0.034772	99
Es	-0.908185	-1.861183	0.562445	99
Es	1.462052	-1.456481	-1.094175	99
Es	1.145406	1.934427	1.875271	99
Es	-2.938689	-2.231975	-0.025000	99
Es	-2.956736	-1.173371	0.566066	99
Es	1.124418	-0.297976	0.670031	99
