41
Properties=species:S:1:pos:R:3:Z:I:1 energy=-359.8204750043645 field_type=dipole dipole="0.000000 0.000000 0.000000" charge=0
O	-1.867584	-1.042552	0.453704	8
C	-0.856004	-1.501362	-0.337376	6
O	-0.938954	-2.600872	-0.878356	8
C	0.341726	-0.526862	-0.465406	6
C	0.021026	0.946238	-0.804476	6
N	-0.043824	1.197178	0.661564	7
C	0.910756	0.068978	0.841894	6
H	-1.645074	-0.150642	0.808704	1
H	1.116776	-0.956492	-1.113156	1
H	-0.915124	1.129958	-1.338816	1
H	0.832376	1.481218	-1.312626	1
H	0.323376	2.108018	0.948474	1
H	1.965385	0.364098	0.783934	1
H	0.755146	-0.516902	1.751944	1
Es	1.628260	0.272810	0.787052	99
Es	-1.203787	-2.734869	-0.807143	99
Es	0.858249	-0.824802	-0.903295	99
Es	0.584657	1.301773	-1.143989	99
Es	-0.938936	-2.600633	-0.878270	99
Es	0.188196	1.746571	0.828961	99
Es	0.341652	-0.526831	-0.465351	99
Es	0.399476	0.745757	0.795551	99
Es	-1.839638	-1.238834	0.654272	99
Es	-1.010883	-2.110016	-0.895531	99
Es	-1.466807	-1.181925	0.154309	99
Es	0.806220	-0.329830	1.464901	99
Es	-0.856137	-1.501207	-0.337224	99
Es	0.021031	0.946213	-0.804308	99
Es	0.910636	0.069081	0.841823	99
Es	-2.078470	-1.032274	0.262472	99
Es	0.645124	-0.323163	0.205941	99
Es	-0.381366	1.099081	0.791617	99
Es	0.146772	0.168310	-0.716336	99
Es	-1.734417	-0.585217	0.624279	99
Es	-0.688814	-2.662850	-1.047267	99
Es	-0.043333	1.197217	0.661323	99
Es	-0.264394	-0.997836	-0.388856	99
Es	-0.617811	1.074114	-1.170107	99
Es	-1.867148	-1.042408	0.453679	99
Es	-0.792531	-2.325730	-0.492001	99
Es	-0.021528	1.161038	0.016227	99
41
Properties=species:S:1:pos:R:3:Z:I:1 energy=-359.8204750043645 field_type=dipole dipole="0.000000 0.000000 0.000000" charge=0
O	-1.867584	-1.042552	0.453704	8
C	-0.856004	-1.501362	-0.337376	6
O	-0.938954	-2.600872	-0.878356	8
C	0.341726	-0.526862	-0.465406	6
C	0.021026	0.946238	-0.804476	6
N	-0.043824	1.197178	0.661564	7
C	0.910756	0.068978	0.841894	6
H	-1.645074	-0.150642	0.808704	1
H	1.116776	-0.956492	-1.113156	1
H	-0.915124	1.129958	-1.338816	1
H	0.832376	1.481218	-1.312626	1
H	0.323376	2.108018	0.948474	1
H	1.965385	0.364098	0.783934	1
H	0.755146	-0.516902	1.751944	1
Es	-1.466016	-1.187001	0.154860	99
Es	-1.867060	-1.042473	0.453750	99
Es	-0.043331	1.197240	0.661334	99
Es	0.583377	1.302191	-1.144178	99
Es	-0.689110	-2.663331	-1.048952	99
Es	0.146863	0.166475	-0.716781	99
Es	0.341654	-0.526833	-0.465351	99
Es	-0.938920	-2.600578	-0.878218	99
Es	-0.791620	-2.323999	-0.493451	99
Es	-0.022646	1.160728	0.017088	99
Es	0.910636	0.069080	0.841823	99
Es	-1.203404	-2.735047	-0.804323	99
Es	-1.737867	-0.579587	0.627508	99
Es	0.644829	-0.324386	0.204690	99
Es	0.806852	-0.328602	1.463891	99
Es	0.397724	0.745527	0.796063	99
Es	-1.843246	-1.234995	0.647205	99
Es	1.627611	0.272536	0.788205	99
Es	-1.012338	-2.111522	-0.895288	99
Es	-0.856137	-1.501203	-0.337220	99
Es	-0.264692	-0.997920	-0.388706	99
Es	-2.071848	-1.036330	0.265641	99
Es	0.858641	-0.824783	-0.903383	99
Es	-0.376118	1.096631	0.787206	99
Es	0.021036	0.946211	-0.804302	99
Es	0.185576	1.751059	0.832905	99
Es	-0.616172	1.074452	-1.169283	99
41
Properties=species:S:1:pos:R:3:Z:I:1 energy=-359.8204750043645 field_type=dipole dipole="0.000000 0.000000 0.000000" charge=0
O	-1.867584	-1.042552	0.453704	8
C	-0.856004	-1.501362	-0.337376	6
O	-0.938954	-2.600872	-0.878356	8
C	0.341726	-0.526862	-0.465406	6
C	0.021026	0.946238	-0.804476	6
N	-0.043824	1.197178	0.661564	7
C	0.910756	0.068978	0.841894	6
H	-1.645074	-0.150642	0.808704	1
H	1.116776	-0.956492	-1.113156	1
H	-0.915124	1.129958	-1.338816	1
H	0.832376	1.481218	-1.312626	1
H	0.323376	2.108018	0.948474	1
H	1.965385	0.364098	0.783934	1
H	0.755146	-0.516902	1.751944	1
Es	0.807330	-0.327428	1.462835	99
Es	-1.835953	-1.231308	0.642638	99
Es	0.582429	1.302480	-1.144366	99
Es	0.341651	-0.526834	-0.465350	99
Es	-1.469711	-1.188382	0.148794	99
Es	0.184187	1.753373	0.834942	99
Es	-0.938890	-2.600521	-0.878208	99
Es	-0.264930	-0.998036	-0.388625	99
Es	-0.023729	1.160562	0.017813	99
Es	-0.043345	1.197242	0.661334	99
Es	-0.372678	1.095713	0.784833	99
Es	1.627195	0.272243	0.789071	99
Es	0.021037	0.946210	-0.804304	99
Es	-1.203755	-2.738440	-0.806762	99
Es	-0.794753	-2.322992	-0.493520	99
Es	-2.074237	-1.041031	0.275493	99
Es	-0.686092	-2.660365	-1.046191	99
Es	0.396490	0.745464	0.796436	99
Es	-1.738735	-0.577034	0.628184	99
Es	0.858883	-0.824662	-0.903480	99
Es	0.146673	0.165165	-0.717227	99
Es	-0.856136	-1.501203	-0.337221	99
Es	-0.614612	1.074626	-1.168482	99
Es	-1.012208	-2.112405	-0.895516	99
Es	0.910635	0.069080	0.841823	99
Es	0.644597	-0.325501	0.203995	99
Es	-1.867069	-1.042477	0.453794	99
41
Properties=species:S:1:pos:R:3:Z:I:1 energy=-359.8204750043645 field_type=dipole dipole="0.000000 0.000000 0.000000" charge=0
O	-1.867584	-1.042552	0.453704	8
C	-0.856004	-1.501362	-0.337376	6
O	-0.938954	-2.600872	-0.878356	8
C	0.341726	-0.526862	-0.465406	6
C	0.021026	0.946238	-0.804476	6
N	-0.043824	1.197178	0.661564	7
C	0.910756	0.068978	0.841894	6
H	-1.645074	-0.150642	0.808704	1
H	1.116776	-0.956492	-1.113156	1
H	-0.915124	1.129958	-1.338816	1
H	0.832376	1.481218	-1.312626	1
H	0.323376	2.108018	0.948474	1
H	1.965385	0.364098	0.783934	1
H	0.755146	-0.516902	1.751944	1
Es	-0.043315	1.197248	0.661327	99
Es	-1.867342	-1.042413	0.453539	99
Es	0.910634	0.069081	0.841821	99
Es	0.858954	-0.824411	-0.903432	99
Es	-0.938992	-2.600552	-0.878165	99
Es	0.146315	0.164148	-0.717670	99
Es	-0.369780	1.094686	0.783316	99
Es	-0.687200	-2.661170	-1.046855	99
Es	-1.010403	-2.110836	-0.893915	99
Es	0.644518	-0.326317	0.203548	99
Es	0.341650	-0.526835	-0.465350	99
Es	-0.265207	-0.998269	-0.388685	99
Es	0.807656	-0.326507	1.461925	99
Es	-0.024683	1.160314	0.018126	99
Es	0.395934	0.746004	0.796573	99
Es	-2.069709	-1.040813	0.275309	99
Es	-1.840466	-1.228057	0.638728	99
Es	1.626849	0.271940	0.789713	99
Es	0.182602	1.755007	0.836515	99
Es	-0.613204	1.074817	-1.167732	99
Es	-1.468291	-1.192949	0.151092	99
Es	0.581799	1.302678	-1.144504	99
Es	-0.793775	-2.325161	-0.494736	99
Es	-1.205527	-2.737198	-0.806430	99
Es	-1.739644	-0.575906	0.630199	99
Es	0.021038	0.946212	-0.804304	99
Es	-0.856138	-1.501201	-0.337221	99
41
Properties=species:S:1:pos:R:3:Z:I:1 energy=-359.8204750043645 field_type=dipole dipole="0.000000 0.000000 0.000000" charge=0
O	-1.867584	-1.042552	0.453704	8
C	-0.856004	-1.501362	-0.337376	6
O	-0.938954	-2.600872	-0.878356	8
C	0.341726	-0.526862	-0.465406	6
C	0.021026	0.946238	-0.804476	6
N	-0.043824	1.197178	0.661564	7
C	0.910756	0.068978	0.841894	6
H	-1.645074	-0.150642	0.808704	1
H	1.116776	-0.956492	-1.113156	1
H	-0.915124	1.129958	-1.338816	1
H	0.832376	1.481218	-1.312626	1
H	0.323376	2.108018	0.948474	1
H	1.965385	0.364098	0.783934	1
H	0.755146	-0.516902	1.751944	1
Es	0.394722	0.745400	0.797698	99
Es	-1.829659	-1.223745	0.634036	99
Es	0.145995	0.163716	-0.717975	99
Es	-0.938924	-2.600534	-0.878191	99
Es	-0.265347	-0.998347	-0.388768	99
Es	0.341651	-0.526834	-0.465351	99
Es	-1.867260	-1.042355	0.453616	99
Es	-1.740976	-0.574768	0.630782	99
Es	-0.795193	-2.322806	-0.494169	99
Es	0.910633	0.069080	0.841820	99
Es	0.581125	1.302892	-1.144762	99
Es	-1.204535	-2.745218	-0.809797	99
Es	-0.043304	1.197243	0.661322	99
Es	-0.856136	-1.501203	-0.337219	99
Es	0.021037	0.946210	-0.804302	99
Es	0.859194	-0.824279	-0.903441	99
Es	-0.024574	1.160449	0.018597	99
Es	1.626438	0.271667	0.790136	99
Es	-1.471737	-1.192568	0.145172	99
Es	0.644199	-0.327474	0.203187	99
Es	-1.012235	-2.113208	-0.894214	99
Es	-0.611844	1.074786	-1.166909	99
Es	0.181418	1.755998	0.837834	99
Es	0.808054	-0.325649	1.461135	99
Es	-0.685144	-2.653306	-1.043619	99
Es	-2.075654	-1.046629	0.285191	99
Es	-0.367671	1.095024	0.780920	99
41
Properties=species:S:1:pos:R:3:Z:I:1 energy=-359.8204750043645 field_type=dipole dipole="0.000000 0.000000 0.000000" charge=0
O	-1.867584	-1.042552	0.453704	8
C	-0.856004	-1.501362	-0.337376	6
O	-0.938954	-2.600872	-0.878356	8
C	0.341726	-0.526862	-0.465406	6
C	0.021026	0.946238	-0.804476	6
N	-0.043824	1.197178	0.661564	7
C	0.910756	0.068978	0.841894	6
H	-1.645074	-0.150642	0.808704	1
H	1.116776	-0.956492	-1.113156	1
H	-0.915124	1.129958	-1.338816	1
H	0.832376	1.481218	-1.312626	1
H	0.323376	2.108018	0.948474	1
H	1.965385	0.364098	0.783934	1
H	0.755146	-0.516902	1.751944	1
Es	-0.938968	-2.600549	-0.878173	99
Es	-0.856138	-1.501202	-0.337219	99
Es	-0.610532	1.074786	-1.166143	99
Es	0.859279	-0.824326	-0.903564	99
Es	-0.043321	1.197241	0.661323	99
Es	1.626018	0.271391	0.790546	99
Es	-0.365799	1.094595	0.780289	99
Es	0.580588	1.303003	-1.144978	99
Es	-1.203722	-2.752376	-0.814769	99
Es	-0.025621	1.160629	0.019018	99
Es	0.021037	0.946210	-0.804302	99
Es	-0.683892	-2.645713	-1.039824	99
Es	-0.265408	-0.998279	-0.388608	99
Es	-0.796761	-2.324300	-0.494199	99
Es	0.394846	0.745663	0.797566	99
Es	0.910635	0.069083	0.841821	99
Es	-1.472236	-1.195920	0.144205	99
Es	-2.075697	-1.048319	0.289348	99
Es	0.341647	-0.526835	-0.465349	99
Es	-1.867241	-1.042345	0.453596	99
Es	-1.741569	-0.574012	0.630905	99
Es	0.808311	-0.324933	1.460469	99
Es	-1.828363	-1.219481	0.630758	99
Es	0.145411	0.163119	-0.718518	99
Es	-1.012839	-2.112208	-0.893008	99
Es	0.644207	-0.328108	0.202956	99
Es	0.180401	1.756725	0.838585	99
41
Properties=species:S:1:pos:R:3:Z:I:1 energy=-359.8204750043645 field_type=dipole dipole="0.000000 0.000000 0.000000" charge=0
O	-1.867584	-1.042552	0.453704	8
C	-0.856004	-1.501362	-0.337376	6
O	-0.938954	-2.600872	-0.878356	8
C	0.341726	-0.526862	-0.465406	6
C	0.021026	0.946238	-0.804476	6
N	-0.043824	1.197178	0.661564	7
C	0.910756	0.068978	0.841894	6
H	-1.645074	-0.150642	0.808704	1
H	1.116776	-0.956492	-1.113156	1
H	-0.915124	1.129958	-1.338816	1
H	0.832376	1.481218	-1.312626	1
H	0.323376	2.108018	0.948474	1
H	1.965385	0.364098	0.783934	1
H	0.755146	-0.516902	1.751944	1
Es	-0.043312	1.197247	0.661326	99
Es	-1.737333	-0.579791	0.643014	99
Es	-0.264699	-0.998347	-0.388039	99
Es	0.341646	-0.526828	-0.465354	99
Es	0.858869	-0.824452	-0.903922	99
Es	0.177916	1.757410	0.840120	99
Es	0.579368	1.301416	-1.143312	99
Es	-1.201320	-2.759189	-0.823167	99
Es	-1.867233	-1.042306	0.453554	99
Es	-0.938968	-2.600559	-0.878181	99
Es	-1.014245	-2.113863	-0.893100	99
Es	-1.969178	-1.239264	0.623037	99
Es	0.147073	0.162072	-0.718729	99
Es	-1.454244	-1.218983	0.185608	99
Es	0.395021	0.744402	0.798132	99
Es	0.808547	-0.323340	1.458148	99
Es	0.644303	-0.328718	0.204897	99
Es	-1.957213	-0.999299	0.242965	99
Es	-0.029154	1.161041	0.018465	99
Es	-0.359373	1.095306	0.779610	99
Es	-0.612286	1.075533	-1.167993	99
Es	0.910634	0.069081	0.841822	99
Es	-0.798358	-2.324470	-0.490102	99
Es	1.626632	0.271231	0.791537	99
Es	-0.856135	-1.501204	-0.337217	99
Es	0.021039	0.946210	-0.804301	99
Es	-0.683725	-2.636797	-1.036087	99
41
Properties=species:S:1:pos:R:3:Z:I:1 energy=-359.8204750043645 field_type=dipole dipole="0.000000 0.000000 0.000000" charge=0
O	-1.867584	-1.042552	0.453704	8
C	-0.856004	-1.501362	-0.337376	6
O	-0.938954	-2.600872	-0.878356	8
C	0.341726	-0.526862	-0.465406	6
C	0.021026	0.946238	-0.804476	6
N	-0.043824	1.197178	0.661564	7
C	0.910756	0.068978	0.841894	6
H	-1.645074	-0.150642	0.808704	1
H	1.116776	-0.956492	-1.113156	1
H	-0.915124	1.129958	-1.338816	1
H	0.832376	1.481218	-1.312626	1
H	0.323376	2.108018	0.948474	1
H	1.965385	0.364098	0.783934	1
H	0.755146	-0.516902	1.751944	1
Es	0.579719	1.303437	-1.145453	99
Es	0.021039	0.946209	-0.804303	99
Es	0.144358	0.162867	-0.719449	99
Es	-0.026255	1.160503	0.018284	99
Es	-1.015947	-2.109711	-0.890489	99
Es	0.808847	-0.324746	1.460498	99
Es	0.393667	0.745935	0.799067	99
Es	-0.799144	-2.327728	-0.494384	99
Es	0.341651	-0.526835	-0.465351	99
Es	-0.938949	-2.600546	-0.878188	99
Es	-0.361806	1.094929	0.777853	99
Es	-0.043296	1.197252	0.661316	99
Es	-0.683172	-2.629602	-1.031741	99
Es	-1.481037	-1.192841	0.131313	99
Es	-1.788236	-1.199275	0.611470	99
Es	-0.856135	-1.501201	-0.337221	99
Es	-1.745702	-0.571707	0.629353	99
Es	0.177992	1.757543	0.840631	99
Es	-0.608148	1.074482	-1.164685	99
Es	0.859459	-0.824600	-0.903614	99
Es	0.910636	0.069080	0.841824	99
Es	-2.102573	-1.073971	0.323324	99
Es	-0.265498	-0.997899	-0.388878	99
Es	-1.867245	-1.042298	0.453520	99
Es	1.624528	0.270967	0.790652	99
Es	-1.198911	-2.767800	-0.824883	99
Es	0.644431	-0.328904	0.202266	99
41
Properties=species:S:1:pos:R:3:Z:I:1 energy=-359.8204750043645 field_type=dipole dipole="0.000000 0.000000 0.000000" charge=0
O	-1.867584	-1.042552	0.453704	8
C	-0.856004	-1.501362	-0.337376	6
O	-0.938954	-2.600872	-0.878356	8
C	0.341726	-0.526862	-0.465406	6
C	0.021026	0.946238	-0.804476	6
N	-0.043824	1.197178	0.661564	7
C	0.910756	0.068978	0.841894	6
H	-1.645074	-0.150642	0.808704	1
H	1.116776	-0.956492	-1.113156	1
H	-0.915124	1.129958	-1.338816	1
H	0.832376	1.481218	-1.312626	1
H	0.323376	2.108018	0.948474	1
H	1.965385	0.364098	0.783934	1
H	0.755146	-0.516902	1.751944	1
Es	0.144057	0.162753	-0.719530	99
Es	0.859694	-0.824726	-0.903814	99
Es	-1.783026	-1.194445	0.607342	99
Es	0.177438	1.757737	0.841053	99
Es	-1.018475	-2.110410	-0.888839	99
Es	-0.801179	-2.328137	-0.493802	99
Es	-0.607376	1.074368	-1.164286	99
Es	-0.043307	1.197242	0.661314	99
Es	-1.482585	-1.194045	0.129543	99
Es	-0.856138	-1.501201	-0.337221	99
Es	-2.105529	-1.078245	0.330317	99
Es	-0.682505	-2.619554	-1.027448	99
Es	-1.195025	-2.776784	-0.831405	99
Es	-0.026464	1.160614	0.018252	99
Es	0.341650	-0.526834	-0.465351	99
Es	-0.938955	-2.600537	-0.878179	99
Es	1.624129	0.270781	0.790790	99
Es	-1.867190	-1.042231	0.453350	99
Es	-0.360755	1.095326	0.777035	99
Es	0.809036	-0.324413	1.460229	99
Es	-1.746376	-0.571111	0.628462	99
Es	0.393303	0.745728	0.799697	99
Es	0.021039	0.946209	-0.804300	99
Es	0.644292	-0.329374	0.202049	99
Es	-0.265523	-0.997731	-0.388810	99
Es	0.579408	1.303481	-1.145538	99
Es	0.910633	0.069083	0.841820	99
41
Properties=species:S:1:pos:R:3:Z:I:1 energy=-359.8204750043645 field_type=dipole dipole="0.000000 0.000000 0.000000" charge=0
O	-1.867584	-1.042552	0.453704	8
C	-0.856004	-1.501362	-0.337376	6
O	-0.938954	-2.600872	-0.878356	8
C	0.341726	-0.526862	-0.465406	6
C	0.021026	0.946238	-0.804476	6
N	-0.043824	1.197178	0.661564	7
C	0.910756	0.068978	0.841894	6
H	-1.645074	-0.150642	0.808704	1
H	1.116776	-0.956492	-1.113156	1
H	-0.915124	1.129958	-1.338816	1
H	0.832376	1.481218	-1.312626	1
H	0.323376	2.108018	0.948474	1
H	1.965385	0.364098	0.783934	1
H	0.755146	-0.516902	1.751944	1
Es	0.808845	-0.322157	1.456711	99
Es	0.394475	0.743495	0.799385	99
Es	0.147406	0.161561	-0.719597	99
Es	0.174948	1.758236	0.842033	99
Es	-1.197011	-2.772221	-0.833980	99
Es	0.910635	0.069081	0.841821	99
Es	0.341651	-0.526835	-0.465350	99
Es	-0.032415	1.161260	0.017840	99
Es	-0.043295	1.197242	0.661315	99
Es	-2.007030	-1.235310	0.605613	99
Es	-0.264410	-0.998102	-0.387913	99
Es	0.644401	-0.329798	0.205411	99
Es	1.626025	0.270819	0.792371	99
Es	-1.738443	-0.580201	0.646111	99
Es	-1.455425	-1.225957	0.186090	99
Es	-0.611812	1.075958	-1.168217	99
Es	-0.685420	-2.622454	-1.028136	99
Es	-0.352046	1.096556	0.777665	99
Es	0.858866	-0.824799	-0.903931	99
Es	-1.015996	-2.113187	-0.892091	99
Es	0.577884	1.300404	-1.142513	99
Es	0.021037	0.946210	-0.804304	99
Es	-0.938810	-2.600495	-0.878224	99
Es	-0.856135	-1.501204	-0.337216	99
Es	-0.799542	-2.326574	-0.488295	99
Es	-1.917332	-0.995482	0.256429	99
Es	-1.866777	-1.042506	0.453700	99
41
Properties=species:S:1:pos:R:3:Z:I:1 energy=-359.8204750043645 field_type=dipole dipole="0.000000 0.000000 0.000000" charge=0
O	-1.867584	-1.042552	0.453704	8
C	-0.856004	-1.501362	-0.337376	6
O	-0.938954	-2.600872	-0.878356	8
C	0.341726	-0.526862	-0.465406	6
C	0.021026	0.946238	-0.804476	6
N	-0.043824	1.197178	0.661564	7
C	0.910756	0.068978	0.841894	6
H	-1.645074	-0.150642	0.808704	1
H	1.116776	-0.956492	-1.113156	1
H	-0.915124	1.129958	-1.338816	1
H	0.832376	1.481218	-1.312626	1
H	0.323376	2.108018	0.948474	1
H	1.965385	0.364098	0.783934	1
H	0.755146	-0.516902	1.751944	1
Es	1.621932	0.270458	0.790398	99
Es	0.645741	-0.329027	0.202053	99
Es	-0.938917	-2.600579	-0.878222	99
Es	-0.043284	1.197251	0.661309	99
Es	-0.856138	-1.501201	-0.337221	99
Es	0.341650	-0.526831	-0.465352	99
Es	-0.264466	-0.996558	-0.389016	99
Es	0.172939	1.758080	0.843241	99
Es	0.910632	0.069081	0.841820	99
Es	-1.867257	-1.042250	0.453401	99
Es	-0.802645	-2.327690	-0.489526	99
Es	0.021038	0.946210	-0.804303	99
Es	-1.495473	-1.188851	0.114162	99
Es	-1.025387	-2.111263	-0.892364	99
Es	-1.752488	-0.568986	0.625883	99
Es	-0.350971	1.099122	0.772879	99
Es	-1.732994	-1.141468	0.543923	99
Es	-2.136266	-1.138393	0.411737	99
Es	0.859019	-0.825940	-0.903871	99
Es	-0.029675	1.160707	0.016685	99
Es	0.809394	-0.325677	1.461935	99
Es	-1.181737	-2.793964	-0.843835	99
Es	0.392408	0.742354	0.802990	99
Es	0.144955	0.163592	-0.720258	99
Es	-0.687230	-2.602067	-1.015585	99
Es	0.578649	1.302544	-1.144318	99
Es	-0.609155	1.074885	-1.165811	99
41
Properties=species:S:1:pos:R:3:Z:I:1 energy=-359.8204750043645 field_type=dipole dipole="0.000000 0.000000 0.000000" charge=0
O	-1.867584	-1.042552	0.453704	8
C	-0.856004	-1.501362	-0.337376	6
O	-0.938954	-2.600872	-0.878356	8
C	0.341726	-0.526862	-0.465406	6
C	0.021026	0.946238	-0.804476	6
N	-0.043824	1.197178	0.661564	7
C	0.910756	0.068978	0.841894	6
H	-1.645074	-0.150642	0.808704	1
H	1.116776	-0.956492	-1.113156	1
H	-0.915124	1.129958	-1.338816	1
H	0.832376	1.481218	-1.312626	1
H	0.323376	2.108018	0.948474	1
H	1.965385	0.364098	0.783934	1
H	0.755146	-0.516902	1.751944	1
Es	-0.264120	-0.997068	-0.387582	99
Es	1.625623	0.270708	0.792372	99
Es	0.859138	-0.825791	-0.904689	99
Es	0.577485	1.300229	-1.142252	99
Es	-0.939019	-2.600534	-0.878141	99
Es	0.341652	-0.526834	-0.465351	99
Es	-0.043262	1.197248	0.661299	99
Es	-1.181158	-2.797445	-0.856504	99
Es	-0.031173	1.161711	0.017632	99
Es	0.394770	0.744107	0.799675	99
Es	0.808897	-0.322468	1.456856	99
Es	-1.454711	-1.228891	0.188255	99
Es	-0.804628	-2.329610	-0.485207	99
Es	-1.897421	-0.995350	0.263947	99
Es	0.910633	0.069081	0.841820	99
Es	-0.856136	-1.501203	-0.337218	99
Es	-1.740175	-0.580603	0.647641	99
Es	0.173085	1.758234	0.843182	99
Es	-0.351789	1.095807	0.776698	99
Es	-2.025762	-1.232125	0.594559	99
Es	-0.688468	-2.593225	-1.012776	99
Es	-1.867062	-1.042441	0.453686	99
Es	-1.023304	-2.114022	-0.888222	99
Es	0.644392	-0.329678	0.205232	99
Es	0.147567	0.161540	-0.719491	99
Es	0.021037	0.946209	-0.804301	99
Es	-0.611818	1.075950	-1.168389	99
41
Properties=species:S:1:pos:R:3:Z:I:1 energy=-359.8204750043645 field_type=dipole dipole="0.000000 0.000000 0.000000" charge=0
O	-1.867584	-1.042552	0.453704	8
C	-0.856004	-1.501362	-0.337376	6
O	-0.938954	-2.600872	-0.878356	8
C	0.341726	-0.526862	-0.465406	6
C	0.021026	0.946238	-0.804476	6
N	-0.043824	1.197178	0.661564	7
C	0.910756	0.068978	0.841894	6
H	-1.645074	-0.150642	0.808704	1
H	1.116776	-0.956492	-1.113156	1
H	-0.915124	1.129958	-1.338816	1
H	0.832376	1.481218	-1.312626	1
H	0.323376	2.108018	0.948474	1
H	1.965385	0.364098	0.783934	1
H	0.755146	-0.516902	1.751944	1
Es	-0.264029	-0.997053	-0.387637	99
Es	0.859087	-0.825773	-0.904642	99
Es	0.394705	0.743789	0.799999	99
Es	-0.806890	-2.328534	-0.484580	99
Es	-0.688745	-2.591906	-1.008381	99
Es	0.577290	1.299974	-1.142136	99
Es	-1.867121	-1.042404	0.453701	99
Es	-1.890515	-0.996069	0.269795	99
Es	-1.179801	-2.799708	-0.859220	99
Es	-0.856135	-1.501204	-0.337215	99
Es	0.910638	0.069081	0.841819	99
Es	0.147610	0.161555	-0.719593	99
Es	-0.350980	1.096021	0.776272	99
Es	0.021032	0.946209	-0.804299	99
Es	-1.740373	-0.580608	0.647930	99
Es	-0.031307	1.162037	0.017513	99
Es	-0.939018	-2.600534	-0.878143	99
Es	1.625510	0.270751	0.792412	99
Es	0.809006	-0.322361	1.456725	99
Es	0.644487	-0.329827	0.205379	99
Es	-0.611799	1.075967	-1.168520	99
Es	-1.022123	-2.114169	-0.890513	99
Es	-1.455997	-1.229969	0.185785	99
Es	0.341651	-0.526834	-0.465350	99
Es	-0.043309	1.197244	0.661325	99
Es	-2.031129	-1.230348	0.590811	99
Es	0.172530	1.758215	0.843494	99
41
Properties=species:S:1:pos:R:3:Z:I:1 energy=-359.8204750043645 field_type=dipole dipole="0.000000 0.000000 0.000000" charge=0
O	-1.867584	-1.042552	0.453704	8
C	-0.856004	-1.501362	-0.337376	6
O	-0.938954	-2.600872	-0.878356	8
C	0.341726	-0.526862	-0.465406	6
C	0.021026	0.946238	-0.804476	6
N	-0.043824	1.197178	0.661564	7
C	0.910756	0.068978	0.841894	6
H	-1.645074	-0.150642	0.808704	1
H	1.116776	-0.956492	-1.113156	1
H	-0.915124	1.129958	-1.338816	1
H	0.832376	1.481218	-1.312626	1
H	0.323376	2.108018	0.948474	1
H	1.965385	0.364098	0.783934	1
H	0.755146	-0.516902	1.751944	1
Es	-0.030891	1.161882	0.017279	99
Es	0.859209	-0.826111	-0.904931	99
Es	-1.874834	-0.997400	0.277825	99
Es	-1.741624	-0.580789	0.648583	99
Es	-2.046350	-1.227643	0.580708	99
Es	-1.169182	-2.810668	-0.868969	99
Es	-0.806489	-2.329581	-0.482889	99
Es	-1.455260	-1.231126	0.187339	99
Es	0.394990	0.744113	0.800215	99
Es	0.577312	1.300093	-1.142023	99
Es	-0.694541	-2.578726	-1.002086	99
Es	-1.027133	-2.115342	-0.888837	99
Es	0.021037	0.946210	-0.804303	99
Es	0.147553	0.161615	-0.719604	99
Es	-0.043335	1.197243	0.661336	99
Es	0.910635	0.069082	0.841820	99
Es	-0.351145	1.095867	0.776095	99
Es	0.808984	-0.323124	1.457648	99
Es	-0.263707	-0.996724	-0.387585	99
Es	-1.867121	-1.042404	0.453706	99
Es	-0.856136	-1.501202	-0.337216	99
Es	0.644512	-0.329176	0.205130	99
Es	0.341650	-0.526836	-0.465350	99
Es	-0.939085	-2.600498	-0.878088	99
Es	1.625186	0.270752	0.791998	99
Es	-0.611945	1.075914	-1.168683	99
Es	0.171986	1.758120	0.843614	99
41
Properties=species:S:1:pos:R:3:Z:I:1 energy=-359.8204750043645 field_type=dipole dipole="0.000000 0.000000 0.000000" charge=0
O	-1.867584	-1.042552	0.453704	8
C	-0.856004	-1.501362	-0.337376	6
O	-0.938954	-2.600872	-0.878356	8
C	0.341726	-0.526862	-0.465406	6
C	0.021026	0.946238	-0.804476	6
N	-0.043824	1.197178	0.661564	7
C	0.910756	0.068978	0.841894	6
H	-1.645074	-0.150642	0.808704	1
H	1.116776	-0.956492	-1.113156	1
H	-0.915124	1.129958	-1.338816	1
H	0.832376	1.481218	-1.312626	1
H	0.323376	2.108018	0.948474	1
H	1.965385	0.364098	0.783934	1
H	0.755146	-0.516902	1.751944	1
Es	-1.723444	-1.120224	0.512662	99
Es	0.645342	-0.328375	0.202639	99
Es	-1.867178	-1.042376	0.453678	99
Es	1.626064	0.271713	0.790091	99
Es	0.808002	-0.325511	1.461740	99
Es	0.391491	0.741074	0.800362	99
Es	0.857020	-0.822079	-0.900659	99
Es	-2.148730	-1.171828	0.443966	99
Es	-0.265635	-1.000600	-0.390246	99
Es	-0.938810	-2.600490	-0.878230	99
Es	-0.043314	1.197240	0.661321	99
Es	-0.990395	-2.106087	-0.910383	99
Es	-1.499008	-1.176828	0.116402	99
Es	-0.856138	-1.501201	-0.337222	99
Es	-1.745790	-0.568778	0.621864	99
Es	0.145939	0.164377	-0.719654	99
Es	0.021038	0.946211	-0.804307	99
Es	0.581039	1.303860	-1.145082	99
Es	0.182691	1.757027	0.837180	99
Es	0.341650	-0.526834	-0.465351	99
Es	0.910634	0.069081	0.841821	99
Es	-0.610989	1.074989	-1.165730	99
Es	-0.772059	-2.329016	-0.502508	99
Es	-0.028850	1.158329	0.017993	99
Es	-0.787881	-2.798057	-1.061903	99
Es	-0.360784	1.100022	0.778523	99
Es	-1.147628	-2.602097	-0.766237	99
41
Properties=species:S:1:pos:R:3:Z:I:1 energy=-359.8204750043645 field_type=dipole dipole="0.000000 0.000000 0.000000" charge=0
O	-1.867584	-1.042552	0.453704	8
C	-0.856004	-1.501362	-0.337376	6
O	-0.938954	-2.600872	-0.878356	8
C	0.341726	-0.526862	-0.465406	6
C	0.021026	0.946238	-0.804476	6
N	-0.043824	1.197178	0.661564	7
C	0.910756	0.068978	0.841894	6
H	-1.645074	-0.150642	0.808704	1
H	1.116776	-0.956492	-1.113156	1
H	-0.915124	1.129958	-1.338816	1
H	0.832376	1.481218	-1.312626	1
H	0.323376	2.108018	0.948474	1
H	1.965385	0.364098	0.783934	1
H	0.755146	-0.516902	1.751944	1
Es	-1.454318	-1.220508	0.196108	99
Es	-0.797088	-2.800473	-1.065432	99
Es	0.645412	-0.328145	0.204864	99
Es	-1.866142	-1.042638	0.453500	99
Es	-0.991742	-2.110518	-0.909869	99
Es	-0.043374	1.197238	0.661354	99
Es	0.580981	1.302357	-1.143988	99
Es	-1.141751	-2.597169	-0.766879	99
Es	-0.031100	1.158346	0.017433	99
Es	0.856659	-0.821803	-0.901351	99
Es	-0.938696	-2.600410	-0.878249	99
Es	0.147269	0.162829	-0.719065	99
Es	-0.265197	-1.000956	-0.389362	99
Es	0.021034	0.946211	-0.804303	99
Es	-0.359932	1.098377	0.781753	99
Es	-0.613120	1.075501	-1.167630	99
Es	-1.732965	-0.581397	0.645370	99
Es	0.392900	0.742402	0.798348	99
Es	-2.087476	-1.234208	0.559528	99
Es	-0.768050	-2.326556	-0.499970	99
Es	-1.843688	-1.000941	0.293364	99
Es	-0.856136	-1.501205	-0.337221	99
Es	0.341650	-0.526834	-0.465351	99
Es	0.183102	1.756735	0.837168	99
Es	0.910631	0.069082	0.841822	99
Es	1.627648	0.272088	0.791272	99
Es	0.807761	-0.323865	1.459518	99
41
Properties=species:S:1:pos:R:3:Z:I:1 energy=-359.8204750043645 field_type=dipole dipole="0.000000 0.000000 0.000000" charge=0
O	-1.867584	-1.042552	0.453704	8
C	-0.856004	-1.501362	-0.337376	6
O	-0.938954	-2.600872	-0.878356	8
C	0.341726	-0.526862	-0.465406	6
C	0.021026	0.946238	-0.804476	6
N	-0.043824	1.197178	0.661564	7
C	0.910756	0.068978	0.841894	6
H	-1.645074	-0.150642	0.808704	1
H	1.116776	-0.956492	-1.113156	1
H	-0.915124	1.129958	-1.338816	1
H	0.832376	1.481218	-1.312626	1
H	0.323376	2.108018	0.948474	1
H	1.965385	0.364098	0.783934	1
H	0.755146	-0.516902	1.751944	1
Es	-1.742562	-0.580152	0.648156	99
Es	-1.456249	-1.231697	0.185611	99
Es	-1.861834	-1.000503	0.289035	99
Es	-1.165806	-2.813952	-0.872863	99
Es	-0.043359	1.197241	0.661347	99
Es	0.910634	0.069081	0.841822	99
Es	-0.032094	1.161800	0.016823	99
Es	0.809172	-0.323094	1.457722	99
Es	0.147443	0.161718	-0.719803	99
Es	-0.856134	-1.501205	-0.337215	99
Es	-2.057264	-1.224891	0.572322	99
Es	-1.027052	-2.116347	-0.890367	99
Es	-0.939307	-2.600487	-0.877942	99
Es	-0.348710	1.096670	0.775409	99
Es	-0.808582	-2.328391	-0.481911	99
Es	0.021036	0.946210	-0.804303	99
Es	-0.611740	1.076004	-1.168742	99
Es	0.859096	-0.826516	-0.905027	99
Es	0.394523	0.743703	0.800865	99
Es	-0.695708	-2.575631	-0.997832	99
Es	0.171324	1.758177	0.844172	99
Es	1.624619	0.270678	0.792022	99
Es	0.341651	-0.526834	-0.465351	99
Es	-0.263470	-0.996349	-0.387484	99
Es	0.577100	1.299894	-1.141846	99
Es	0.644756	-0.329461	0.205019	99
Es	-1.867210	-1.042127	0.453093	99
41
Properties=species:S:1:pos:R:3:Z:I:1 energy=-359.8204750043645 field_type=dipole dipole="0.000000 0.000000 0.000000" charge=0
O	-1.867584	-1.042552	0.453704	8
C	-0.856004	-1.501362	-0.337376	6
O	-0.938954	-2.600872	-0.878356	8
C	0.341726	-0.526862	-0.465406	6
C	0.021026	0.946238	-0.804476	6
N	-0.043824	1.197178	0.661564	7
C	0.910756	0.068978	0.841894	6
H	-1.645074	-0.150642	0.808704	1
H	1.116776	-0.956492	-1.113156	1
H	-0.915124	1.129958	-1.338816	1
H	0.832376	1.481218	-1.312626	1
H	0.323376	2.108018	0.948474	1
H	1.965385	0.364098	0.783934	1
H	0.755146	-0.516902	1.751944	1
Es	-0.810204	-2.809531	-1.063049	99
Es	-0.938428	-2.600071	-0.878213	99
Es	0.910634	0.069081	0.841822	99
Es	-0.043312	1.197250	0.661323	99
Es	0.807731	-0.324058	1.459713	99
Es	0.341651	-0.526834	-0.465350	99
Es	-0.265314	-1.000780	-0.389269	99
Es	-1.733302	-0.581085	0.644671	99
Es	-0.029496	1.158734	0.017747	99
Es	-0.362429	1.097554	0.782157	99
Es	0.393174	0.742977	0.797753	99
Es	-1.454153	-1.220502	0.195201	99
Es	-0.613187	1.075379	-1.167632	99
Es	-1.840345	-1.002353	0.296528	99
Es	-0.992163	-2.111771	-0.911114	99
Es	0.581128	1.302414	-1.144100	99
Es	1.627767	0.272175	0.791086	99
Es	-2.089711	-1.233395	0.557896	99
Es	0.021037	0.946210	-0.804304	99
Es	0.183517	1.756437	0.837044	99
Es	-1.867161	-1.042389	0.453705	99
Es	-0.856134	-1.501204	-0.337217	99
Es	0.645217	-0.327998	0.204760	99
Es	-0.766362	-2.325102	-0.500401	99
Es	0.147300	0.162980	-0.718763	99
Es	-1.130105	-2.588593	-0.767686	99
Es	0.856926	-0.821983	-0.901576	99
41
Properties=species:S:1:pos:R:3:Z:I:1 energy=-359.8204750043645 field_type=dipole dipole="0.000000 0.000000 0.000000" charge=0
O	-1.867584	-1.042552	0.453704	8
C	-0.856004	-1.501362	-0.337376	6
O	-0.938954	-2.600872	-0.878356	8
C	0.341726	-0.526862	-0.465406	6
C	0.021026	0.946238	-0.804476	6
N	-0.043824	1.197178	0.661564	7
C	0.910756	0.068978	0.841894	6
H	-1.645074	-0.150642	0.808704	1
H	1.116776	-0.956492	-1.113156	1
H	-0.915124	1.129958	-1.338816	1
H	0.832376	1.481218	-1.312626	1
H	0.323376	2.108018	0.948474	1
H	1.965385	0.364098	0.783934	1
H	0.755146	-0.516902	1.751944	1
Es	0.170994	1.758272	0.844557	99
Es	-0.856137	-1.501201	-0.337222	99
Es	-0.043324	1.197248	0.661329	99
Es	0.578052	1.302587	-1.144585	99
Es	-1.163411	-2.817013	-0.868808	99
Es	-0.350452	1.098119	0.771866	99
Es	-1.867242	-1.042273	0.453482	99
Es	0.645527	-0.329685	0.201653	99
Es	0.021036	0.946210	-0.804301	99
Es	0.392900	0.743278	0.802995	99
Es	-0.264252	-0.995668	-0.388663	99
Es	0.341652	-0.526834	-0.465352	99
Es	-0.939066	-2.600514	-0.878105	99
Es	0.859421	-0.826772	-0.904571	99
Es	-0.028979	1.161526	0.016929	99
Es	-0.810212	-2.328700	-0.485905	99
Es	-0.694927	-2.576546	-0.994250	99
Es	0.809797	-0.325361	1.461482	99
Es	-1.753567	-0.569184	0.627529	99
Es	-1.736922	-1.124968	0.523871	99
Es	0.144536	0.163511	-0.720234	99
Es	-1.492722	-1.197266	0.117857	99
Es	-1.028147	-2.112736	-0.892545	99
Es	-0.607884	1.074510	-1.165111	99
Es	1.621083	0.270157	0.790543	99
Es	-2.134114	-1.146241	0.426468	99
Es	0.910633	0.069082	0.841822	99
41
Properties=species:S:1:pos:R:3:Z:I:1 energy=-359.8204750043645 field_type=dipole dipole="0.000000 0.000000 0.000000" charge=0
O	-1.867584	-1.042552	0.453704	8
C	-0.856004	-1.501362	-0.337376	6
O	-0.938954	-2.600872	-0.878356	8
C	0.341726	-0.526862	-0.465406	6
C	0.021026	0.946238	-0.804476	6
N	-0.043824	1.197178	0.661564	7
C	0.910756	0.068978	0.841894	6
H	-1.645074	-0.150642	0.808704	1
H	1.116776	-0.956492	-1.113156	1
H	-0.915124	1.129958	-1.338816	1
H	0.832376	1.481218	-1.312626	1
H	0.323376	2.108018	0.948474	1
H	1.965385	0.364098	0.783934	1
H	0.755146	-0.516902	1.751944	1
Es	-0.856138	-1.501202	-0.337220	99
Es	-2.133983	-1.157248	0.442028	99
Es	0.341651	-0.526834	-0.465352	99
Es	0.645734	-0.329280	0.202033	99
Es	-1.490785	-1.199410	0.119837	99
Es	-0.029322	1.161369	0.016557	99
Es	-1.157034	-2.822033	-0.874799	99
Es	-0.043321	1.197248	0.661328	99
Es	-0.698893	-2.570398	-0.989723	99
Es	-0.609106	1.074870	-1.166097	99
Es	-0.938996	-2.600532	-0.878152	99
Es	-1.867264	-1.042367	0.453587	99
Es	-1.738749	-1.111143	0.504728	99
Es	0.809785	-0.325620	1.461851	99
Es	-1.030333	-2.112304	-0.892189	99