38
Properties=species:S:1:pos:R:3:Z:I:1 energy=-358.5354208176862 field_type=dipole dipole="0.000000 0.000000 0.000000" charge=0
O	-2.737221	-0.607149	-0.408728	8
N	-1.370601	-0.665179	-0.703448	7
C	-0.699791	-0.446189	0.386942	6
C	0.819509	-0.418909	0.392912	6
O	1.346969	-1.113659	-0.727138	8
C	1.301519	0.942261	0.392912	6
C	1.698809	2.064161	0.392912	6
H	-3.150361	-0.792419	-1.273608	1
H	-1.204031	-0.234179	1.346532	1
H	1.151099	-0.943539	1.294592	1
H	0.783059	-0.851809	-1.479558	1
H	2.061039	3.066611	0.385682	1
Es	1.053645	0.291327	0.399325	99
Es	1.301422	0.941999	0.392903	99
Es	-1.067262	-0.858547	-0.163449	99
Es	1.043646	-0.960023	-1.113826	99
Es	-2.737086	-0.607215	-0.409047	99
Es	-2.784722	-0.314332	-0.329949	99
Es	1.629672	-1.002816	-0.770049	99
Es	-1.370833	-0.665052	-0.702876	99
Es	1.933803	2.717106	0.388873	99
Es	1.388368	1.540521	0.052217	99
Es	1.698889	2.064401	0.392905	99
Es	1.126668	-0.822988	-0.302832	99
Es	-2.133276	-0.632656	-0.539827	99
Es	-1.072263	-0.285898	-0.284676	99
Es	-1.029492	-0.304582	1.029951	99
Es	1.829735	1.391534	0.469541	99
Es	1.346707	-1.113436	-0.727129	99
Es	-2.781993	-0.844365	-0.220408	99
Es	0.819526	-0.418890	0.392715	99
Es	1.036526	-0.752771	0.999870	99
Es	1.285472	-1.405698	-0.669366	99
Es	-1.260967	-0.736609	-1.062415	99
Es	0.052184	-0.421829	0.379573	99
Es	1.268755	1.576591	0.663696	99
Es	-2.951583	-0.705631	-0.873528	99
Es	-0.699727	-0.446161	0.386924	99
38
Properties=species:S:1:pos:R:3:Z:I:1 energy=-358.5354208176862 field_type=dipole dipole="0.000000 0.000000 0.000000" charge=0
O	-2.737221	-0.607149	-0.408728	8
N	-1.370601	-0.665179	-0.703448	7
C	-0.699791	-0.446189	0.386942	6
C	0.819509	-0.418909	0.392912	6
O	1.346969	-1.113659	-0.727138	8
C	1.301519	0.942261	0.392912	6
C	1.698809	2.064161	0.392912	6
H	-3.150361	-0.792419	-1.273608	1
H	-1.204031	-0.234179	1.346532	1
H	1.151099	-0.943539	1.294592	1
H	0.783059	-0.851809	-1.479558	1
H	2.061039	3.066611	0.385682	1
Es	1.036066	-0.753442	0.998922	99
Es	1.346694	-1.113442	-0.727137	99
Es	-2.134061	-0.630443	-0.540780	99
Es	-2.784693	-0.316835	-0.332849	99
Es	-1.070996	-0.280255	-0.287201	99
Es	1.301403	0.942008	0.392924	99
Es	-1.262170	-0.742053	-1.057730	99
Es	-1.028707	-0.303354	1.028044	99
Es	1.936617	2.716933	0.392399	99
Es	-2.778259	-0.838463	-0.217767	99
Es	1.131704	-0.818766	-0.306179	99
Es	-2.954667	-0.712882	-0.874884	99
Es	0.052409	-0.420367	0.380181	99
Es	-1.370817	-0.665057	-0.702871	99
Es	-0.699724	-0.446176	0.386929	99
Es	1.627519	-1.003236	-0.771962	99
Es	1.821090	1.394864	0.508819	99
Es	-2.737076	-0.607181	-0.409064	99
Es	1.040051	-0.961545	-1.114302	99
Es	1.285486	-1.407722	-0.662782	99
Es	1.698894	2.064405	0.392912	99
Es	1.051690	0.292691	0.397656	99
Es	1.405450	1.534287	0.042256	99
Es	1.260499	1.579456	0.632769	99
Es	-1.068114	-0.860556	-0.161902	99
Es	0.819524	-0.418889	0.392718	99
38
Properties=species:S:1:pos:R:3:Z:I:1 energy=-358.5354208176862 field_type=dipole dipole="0.000000 0.000000 0.000000" charge=0
O	-2.737221	-0.607149	-0.408728	8
N	-1.370601	-0.665179	-0.703448	7
C	-0.699791	-0.446189	0.386942	6
C	0.819509	-0.418909	0.392912	6
O	1.346969	-1.113659	-0.727138	8
C	1.301519	0.942261	0.392912	6
C	1.698809	2.064161	0.392912	6
H	-3.150361	-0.792419	-1.273608	1
H	-1.204031	-0.234179	1.346532	1
H	1.151099	-0.943539	1.294592	1
H	0.783059	-0.851809	-1.479558	1
H	2.061039	3.066611	0.385682	1
Es	0.819525	-0.418889	0.392717	99
Es	1.259006	1.580154	0.605527	99
Es	-2.134652	-0.626858	-0.541777	99
Es	-1.070405	-0.277320	-0.288774	99
Es	1.037273	-0.963656	-1.114699	99
Es	1.415822	1.530332	0.037139	99
Es	-2.956119	-0.716841	-0.875249	99
Es	1.698895	2.064409	0.392915	99
Es	0.052446	-0.419498	0.380690	99
Es	1.135505	-0.815676	-0.307809	99
Es	-2.775378	-0.836265	-0.216654	99
Es	-1.028261	-0.302706	1.026608	99
Es	1.938461	2.716570	0.394510	99
Es	-1.262660	-0.745236	-1.054624	99
Es	1.812021	1.398170	0.540250	99
Es	-1.068714	-0.861454	-0.160895	99
Es	-0.699721	-0.446173	0.386934	99
Es	1.625560	-1.004194	-0.773811	99
Es	-1.370844	-0.665056	-0.702900	99
Es	-2.785414	-0.319650	-0.334311	99
Es	1.301416	0.941996	0.392917	99
Es	1.285982	-1.407458	-0.658393	99
Es	-2.737140	-0.607185	-0.408951	99
Es	1.050646	0.293667	0.396812	99
Es	1.035751	-0.753671	0.998094	99
Es	1.346806	-1.113531	-0.727150	99
38
Properties=species:S:1:pos:R:3:Z:I:1 energy=-358.5354208176862 field_type=dipole dipole="0.000000 0.000000 0.000000" charge=0
O	-2.737221	-0.607149	-0.408728	8
N	-1.370601	-0.665179	-0.703448	7
C	-0.699791	-0.446189	0.386942	6
C	0.819509	-0.418909	0.392912	6
O	1.346969	-1.113659	-0.727138	8
C	1.301519	0.942261	0.392912	6
C	1.698809	2.064161	0.392912	6
H	-3.150361	-0.792419	-1.273608	1
H	-1.204031	-0.234179	1.346532	1
H	1.151099	-0.943539	1.294592	1
H	0.783059	-0.851809	-1.479558	1
H	2.061039	3.066611	0.385682	1
Es	-2.737075	-0.607203	-0.409072	99
Es	-2.786319	-0.321255	-0.334762	99
Es	-1.028097	-0.302202	1.025515	99
Es	-0.699722	-0.446170	0.386933	99
Es	0.052435	-0.419076	0.381124	99
Es	-2.135019	-0.624772	-0.542737	99
Es	1.698900	2.064409	0.392921	99
Es	1.624078	-1.001941	-0.775460	99
Es	-1.070098	-0.275887	-0.289840	99
Es	1.346704	-1.113456	-0.727138	99
Es	-2.773186	-0.834005	-0.216718	99
Es	1.288692	-1.408223	-0.655990	99
Es	1.939754	2.716164	0.395648	99
Es	-1.262518	-0.747599	-1.052420	99
Es	1.136457	-0.814702	-0.308800	99
Es	1.034997	-0.966037	-1.114004	99
Es	1.301412	0.941996	0.392915	99
Es	1.419172	1.529119	0.034582	99
Es	1.035611	-0.753688	0.997440	99
Es	0.819523	-0.418887	0.392719	99
Es	-1.069330	-0.861256	-0.160004	99
Es	1.803446	1.401158	0.563193	99
Es	-1.370845	-0.665063	-0.702900	99
Es	1.264066	1.578481	0.584847	99
Es	-2.957153	-0.720342	-0.875005	99
Es	1.049923	0.294417	0.396128	99
38
Properties=species:S:1:pos:R:3:Z:I:1 energy=-358.5354208176862 field_type=dipole dipole="0.000000 0.000000 0.000000" charge=0
O	-2.737221	-0.607149	-0.408728	8
N	-1.370601	-0.665179	-0.703448	7
C	-0.699791	-0.446189	0.386942	6
C	0.819509	-0.418909	0.392912	6
O	1.346969	-1.113659	-0.727138	8
C	1.301519	0.942261	0.392912	6
C	1.698809	2.064161	0.392912	6
H	-3.150361	-0.792419	-1.273608	1
H	-1.204031	-0.234179	1.346532	1
H	1.151099	-0.943539	1.294592	1
H	0.783059	-0.851809	-1.479558	1
H	2.061039	3.066611	0.385682	1
Es	1.940807	2.715711	0.396775	99
Es	1.346730	-1.113452	-0.727139	99
Es	1.034833	-0.965277	-1.114201	99
Es	0.819524	-0.418889	0.392718	99
Es	1.622950	-1.005938	-0.776475	99
Es	1.286246	-1.407672	-0.654695	99
Es	-1.069948	-0.274779	-0.290630	99
Es	-1.069640	-0.861071	-0.159485	99
Es	1.139978	-0.811965	-0.308660	99
Es	1.275442	1.573890	0.580775	99
Es	-2.135311	-0.622786	-0.543542	99
Es	-2.786819	-0.323417	-0.334877	99
Es	1.035168	-0.753828	0.996782	99
Es	1.049607	0.295062	0.395941	99
Es	-1.262406	-0.749200	-1.050504	99
Es	-1.027991	-0.301944	1.024705	99
Es	1.698899	2.064410	0.392917	99
Es	0.052489	-0.418522	0.381488	99
Es	-2.957885	-0.721855	-0.875083	99
Es	-1.370812	-0.665054	-0.702863	99
Es	-0.699723	-0.446171	0.386933	99
Es	1.802076	1.401460	0.565652	99
Es	-2.737083	-0.607280	-0.409035	99
Es	1.301408	0.941998	0.392916	99
Es	1.408962	1.533589	0.035675	99
Es	-2.771692	-0.833040	-0.216969	99
38
Properties=species:S:1:pos:R:3:Z:I:1 energy=-358.5354208176862 field_type=dipole dipole="0.000000 0.000000 0.000000" charge=0
O	-2.737221	-0.607149	-0.408728	8
N	-1.370601	-0.665179	-0.703448	7
C	-0.699791	-0.446189	0.386942	6
C	0.819509	-0.418909	0.392912	6
O	1.346969	-1.113659	-0.727138	8
C	1.301519	0.942261	0.392912	6
C	1.698809	2.064161	0.392912	6
H	-3.150361	-0.792419	-1.273608	1
H	-1.204031	-0.234179	1.346532	1
H	1.151099	-0.943539	1.294592	1
H	0.783059	-0.851809	-1.479558	1
H	2.061039	3.066611	0.385682	1
Es	-2.737117	-0.607235	-0.409018	99
Es	1.346732	-1.113491	-0.727159	99
Es	1.301411	0.941997	0.392920	99
Es	-2.958601	-0.725390	-0.874286	99
Es	-1.370792	-0.665054	-0.702867	99
Es	1.285246	-1.406951	-0.652058	99
Es	1.033858	-0.966775	-1.114030	99
Es	1.415256	1.530933	0.033999	99
Es	-2.787678	-0.325037	-0.335942	99
Es	-2.135139	-0.620656	-0.543587	99
Es	-1.069991	-0.860933	-0.159089	99
Es	-0.699723	-0.446168	0.386931	99
Es	1.792751	1.404739	0.585735	99
Es	1.049375	0.295446	0.395735	99
Es	-1.262472	-0.750442	-1.049183	99
Es	-1.069646	-0.274304	-0.291287	99
Es	-2.770332	-0.830411	-0.217179	99
Es	-1.027863	-0.301512	1.024140	99
Es	0.052400	-0.418325	0.381585	99
Es	1.278477	1.573244	0.562544	99
Es	1.698901	2.064411	0.392917	99
Es	1.941364	2.715534	0.397051	99
Es	1.622503	-1.007636	-0.777821	99
Es	1.142304	-0.809306	-0.309877	99
Es	0.819525	-0.418888	0.392717	99
Es	1.035062	-0.753808	0.996226	99
38
Properties=species:S:1:pos:R:3:Z:I:1 energy=-358.5354208176862 field_type=dipole dipole="0.000000 0.000000 0.000000" charge=0
O	-2.737221	-0.607149	-0.408728	8
N	-1.370601	-0.665179	-0.703448	7
C	-0.699791	-0.446189	0.386942	6
C	0.819509	-0.418909	0.392912	6
O	1.346969	-1.113659	-0.727138	8
C	1.301519	0.942261	0.392912	6
C	1.698809	2.064161	0.392912	6
H	-3.150361	-0.792419	-1.273608	1
H	-1.204031	-0.234179	1.346532	1
H	1.151099	-0.943539	1.294592	1
H	0.783059	-0.851809	-1.479558	1
H	2.061039	3.066611	0.385682	1
Es	1.413598	1.531652	0.033979	99
Es	-1.069482	-0.273802	-0.291812	99
Es	1.941815	2.715346	0.397527	99
Es	1.698904	2.064409	0.392917	99
Es	0.819523	-0.418887	0.392718	99
Es	-1.070334	-0.860797	-0.158625	99
Es	1.032611	-0.968747	-1.113567	99
Es	1.286811	-1.406662	-0.651031	99
Es	-1.370806	-0.665052	-0.702858	99
Es	-2.737100	-0.607217	-0.409045	99
Es	0.052255	-0.418016	0.381818	99
Es	1.049344	0.295719	0.395653	99
Es	-2.135146	-0.619067	-0.543821	99
Es	1.346733	-1.113468	-0.727134	99
Es	-0.699721	-0.446156	0.386928	99
Es	-1.027747	-0.301282	1.023612	99
Es	1.621975	-1.006457	-0.778908	99
Es	-2.787984	-0.326183	-0.337388	99
Es	1.284805	1.570953	0.553948	99
Es	-1.262417	-0.751570	-1.048224	99
Es	1.788034	1.406329	0.594237	99
Es	1.034880	-0.753750	0.995717	99
Es	1.301415	0.941996	0.392916	99
Es	1.142417	-0.808797	-0.310168	99
Es	-2.769705	-0.828750	-0.216560	99
Es	-2.958866	-0.727764	-0.873711	99
38
Properties=species:S:1:pos:R:3:Z:I:1 energy=-358.5354208176862 field_type=dipole dipole="0.000000 0.000000 0.000000" charge=0
O	-2.737221	-0.607149	-0.408728	8
N	-1.370601	-0.665179	-0.703448	7
C	-0.699791	-0.446189	0.386942	6
C	0.819509	-0.418909	0.392912	6
O	1.346969	-1.113659	-0.727138	8
C	1.301519	0.942261	0.392912	6
C	1.698809	2.064161	0.392912	6
H	-3.150361	-0.792419	-1.273608	1
H	-1.204031	-0.234179	1.346532	1
H	1.151099	-0.943539	1.294592	1
H	0.783059	-0.851809	-1.479558	1
H	2.061039	3.066611	0.385682	1
Es	1.289537	1.569191	0.549553	99
Es	1.032648	-0.967853	-1.113025	99
Es	1.301411	0.941997	0.392897	99
Es	0.819524	-0.418888	0.392719	99
Es	1.785437	1.407176	0.598222	99
Es	0.052216	-0.417872	0.381989	99
Es	1.698906	2.064409	0.392917	99
Es	-1.069368	-0.273607	-0.292109	99
Es	-2.767491	-0.830063	-0.219545	99
Es	-2.737165	-0.607200	-0.408949	99
Es	1.411234	1.532703	0.034236	99
Es	1.049188	0.296062	0.395620	99
Es	1.346689	-1.113442	-0.727137	99
Es	-1.262213	-0.752489	-1.047545	99
Es	-2.789630	-0.328564	-0.334388	99
Es	-1.370821	-0.665056	-0.702861	99
Es	-1.070630	-0.860398	-0.158338	99
Es	1.621405	-1.008965	-0.779871	99
Es	-2.135255	-0.615973	-0.544156	99
Es	1.284747	-1.406887	-0.650231	99
Es	-1.027773	-0.301160	1.023138	99
Es	1.034702	-0.753734	0.995348	99
Es	-2.959241	-0.727394	-0.873918	99
Es	1.145085	-0.806875	-0.310337	99
Es	1.942392	2.715034	0.397961	99
Es	-0.699724	-0.446172	0.386930	99
38
Properties=species:S:1:pos:R:3:Z:I:1 energy=-358.5354208176862 field_type=dipole dipole="0.000000 0.000000 0.000000" charge=0
O	-2.737221	-0.607149	-0.408728	8
N	-1.370601	-0.665179	-0.703448	7
C	-0.699791	-0.446189	0.386942	6
C	0.819509	-0.418909	0.392912	6
O	1.346969	-1.113659	-0.727138	8
C	1.301519	0.942261	0.392912	6
C	1.698809	2.064161	0.392912	6
H	-3.150361	-0.792419	-1.273608	1
H	-1.204031	-0.234179	1.346532	1
H	1.151099	-0.943539	1.294592	1
H	0.783059	-0.851809	-1.479558	1
H	2.061039	3.066611	0.385682	1
Es	1.034699	-0.753717	0.995025	99
Es	0.052219	-0.417753	0.382187	99
Es	1.294876	1.567210	0.544389	99
Es	-2.766998	-0.828418	-0.219182	99
Es	1.286927	-1.406357	-0.649534	99
Es	1.620510	-1.007475	-0.780486	99
Es	-2.789928	-0.328946	-0.335587	99
Es	1.301403	0.941996	0.392909	99
Es	1.049040	0.296308	0.395570	99
Es	1.942716	2.714911	0.398147	99
Es	-1.069302	-0.273486	-0.292297	99
Es	1.144656	-0.806708	-0.310347	99
Es	-2.135393	-0.615201	-0.544362	99
Es	1.698896	2.064409	0.392917	99
Es	1.782747	1.408096	0.602674	99
Es	1.408580	1.533788	0.034865	99
Es	-2.737127	-0.607220	-0.408994	99
Es	-2.959342	-0.729767	-0.873262	99
Es	-1.027752	-0.300888	1.022885	99
Es	1.346771	-1.113502	-0.727150	99
Es	1.031507	-0.969932	-1.113019	99
Es	-1.262081	-0.753001	-1.046789	99
Es	0.819525	-0.418888	0.392716	99
Es	-0.699723	-0.446180	0.386936	99
Es	-1.070768	-0.860235	-0.158198	99
Es	-1.370846	-0.665066	-0.702895	99
38
Properties=species:S:1:pos:R:3:Z:I:1 energy=-358.5354208176862 field_type=dipole dipole="0.000000 0.000000 0.000000" charge=0
O	-2.737221	-0.607149	-0.408728	8
N	-1.370601	-0.665179	-0.703448	7
C	-0.699791	-0.446189	0.386942	6
C	0.819509	-0.418909	0.392912	6
O	1.346969	-1.113659	-0.727138	8
C	1.301519	0.942261	0.392912	6
C	1.698809	2.064161	0.392912	6
H	-3.150361	-0.792419	-1.273608	1
H	-1.204031	-0.234179	1.346532	1
H	1.151099	-0.943539	1.294592	1
H	0.783059	-0.851809	-1.479558	1
H	2.061039	3.066611	0.385682	1
Es	-2.766297	-0.828667	-0.219484	99
Es	1.301403	0.941995	0.392909	99
Es	-0.699723	-0.446155	0.386929	99
Es	0.819524	-0.418887	0.392718	99
Es	1.034518	-0.753570	0.994707	99
Es	1.298985	1.565714	0.539976	99
Es	-1.262028	-0.753780	-1.046162	99
Es	1.780013	1.408993	0.606688	99
Es	1.145358	-0.806734	-0.310266	99
Es	1.031393	-0.969152	-1.112249	99
Es	1.698911	2.064407	0.392916	99
Es	-1.027768	-0.300795	1.022496	99
Es	1.943117	2.714659	0.398593	99
Es	-1.069213	-0.273351	-0.292599	99
Es	-1.370794	-0.665052	-0.702862	99
Es	-2.737165	-0.607193	-0.408920	99
Es	0.052134	-0.417526	0.382366	99
Es	1.620323	-1.007445	-0.781053	99
Es	-2.959764	-0.729653	-0.873245	99
Es	1.407107	1.534459	0.035080	99
Es	-2.789830	-0.329433	-0.335110	99
Es	1.346741	-1.113493	-0.727122	99
Es	1.286630	-1.407184	-0.649780	99
Es	1.048954	0.296493	0.395536	99
Es	-2.135716	-0.614834	-0.544978	99
Es	-1.071003	-0.859834	-0.157967	99
38
Properties=species:S:1:pos:R:3:Z:I:1 energy=-358.5354208176862 field_type=dipole dipole="0.000000 0.000000 0.000000" charge=0
O	-2.737221	-0.607149	-0.408728	8
N	-1.370601	-0.665179	-0.703448	7
C	-0.699791	-0.446189	0.386942	6
C	0.819509	-0.418909	0.392912	6
O	1.346969	-1.113659	-0.727138	8
C	1.301519	0.942261	0.392912	6
C	1.698809	2.064161	0.392912	6
H	-3.150361	-0.792419	-1.273608	1
H	-1.204031	-0.234179	1.346532	1
H	1.151099	-0.943539	1.294592	1
H	0.783059	-0.851809	-1.479558	1
H	2.061039	3.066611	0.385682	1
Es	-2.135713	-0.613940	-0.545216	99
Es	-1.262034	-0.753983	-1.045759	99
Es	1.943210	2.714650	0.398621	99
Es	-2.959892	-0.731674	-0.872476	99
Es	1.285864	-1.405583	-0.648002	99
Es	-2.765962	-0.827307	-0.218856	99
Es	1.302301	1.564527	0.536041	99
Es	1.145920	-0.805699	-0.311249	99
Es	1.034302	-0.753538	0.994410	99
Es	1.620958	-1.008709	-0.780875	99
Es	1.406467	1.534677	0.035266	99
Es	-2.737109	-0.607231	-0.409029	99
Es	0.052106	-0.417403	0.382490	99
Es	1.698904	2.064409	0.392918	99
Es	0.819526	-0.418889	0.392715	99
Es	-1.069170	-0.273261	-0.292698	99
Es	-1.370798	-0.665051	-0.702861	99
Es	-0.699722	-0.446169	0.386932	99
Es	-1.071076	-0.859898	-0.157857	99
Es	-1.027764	-0.300630	1.022124	99
Es	1.301406	0.941993	0.392912	99
Es	-2.790057	-0.329852	-0.336364	99
Es	1.777242	1.410004	0.610653	99
Es	1.031006	-0.970552	-1.113050	99
Es	1.346700	-1.113459	-0.727149	99
Es	1.049199	0.296547	0.395477	99
38
Properties=species:S:1:pos:R:3:Z:I:1 energy=-358.5354208176862 field_type=dipole dipole="0.000000 0.000000 0.000000" charge=0
O	-2.737221	-0.607149	-0.408728	8
N	-1.370601	-0.665179	-0.703448	7
C	-0.699791	-0.446189	0.386942	6
C	0.819509	-0.418909	0.392912	6
O	1.346969	-1.113659	-0.727138	8
C	1.301519	0.942261	0.392912	6
C	1.698809	2.064161	0.392912	6
H	-3.150361	-0.792419	-1.273608	1
H	-1.204031	-0.234179	1.346532	1
H	1.151099	-0.943539	1.294592	1
H	0.783059	-0.851809	-1.479558	1
H	2.061039	3.066611	0.385682	1
Es	1.146324	-0.805602	-0.310610	99
Es	-1.370819	-0.665054	-0.702859	99
Es	1.030305	-0.971088	-1.112279	99
Es	1.034262	-0.753453	0.994218	99
Es	-1.071193	-0.859846	-0.157730	99
Es	-1.068978	-0.272889	-0.293169	99
Es	-1.027686	-0.300586	1.021797	99
Es	1.303927	1.564125	0.531422	99
Es	1.049101	0.296699	0.395453	99
Es	1.773998	1.411058	0.615627	99
Es	1.943394	2.714544	0.398744	99
Es	-2.765684	-0.826795	-0.219173	99
Es	1.619886	-1.007689	-0.781851	99
Es	-1.262074	-0.754522	-1.044902	99
Es	-2.737098	-0.607200	-0.409033	99
Es	1.301403	0.941997	0.392914	99
Es	-2.790230	-0.330950	-0.336477	99
Es	1.408090	1.534010	0.034890	99
Es	-0.699724	-0.446155	0.386927	99
Es	0.819524	-0.418888	0.392717	99
Es	1.287249	-1.406095	-0.648303	99
Es	-2.960101	-0.732221	-0.872325	99
Es	1.698906	2.064409	0.392919	99
Es	-2.135710	-0.612947	-0.545255	99
Es	0.052020	-0.417397	0.382587	99
Es	1.346718	-1.113485	-0.727132	99
38
Properties=species:S:1:pos:R:3:Z:I:1 energy=-358.5354208176862 field_type=dipole dipole="0.000000 0.000000 0.000000" charge=0
O	-2.737221	-0.607149	-0.408728	8
N	-1.370601	-0.665179	-0.703448	7
C	-0.699791	-0.446189	0.386942	6
C	0.819509	-0.418909	0.392912	6
O	1.346969	-1.113659	-0.727138	8
C	1.301519	0.942261	0.392912	6
C	1.698809	2.064161	0.392912	6
H	-3.150361	-0.792419	-1.273608	1
H	-1.204031	-0.234179	1.346532	1
H	1.151099	-0.943539	1.294592	1
H	0.783059	-0.851809	-1.479558	1
H	2.061039	3.066611	0.385682	1
Es	-1.027687	-0.300435	1.021589	99
Es	1.285735	-1.405675	-0.647891	99
Es	-1.370790	-0.665050	-0.702856	99
Es	-1.068912	-0.272960	-0.293244	99
Es	-2.737157	-0.607198	-0.408947	99
Es	1.943610	2.714471	0.398805	99
Es	1.030440	-0.970946	-1.112043	99
Es	-1.071446	-0.859487	-0.157564	99
Es	1.405682	1.534971	0.035649	99
Es	-0.699723	-0.446166	0.386930	99
Es	1.773166	1.411346	0.616615	99
Es	1.301401	0.941995	0.392917	99
Es	1.049039	0.296822	0.395445	99
Es	-2.764878	-0.828055	-0.220709	99
Es	-2.791135	-0.332738	-0.335008	99
Es	-2.959907	-0.731412	-0.872689	99
Es	0.819526	-0.418888	0.392716	99
Es	-2.135731	-0.610807	-0.545052	99
Es	-1.261949	-0.755019	-1.044688	99
Es	1.034188	-0.753471	0.994022	99
Es	1.346704	-1.113417	-0.727135	99
Es	1.619440	-1.009970	-0.782555	99
Es	0.052020	-0.417331	0.382645	99
Es	1.148145	-0.803876	-0.310523	99
Es	1.307129	1.562869	0.529772	99
Es	1.698901	2.064409	0.392917	99
38
Properties=species:S:1:pos:R:3:Z:I:1 energy=-358.5354208176862 field_type=dipole dipole="0.000000 0.000000 0.000000" charge=0
O	-2.737221	-0.607149	-0.408728	8
N	-1.370601	-0.665179	-0.703448	7
C	-0.699791	-0.446189	0.386942	6
C	0.819509	-0.418909	0.392912	6
O	1.346969	-1.113659	-0.727138	8
C	1.301519	0.942261	0.392912	6
C	1.698809	2.064161	0.392912	6
H	-3.150361	-0.792419	-1.273608	1
H	-1.204031	-0.234179	1.346532	1
H	1.151099	-0.943539	1.294592	1
H	0.783059	-0.851809	-1.479558	1
H	2.061039	3.066611	0.385682	1
Es	1.944039	2.714223	0.399039	99
Es	1.049061	0.296946	0.395675	99
Es	-2.135517	-0.612140	-0.545341	99
Es	0.051970	-0.417232	0.382739	99
Es	1.030900	-0.970321	-1.112347	99
Es	-1.370801	-0.665053	-0.702860	99
Es	1.149359	-0.803003	-0.310466	99
Es	-1.071509	-0.859293	-0.157501	99
Es	-2.960519	-0.732225	-0.872210	99
Es	-1.027680	-0.300303	1.021602	99
Es	1.698907	2.064409	0.392915	99
Es	1.402084	1.536479	0.036283	99
Es	-2.737120	-0.607214	-0.409003	99
Es	1.618552	-1.011493	-0.782447	99
Es	-1.068777	-0.272722	-0.293670	99
Es	1.311083	1.561262	0.528795	99
Es	-1.262032	-0.755577	-1.044121	99
Es	1.301414	0.941993	0.392915	99
Es	0.819524	-0.418887	0.392718	99
Es	1.772570	1.411589	0.616712	99
Es	-2.765665	-0.826448	-0.219008	99
Es	-0.699723	-0.446160	0.386928	99
Es	-2.789953	-0.332353	-0.336899	99
Es	1.284819	-1.405659	-0.647819	99
Es	1.034067	-0.753343	0.993651	99
Es	1.346754	-1.113496	-0.727163	99
