42
Properties=species:S:1:pos:R:3:Z:I:1 energy=-628.2439598927963 field_type=dipole dipole="0.000000 0.000000 0.000000" charge=0
C	-0.065269	-0.993970	1.106488	6
C	-0.443409	-1.376100	-0.355482	6
C	-0.134529	0.019730	-0.697912	6
C	-0.048819	1.013140	-1.606922	6
S	0.524071	2.441010	-0.773692	16
C	0.614761	1.624140	0.770918	6
C	0.214281	0.350530	0.580598	6
H	0.802691	-1.473730	1.571748	1
H	-0.853009	-1.006910	1.868378	1
H	-1.476409	-1.665300	-0.576692	1
H	0.185591	-2.101950	-0.882952	1
H	-0.263589	1.028560	-2.665632	1
H	0.943641	2.140850	1.661158	1
Es	0.524193	2.441008	-0.773702	99
Es	0.587802	2.389237	-0.692430	99
Es	0.050766	0.235642	-0.074718	99
Es	-0.007296	-1.860671	-0.701178	99
Es	0.709346	0.897261	0.589196	99
Es	-0.048763	1.013338	-1.606913	99
Es	0.580991	2.040924	0.038880	99
Es	-0.065271	-0.993936	1.106428	99
Es	0.408528	2.430559	-0.743036	99
Es	0.214285	0.350476	0.580686	99
Es	-0.315892	-0.687821	-0.642717	99
Es	0.961379	2.474363	-0.905925	99
Es	-0.606780	-1.000281	1.607903	99
Es	-0.274576	-1.279355	0.405383	99
Es	0.835601	1.980174	1.357330	99
Es	0.555621	2.554542	-0.780323	99
Es	0.223650	1.715907	-1.229220	99
Es	-1.144678	-1.563315	-0.491240	99
Es	-0.386322	0.607098	-1.067039	99
Es	0.216153	0.442048	-1.191701	99
Es	0.525686	-1.320822	1.405283	99
Es	-0.134564	0.019643	-0.697956	99
Es	0.543560	2.386911	-0.878094	99
Es	-0.188326	1.036617	-2.313451	99
Es	0.108777	1.068909	0.713643	99
Es	0.614784	1.624308	0.770795	99
Es	0.109361	-0.274635	0.947869	99
Es	-0.443387	-1.376043	-0.355449	99
Es	0.152332	2.706946	-0.736769	99
42
Properties=species:S:1:pos:R:3:Z:I:1 energy=-628.2439598927963 field_type=dipole dipole="0.000000 0.000000 0.000000" charge=0
C	-0.065269	-0.993970	1.106488	6
C	-0.443409	-1.376100	-0.355482	6
C	-0.134529	0.019730	-0.697912	6
C	-0.048819	1.013140	-1.606922	6
S	0.524071	2.441010	-0.773692	16
C	0.614761	1.624140	0.770918	6
C	0.214281	0.350530	0.580598	6
H	0.802691	-1.473730	1.571748	1
H	-0.853009	-1.006910	1.868378	1
H	-1.476409	-1.665300	-0.576692	1
H	0.185591	-2.101950	-0.882952	1
H	-0.263589	1.028560	-2.665632	1
H	0.943641	2.140850	1.661158	1
Es	0.220718	1.716461	-1.238870	99
Es	0.581681	2.046685	0.047593	99
Es	0.705756	0.898588	0.590598	99
Es	0.614783	1.624310	0.770792	99
Es	0.616300	2.913452	-0.920764	99
Es	-0.275245	-1.282599	0.406386	99
Es	0.212598	0.443310	-1.190993	99
Es	0.522586	-1.320889	1.405381	99
Es	-0.188587	1.035669	-2.313765	99
Es	-0.010411	-1.860428	-0.699701	99
Es	0.110441	-0.272277	0.950169	99
Es	-1.142035	-1.564316	-0.490900	99
Es	0.503073	2.261158	-0.721378	99
Es	-0.316167	-0.686880	-0.646143	99
Es	0.450850	2.457329	-0.855852	99
Es	0.508763	2.322882	-0.722388	99
Es	0.505744	2.523907	-0.697272	99
Es	-0.065274	-0.993936	1.106427	99
Es	-0.443389	-1.376042	-0.355451	99
Es	-0.048759	1.013343	-1.606914	99
Es	0.112203	1.068103	0.712325	99
Es	0.835744	1.979445	1.358040	99
Es	0.524196	2.440901	-0.773213	99
Es	-0.604133	-1.001796	1.606876	99
Es	0.627357	2.458411	-0.818631	99
Es	0.214288	0.350468	0.580686	99
Es	-0.134561	0.019640	-0.697957	99
Es	0.051025	0.238021	-0.075293	99
Es	-0.382584	0.606112	-1.068257	99
42
Properties=species:S:1:pos:R:3:Z:I:1 energy=-628.2439598927963 field_type=dipole dipole="0.000000 0.000000 0.000000" charge=0
C	-0.065269	-0.993970	1.106488	6
C	-0.443409	-1.376100	-0.355482	6
C	-0.134529	0.019730	-0.697912	6
C	-0.048819	1.013140	-1.606922	6
S	0.524071	2.441010	-0.773692	16
C	0.614761	1.624140	0.770918	6
C	0.214281	0.350530	0.580598	6
H	0.802691	-1.473730	1.571748	1
H	-0.853009	-1.006910	1.868378	1
H	-1.476409	-1.665300	-0.576692	1
H	0.185591	-2.101950	-0.882952	1
H	-0.263589	1.028560	-2.665632	1
H	0.943641	2.140850	1.661158	1
Es	0.214285	0.350470	0.580688	99
Es	0.524011	2.440993	-0.773660	99
Es	0.479228	2.441924	-0.890738	99
Es	0.223517	1.716120	-1.238454	99
Es	0.111195	-0.270899	0.951559	99
Es	0.564547	2.429089	-0.784277	99
Es	-0.275796	-1.285073	0.407233	99
Es	0.211200	0.444657	-1.188131	99
Es	-0.134566	0.019637	-0.697956	99
Es	0.051405	0.239217	-0.075792	99
Es	0.491601	2.266500	-0.719425	99
Es	-1.140027	-1.565323	-0.491016	99
Es	0.835325	1.979126	1.358573	99
Es	-0.602260	-1.002449	1.605796	99
Es	-0.188793	1.035081	-2.313917	99
Es	-0.316408	-0.686393	-0.648092	99
Es	0.703229	0.898451	0.591458	99
Es	0.625280	2.911683	-0.922441	99
Es	0.554675	2.553319	-0.721413	99
Es	0.583164	2.045956	0.046141	99
Es	-0.443389	-1.376043	-0.355451	99
Es	0.520632	-1.320743	1.405651	99
Es	-0.012107	-1.859434	-0.698726	99
Es	0.493144	2.337967	-0.697387	99
Es	-0.065271	-0.993936	1.106428	99
Es	-0.380619	0.604432	-1.068983	99
Es	-0.048761	1.013342	-1.606914	99
Es	0.113743	1.067051	0.709985	99
Es	0.614779	1.624311	0.770792	99
42
Properties=species:S:1:pos:R:3:Z:I:1 energy=-628.2439598927963 field_type=dipole dipole="0.000000 0.000000 0.000000" charge=0
C	-0.065269	-0.993970	1.106488	6
C	-0.443409	-1.376100	-0.355482	6
C	-0.134529	0.019730	-0.697912	6
C	-0.048819	1.013140	-1.606922	6
S	0.524071	2.441010	-0.773692	16
C	0.614761	1.624140	0.770918	6
C	0.214281	0.350530	0.580598	6
H	0.802691	-1.473730	1.571748	1
H	-0.853009	-1.006910	1.868378	1
H	-1.476409	-1.665300	-0.576692	1
H	0.185591	-2.101950	-0.882952	1
H	-0.263589	1.028560	-2.665632	1
H	0.943641	2.140850	1.661158	1
Es	-0.188902	1.034540	-2.314058	99
Es	0.491937	2.429737	-0.892258	99
Es	-0.048761	1.013346	-1.606914	99
Es	-1.138314	-1.565563	-0.491031	99
Es	0.524154	2.440976	-0.773767	99
Es	-0.443388	-1.376044	-0.355453	99
Es	-0.600591	-1.002586	1.604547	99
Es	-0.276182	-1.287240	0.407956	99
Es	-0.065273	-0.993936	1.106429	99
Es	0.111595	-0.270030	0.952782	99
Es	-0.013795	-1.858723	-0.698132	99
Es	0.214306	0.350466	0.580694	99
Es	0.501843	2.338143	-0.693482	99
Es	0.561828	2.558027	-0.731797	99
Es	-0.378197	0.604843	-1.066980	99
Es	-0.316644	-0.686281	-0.649672	99
Es	0.583947	2.045649	0.045313	99
Es	0.518963	-1.320611	1.406172	99
Es	0.051676	0.240509	-0.076149	99
Es	0.835334	1.978722	1.359001	99
Es	0.488456	2.267600	-0.719154	99
Es	0.614791	1.624310	0.770788	99
Es	0.700986	0.898559	0.590111	99
Es	0.625470	2.911846	-0.922687	99
Es	0.223607	1.716397	-1.237779	99
Es	0.538344	2.436673	-0.776533	99
Es	-0.134573	0.019637	-0.697956	99
Es	0.208699	0.444102	-1.188747	99
Es	0.115646	1.065965	0.710286	99
42
Properties=species:S:1:pos:R:3:Z:I:1 energy=-628.2439598927963 field_type=dipole dipole="0.000000 0.000000 0.000000" charge=0
C	-0.065269	-0.993970	1.106488	6
C	-0.443409	-1.376100	-0.355482	6
C	-0.134529	0.019730	-0.697912	6
C	-0.048819	1.013140	-1.606922	6
S	0.524071	2.441010	-0.773692	16
C	0.614761	1.624140	0.770918	6
C	0.214281	0.350530	0.580598	6
H	0.802691	-1.473730	1.571748	1
H	-0.853009	-1.006910	1.868378	1
H	-1.476409	-1.665300	-0.576692	1
H	0.185591	-2.101950	-0.882952	1
H	-0.263589	1.028560	-2.665632	1
H	0.943641	2.140850	1.661158	1
Es	0.517811	2.442624	-0.773304	99
Es	0.224385	1.716431	-1.237370	99
Es	0.214293	0.350470	0.580689	99
Es	-0.134570	0.019637	-0.697956	99
Es	0.699445	0.898701	0.591542	99
Es	0.111723	-0.269206	0.953938	99
Es	-1.136965	-1.566558	-0.491418	99
Es	0.583677	2.045575	0.044778	99
Es	-0.598899	-1.003193	1.604057	99
Es	0.555772	2.506076	-0.670399	99
Es	-0.065275	-0.993936	1.106429	99
Es	0.614794	1.624311	0.770785	99
Es	0.835395	1.978389	1.359324	99
Es	0.527050	2.440211	-0.774141	99
Es	-0.377089	0.603382	-1.068230	99
Es	0.052219	0.241356	-0.076541	99
Es	0.482852	2.270360	-0.719071	99
Es	0.625701	2.911866	-0.923377	99
Es	-0.048758	1.013345	-1.606913	99
Es	0.116504	1.065362	0.708191	99
Es	-0.189076	1.034100	-2.314126	99
Es	0.497973	2.310515	-0.765489	99
Es	0.207924	0.445292	-1.186283	99
Es	-0.276732	-1.289122	0.408511	99
Es	0.524449	2.502526	-0.884299	99
Es	-0.443390	-1.376043	-0.355449	99
Es	0.517548	-1.319977	1.405790	99
Es	-0.316808	-0.686168	-0.651102	99
Es	-0.014994	-1.857295	-0.697033	99
42
Properties=species:S:1:pos:R:3:Z:I:1 energy=-628.2439598927963 field_type=dipole dipole="0.000000 0.000000 0.000000" charge=0
C	-0.065269	-0.993970	1.106488	6
C	-0.443409	-1.376100	-0.355482	6
C	-0.134529	0.019730	-0.697912	6
C	-0.048819	1.013140	-1.606922	6
S	0.524071	2.441010	-0.773692	16
C	0.614761	1.624140	0.770918	6
C	0.214281	0.350530	0.580598	6
H	0.802691	-1.473730	1.571748	1
H	-0.853009	-1.006910	1.868378	1
H	-1.476409	-1.665300	-0.576692	1
H	0.185591	-2.101950	-0.882952	1
H	-0.263589	1.028560	-2.665632	1
H	0.943641	2.140850	1.661158	1
Es	-0.443387	-1.376044	-0.355450	99
Es	0.520879	2.441842	-0.773056	99
Es	0.614781	1.624311	0.770792	99
Es	0.488333	2.268842	-0.719724	99
Es	-0.277051	-1.290875	0.409021	99
Es	0.483233	2.319356	-0.802693	99
Es	0.112126	-0.268732	0.954794	99
Es	0.118097	1.064881	0.709753	99
Es	-0.048755	1.013339	-1.606915	99
Es	0.835365	1.978162	1.359577	99
Es	0.583314	2.045578	0.044389	99
Es	0.624705	2.912345	-0.923172	99
Es	0.052224	0.242255	-0.076813	99
Es	0.214283	0.350472	0.580698	99
Es	0.554311	2.463539	-0.656825	99
Es	-0.065268	-0.993938	1.106427	99
Es	0.697746	0.898754	0.589442	99
Es	0.224302	1.716595	-1.236942	99
Es	-0.597644	-1.002612	1.602115	99
Es	-0.189020	1.033736	-2.314241	99
Es	0.527309	2.440051	-0.774448	99
Es	0.205730	0.443991	-1.188477	99
Es	-0.016113	-1.856010	-0.696219	99
Es	-0.374990	0.604416	-1.065291	99
Es	0.533644	2.538733	-0.860460	99
Es	-1.135803	-1.567183	-0.491795	99
Es	-0.316945	-0.686142	-0.652073	99
Es	-0.134569	0.019635	-0.697951	99
Es	0.516125	-1.320265	1.407066	99
42
Properties=species:S:1:pos:R:3:Z:I:1 energy=-628.2439598927963 field_type=dipole dipole="0.000000 0.000000 0.000000" charge=0
C	-0.065269	-0.993970	1.106488	6
C	-0.443409	-1.376100	-0.355482	6
C	-0.134529	0.019730	-0.697912	6
C	-0.048819	1.013140	-1.606922	6
S	0.524071	2.441010	-0.773692	16
C	0.614761	1.624140	0.770918	6
C	0.214281	0.350530	0.580598	6
H	0.802691	-1.473730	1.571748	1
H	-0.853009	-1.006910	1.868378	1
H	-1.476409	-1.665300	-0.576692	1
H	0.185591	-2.101950	-0.882952	1
H	-0.263589	1.028560	-2.665632	1
H	0.943641	2.140850	1.661158	1
Es	-0.443388	-1.376046	-0.355447	99
Es	0.486147	2.392461	-0.879440	99
Es	0.214285	0.350470	0.580696	99
Es	-0.016489	-1.852669	-0.694464	99
Es	-0.596248	-1.001471	1.599257	99
Es	0.525725	2.440457	-0.774033	99
Es	0.835126	1.978028	1.359886	99
Es	0.112445	-0.268451	0.955381	99
Es	-0.373117	0.605180	-1.063283	99
Es	0.524069	2.441027	-0.773606	99
Es	0.514668	-1.321045	1.409312	99
Es	0.614779	1.624312	0.770790	99
Es	-0.134569	0.019635	-0.697959	99
Es	0.487957	2.269574	-0.719444	99
Es	0.561022	2.566474	-0.774050	99
Es	0.624951	2.912586	-0.922708	99
Es	-1.135121	-1.570010	-0.493231	99
Es	0.582629	2.045643	0.044206	99
Es	-0.277361	-1.292391	0.409506	99
Es	0.119427	1.064284	0.710983	99
Es	-0.048758	1.013346	-1.606912	99
Es	-0.065272	-0.993937	1.106428	99
Es	-0.317172	-0.686176	-0.652999	99
Es	0.225444	1.716441	-1.236866	99
Es	0.522284	2.362966	-0.666888	99
Es	0.203717	0.443386	-1.189724	99
Es	0.696206	0.898738	0.587440	99
Es	-0.188937	1.033343	-2.314371	99
Es	0.052512	0.242876	-0.076929	99
42
Properties=species:S:1:pos:R:3:Z:I:1 energy=-628.2439598927963 field_type=dipole dipole="0.000000 0.000000 0.000000" charge=0
C	-0.065269	-0.993970	1.106488	6
C	-0.443409	-1.376100	-0.355482	6
C	-0.134529	0.019730	-0.697912	6
C	-0.048819	1.013140	-1.606922	6
S	0.524071	2.441010	-0.773692	16
C	0.614761	1.624140	0.770918	6
C	0.214281	0.350530	0.580598	6
H	0.802691	-1.473730	1.571748	1
H	-0.853009	-1.006910	1.868378	1
H	-1.476409	-1.665300	-0.576692	1
H	0.185591	-2.101950	-0.882952	1
H	-0.263589	1.028560	-2.665632	1
H	0.943641	2.140850	1.661158	1
Es	-0.443394	-1.376044	-0.355450	99
Es	0.224903	1.716684	-1.236585	99
Es	0.522726	2.441097	-0.774136	99
Es	0.690951	0.899526	0.577263	99
Es	-0.017123	-1.848056	-0.692011	99
Es	-0.048760	1.013347	-1.606913	99
Es	0.537058	2.437835	-0.774184	99
Es	0.214295	0.350468	0.580694	99
Es	-0.065273	-0.993937	1.106428	99
Es	0.125036	1.063011	0.720811	99
Es	-0.593552	-0.998739	1.592865	99
Es	0.112501	-0.268234	0.955776	99
Es	0.614780	1.624312	0.770790	99
Es	0.540462	2.537436	-0.860235	99
Es	-0.189225	1.033328	-2.314233	99
Es	0.625154	2.912440	-0.923434	99
Es	0.051963	0.243375	-0.076995	99
Es	-1.134881	-1.574218	-0.495325	99
Es	0.488212	2.269897	-0.719954	99
Es	-0.134568	0.019633	-0.697960	99
Es	-0.370261	0.607096	-1.059094	99
Es	0.835457	1.977785	1.359816	99
Es	0.201035	0.441304	-1.193418	99
Es	0.529899	2.470039	-0.656000	99
Es	0.582893	2.045582	0.044001	99
Es	0.488910	2.317133	-0.802678	99
Es	-0.277484	-1.293066	0.409720	99
Es	-0.317101	-0.686228	-0.653319	99
Es	0.512350	-1.323774	1.415289	99
42
Properties=species:S:1:pos:R:3:Z:I:1 energy=-628.2439598927963 field_type=dipole dipole="0.000000 0.000000 0.000000" charge=0
C	-0.065269	-0.993970	1.106488	6
C	-0.443409	-1.376100	-0.355482	6
C	-0.134529	0.019730	-0.697912	6
C	-0.048819	1.013140	-1.606922	6
S	0.524071	2.441010	-0.773692	16
C	0.614761	1.624140	0.770918	6
C	0.214281	0.350530	0.580598	6
H	0.802691	-1.473730	1.571748	1
H	-0.853009	-1.006910	1.868378	1
H	-1.476409	-1.665300	-0.576692	1
H	0.185591	-2.101950	-0.882952	1
H	-0.263589	1.028560	-2.665632	1
H	0.943641	2.140850	1.661158	1
Es	0.623748	2.913011	-0.922926	99
Es	0.112358	-0.268181	0.955766	99
Es	-0.317116	-0.686203	-0.653300	99
Es	-1.134489	-1.576215	-0.496286	99
Es	-0.048780	1.013347	-1.606909	99
Es	-0.017395	-1.846037	-0.690970	99
Es	0.214285	0.350470	0.580695	99
Es	0.488620	2.270071	-0.719756	99
Es	0.520168	2.442158	-0.772876	99
Es	-0.134566	0.019634	-0.697960	99
Es	-0.369748	0.607449	-1.058405	99
Es	0.224371	1.716869	-1.236379	99
Es	0.679391	0.901888	0.565755	99
Es	0.582976	2.045458	0.043720	99
Es	-0.443385	-1.376046	-0.355452	99
Es	0.052006	0.243523	-0.077091	99
Es	0.490095	2.312309	-0.757277	99
Es	0.835530	1.977757	1.359718	99
Es	-0.189495	1.033359	-2.314095	99
Es	0.525258	2.440708	-0.773841	99
Es	0.562048	2.502485	-0.677948	99
Es	0.614783	1.624311	0.770789	99
Es	-0.065270	-0.993938	1.106427	99
Es	-0.277768	-1.293310	0.409813	99
Es	-0.593198	-0.999061	1.593053	99
Es	0.200502	0.440704	-1.193624	99
Es	0.136964	1.060420	0.731903	99
Es	0.512630	-1.323612	1.414798	99
Es	0.522438	2.505705	-0.885812	99
42
Properties=species:S:1:pos:R:3:Z:I:1 energy=-628.2439598927963 field_type=dipole dipole="0.000000 0.000000 0.000000" charge=0
C	-0.065269	-0.993970	1.106488	6
C	-0.443409	-1.376100	-0.355482	6
C	-0.134529	0.019730	-0.697912	6
C	-0.048819	1.013140	-1.606922	6
S	0.524071	2.441010	-0.773692	16
C	0.614761	1.624140	0.770918	6
C	0.214281	0.350530	0.580598	6
H	0.802691	-1.473730	1.571748	1
H	-0.853009	-1.006910	1.868378	1
H	-1.476409	-1.665300	-0.576692	1
H	0.185591	-2.101950	-0.882952	1
H	-0.263589	1.028560	-2.665632	1
H	0.943641	2.140850	1.661158	1
Es	-0.277560	-1.293474	0.409837	99
Es	0.224539	1.716906	-1.236393	99
Es	0.496187	2.405283	-0.882733	99
Es	-0.590807	-0.997137	1.588181	99
Es	-0.317199	-0.686248	-0.653460	99
Es	-0.189298	1.033291	-2.314030	99
Es	0.139188	1.059840	0.733193	99
Es	0.490735	2.269839	-0.720211	99
Es	-0.065274	-0.993940	1.106427	99
Es	0.527624	2.439972	-0.774095	99
Es	0.614784	1.624312	0.770788	99
Es	-1.133853	-1.578408	-0.497418	99
Es	-0.443386	-1.376046	-0.355448	99
Es	0.582075	2.045850	0.043859	99
Es	0.623754	2.913200	-0.922493	99
Es	0.214287	0.350469	0.580696	99
Es	0.676870	0.902247	0.564251	99
Es	0.509618	-1.325424	1.419665	99
Es	-0.018059	-1.843714	-0.689681	99
Es	0.524044	2.440992	-0.773674	99
Es	0.509666	2.350430	-0.677265	99
Es	0.199577	0.440255	-1.194846	99
Es	0.051886	0.243688	-0.077117	99
Es	-0.368629	0.607812	-1.056933	99
Es	-0.048761	1.013346	-1.606911	99
Es	0.835427	1.977617	1.359710	99
Es	-0.134558	0.019631	-0.697962	99
Es	0.561416	2.566700	-0.760269	99
Es	0.112666	-0.268256	0.955861	99
42
Properties=species:S:1:pos:R:3:Z:I:1 energy=-628.2439598927963 field_type=dipole dipole="0.000000 0.000000 0.000000" charge=0
C	-0.065269	-0.993970	1.106488	6
C	-0.443409	-1.376100	-0.355482	6
C	-0.134529	0.019730	-0.697912	6
C	-0.048819	1.013140	-1.606922	6
S	0.524071	2.441010	-0.773692	16
C	0.614761	1.624140	0.770918	6
C	0.214281	0.350530	0.580598	6
H	0.802691	-1.473730	1.571748	1
H	-0.853009	-1.006910	1.868378	1
H	-1.476409	-1.665300	-0.576692	1
H	0.185591	-2.101950	-0.882952	1
H	-0.263589	1.028560	-2.665632	1
H	0.943641	2.140850	1.661158	1
Es	0.205584	0.444896	-1.185362	99
Es	0.623585	2.913346	-0.922501	99
Es	-0.443388	-1.376043	-0.355450	99
Es	0.224562	1.716985	-1.236317	99
Es	0.614788	1.624310	0.770786	99
Es	-0.277818	-1.293357	0.409861	99
Es	-0.048759	1.013347	-1.606912	99
Es	0.524124	2.440970	-0.773695	99
Es	0.516768	2.346285	-0.680748	99
Es	-0.591196	-0.997464	1.588776	99
Es	-0.317045	-0.686210	-0.653180	99
Es	0.510172	-1.325295	1.419024	99
Es	0.051400	0.243696	-0.077137	99
Es	0.112642	-0.268284	0.955675	99
Es	0.835409	1.977704	1.359515	99
Es	-1.134133	-1.577015	-0.496798	99
Es	-0.189230	1.033300	-2.313918	99
Es	0.658857	0.906249	0.554762	99
Es	-0.017512	-1.845252	-0.690438	99
Es	0.157274	1.055368	0.742380	99
Es	0.493117	2.410260	-0.886247	99
Es	-0.374170	0.603156	-1.066148	99
Es	0.581816	2.045774	0.043742	99
Es	0.489952	2.270385	-0.719831	99
Es	0.562538	2.564555	-0.753981	99
Es	-0.065282	-0.993936	1.106432	99
Es	0.523184	2.441194	-0.773496	99
Es	0.214286	0.350470	0.580696	99
Es	-0.134563	0.019638	-0.697959	99
42
Properties=species:S:1:pos:R:3:Z:I:1 energy=-628.2439598927963 field_type=dipole dipole="0.000000 0.000000 0.000000" charge=0
C	-0.065269	-0.993970	1.106488	6
C	-0.443409	-1.376100	-0.355482	6
C	-0.134529	0.019730	-0.697912	6
C	-0.048819	1.013140	-1.606922	6
S	0.524071	2.441010	-0.773692	16
C	0.614761	1.624140	0.770918	6
C	0.214281	0.350530	0.580598	6
H	0.802691	-1.473730	1.571748	1
H	-0.853009	-1.006910	1.868378	1
H	-1.476409	-1.665300	-0.576692	1
H	0.185591	-2.101950	-0.882952	1
H	-0.263589	1.028560	-2.665632	1
H	0.943641	2.140850	1.661158	1
Es	0.522797	2.441228	-0.773516	99
Es	0.520402	2.441989	-0.772505	99
Es	-0.277569	-1.293429	0.409853	99
Es	0.225252	1.716838	-1.236199	99
Es	0.118109	1.063468	0.707334	99
Es	0.696545	0.898182	0.589844	99
Es	-0.323163	0.614821	-1.033966	99
Es	-0.317228	-0.686136	-0.652997	99
Es	-0.134567	0.019634	-0.697959	99
Es	0.112386	-0.268197	0.955706	99
Es	0.511888	-1.323932	1.415346	99
Es	-1.133295	-1.581333	-0.498874	99
Es	0.583226	2.045574	0.043609	99
Es	0.486286	2.271314	-0.720348	99
Es	0.626970	2.912342	-0.923682	99
Es	-0.443378	-1.376050	-0.355452	99
Es	0.153062	0.433688	-1.216884	99
Es	0.614781	1.624311	0.770789	99
Es	-0.018902	-1.840869	-0.688042	99
Es	0.835227	1.977598	1.359511	99
Es	0.484176	2.343563	-0.847397	99
Es	-0.048761	1.013347	-1.606909	99
Es	-0.189315	1.033522	-2.313737	99
Es	0.053879	0.243186	-0.077249	99
Es	0.214284	0.350470	0.580698	99
Es	0.546254	2.412976	-0.655123	99
Es	0.546036	2.563610	-0.819226	99
Es	-0.065271	-0.993939	1.106428	99
Es	-0.593151	-0.998744	1.592478	99
42
Properties=species:S:1:pos:R:3:Z:I:1 energy=-628.2439598927963 field_type=dipole dipole="0.000000 0.000000 0.000000" charge=0
C	-0.065269	-0.993970	1.106488	6
C	-0.443409	-1.376100	-0.355482	6
C	-0.134529	0.019730	-0.697912	6
C	-0.048819	1.013140	-1.606922	6
S	0.524071	2.441010	-0.773692	16
C	0.614761	1.624140	0.770918	6
C	0.214281	0.350530	0.580598	6
H	0.802691	-1.473730	1.571748	1
H	-0.853009	-1.006910	1.868378	1
H	-1.476409	-1.665300	-0.576692	1
H	0.185591	-2.101950	-0.882952	1
H	-0.263589	1.028560	-2.665632	1
H	0.943641	2.140850	1.661158	1
Es	-0.189135	1.033385	-2.313812	99
Es	0.489911	2.271020	-0.719723	99
Es	0.614778	1.624314	0.770788	99
Es	0.510621	-1.325228	1.418442	99
Es	0.637357	0.911319	0.547310	99
Es	-0.591564	-0.997683	1.589351	99
Es	0.835346	1.977621	1.359295	99
Es	0.524494	2.440828	-0.773771	99
Es	0.623151	2.913470	-0.922820	99
Es	-0.443384	-1.376046	-0.355451	99
Es	0.214285	0.350470	0.580696	99
Es	0.224292	1.717055	-1.236247	99
Es	-0.048760	1.013349	-1.606912	99
Es	-1.134534	-1.572966	-0.494395	99
Es	-0.375423	0.597355	-1.075644	99
Es	0.582052	2.045793	0.043557	99
Es	-0.017124	-1.849446	-0.692612	99
Es	0.542921	2.420284	-0.653615	99
Es	0.050245	0.244186	-0.076897	99
Es	-0.065273	-0.993937	1.106428	99
Es	-0.316950	-0.686151	-0.653055	99
Es	0.207470	0.450477	-1.175360	99
Es	-0.277726	-1.293248	0.409833	99
Es	0.523049	2.441296	-0.773590	99
Es	0.112504	-0.268429	0.955351	99
Es	0.550398	2.560377	-0.825532	99
Es	-0.134572	0.019634	-0.697961	99
Es	0.479237	2.340453	-0.841322	99
Es	0.179292	1.049480	0.749201	99
42
Properties=species:S:1:pos:R:3:Z:I:1 energy=-628.2439598927963 field_type=dipole dipole="0.000000 0.000000 0.000000" charge=0
C	-0.065269	-0.993970	1.106488	6
C	-0.443409	-1.376100	-0.355482	6
C	-0.134529	0.019730	-0.697912	6
C	-0.048819	1.013140	-1.606922	6
S	0.524071	2.441010	-0.773692	16
C	0.614761	1.624140	0.770918	6
C	0.214281	0.350530	0.580598	6
H	0.802691	-1.473730	1.571748	1
H	-0.853009	-1.006910	1.868378	1
H	-1.476409	-1.665300	-0.576692	1
H	0.185591	-2.101950	-0.882952	1
H	-0.263589	1.028560	-2.665632	1
H	0.943641	2.140850	1.661158	1
Es	-0.189397	1.033472	-2.313604	99
Es	0.486463	2.378303	-0.872327	99
Es	-1.131976	-1.584691	-0.500646	99
Es	-0.020174	-1.837516	-0.686243	99
Es	0.582681	2.045774	0.043653	99
Es	0.835347	1.977528	1.359383	99
Es	-0.048757	1.013346	-1.606912	99
Es	-0.328364	0.614678	-1.035075	99
Es	0.112435	-0.268231	0.955608	99
Es	-0.277505	-1.293456	0.409861	99
Es	0.487236	2.271397	-0.720305	99
Es	0.508211	-1.326309	1.421672	99
Es	0.523590	2.440976	-0.773951	99
Es	0.690116	0.898904	0.575223	99
Es	0.614771	1.624314	0.770788	99
Es	-0.443387	-1.376043	-0.355449	99
Es	-0.065272	-0.993937	1.106427	99
Es	0.125009	1.062429	0.721398	99
Es	0.564395	2.566064	-0.786621	99
Es	0.158544	0.433646	-1.215401	99
Es	0.225178	1.716936	-1.236251	99
Es	0.053209	0.243351	-0.077147	99
Es	-0.317247	-0.686118	-0.652956	99
Es	0.530054	2.374169	-0.663480	99
Es	0.515608	2.443691	-0.771698	99
Es	-0.134559	0.019631	-0.697964	99
Es	0.214285	0.350470	0.580697	99
Es	-0.589469	-0.996529	1.586037	99
Es	0.625937	2.912779	-0.923185	99
42
Properties=species:S:1:pos:R:3:Z:I:1 energy=-628.2439598927963 field_type=dipole dipole="0.000000 0.000000 0.000000" charge=0
C	-0.065269	-0.993970	1.106488	6
C	-0.443409	-1.376100	-0.355482	6
C	-0.134529	0.019730	-0.697912	6
C	-0.048819	1.013140	-1.606922	6
S	0.524071	2.441010	-0.773692	16
C	0.614761	1.624140	0.770918	6
C	0.214281	0.350530	0.580598	6
H	0.802691	-1.473730	1.571748	1
H	-0.853009	-1.006910	1.868378	1
H	-1.476409	-1.665300	-0.576692	1
H	0.185591	-2.101950	-0.882952	1
H	-0.263589	1.028560	-2.665632	1
H	0.943641	2.140850	1.661158	1
Es	0.187911	1.047239	0.751131	99
Es	-0.065271	-0.993938	1.106427	99
Es	-0.189242	1.033417	-2.313641	99
Es	-0.590057	-0.996849	1.586922	99
Es	0.214287	0.350471	0.580702	99
Es	0.628539	0.913677	0.545193	99
Es	0.623918	2.913373	-0.922730	99
Es	-0.316998	-0.686130	-0.652992	99
Es	-0.374773	0.602655	-1.066366	99
Es	0.112555	-0.268395	0.955245	99
Es	-0.277818	-1.293233	0.409901	99
Es	0.224050	1.717242	-1.236188	99
Es	-1.134367	-1.576142	-0.496084	99
Es	0.567644	2.553446	-0.728599	99
Es	0.509063	-1.326146	1.420804	99
Es	0.509897	2.329820	-0.700341	99
Es	0.206622	0.445060	-1.184128	99
Es	-0.134566	0.019633	-0.697961	99
Es	0.494981	2.437836	-0.891899	99
Es	0.835440	1.977597	1.359145	99
Es	0.582875	2.045520	0.043337	99
Es	0.488802	2.271496	-0.719529	99
Es	-0.048761	1.013346	-1.606911	99
Es	0.524804	2.440760	-0.773866	99
Es	0.614782	1.624312	0.770788	99
Es	-0.017412	-1.846264	-0.690855	99
Es	0.050543	0.243936	-0.077098	99
Es	-0.443383	-1.376048	-0.355449	99
Es	0.522897	2.441341	-0.773427	99
42
Properties=species:S:1:pos:R:3:Z:I:1 energy=-628.2439598927963 field_type=dipole dipole="0.000000 0.000000 0.000000" charge=0
C	-0.065269	-0.993970	1.106488	6
C	-0.443409	-1.376100	-0.355482	6
C	-0.134529	0.019730	-0.697912	6
C	-0.048819	1.013140	-1.606922	6
S	0.524071	2.441010	-0.773692	16
C	0.614761	1.624140	0.770918	6
C	0.214281	0.350530	0.580598	6
H	0.802691	-1.473730	1.571748	1
H	-0.853009	-1.006910	1.868378	1
H	-1.476409	-1.665300	-0.576692	1
H	0.185591	-2.101950	-0.882952	1
H	-0.263589	1.028560	-2.665632	1
H	0.943641	2.140850	1.661158	1
Es	-0.134568	0.019634	-0.697963	99
Es	0.517219	2.443247	-0.771910	99
Es	-0.592320	-0.998154	1.590680	99
Es	0.567239	2.565745	-0.778357	99
Es	0.510908	-1.324564	1.417064	99
Es	-0.317303	-0.686014	-0.652769	99
Es	-0.189292	1.033530	-2.313542	99
Es	0.214285	0.350471	0.580696	99
Es	0.835184	1.977570	1.359371	99
Es	0.526499	2.440126	-0.774300	99
Es	-0.443387	-1.376043	-0.355449	99
Es	-0.019155	-1.840090	-0.687618	99
Es	0.117385	1.063591	0.705806	99
Es	0.484607	2.396675	-0.873818	99
Es	0.614783	1.624311	0.770788	99
Es	-1.133026	-1.582162	-0.499235	99
Es	0.112324	-0.268252	0.955535	99
Es	-0.048762	1.013348	-1.606911	99
Es	0.523883	2.357593	-0.669600	99
Es	0.128926	0.434493	-1.221066	99
Es	0.485866	2.271904	-0.720409	99
Es	0.696842	0.898071	0.590770	99
Es	-0.299258	0.613550	-1.029129	99
Es	0.054557	0.243145	-0.077255	99
Es	0.582867	2.045693	0.043556	99
Es	0.225552	1.716863	-1.236143	99
Es	0.627783	2.912296	-0.923481	99
Es	-0.277402	-1.293606	0.409793	99
Es	-0.065273	-0.993939	1.106427	99
42
Properties=species:S:1:pos:R:3:Z:I:1 energy=-628.2439598927963 field_type=dipole dipole="0.000000 0.000000 0.000000" charge=0
C	-0.065269	-0.993970	1.106488	6
C	-0.443409	-1.376100	-0.355482	6
C	-0.134529	0.019730	-0.697912	6
C	-0.048819	1.013140	-1.606922	6
S	0.524071	2.441010	-0.773692	16
C	0.614761	1.624140	0.770918	6
C	0.214281	0.350530	0.580598	6
H	0.802691	-1.473730	1.571748	1
H	-0.853009	-1.006910	1.868378	1
H	-1.476409	-1.665300	-0.576692	1
H	0.185591	-2.101950	-0.882952	1
H	-0.263589	1.028560	-2.665632	1
H	0.943641	2.140850	1.661158	1
Es	-0.443388	-1.376044	-0.355449	99
Es	0.214286	0.350471	0.580694	99
Es	-0.065271	-0.993938	1.106427	99
Es	0.614774	1.624313	0.770790	99
Es	-0.048759	1.013347	-1.606911	99
Es	0.170563	1.051651	0.746838	99
Es	-0.277941	-1.293678	0.409992	99
Es	0.195375	0.437826	-1.198797	99
Es	-0.317125	-0.686107	-0.653020	99
Es	0.506015	-1.327322	1.424788	99
Es	0.645286	0.909554	0.549158	99
Es	-1.132380	-1.583259	-0.499808	99
Es	0.508453	2.480414	-0.892494	99
Es	-0.586661	-0.995571	1.582742	99
Es	-0.189371	1.033377	-2.313556	99
Es	-0.134567	0.019633	-0.697963	99
Es	0.112556	-0.268396	0.955323	99
Es	0.524068	2.440941	-0.773705	99
Es	0.490531	2.271423	-0.720290	99
Es	0.835567	1.977388	1.359140	99
Es	0.051436	0.243788	-0.077096	99
Es	-0.364327	0.609917	-1.051163	99
Es	0.495183	2.315595	-0.731886	99
Es	-0.019579	-1.838949	-0.687053	99
Es	0.582894	2.045686	0.043301	99
Es	0.521760	2.441646	-0.773128	99
Es	0.624356	2.913219	-0.923074	99
Es	0.224836	1.717053	-1.236222	99
Es	0.568392	2.525053	-0.696045	99
42
Properties=species:S:1:pos:R:3:Z:I:1 energy=-628.2439598927963 field_type=dipole dipole="0.000000 0.000000 0.000000" charge=0
C	-0.065269	-0.993970	1.106488	6
C	-0.443409	-1.376100	-0.355482	6
C	-0.134529	0.019730	-0.697912	6
C	-0.048819	1.013140	-1.606922	6
S	0.524071	2.441010	-0.773692	16
C	0.614761	1.624140	0.770918	6
C	0.214281	0.350530	0.580598	6
H	0.802691	-1.473730	1.571748	1
H	-0.853009	-1.006910	1.868378	1
H	-1.476409	-1.665300	-0.576692	1
H	0.185591	-2.101950	-0.882952	1
H	-0.263589	1.028560	-2.665632	1
H	0.943641	2.140850	1.661158	1
Es	-0.277890	-1.293308	0.409939	99
Es	0.224600	1.717175	-1.236244	99
Es	0.522697	2.539013	-0.860797	99
Es	-0.590467	-0.997212	1.587761	99
Es	0.214284	0.350470	0.580696	99
Es	-0.065274	-0.993936	1.106428	99
Es	-0.189282	1.033411	-2.313517	99
Es	0.112420	-0.268413	0.955145	99
Es	0.623183	2.913495	-0.923078	99
Es	-0.017467	-1.846458	-0.690944	99
Es	-0.048756	1.013345	-1.606913	99
Es	0.533332	2.438200	-0.776827	99
Es	-1.134423	-1.575894	-0.495946	99
Es	-0.443389	-1.376047	-0.355455	99
Es	0.204817	1.042808	0.754143	99
Es	0.614778	1.624313	0.770788	99
Es	0.487378	2.272448	-0.719330	99
Es	-0.316812	-0.686178	-0.652907	99
Es	0.206736	0.445210	-1.183601	99
Es	0.476841	2.317440	-0.789967	99
Es	0.611506	0.917900	0.542040	99
Es	-0.134566	0.019633	-0.697961	99
Es	0.050662	0.243960	-0.077256	99
Es	0.835416	1.977529	1.358988	99
Es	0.525079	2.440403	-0.773796	99
Es	0.509745	-1.325884	1.419863	99
Es	0.582712	2.045618	0.043271	99
Es	0.564138	2.467521	-0.666428	99
Es	-0.375037	0.602470	-1.066566	99
42
Properties=species:S:1:pos:R:3:Z:I:1 energy=-628.2439598927963 field_type=dipole dipole="0.000000 0.000000 0.000000" charge=0
C	-0.065269	-0.993970	1.106488	6
C	-0.443409	-1.376100	-0.355482	6
C	-0.134529	0.019730	-0.697912	6
C	-0.048819	1.013140	-1.606922	6
S	0.524071	2.441010	-0.773692	16
C	0.614761	1.624140	0.770918	6
C	0.214281	0.350530	0.580598	6
H	0.802691	-1.473730	1.571748	1
H	-0.853009	-1.006910	1.868378	1
H	-1.476409	-1.665300	-0.576692	1
H	0.185591	-2.101950	-0.882952	1
H	-0.263589	1.028560	-2.665632	1
H	0.943641	2.140850	1.661158	1
Es	0.214276	0.350474	0.580698	99
Es	0.520747	2.441787	-0.773197	99
Es	-0.048759	1.013347	-1.606911	99
Es	0.523990	2.441010	-0.773659	99
Es	-0.443385	-1.376044	-0.355449	99
Es	0.642701	0.909860	0.548407	99
Es	0.224637	1.717152	-1.236204	99
Es	0.507836	2.444750	-0.894314	99
Es	0.624728	2.913244	-0.922882	99
Es	0.506491	2.325017	-0.708354	99
Es	0.112590	-0.268470	0.955254	99
Es	0.582522	2.045745	0.043338	99
Es	0.051275	0.243833	-0.077138	99
Es	0.614781	1.624312	0.770788	99
Es	-0.317150	-0.686080	-0.652871	99
Es	-1.132195	-1.584069	-0.500113	99
Es	-0.365356	0.609662	-1.051843	99
Es	-0.065283	-0.993937	1.106432	99
Es	-0.584919	-0.994907	1.580243	99
Es	-0.277538	-1.293476	0.409782	99
Es	-0.134563	0.019633	-0.697961	99
Es	-0.019848	-1.838251	-0.686611	99
Es	0.488329	2.271846	-0.719832	99
Es	0.561216	2.550610	-0.718657	99
Es	-0.189236	1.033358	-2.313549	99
Es	0.196566	0.438296	-1.197911	99
Es	0.503739	-1.328043	1.427431	99
Es	0.173214	1.050971	0.747622	99
Es	0.835554	1.977403	1.358992	99
42
Properties=species:S:1:pos:R:3:Z:I:1 energy=-628.2439598927963 field_type=dipole dipole="0.000000 0.000000 0.000000" charge=0
C	-0.065269	-0.993970	1.106488	6
C	-0.443409	-1.376100	-0.355482	6
C	-0.134529	0.019730	-0.697912	6
C	-0.048819	1.013140	-1.606922	6
S	0.524071	2.441010	-0.773692	16
C	0.614761	1.624140	0.770918	6
C	0.214281	0.350530	0.580598	6
H	0.802691	-1.473730	1.571748	1
H	-0.853009	-1.006910	1.868378	1
H	-1.476409	-1.665300	-0.576692	1
H	0.185591	-2.101950	-0.882952	1
H	-0.263589	1.028560	-2.665632	1
H	0.943641	2.140850	1.661158	1
Es	-0.189618	1.033622	-2.313331	99