43
Properties=species:S:1:pos:R:3:Z:I:1 energy=-665.308372085807 field_type=dipole dipole="0.000000 0.000000 0.000000" charge=0
C	-1.797719	-0.183191	-0.003544	6
C	-0.307930	-0.109491	-0.000164	6
C	0.431290	1.056799	-0.001324	6
O	-0.021950	2.305559	-0.005074	8
S	2.111681	0.765249	0.002946	16
C	1.883111	-0.925961	0.005986	6
C	0.548560	-1.261521	0.003876	6
H	-2.255899	0.810359	0.007756	1
H	-2.151780	-0.728231	0.877876	1
H	-2.148600	-0.707371	-0.898174	1
H	0.779530	2.856799	-0.004524	1
H	2.734060	-1.593691	0.009126	1
H	0.195640	-2.285311	0.005236	1
Es	0.178551	1.824203	-0.002126	99
Es	-1.045593	-0.140248	-0.001666	99
Es	-1.797655	-0.183194	-0.003543	99
Es	0.431424	1.057102	-0.001325	99
Es	1.243244	0.952234	0.001453	99
Es	2.026082	-0.104994	0.004669	99
Es	-2.028471	-0.554268	0.592286	99
Es	2.080700	0.815066	0.108485	99
Es	-2.026267	-0.539957	-0.608372	99
Es	2.214466	0.807389	-0.035223	99
Es	2.110729	0.763579	0.003424	99
Es	0.304050	-1.948652	0.004851	99
Es	1.236048	-1.065742	0.319933	99
Es	2.459323	-1.358908	0.008046	99
Es	-0.307948	-0.109498	-0.000151	99
Es	0.548534	-1.261530	0.003867	99
Es	0.082584	0.393781	0.318182	99
Es	-0.151309	2.322541	0.252164	99
Es	2.123910	0.654303	0.016815	99
Es	2.233109	0.881907	-0.425790	99
Es	0.084248	0.391134	-0.319394	99
Es	2.235113	0.886025	0.430957	99
Es	1.237373	-1.066967	-0.310297	99
Es	-2.101375	0.487258	0.004014	99
Es	0.089002	-0.710711	0.002127	99
Es	-0.021647	2.305430	-0.005082	99
Es	0.411320	2.586982	-0.005100	99
Es	1.883218	-0.925771	0.005990	99
Es	2.026508	0.783909	-0.078843	99
Es	-0.153117	2.321143	-0.263988	99
43
Properties=species:S:1:pos:R:3:Z:I:1 energy=-665.308372085807 field_type=dipole dipole="0.000000 0.000000 0.000000" charge=0
C	-1.797719	-0.183191	-0.003544	6
C	-0.307930	-0.109491	-0.000164	6
C	0.431290	1.056799	-0.001324	6
O	-0.021950	2.305559	-0.005074	8
S	2.111681	0.765249	0.002946	16
C	1.883111	-0.925961	0.005986	6
C	0.548560	-1.261521	0.003876	6
H	-2.255899	0.810359	0.007756	1
H	-2.151780	-0.728231	0.877876	1
H	-2.148600	-0.707371	-0.898174	1
H	0.779530	2.856799	-0.004524	1
H	2.734060	-1.593691	0.009126	1
H	0.195640	-2.285311	0.005236	1
Es	0.303676	-1.950401	0.005442	99
Es	1.239399	0.962014	0.011032	99
Es	2.111624	0.765344	0.004404	99
Es	2.221407	0.834122	-0.002410	99
Es	-0.160518	2.325391	0.242340	99
Es	1.236688	-1.066346	-0.307915	99
Es	0.413244	2.593629	-0.004112	99
Es	0.084613	0.391627	-0.317908	99
Es	-2.103047	0.487255	0.003505	99
Es	2.111624	0.763785	-0.008097	99
Es	2.458473	-1.359565	0.007706	99
Es	1.883219	-0.925769	0.005986	99
Es	2.115850	0.638552	0.022482	99
Es	0.174040	1.819695	-0.001806	99
Es	0.431425	1.057105	-0.001327	99
Es	-1.797657	-0.183193	-0.003543	99
Es	1.962009	0.679745	-0.067759	99
Es	2.501315	1.085750	0.052458	99
Es	0.091114	-0.709979	0.004214	99
Es	1.235278	-1.066386	0.316477	99
Es	-0.141171	2.316173	-0.255627	99
Es	-0.307949	-0.109499	-0.000142	99
Es	2.035048	-0.110907	0.014362	99
Es	-2.029090	-0.554669	0.590844	99
Es	-1.044681	-0.140763	-0.001348	99
Es	0.082840	0.392836	0.315008	99
Es	-2.025936	-0.539303	-0.606134	99
Es	1.996383	0.823429	-0.000601	99
Es	0.548529	-1.261533	0.003875	99
Es	-0.021594	2.305404	-0.005042	99
43
Properties=species:S:1:pos:R:3:Z:I:1 energy=-665.308372085807 field_type=dipole dipole="0.000000 0.000000 0.000000" charge=0
C	-1.797719	-0.183191	-0.003544	6
C	-0.307930	-0.109491	-0.000164	6
C	0.431290	1.056799	-0.001324	6
O	-0.021950	2.305559	-0.005074	8
S	2.111681	0.765249	0.002946	16
C	1.883111	-0.925961	0.005986	6
C	0.548560	-1.261521	0.003876	6
H	-2.255899	0.810359	0.007756	1
H	-2.151780	-0.728231	0.877876	1
H	-2.148600	-0.707371	-0.898174	1
H	0.779530	2.856799	-0.004524	1
H	2.734060	-1.593691	0.009126	1
H	0.195640	-2.285311	0.005236	1
Es	1.239804	0.961301	0.003320	99
Es	1.234096	-1.065160	0.315067	99
Es	-1.797653	-0.183196	-0.003543	99
Es	1.235592	-1.066725	-0.304826	99
Es	-2.026189	-0.539502	-0.604883	99
Es	0.084903	0.389422	-0.314866	99
Es	2.206797	0.698253	-0.013311	99
Es	-0.099457	2.298896	0.236755	99
Es	1.986932	0.693310	0.038738	99
Es	2.134271	0.841066	0.086736	99
Es	2.458079	-1.360136	0.007250	99
Es	0.169202	1.815603	-0.015717	99
Es	2.503878	1.087723	-0.003079	99
Es	2.111601	0.765280	0.002794	99
Es	-1.044072	-0.141106	-0.001473	99
Es	0.548533	-1.261531	0.003886	99
Es	-0.307954	-0.109501	-0.000171	99
Es	1.883220	-0.925769	0.005992	99
Es	-2.104426	0.487271	0.003810	99
Es	0.082911	0.393468	0.313868	99
Es	2.034482	-0.110379	0.002478	99
Es	0.413575	2.597378	-0.009995	99
Es	0.303489	-1.951408	0.004859	99
Es	-0.197709	2.342929	-0.230160	99
Es	-0.021527	2.305403	-0.004976	99
Es	0.431427	1.057105	-0.001324	99
Es	0.092693	-0.709443	0.002273	99
Es	2.104738	0.821525	-0.081198	99
Es	1.973714	0.685676	-0.011050	99
Es	-2.028793	-0.554205	0.589110	99
43
Properties=species:S:1:pos:R:3:Z:I:1 energy=-665.308372085807 field_type=dipole dipole="0.000000 0.000000 0.000000" charge=0
C	-1.797719	-0.183191	-0.003544	6
C	-0.307930	-0.109491	-0.000164	6
C	0.431290	1.056799	-0.001324	6
O	-0.021950	2.305559	-0.005074	8
S	2.111681	0.765249	0.002946	16
C	1.883111	-0.925961	0.005986	6
C	0.548560	-1.261521	0.003876	6
H	-2.255899	0.810359	0.007756	1
H	-2.151780	-0.728231	0.877876	1
H	-2.148600	-0.707371	-0.898174	1
H	0.779530	2.856799	-0.004524	1
H	2.734060	-1.593691	0.009126	1
H	0.195640	-2.285311	0.005236	1
Es	0.548530	-1.261534	0.003872	99
Es	2.504098	1.088197	-0.009579	99
Es	1.981738	0.764391	0.011533	99
Es	1.233052	-1.066200	0.315247	99
Es	1.240129	0.960833	0.005822	99
Es	0.083034	0.395384	0.313926	99
Es	-0.021563	2.305403	-0.005153	99
Es	-2.028895	-0.554077	0.589323	99
Es	-0.045952	2.276463	0.207424	99
Es	2.034241	-0.109866	-0.000513	99
Es	0.086168	0.386626	-0.315024	99
Es	0.093277	-0.709324	0.002695	99
Es	-2.104120	0.486703	0.003991	99
Es	1.234784	-1.066051	-0.305370	99
Es	-0.247652	2.364025	-0.189047	99
Es	0.413445	2.599770	-0.014051	99
Es	0.166086	1.814419	-0.023057	99
Es	-1.043992	-0.141255	-0.001311	99
Es	1.961278	0.681157	0.015405	99
Es	2.113657	0.764115	0.021470	99
Es	-1.797655	-0.183194	-0.003544	99
Es	0.303007	-1.951599	0.005034	99
Es	2.113302	0.765154	0.010287	99
Es	2.182566	0.874768	-0.011773	99
Es	-0.307950	-0.109495	-0.000166	99
Es	1.883223	-0.925766	0.005988	99
Es	0.431424	1.057108	-0.001321	99
Es	-2.026604	-0.539378	-0.605140	99
Es	2.166028	0.656539	-0.017159	99
Es	2.457472	-1.359772	0.006551	99
43
Properties=species:S:1:pos:R:3:Z:I:1 energy=-665.308372085807 field_type=dipole dipole="0.000000 0.000000 0.000000" charge=0
C	-1.797719	-0.183191	-0.003544	6
C	-0.307930	-0.109491	-0.000164	6
C	0.431290	1.056799	-0.001324	6
O	-0.021950	2.305559	-0.005074	8
S	2.111681	0.765249	0.002946	16
C	1.883111	-0.925961	0.005986	6
C	0.548560	-1.261521	0.003876	6
H	-2.255899	0.810359	0.007756	1
H	-2.151780	-0.728231	0.877876	1
H	-2.148600	-0.707371	-0.898174	1
H	0.779530	2.856799	-0.004524	1
H	2.734060	-1.593691	0.009126	1
H	0.195640	-2.285311	0.005236	1
Es	-0.021518	2.305364	-0.005278	99
Es	-2.026806	-0.539295	-0.605650	99
Es	0.431428	1.057104	-0.001323	99
Es	1.990703	0.788365	0.028530	99
Es	0.163127	1.813226	-0.029598	99
Es	0.093578	-0.709466	0.002844	99
Es	-2.029081	-0.554042	0.589864	99
Es	1.883219	-0.925768	0.005984	99
Es	1.232019	-1.066206	0.316180	99
Es	2.108814	0.760296	-0.064441	99
Es	2.147191	0.650219	0.030080	99
Es	1.240543	0.960431	0.006596	99
Es	2.111542	0.765269	0.002214	99
Es	0.087067	0.386973	-0.315809	99
Es	0.084080	0.394409	0.314849	99
Es	0.412827	2.602274	-0.014481	99
Es	2.456823	-1.359266	0.006348	99
Es	-1.797655	-0.183194	-0.003543	99
Es	2.034128	-0.109666	-0.001457	99
Es	2.198851	0.860901	0.018678	99
Es	-2.103693	0.486018	0.003986	99
Es	1.233716	-1.066522	-0.305988	99
Es	0.302467	-1.951738	0.005041	99
Es	0.548533	-1.261532	0.003881	99
Es	-0.004143	2.258871	0.155926	99
Es	1.961574	0.682361	0.016347	99
Es	-0.307946	-0.109499	-0.000161	99
Es	-1.043943	-0.141119	-0.001405	99
Es	2.504319	1.088528	-0.011352	99
Es	-0.285608	2.380250	-0.130500	99
43
Properties=species:S:1:pos:R:3:Z:I:1 energy=-665.308372085807 field_type=dipole dipole="0.000000 0.000000 0.000000" charge=0
C	-1.797719	-0.183191	-0.003544	6
C	-0.307930	-0.109491	-0.000164	6
C	0.431290	1.056799	-0.001324	6
O	-0.021950	2.305559	-0.005074	8
S	2.111681	0.765249	0.002946	16
C	1.883111	-0.925961	0.005986	6
C	0.548560	-1.261521	0.003876	6
H	-2.255899	0.810359	0.007756	1
H	-2.151780	-0.728231	0.877876	1
H	-2.148600	-0.707371	-0.898174	1
H	0.779530	2.856799	-0.004524	1
H	2.734060	-1.593691	0.009126	1
H	0.195640	-2.285311	0.005236	1
Es	-2.029251	-0.553779	0.590044	99
Es	-0.296517	2.384290	0.095013	99
Es	-1.797655	-0.183194	-0.003544	99
Es	-1.043914	-0.141175	-0.002392	99
Es	2.018136	0.837607	-0.009205	99
Es	1.231882	-1.065182	0.316455	99
Es	0.548529	-1.261532	0.003874	99
Es	-0.307953	-0.109499	-0.000168	99
Es	0.302134	-1.951711	0.004581	99
Es	2.034314	-0.109572	0.009623	99
Es	2.228108	0.822522	0.024545	99
Es	0.431426	1.057103	-0.001323	99
Es	-2.026867	-0.539451	-0.605858	99
Es	0.085978	0.392433	-0.316157	99
Es	0.008041	2.255006	-0.137006	99
Es	0.086079	0.388510	0.315324	99
Es	0.412817	2.603213	0.003863	99
Es	1.883219	-0.925769	0.006008	99
Es	2.111773	0.765192	0.002382	99
Es	1.232816	-1.067685	-0.306892	99
Es	2.114220	0.763451	-0.020204	99
Es	2.504467	1.088662	0.016658	99
Es	0.162003	1.812026	0.018695	99
Es	1.962100	0.682628	-0.012368	99
Es	-0.021525	2.305382	-0.004886	99
Es	-2.103532	0.485631	0.003796	99
Es	2.456454	-1.358929	0.009386	99
Es	1.240598	0.960131	-0.003522	99
Es	0.093823	-0.709437	0.001141	99
Es	2.084450	0.636675	0.018501	99
43
Properties=species:S:1:pos:R:3:Z:I:1 energy=-665.308372085807 field_type=dipole dipole="0.000000 0.000000 0.000000" charge=0
C	-1.797719	-0.183191	-0.003544	6
C	-0.307930	-0.109491	-0.000164	6
C	0.431290	1.056799	-0.001324	6
O	-0.021950	2.305559	-0.005074	8
S	2.111681	0.765249	0.002946	16
C	1.883111	-0.925961	0.005986	6
C	0.548560	-1.261521	0.003876	6
H	-2.255899	0.810359	0.007756	1
H	-2.151780	-0.728231	0.877876	1
H	-2.148600	-0.707371	-0.898174	1
H	0.779530	2.856799	-0.004524	1
H	2.734060	-1.593691	0.009126	1
H	0.195640	-2.285311	0.005236	1
Es	2.504403	1.089078	0.005274	99
Es	0.160806	1.808934	-0.004487	99
Es	-1.044096	-0.141313	-0.001753	99
Es	0.087034	0.389999	-0.316751	99
Es	0.093810	-0.709587	0.002190	99
Es	-2.029401	-0.554239	0.590382	99
Es	-0.307950	-0.109496	-0.000161	99
Es	1.232819	-1.067304	-0.307140	99
Es	0.548532	-1.261534	0.003880	99
Es	0.302077	-1.951683	0.004861	99
Es	2.128374	0.753838	-0.084797	99
Es	1.993232	0.702503	0.039080	99
Es	-1.797655	-0.183194	-0.003543	99
Es	1.883223	-0.925766	0.005984	99
Es	2.132023	0.745039	0.016759	99
Es	0.010766	2.269231	0.011999	99
Es	2.456419	-1.358804	0.008010	99
Es	1.231429	-1.065948	0.316907	99
Es	2.138646	0.741082	0.010431	99
Es	-2.103264	0.485662	0.003860	99
Es	1.963704	0.683374	-0.007976	99
Es	-0.004634	2.286558	-0.011166	99
Es	0.085630	0.391278	0.315612	99
Es	1.240714	0.960221	0.000631	99
Es	2.162615	0.882167	0.040310	99
Es	0.431426	1.057104	-0.001321	99
Es	-2.026674	-0.539079	-0.606139	99
Es	0.412645	2.604456	-0.005670	99
Es	2.034243	-0.109788	0.005976	99
Es	-0.314741	2.390756	-0.014876	99
43
Properties=species:S:1:pos:R:3:Z:I:1 energy=-665.308372085807 field_type=dipole dipole="0.000000 0.000000 0.000000" charge=0
C	-1.797719	-0.183191	-0.003544	6
C	-0.307930	-0.109491	-0.000164	6
C	0.431290	1.056799	-0.001324	6
O	-0.021950	2.305559	-0.005074	8
S	2.111681	0.765249	0.002946	16
C	1.883111	-0.925961	0.005986	6
C	0.548560	-1.261521	0.003876	6
H	-2.255899	0.810359	0.007756	1
H	-2.151780	-0.728231	0.877876	1
H	-2.148600	-0.707371	-0.898174	1
H	0.779530	2.856799	-0.004524	1
H	2.734060	-1.593691	0.009126	1
H	0.195640	-2.285311	0.005236	1
Es	2.009496	0.710621	0.068088	99
Es	0.087635	0.389124	-0.316308	99
Es	-1.043920	-0.141280	-0.001831	99
Es	0.301820	-1.951862	0.004762	99
Es	0.431426	1.057104	-0.001322	99
Es	-0.314112	2.390241	-0.021372	99
Es	1.961879	0.683730	0.004405	99
Es	0.086013	0.391651	0.315561	99
Es	-1.797655	-0.183194	-0.003543	99
Es	2.456020	-1.358716	0.008094	99
Es	0.548532	-1.261533	0.003877	99
Es	-2.103541	0.485323	0.003877	99
Es	-0.021543	2.305377	-0.004956	99
Es	2.171458	0.690266	-0.047191	99
Es	-2.029420	-0.554121	0.590108	99
Es	1.232162	-1.067967	-0.306701	99
Es	2.184135	0.865949	0.047391	99
Es	1.883222	-0.925766	0.005985	99
Es	0.412762	2.604806	-0.005761	99
Es	1.240987	0.959830	-0.000845	99
Es	0.027566	2.250470	0.012625	99
Es	2.034168	-0.109488	0.004312	99
Es	2.111584	0.765350	0.002965	99
Es	0.094287	-0.709370	0.001592	99
Es	2.504495	1.089356	0.001110	99
Es	0.160311	1.808944	-0.004729	99
Es	-2.026747	-0.539105	-0.605944	99
Es	1.230775	-1.065433	0.316835	99
Es	-0.307953	-0.109499	-0.000165	99
Es	2.080313	0.792736	-0.054558	99
43
Properties=species:S:1:pos:R:3:Z:I:1 energy=-665.308372085807 field_type=dipole dipole="0.000000 0.000000 0.000000" charge=0
C	-1.797719	-0.183191	-0.003544	6
C	-0.307930	-0.109491	-0.000164	6
C	0.431290	1.056799	-0.001324	6
O	-0.021950	2.305559	-0.005074	8
S	2.111681	0.765249	0.002946	16
C	1.883111	-0.925961	0.005986	6
C	0.548560	-1.261521	0.003876	6
H	-2.255899	0.810359	0.007756	1
H	-2.151780	-0.728231	0.877876	1
H	-2.148600	-0.707371	-0.898174	1
H	0.779530	2.856799	-0.004524	1
H	2.734060	-1.593691	0.009126	1
H	0.195640	-2.285311	0.005236	1
Es	1.883220	-0.925768	0.005995	99
Es	0.087665	0.390176	-0.316587	99
Es	2.455620	-1.358391	0.008521	99
Es	0.025282	2.251081	-0.056684	99
Es	0.086907	0.390176	0.315985	99
Es	-1.043863	-0.141085	-0.002049	99
Es	1.961977	0.684044	-0.001905	99
Es	2.034214	-0.109332	0.005871	99
Es	2.504702	1.089341	0.007829	99
Es	2.018580	0.667772	0.005310	99
Es	-2.027027	-0.539257	-0.606207	99
Es	2.233388	0.741550	0.014597	99
Es	-2.029434	-0.553824	0.590335	99
Es	1.230400	-1.065627	0.317327	99
Es	0.301434	-1.951816	0.004621	99
Es	-0.307952	-0.109498	-0.000168	99
Es	0.159515	1.809437	0.008464	99
Es	-2.103363	0.484722	0.003881	99
Es	2.080903	0.885578	-0.002329	99
Es	-0.020907	2.304681	-0.004318	99
Es	-0.311861	2.389908	0.028402	99
Es	2.112539	0.765091	-0.004277	99
Es	0.413029	2.604629	-0.000082	99
Es	1.241158	0.959565	-0.000683	99
Es	0.094489	-0.709393	0.001162	99
Es	-1.797654	-0.183194	-0.003543	99
Es	0.548533	-1.261533	0.003876	99
Es	0.431426	1.057105	-0.001323	99
Es	2.111674	0.765142	0.001753	99
Es	1.231562	-1.067736	-0.307410	99
43
Properties=species:S:1:pos:R:3:Z:I:1 energy=-665.308372085807 field_type=dipole dipole="0.000000 0.000000 0.000000" charge=0
C	-1.797719	-0.183191	-0.003544	6
C	-0.307930	-0.109491	-0.000164	6
C	0.431290	1.056799	-0.001324	6
O	-0.021950	2.305559	-0.005074	8
S	2.111681	0.765249	0.002946	16
C	1.883111	-0.925961	0.005986	6
C	0.548560	-1.261521	0.003876	6
H	-2.255899	0.810359	0.007756	1
H	-2.151780	-0.728231	0.877876	1
H	-2.148600	-0.707371	-0.898174	1
H	0.779530	2.856799	-0.004524	1
H	2.734060	-1.593691	0.009126	1
H	0.195640	-2.285311	0.005236	1
Es	0.086707	0.391462	0.314603	99
Es	2.215539	0.714682	0.011082	99
Es	-1.043478	-0.141353	-0.001853	99
Es	1.985433	0.683402	-0.016017	99
Es	2.108975	0.827935	0.077805	99
Es	-2.027049	-0.539202	-0.605294	99
Es	2.034104	-0.109106	0.004339	99
Es	0.088254	0.389087	-0.315613	99
Es	0.413148	2.604889	-0.004744	99
Es	1.229721	-1.065935	0.315716	99
Es	-2.104097	0.485014	0.003977	99
Es	1.883222	-0.925765	0.005983	99
Es	0.548532	-1.261532	0.003872	99
Es	-0.313630	2.390546	-0.007669	99
Es	-2.029295	-0.553769	0.589404	99
Es	0.431426	1.057106	-0.001324	99
Es	-0.307952	-0.109500	-0.000159	99
Es	0.158940	1.808649	-0.004030	99
Es	1.230931	-1.067358	-0.306020	99
Es	0.095118	-0.709227	0.001984	99
Es	-0.021294	2.305128	-0.004372	99
Es	2.117106	0.832450	-0.082293	99
Es	2.504565	1.089754	0.003522	99
Es	1.980629	0.685238	0.021839	99
Es	1.241518	0.959298	0.001174	99
Es	2.455515	-1.358890	0.007981	99
Es	2.111749	0.765474	0.004563	99
Es	0.301607	-1.952232	0.004736	99
Es	-1.797654	-0.183195	-0.003542	99
Es	0.027863	2.250495	-0.003287	99
43
Properties=species:S:1:pos:R:3:Z:I:1 energy=-665.308372085807 field_type=dipole dipole="0.000000 0.000000 0.000000" charge=0
C	-1.797719	-0.183191	-0.003544	6
C	-0.307930	-0.109491	-0.000164	6
C	0.431290	1.056799	-0.001324	6
O	-0.021950	2.305559	-0.005074	8
S	2.111681	0.765249	0.002946	16
C	1.883111	-0.925961	0.005986	6
C	0.548560	-1.261521	0.003876	6
H	-2.255899	0.810359	0.007756	1
H	-2.151780	-0.728231	0.877876	1
H	-2.148600	-0.707371	-0.898174	1
H	0.779530	2.856799	-0.004524	1
H	2.734060	-1.593691	0.009126	1
H	0.195640	-2.285311	0.005236	1
Es	2.504839	1.089502	0.007253	99
Es	-1.043686	-0.141306	-0.001981	99
Es	0.301305	-1.952000	0.004717	99
Es	1.883223	-0.925763	0.005987	99
Es	1.229934	-1.066282	0.316864	99
Es	2.230689	0.735638	0.012181	99
Es	0.548533	-1.261532	0.003875	99
Es	-2.029478	-0.553638	0.590214	99
Es	2.014849	0.671501	0.010786	99
Es	0.413273	2.604873	-0.003651	99
Es	2.111773	0.764957	0.000135	99
Es	2.088196	0.887784	-0.010172	99
Es	1.241443	0.959427	0.000555	99
Es	0.027670	2.250643	-0.015396	99
Es	0.158813	1.808673	-0.003622	99
Es	0.087840	0.390069	-0.316214	99
Es	-2.103579	0.484539	0.003677	99
Es	0.094972	-0.709142	0.001751	99
Es	-2.027115	-0.539307	-0.605743	99
Es	2.034068	-0.109117	0.005028	99
Es	2.455348	-1.358427	0.008047	99
Es	-1.797656	-0.183197	-0.003542	99
Es	2.111608	0.765129	0.002675	99
Es	1.962165	0.684529	-0.002596	99
Es	0.087141	0.389853	0.315541	99
Es	-0.021220	2.305039	-0.005792	99
Es	-0.313407	2.390404	0.004320	99
Es	1.231139	-1.066909	-0.307040	99
Es	-0.307953	-0.109499	-0.000169	99
Es	0.431426	1.057105	-0.001327	99
43
Properties=species:S:1:pos:R:3:Z:I:1 energy=-665.308372085807 field_type=dipole dipole="0.000000 0.000000 0.000000" charge=0
C	-1.797719	-0.183191	-0.003544	6
C	-0.307930	-0.109491	-0.000164	6
C	0.431290	1.056799	-0.001324	6
O	-0.021950	2.305559	-0.005074	8
S	2.111681	0.765249	0.002946	16
C	1.883111	-0.925961	0.005986	6
C	0.548560	-1.261521	0.003876	6
H	-2.255899	0.810359	0.007756	1
H	-2.151780	-0.728231	0.877876	1
H	-2.148600	-0.707371	-0.898174	1
H	0.779530	2.856799	-0.004524	1
H	2.734060	-1.593691	0.009126	1
H	0.195640	-2.285311	0.005236	1
Es	0.028154	2.250206	-0.007293	99
Es	0.301278	-1.952071	0.004806	99
Es	1.241527	0.959179	0.001150	99
Es	2.112273	0.764745	-0.005816	99
Es	1.231153	-1.067322	-0.306761	99
Es	2.455346	-1.358461	0.007889	99
Es	1.229801	-1.065652	0.316801	99
Es	1.962202	0.684308	0.003267	99
Es	0.095174	-0.709126	0.001051	99
Es	0.159201	1.808977	-0.002976	99
Es	1.997938	0.692512	0.002801	99
Es	2.111877	0.765200	0.003612	99
Es	-0.313968	2.390172	-0.005019	99
Es	2.504636	1.089850	0.002822	99
Es	-0.307953	-0.109499	-0.000165	99
Es	0.431426	1.057106	-0.001323	99
Es	2.126953	0.895605	0.000200	99
Es	-1.797655	-0.183194	-0.003544	99
Es	-2.103799	0.484566	0.003974	99
Es	0.087495	0.388863	0.315512	99
Es	-2.029588	-0.553986	0.589743	99
Es	1.883222	-0.925766	0.005985	99
Es	0.548533	-1.261532	0.003875	99
Es	0.087333	0.391034	-0.315637	99
Es	-1.043586	-0.141366	-0.001783	99
Es	-2.026999	-0.538906	-0.605663	99
Es	2.208337	0.706901	0.014414	99
Es	2.034093	-0.109052	0.003288	99
Es	-0.021554	2.305397	-0.005067	99
Es	0.413306	2.604860	-0.003777	99
43
Properties=species:S:1:pos:R:3:Z:I:1 energy=-665.308372085807 field_type=dipole dipole="0.000000 0.000000 0.000000" charge=0
C	-1.797719	-0.183191	-0.003544	6
C	-0.307930	-0.109491	-0.000164	6
C	0.431290	1.056799	-0.001324	6
O	-0.021950	2.305559	-0.005074	8
S	2.111681	0.765249	0.002946	16
C	1.883111	-0.925961	0.005986	6
C	0.548560	-1.261521	0.003876	6
H	-2.255899	0.810359	0.007756	1
H	-2.151780	-0.728231	0.877876	1
H	-2.148600	-0.707371	-0.898174	1
H	0.779530	2.856799	-0.004524	1
H	2.734060	-1.593691	0.009126	1
H	0.195640	-2.285311	0.005236	1
Es	-2.029539	-0.553887	0.589568	99
Es	2.075922	0.878792	0.008823	99
Es	1.230735	-1.067142	-0.306696	99
Es	0.088214	0.389768	-0.315691	99
Es	-0.021529	2.305384	-0.005216	99
Es	1.241678	0.959103	0.000030	99
Es	2.020353	0.664747	0.004698	99
Es	0.548530	-1.261532	0.003876	99
Es	2.237553	0.751123	-0.003556	99
Es	1.962218	0.684787	-0.000910	99
Es	-0.307953	-0.109499	-0.000171	99
Es	0.158828	1.808838	-0.000086	99
Es	0.431426	1.057106	-0.001323	99
Es	1.883222	-0.925764	0.005989	99
Es	0.301121	-1.952183	0.004737	99
Es	-1.043485	-0.141397	-0.001889	99
Es	0.087289	0.390160	0.314980	99
Es	0.095600	-0.709159	0.001609	99
Es	-2.104088	0.484580	0.003814	99
Es	1.229457	-1.066143	0.316265	99
Es	-0.313337	2.389930	0.001284	99
Es	2.455190	-1.358464	0.008356	99
Es	2.111660	0.765216	0.003230	99
Es	2.504871	1.089711	0.005521	99
Es	0.028074	2.250184	-0.016290	99
Es	-1.797657	-0.183193	-0.003543	99
Es	0.413121	2.605265	-0.003862	99
Es	2.033991	-0.108924	0.005391	99
Es	2.111590	0.765199	0.002790	99
Es	-2.026899	-0.539060	-0.605361	99
43
Properties=species:S:1:pos:R:3:Z:I:1 energy=-665.308372085807 field_type=dipole dipole="0.000000 0.000000 0.000000" charge=0
C	-1.797719	-0.183191	-0.003544	6
C	-0.307930	-0.109491	-0.000164	6
C	0.431290	1.056799	-0.001324	6
O	-0.021950	2.305559	-0.005074	8
S	2.111681	0.765249	0.002946	16
C	1.883111	-0.925961	0.005986	6
C	0.548560	-1.261521	0.003876	6
H	-2.255899	0.810359	0.007756	1
H	-2.151780	-0.728231	0.877876	1
H	-2.148600	-0.707371	-0.898174	1
H	0.779530	2.856799	-0.004524	1
H	2.734060	-1.593691	0.009126	1
H	0.195640	-2.285311	0.005236	1
Es	-1.797654	-0.183191	-0.003547	99
Es	0.088328	0.389009	-0.315312	99
Es	0.548532	-1.261533	0.003877	99
Es	1.883223	-0.925765	0.005986	99
Es	1.230875	-1.067622	-0.306205	99
Es	0.158409	1.808655	-0.004389	99
Es	2.455239	-1.358638	0.008140	99
Es	1.963007	0.685523	0.008881	99
Es	-0.313136	2.390141	-0.006597	99
Es	2.504667	1.090008	0.002636	99
Es	-1.043405	-0.141550	-0.001771	99
Es	1.241827	0.958938	-0.000459	99
Es	1.229465	-1.065503	0.316112	99
Es	-2.029857	-0.554328	0.589230	99
Es	0.095676	-0.708972	0.001516	99
Es	2.160030	0.888550	0.002237	99
Es	0.413266	2.605184	-0.004891	99
Es	2.111933	0.764968	0.003509	99
Es	1.983707	0.721512	-0.010105	99
Es	2.033956	-0.108912	0.005008	99
Es	0.086938	0.390711	0.314610	99
Es	2.188111	0.686231	-0.013151	99
Es	-0.307953	-0.109499	-0.000160	99
Es	-0.021548	2.305369	-0.005421	99
Es	-2.104359	0.484711	0.003736	99
Es	0.431426	1.057106	-0.001324	99
Es	0.301159	-1.952204	0.004766	99
Es	-2.026506	-0.538587	-0.605000	99
Es	0.028145	2.250233	-0.002867	99
Es	2.112657	0.763001	0.027318	99
43
Properties=species:S:1:pos:R:3:Z:I:1 energy=-665.308372085807 field_type=dipole dipole="0.000000 0.000000 0.000000" charge=0
C	-1.797719	-0.183191	-0.003544	6
C	-0.307930	-0.109491	-0.000164	6
C	0.431290	1.056799	-0.001324	6
O	-0.021950	2.305559	-0.005074	8
S	2.111681	0.765249	0.002946	16
C	1.883111	-0.925961	0.005986	6
C	0.548560	-1.261521	0.003876	6
H	-2.255899	0.810359	0.007756	1
H	-2.151780	-0.728231	0.877876	1
H	-2.148600	-0.707371	-0.898174	1
H	0.779530	2.856799	-0.004524	1
H	2.734060	-1.593691	0.009126	1
H	0.195640	-2.285311	0.005236	1
Es	0.088502	0.388591	-0.315124	99
Es	0.158396	1.808800	-0.001879	99
Es	1.230647	-1.067247	-0.305990	99
Es	-2.104421	0.484598	0.003845	99
Es	0.413286	2.605236	-0.004463	99
Es	2.234802	0.812369	-0.012918	99
Es	1.229315	-1.065657	0.315563	99
Es	2.033905	-0.108748	0.005097	99
Es	0.431427	1.057106	-0.001324	99
Es	0.301196	-1.952331	0.004721	99
Es	0.023565	2.255329	-0.005267	99
Es	2.067216	0.639580	-0.007708	99
Es	2.112743	0.764746	0.018166	99
Es	-0.307953	-0.109500	-0.000169	99
Es	2.505059	1.089649	0.003391	99
Es	2.031560	0.842546	0.017906	99
Es	-1.797659	-0.183192	-0.003543	99
Es	0.548532	-1.261534	0.003876	99
Es	-0.313163	2.389943	-0.009124	99
Es	-0.016958	2.300280	-0.003433	99
Es	1.241841	0.958906	-0.000463	99
Es	1.962248	0.684812	0.003615	99
Es	-2.027006	-0.539023	-0.604852	99
Es	1.883223	-0.925765	0.005987	99
Es	0.095869	-0.708923	0.001829	99
Es	-2.029465	-0.553783	0.589148	99
Es	0.086862	0.391055	0.314151	99
Es	-1.043333	-0.141527	-0.001947	99
Es	2.455153	-1.358778	0.008390	99
Es	2.110769	0.766008	-0.001118	99
43
Properties=species:S:1:pos:R:3:Z:I:1 energy=-665.308372085807 field_type=dipole dipole="0.000000 0.000000 0.000000" charge=0
C	-1.797719	-0.183191	-0.003544	6
C	-0.307930	-0.109491	-0.000164	6
C	0.431290	1.056799	-0.001324	6
O	-0.021950	2.305559	-0.005074	8
S	2.111681	0.765249	0.002946	16
C	1.883111	-0.925961	0.005986	6
C	0.548560	-1.261521	0.003876	6
H	-2.255899	0.810359	0.007756	1
H	-2.151780	-0.728231	0.877876	1
H	-2.148600	-0.707371	-0.898174	1
H	0.779530	2.856799	-0.004524	1
H	2.734060	-1.593691	0.009126	1
H	0.195640	-2.285311	0.005236	1
Es	-0.017621	2.301030	-0.001898	99
Es	-0.307954	-0.109500	-0.000163	99
Es	1.230651	-1.067077	-0.305626	99
Es	-1.797654	-0.183194	-0.003543	99
Es	0.548532	-1.261532	0.003873	99
Es	0.413071	2.605554	-0.004319	99
Es	2.504678	1.090054	0.005323	99
Es	2.111382	0.765852	0.012049	99
Es	1.984770	0.714792	0.006683	99
Es	1.883223	-0.925764	0.005986	99
Es	1.241894	0.958902	0.001309	99
Es	-0.313026	2.389719	-0.004099	99
Es	2.112250	0.764554	0.003619	99
Es	0.024277	2.254543	-0.010408	99
Es	1.229352	-1.065845	0.315504	99
Es	2.187754	0.689294	0.005568	99
Es	0.301163	-1.952345	0.004752	99
Es	0.431426	1.057106	-0.001328	99
Es	0.086919	0.390879	0.314027	99
Es	1.964251	0.686459	-0.007147	99
Es	-2.104655	0.484591	0.003801	99
Es	2.159277	0.888888	-0.006562	99
Es	0.095967	-0.708751	0.001693	99
Es	2.455087	-1.358820	0.008097	99
Es	-2.029587	-0.554011	0.588953	99
Es	-1.043250	-0.141543	-0.001952	99
Es	2.033961	-0.108743	0.005051	99
Es	0.158392	1.808726	-0.003376	99
Es	-2.026784	-0.538812	-0.604625	99
Es	0.088408	0.388539	-0.314879	99
43
Properties=species:S:1:pos:R:3:Z:I:1 energy=-665.308372085807 field_type=dipole dipole="0.000000 0.000000 0.000000" charge=0
C	-1.797719	-0.183191	-0.003544	6
C	-0.307930	-0.109491	-0.000164	6
C	0.431290	1.056799	-0.001324	6
O	-0.021950	2.305559	-0.005074	8
S	2.111681	0.765249	0.002946	16
C	1.883111	-0.925961	0.005986	6
C	0.548560	-1.261521	0.003876	6
H	-2.255899	0.810359	0.007756	1
H	-2.151780	-0.728231	0.877876	1
H	-2.148600	-0.707371	-0.898174	1
H	0.779530	2.856799	-0.004524	1
H	2.734060	-1.593691	0.009126	1
H	0.195640	-2.285311	0.005236	1
Es	-0.313166	2.389761	-0.000185	99
Es	0.096158	-0.708715	0.001357	99
Es	-0.307953	-0.109500	-0.000164	99
Es	-0.021543	2.305396	-0.005143	99
Es	2.505012	1.089787	0.005055	99
Es	1.962213	0.685277	0.000162	99
Es	2.048866	0.645299	0.006482	99
Es	1.883223	-0.925770	0.005989	99
Es	2.455019	-1.358815	0.008388	99
Es	0.548533	-1.261532	0.003887	99
Es	1.229146	-1.065820	0.315238	99
Es	0.158543	1.808801	-0.001982	99
Es	2.111075	0.765713	-0.004833	99
Es	0.088036	0.390389	-0.314588	99
Es	-1.043210	-0.141645	-0.001960	99
Es	1.230364	-1.067265	-0.305494	99
Es	2.111652	0.765229	0.002893	99
Es	0.413145	2.605417	-0.003883	99
Es	0.028187	2.250179	-0.012964	99
Es	-2.029552	-0.553952	0.588769	99
Es	2.033895	-0.108659	0.004960	99
Es	0.087655	0.389110	0.314043	99
Es	-2.104811	0.484620	0.003788	99
Es	2.239836	0.799346	-0.000381	99
Es	0.301164	-1.952450	0.004691	99
Es	0.431426	1.057105	-0.001320	99
Es	1.241969	0.958804	0.000270	99
Es	-2.026732	-0.538887	-0.604537	99
Es	2.045661	0.849516	0.011367	99
Es	-1.797655	-0.183195	-0.003544	99
43
Properties=species:S:1:pos:R:3:Z:I:1 energy=-665.308372085807 field_type=dipole dipole="0.000000 0.000000 0.000000" charge=0
C	-1.797719	-0.183191	-0.003544	6
C	-0.307930	-0.109491	-0.000164	6
C	0.431290	1.056799	-0.001324	6
O	-0.021950	2.305559	-0.005074	8
S	2.111681	0.765249	0.002946	16
C	1.883111	-0.925961	0.005986	6
C	0.548560	-1.261521	0.003876	6
H	-2.255899	0.810359	0.007756	1
H	-2.151780	-0.728231	0.877876	1
H	-2.148600	-0.707371	-0.898174	1
H	0.779530	2.856799	-0.004524	1
H	2.734060	-1.593691	0.009126	1
H	0.195640	-2.285311	0.005236	1
Es	1.230486	-1.066905	-0.305323	99
Es	0.301068	-1.952423	0.004668	99
Es	-2.029668	-0.554192	0.588571	99
Es	0.548532	-1.261533	0.003876	99
Es	-2.026581	-0.538609	-0.604296	99
Es	2.454987	-1.358961	0.008245	99
Es	-0.313193	2.389705	-0.002363	99
Es	1.996377	0.693229	-0.010676	99
Es	-0.307955	-0.109500	-0.000160	99
Es	0.087964	0.389526	-0.314456	99
Es	-0.021418	2.305265	-0.004675	99
Es	0.096338	-0.708431	0.001856	99
Es	0.028104	2.250307	-0.009802	99
Es	2.112420	0.764071	0.015635	99
Es	1.883224	-0.925764	0.005985	99
Es	0.413359	2.605320	-0.004225	99
Es	1.229275	-1.065726	0.314904	99
Es	-1.797655	-0.183195	-0.003544	99
Es	2.195896	0.707065	0.001602	99
Es	0.158287	1.808884	-0.003083	99
Es	-2.105044	0.484466	0.003801	99
Es	2.033884	-0.108515	0.004452	99
Es	0.087122	0.389722	0.313556	99
Es	2.141310	0.894178	-0.000555	99
Es	1.241988	0.958750	0.000480	99
Es	1.963065	0.685460	0.006257	99
Es	2.110801	0.765882	0.005874	99
Es	0.431426	1.057106	-0.001323	99
Es	-1.043154	-0.141592	-0.001880	99
Es	2.504909	1.089953	0.002962	99
43
Properties=species:S:1:pos:R:3:Z:I:1 energy=-665.308372085807 field_type=dipole dipole="0.000000 0.000000 0.000000" charge=0
C	-1.797719	-0.183191	-0.003544	6
C	-0.307930	-0.109491	-0.000164	6
C	0.431290	1.056799	-0.001324	6
O	-0.021950	2.305559	-0.005074	8
S	2.111681	0.765249	0.002946	16
C	1.883111	-0.925961	0.005986	6
C	0.548560	-1.261521	0.003876	6
H	-2.255899	0.810359	0.007756	1
H	-2.151780	-0.728231	0.877876	1
H	-2.148600	-0.707371	-0.898174	1
H	0.779530	2.856799	-0.004524	1
H	2.734060	-1.593691	0.009126	1
H	0.195640	-2.285311	0.005236	1
Es	2.455028	-1.359038	0.008089	99
Es	2.186642	0.698240	0.005691	99
Es	2.033816	-0.108571	0.004972	99
Es	0.548532	-1.261533	0.003876	99
Es	0.158693	1.809076	-0.003685	99
Es	-2.026334	-0.538306	-0.604111	99
Es	2.111792	0.765189	-0.001124	99
Es	-1.797658	-0.183195	-0.003543	99
Es	1.229010	-1.065539	0.314720	99
Es	2.157974	0.890316	0.004060	99
Es	1.242112	0.958655	0.001349	99
Es	-1.043112	-0.141706	-0.001846	99
Es	0.301130	-1.952517	0.004756	99
Es	0.413164	2.605546	-0.004951	99
Es	-2.029850	-0.554486	0.588387	99
Es	2.111840	0.765258	0.005284	99
Es	1.230332	-1.067126	-0.304998	99
Es	-2.105166	0.484602	0.003772	99
Es	0.096508	-0.708480	0.001795	99
Es	1.979738	0.699736	0.013341	99
Es	-0.021464	2.305310	-0.004545	99
Es	1.883223	-0.925764	0.005984	99
Es	-0.307954	-0.109500	-0.000168	99
Es	0.088122	0.389445	-0.314165	99
Es	-0.313422	2.389351	-0.004383	99
Es	0.087233	0.389768	0.313346	99
Es	2.504817	1.090070	0.005418	99
Es	0.028160	2.250240	-0.006591	99
Es	1.971822	0.691398	-0.013044	99
Es	0.431427	1.057107	-0.001324	99
43