45
Properties=species:S:1:pos:R:3:Z:I:1 energy=-739.2859373674266 field_type=dipole dipole="0.000000 0.000000 0.000000" charge=0
C	-1.456546	0.096824	-0.506902	6
C	0.055994	0.060584	-0.506822	6
C	0.765624	1.024244	0.443128	6
O	1.786783	0.072664	0.820248	8
S	0.855144	-1.208956	0.411158	16
O	0.096143	-1.634286	1.564228	8
O	1.612514	-2.101686	-0.436062	8
H	-1.861636	-0.748456	-1.072292	1
H	-1.818156	1.017484	-0.976102	1
H	-1.867706	0.053804	0.506838	1
H	0.451324	0.110704	-1.528992	1
H	0.186684	1.346794	1.316888	1
H	1.193834	1.910284	-0.035312	1
Es	1.401937	0.426890	0.697518	99
Es	-1.720834	0.071958	0.175249	99
Es	0.358591	-0.597635	-0.120084	99
Es	1.485826	-0.373503	0.714715	99
Es	-1.719474	-0.473115	-0.890263	99
Es	0.836912	-1.132980	0.325440	99
Es	0.035001	-1.329801	1.578695	99
Es	0.096284	-1.634194	1.564002	99
Es	0.368234	0.574732	-0.048243	99
Es	1.964989	0.068485	0.587551	99
Es	1.056651	1.615631	0.115571	99
Es	0.056016	0.060519	-0.506731	99
Es	1.518920	-1.808151	-0.038432	99
Es	-0.683045	0.066922	-0.498507	99
Es	1.722451	-2.331141	-0.348906	99
Es	1.853446	0.069285	1.111671	99
Es	0.363677	1.232908	1.028989	99
Es	0.957865	-1.179324	0.473449	99
Es	0.186053	-1.839905	1.706391	99
Es	1.612337	-2.101397	-0.435838	99
Es	1.786453	0.072619	0.820115	99
Es	0.331676	0.085184	-1.172706	99
Es	0.765796	1.024020	0.443153	99
Es	0.862793	-1.317757	0.364454	99
Es	-0.007212	-1.681131	1.222590	99
Es	1.227182	-2.050202	-0.391228	99
Es	-1.456458	0.096827	-0.506916	99
Es	1.650961	-1.845366	-0.599114	99
Es	0.855149	-1.208943	0.411157	99
Es	-1.682263	0.721900	-0.825005	99
Es	0.763294	-1.205387	0.481432	99
Es	0.485360	-1.503824	1.252292	99
45
Properties=species:S:1:pos:R:3:Z:I:1 energy=-739.2859373674266 field_type=dipole dipole="0.000000 0.000000 0.000000" charge=0
C	-1.456546	0.096824	-0.506902	6
C	0.055994	0.060584	-0.506822	6
C	0.765624	1.024244	0.443128	6
O	1.786783	0.072664	0.820248	8
S	0.855144	-1.208956	0.411158	16
O	0.096143	-1.634286	1.564228	8
O	1.612514	-2.101686	-0.436062	8
H	-1.861636	-0.748456	-1.072292	1
H	-1.818156	1.017484	-0.976102	1
H	-1.867706	0.053804	0.506838	1
H	0.451324	0.110704	-1.528992	1
H	0.186684	1.346794	1.316888	1
H	1.193834	1.910284	-0.035312	1
Es	1.786449	0.072598	0.820130	99
Es	1.683356	-1.844063	-0.591383	99
Es	0.017158	-1.330024	1.598296	99
Es	-1.456458	0.096828	-0.506916	99
Es	0.221529	-1.830529	1.689054	99
Es	1.980777	0.074680	0.588109	99
Es	0.368871	0.574582	-0.047155	99
Es	-0.009750	-1.696671	1.264866	99
Es	0.332125	0.084996	-1.174364	99
Es	1.839210	0.064480	1.105214	99
Es	1.486130	-0.373413	0.713333	99
Es	-1.721649	0.072393	0.176950	99
Es	0.852573	-1.209217	0.410866	99
Es	0.096323	-1.634193	1.563959	99
Es	0.470207	-1.497347	1.207921	99
Es	0.362746	1.233185	1.029967	99
Es	0.866803	-1.287014	0.320577	99
Es	1.265024	-2.040774	-0.423756	99
Es	0.853743	-1.265984	0.518207	99
Es	0.942318	-1.127390	0.407589	99
Es	1.057010	1.615119	0.114753	99
Es	1.399432	0.425450	0.704116	99
Es	0.760596	-1.154844	0.398724	99
Es	0.765791	1.024024	0.443152	99
Es	0.056019	0.060515	-0.506732	99
Es	1.699055	-2.341449	-0.338465	99
Es	1.612333	-2.101493	-0.435891	99
Es	-1.719074	-0.472702	-0.891058	99
Es	-1.681232	0.720662	-0.825201	99
Es	1.472247	-1.808402	-0.024171	99
Es	0.357707	-0.596977	-0.119848	99
Es	-0.682805	0.067097	-0.498386	99
45
Properties=species:S:1:pos:R:3:Z:I:1 energy=-739.2859373674266 field_type=dipole dipole="0.000000 0.000000 0.000000" charge=0
C	-1.456546	0.096824	-0.506902	6
C	0.055994	0.060584	-0.506822	6
C	0.765624	1.024244	0.443128	6
O	1.786783	0.072664	0.820248	8
S	0.855144	-1.208956	0.411158	16
O	0.096143	-1.634286	1.564228	8
O	1.612514	-2.101686	-0.436062	8
H	-1.861636	-0.748456	-1.072292	1
H	-1.818156	1.017484	-0.976102	1
H	-1.867706	0.053804	0.506838	1
H	0.451324	0.110704	-1.528992	1
H	0.186684	1.346794	1.316888	1
H	1.193834	1.910284	-0.035312	1
Es	1.485123	-0.372951	0.714304	99
Es	0.765794	1.024020	0.443153	99
Es	0.825425	-1.229777	0.525165	99
Es	-1.722038	0.072758	0.177766	99
Es	1.057197	1.614866	0.114371	99
Es	1.786525	0.072594	0.820149	99
Es	-0.682795	0.067128	-0.498375	99
Es	0.474841	-1.495853	1.210359	99
Es	0.766416	-1.231643	0.348885	99
Es	0.855297	-1.208893	0.411243	99
Es	1.399313	0.425177	0.705357	99
Es	0.945236	-1.282076	0.376056	99
Es	0.210587	-1.846770	1.663593	99
Es	0.012468	-1.335255	1.622853	99
Es	1.682175	-1.839857	-0.590707	99
Es	0.357294	-0.596338	-0.119862	99
Es	1.985515	0.075418	0.588034	99
Es	0.056017	0.060517	-0.506731	99
Es	0.001263	-1.676638	1.263346	99
Es	0.096287	-1.634192	1.564003	99
Es	-1.456457	0.096832	-0.506919	99
Es	1.835156	0.063771	1.102798	99
Es	1.695479	-2.345549	-0.345751	99
Es	1.612363	-2.101510	-0.435903	99
Es	0.369171	0.574384	-0.046516	99
Es	-1.719025	-0.472563	-0.891661	99
Es	-1.680549	0.719873	-0.825064	99
Es	0.362362	1.233311	1.030403	99
Es	1.279088	-2.037547	-0.422555	99
Es	0.883612	-1.092107	0.394603	99
Es	0.332476	0.084702	-1.175144	99
Es	1.462949	-1.811708	-0.018794	99
45
Properties=species:S:1:pos:R:3:Z:I:1 energy=-739.2859373674266 field_type=dipole dipole="0.000000 0.000000 0.000000" charge=0
C	-1.456546	0.096824	-0.506902	6
C	0.055994	0.060584	-0.506822	6
C	0.765624	1.024244	0.443128	6
O	1.786783	0.072664	0.820248	8
S	0.855144	-1.208956	0.411158	16
O	0.096143	-1.634286	1.564228	8
O	1.612514	-2.101686	-0.436062	8
H	-1.861636	-0.748456	-1.072292	1
H	-1.818156	1.017484	-0.976102	1
H	-1.867706	0.053804	0.506838	1
H	0.451324	0.110704	-1.528992	1
H	0.186684	1.346794	1.316888	1
H	1.193834	1.910284	-0.035312	1
Es	0.855347	-1.208985	0.411308	99
Es	0.096354	-1.634179	1.563953	99
Es	1.786525	0.072646	0.820135	99
Es	0.361923	1.233367	1.030376	99
Es	1.612362	-2.101510	-0.435895	99
Es	0.369527	0.574103	-0.046632	99
Es	0.332622	0.085194	-1.175120	99
Es	1.690228	-1.841624	-0.589290	99
Es	1.695219	-2.345333	-0.333517	99
Es	1.056879	1.614693	0.113949	99
Es	0.351485	-1.495280	1.098781	99
Es	-1.718538	-0.471783	-0.890880	99
Es	0.361688	-1.647146	1.580838	99
Es	1.831846	0.063719	1.100836	99
Es	1.485710	-0.372047	0.716514	99
Es	-0.008446	-1.868233	1.452003	99
Es	0.845847	-1.171625	0.529760	99
Es	0.764099	-1.265498	0.383730	99
Es	0.765798	1.024018	0.443153	99
Es	1.435752	-1.805543	-0.023292	99
Es	-0.682682	0.067202	-0.498289	99
Es	1.398398	0.425018	0.704815	99
Es	0.357383	-0.596792	-0.119611	99
Es	-0.005593	-1.343698	1.628691	99
Es	-1.456457	0.096829	-0.506917	99
Es	-1.681178	0.720276	-0.825669	99
Es	-1.722288	0.072083	0.177711	99
Es	0.950620	-1.280772	0.391622	99
Es	1.989406	0.074273	0.588302	99
Es	0.056016	0.060517	-0.506733	99
Es	1.298620	-2.042130	-0.431734	99
Es	0.860096	-1.117638	0.339561	99
45
Properties=species:S:1:pos:R:3:Z:I:1 energy=-739.2859373674266 field_type=dipole dipole="0.000000 0.000000 0.000000" charge=0
C	-1.456546	0.096824	-0.506902	6
C	0.055994	0.060584	-0.506822	6
C	0.765624	1.024244	0.443128	6
O	1.786783	0.072664	0.820248	8
S	0.855144	-1.208956	0.411158	16
O	0.096143	-1.634286	1.564228	8
O	1.612514	-2.101686	-0.436062	8
H	-1.861636	-0.748456	-1.072292	1
H	-1.818156	1.017484	-0.976102	1
H	-1.867706	0.053804	0.506838	1
H	0.451324	0.110704	-1.528992	1
H	0.186684	1.346794	1.316888	1
H	1.193834	1.910284	-0.035312	1
Es	1.786488	0.072614	0.820129	99
Es	0.476302	-1.519878	1.197809	99
Es	0.369579	0.574343	-0.046611	99
Es	0.332704	0.084439	-1.175413	99
Es	0.005412	-1.640241	1.277451	99
Es	0.357041	-0.595899	-0.120063	99
Es	0.362082	1.233725	1.030756	99
Es	1.305581	-2.025315	-0.432974	99
Es	0.863787	-1.090111	0.397676	99
Es	-1.456457	0.096828	-0.506916	99
Es	1.437842	-1.805953	-0.019493	99
Es	1.484854	-0.371080	0.714567	99
Es	0.056017	0.060517	-0.506731	99
Es	1.398435	0.424749	0.708672	99
Es	1.670649	-2.354005	-0.338944	99
Es	1.612337	-2.101486	-0.435850	99
Es	0.953205	-1.243792	0.439053	99
Es	-1.719214	-0.472299	-0.891954	99
Es	-1.680091	0.718927	-0.824909	99
Es	0.777081	-1.239230	0.501885	99
Es	-1.722579	0.073287	0.178130	99
Es	0.765793	1.024023	0.443153	99
Es	0.855187	-1.208923	0.411093	99
Es	0.096287	-1.634194	1.564009	99
Es	0.826753	-1.262456	0.306268	99
Es	1.832599	0.061443	1.100804	99
Es	-0.682731	0.067124	-0.498305	99
Es	1.705786	-1.849329	-0.586529	99
Es	1.057162	1.614220	0.114431	99
Es	1.989259	0.076294	0.586317	99
Es	0.176430	-1.866555	1.647930	99
Es	0.040983	-1.327664	1.637016	99
45
Properties=species:S:1:pos:R:3:Z:I:1 energy=-739.2859373674266 field_type=dipole dipole="0.000000 0.000000 0.000000" charge=0
C	-1.456546	0.096824	-0.506902	6
C	0.055994	0.060584	-0.506822	6
C	0.765624	1.024244	0.443128	6
O	1.786783	0.072664	0.820248	8
S	0.855144	-1.208956	0.411158	16
O	0.096143	-1.634286	1.564228	8
O	1.612514	-2.101686	-0.436062	8
H	-1.861636	-0.748456	-1.072292	1
H	-1.818156	1.017484	-0.976102	1
H	-1.867706	0.053804	0.506838	1
H	0.451324	0.110704	-1.528992	1
H	0.186684	1.346794	1.316888	1
H	1.193834	1.910284	-0.035312	1
Es	1.398415	0.423763	0.703942	99
Es	-0.008111	-1.342332	1.626450	99
Es	1.625278	-1.848848	-0.624330	99
Es	1.786392	0.072620	0.820135	99
Es	-0.682613	0.067068	-0.498283	99
Es	1.486281	-0.370053	0.714375	99
Es	1.612333	-2.101449	-0.435851	99
Es	0.371271	-1.636008	1.573474	99
Es	-1.456466	0.096830	-0.506915	99
Es	0.369201	0.574424	-0.046881	99
Es	0.096295	-1.634188	1.563980	99
Es	1.982995	0.073681	0.584952	99
Es	-1.680408	0.719656	-0.825666	99
Es	0.056018	0.060517	-0.506731	99
Es	-1.718496	-0.471950	-0.891430	99
Es	1.679752	-1.957905	-0.205317	99
Es	0.936512	-1.247370	0.475237	99
Es	0.765790	1.024023	0.443153	99
Es	0.835519	-1.289991	0.321739	99
Es	1.576986	-2.376524	-0.414808	99
Es	0.000912	-1.871548	1.470852	99
Es	1.237880	-1.851264	-0.133638	99
Es	1.056841	1.614122	0.114425	99
Es	0.893744	-1.109148	0.366369	99
Es	0.332527	0.084963	-1.175762	99
Es	0.356960	-0.596634	-0.119617	99
Es	-1.722487	0.072616	0.178429	99
Es	0.335155	-1.504332	1.089589	99
Es	1.837825	0.063625	1.107289	99
Es	0.361926	1.233753	1.030629	99
Es	0.854967	-1.208992	0.411254	99
Es	0.755372	-1.188999	0.481416	99
45
Properties=species:S:1:pos:R:3:Z:I:1 energy=-739.2859373674266 field_type=dipole dipole="0.000000 0.000000 0.000000" charge=0
C	-1.456546	0.096824	-0.506902	6
C	0.055994	0.060584	-0.506822	6
C	0.765624	1.024244	0.443128	6
O	1.786783	0.072664	0.820248	8
S	0.855144	-1.208956	0.411158	16
O	0.096143	-1.634286	1.564228	8
O	1.612514	-2.101686	-0.436062	8
H	-1.861636	-0.748456	-1.072292	1
H	-1.818156	1.017484	-0.976102	1
H	-1.867706	0.053804	0.506838	1
H	0.451324	0.110704	-1.528992	1
H	0.186684	1.346794	1.316888	1
H	1.193834	1.910284	-0.035312	1
Es	0.369706	0.574055	-0.046647	99
Es	0.056017	0.060517	-0.506732	99
Es	-1.680860	0.719530	-0.825647	99
Es	0.332889	0.085069	-1.175411	99
Es	0.855260	-1.209209	0.411362	99
Es	1.786441	0.072599	0.820070	99
Es	0.096321	-1.634156	1.563956	99
Es	0.765795	1.024020	0.443154	99
Es	0.758625	-1.278254	0.415920	99
Es	1.697149	-1.843238	-0.589196	99
Es	1.397393	0.425112	0.708795	99
Es	0.361664	1.233602	1.030583	99
Es	-1.722638	0.072494	0.178140	99
Es	1.485807	-0.370610	0.715621	99
Es	0.357242	-0.596353	-0.119631	99
Es	0.823074	-1.094118	0.418690	99
Es	1.612426	-2.101586	-0.436015	99
Es	1.312705	-2.040544	-0.434100	99
Es	1.421335	-1.804579	-0.023600	99
Es	-1.456457	0.096828	-0.506916	99
Es	1.834308	0.061440	1.100582	99
Es	0.353494	-1.628770	1.565907	99
Es	1.056906	1.614303	0.113986	99
Es	0.007768	-1.878076	1.473330	99
Es	0.909528	-1.229104	0.498855	99
Es	1.987888	0.075055	0.585453	99
Es	0.350279	-1.505963	1.093751	99
Es	0.929576	-1.233838	0.311167	99
Es	1.688613	-2.346141	-0.330909	99
Es	-0.682766	0.067260	-0.498294	99
Es	-0.012395	-1.341510	1.627332	99
Es	-1.718527	-0.471713	-0.891099	99
45
Properties=species:S:1:pos:R:3:Z:I:1 energy=-739.2859373674266 field_type=dipole dipole="0.000000 0.000000 0.000000" charge=0
C	-1.456546	0.096824	-0.506902	6
C	0.055994	0.060584	-0.506822	6
C	0.765624	1.024244	0.443128	6
O	1.786783	0.072664	0.820248	8
S	0.855144	-1.208956	0.411158	16
O	0.096143	-1.634286	1.564228	8
O	1.612514	-2.101686	-0.436062	8
H	-1.861636	-0.748456	-1.072292	1
H	-1.818156	1.017484	-0.976102	1
H	-1.867706	0.053804	0.506838	1
H	0.451324	0.110704	-1.528992	1
H	0.186684	1.346794	1.316888	1
H	1.193834	1.910284	-0.035312	1
Es	0.177275	-1.881360	1.608905	99
Es	1.986491	0.076675	0.584099	99
Es	0.855149	-1.208952	0.411186	99
Es	0.781153	-1.279115	0.371369	99
Es	1.704202	-1.845158	-0.585335	99
Es	1.670577	-2.355899	-0.343547	99
Es	0.020365	-1.624104	1.282054	99
Es	0.361997	1.233781	1.030853	99
Es	0.473288	-1.501214	1.198051	99
Es	1.430519	-1.808997	-0.017991	99
Es	0.828495	-1.115501	0.366512	99
Es	0.765788	1.024028	0.443153	99
Es	-0.682765	0.067257	-0.498273	99
Es	0.332766	0.084206	-1.175650	99
Es	0.841344	-1.199413	0.536749	99
Es	1.484599	-0.371970	0.716102	99
Es	-1.679917	0.718695	-0.824836	99
Es	1.835849	0.062611	1.100266	99
Es	-1.722663	0.073362	0.178370	99
Es	0.096260	-1.634205	1.564024	99
Es	0.969846	-1.241555	0.370109	99
Es	0.356881	-0.595688	-0.119942	99
Es	-1.456457	0.096827	-0.506916	99
Es	0.056018	0.060516	-0.506733	99
Es	0.369587	0.574499	-0.046451	99
Es	1.057232	1.614138	0.114320	99
Es	1.612362	-2.101518	-0.435910	99
Es	1.398051	0.424120	0.709820	99
Es	1.786506	0.072615	0.820134	99
Es	0.028288	-1.347620	1.671233	99
Es	-1.719048	-0.472418	-0.892240	99
Es	1.314528	-2.024520	-0.431023	99
45
Properties=species:S:1:pos:R:3:Z:I:1 energy=-739.2859373674266 field_type=dipole dipole="0.000000 0.000000 0.000000" charge=0
C	-1.456546	0.096824	-0.506902	6
C	0.055994	0.060584	-0.506822	6
C	0.765624	1.024244	0.443128	6
O	1.786783	0.072664	0.820248	8
S	0.855144	-1.208956	0.411158	16
O	0.096143	-1.634286	1.564228	8
O	1.612514	-2.101686	-0.436062	8
H	-1.861636	-0.748456	-1.072292	1
H	-1.818156	1.017484	-0.976102	1
H	-1.867706	0.053804	0.506838	1
H	0.451324	0.110704	-1.528992	1
H	0.186684	1.346794	1.316888	1
H	1.193834	1.910284	-0.035312	1
Es	0.830020	-1.321104	0.438609	99
Es	0.361458	1.233546	1.030676	99
Es	0.010853	-1.876392	1.454199	99
Es	-1.456458	0.096828	-0.506916	99
Es	1.313735	-2.043754	-0.423945	99
Es	1.697969	-2.346116	-0.336885	99
Es	1.612398	-2.101573	-0.435982	99
Es	1.786488	0.072604	0.820136	99
Es	0.370017	0.574039	-0.046362	99
Es	-0.017339	-1.349720	1.640251	99
Es	0.096319	-1.634169	1.563970	99
Es	1.484834	-0.370224	0.718057	99
Es	-0.682733	0.067148	-0.498271	99
Es	0.779018	-1.179691	0.351871	99
Es	1.991144	0.073243	0.586274	99
Es	1.831284	0.062585	1.099257	99
Es	0.765792	1.024022	0.443153	99
Es	1.681575	-1.840484	-0.594975	99
Es	0.960110	-1.199312	0.342945	99
Es	0.357221	-0.596315	-0.119661	99
Es	0.345564	-1.634996	1.565004	99
Es	1.426593	-1.804188	-0.021981	99
Es	0.332898	0.085131	-1.175477	99
Es	1.056892	1.614298	0.113686	99
Es	0.056017	0.060516	-0.506731	99
Es	-1.680794	0.719520	-0.825706	99
Es	-1.722696	0.072505	0.178215	99
Es	1.398030	0.425268	0.706659	99
Es	-1.718606	-0.471503	-0.891002	99
Es	0.360057	-1.493202	1.100859	99
Es	0.854914	-1.208802	0.410996	99
Es	0.851989	-1.135585	0.511535	99
45
Properties=species:S:1:pos:R:3:Z:I:1 energy=-739.2859373674266 field_type=dipole dipole="0.000000 0.000000 0.000000" charge=0
C	-1.456546	0.096824	-0.506902	6
C	0.055994	0.060584	-0.506822	6
C	0.765624	1.024244	0.443128	6
O	1.786783	0.072664	0.820248	8
S	0.855144	-1.208956	0.411158	16
O	0.096143	-1.634286	1.564228	8
O	1.612514	-2.101686	-0.436062	8
H	-1.861636	-0.748456	-1.072292	1
H	-1.818156	1.017484	-0.976102	1
H	-1.867706	0.053804	0.506838	1
H	0.451324	0.110704	-1.528992	1
H	0.186684	1.346794	1.316888	1
H	1.193834	1.910284	-0.035312	1
Es	0.474799	-1.507810	1.195916	99
Es	0.332825	0.084105	-1.175670	99
Es	-1.719227	-0.472389	-0.892280	99
Es	-0.682641	0.067218	-0.498400	99
Es	1.397652	0.423544	0.708709	99
Es	0.369619	0.574580	-0.046537	99
Es	1.431298	-1.801392	-0.020867	99
Es	0.019739	-1.624146	1.283687	99
Es	0.096300	-1.634171	1.563974	99
Es	0.864229	-1.104473	0.376201	99
Es	0.857786	-1.209886	0.410712	99
Es	1.990344	0.078527	0.587532	99
Es	0.172241	-1.879432	1.615315	99
Es	-1.679828	0.718363	-0.824726	99
Es	0.751032	-1.226783	0.487722	99
Es	1.700396	-1.851056	-0.594000	99
Es	-1.456458	0.096828	-0.506916	99
Es	0.032355	-1.342897	1.665366	99
Es	1.486139	-0.371742	0.712695	99
Es	0.882074	-1.290727	0.317359	99
Es	1.786510	0.072611	0.820127	99
Es	1.612349	-2.101497	-0.435882	99
Es	0.056017	0.060517	-0.506731	99
Es	0.356815	-0.595537	-0.120090	99
Es	1.313717	-2.030893	-0.427945	99
Es	1.057235	1.613946	0.114502	99
Es	0.765793	1.024021	0.443153	99
Es	0.361996	1.233912	1.030932	99
Es	1.830865	0.061110	1.101344	99
Es	1.674402	-2.351274	-0.335136	99
Es	-1.722728	0.073598	0.178424	99
Es	0.920918	-1.212651	0.463969	99
45
Properties=species:S:1:pos:R:3:Z:I:1 energy=-739.2859373674266 field_type=dipole dipole="0.000000 0.000000 0.000000" charge=0
C	-1.456546	0.096824	-0.506902	6
C	0.055994	0.060584	-0.506822	6
C	0.765624	1.024244	0.443128	6
O	1.786783	0.072664	0.820248	8
S	0.855144	-1.208956	0.411158	16
O	0.096143	-1.634286	1.564228	8
O	1.612514	-2.101686	-0.436062	8
H	-1.861636	-0.748456	-1.072292	1
H	-1.818156	1.017484	-0.976102	1
H	-1.867706	0.053804	0.506838	1
H	0.451324	0.110704	-1.528992	1
H	0.186684	1.346794	1.316888	1
H	1.193834	1.910284	-0.035312	1
Es	1.485483	-0.371409	0.713324	99
Es	0.765794	1.024021	0.443153	99
Es	-1.679696	0.718210	-0.824651	99
Es	1.320093	-2.031053	-0.430064	99
Es	1.987235	0.078044	0.585039	99
Es	0.827565	-1.315811	0.443479	99
Es	0.476347	-1.506306	1.199062	99
Es	0.162492	-1.886850	1.598153	99
Es	1.612340	-2.101475	-0.435814	99
Es	1.422273	-1.808572	-0.018333	99
Es	0.056011	0.060519	-0.506734	99
Es	0.024922	-1.611471	1.284437	99
Es	0.761733	-1.130192	0.433646	99
Es	0.096315	-1.634174	1.563939	99
Es	-1.722841	0.073677	0.178471	99
Es	-1.456457	0.096828	-0.506916	99
Es	1.699712	-1.843139	-0.588022	99
Es	1.057217	1.613938	0.114450	99
Es	0.332845	0.084101	-1.175767	99
Es	-0.682640	0.067136	-0.498281	99
Es	0.854579	-1.209854	0.411584	99
Es	0.369600	0.574437	-0.046436	99
Es	0.931862	-1.182270	0.474109	99
Es	1.397744	0.423880	0.710343	99
Es	0.900341	-1.206376	0.293140	99
Es	0.356755	-0.595419	-0.120145	99
Es	1.786466	0.072622	0.820122	99
Es	0.362006	1.233926	1.030954	99
Es	0.035393	-1.349641	1.678697	99
Es	-1.719256	-0.472354	-0.892414	99
Es	1.834608	0.060985	1.101587	99
Es	1.677725	-2.351834	-0.341654	99
45
Properties=species:S:1:pos:R:3:Z:I:1 energy=-739.2859373674266 field_type=dipole dipole="0.000000 0.000000 0.000000" charge=0
C	-1.456546	0.096824	-0.506902	6
C	0.055994	0.060584	-0.506822	6
C	0.765624	1.024244	0.443128	6
O	1.786783	0.072664	0.820248	8
S	0.855144	-1.208956	0.411158	16
O	0.096143	-1.634286	1.564228	8
O	1.612514	-2.101686	-0.436062	8
H	-1.861636	-0.748456	-1.072292	1
H	-1.818156	1.017484	-0.976102	1
H	-1.867706	0.053804	0.506838	1
H	0.451324	0.110704	-1.528992	1
H	0.186684	1.346794	1.316888	1
H	1.193834	1.910284	-0.035312	1
Es	1.684955	-2.350584	-0.335801	99
Es	1.612444	-2.101627	-0.435963	99
Es	0.950421	-1.168667	0.444793	99
Es	0.333019	0.084971	-1.175506	99
Es	0.346005	-1.635084	1.568929	99
Es	0.362020	-1.494645	1.101540	99
Es	1.056890	1.614147	0.113882	99
Es	1.485717	-0.370494	0.716193	99
Es	-0.682830	0.067183	-0.498367	99
Es	-1.722845	0.072584	0.178395	99
Es	0.361513	1.233663	1.030734	99
Es	1.328699	-2.036562	-0.430455	99
Es	1.409358	-1.806481	-0.023133	99
Es	1.990015	0.074682	0.586354	99
Es	-1.456459	0.096828	-0.506916	99
Es	0.813953	-1.130052	0.350138	99
Es	-0.020198	-1.349232	1.636587	99
Es	1.786462	0.072619	0.820133	99
Es	0.369919	0.574091	-0.046533	99
Es	1.832019	0.062026	1.100543	99
Es	0.780849	-1.225979	0.511070	99
Es	-1.718552	-0.471474	-0.891215	99
Es	1.397588	0.424716	0.707186	99
Es	0.357148	-0.596184	-0.119657	99
Es	0.011353	-1.875304	1.453296	99
Es	0.096295	-1.634171	1.563953	99
Es	0.875774	-1.310931	0.338860	99
Es	0.056018	0.060517	-0.506731	99
Es	-1.680602	0.719290	-0.825644	99
Es	0.765793	1.024022	0.443153	99
Es	1.696770	-1.840862	-0.588480	99
Es	0.855057	-1.208881	0.411123	99
45
Properties=species:S:1:pos:R:3:Z:I:1 energy=-739.2859373674266 field_type=dipole dipole="0.000000 0.000000 0.000000" charge=0
C	-1.456546	0.096824	-0.506902	6
C	0.055994	0.060584	-0.506822	6
C	0.765624	1.024244	0.443128	6
O	1.786783	0.072664	0.820248	8
S	0.855144	-1.208956	0.411158	16
O	0.096143	-1.634286	1.564228	8
O	1.612514	-2.101686	-0.436062	8
H	-1.861636	-0.748456	-1.072292	1
H	-1.818156	1.017484	-0.976102	1
H	-1.867706	0.053804	0.506838	1
H	0.451324	0.110704	-1.528992	1
H	0.186684	1.346794	1.316888	1
H	1.193834	1.910284	-0.035312	1
Es	1.485706	-0.370520	0.713814	99
Es	0.036197	-1.346208	1.676634	99
Es	0.369807	0.574325	-0.046614	99
Es	0.356785	-0.595465	-0.120017	99
Es	0.847270	-1.279010	0.308650	99
Es	1.057069	1.613740	0.114388	99
Es	1.693492	-1.847936	-0.595985	99
Es	-1.723087	0.073478	0.178643	99
Es	1.429448	-1.802085	-0.020549	99
Es	-1.718973	-0.471975	-0.892166	99
Es	0.933610	-1.241826	0.459812	99
Es	1.786454	0.072585	0.820124	99
Es	-0.682676	0.067238	-0.498233	99
Es	1.315705	-2.034746	-0.424918	99
Es	0.361746	1.233998	1.030999	99
Es	1.397623	0.423927	0.709255	99
Es	0.479297	-1.513529	1.199547	99
Es	0.333005	0.084259	-1.175887	99
Es	1.681237	-2.349834	-0.336637	99
Es	1.612330	-2.101472	-0.435770	99
Es	-1.456461	0.096830	-0.506916	99
Es	0.881822	-1.095619	0.385696	99
Es	0.150388	-1.888672	1.596290	99
Es	-1.679797	0.718209	-0.824963	99
Es	1.833679	0.060983	1.102043	99
Es	0.765794	1.024020	0.443154	99
Es	0.757645	-1.219023	0.490151	99
Es	0.033291	-1.605799	1.287853	99
Es	0.096289	-1.634183	1.563987	99
Es	1.988174	0.076975	0.585152	99
Es	0.855682	-1.209064	0.411655	99
Es	0.056013	0.060520	-0.506734	99
45
Properties=species:S:1:pos:R:3:Z:I:1 energy=-739.2859373674266 field_type=dipole dipole="0.000000 0.000000 0.000000" charge=0
C	-1.456546	0.096824	-0.506902	6
C	0.055994	0.060584	-0.506822	6
C	0.765624	1.024244	0.443128	6
O	1.786783	0.072664	0.820248	8
S	0.855144	-1.208956	0.411158	16
O	0.096143	-1.634286	1.564228	8
O	1.612514	-2.101686	-0.436062	8
H	-1.861636	-0.748456	-1.072292	1
H	-1.818156	1.017484	-0.976102	1
H	-1.867706	0.053804	0.506838	1
H	0.451324	0.110704	-1.528992	1
H	0.186684	1.346794	1.316888	1
H	1.193834	1.910284	-0.035312	1
Es	0.345064	-1.629979	1.561464	99
Es	0.333136	0.084851	-1.175586	99
Es	1.693096	-2.349928	-0.343959	99
Es	1.832047	0.061127	1.099861	99
Es	0.797528	-1.308218	0.408076	99
Es	0.370080	0.573943	-0.046683	99
Es	-1.722955	0.072743	0.178388	99
Es	0.357345	-1.499432	1.096994	99
Es	1.689262	-1.835331	-0.584041	99
Es	-0.015438	-1.346578	1.636680	99
Es	0.361441	1.233644	1.030791	99
Es	0.056018	0.060516	-0.506731	99
Es	-1.680584	0.719036	-0.825590	99
Es	1.397138	0.424802	0.708704	99
Es	0.916359	-1.186173	0.301467	99
Es	0.765793	1.024023	0.443153	99
Es	0.921240	-1.225661	0.472206	99
Es	1.416352	-1.811336	-0.019211	99
Es	0.855468	-1.209292	0.411568	99
Es	-1.718706	-0.471359	-0.891162	99
Es	1.990328	0.075108	0.585734	99
Es	0.785445	-1.115171	0.462669	99
Es	1.321259	-2.037931	-0.430725	99
Es	0.012178	-1.878233	1.465186	99
Es	0.357029	-0.596012	-0.119647	99
Es	1.485807	-0.370028	0.715966	99
Es	1.612356	-2.101507	-0.435891	99
Es	0.096291	-1.634188	1.563985	99
Es	-0.682745	0.067191	-0.498320	99
Es	-1.456459	0.096828	-0.506916	99
Es	1.786468	0.072565	0.820100	99
Es	1.056924	1.614104	0.113929	99
45
Properties=species:S:1:pos:R:3:Z:I:1 energy=-739.2859373674266 field_type=dipole dipole="0.000000 0.000000 0.000000" charge=0
C	-1.456546	0.096824	-0.506902	6
C	0.055994	0.060584	-0.506822	6
C	0.765624	1.024244	0.443128	6
O	1.786783	0.072664	0.820248	8
S	0.855144	-1.208956	0.411158	16
O	0.096143	-1.634286	1.564228	8
O	1.612514	-2.101686	-0.436062	8
H	-1.861636	-0.748456	-1.072292	1
H	-1.818156	1.017484	-0.976102	1
H	-1.867706	0.053804	0.506838	1
H	0.451324	0.110704	-1.528992	1
H	0.186684	1.346794	1.316888	1
H	1.193834	1.910284	-0.035312	1
Es	0.013684	-1.634629	1.280005	99
Es	0.758764	-1.208584	0.375718	99
Es	1.657947	-2.364500	-0.358187	99
Es	0.361932	1.233892	1.031015	99
Es	-1.722888	0.073750	0.178695	99
Es	1.612280	-2.101491	-0.435807	99
Es	-1.679697	0.718013	-0.824778	99
Es	0.854320	-1.208001	0.411738	99
Es	-1.456458	0.096830	-0.506918	99
Es	0.765792	1.024022	0.443153	99
Es	-1.719125	-0.472310	-0.892349	99
Es	1.829787	0.061728	1.101965	99
Es	1.485645	-0.370991	0.713700	99
Es	0.369549	0.574521	-0.046378	99
Es	0.023869	-1.349184	1.671949	99
Es	0.850755	-1.264535	0.517626	99
Es	0.472776	-1.499200	1.196816	99
Es	1.713154	-1.838736	-0.571982	99
Es	0.332998	0.083995	-1.175933	99
Es	1.991556	0.077721	0.587109	99
Es	1.397997	0.422984	0.707506	99
Es	0.356633	-0.595267	-0.120008	99
Es	0.056018	0.060517	-0.506730	99
Es	0.188831	-1.871318	1.611532	99
Es	1.786453	0.072633	0.820085	99
Es	1.409613	-1.817706	-0.015691	99
Es	0.096302	-1.634172	1.563974	99
Es	1.057253	1.613933	0.114401	99
Es	0.881806	-1.097099	0.426962	99
Es	-0.682626	0.067165	-0.498428	99
Es	1.339262	-2.013579	-0.432211	99
Es	0.930384	-1.266278	0.323908	99
45
Properties=species:S:1:pos:R:3:Z:I:1 energy=-739.2859373674266 field_type=dipole dipole="0.000000 0.000000 0.000000" charge=0
C	-1.456546	0.096824	-0.506902	6
C	0.055994	0.060584	-0.506822	6
C	0.765624	1.024244	0.443128	6
O	1.786783	0.072664	0.820248	8
S	0.855144	-1.208956	0.411158	16
O	0.096143	-1.634286	1.564228	8
O	1.612514	-2.101686	-0.436062	8
H	-1.861636	-0.748456	-1.072292	1
H	-1.818156	1.017484	-0.976102	1
H	-1.867706	0.053804	0.506838	1
H	0.451324	0.110704	-1.528992	1
H	0.186684	1.346794	1.316888	1
H	1.193834	1.910284	-0.035312	1
Es	-1.718417	-0.471858	-0.891522	99
Es	-0.009956	-1.348607	1.646142	99
Es	0.002730	-1.863239	1.449774	99
Es	1.635533	-1.845374	-0.620945	99
Es	0.361814	1.234009	1.030838	99
Es	1.665994	-1.969470	-0.218466	99
Es	0.369259	0.574248	-0.046699	99
Es	0.096454	-1.634117	1.563777	99
Es	0.885329	-1.112222	0.356417	99
Es	-1.456456	0.096833	-0.506919	99
Es	0.854592	-1.209133	0.410898	99
Es	0.828137	-1.186950	0.533495	99
Es	1.612369	-2.101516	-0.435908	99
Es	1.834414	0.062553	1.107647	99
Es	0.344605	-1.494333	1.094728	99
Es	0.356757	-0.596502	-0.119590	99
Es	-0.682631	0.067245	-0.498374	99
Es	0.938213	-1.299221	0.389406	99
Es	1.246235	-1.842559	-0.121169	99
Es	1.485576	-0.368128	0.714302	99
Es	-1.722606	0.072680	0.178680	99
Es	1.056844	1.613811	0.114236	99
Es	0.769795	-1.236974	0.365786	99
Es	0.765795	1.024019	0.443153	99
Es	1.786492	0.072621	0.820125	99
Es	0.056017	0.060515	-0.506731	99
Es	1.398955	0.423711	0.703515	99
Es	0.361717	-1.648081	1.569966	99
Es	-1.680328	0.719382	-0.825656	99
Es	0.332793	0.084955	-1.175960	99
Es	1.572188	-2.377060	-0.417447	99
Es	1.986354	0.072884	0.584961	99
45
Properties=species:S:1:pos:R:3:Z:I:1 energy=-739.2859373674266 field_type=dipole dipole="0.000000 0.000000 0.000000" charge=0
C	-1.456546	0.096824	-0.506902	6
C	0.055994	0.060584	-0.506822	6
C	0.765624	1.024244	0.443128	6
O	1.786783	0.072664	0.820248	8
S	0.855144	-1.208956	0.411158	16
O	0.096143	-1.634286	1.564228	8
O	1.612514	-2.101686	-0.436062	8
H	-1.861636	-0.748456	-1.072292	1
H	-1.818156	1.017484	-0.976102	1
H	-1.867706	0.053804	0.506838	1
H	0.451324	0.110704	-1.528992	1
H	0.186684	1.346794	1.316888	1
H	1.193834	1.910284	-0.035312	1
Es	0.855586	-1.208840	0.411833	99
Es	0.361233	-1.475266	1.109030	99
Es	-1.718350	-0.471851	-0.891478	99
Es	0.056017	0.060516	-0.506732	99
Es	1.630054	-1.839985	-0.619961	99
Es	1.398676	0.423940	0.704918	99
Es	1.984645	0.074424	0.585476	99
Es	-0.008328	-1.357892	1.660577	99
Es	-0.010664	-1.836666	1.404811	99
Es	1.254019	-1.844579	-0.107961	99
Es	0.369392	0.574243	-0.046337	99
Es	1.836302	0.063237	1.105689	99
Es	0.332522	0.085150	-1.175990	99
Es	0.945379	-1.204877	0.461857	99
Es	1.585202	-2.380449	-0.415907	99
Es	0.357002	-1.684486	1.585944	99
Es	1.485586	-0.370581	0.714369	99
Es	1.786442	0.072619	0.820091	99
Es	1.612325	-2.101495	-0.435846	99
Es	-0.682692	0.067068	-0.498175	99
Es	-1.680189	0.719774	-0.825822	99
Es	0.096294	-1.634189	1.563978	99
Es	-1.456457	0.096826	-0.506917	99
Es	0.851028	-1.110418	0.353937	99
Es	0.361753	1.233727	1.030738	99
Es	1.056947	1.614170	0.114010	99
Es	0.765792	1.024021	0.443154	99
Es	0.863585	-1.303107	0.332578	99
Es	1.650659	-1.969512	-0.234253	99
Es	0.356846	-0.596689	-0.119618	99
Es	0.760497	-1.217271	0.495794	99
Es	-1.722536	0.072560	0.178673	99
45
Properties=species:S:1:pos:R:3:Z:I:1 energy=-739.2859373674266 field_type=dipole dipole="0.000000 0.000000 0.000000" charge=0
C	-1.456546	0.096824	-0.506902	6
C	0.055994	0.060584	-0.506822	6
C	0.765624	1.024244	0.443128	6
O	1.786783	0.072664	0.820248	8
S	0.855144	-1.208956	0.411158	16
O	0.096143	-1.634286	1.564228	8
O	1.612514	-2.101686	-0.436062	8
H	-1.861636	-0.748456	-1.072292	1
H	-1.818156	1.017484	-0.976102	1
H	-1.867706	0.053804	0.506838	1
H	0.451324	0.110704	-1.528992	1
H	0.186684	1.346794	1.316888	1
H	1.193834	1.910284	-0.035312	1
Es	-0.682574	0.067066	-0.498306	99
Es	-0.007547	-1.670824	1.290068	99
Es	0.869114	-1.295711	0.317357	99
Es	1.398629	0.423104	0.704335	99
Es	-1.718742	-0.472018	-0.891864	99
Es	1.786459	0.072610	0.820121	99
Es	1.486415	-0.369074	0.712246	99
Es	-1.722606	0.073004	0.178671	99
Es	0.361911	1.234226	1.030929	99
Es	0.232987	-1.846848	1.625561	99
Es	0.453224	-1.488982	1.178446	99
Es	0.855145	-1.208951	0.411160	99
Es	0.851319	-1.095414	0.373104	99
Es	0.765795	1.024020	0.443153	99
Es	0.056018	0.060518	-0.506730	99
Es	1.056858	1.613519	0.114599	99
Es	0.369392	0.574522	-0.046846	99
Es	0.096297	-1.634187	1.563981	99
Es	1.612334	-2.101488	-0.435851	99
Es	1.539010	-2.372531	-0.432714	99
Es	0.332679	0.084465	-1.176043	99
Es	1.835962	0.062287	1.108737	99
Es	0.020510	-1.347590	1.666282	99
Es	1.984348	0.074905	0.585142	99
Es	1.655985	-1.995741	-0.229852	99
Es	1.264990	-1.825889	-0.104311	99
Es	0.356588	-0.596060	-0.119865	99
Es	0.766163	-1.232211	0.492678	99
Es	-1.456458	0.096828	-0.506916	99
Es	1.660063	-1.840281	-0.611199	99
Es	-1.680033	0.719077	-0.825315	99
Es	0.934328	-1.212229	0.461704	99
45
Properties=species:S:1:pos:R:3:Z:I:1 energy=-739.2859373674266 field_type=dipole dipole="0.000000 0.000000 0.000000" charge=0
C	-1.456546	0.096824	-0.506902	6
C	0.055994	0.060584	-0.506822	6
C	0.765624	1.024244	0.443128	6
O	1.786783	0.072664	0.820248	8
S	0.855144	-1.208956	0.411158	16
O	0.096143	-1.634286	1.564228	8
O	1.612514	-2.101686	-0.436062	8
H	-1.861636	-0.748456	-1.072292	1
H	-1.818156	1.017484	-0.976102	1
H	-1.867706	0.053804	0.506838	1