44
Properties=species:S:1:pos:R:3:Z:I:1 energy=-645.4772635491416 field_type=dipole dipole="0.000000 0.000000 0.000000" charge=0
C	-1.728167	0.540759	-0.005681	6
C	-0.236027	0.552759	0.000999	6
C	0.530533	1.705128	0.004049	6
S	2.211073	1.389338	0.012429	16
C	1.941823	-0.298491	0.012359	6
C	0.602383	-0.604742	0.005579	6
N	0.144543	-1.869511	0.003969	7
H	-2.136927	1.556418	0.002789	1
H	-2.109897	0.016519	0.876299	1
H	-2.101397	0.034369	-0.901611	1
H	0.182283	2.728868	0.001889	1
H	2.782473	-0.976891	0.017349	1
H	-0.843137	-2.098442	-0.019761	1
H	0.760433	-2.676081	-0.010651	1
Es	2.153850	1.378187	0.111037	99
Es	0.519217	-2.341895	-0.032589	99
Es	2.507891	-0.753579	0.015492	99
Es	-1.998147	1.228252	-0.000154	99
Es	0.144565	-1.869423	0.004744	99
Es	-1.978278	0.180803	0.589511	99
Es	0.335210	-1.333123	-0.085470	99
Es	2.319926	1.510136	0.443323	99
Es	2.182147	1.296394	-0.056751	99
Es	-1.972387	0.192942	-0.610265	99
Es	1.331449	-0.384588	-0.304246	99
Es	2.101812	0.507098	0.012619	99
Es	1.340050	1.581828	0.007813	99
Es	0.530716	1.705172	0.004051	99
Es	0.165186	1.083825	0.316451	99
Es	-0.978344	0.540562	-0.002417	99
Es	-1.728113	0.540748	-0.005681	99
Es	0.602276	-0.604896	0.005580	99
Es	1.941910	-0.298334	0.012355	99
Es	2.326419	1.510264	-0.417389	99
Es	-0.236068	0.552719	0.000993	99
Es	0.141965	-0.064211	0.002943	99
Es	2.325633	1.387617	0.035015	99
Es	0.168175	1.083377	-0.311263	99
Es	-0.445178	-1.994109	-0.040321	99
Es	0.301837	2.392343	0.002615	99
Es	2.212438	1.390412	0.012496	99
Es	1.328451	-0.385258	0.323246	99
Es	2.178671	1.492682	-0.039656	99
Es	0.171309	-1.788334	0.160881	99
44
Properties=species:S:1:pos:R:3:Z:I:1 energy=-645.4772635491416 field_type=dipole dipole="0.000000 0.000000 0.000000" charge=0
C	-1.728167	0.540759	-0.005681	6
C	-0.236027	0.552759	0.000999	6
C	0.530533	1.705128	0.004049	6
S	2.211073	1.389338	0.012429	16
C	1.941823	-0.298491	0.012359	6
C	0.602383	-0.604742	0.005579	6
N	0.144543	-1.869511	0.003969	7
H	-2.136927	1.556418	0.002789	1
H	-2.109897	0.016519	0.876299	1
H	-2.101397	0.034369	-0.901611	1
H	0.182283	2.728868	0.001889	1
H	2.782473	-0.976891	0.017349	1
H	-0.843137	-2.098442	-0.019761	1
H	0.760433	-2.676081	-0.010651	1
Es	1.341729	1.589190	-0.033338	99
Es	0.144581	-1.869401	0.003248	99
Es	1.330358	-0.388348	-0.303845	99
Es	0.521275	-2.343110	-0.004030	99
Es	2.595935	1.664171	-0.154405	99
Es	2.093499	1.407473	-0.014162	99
Es	-0.450681	-1.996330	-0.020664	99
Es	-1.728111	0.540749	-0.005682	99
Es	-0.977436	0.540143	-0.003484	99
Es	0.167303	1.081648	-0.308292	99
Es	2.043666	1.357781	0.242175	99
Es	0.301675	2.391376	0.003362	99
Es	-0.236068	0.552717	0.000999	99
Es	2.506447	-0.753435	0.017449	99
Es	-1.998967	1.227106	0.000572	99
Es	1.941909	-0.298333	0.012341	99
Es	-1.974029	0.191902	-0.610039	99
Es	2.211033	1.389256	0.012239	99
Es	2.107910	0.505319	-0.005357	99
Es	-1.977838	0.182662	0.587681	99
Es	0.167077	1.079446	0.317699	99
Es	0.342361	-1.314668	0.012192	99
Es	2.214353	1.345962	0.108766	99
Es	2.254338	1.307844	-0.059135	99
Es	2.280117	1.494637	0.012835	99
Es	0.530716	1.705171	0.004049	99
Es	0.143308	-0.063491	-0.002744	99
Es	1.329325	-0.381277	0.322713	99
Es	0.166529	-1.803652	0.016239	99
Es	0.602275	-0.604897	0.005578	99
44
Properties=species:S:1:pos:R:3:Z:I:1 energy=-645.4772635491416 field_type=dipole dipole="0.000000 0.000000 0.000000" charge=0
C	-1.728167	0.540759	-0.005681	6
C	-0.236027	0.552759	0.000999	6
C	0.530533	1.705128	0.004049	6
S	2.211073	1.389338	0.012429	16
C	1.941823	-0.298491	0.012359	6
C	0.602383	-0.604742	0.005579	6
N	0.144543	-1.869511	0.003969	7
H	-2.136927	1.556418	0.002789	1
H	-2.109897	0.016519	0.876299	1
H	-2.101397	0.034369	-0.901611	1
H	0.182283	2.728868	0.001889	1
H	2.782473	-0.976891	0.017349	1
H	-0.843137	-2.098442	-0.019761	1
H	0.760433	-2.676081	-0.010651	1
Es	2.237825	1.481345	0.083491	99
Es	0.520227	-2.341861	-0.013791	99
Es	2.619818	1.681065	0.064125	99
Es	2.108427	1.318110	0.052551	99
Es	2.108789	0.503525	0.020424	99
Es	0.143668	-0.063645	0.005173	99
Es	-1.728112	0.540748	-0.005681	99
Es	0.342274	-1.315994	-0.023091	99
Es	1.337089	1.592181	0.025058	99
Es	2.193487	1.429609	-0.085919	99
Es	0.167225	-1.803159	0.056146	99
Es	-1.972701	0.193985	-0.609557	99
Es	-0.451120	-1.997499	-0.013425	99
Es	0.144829	-1.868691	0.001906	99
Es	1.331564	-0.382592	-0.305426	99
Es	0.165875	1.080800	0.316051	99
Es	2.505617	-0.752867	0.014887	99
Es	2.025062	1.341064	-0.064881	99
Es	0.602276	-0.604897	0.005572	99
Es	0.302074	2.390932	0.002297	99
Es	-0.236069	0.552717	0.000998	99
Es	0.169923	1.079326	-0.312350	99
Es	-1.979632	0.180803	0.589316	99
Es	1.326050	-0.387086	0.323500	99
Es	1.941902	-0.298336	0.012359	99
Es	-1.998571	1.226139	-0.000519	99
Es	-0.977427	0.540135	-0.001894	99
Es	0.530719	1.705172	0.004049	99
Es	2.211187	1.389063	0.012355	99
Es	2.302315	1.327518	0.001236	99
44
Properties=species:S:1:pos:R:3:Z:I:1 energy=-645.4772635491416 field_type=dipole dipole="0.000000 0.000000 0.000000" charge=0
C	-1.728167	0.540759	-0.005681	6
C	-0.236027	0.552759	0.000999	6
C	0.530533	1.705128	0.004049	6
S	2.211073	1.389338	0.012429	16
C	1.941823	-0.298491	0.012359	6
C	0.602383	-0.604742	0.005579	6
N	0.144543	-1.869511	0.003969	7
H	-2.136927	1.556418	0.002789	1
H	-2.109897	0.016519	0.876299	1
H	-2.101397	0.034369	-0.901611	1
H	0.182283	2.728868	0.001889	1
H	2.782473	-0.976891	0.017349	1
H	-0.843137	-2.098442	-0.019761	1
H	0.760433	-2.676081	-0.010651	1
Es	2.622580	1.682875	0.011591	99
Es	0.169483	1.079908	-0.311067	99
Es	-1.979253	0.181442	0.588817	99
Es	1.329171	-0.385575	-0.305221	99
Es	2.505046	-0.752729	0.015536	99
Es	0.167277	1.078720	0.316875	99
Es	0.301967	2.390558	0.002647	99
Es	0.602274	-0.604899	0.005579	99
Es	-0.451355	-1.998189	-0.013770	99
Es	0.530718	1.705171	0.004041	99
Es	2.211030	1.389349	0.012445	99
Es	1.941902	-0.298336	0.012349	99
Es	1.326795	-0.383633	0.323844	99
Es	0.144593	-1.869367	0.003086	99
Es	0.343098	-1.315027	-0.009394	99
Es	2.123373	1.307101	-0.041658	99
Es	-0.236072	0.552715	0.000998	99
Es	0.144157	-0.063331	0.002526	99
Es	-0.977298	0.539982	-0.002436	99
Es	0.166771	-1.803396	0.037311	99
Es	-1.973415	0.193584	-0.609709	99
Es	2.171573	1.430221	0.097101	99
Es	-1.998730	1.225701	-0.000083	99
Es	-1.728112	0.540749	-0.005682	99
Es	2.108774	0.503654	0.011002	99
Es	0.519967	-2.341312	-0.009720	99
Es	2.296659	1.335560	0.049473	99
Es	2.023948	1.340317	0.019928	99
Es	1.336846	1.592384	0.006929	99
Es	2.250819	1.483414	-0.058376	99
44
Properties=species:S:1:pos:R:3:Z:I:1 energy=-645.4772635491416 field_type=dipole dipole="0.000000 0.000000 0.000000" charge=0
C	-1.728167	0.540759	-0.005681	6
C	-0.236027	0.552759	0.000999	6
C	0.530533	1.705128	0.004049	6
S	2.211073	1.389338	0.012429	16
C	1.941823	-0.298491	0.012359	6
C	0.602383	-0.604742	0.005579	6
N	0.144543	-1.869511	0.003969	7
H	-2.136927	1.556418	0.002789	1
H	-2.109897	0.016519	0.876299	1
H	-2.101397	0.034369	-0.901611	1
H	0.182283	2.728868	0.001889	1
H	2.782473	-0.976891	0.017349	1
H	-0.843137	-2.098442	-0.019761	1
H	0.760433	-2.676081	-0.010651	1
Es	-1.728111	0.540748	-0.005680	99
Es	-0.236072	0.552716	0.000999	99
Es	2.024622	1.341086	0.001514	99
Es	-0.976977	0.539921	-0.002385	99
Es	0.602275	-0.604901	0.005583	99
Es	2.211051	1.389334	0.012425	99
Es	0.144652	-0.063191	0.003393	99
Es	2.622588	1.683407	0.018921	99
Es	0.343420	-1.314934	-0.006345	99
Es	-0.451423	-1.998685	-0.012915	99
Es	1.324912	-0.385438	0.323475	99
Es	2.108587	0.504053	0.013801	99
Es	-1.973406	0.193922	-0.609324	99
Es	1.329435	-0.383573	-0.305390	99
Es	1.941909	-0.298332	0.012361	99
Es	2.095457	1.330617	0.034910	99
Es	0.166681	-1.803367	0.031592	99
Es	-1.979561	0.181324	0.588592	99
Es	2.227401	1.394301	-0.086319	99
Es	1.337328	1.591808	0.009666	99
Es	0.530718	1.705173	0.004054	99
Es	-1.999022	1.225203	-0.000157	99
Es	2.227015	1.504080	0.056637	99
Es	0.167478	1.078751	0.316332	99
Es	2.292569	1.327181	0.047134	99
Es	0.144573	-1.869421	0.003301	99
Es	0.170310	1.079045	-0.311155	99
Es	0.519507	-2.340927	-0.008086	99
Es	2.504639	-0.752690	0.015517	99
Es	0.302033	2.390400	0.002509	99
44
Properties=species:S:1:pos:R:3:Z:I:1 energy=-645.4772635491416 field_type=dipole dipole="0.000000 0.000000 0.000000" charge=0
C	-1.728167	0.540759	-0.005681	6
C	-0.236027	0.552759	0.000999	6
C	0.530533	1.705128	0.004049	6
S	2.211073	1.389338	0.012429	16
C	1.941823	-0.298491	0.012359	6
C	0.602383	-0.604742	0.005579	6
N	0.144543	-1.869511	0.003969	7
H	-2.136927	1.556418	0.002789	1
H	-2.109897	0.016519	0.876299	1
H	-2.101397	0.034369	-0.901611	1
H	0.182283	2.728868	0.001889	1
H	2.782473	-0.976891	0.017349	1
H	-0.843137	-2.098442	-0.019761	1
H	0.760433	-2.676081	-0.010651	1
Es	0.166694	-1.803436	0.028289	99
Es	0.519201	-2.340228	-0.008975	99
Es	2.140855	1.466450	-0.015132	99
Es	-1.999546	1.225204	-0.000109	99
Es	2.234384	1.354724	-0.072437	99
Es	0.145125	-0.062995	0.002823	99
Es	2.211007	1.389309	0.012532	99
Es	2.108535	0.504469	0.011957	99
Es	0.530720	1.705174	0.004046	99
Es	2.623028	1.683179	0.012255	99
Es	1.328411	-0.384714	-0.304580	99
Es	-0.236072	0.552715	0.000998	99
Es	0.343484	-1.314881	-0.003732	99
Es	-0.451505	-1.999370	-0.011568	99
Es	1.337681	1.591678	0.006883	99
Es	0.167710	1.079256	0.315802	99
Es	2.149147	1.294274	0.076164	99
Es	1.325064	-0.384295	0.323014	99
Es	2.504335	-0.752860	0.015458	99
Es	0.301770	2.390279	0.002790	99
Es	2.317729	1.441331	0.062268	99
Es	-0.976717	0.539852	-0.002271	99
Es	-1.979337	0.181570	0.588036	99
Es	2.024961	1.341452	0.014237	99
Es	-1.973524	0.193639	-0.608911	99
Es	-1.728111	0.540749	-0.005681	99
Es	0.602274	-0.604901	0.005574	99
Es	1.941910	-0.298333	0.012359	99
Es	0.144564	-1.869460	0.003475	99
Es	0.170814	1.077779	-0.310602	99
44
Properties=species:S:1:pos:R:3:Z:I:1 energy=-645.4772635491416 field_type=dipole dipole="0.000000 0.000000 0.000000" charge=0
C	-1.728167	0.540759	-0.005681	6
C	-0.236027	0.552759	0.000999	6
C	0.530533	1.705128	0.004049	6
S	2.211073	1.389338	0.012429	16
C	1.941823	-0.298491	0.012359	6
C	0.602383	-0.604742	0.005579	6
N	0.144543	-1.869511	0.003969	7
H	-2.136927	1.556418	0.002789	1
H	-2.109897	0.016519	0.876299	1
H	-2.101397	0.034369	-0.901611	1
H	0.182283	2.728868	0.001889	1
H	2.782473	-0.976891	0.017349	1
H	-0.843137	-2.098442	-0.019761	1
H	0.760433	-2.676081	-0.010651	1
Es	1.325254	-0.384213	0.322182	99
Es	1.337793	1.591619	0.005276	99
Es	-1.979325	0.181437	0.587679	99
Es	2.115656	1.304996	-0.039965	99
Es	0.170758	1.078239	-0.309955	99
Es	-1.999940	1.225577	-0.000221	99
Es	-0.236070	0.552716	0.001001	99
Es	0.343477	-1.314843	-0.000994	99
Es	2.215767	1.383736	0.016237	99
Es	1.941908	-0.298333	0.012344	99
Es	0.145387	-0.062833	0.003158	99
Es	0.167616	1.078689	0.315248	99
Es	0.519258	-2.340463	-0.003958	99
Es	0.166453	-1.803816	0.021339	99
Es	-0.451474	-1.999380	-0.011032	99
Es	2.108440	0.504591	0.013265	99
Es	2.025081	1.341562	0.018710	99
Es	0.530719	1.705173	0.004049	99
Es	0.144737	-1.868955	0.002156	99
Es	2.312848	1.463598	-0.032612	99
Es	-0.976587	0.539582	-0.002581	99
Es	-1.973365	0.193716	-0.608298	99
Es	2.622847	1.683454	0.011286	99
Es	2.184082	1.421659	0.094909	99
Es	2.224616	1.371937	0.021580	99
Es	2.504415	-0.753154	0.015742	99
Es	-1.728111	0.540748	-0.005681	99
Es	0.301618	2.390364	0.002478	99
Es	0.602274	-0.604900	0.005579	99
Es	1.328455	-0.384894	-0.303962	99
44
Properties=species:S:1:pos:R:3:Z:I:1 energy=-645.4772635491416 field_type=dipole dipole="0.000000 0.000000 0.000000" charge=0
C	-1.728167	0.540759	-0.005681	6
C	-0.236027	0.552759	0.000999	6
C	0.530533	1.705128	0.004049	6
S	2.211073	1.389338	0.012429	16
C	1.941823	-0.298491	0.012359	6
C	0.602383	-0.604742	0.005579	6
N	0.144543	-1.869511	0.003969	7
H	-2.136927	1.556418	0.002789	1
H	-2.109897	0.016519	0.876299	1
H	-2.101397	0.034369	-0.901611	1
H	0.182283	2.728868	0.001889	1
H	2.782473	-0.976891	0.017349	1
H	-0.843137	-2.098442	-0.019761	1
H	0.760433	-2.676081	-0.010651	1
Es	-1.973583	0.193855	-0.608334	99
Es	0.166599	-1.803314	0.017513	99
Es	2.503731	-0.752856	0.015590	99
Es	2.211115	1.389162	0.012699	99
Es	-1.728112	0.540748	-0.005680	99
Es	2.024886	1.342532	0.009762	99
Es	0.168059	1.078012	0.315446	99
Es	0.144551	-1.869466	0.004455	99
Es	-1.999959	1.224676	-0.000217	99
Es	2.219887	1.265902	0.039032	99
Es	0.343810	-1.314934	0.000992	99
Es	2.185739	1.390012	-0.068531	99
Es	1.941910	-0.298333	0.012360	99
Es	0.530719	1.705173	0.004052	99
Es	1.338282	1.591376	0.007040	99
Es	0.171180	1.077422	-0.309998	99
Es	0.301594	2.389872	0.002423	99
Es	0.602274	-0.604901	0.005581	99
Es	2.317350	1.466166	0.016119	99
Es	0.518574	-2.339395	-0.005817	99
Es	1.324740	-0.383469	0.322660	99
Es	2.119795	1.434433	0.063264	99
Es	2.108478	0.505058	0.013328	99
Es	-1.979611	0.181663	0.587567	99
Es	-0.451654	-2.000243	-0.009594	99
Es	0.145906	-0.062523	0.002875	99
Es	-0.236073	0.552714	0.000998	99
Es	-0.976328	0.539574	-0.002369	99
Es	2.623090	1.683710	0.015889	99
Es	1.327641	-0.385017	-0.304145	99
44
Properties=species:S:1:pos:R:3:Z:I:1 energy=-645.4772635491416 field_type=dipole dipole="0.000000 0.000000 0.000000" charge=0
C	-1.728167	0.540759	-0.005681	6
C	-0.236027	0.552759	0.000999	6
C	0.530533	1.705128	0.004049	6
S	2.211073	1.389338	0.012429	16
C	1.941823	-0.298491	0.012359	6
C	0.602383	-0.604742	0.005579	6
N	0.144543	-1.869511	0.003969	7
H	-2.136927	1.556418	0.002789	1
H	-2.109897	0.016519	0.876299	1
H	-2.101397	0.034369	-0.901611	1
H	0.182283	2.728868	0.001889	1
H	2.782473	-0.976891	0.017349	1
H	-0.843137	-2.098442	-0.019761	1
H	0.760433	-2.676081	-0.010651	1
Es	0.530717	1.705171	0.004051	99
Es	0.145777	-0.062645	0.003037	99
Es	0.344031	-1.314977	-0.000433	99
Es	0.166598	-1.803238	0.017756	99
Es	2.024634	1.342746	0.012883	99
Es	-1.973402	0.193894	-0.608028	99
Es	0.602273	-0.604901	0.005579	99
Es	-0.451599	-2.000304	-0.009829	99
Es	0.144548	-1.869487	0.003740	99
Es	0.518485	-2.339430	-0.003697	99
Es	-2.000213	1.225057	-0.000231	99
Es	2.503826	-0.753053	0.015575	99
Es	0.171404	1.077373	-0.309817	99
Es	2.210491	1.389662	0.011412	99
Es	1.941913	-0.298330	0.012363	99
Es	2.340169	1.423048	0.012461	99
Es	0.301498	2.389978	0.002567	99
Es	-1.728112	0.540747	-0.005680	99
Es	0.168352	1.078248	0.315124	99
Es	2.108357	0.505039	0.012765	99
Es	2.169049	1.444602	0.066653	99
Es	2.623211	1.683597	0.014324	99
Es	2.189746	1.417001	-0.041938	99
Es	1.328050	-0.384037	-0.303949	99
Es	2.144275	1.271544	0.013458	99
Es	1.338349	1.591349	0.006729	99
Es	1.324078	-0.384805	0.322174	99
Es	-0.976326	0.539589	-0.002478	99
Es	-1.979517	0.181457	0.587388	99
Es	-0.236073	0.552715	0.001000	99
44
Properties=species:S:1:pos:R:3:Z:I:1 energy=-645.4772635491416 field_type=dipole dipole="0.000000 0.000000 0.000000" charge=0
C	-1.728167	0.540759	-0.005681	6
C	-0.236027	0.552759	0.000999	6
C	0.530533	1.705128	0.004049	6
S	2.211073	1.389338	0.012429	16
C	1.941823	-0.298491	0.012359	6
C	0.602383	-0.604742	0.005579	6
N	0.144543	-1.869511	0.003969	7
H	-2.136927	1.556418	0.002789	1
H	-2.109897	0.016519	0.876299	1
H	-2.101397	0.034369	-0.901611	1
H	0.182283	2.728868	0.001889	1
H	2.782473	-0.976891	0.017349	1
H	-0.843137	-2.098442	-0.019761	1
H	0.760433	-2.676081	-0.010651	1
Es	0.518281	-2.338972	-0.006711	99
Es	-0.451620	-2.000629	-0.010253	99
Es	-1.728112	0.540748	-0.005681	99
Es	-2.000121	1.224499	-0.000183	99
Es	2.503436	-0.752818	0.015371	99
Es	2.211041	1.389353	0.012806	99
Es	0.171326	1.077499	-0.309883	99
Es	0.168693	1.077400	0.315187	99
Es	-1.979453	0.181782	0.587484	99
Es	0.146157	-0.062520	0.002927	99
Es	0.530716	1.705175	0.004049	99
Es	0.301516	2.389688	0.002749	99
Es	1.338649	1.591328	0.008767	99
Es	1.327282	-0.384529	-0.304302	99
Es	2.108465	0.505146	0.012931	99
Es	0.602275	-0.604899	0.005575	99
Es	0.166165	-1.804472	0.023285	99
Es	2.335208	1.437221	0.008389	99
Es	2.623157	1.683856	0.015709	99
Es	2.166703	1.263570	0.026105	99
Es	2.210948	1.389818	0.015947	99
Es	-1.973726	0.193728	-0.608208	99
Es	0.343899	-1.314953	-0.000134	99
Es	1.941913	-0.298330	0.012365	99
Es	2.130002	1.465744	-0.000820	99
Es	2.024943	1.343024	0.008944	99
Es	1.324264	-0.383877	0.322613	99
Es	0.144954	-1.868316	0.001356	99
Es	-0.976300	0.539628	-0.002418	99
Es	-0.236071	0.552715	0.000993	99
44
Properties=species:S:1:pos:R:3:Z:I:1 energy=-645.4772635491416 field_type=dipole dipole="0.000000 0.000000 0.000000" charge=0
C	-1.728167	0.540759	-0.005681	6
C	-0.236027	0.552759	0.000999	6
C	0.530533	1.705128	0.004049	6
S	2.211073	1.389338	0.012429	16
C	1.941823	-0.298491	0.012359	6
C	0.602383	-0.604742	0.005579	6
N	0.144543	-1.869511	0.003969	7
H	-2.136927	1.556418	0.002789	1
H	-2.109897	0.016519	0.876299	1
H	-2.101397	0.034369	-0.901611	1
H	0.182283	2.728868	0.001889	1
H	2.782473	-0.976891	0.017349	1
H	-0.843137	-2.098442	-0.019761	1
H	0.760433	-2.676081	-0.010651	1
Es	0.301494	2.389840	0.002487	99
Es	-0.976140	0.539534	-0.002524	99
Es	2.336859	1.433682	0.003289	99
Es	2.142673	1.464783	0.038357	99
Es	-2.000480	1.224646	-0.000257	99
Es	2.024966	1.343181	0.010715	99
Es	0.168486	1.077834	0.314775	99
Es	0.518126	-2.338859	-0.003728	99
Es	2.108404	0.505340	0.013495	99
Es	0.146286	-0.062427	0.003287	99
Es	1.323910	-0.384098	0.322022	99
Es	-0.451658	-2.000790	-0.009274	99
Es	0.144556	-1.869475	0.003604	99
Es	2.623282	1.683743	0.016199	99
Es	1.338650	1.591150	0.006343	99
Es	0.530716	1.705173	0.004049	99
Es	2.210489	1.390058	0.008719	99
Es	-1.728112	0.540748	-0.005681	99
Es	-1.973374	0.194109	-0.607729	99
Es	0.166550	-1.803171	0.019432	99
Es	-1.979681	0.181390	0.587148	99
Es	0.602274	-0.604901	0.005579	99
Es	2.211437	1.388724	0.015116	99
Es	2.503364	-0.752960	0.015797	99
Es	0.344113	-1.315127	-0.002456	99
Es	1.327502	-0.384326	-0.303905	99
Es	-0.236074	0.552714	0.000992	99
Es	2.152352	1.268571	-0.003633	99
Es	1.941911	-0.298332	0.012357	99
Es	0.171708	1.076855	-0.309615	99
44
Properties=species:S:1:pos:R:3:Z:I:1 energy=-645.4772635491416 field_type=dipole dipole="0.000000 0.000000 0.000000" charge=0
C	-1.728167	0.540759	-0.005681	6
C	-0.236027	0.552759	0.000999	6
C	0.530533	1.705128	0.004049	6
S	2.211073	1.389338	0.012429	16
C	1.941823	-0.298491	0.012359	6
C	0.602383	-0.604742	0.005579	6
N	0.144543	-1.869511	0.003969	7
H	-2.136927	1.556418	0.002789	1
H	-2.109897	0.016519	0.876299	1
H	-2.101397	0.034369	-0.901611	1
H	0.182283	2.728868	0.001889	1
H	2.782473	-0.976891	0.017349	1
H	-0.843137	-2.098442	-0.019761	1
H	0.760433	-2.676081	-0.010651	1
Es	1.338697	1.591057	0.008087	99
Es	2.108252	0.505367	0.012223	99
Es	-0.451582	-2.000539	-0.009002	99
Es	-0.976116	0.539309	-0.002289	99
Es	0.166576	-1.803211	0.018741	99
Es	2.295661	1.493888	-0.004860	99
Es	0.343800	-1.314993	-0.001082	99
Es	-1.728112	0.540748	-0.005681	99
Es	0.301271	2.390003	0.002653	99
Es	2.222372	1.376250	0.011511	99
Es	0.168528	1.077785	0.313870	99
Es	-2.001029	1.225219	-0.000084	99
Es	2.092310	1.321558	-0.002002	99
Es	2.224965	1.372530	0.002339	99
Es	2.622946	1.684052	0.016663	99
Es	-0.236074	0.552714	0.000999	99
Es	1.941909	-0.298333	0.012359	99
Es	0.602274	-0.604900	0.005581	99
Es	2.218714	1.381220	0.054566	99
Es	2.024808	1.343137	0.009959	99
Es	0.146527	-0.062190	0.003014	99
Es	1.327250	-0.385173	-0.302660	99
Es	-1.979531	0.181129	0.586460	99
Es	0.144543	-1.869497	0.004032	99
Es	0.171194	1.077387	-0.308617	99
Es	1.324661	-0.383612	0.321210	99
Es	-1.973100	0.194188	-0.607291	99
Es	0.518458	-2.339215	-0.005168	99
Es	2.503695	-0.753444	0.015381	99
Es	0.530721	1.705174	0.004048	99
44
Properties=species:S:1:pos:R:3:Z:I:1 energy=-645.4772635491416 field_type=dipole dipole="0.000000 0.000000 0.000000" charge=0
C	-1.728167	0.540759	-0.005681	6
C	-0.236027	0.552759	0.000999	6
C	0.530533	1.705128	0.004049	6
S	2.211073	1.389338	0.012429	16
C	1.941823	-0.298491	0.012359	6
C	0.602383	-0.604742	0.005579	6
N	0.144543	-1.869511	0.003969	7
H	-2.136927	1.556418	0.002789	1
H	-2.109897	0.016519	0.876299	1
H	-2.101397	0.034369	-0.901611	1
H	0.182283	2.728868	0.001889	1
H	2.782473	-0.976891	0.017349	1
H	-0.843137	-2.098442	-0.019761	1
H	0.760433	-2.676081	-0.010651	1
Es	0.168582	1.078515	0.313512	99
Es	1.323091	-0.384668	0.320536	99
Es	1.327196	-0.383693	-0.302570	99
Es	0.344175	-1.315151	0.002771	99
Es	2.108307	0.505599	0.013313	99
Es	-1.979572	0.181215	0.586182	99
Es	2.045272	1.342314	-0.006149	99
Es	0.153841	-1.841315	0.020062	99
Es	0.146770	-0.062130	0.003197	99
Es	2.284345	1.502855	0.011427	99
Es	2.211475	1.388785	0.006012	99
Es	0.157267	-1.831399	-0.003065	99
Es	-0.975898	0.539203	-0.002326	99
Es	-0.236074	0.552714	0.001000	99
Es	0.530722	1.705175	0.004052	99
Es	2.065850	1.335437	0.023790	99
Es	-1.728112	0.540748	-0.005682	99
Es	1.338893	1.590839	0.009357	99
Es	-2.001294	1.225164	-0.000198	99
Es	0.301205	2.389968	0.002755	99
Es	0.602273	-0.604902	0.005578	99
Es	0.518033	-2.338744	-0.003792	99
Es	-0.451650	-2.000919	-0.008417	99
Es	2.623040	1.684168	0.016353	99
Es	2.230030	1.367507	-0.014318	99
Es	2.503387	-0.753628	0.015596	99
Es	1.941913	-0.298330	0.012362	99
Es	0.171966	1.076603	-0.308495	99
Es	2.242644	1.351456	0.048962	99
Es	-1.973089	0.194223	-0.606844	99
44
Properties=species:S:1:pos:R:3:Z:I:1 energy=-645.4772635491416 field_type=dipole dipole="0.000000 0.000000 0.000000" charge=0
C	-1.728167	0.540759	-0.005681	6
C	-0.236027	0.552759	0.000999	6
C	0.530533	1.705128	0.004049	6
S	2.211073	1.389338	0.012429	16
C	1.941823	-0.298491	0.012359	6
C	0.602383	-0.604742	0.005579	6
N	0.144543	-1.869511	0.003969	7
H	-2.136927	1.556418	0.002789	1
H	-2.109897	0.016519	0.876299	1
H	-2.101397	0.034369	-0.901611	1
H	0.182283	2.728868	0.001889	1
H	2.782473	-0.976891	0.017349	1
H	-0.843137	-2.098442	-0.019761	1
H	0.760433	-2.676081	-0.010651	1
Es	1.325772	-0.385907	-0.302599	99
Es	2.623030	1.684345	0.014861	99
Es	-2.001341	1.224802	-0.000243	99
Es	2.108249	0.505655	0.012828	99
Es	2.280171	1.503267	-0.003384	99
Es	0.344250	-1.315170	0.001255	99
Es	0.166531	-1.803200	0.015215	99
Es	-1.728111	0.540748	-0.005681	99
Es	2.503162	-0.753351	0.015557	99
Es	2.268168	1.319181	0.008515	99
Es	0.172036	1.076705	-0.308422	99
Es	-1.973279	0.193999	-0.606869	99
Es	-0.451674	-2.001263	-0.008787	99
Es	-0.236065	0.552711	0.001002	99
Es	2.211871	1.388056	0.014512	99
Es	2.211598	1.390424	0.033248	99
Es	1.339167	1.590902	0.007578	99
Es	0.602275	-0.604901	0.005580	99
Es	1.324074	-0.382467	0.321052	99
Es	0.146964	-0.061890	0.002799	99
Es	2.057939	1.344423	-0.005504	99
Es	2.050060	1.343189	0.026037	99
Es	0.144545	-1.869496	0.003918	99
Es	1.941912	-0.298333	0.012366	99
Es	0.168908	1.077975	0.313724	99
Es	0.517820	-2.338332	-0.004080	99
Es	-0.975855	0.539136	-0.002422	99
Es	-1.979472	0.181484	0.586225	99
Es	0.530720	1.705173	0.004047	99
Es	0.301164	2.389745	0.002635	99
44
Properties=species:S:1:pos:R:3:Z:I:1 energy=-645.4772635491416 field_type=dipole dipole="0.000000 0.000000 0.000000" charge=0
C	-1.728167	0.540759	-0.005681	6
C	-0.236027	0.552759	0.000999	6
C	0.530533	1.705128	0.004049	6
S	2.211073	1.389338	0.012429	16
C	1.941823	-0.298491	0.012359	6
C	0.602383	-0.604742	0.005579	6
N	0.144543	-1.869511	0.003969	7
H	-2.136927	1.556418	0.002789	1
H	-2.109897	0.016519	0.876299	1
H	-2.101397	0.034369	-0.901611	1
H	0.182283	2.728868	0.001889	1
H	2.782473	-0.976891	0.017349	1
H	-0.843137	-2.098442	-0.019761	1
H	0.760433	-2.676081	-0.010651	1
Es	2.141492	1.272739	-0.005836	99
Es	-1.979882	0.180937	0.585885	99
Es	-0.451661	-2.001306	-0.008888	99
Es	1.339161	1.590928	0.006573	99
Es	-0.236073	0.552715	0.001011	99
Es	0.602275	-0.604901	0.005580	99
Es	-1.728112	0.540748	-0.005682	99
Es	-1.972847	0.194630	-0.606517	99
Es	2.330808	1.450730	0.000209	99
Es	0.171480	1.077268	-0.308007	99
Es	0.147093	-0.061889	0.003045	99
Es	2.623283	1.683996	0.016023	99
Es	1.323122	-0.384967	0.320417	99
Es	2.209931	1.390964	0.010967	99
Es	2.503182	-0.753611	0.015876	99
Es	2.208550	1.392179	0.005280	99
Es	2.108274	0.505764	0.013224	99
Es	0.166515	-1.803172	0.014699	99
Es	0.168850	1.076914	0.313259	99
Es	0.144545	-1.869495	0.003872	99
Es	0.530720	1.705173	0.004050	99
Es	0.344393	-1.315202	0.001029	99
Es	-2.001582	1.224828	-0.000247	99
Es	0.517691	-2.338297	-0.003127	99
Es	1.327738	-0.383289	-0.302336	99
Es	0.301090	2.389713	0.002493	99
Es	2.163097	1.439093	0.051048	99
Es	1.941912	-0.298330	0.012362	99
Es	2.025249	1.343544	0.011202	99
Es	-0.975707	0.539206	-0.002505	99
44
Properties=species:S:1:pos:R:3:Z:I:1 energy=-645.4772635491416 field_type=dipole dipole="0.000000 0.000000 0.000000" charge=0
C	-1.728167	0.540759	-0.005681	6
C	-0.236027	0.552759	0.000999	6
C	0.530533	1.705128	0.004049	6
S	2.211073	1.389338	0.012429	16
C	1.941823	-0.298491	0.012359	6
C	0.602383	-0.604742	0.005579	6
N	0.144543	-1.869511	0.003969	7
H	-2.136927	1.556418	0.002789	1
H	-2.109897	0.016519	0.876299	1
H	-2.101397	0.034369	-0.901611	1
H	0.182283	2.728868	0.001889	1
H	2.782473	-0.976891	0.017349	1
H	-0.843137	-2.098442	-0.019761	1
H	0.760433	-2.676081	-0.010651	1
Es	-1.979403	0.181580	0.585615	99
Es	2.026195	1.343286	0.014401	99
Es	2.224624	1.370765	0.050947	99
Es	0.530719	1.705173	0.004048	99
Es	0.517755	-2.338366	-0.003107	99
Es	-0.236075	0.552713	0.000998	99
Es	0.171476	1.077577	-0.307514	99
Es	2.623154	1.684180	0.014415	99
Es	0.602271	-0.604901	0.005580	99
Es	-0.451606	-2.001329	-0.007999	99
Es	0.147202	-0.061754	0.003060	99
Es	-0.975666	0.538999	-0.002367	99
Es	0.344308	-1.315155	0.002436	99
Es	2.218208	1.380205	0.005717	99
Es	-1.728112	0.540748	-0.005681	99
Es	2.223068	1.377013	0.001202	99
Es	2.296369	1.494500	0.007696	99
Es	2.090743	1.323271	-0.006288	99
Es	1.327726	-0.383303	-0.301727	99
Es	1.322950	-0.385444	0.320118	99
Es	-2.001811	1.225139	-0.000320	99
Es	-1.973163	0.193960	-0.606245	99
Es	2.503259	-0.753734	0.015354	99
Es	0.166529	-1.803180	0.012431	99
Es	0.300958	2.389878	0.002626	99
Es	0.144546	-1.869491	0.003804	99
Es	2.108178	0.505843	0.011918	99
Es	0.169141	1.076943	0.312932	99
Es	1.339132	1.590821	0.008553	99
Es	1.941912	-0.298330	0.012358	99
44
Properties=species:S:1:pos:R:3:Z:I:1 energy=-645.4772635491416 field_type=dipole dipole="0.000000 0.000000 0.000000" charge=0
C	-1.728167	0.540759	-0.005681	6
C	-0.236027	0.552759	0.000999	6
C	0.530533	1.705128	0.004049	6
S	2.211073	1.389338	0.012429	16
C	1.941823	-0.298491	0.012359	6
C	0.602383	-0.604742	0.005579	6
N	0.144543	-1.869511	0.003969	7
H	-2.136927	1.556418	0.002789	1
H	-2.109897	0.016519	0.876299	1
H	-2.101397	0.034369	-0.901611	1
H	0.182283	2.728868	0.001889	1
H	2.782473	-0.976891	0.017349	1
H	-0.843137	-2.098442	-0.019761	1
H	0.760433	-2.676081	-0.010651	1
Es	1.327261	-0.383298	-0.302204	99
Es	0.172037	1.076689	-0.307860	99
Es	2.502933	-0.753531	0.015549	99
Es	0.144554	-1.869475	0.003618	99
Es	2.623044	1.684541	0.014943	99
Es	2.083577	1.340417	0.007023	99
Es	2.277966	1.505932	0.009446	99
Es	1.322751	-0.385103	0.320328	99
Es	-1.979683	0.181359	0.585614	99
Es	2.108160	0.506010	0.012795	99
Es	-0.975609	0.538995	-0.002251	99
Es	2.210856	1.389350	0.021224	99
Es	-0.236074	0.552715	0.000996	99
Es	2.025408	1.343946	0.010246	99
Es	0.301013	2.389541	0.002627	99
Es	2.270640	1.320372	0.012895	99
Es	0.166478	-1.803206	0.015775	99
Es	0.530720	1.705173	0.004050	99
Es	0.517393	-2.337814	-0.004898	99
Es	-2.001766	1.224693	-0.000255	99
Es	2.211065	1.389340	0.012501	99
Es	-1.973051	0.194267	-0.606403	99
Es	0.147426	-0.061743	0.003160	99
Es	0.344428	-1.315191	0.001619	99
Es	-0.451620	-2.001754	-0.008584	99
Es	0.169137	1.077099	0.313079	99
Es	1.339470	1.590769	0.007671	99
Es	1.941913	-0.298332	0.012360	99
Es	-1.728112	0.540748	-0.005681	99
Es	0.602274	-0.604900	0.005575	99
44
Properties=species:S:1:pos:R:3:Z:I:1 energy=-645.4772635491416 field_type=dipole dipole="0.000000 0.000000 0.000000" charge=0
C	-1.728167	0.540759	-0.005681	6
C	-0.236027	0.552759	0.000999	6
C	0.530533	1.705128	0.004049	6
S	2.211073	1.389338	0.012429	16
C	1.941823	-0.298491	0.012359	6
C	0.602383	-0.604742	0.005579	6
N	0.144543	-1.869511	0.003969	7
H	-2.136927	1.556418	0.002789	1
H	-2.109897	0.016519	0.876299	1
H	-2.101397	0.034369	-0.901611	1
H	0.182283	2.728868	0.001889	1
H	2.782473	-0.976891	0.017349	1
H	-0.843137	-2.098442	-0.019761	1
H	0.760433	-2.676081	-0.010651	1
Es	2.502714	-0.753638	0.015530	99
Es	0.344506	-1.315240	0.001958	99
Es	2.149340	1.267608	0.016035	99
Es	-1.979484	0.181478	0.585541	99
Es	0.530721	1.705173	0.004051	99
Es	1.339640	1.590858	0.008348	99
Es	1.323167	-0.384247	0.320123	99
Es	-1.973171	0.194149	-0.606089	99
Es	2.211069	1.389284	0.011811	99
Es	-0.236074	0.552715	0.000995	99
Es	0.602274	-0.604902	0.005580	99
Es	-0.975517	0.538977	-0.002452	99
Es	0.144545	-1.869493	0.003845	99
Es	1.941913	-0.298330	0.012360	99
Es	-0.451636	-2.001835	-0.008400	99
Es	2.211139	1.389342	0.004711	99
Es	0.147516	-0.061572	0.003031	99
Es	2.108284	0.506042	0.012440	99
Es	0.166477	-1.803140	0.012812	99
Es	0.517270	-2.337728	-0.002680	99
Es	2.148275	1.455287	0.011089	99
Es	0.300852	2.389431	0.002607	99
Es	0.171989	1.076320	-0.307595	99
Es	-2.001990	1.224635	-0.000288	99
Es	1.326896	-0.383795	-0.302014	99
Es	2.025635	1.344067	0.012249	99
Es	2.333898	1.444124	0.016845	99
Es	-1.728112	0.540748	-0.005680	99
Es	0.169068	1.077108	0.312937	99
Es	2.623382	1.684183	0.015260	99
44
Properties=species:S:1:pos:R:3:Z:I:1 energy=-645.4772635491416 field_type=dipole dipole="0.000000 0.000000 0.000000" charge=0
C	-1.728167	0.540759	-0.005681	6
C	-0.236027	0.552759	0.000999	6
C	0.530533	1.705128	0.004049	6
S	2.211073	1.389338	0.012429	16
C	1.941823	-0.298491	0.012359	6
C	0.602383	-0.604742	0.005579	6
N	0.144543	-1.869511	0.003969	7
H	-2.136927	1.556418	0.002789	1
H	-2.109897	0.016519	0.876299	1
H	-2.101397	0.034369	-0.901611	1
H	0.182283	2.728868	0.001889	1
H	2.782473	-0.976891	0.017349	1
H	-0.843137	-2.098442	-0.019761	1
H	0.760433	-2.676081	-0.010651	1
Es	2.502674	-0.753671	0.015599	99
Es	-1.728112	0.540748	-0.005681	99
Es	-1.979435	0.181480	0.585224	99
Es	2.153387	1.465048	0.007679	99
Es	-0.236074	0.552715	0.000998	99
Es	0.144544	-1.869496	0.003918	99
Es	2.339523	1.428313	0.014523	99
Es	1.328109	-0.381079	-0.301865	99
Es	0.344535	-1.315242	0.002340	99
Es	0.172858	1.075187	-0.307553	99
Es	0.166465	-1.803153	0.013690	99
Es	2.210924	1.389501	0.015684	99
Es	2.211082	1.389250	0.009222	99
Es	-1.973200	0.194203	-0.606017	99
Es	0.300910	2.389524	0.002811	99
Es	0.517082	-2.337434	-0.003954	99
Es	0.602274	-0.604902	0.005579	99
Es	-2.002131	1.224645	-0.000129	99
Es	0.168902	1.078502	0.312561	99