44
Properties=species:S:1:pos:R:3:Z:I:1 energy=-645.4805250291728 field_type=dipole dipole="0.000000 0.000000 0.000000" charge=0
C	-1.548138	0.684481	-0.003386	6
C	-0.059088	0.687801	0.003444	6
C	0.730402	1.824451	0.012754	6
S	2.375202	1.370421	0.017724	16
N	2.100182	-0.258829	0.008094	7
C	0.785302	-0.483639	0.001244	6
C	0.333632	-1.903538	-0.008316	6
H	-1.949868	1.703001	0.002854	1
H	-1.933038	0.164931	0.879894	1
H	-1.924748	0.178881	-0.898246	1
H	0.431732	2.862861	0.016694	1
H	-0.757698	-1.985368	-0.003316	1
H	0.712542	-2.430408	0.873704	1
H	0.703582	-2.415049	-0.903136	1
Es	2.483310	1.472218	0.449756	99
Es	2.375252	1.370356	0.017734	99
Es	2.099772	-0.258429	0.008088	99
Es	0.353769	1.182156	-0.299725	99
Es	-1.798538	0.331145	0.592099	99
Es	0.589539	-2.244316	0.582917	99
Es	0.544409	-1.183538	-0.003437	99
Es	-0.408370	-1.948331	-0.004903	99
Es	0.351255	1.178285	0.315681	99
Es	1.544318	-0.287402	-0.268180	99
Es	0.785344	-0.483655	0.001246	99
Es	2.486767	1.476318	-0.412661	99
Es	0.730572	1.824490	0.012752	99
Es	1.542140	-0.290122	0.279709	99
Es	-1.792977	0.340612	-0.606662	99
Es	2.388896	-0.475769	0.007922	99
Es	2.399578	1.278721	0.087017	99
Es	0.583497	-2.233850	-0.608041	99
Es	0.537109	2.516934	0.015365	99
Es	0.333630	-1.903475	-0.008316	99
Es	-1.548074	0.684480	-0.003385	99
Es	0.324102	0.079125	0.001676	99
Es	2.191861	0.433244	0.012039	99
Es	2.473082	1.436330	-0.003887	99
Es	-1.811965	1.376213	0.000896	99
Es	-0.059115	0.687780	0.003429	99
Es	-0.796822	0.682477	0.000071	99
Es	1.512108	1.649927	0.015693	99
Es	2.310747	1.430643	0.073699	99
Es	2.314470	1.334654	-0.085881	99
44
Properties=species:S:1:pos:R:3:Z:I:1 energy=-645.4805250291728 field_type=dipole dipole="0.000000 0.000000 0.000000" charge=0
C	-1.548138	0.684481	-0.003386	6
C	-0.059088	0.687801	0.003444	6
C	0.730402	1.824451	0.012754	6
S	2.375202	1.370421	0.017724	16
N	2.100182	-0.258829	0.008094	7
C	0.785302	-0.483639	0.001244	6
C	0.333632	-1.903538	-0.008316	6
H	-1.949868	1.703001	0.002854	1
H	-1.933038	0.164931	0.879894	1
H	-1.924748	0.178881	-0.898246	1
H	0.431732	2.862861	0.016694	1
H	-0.757698	-1.985368	-0.003316	1
H	0.712542	-2.430408	0.873704	1
H	0.703582	-2.415049	-0.903136	1
Es	0.333630	-1.903475	-0.008316	99
Es	0.730571	1.824489	0.012755	99
Es	-0.410445	-1.951004	-0.004525	99
Es	0.546276	-1.182096	-0.003560	99
Es	-1.548074	0.684480	-0.003386	99
Es	0.355126	1.178626	-0.297950	99
Es	2.378956	1.493137	-0.000205	99
Es	0.589389	-2.244095	0.578794	99
Es	2.384137	-0.476552	0.008222	99
Es	0.537090	2.517173	0.015446	99
Es	2.259594	1.318954	0.015374	99
Es	2.812279	1.622941	0.016673	99
Es	2.199160	0.431531	0.010996	99
Es	-0.059119	0.687779	0.003443	99
Es	-1.813034	1.376459	0.000938	99
Es	1.545393	-0.290132	-0.265831	99
Es	-0.796123	0.681560	-0.000067	99
Es	0.326028	0.079403	0.001394	99
Es	-1.793152	0.340719	-0.605302	99
Es	2.375126	1.370465	0.017496	99
Es	0.785341	-0.483655	0.001243	99
Es	-1.798595	0.331187	0.590799	99
Es	2.429286	1.343406	0.112484	99
Es	0.352373	1.176288	0.313922	99
Es	1.543708	-0.291428	0.277483	99
Es	2.099773	-0.258422	0.008098	99
Es	2.431614	1.324843	-0.057545	99
Es	2.152777	1.328478	0.024397	99
Es	0.583072	-2.233885	-0.604252	99
Es	1.507508	1.660047	0.013691	99
44
Properties=species:S:1:pos:R:3:Z:I:1 energy=-645.4805250291728 field_type=dipole dipole="0.000000 0.000000 0.000000" charge=0
C	-1.548138	0.684481	-0.003386	6
C	-0.059088	0.687801	0.003444	6
C	0.730402	1.824451	0.012754	6
S	2.375202	1.370421	0.017724	16
N	2.100182	-0.258829	0.008094	7
C	0.785302	-0.483639	0.001244	6
C	0.333632	-1.903538	-0.008316	6
H	-1.949868	1.703001	0.002854	1
H	-1.933038	0.164931	0.879894	1
H	-1.924748	0.178881	-0.898246	1
H	0.431732	2.862861	0.016694	1
H	-0.757698	-1.985368	-0.003316	1
H	0.712542	-2.430408	0.873704	1
H	0.703582	-2.415049	-0.903136	1
Es	-1.798816	0.331093	0.589463	99
Es	2.294760	1.270154	0.044702	99
Es	0.588948	-2.243633	0.575872	99
Es	2.377074	1.455764	0.098511	99
Es	-0.795606	0.680956	-0.000146	99
Es	2.153196	1.332646	0.012035	99
Es	1.544697	-0.288897	-0.263933	99
Es	2.484841	1.339179	-0.007960	99
Es	0.354038	1.172157	0.312083	99
Es	2.375184	1.370412	0.017722	99
Es	0.333630	-1.903478	-0.008318	99
Es	0.536868	2.517243	0.015312	99
Es	2.099768	-0.258418	0.008089	99
Es	-1.814186	1.376820	0.000767	99
Es	1.541482	-0.292579	0.274738	99
Es	0.583080	-2.233356	-0.600826	99
Es	-1.548073	0.684480	-0.003386	99
Es	0.785339	-0.483657	0.001244	99
Es	-0.059121	0.687777	0.003441	99
Es	-0.412024	-1.953091	-0.005021	99
Es	0.355752	1.179263	-0.296027	99
Es	2.812567	1.623338	0.024429	99
Es	-1.792816	0.340919	-0.603936	99
Es	0.327395	0.079639	0.001917	99
Es	2.342603	1.415428	-0.064166	99
Es	0.730571	1.824488	0.012757	99
Es	1.508009	1.659237	0.016128	99
Es	2.381254	-0.477948	0.008483	99
Es	2.201344	0.432757	0.012124	99
Es	0.547901	-1.181472	-0.003389	99
44
Properties=species:S:1:pos:R:3:Z:I:1 energy=-645.4805250291728 field_type=dipole dipole="0.000000 0.000000 0.000000" charge=0
C	-1.548138	0.684481	-0.003386	6
C	-0.059088	0.687801	0.003444	6
C	0.730402	1.824451	0.012754	6
S	2.375202	1.370421	0.017724	16
N	2.100182	-0.258829	0.008094	7
C	0.785302	-0.483639	0.001244	6
C	0.333632	-1.903538	-0.008316	6
H	-1.949868	1.703001	0.002854	1
H	-1.933038	0.164931	0.879894	1
H	-1.924748	0.178881	-0.898246	1
H	0.431732	2.862861	0.016694	1
H	-0.757698	-1.985368	-0.003316	1
H	0.712542	-2.430408	0.873704	1
H	0.703582	-2.415049	-0.903136	1
Es	2.496310	1.418214	0.012316	99
Es	0.333630	-1.903475	-0.008317	99
Es	2.374716	1.370802	0.015961	99
Es	0.357053	1.175893	-0.295565	99
Es	0.354239	1.173300	0.311312	99
Es	0.328110	0.079820	0.001853	99
Es	0.536934	2.517334	0.015385	99
Es	2.375004	1.370590	0.014752	99
Es	0.589029	-2.243413	0.573668	99
Es	1.543253	-0.290280	-0.262972	99
Es	2.287350	1.449889	0.035213	99
Es	-1.792926	0.340697	-0.603197	99
Es	2.099774	-0.258407	0.008096	99
Es	1.541361	-0.291454	0.273960	99
Es	-0.795306	0.680538	-0.000069	99
Es	0.730574	1.824489	0.012750	99
Es	-1.814810	1.376939	0.000712	99
Es	0.582688	-2.232516	-0.598648	99
Es	2.153238	1.335137	0.021984	99
Es	2.341025	1.241412	0.009682	99
Es	2.812655	1.623810	0.018937	99
Es	2.379617	-0.478213	0.008666	99
Es	-0.412961	-1.954648	-0.005011	99
Es	1.508275	1.658633	0.012706	99
Es	-0.059122	0.687777	0.003436	99
Es	2.202444	0.433326	0.011940	99
Es	0.548842	-1.181188	-0.003490	99
Es	-1.798595	0.331394	0.588792	99
Es	0.785339	-0.483657	0.001245	99
Es	-1.548074	0.684479	-0.003386	99
44
Properties=species:S:1:pos:R:3:Z:I:1 energy=-645.4805250291728 field_type=dipole dipole="0.000000 0.000000 0.000000" charge=0
C	-1.548138	0.684481	-0.003386	6
C	-0.059088	0.687801	0.003444	6
C	0.730402	1.824451	0.012754	6
S	2.375202	1.370421	0.017724	16
N	2.100182	-0.258829	0.008094	7
C	0.785302	-0.483639	0.001244	6
C	0.333632	-1.903538	-0.008316	6
H	-1.949868	1.703001	0.002854	1
H	-1.933038	0.164931	0.879894	1
H	-1.924748	0.178881	-0.898246	1
H	0.431732	2.862861	0.016694	1
H	-0.757698	-1.985368	-0.003316	1
H	0.712542	-2.430408	0.873704	1
H	0.703582	-2.415049	-0.903136	1
Es	2.378463	-0.479253	0.007899	99
Es	0.730572	1.824490	0.012760	99
Es	0.333630	-1.903475	-0.008315	99
Es	2.489440	1.437226	0.026019	99
Es	2.375162	1.370400	0.017729	99
Es	2.099771	-0.258417	0.008096	99
Es	0.549927	-1.181098	-0.003426	99
Es	1.540495	-0.291911	0.272450	99
Es	2.153516	1.336811	0.014354	99
Es	2.275381	1.433142	0.025151	99
Es	-0.059123	0.687776	0.003444	99
Es	-0.413709	-1.956099	-0.005175	99
Es	2.812522	1.624274	0.021334	99
Es	0.355496	1.169908	0.310121	99
Es	0.328949	0.080151	0.001913	99
Es	-1.548074	0.684479	-0.003386	99
Es	2.359328	1.238927	0.011785	99
Es	2.203299	0.433729	0.012187	99
Es	-1.815637	1.377008	0.000808	99
Es	0.536732	2.517381	0.015345	99
Es	1.508587	1.658249	0.016085	99
Es	2.375122	1.371024	0.008992	99
Es	1.542663	-0.289254	-0.261132	99
Es	0.582700	-2.232177	-0.596501	99
Es	0.588545	-2.242617	0.571634	99
Es	0.356874	1.177809	-0.294267	99
Es	0.785339	-0.483657	0.001240	99
Es	-1.792705	0.341052	-0.602328	99
Es	-0.794942	0.680146	0.000069	99
Es	-1.798660	0.331199	0.587828	99
44
Properties=species:S:1:pos:R:3:Z:I:1 energy=-645.4805250291728 field_type=dipole dipole="0.000000 0.000000 0.000000" charge=0
C	-1.548138	0.684481	-0.003386	6
C	-0.059088	0.687801	0.003444	6
C	0.730402	1.824451	0.012754	6
S	2.375202	1.370421	0.017724	16
N	2.100182	-0.258829	0.008094	7
C	0.785302	-0.483639	0.001244	6
C	0.333632	-1.903538	-0.008316	6
H	-1.949868	1.703001	0.002854	1
H	-1.933038	0.164931	0.879894	1
H	-1.924748	0.178881	-0.898246	1
H	0.431732	2.862861	0.016694	1
H	-0.757698	-1.985368	-0.003316	1
H	0.712542	-2.430408	0.873704	1
H	0.703582	-2.415049	-0.903136	1
Es	2.263387	1.414826	0.026396	99
Es	-1.816197	1.377069	0.000819	99
Es	2.478867	1.454194	0.019147	99
Es	0.581988	-2.231072	-0.594300	99
Es	2.382289	1.240552	0.011149	99
Es	-0.414290	-1.957529	-0.005233	99
Es	0.329445	0.080138	0.001926	99
Es	2.812437	1.624629	0.019829	99
Es	0.730573	1.824489	0.012759	99
Es	1.541104	-0.289427	0.271386	99
Es	2.377515	-0.480009	0.008363	99
Es	0.358351	1.173603	-0.293552	99
Es	-1.798664	0.331174	0.587161	99
Es	1.508884	1.657950	0.014430	99
Es	-1.548074	0.684478	-0.003388	99
Es	2.374998	1.370567	0.014558	99
Es	2.375155	1.370413	0.017402	99
Es	0.551004	-1.181018	-0.003666	99
Es	1.541037	-0.291197	-0.259902	99
Es	2.153248	1.338255	0.018559	99
Es	0.354973	1.172852	0.309055	99
Es	0.785339	-0.483657	0.001246	99
Es	-0.794699	0.680028	0.000139	99
Es	2.204035	0.433919	0.011882	99
Es	-1.792577	0.341217	-0.601678	99
Es	0.536568	2.517389	0.015329	99
Es	0.588662	-2.242486	0.569680	99
Es	2.099799	-0.258426	0.008086	99
Es	0.333630	-1.903475	-0.008316	99
Es	-0.059124	0.687775	0.003446	99
44
Properties=species:S:1:pos:R:3:Z:I:1 energy=-645.4805250291728 field_type=dipole dipole="0.000000 0.000000 0.000000" charge=0
C	-1.548138	0.684481	-0.003386	6
C	-0.059088	0.687801	0.003444	6
C	0.730402	1.824451	0.012754	6
S	2.375202	1.370421	0.017724	16
N	2.100182	-0.258829	0.008094	7
C	0.785302	-0.483639	0.001244	6
C	0.333632	-1.903538	-0.008316	6
H	-1.949868	1.703001	0.002854	1
H	-1.933038	0.164931	0.879894	1
H	-1.924748	0.178881	-0.898246	1
H	0.431732	2.862861	0.016694	1
H	-0.757698	-1.985368	-0.003316	1
H	0.712542	-2.430408	0.873704	1
H	0.703582	-2.415049	-0.903136	1
Es	0.355555	1.171605	0.308236	99
Es	1.542054	-0.288678	-0.258885	99
Es	2.253353	1.313954	0.018753	99
Es	2.376919	-0.480836	0.008141	99
Es	0.358445	1.174075	-0.292563	99
Es	-1.816812	1.377305	0.000834	99
Es	2.375464	1.370182	0.015083	99
Es	0.333638	-1.903478	-0.008305	99
Es	2.099765	-0.258398	0.008083	99
Es	-0.794500	0.679602	-0.000022	99
Es	2.812489	1.624645	0.021229	99
Es	-0.059123	0.687775	0.003440	99
Es	2.406570	1.498462	0.016908	99
Es	-1.548074	0.684479	-0.003385	99
Es	1.539426	-0.291636	0.270093	99
Es	2.153458	1.339141	0.015040	99
Es	0.785339	-0.483657	0.001245	99
Es	0.582276	-2.231108	-0.592739	99
Es	0.329975	0.080344	0.002020	99
Es	2.204412	0.434214	0.011691	99
Es	2.375155	1.370382	0.017049	99
Es	-1.798231	0.331626	0.586421	99
Es	0.536432	2.517487	0.015490	99
Es	0.587910	-2.241353	0.568101	99
Es	2.463842	1.297751	0.022449	99
Es	1.508993	1.657676	0.015233	99
Es	0.730573	1.824491	0.012756	99
Es	-1.792785	0.340930	-0.600851	99
Es	-0.414662	-1.958705	-0.005367	99
Es	0.551807	-1.181057	-0.003467	99
44
Properties=species:S:1:pos:R:3:Z:I:1 energy=-645.4805250291728 field_type=dipole dipole="0.000000 0.000000 0.000000" charge=0
C	-1.548138	0.684481	-0.003386	6
C	-0.059088	0.687801	0.003444	6
C	0.730402	1.824451	0.012754	6
S	2.375202	1.370421	0.017724	16
N	2.100182	-0.258829	0.008094	7
C	0.785302	-0.483639	0.001244	6
C	0.333632	-1.903538	-0.008316	6
H	-1.949868	1.703001	0.002854	1
H	-1.933038	0.164931	0.879894	1
H	-1.924748	0.178881	-0.898246	1
H	0.431732	2.862861	0.016694	1
H	-0.757698	-1.985368	-0.003316	1
H	0.712542	-2.430408	0.873704	1
H	0.703582	-2.415049	-0.903136	1
Es	-0.059124	0.687776	0.003445	99
Es	-0.794349	0.679345	0.000071	99
Es	0.333630	-1.903475	-0.008316	99
Es	2.376575	-0.481367	0.007904	99
Es	0.785339	-0.483657	0.001241	99
Es	2.496276	1.424401	0.014917	99
Es	0.581950	-2.230483	-0.591426	99
Es	-1.817377	1.377350	0.000983	99
Es	2.375102	1.370420	0.018807	99
Es	2.812590	1.624704	0.022026	99
Es	1.509171	1.657360	0.017438	99
Es	0.330556	0.080528	0.001514	99
Es	-1.793032	0.340510	-0.600368	99
Es	0.356938	1.179401	-0.291170	99
Es	2.339734	1.241126	0.015990	99
Es	2.204546	0.434376	0.012005	99
Es	-1.548074	0.684479	-0.003386	99
Es	-0.414963	-1.959942	-0.005001	99
Es	2.153173	1.340002	0.013895	99
Es	0.536325	2.517597	0.015583	99
Es	1.538957	-0.292057	0.269191	99
Es	1.541906	-0.287932	-0.258055	99
Es	0.552373	-1.181107	-0.003517	99
Es	0.587846	-2.240780	0.566366	99
Es	0.730572	1.824490	0.012757	99
Es	2.099765	-0.258411	0.008095	99
Es	0.357621	1.165589	0.307349	99
Es	2.374987	1.370586	0.026772	99
Es	-1.797760	0.332170	0.585657	99
Es	2.288407	1.444221	0.011947	99
44
Properties=species:S:1:pos:R:3:Z:I:1 energy=-645.4805250291728 field_type=dipole dipole="0.000000 0.000000 0.000000" charge=0
C	-1.548138	0.684481	-0.003386	6
C	-0.059088	0.687801	0.003444	6
C	0.730402	1.824451	0.012754	6
S	2.375202	1.370421	0.017724	16
N	2.100182	-0.258829	0.008094	7
C	0.785302	-0.483639	0.001244	6
C	0.333632	-1.903538	-0.008316	6
H	-1.949868	1.703001	0.002854	1
H	-1.933038	0.164931	0.879894	1
H	-1.924748	0.178881	-0.898246	1
H	0.431732	2.862861	0.016694	1
H	-0.757698	-1.985368	-0.003316	1
H	0.712542	-2.430408	0.873704	1
H	0.703582	-2.415049	-0.903136	1
Es	0.333629	-1.903475	-0.008316	99
Es	2.362097	1.497619	0.018715	99
Es	0.330845	0.080663	0.001727	99
Es	2.099772	-0.258406	0.008096	99
Es	2.205112	0.434500	0.011879	99
Es	2.487698	1.332126	0.009804	99
Es	2.375811	-0.481825	0.008447	99
Es	-0.059122	0.687775	0.003441	99
Es	0.356073	1.171394	0.307005	99
Es	1.509369	1.657116	0.016151	99
Es	0.553232	-1.181242	-0.003414	99
Es	-0.794112	0.679117	0.000059	99
Es	2.812525	1.624890	0.022047	99
Es	-1.792284	0.341556	-0.599779	99
Es	0.785339	-0.483656	0.001240	99
Es	0.358928	1.172975	-0.291253	99
Es	2.375185	1.370389	0.017600	99
Es	0.580694	-2.228508	-0.589622	99
Es	-1.798437	0.331339	0.585162	99
Es	1.538274	-0.292346	0.268141	99
Es	0.730572	1.824492	0.012756	99
Es	2.153350	1.340620	0.016539	99
Es	-0.415234	-1.961097	-0.005234	99
Es	2.375498	1.370224	0.024612	99
Es	2.273927	1.280487	0.016518	99
Es	-1.817769	1.377369	0.000892	99
Es	1.542012	-0.287378	-0.257379	99
Es	0.536289	2.517547	0.015519	99
Es	0.588465	-2.241522	0.564746	99
Es	-1.548073	0.684477	-0.003387	99
44
Properties=species:S:1:pos:R:3:Z:I:1 energy=-645.4805250291728 field_type=dipole dipole="0.000000 0.000000 0.000000" charge=0
C	-1.548138	0.684481	-0.003386	6
C	-0.059088	0.687801	0.003444	6
C	0.730402	1.824451	0.012754	6
S	2.375202	1.370421	0.017724	16
N	2.100182	-0.258829	0.008094	7
C	0.785302	-0.483639	0.001244	6
C	0.333632	-1.903538	-0.008316	6
H	-1.949868	1.703001	0.002854	1
H	-1.933038	0.164931	0.879894	1
H	-1.924748	0.178881	-0.898246	1
H	0.431732	2.862861	0.016694	1
H	-0.757698	-1.985368	-0.003316	1
H	0.712542	-2.430408	0.873704	1
H	0.703582	-2.415049	-0.903136	1
Es	-0.415312	-1.962025	-0.005452	99
Es	-1.792299	0.341346	-0.599188	99
Es	2.503029	1.365877	0.017702	99
Es	-0.059124	0.687776	0.003442	99
Es	0.333640	-1.903486	-0.008326	99
Es	-1.818167	1.377494	0.000721	99
Es	0.579886	-2.227401	-0.587998	99
Es	2.205367	0.434561	0.012381	99
Es	2.293856	1.262864	0.019067	99
Es	1.541100	-0.288527	-0.256697	99
Es	0.331227	0.080801	0.002171	99
Es	2.812601	1.624855	0.020605	99
Es	0.730574	1.824488	0.012755	99
Es	0.553802	-1.181296	-0.003690	99
Es	0.536209	2.517604	0.015359	99
Es	2.152907	1.341564	0.015942	99
Es	-0.794041	0.678850	0.000048	99
Es	2.099766	-0.258406	0.008095	99
Es	2.375222	1.370367	0.018531	99
Es	2.327229	1.481382	0.017517	99
Es	2.375119	1.370366	0.016357	99
Es	0.785340	-0.483657	0.001231	99
Es	-1.548075	0.684480	-0.003386	99
Es	0.354378	1.177920	0.305686	99
Es	2.375451	-0.482200	0.008295	99
Es	0.588697	-2.241677	0.563695	99
Es	1.538603	-0.291316	0.267767	99
Es	1.509392	1.657084	0.015642	99
Es	0.361460	1.165929	-0.290425	99
Es	-1.798173	0.331605	0.584864	99
44
Properties=species:S:1:pos:R:3:Z:I:1 energy=-645.4805250291728 field_type=dipole dipole="0.000000 0.000000 0.000000" charge=0
C	-1.548138	0.684481	-0.003386	6
C	-0.059088	0.687801	0.003444	6
C	0.730402	1.824451	0.012754	6
S	2.375202	1.370421	0.017724	16
N	2.100182	-0.258829	0.008094	7
C	0.785302	-0.483639	0.001244	6
C	0.333632	-1.903538	-0.008316	6
H	-1.949868	1.703001	0.002854	1
H	-1.933038	0.164931	0.879894	1
H	-1.924748	0.178881	-0.898246	1
H	0.431732	2.862861	0.016694	1
H	-0.757698	-1.985368	-0.003316	1
H	0.712542	-2.430408	0.873704	1
H	0.703582	-2.415049	-0.903136	1
Es	0.333630	-1.903481	-0.008312	99
Es	2.375169	1.370413	0.017541	99
Es	0.331468	0.080822	0.000654	99
Es	-1.818294	1.377446	0.001149	99
Es	0.582602	-2.230879	-0.588198	99
Es	2.152688	1.342127	0.014577	99
Es	1.540143	-0.288956	0.267443	99
Es	0.554166	-1.181481	-0.002946	99
Es	2.244329	1.362041	0.016236	99
Es	2.375059	-0.482607	0.007368	99
Es	-0.415427	-1.962463	-0.004760	99
Es	2.375355	1.370432	0.011464	99
Es	0.352523	1.195139	-0.284641	99
Es	2.099783	-0.258414	0.008083	99
Es	-1.548072	0.684480	-0.003385	99
Es	0.536217	2.517711	0.015977	99
Es	2.431008	1.266219	0.019689	99
Es	1.509483	1.656718	0.018975	99
Es	1.539430	-0.290378	-0.255607	99
Es	0.363467	1.148185	0.301369	99
Es	-1.793751	0.339576	-0.599230	99
Es	2.448982	1.481305	0.023622	99
Es	2.205682	0.434607	0.010613	99
Es	0.585667	-2.237633	0.562292	99
Es	-1.796710	0.333457	0.584385	99
Es	0.785339	-0.483657	0.001246	99
Es	2.812242	1.625427	0.020673	99
Es	0.730573	1.824490	0.012756	99
Es	-0.793964	0.678799	0.000235	99
Es	-0.059124	0.687776	0.003443	99
44
Properties=species:S:1:pos:R:3:Z:I:1 energy=-645.4805250291728 field_type=dipole dipole="0.000000 0.000000 0.000000" charge=0
C	-1.548138	0.684481	-0.003386	6
C	-0.059088	0.687801	0.003444	6
C	0.730402	1.824451	0.012754	6
S	2.375202	1.370421	0.017724	16
N	2.100182	-0.258829	0.008094	7
C	0.785302	-0.483639	0.001244	6
C	0.333632	-1.903538	-0.008316	6
H	-1.949868	1.703001	0.002854	1
H	-1.933038	0.164931	0.879894	1
H	-1.924748	0.178881	-0.898246	1
H	0.431732	2.862861	0.016694	1
H	-0.757698	-1.985368	-0.003316	1
H	0.712542	-2.430408	0.873704	1
H	0.703582	-2.415049	-0.903136	1
Es	0.785339	-0.483657	0.001246	99
Es	2.292627	1.445006	0.019414	99
Es	1.509703	1.656855	0.011852	99
Es	-1.548074	0.684478	-0.003387	99
Es	0.730573	1.824490	0.012754	99
Es	0.370323	1.135446	-0.276403	99
Es	2.099763	-0.258407	0.008093	99
Es	-0.059122	0.687777	0.003461	99
Es	2.374793	-0.481850	0.009601	99
Es	0.590958	-2.244769	0.563691	99
Es	2.812569	1.625035	0.021323	99
Es	-0.415354	-1.962291	-0.006657	99
Es	0.553800	-1.181326	-0.004356	99
Es	0.345185	1.207123	0.290125	99
Es	0.536190	2.517526	0.014744	99
Es	-1.818162	1.377330	0.000238	99
Es	2.375149	1.370752	0.016865	99
Es	2.497426	1.422309	0.013014	99
Es	0.333631	-1.903477	-0.008317	99
Es	2.205886	0.434542	0.014078	99
Es	1.536798	-0.293822	0.266922	99
Es	0.577503	-2.223995	-0.585994	99
Es	-0.794053	0.678873	-0.000402	99
Es	-1.800682	0.328378	0.584841	99
Es	2.334017	1.243349	0.003944	99
Es	2.152545	1.342530	0.018218	99
Es	1.543375	-0.285802	-0.257128	99
Es	-1.789838	0.344555	-0.598565	99
Es	0.331480	0.080885	0.004258	99
Es	2.375318	1.369377	0.035237	99
44
Properties=species:S:1:pos:R:3:Z:I:1 energy=-645.4805250291728 field_type=dipole dipole="0.000000 0.000000 0.000000" charge=0
C	-1.548138	0.684481	-0.003386	6
C	-0.059088	0.687801	0.003444	6
C	0.730402	1.824451	0.012754	6
S	2.375202	1.370421	0.017724	16
N	2.100182	-0.258829	0.008094	7
C	0.785302	-0.483639	0.001244	6
C	0.333632	-1.903538	-0.008316	6
H	-1.949868	1.703001	0.002854	1
H	-1.933038	0.164931	0.879894	1
H	-1.924748	0.178881	-0.898246	1
H	0.431732	2.862861	0.016694	1
H	-0.757698	-1.985368	-0.003316	1
H	0.712542	-2.430408	0.873704	1
H	0.703582	-2.415049	-0.903136	1
Es	2.099759	-0.258402	0.008087	99
Es	2.375142	1.370396	0.016647	99
Es	2.375093	1.370657	0.015891	99
Es	-1.818076	1.377205	0.001183	99
Es	1.537762	-0.293669	-0.255234	99
Es	1.509725	1.656806	0.018776	99
Es	0.785339	-0.483657	0.001243	99
Es	2.292321	1.441072	0.022434	99
Es	-1.548074	0.684479	-0.003386	99
Es	-1.795888	0.336749	-0.599087	99
Es	-0.059123	0.687776	0.003444	99
Es	0.583646	-2.234848	0.561429	99
Es	2.336640	1.240903	0.015754	99
Es	-0.415379	-1.962282	-0.003898	99
Es	0.369870	1.125494	0.285604	99
Es	0.331422	0.080916	-0.000370	99
Es	2.205908	0.434547	0.009476	99
Es	-1.794740	0.336206	0.584273	99
Es	0.553971	-1.181401	-0.002525	99
Es	0.730574	1.824489	0.012758	99
Es	0.345636	1.216468	-0.267855	99
Es	2.812542	1.625098	0.019469	99
Es	2.152592	1.342917	0.016725	99
Es	1.542396	-0.285836	0.267625	99
Es	2.495330	1.427700	0.017691	99
Es	0.333629	-1.903475	-0.008316	99
Es	2.374813	-0.481622	0.006970	99
Es	-0.794041	0.678920	0.000370	99
Es	0.584693	-2.233858	-0.588678	99
Es	0.536179	2.517473	0.016209	99
44
Properties=species:S:1:pos:R:3:Z:I:1 energy=-645.4805250291728 field_type=dipole dipole="0.000000 0.000000 0.000000" charge=0
C	-1.548138	0.684481	-0.003386	6
C	-0.059088	0.687801	0.003444	6
C	0.730402	1.824451	0.012754	6
S	2.375202	1.370421	0.017724	16
N	2.100182	-0.258829	0.008094	7
C	0.785302	-0.483639	0.001244	6
C	0.333632	-1.903538	-0.008316	6
H	-1.949868	1.703001	0.002854	1
H	-1.933038	0.164931	0.879894	1
H	-1.924748	0.178881	-0.898246	1
H	0.431732	2.862861	0.016694	1
H	-0.757698	-1.985368	-0.003316	1
H	0.712542	-2.430408	0.873704	1
H	0.703582	-2.415049	-0.903136	1
Es	-1.801911	0.326839	0.584333	99
Es	0.333630	-1.903474	-0.008315	99
Es	0.592190	-2.246385	0.562804	99
Es	0.554139	-1.181422	-0.004636	99
Es	0.730573	1.824490	0.012758	99
Es	1.540115	-0.287989	0.267443	99
Es	0.575957	-2.221874	-0.584317	99
Es	0.373003	1.126693	-0.268663	99
Es	0.785339	-0.483657	0.001243	99
Es	2.375050	1.370523	0.017381	99
Es	2.812612	1.625068	0.020144	99
Es	1.539813	-0.291462	-0.257087	99
Es	2.206017	0.434552	0.013791	99
Es	2.496622	1.425207	0.016672	99
Es	2.152490	1.343150	0.019217	99
Es	0.342781	1.215114	0.282081	99
Es	1.509760	1.656794	0.011816	99
Es	0.536266	2.517485	0.014631	99
Es	2.374569	-0.481740	0.009477	99
Es	-1.818228	1.377142	0.000218	99
Es	-1.548074	0.684479	-0.003386	99
Es	-0.793925	0.678969	-0.000138	99
Es	-1.788671	0.346151	-0.598172	99
Es	2.332919	1.241925	0.018322	99
Es	0.331469	0.080828	0.004231	99
Es	2.294880	1.442699	0.022637	99
Es	2.099767	-0.258393	0.008088	99
Es	2.375038	1.370450	0.013788	99
Es	-0.415406	-1.962717	-0.007092	99
Es	-0.059122	0.687776	0.003441	99
44
Properties=species:S:1:pos:R:3:Z:I:1 energy=-645.4805250291728 field_type=dipole dipole="0.000000 0.000000 0.000000" charge=0
C	-1.548138	0.684481	-0.003386	6
C	-0.059088	0.687801	0.003444	6
C	0.730402	1.824451	0.012754	6
S	2.375202	1.370421	0.017724	16
N	2.100182	-0.258829	0.008094	7
C	0.785302	-0.483639	0.001244	6
C	0.333632	-1.903538	-0.008316	6
H	-1.949868	1.703001	0.002854	1
H	-1.933038	0.164931	0.879894	1
H	-1.924748	0.178881	-0.898246	1
H	0.431732	2.862861	0.016694	1
H	-0.757698	-1.985368	-0.003316	1
H	0.712542	-2.430408	0.873704	1
H	0.703582	-2.415049	-0.903136	1
Es	0.730573	1.824490	0.012753	99
Es	2.375160	1.370432	0.017901	99
Es	-1.817990	1.376903	0.000244	99
Es	2.099783	-0.258427	0.008094	99
Es	0.576805	-2.222995	-0.584717	99
Es	2.364107	1.497919	0.010586	99
Es	2.273868	1.280199	0.016863	99
Es	2.206643	0.434443	0.014690	99
Es	0.331707	0.080951	0.004588	99
Es	0.553936	-1.181384	-0.004708	99
Es	2.375103	1.370430	0.019010	99
Es	2.373821	-0.480899	0.009856	99
Es	-1.788537	0.346618	-0.598231	99
Es	-1.802259	0.326355	0.584599	99
Es	1.509930	1.656578	0.010761	99
Es	-0.059125	0.687777	0.003444	99
Es	-0.793936	0.678865	-0.000542	99
Es	-1.548077	0.684479	-0.003386	99
Es	0.591333	-2.245183	0.563160	99
Es	2.486409	1.331780	0.024397	99
Es	0.785339	-0.483657	0.001247	99
Es	0.333629	-1.903475	-0.008316	99
Es	0.375076	1.118652	-0.260212	99
Es	0.340542	1.222362	0.273463	99
Es	1.542567	-0.287079	-0.258402	99
Es	2.812485	1.625253	0.021318	99
Es	0.536362	2.517414	0.014617	99
Es	2.152371	1.343802	0.018678	99
Es	-0.415432	-1.962773	-0.007040	99
Es	1.537469	-0.292609	0.267995	99
44
Properties=species:S:1:pos:R:3:Z:I:1 energy=-645.4805250291728 field_type=dipole dipole="0.000000 0.000000 0.000000" charge=0
C	-1.548138	0.684481	-0.003386	6
C	-0.059088	0.687801	0.003444	6
C	0.730402	1.824451	0.012754	6
S	2.375202	1.370421	0.017724	16
N	2.100182	-0.258829	0.008094	7
C	0.785302	-0.483639	0.001244	6
C	0.333632	-1.903538	-0.008316	6
H	-1.949868	1.703001	0.002854	1
H	-1.933038	0.164931	0.879894	1
H	-1.924748	0.178881	-0.898246	1
H	0.431732	2.862861	0.016694	1
H	-0.757698	-1.985368	-0.003316	1
H	0.712542	-2.430408	0.873704	1
H	0.703582	-2.415049	-0.903136	1
Es	-1.548074	0.684480	-0.003386	99
Es	2.374018	-0.480839	0.009564	99
Es	0.553737	-1.181324	-0.004488	99
Es	0.730573	1.824490	0.012750	99
Es	2.497403	1.423055	0.018243	99
Es	0.592567	-2.246888	0.562846	99
Es	0.333633	-1.903478	-0.008314	99
Es	-0.794070	0.678999	-0.000423	99
Es	2.812526	1.625257	0.021357	99
Es	2.099759	-0.258403	0.008103	99
Es	0.575761	-2.221636	-0.584636	99
Es	0.785339	-0.483658	0.001243	99
Es	2.330308	1.242636	0.020376	99
Es	-0.059123	0.687776	0.003450	99
Es	0.376345	1.114546	-0.255089	99
Es	-1.789127	0.345774	-0.598644	99
Es	1.536789	-0.294043	0.267880	99
Es	0.536352	2.517423	0.014540	99
Es	2.152230	1.343972	0.018355	99
Es	2.374987	1.370534	0.020956	99
Es	-1.801652	0.327135	0.584898	99
Es	-1.817922	1.376949	0.000309	99
Es	2.296687	1.444160	0.013826	99
Es	0.331639	0.080919	0.005194	99
Es	1.543435	-0.285809	-0.258237	99
Es	0.339378	1.226234	0.267870	99
Es	1.509931	1.656637	0.010476	99
Es	-0.415401	-1.962469	-0.006927	99
Es	2.206481	0.434436	0.014744	99
Es	2.375155	1.370357	0.015874	99
44
Properties=species:S:1:pos:R:3:Z:I:1 energy=-645.4805250291728 field_type=dipole dipole="0.000000 0.000000 0.000000" charge=0
C	-1.548138	0.684481	-0.003386	6
C	-0.059088	0.687801	0.003444	6
C	0.730402	1.824451	0.012754	6
S	2.375202	1.370421	0.017724	16
N	2.100182	-0.258829	0.008094	7
C	0.785302	-0.483639	0.001244	6
C	0.333632	-1.903538	-0.008316	6
H	-1.949868	1.703001	0.002854	1
H	-1.933038	0.164931	0.879894	1
H	-1.924748	0.178881	-0.898246	1
H	0.431732	2.862861	0.016694	1
H	-0.757698	-1.985368	-0.003316	1
H	0.712542	-2.430408	0.873704	1
H	0.703582	-2.415049	-0.903136	1
Es	2.373868	-0.480575	0.009889	99
Es	2.152055	1.344286	0.019371	99
Es	0.377762	1.108682	-0.247321	99
Es	2.494890	1.429064	0.023767	99
Es	2.374908	1.370629	0.020495	99
Es	2.099764	-0.258408	0.008094	99
Es	0.331683	0.080936	0.005854	99
Es	1.509993	1.656642	0.010736	99
Es	-0.794065	0.678953	-0.000601	99
Es	-1.789853	0.344717	-0.598768	99
Es	0.576382	-2.222538	-0.584856	99
Es	0.553616	-1.181303	-0.004796	99
Es	-1.548079	0.684476	-0.003380	99
Es	0.337537	1.231645	0.259523	99
Es	2.206620	0.434429	0.014765	99
Es	-0.059124	0.687776	0.003450	99
Es	-1.800994	0.328182	0.585550	99
Es	2.374724	1.370813	0.019272	99
Es	0.785339	-0.483657	0.001240	99
Es	1.536952	-0.293713	0.268095	99
Es	0.536320	2.517346	0.014376	99
Es	-0.415364	-1.962335	-0.007182	99
Es	0.333630	-1.903476	-0.008316	99
Es	2.299874	1.438000	0.000223	99
Es	0.592019	-2.246139	0.563734	99
Es	0.730573	1.824490	0.012756	99
Es	1.543712	-0.286048	-0.258547	99
Es	2.330180	1.242222	0.025058	99
Es	-1.817815	1.376891	-0.000012	99
Es	2.812555	1.625232	0.020242	99
44
Properties=species:S:1:pos:R:3:Z:I:1 energy=-645.4805250291728 field_type=dipole dipole="0.000000 0.000000 0.000000" charge=0
C	-1.548138	0.684481	-0.003386	6
C	-0.059088	0.687801	0.003444	6
C	0.730402	1.824451	0.012754	6
S	2.375202	1.370421	0.017724	16
N	2.100182	-0.258829	0.008094	7
C	0.785302	-0.483639	0.001244	6
C	0.333632	-1.903538	-0.008316	6
H	-1.949868	1.703001	0.002854	1
H	-1.933038	0.164931	0.879894	1
H	-1.924748	0.178881	-0.898246	1
H	0.431732	2.862861	0.016694	1
H	-0.757698	-1.985368	-0.003316	1
H	0.712542	-2.430408	0.873704	1
H	0.703582	-2.415049	-0.903136	1
Es	-1.788889	0.346221	-0.598493	99
Es	0.338155	1.230158	0.261956	99
Es	0.730573	1.824490	0.012755	99
Es	2.375193	1.370295	0.016743	99
Es	1.510055	1.656631	0.010487	99
Es	0.575301	-2.220994	-0.583940	99
Es	2.375188	1.370351	0.017196	99
Es	-1.548073	0.684479	-0.003385	99
Es	0.554003	-1.181372	-0.004448	99
Es	0.785339	-0.483658	0.001244	99
Es	0.331671	0.080998	0.005018	99
Es	2.099762	-0.258402	0.008088	99
Es	1.542714	-0.287037	-0.258654	99
Es	-1.817943	1.376802	0.000327	99
Es	-1.801997	0.326783	0.584712	99
Es	2.398886	1.500196	0.008114	99
Es	-0.415422	-1.962761	-0.007021	99
Es	-0.793932	0.678815	-0.000484	99
Es	-0.059124	0.687776	0.003447	99
Es	2.812384	1.625487	0.021080	99
Es	2.465599	1.310183	0.027166	99
Es	0.536347	2.517297	0.014604	99
Es	0.377431	1.109972	-0.249111	99
Es	0.592796	-2.247195	0.562258	99
Es	2.206981	0.434364	0.014610	99
Es	2.373476	-0.480656	0.009715	99
Es	2.259486	1.299706	0.017655	99
Es	1.537500	-0.292508	0.268353	99
Es	0.333632	-1.903477	-0.008314	99
Es	2.152573	1.344273	0.021031	99
44
Properties=species:S:1:pos:R:3:Z:I:1 energy=-645.4805250291728 field_type=dipole dipole="0.000000 0.000000 0.000000" charge=0
C	-1.548138	0.684481	-0.003386	6
C	-0.059088	0.687801	0.003444	6
C	0.730402	1.824451	0.012754	6
S	2.375202	1.370421	0.017724	16
N	2.100182	-0.258829	0.008094	7
C	0.785302	-0.483639	0.001244	6
C	0.333632	-1.903538	-0.008316	6
H	-1.949868	1.703001	0.002854	1
H	-1.933038	0.164931	0.879894	1
H	-1.924748	0.178881	-0.898246	1
H	0.431732	2.862861	0.016694	1
H	-0.757698	-1.985368	-0.003316	1
H	0.712542	-2.430408	0.873704	1
H	0.703582	-2.415049	-0.903136	1
Es	0.337417	1.232810	0.257469	99
Es	0.575443	-2.221196	-0.583920	99
Es	-0.059125	0.687776	0.003449	99
Es	0.592675	-2.247054	0.562624	99
Es	2.207025	0.434360	0.014757	99
Es	2.295792	1.446874	0.010950	99
Es	2.375177	1.370391	0.017692	99
Es	0.331713	0.080983	0.005489	99
Es	1.510109	1.656532	0.010010	99
Es	2.330210	1.243011	0.019775	99
Es	-1.802048	0.326745	0.585000	99
Es	2.151966	1.344852	0.019364	99
Es	0.785339	-0.483658	0.001241	99
Es	0.553909	-1.181376	-0.004635	99
Es	2.375111	1.370449	0.019041	99
Es	0.536336	2.517333	0.014390	99
Es	2.498277	1.420006	0.021756	99
Es	-0.415411	-1.962697	-0.007208	99
Es	-1.788873	0.346191	-0.598552	99