45
Properties=species:S:1:pos:R:3:Z:I:1 energy=-739.2634254194287 field_type=dipole dipole="0.000000 0.000000 0.000000" charge=0
C	-1.678107	0.391223	-0.484088	6
C	-0.176907	0.230263	-0.577118	6
O	0.506753	1.212943	0.235022	8
C	1.542593	0.327863	0.706902	6
S	0.572913	-1.081037	0.326602	16
O	-0.220487	-1.529087	1.455252	8
O	1.274053	-2.007867	-0.541658	8
H	-2.184857	-0.430817	-1.000758	1
H	-1.994047	1.327183	-0.955448	1
H	-2.023597	0.405123	0.553712	1
H	0.174983	0.272793	-1.614018	1
H	2.463033	0.422463	0.123472	1
H	1.743673	0.458953	1.772122	1
Es	0.069371	0.241533	-1.265737	99
Es	2.149365	0.373569	0.307981	99
Es	1.273943	-2.007706	-0.541530	99
Es	-0.220313	-1.528940	1.454988	99
Es	-1.896934	0.399321	0.208802	99
Es	-0.283261	-1.238601	1.511650	99
Es	-1.678026	0.391206	-0.484117	99
Es	1.041124	-2.157688	-0.617791	99
Es	0.071873	-1.355322	1.030321	99
Es	-0.176788	0.230346	-0.576922	99
Es	0.252070	0.837704	-0.078575	99
Es	0.976932	-1.685649	-0.226580	99
Es	0.572981	-1.079643	0.326492	99
Es	0.490318	-1.006267	0.355213	99
Es	0.648722	-1.090132	0.417328	99
Es	-1.872366	1.019551	-0.805964	99
Es	0.098593	-0.443329	-0.200457	99
Es	0.506865	1.212581	0.234937	99
Es	1.421893	-2.059671	-0.282045	99
Es	0.911457	0.873071	0.415550	99
Es	1.365493	-1.746038	-0.682651	99
Es	0.630122	-1.040346	0.232950	99
Es	0.522465	-1.188842	0.301093	99
Es	0.038509	-1.641282	1.549021	99
Es	-0.912267	0.296880	-0.525979	99
Es	0.322656	1.261805	0.474626	99
Es	-0.378727	-1.680798	1.254744	99
Es	-2.002732	-0.166301	-0.836777	99
Es	1.676438	0.408822	1.415058	99
Es	1.542373	0.327928	0.706804	99
Es	1.169248	-0.375693	0.583476	99
Es	0.632600	1.414369	0.052084	99
45
Properties=species:S:1:pos:R:3:Z:I:1 energy=-739.2634254194287 field_type=dipole dipole="0.000000 0.000000 0.000000" charge=0
C	-1.678107	0.391223	-0.484088	6
C	-0.176907	0.230263	-0.577118	6
O	0.506753	1.212943	0.235022	8
C	1.542593	0.327863	0.706902	6
S	0.572913	-1.081037	0.326602	16
O	-0.220487	-1.529087	1.455252	8
O	1.274053	-2.007867	-0.541658	8
H	-2.184857	-0.430817	-1.000758	1
H	-1.994047	1.327183	-0.955448	1
H	-2.023597	0.405123	0.553712	1
H	0.174983	0.272793	-1.614018	1
H	2.463033	0.422463	0.123472	1
H	1.743673	0.458953	1.772122	1
Es	0.471502	-1.114937	0.299657	99
Es	0.069624	0.241395	-1.266634	99
Es	0.066294	-1.354483	1.021009	99
Es	1.542380	0.327923	0.706806	99
Es	0.572555	-1.081842	0.326790	99
Es	0.041524	-1.633328	1.528823	99
Es	0.561823	-0.981799	0.396270	99
Es	0.625029	-1.167954	0.387053	99
Es	0.633619	-1.058723	0.223267	99
Es	2.150000	0.373393	0.307478	99
Es	-0.220328	-1.528984	1.455021	99
Es	-1.897532	0.399197	0.210224	99
Es	-2.001979	-0.165445	-0.836870	99
Es	-0.293955	-1.240697	1.531602	99
Es	0.254655	0.838511	-0.078206	99
Es	1.005066	-2.092837	-0.602561	99
Es	1.168912	-0.375177	0.583826	99
Es	0.319452	1.263449	0.480314	99
Es	1.273912	-2.007659	-0.541462	99
Es	-0.176788	0.230346	-0.576923	99
Es	-0.912226	0.296617	-0.526178	99
Es	0.909697	0.872453	0.411542	99
Es	1.013743	-1.680551	-0.189887	99
Es	1.675953	0.408673	1.415024	99
Es	1.373527	-1.751351	-0.694025	99
Es	-0.365449	-1.687409	1.264388	99
Es	0.098293	-0.442880	-0.200178	99
Es	0.634818	1.412071	0.050259	99
Es	-1.872176	1.018920	-0.806533	99
Es	0.506823	1.212690	0.234956	99
Es	-1.678022	0.391203	-0.484121	99
Es	1.413251	-2.124348	-0.322737	99
45
Properties=species:S:1:pos:R:3:Z:I:1 energy=-739.2634254194287 field_type=dipole dipole="0.000000 0.000000 0.000000" charge=0
C	-1.678107	0.391223	-0.484088	6
C	-0.176907	0.230263	-0.577118	6
O	0.506753	1.212943	0.235022	8
C	1.542593	0.327863	0.706902	6
S	0.572913	-1.081037	0.326602	16
O	-0.220487	-1.529087	1.455252	8
O	1.274053	-2.007867	-0.541658	8
H	-2.184857	-0.430817	-1.000758	1
H	-1.994047	1.327183	-0.955448	1
H	-2.023597	0.405123	0.553712	1
H	0.174983	0.272793	-1.614018	1
H	2.463033	0.422463	0.123472	1
H	1.743673	0.458953	1.772122	1
Es	-1.897810	0.399242	0.210607	99
Es	1.168822	-0.374921	0.583922	99
Es	2.150333	0.373373	0.307238	99
Es	0.527792	-1.089974	0.447300	99
Es	-0.297392	-1.242690	1.540860	99
Es	1.375162	-1.754401	-0.699457	99
Es	0.908728	0.873305	0.411926	99
Es	0.069751	0.241373	-1.266829	99
Es	1.409205	-2.130707	-0.327474	99
Es	-2.001797	-0.165231	-0.837020	99
Es	-0.176788	0.230344	-0.576924	99
Es	1.017797	-1.679511	-0.185837	99
Es	-0.220334	-1.528991	1.455033	99
Es	0.058015	-1.353844	1.015039	99
Es	0.636445	1.406692	0.047435	99
Es	1.675712	0.408471	1.414986	99
Es	-0.912293	0.296545	-0.526146	99
Es	1.542375	0.327926	0.706805	99
Es	-1.872068	1.018563	-0.806588	99
Es	0.047547	-1.621607	1.515560	99
Es	1.274020	-2.007782	-0.541484	99
Es	0.649143	-1.173563	0.279041	99
Es	0.544213	-1.090843	0.311850	99
Es	-1.678023	0.391205	-0.484117	99
Es	0.580745	-0.966575	0.274905	99
Es	0.098356	-0.442629	-0.200229	99
Es	0.506793	1.212607	0.234955	99
Es	0.317294	1.269205	0.481621	99
Es	0.562652	-1.084291	0.319941	99
Es	1.003311	-2.084363	-0.596454	99
Es	0.256093	0.837233	-0.076840	99
Es	-0.359800	-1.697719	1.274367	99
45
Properties=species:S:1:pos:R:3:Z:I:1 energy=-739.2634254194287 field_type=dipole dipole="0.000000 0.000000 0.000000" charge=0
C	-1.678107	0.391223	-0.484088	6
C	-0.176907	0.230263	-0.577118	6
O	0.506753	1.212943	0.235022	8
C	1.542593	0.327863	0.706902	6
S	0.572913	-1.081037	0.326602	16
O	-0.220487	-1.529087	1.455252	8
O	1.274053	-2.007867	-0.541658	8
H	-2.184857	-0.430817	-1.000758	1
H	-1.994047	1.327183	-0.955448	1
H	-2.023597	0.405123	0.553712	1
H	0.174983	0.272793	-1.614018	1
H	2.463033	0.422463	0.123472	1
H	1.743673	0.458953	1.772122	1
Es	0.256222	0.837745	-0.076235	99
Es	0.506790	1.212548	0.234988	99
Es	0.997078	-2.049117	-0.588748	99
Es	-2.001593	-0.164945	-0.837172	99
Es	1.273940	-2.007749	-0.541548	99
Es	1.031234	-1.677464	-0.176617	99
Es	1.542374	0.327926	0.706804	99
Es	0.637253	1.407867	0.046827	99
Es	2.150438	0.373410	0.307156	99
Es	0.573015	-1.081189	0.326609	99
Es	1.168713	-0.374907	0.583973	99
Es	0.507109	-1.059173	0.241801	99
Es	0.317324	1.268130	0.483004	99
Es	0.638705	-0.987464	0.340415	99
Es	-1.678025	0.391205	-0.484118	99
Es	1.383985	-1.760634	-0.702338	99
Es	-0.176790	0.230344	-0.576925	99
Es	0.642973	-1.177154	0.296627	99
Es	-1.898160	0.399305	0.211016	99
Es	0.907715	0.872684	0.410618	99
Es	0.098050	-0.442428	-0.199973	99
Es	-0.220332	-1.528985	1.455029	99
Es	-1.871694	1.018387	-0.806819	99
Es	0.069863	0.241197	-1.267237	99
Es	-0.912187	0.296363	-0.526015	99
Es	-0.299608	-1.246438	1.551286	99
Es	0.037214	-1.634484	1.512920	99
Es	1.393233	-2.161866	-0.341461	99
Es	1.675637	0.408547	1.414881	99
Es	0.067630	-1.350318	1.020202	99
Es	0.502751	-1.100290	0.427597	99
Es	-0.356857	-1.684614	1.261447	99
45
Properties=species:S:1:pos:R:3:Z:I:1 energy=-739.2634254194287 field_type=dipole dipole="0.000000 0.000000 0.000000" charge=0
C	-1.678107	0.391223	-0.484088	6
C	-0.176907	0.230263	-0.577118	6
O	0.506753	1.212943	0.235022	8
C	1.542593	0.327863	0.706902	6
S	0.572913	-1.081037	0.326602	16
O	-0.220487	-1.529087	1.455252	8
O	1.274053	-2.007867	-0.541658	8
H	-2.184857	-0.430817	-1.000758	1
H	-1.994047	1.327183	-0.955448	1
H	-2.023597	0.405123	0.553712	1
H	0.174983	0.272793	-1.614018	1
H	2.463033	0.422463	0.123472	1
H	1.743673	0.458953	1.772122	1
Es	1.399495	-1.984068	-0.288786	99
Es	1.362090	-1.760008	-0.717161	99
Es	0.908598	0.872394	0.410460	99
Es	-0.311725	-1.250390	1.550582	99
Es	0.541366	-1.092012	0.444989	99
Es	0.315452	1.267831	0.483043	99
Es	1.675596	0.408180	1.415413	99
Es	0.636368	1.407334	0.047334	99
Es	1.092305	-2.214162	-0.572053	99
Es	-0.342503	-1.651006	1.238279	99
Es	0.610328	-0.974419	0.306049	99
Es	-1.678022	0.391206	-0.484119	99
Es	0.020891	-1.667747	1.526517	99
Es	0.658984	-1.160673	0.294391	99
Es	0.257785	0.838617	-0.076739	99
Es	0.572673	-1.081096	0.326555	99
Es	0.081714	-1.346662	1.030537	99
Es	0.069860	0.241464	-1.267325	99
Es	-0.176791	0.230344	-0.576926	99
Es	0.506809	1.212589	0.234897	99
Es	-0.912221	0.296280	-0.526232	99
Es	-1.872188	1.018548	-0.807448	99
Es	-0.220322	-1.528980	1.455006	99
Es	-1.898240	0.398926	0.211321	99
Es	-2.000939	-0.164479	-0.836571	99
Es	1.273863	-2.007630	-0.541454	99
Es	2.150351	0.373052	0.306973	99
Es	1.542375	0.327925	0.706802	99
Es	0.481201	-1.097110	0.261050	99
Es	0.951802	-1.690919	-0.231266	99
Es	1.168971	-0.374282	0.583785	99
Es	0.098071	-0.442607	-0.199908	99
45
Properties=species:S:1:pos:R:3:Z:I:1 energy=-739.2634254194287 field_type=dipole dipole="0.000000 0.000000 0.000000" charge=0
C	-1.678107	0.391223	-0.484088	6
C	-0.176907	0.230263	-0.577118	6
O	0.506753	1.212943	0.235022	8
C	1.542593	0.327863	0.706902	6
S	0.572913	-1.081037	0.326602	16
O	-0.220487	-1.529087	1.455252	8
O	1.274053	-2.007867	-0.541658	8
H	-2.184857	-0.430817	-1.000758	1
H	-1.994047	1.327183	-0.955448	1
H	-2.023597	0.405123	0.553712	1
H	0.174983	0.272793	-1.614018	1
H	2.463033	0.422463	0.123472	1
H	1.743673	0.458953	1.772122	1
Es	-0.343910	-1.659918	1.246777	99
Es	0.506793	1.212601	0.234966	99
Es	0.907932	0.872000	0.409758	99
Es	1.273897	-2.007662	-0.541480	99
Es	2.150508	0.372959	0.306895	99
Es	1.403607	-1.982061	-0.293756	99
Es	1.675532	0.408118	1.415219	99
Es	0.069819	0.241480	-1.267384	99
Es	1.542380	0.327924	0.706809	99
Es	0.098085	-0.442645	-0.199849	99
Es	0.530030	-1.066899	0.443041	99
Es	-0.310866	-1.249769	1.550831	99
Es	1.094740	-2.214746	-0.569048	99
Es	-1.872197	1.018720	-0.807535	99
Es	1.354791	-1.758712	-0.720456	99
Es	0.952533	-1.693622	-0.225972	99
Es	0.649732	-1.175634	0.313894	99
Es	-1.898309	0.398709	0.211369	99
Es	0.027290	-1.657729	1.523538	99
Es	-0.220296	-1.528953	1.454976	99
Es	0.573281	-1.080958	0.326641	99
Es	0.258131	0.839149	-0.076379	99
Es	0.075818	-1.348433	1.024794	99
Es	-0.912128	0.295996	-0.526285	99
Es	-1.678023	0.391206	-0.484116	99
Es	0.314904	1.268781	0.484048	99
Es	0.637207	1.406291	0.046608	99
Es	1.168884	-0.374218	0.583946	99
Es	-2.000889	-0.164093	-0.836424	99
Es	0.487540	-1.095418	0.256801	99
Es	-0.176788	0.230345	-0.576925	99
Es	0.623968	-0.986369	0.292693	99
45
Properties=species:S:1:pos:R:3:Z:I:1 energy=-739.2634254194287 field_type=dipole dipole="0.000000 0.000000 0.000000" charge=0
C	-1.678107	0.391223	-0.484088	6
C	-0.176907	0.230263	-0.577118	6
O	0.506753	1.212943	0.235022	8
C	1.542593	0.327863	0.706902	6
S	0.572913	-1.081037	0.326602	16
O	-0.220487	-1.529087	1.455252	8
O	1.274053	-2.007867	-0.541658	8
H	-2.184857	-0.430817	-1.000758	1
H	-1.994047	1.327183	-0.955448	1
H	-2.023597	0.405123	0.553712	1
H	0.174983	0.272793	-1.614018	1
H	2.463033	0.422463	0.123472	1
H	1.743673	0.458953	1.772122	1
Es	0.637051	1.406407	0.046862	99
Es	1.273890	-2.007665	-0.541439	99
Es	0.070040	0.241116	-1.267284	99
Es	-0.176789	0.230344	-0.576925	99
Es	2.150717	0.373329	0.306989	99
Es	1.675437	0.408427	1.414822	99
Es	0.098127	-0.442126	-0.200068	99
Es	0.506826	1.212621	0.234947	99
Es	0.045713	-1.613149	1.496567	99
Es	0.531125	-1.025201	0.240927	99
Es	0.495477	-1.071273	0.425037	99
Es	-0.912161	0.296390	-0.526179	99
Es	0.673155	-1.032621	0.349838	99
Es	1.046650	-1.689090	-0.158398	99
Es	1.542373	0.327926	0.706804	99
Es	1.385526	-1.752769	-0.695780	99
Es	-0.318477	-1.260907	1.566310	99
Es	0.907909	0.873075	0.409616	99
Es	-0.336444	-1.702740	1.265272	99
Es	0.057517	-1.339036	1.017769	99
Es	-1.871813	1.017969	-0.806642	99
Es	-2.001583	-0.164626	-0.837233	99
Es	0.316316	1.268885	0.484358	99
Es	-0.220305	-1.528971	1.454957	99
Es	-1.898341	0.399270	0.211243	99
Es	0.573015	-1.080542	0.325826	99
Es	0.591730	-1.195639	0.291420	99
Es	0.995134	-2.007764	-0.581905	99
Es	0.257190	0.837810	-0.076499	99
Es	1.168697	-0.374709	0.584134	99
Es	-1.678022	0.391206	-0.484120	99
Es	1.378316	-2.199511	-0.373235	99
45
Properties=species:S:1:pos:R:3:Z:I:1 energy=-739.2634254194287 field_type=dipole dipole="0.000000 0.000000 0.000000" charge=0
C	-1.678107	0.391223	-0.484088	6
C	-0.176907	0.230263	-0.577118	6
O	0.506753	1.212943	0.235022	8
C	1.542593	0.327863	0.706902	6
S	0.572913	-1.081037	0.326602	16
O	-0.220487	-1.529087	1.455252	8
O	1.274053	-2.007867	-0.541658	8
H	-2.184857	-0.430817	-1.000758	1
H	-1.994047	1.327183	-0.955448	1
H	-2.023597	0.405123	0.553712	1
H	0.174983	0.272793	-1.614018	1
H	2.463033	0.422463	0.123472	1
H	1.743673	0.458953	1.772122	1
Es	-1.678024	0.391205	-0.484119	99
Es	-0.309916	-1.248814	1.551585	99
Es	0.037341	-1.613779	1.506962	99
Es	-0.346893	-1.701830	1.270123	99
Es	0.315295	1.270633	0.485197	99
Es	0.067791	-1.351362	1.017283	99
Es	1.168675	-0.374470	0.584072	99
Es	0.258179	0.837413	-0.076681	99
Es	0.637187	1.404345	0.046582	99
Es	0.070028	0.241072	-1.267530	99
Es	0.510455	-1.077214	0.435159	99
Es	0.907837	0.873707	0.409199	99
Es	0.685633	-1.107031	0.342751	99
Es	0.572901	-1.081064	0.326774	99
Es	1.045558	-1.687008	-0.159362	99
Es	-0.912175	0.296292	-0.526053	99
Es	-0.220316	-1.528970	1.454980	99
Es	0.528281	-1.160685	0.256684	99
Es	1.675387	0.408342	1.415018	99
Es	1.542377	0.327925	0.706807	99
Es	-0.176789	0.230345	-0.576923	99
Es	-1.898446	0.399620	0.211519	99
Es	0.506791	1.212549	0.235023	99
Es	-2.001656	-0.164596	-0.837299	99
Es	0.999378	-2.001161	-0.578495	99
Es	-1.871523	1.017625	-0.806746	99
Es	1.387281	-1.755631	-0.697454	99
Es	0.567244	-0.979320	0.271668	99
Es	0.098068	-0.442001	-0.200055	99
Es	1.373373	-2.205310	-0.373920	99
Es	1.273941	-2.007663	-0.541546	99
Es	2.150736	0.373275	0.306791	99
45
Properties=species:S:1:pos:R:3:Z:I:1 energy=-739.2634254194287 field_type=dipole dipole="0.000000 0.000000 0.000000" charge=0
C	-1.678107	0.391223	-0.484088	6
C	-0.176907	0.230263	-0.577118	6
O	0.506753	1.212943	0.235022	8
C	1.542593	0.327863	0.706902	6
S	0.572913	-1.081037	0.326602	16
O	-0.220487	-1.529087	1.455252	8
O	1.274053	-2.007867	-0.541658	8
H	-2.184857	-0.430817	-1.000758	1
H	-1.994047	1.327183	-0.955448	1
H	-2.023597	0.405123	0.553712	1
H	0.174983	0.272793	-1.614018	1
H	2.463033	0.422463	0.123472	1
H	1.743673	0.458953	1.772122	1
Es	0.572761	-1.081008	0.326399	99
Es	0.061570	-1.346175	1.015946	99
Es	-0.912079	0.296313	-0.526238	99
Es	-1.898524	0.399517	0.211457	99
Es	-2.001717	-0.164417	-0.837316	99
Es	1.273916	-2.007636	-0.541402	99
Es	2.150693	0.373206	0.306759	99
Es	0.671843	-1.141167	0.339937	99
Es	-0.341241	-1.699849	1.268481	99
Es	0.258000	0.837979	-0.077317	99
Es	0.636403	1.406117	0.047662	99
Es	1.045340	-1.691723	-0.155718	99
Es	1.675462	0.408372	1.414992	99
Es	0.588453	-0.971354	0.369732	99
Es	0.908446	0.873526	0.408868	99
Es	-1.871671	1.017504	-0.806542	99
Es	1.168663	-0.374472	0.584173	99
Es	1.367120	-2.211280	-0.380533	99
Es	1.392216	-1.752755	-0.692245	99
Es	-0.220242	-1.528938	1.454973	99
Es	-0.313264	-1.254708	1.562492	99
Es	0.484028	-1.136800	0.385753	99
Es	-0.176789	0.230344	-0.576924	99
Es	1.000979	-1.993349	-0.580906	99
Es	0.506822	1.212611	0.234962	99
Es	0.547469	-1.074970	0.211240	99
Es	1.542375	0.327925	0.706807	99
Es	0.315612	1.268442	0.485133	99
Es	0.041142	-1.615094	1.498992	99
Es	0.070159	0.240994	-1.267404	99
Es	0.098077	-0.441925	-0.200102	99
Es	-1.678025	0.391205	-0.484119	99
45
Properties=species:S:1:pos:R:3:Z:I:1 energy=-739.2634254194287 field_type=dipole dipole="0.000000 0.000000 0.000000" charge=0
C	-1.678107	0.391223	-0.484088	6
C	-0.176907	0.230263	-0.577118	6
O	0.506753	1.212943	0.235022	8
C	1.542593	0.327863	0.706902	6
S	0.572913	-1.081037	0.326602	16
O	-0.220487	-1.529087	1.455252	8
O	1.274053	-2.007867	-0.541658	8
H	-2.184857	-0.430817	-1.000758	1
H	-1.994047	1.327183	-0.955448	1
H	-2.023597	0.405123	0.553712	1
H	0.174983	0.272793	-1.614018	1
H	2.463033	0.422463	0.123472	1
H	1.743673	0.458953	1.772122	1
Es	1.040634	-1.689067	-0.159367	99
Es	0.097969	-0.441991	-0.199991	99
Es	-0.318063	-1.253457	1.555273	99
Es	0.906144	0.872180	0.410329	99
Es	0.659533	-1.032506	0.254634	99
Es	0.070136	0.240977	-1.267443	99
Es	1.386872	-1.753180	-0.696222	99
Es	0.506808	1.212627	0.234972	99
Es	0.572982	-1.081104	0.326396	99
Es	2.150808	0.373243	0.306760	99
Es	-1.871583	1.017508	-0.806724	99
Es	1.168650	-0.374476	0.584186	99
Es	0.529853	-1.002362	0.414477	99
Es	-1.898485	0.399666	0.211521	99
Es	-0.220401	-1.529015	1.455046	99
Es	0.489160	-1.113509	0.262849	99
Es	0.257297	0.838037	-0.076007	99
Es	1.376968	-2.199711	-0.372247	99
Es	0.315546	1.273236	0.484580	99
Es	-2.001662	-0.164577	-0.837270	99
Es	0.055932	-1.348889	1.011736	99
Es	1.675373	0.408324	1.414896	99
Es	-0.912108	0.296368	-0.526249	99
Es	0.046527	-1.599476	1.499396	99
Es	-1.678024	0.391205	-0.484119	99
Es	1.542377	0.327925	0.706806	99
Es	-0.176785	0.230347	-0.576924	99
Es	1.273920	-2.007684	-0.541501	99
Es	0.639458	1.402657	0.045508	99
Es	1.001130	-2.007120	-0.581476	99
Es	-0.335970	-1.713934	1.279473	99
Es	0.613004	-1.175804	0.374693	99
45
Properties=species:S:1:pos:R:3:Z:I:1 energy=-739.2634254194287 field_type=dipole dipole="0.000000 0.000000 0.000000" charge=0
C	-1.678107	0.391223	-0.484088	6
C	-0.176907	0.230263	-0.577118	6
O	0.506753	1.212943	0.235022	8
C	1.542593	0.327863	0.706902	6
S	0.572913	-1.081037	0.326602	16
O	-0.220487	-1.529087	1.455252	8
O	1.274053	-2.007867	-0.541658	8
H	-2.184857	-0.430817	-1.000758	1
H	-1.994047	1.327183	-0.955448	1
H	-2.023597	0.405123	0.553712	1
H	0.174983	0.272793	-1.614018	1
H	2.463033	0.422463	0.123472	1
H	1.743673	0.458953	1.772122	1
Es	-0.176788	0.230345	-0.576923	99
Es	0.658320	-1.040483	0.373793	99
Es	-1.898651	0.399560	0.211567	99
Es	1.047050	-1.691807	-0.155358	99
Es	0.572930	-1.081029	0.326616	99
Es	2.150836	0.373307	0.306858	99
Es	0.097951	-0.441791	-0.200046	99
Es	-0.912074	0.296475	-0.526205	99
Es	1.392612	-1.752745	-0.691319	99
Es	-0.312372	-1.255207	1.563690	99
Es	0.506846	1.212581	0.234911	99
Es	0.638537	1.405267	0.047284	99
Es	1.675269	0.408390	1.414975	99
Es	-1.871616	1.017266	-0.806455	99
Es	0.258579	0.837640	-0.077671	99
Es	1.273952	-2.007750	-0.541563	99
Es	1.168677	-0.374542	0.584096	99
Es	-0.343767	-1.693616	1.259645	99
Es	0.069523	-1.344558	1.021642	99
Es	0.569644	-1.194047	0.359278	99
Es	0.034918	-1.622363	1.500864	99
Es	-2.001661	-0.164422	-0.837493	99
Es	0.589880	-1.070633	0.204589	99
Es	0.070264	0.240884	-1.267502	99
Es	-1.678022	0.391206	-0.484120	99
Es	1.000486	-1.990136	-0.580451	99
Es	0.473798	-1.019066	0.368802	99
Es	1.365443	-2.214297	-0.382135	99
Es	0.906484	0.873294	0.409747	99
Es	0.314895	1.269804	0.485001	99
Es	-0.220327	-1.529008	1.455070	99
Es	1.542379	0.327923	0.706807	99
45
Properties=species:S:1:pos:R:3:Z:I:1 energy=-739.2634254194287 field_type=dipole dipole="0.000000 0.000000 0.000000" charge=0
C	-1.678107	0.391223	-0.484088	6
C	-0.176907	0.230263	-0.577118	6
O	0.506753	1.212943	0.235022	8
C	1.542593	0.327863	0.706902	6
S	0.572913	-1.081037	0.326602	16
O	-0.220487	-1.529087	1.455252	8
O	1.274053	-2.007867	-0.541658	8
H	-2.184857	-0.430817	-1.000758	1
H	-1.994047	1.327183	-0.955448	1
H	-2.023597	0.405123	0.553712	1
H	0.174983	0.272793	-1.614018	1
H	2.463033	0.422463	0.123472	1
H	1.743673	0.458953	1.772122	1
Es	0.258377	0.839046	-0.076561	99
Es	1.132277	-2.242222	-0.558408	99
Es	0.572923	-1.080779	0.326326	99
Es	1.343272	-1.754098	-0.721787	99
Es	0.688456	-1.062642	0.305206	99
Es	0.069792	0.241465	-1.267725	99
Es	1.392427	-1.946061	-0.298320	99
Es	1.168988	-0.373660	0.583803	99
Es	0.907715	0.871870	0.410233	99
Es	-0.176788	0.230345	-0.576923	99
Es	-0.912035	0.295751	-0.526280	99
Es	0.543681	-1.181328	0.280476	99
Es	-0.220325	-1.528988	1.455027	99
Es	0.038034	-1.645852	1.514785	99
Es	-0.328111	-1.668257	1.250309	99
Es	-2.000738	-0.163582	-0.836542	99
Es	0.098049	-0.442465	-0.199739	99
Es	0.066275	-1.340493	1.021144	99
Es	0.937661	-1.706711	-0.230835	99
Es	1.675390	0.407778	1.415705	99
Es	0.506873	1.212573	0.234922	99
Es	0.546837	-1.079978	0.449141	99
Es	-1.898682	0.398758	0.211895	99
Es	-1.871912	1.018310	-0.807655	99
Es	-1.678026	0.391205	-0.484119	99
Es	0.314066	1.272269	0.484040	99
Es	0.637861	1.402916	0.046345	99
Es	1.542377	0.327924	0.706807	99
Es	2.150543	0.372719	0.306604	99
Es	-0.327801	-1.261143	1.559706	99
Es	0.512646	-1.000563	0.271900	99
Es	1.273896	-2.007670	-0.541484	99
45
Properties=species:S:1:pos:R:3:Z:I:1 energy=-739.2634254194287 field_type=dipole dipole="0.000000 0.000000 0.000000" charge=0
C	-1.678107	0.391223	-0.484088	6
C	-0.176907	0.230263	-0.577118	6
O	0.506753	1.212943	0.235022	8
C	1.542593	0.327863	0.706902	6
S	0.572913	-1.081037	0.326602	16
O	-0.220487	-1.529087	1.455252	8
O	1.274053	-2.007867	-0.541658	8
H	-2.184857	-0.430817	-1.000758	1
H	-1.994047	1.327183	-0.955448	1
H	-2.023597	0.405123	0.553712	1
H	0.174983	0.272793	-1.614018	1
H	2.463033	0.422463	0.123472	1
H	1.743673	0.458953	1.772122	1
Es	1.397703	-1.949316	-0.297894	99
Es	0.097952	-0.442277	-0.199870	99
Es	1.168924	-0.373730	0.584005	99
Es	0.572820	-1.081185	0.326527	99
Es	0.070126	0.241285	-1.267560	99
Es	0.506799	1.212651	0.234965	99
Es	0.023885	-1.667791	1.511113	99
Es	-0.315457	-1.258231	1.567329	99
Es	0.076196	-1.341600	1.027389	99
Es	1.542378	0.327923	0.706807	99
Es	1.675435	0.407931	1.415598	99
Es	1.126355	-2.237542	-0.554429	99
Es	0.907143	0.871796	0.411046	99
Es	-0.220333	-1.528992	1.455022	99
Es	0.616852	-1.176325	0.381194	99
Es	0.554587	-0.990995	0.406138	99
Es	-2.000811	-0.163728	-0.836677	99
Es	0.314332	1.272512	0.483471	99
Es	1.341680	-1.758715	-0.726517	99
Es	-1.898851	0.398985	0.211815	99
Es	-0.336276	-1.648090	1.240084	99
Es	0.258158	0.838490	-0.075778	99
Es	2.150574	0.372750	0.306486	99
Es	-0.912023	0.296052	-0.526410	99
Es	-1.872002	1.017871	-0.807451	99
Es	0.638495	1.403099	0.045421	99
Es	0.643399	-1.048020	0.230281	99
Es	0.939971	-1.703515	-0.230507	99
Es	0.476910	-1.108760	0.288908	99
Es	1.273888	-2.007645	-0.541471	99
Es	-1.678024	0.391205	-0.484118	99
Es	-0.176789	0.230344	-0.576925	99
45
Properties=species:S:1:pos:R:3:Z:I:1 energy=-739.2634254194287 field_type=dipole dipole="0.000000 0.000000 0.000000" charge=0
C	-1.678107	0.391223	-0.484088	6
C	-0.176907	0.230263	-0.577118	6
O	0.506753	1.212943	0.235022	8
C	1.542593	0.327863	0.706902	6
S	0.572913	-1.081037	0.326602	16
O	-0.220487	-1.529087	1.455252	8
O	1.274053	-2.007867	-0.541658	8
H	-2.184857	-0.430817	-1.000758	1
H	-1.994047	1.327183	-0.955448	1
H	-2.023597	0.405123	0.553712	1
H	0.174983	0.272793	-1.614018	1
H	2.463033	0.422463	0.123472	1
H	1.743673	0.458953	1.772122	1
Es	0.908058	0.871180	0.409465	99
Es	-2.000574	-0.163726	-0.836533	99
Es	-0.220341	-1.528996	1.455037	99
Es	-1.898815	0.398848	0.211862	99
Es	0.097985	-0.442363	-0.199785	99
Es	2.150597	0.372739	0.306537	99
Es	-0.332568	-1.649774	1.241798	99
Es	1.395195	-1.960885	-0.299976	99
Es	-0.176789	0.230345	-0.576923	99
Es	-0.912081	0.296057	-0.526303	99
Es	0.572885	-1.081036	0.326584	99
Es	-0.320411	-1.255146	1.556914	99
Es	0.077977	-1.345343	1.026276	99
Es	0.070020	0.241369	-1.267633	99
Es	-1.678025	0.391204	-0.484120	99
Es	0.314458	1.270883	0.484430	99
Es	0.258072	0.839865	-0.076855	99
Es	1.348936	-1.755930	-0.722233	99
Es	-1.872086	1.018072	-0.807693	99
Es	1.115497	-2.231732	-0.562053	99
Es	1.542376	0.327925	0.706807	99
Es	0.631760	-0.984473	0.331556	99
Es	1.273846	-2.007598	-0.541483	99
Es	0.536628	-1.112973	0.440031	99
Es	0.506849	1.212578	0.234952	99
Es	0.946116	-1.700596	-0.225059	99
Es	1.675410	0.407945	1.415561	99
Es	0.486186	-1.056212	0.271755	99
Es	0.023357	-1.665487	1.520927	99
Es	0.637484	1.404040	0.047053	99
Es	0.637098	-1.170598	0.263148	99
Es	1.168898	-0.373743	0.583950	99
45
Properties=species:S:1:pos:R:3:Z:I:1 energy=-739.2634254194287 field_type=dipole dipole="0.000000 0.000000 0.000000" charge=0
C	-1.678107	0.391223	-0.484088	6
C	-0.176907	0.230263	-0.577118	6
O	0.506753	1.212943	0.235022	8
C	1.542593	0.327863	0.706902	6
S	0.572913	-1.081037	0.326602	16
O	-0.220487	-1.529087	1.455252	8
O	1.274053	-2.007867	-0.541658	8
H	-2.184857	-0.430817	-1.000758	1
H	-1.994047	1.327183	-0.955448	1
H	-2.023597	0.405123	0.553712	1
H	0.174983	0.272793	-1.614018	1
H	2.463033	0.422463	0.123472	1
H	1.743673	0.458953	1.772122	1
Es	-0.912652	0.296622	-0.525780	99
Es	0.903659	0.874447	0.408938	99
Es	0.470286	-1.123423	0.319165	99
Es	0.118414	-1.357183	1.055900	99
Es	0.506827	1.212623	0.234999	99
Es	0.572065	-0.980461	0.268054	99
Es	2.150695	0.373901	0.307249	99
Es	-0.220325	-1.528982	1.455024	99
Es	0.258083	0.836290	-0.075791	99
Es	-0.291795	-1.250412	1.576839	99
Es	-2.001880	-0.165847	-0.837818	99
Es	-1.897678	0.399794	0.211307	99
Es	0.656275	-1.162338	0.278180	99
Es	0.098023	-0.442033	-0.199881	99
Es	-1.871119	1.018203	-0.806485	99
Es	0.593134	-1.058151	0.441105	99
Es	0.572774	-1.080959	0.326516	99
Es	0.069901	0.240985	-1.267555	99
Es	-0.043774	-1.730269	1.505470	99
Es	-1.678025	0.391205	-0.484117	99
Es	1.018724	-1.671241	-0.183340	99
Es	1.273911	-2.007626	-0.541455	99
Es	1.168416	-0.375384	0.584060	99
Es	0.315751	1.271501	0.486799	99
Es	1.381492	-2.135386	-0.327457	99
Es	1.006433	-2.069003	-0.590490	99
Es	1.398904	-1.773659	-0.707986	99
Es	-0.176790	0.230343	-0.576926	99
Es	0.640959	1.404248	0.044769	99
Es	-0.334538	-1.578035	1.207633	99
Es	1.542381	0.327922	0.706809	99
Es	1.675467	0.408744	1.414259	99
45
Properties=species:S:1:pos:R:3:Z:I:1 energy=-739.2634254194287 field_type=dipole dipole="0.000000 0.000000 0.000000" charge=0
C	-1.678107	0.391223	-0.484088	6
C	-0.176907	0.230263	-0.577118	6
O	0.506753	1.212943	0.235022	8
C	1.542593	0.327863	0.706902	6
S	0.572913	-1.081037	0.326602	16
O	-0.220487	-1.529087	1.455252	8
O	1.274053	-2.007867	-0.541658	8
H	-2.184857	-0.430817	-1.000758	1
H	-1.994047	1.327183	-0.955448	1
H	-2.023597	0.405123	0.553712	1
H	0.174983	0.272793	-1.614018	1
H	2.463033	0.422463	0.123472	1
H	1.743673	0.458953	1.772122	1
Es	1.130410	-2.240961	-0.555127	99
Es	0.907671	0.871805	0.410167	99
Es	0.070102	0.241313	-1.267652	99
Es	0.312942	1.269909	0.484071	99
Es	-0.911967	0.296078	-0.526377	99
Es	-1.898929	0.398793	0.211878	99
Es	0.565846	-1.060405	0.206106	99
Es	-0.176789	0.230344	-0.576925	99
Es	-2.000648	-0.163542	-0.836623	99
Es	0.071500	-1.341818	1.023315	99
Es	0.578558	-1.195794	0.348771	99
Es	0.506842	1.212555	0.234964	99
Es	2.150607	0.372701	0.306473	99
Es	1.675389	0.407883	1.415637	99
Es	1.542377	0.327924	0.706807	99
Es	-0.338585	-1.654107	1.245760	99
Es	-0.220338	-1.528994	1.455038	99
Es	0.028623	-1.661697	1.509916	99
Es	1.390154	-1.946265	-0.295943	99
Es	0.637710	1.404439	0.048479	99
Es	-1.872101	1.017914	-0.807508	99
Es	1.168990	-0.373653	0.584005	99
Es	1.273858	-2.007600	-0.541482	99
Es	0.572790	-1.081141	0.326457	99
Es	1.348003	-1.757377	-0.724085	99
Es	0.937157	-1.704519	-0.234188	99
Es	0.259737	0.839753	-0.078648	99
Es	0.097938	-0.442284	-0.199827	99
Es	0.484634	-1.021474	0.397361	99
Es	-0.313204	-1.258096	1.566918	99
Es	-1.678024	0.391204	-0.484119	99
Es	0.662745	-1.046451	0.354375	99
45
Properties=species:S:1:pos:R:3:Z:I:1 energy=-739.2634254194287 field_type=dipole dipole="0.000000 0.000000 0.000000" charge=0
C	-1.678107	0.391223	-0.484088	6
C	-0.176907	0.230263	-0.577118	6
O	0.506753	1.212943	0.235022	8
C	1.542593	0.327863	0.706902	6
S	0.572913	-1.081037	0.326602	16
O	-0.220487	-1.529087	1.455252	8
O	1.274053	-2.007867	-0.541658	8
H	-2.184857	-0.430817	-1.000758	1
H	-1.994047	1.327183	-0.955448	1
H	-2.023597	0.405123	0.553712	1
H	0.174983	0.272793	-1.614018	1
H	2.463033	0.422463	0.123472	1
H	1.743673	0.458953	1.772122	1
Es	1.394421	-1.968486	-0.300550	99
Es	-0.330487	-1.635241	1.237638	99
Es	0.097886	-0.442447	-0.199751	99
Es	1.111036	-2.228468	-0.572162	99
Es	-1.898611	0.398852	0.211856	99
Es	0.578054	-1.192593	0.352109	99
Es	0.086500	-1.351431	1.028721	99
Es	-1.872012	1.018218	-0.807613	99
Es	0.506793	1.212670	0.234951	99
Es	0.907039	0.871884	0.410386	99
Es	1.352310	-1.751034	-0.714900	99
Es	-0.220324	-1.529015	1.455047	99
Es	-2.000682	-0.163895	-0.836614	99
Es	0.010462	-1.678035	1.523099	99
Es	0.638611	1.402582	0.046082	99
Es	0.573033	-1.081145	0.326728	99
Es	2.150547	0.372840	0.306624	99
Es	0.259189	0.839140	-0.076568	99
Es	0.947962	-1.701127	-0.221743	99
Es	1.542376	0.327925	0.706806	99
Es	0.313252	1.272382	0.484293	99
Es	-0.176791	0.230343	-0.576927	99
Es	0.626375	-1.055457	0.212974	99
Es	-0.912076	0.296061	-0.526331	99
Es	0.069943	0.241381	-1.267681	99
Es	-1.678025	0.391205	-0.484118	99
Es	0.459900	-1.047088	0.333775	99
Es	1.273857	-2.007640	-0.541462	99
Es	-0.318124	-1.251028	1.556453	99
Es	1.675409	0.407873	1.415600	99
Es	0.627231	-1.028984	0.407446	99
Es	1.168943	-0.373804	0.583825	99
45
Properties=species:S:1:pos:R:3:Z:I:1 energy=-739.2634254194287 field_type=dipole dipole="0.000000 0.000000 0.000000" charge=0
C	-1.678107	0.391223	-0.484088	6
C	-0.176907	0.230263	-0.577118	6
O	0.506753	1.212943	0.235022	8
C	1.542593	0.327863	0.706902	6
S	0.572913	-1.081037	0.326602	16
O	-0.220487	-1.529087	1.455252	8
O	1.274053	-2.007867	-0.541658	8
H	-2.184857	-0.430817	-1.000758	1
H	-1.994047	1.327183	-0.955448	1
H	-2.023597	0.405123	0.553712	1
H	0.174983	0.272793	-1.614018	1
H	2.463033	0.422463	0.123472	1
H	1.743673	0.458953	1.772122	1
Es	1.402152	-1.750260	-0.680859	99
Es	1.542377	0.327924	0.706806	99
Es	0.040133	-1.617502	1.499446	99
Es	0.908110	0.873125	0.408380	99
Es	-2.001465	-0.163921	-0.837315	99
Es	-0.220364	-1.529015	1.455069	99
Es	-0.338304	-1.696278	1.266193	99
Es	0.506834	1.212623	0.234958	99
Es	1.273878	-2.007664	-0.541378	99
Es	0.688624	-1.073378	0.325234	99
Es	0.098021	-0.441827	-0.200145	99
Es	0.523486	-1.033707	0.433825	99
Es	-1.678024	0.391205	-0.484118	99
Es	0.572921	-1.081029	0.326605	99
Es	1.004405	-1.972903	-0.583435	99
Es	-0.316226	-1.257146	1.564175	99
Es	0.542582	-1.193916	0.308019	99
Es	0.070251	0.241077	-1.267644	99
Es	0.315122	1.269768	0.485779	99
Es	1.675176	0.408153	1.415224	99
Es	-0.911957	0.296190	-0.526215	99
Es	1.168765	-0.374110	0.584078	99
Es	-1.898938	0.399463	0.211788	99
Es	2.150910	0.373096	0.306648	99
Es	0.536906	-1.023260	0.239379	99
Es	1.047749	-1.698757	-0.149354	99
Es	0.636865	1.404829	0.046710	99
Es	-0.176790	0.230344	-0.576926	99
Es	1.351451	-2.227109	-0.395790	99
Es	0.062729	-1.344742	1.016053	99
Es	-1.871638	1.017131	-0.806666	99
Es	0.258258	0.838037	-0.076532	99
45
Properties=species:S:1:pos:R:3:Z:I:1 energy=-739.2634254194287 field_type=dipole dipole="0.000000 0.000000 0.000000" charge=0
C	-1.678107	0.391223	-0.484088	6
C	-0.176907	0.230263	-0.577118	6
O	0.506753	1.212943	0.235022	8
C	1.542593	0.327863	0.706902	6
S	0.572913	-1.081037	0.326602	16
O	-0.220487	-1.529087	1.455252	8
O	1.274053	-2.007867	-0.541658	8