41
Properties=species:S:1:pos:R:3:Z:I:1 energy=-644.2887670134668 field_type=dipole dipole="0.000000 0.000000 0.000000" charge=0
C	-0.633630	-2.089107	0.244574	6
C	-1.143710	-0.874217	-0.003566	6
C	-0.431220	0.368943	-0.108466	6
N	-1.090030	1.503113	-0.361286	7
S	-0.024610	2.766253	-0.426806	16
C	1.371680	1.834523	-0.116556	6
C	0.990450	0.518323	0.039214	6
H	-1.289370	-2.953277	0.298174	1
H	0.424840	-2.265357	0.399264	1
H	-2.221560	-0.803337	-0.144376	1
H	2.357610	2.273453	-0.065436	1
H	1.689550	-0.279317	0.245264	1
Es	0.741407	2.305631	-0.261563	99
Es	0.990443	0.518321	0.039213	99
Es	1.079060	1.174006	0.259790	99
Es	1.453380	-0.023705	0.177809	99
Es	-0.136504	2.751474	-0.467355	99
Es	-0.796089	1.080247	0.016750	99
Es	1.149481	1.081654	-0.338985	99
Es	-0.911172	-1.403197	0.433237	99
Es	-1.436782	1.580825	-0.415135	99
Es	0.083975	-2.209821	0.349685	99
Es	-0.835097	-1.500005	-0.197841	99
Es	0.031424	2.833734	-0.868168	99
Es	-0.023645	2.842928	-0.338735	99
Es	-0.074925	2.980373	-0.031366	99
Es	-1.070191	-2.675109	0.281938	99
Es	-1.865276	-0.820027	-0.098863	99
Es	-0.024591	2.766241	-0.426804	99
Es	1.371600	1.834672	-0.116589	99
Es	-0.431252	0.368989	-0.108463	99
Es	-1.089461	1.503033	-0.361211	99
Es	0.290720	0.403358	-0.026430	99
Es	-0.731399	0.998479	-0.518689	99
Es	-0.775688	-0.254416	-0.054346	99
Es	-0.633586	-2.089184	0.244592	99
Es	-1.143709	-0.874112	-0.003582	99
Es	0.017802	2.662615	-0.387223	99
Es	0.044416	2.804447	-0.513044	99
Es	-0.618883	2.017086	-0.382897	99
Es	2.021154	2.132860	-0.084264	99
41
Properties=species:S:1:pos:R:3:Z:I:1 energy=-644.2887670134668 field_type=dipole dipole="0.000000 0.000000 0.000000" charge=0
C	-0.633630	-2.089107	0.244574	6
C	-1.143710	-0.874217	-0.003566	6
C	-0.431220	0.368943	-0.108466	6
N	-1.090030	1.503113	-0.361286	7
S	-0.024610	2.766253	-0.426806	16
C	1.371680	1.834523	-0.116556	6
C	0.990450	0.518323	0.039214	6
H	-1.289370	-2.953277	0.298174	1
H	0.424840	-2.265357	0.399264	1
H	-2.221560	-0.803337	-0.144376	1
H	2.357610	2.273453	-0.065436	1
H	1.689550	-0.279317	0.245264	1
Es	-0.794749	1.079917	0.014734	99
Es	0.082005	-2.207912	0.349177	99
Es	-0.113258	3.255235	-0.511029	99
Es	2.019830	2.131840	-0.084377	99
Es	-0.835447	-1.500009	-0.195395	99
Es	-0.774727	-0.253720	-0.054236	99
Es	0.290179	0.407307	-0.027435	99
Es	-1.143709	-0.874107	-0.003583	99
Es	1.072941	1.168930	0.257296	99
Es	-0.627629	2.025805	-0.384890	99
Es	0.050166	2.869551	-0.446559	99
Es	-1.089445	1.503063	-0.361210	99
Es	0.018869	2.640470	-0.425848	99
Es	-0.038056	2.773842	-0.366921	99
Es	1.143414	1.077673	-0.336290	99
Es	1.453753	-0.026516	0.178392	99
Es	-0.633585	-2.089188	0.244591	99
Es	0.749963	2.309460	-0.262996	99
Es	-0.024747	2.766298	-0.426201	99
Es	1.371600	1.834673	-0.116588	99
Es	-0.129555	2.779222	-0.467102	99
Es	-1.430062	1.572557	-0.412602	99
Es	-1.862690	-0.821728	-0.098363	99
Es	-1.071110	-2.677885	0.282295	99
Es	-0.730243	0.999512	-0.517291	99
Es	-0.910984	-1.403972	0.430915	99
Es	0.074696	2.563790	-0.387764	99
Es	-0.431248	0.368981	-0.108473	99
Es	0.990441	0.518309	0.039213	99
41
Properties=species:S:1:pos:R:3:Z:I:1 energy=-644.2887670134668 field_type=dipole dipole="0.000000 0.000000 0.000000" charge=0
C	-0.633630	-2.089107	0.244574	6
C	-1.143710	-0.874217	-0.003566	6
C	-0.431220	0.368943	-0.108466	6
N	-1.090030	1.503113	-0.361286	7
S	-0.024610	2.766253	-0.426806	16
C	1.371680	1.834523	-0.116556	6
C	0.990450	0.518323	0.039214	6
H	-1.289370	-2.953277	0.298174	1
H	0.424840	-2.265357	0.399264	1
H	-2.221560	-0.803337	-0.144376	1
H	2.357610	2.273453	-0.065436	1
H	1.689550	-0.279317	0.245264	1
Es	0.075611	2.767805	-0.411045	99
Es	-0.630462	2.030071	-0.386654	99
Es	-0.835573	-1.499966	-0.192701	99
Es	-0.113150	3.255722	-0.511883	99
Es	0.748551	2.310154	-0.264170	99
Es	0.076258	2.568049	-0.384987	99
Es	-0.728322	0.999898	-0.514158	99
Es	1.068353	1.164988	0.254644	99
Es	-0.633585	-2.089188	0.244592	99
Es	-0.791677	1.080669	0.012760	99
Es	-0.024624	2.766338	-0.425894	99
Es	0.990440	0.518308	0.039227	99
Es	-1.089429	1.503065	-0.361206	99
Es	-0.431248	0.368980	-0.108470	99
Es	1.142137	1.077042	-0.333197	99
Es	-0.076294	2.641249	-0.414476	99
Es	-0.774422	-0.253186	-0.054387	99
Es	2.019178	2.130798	-0.084168	99
Es	-0.073423	2.888098	-0.453002	99
Es	-0.024068	2.765803	-0.429294	99
Es	0.289838	0.410254	-0.028221	99
Es	1.371600	1.834677	-0.116596	99
Es	-0.910666	-1.404091	0.428464	99
Es	-1.071210	-2.679573	0.282401	99
Es	-1.143711	-0.874107	-0.003581	99
Es	-1.426666	1.567390	-0.411763	99
Es	-1.861607	-0.823246	-0.097986	99
Es	0.081094	-2.206312	0.348712	99
Es	1.453690	-0.028293	0.178499	99
41
Properties=species:S:1:pos:R:3:Z:I:1 energy=-644.2887670134668 field_type=dipole dipole="0.000000 0.000000 0.000000" charge=0
C	-0.633630	-2.089107	0.244574	6
C	-1.143710	-0.874217	-0.003566	6
C	-0.431220	0.368943	-0.108466	6
N	-1.090030	1.503113	-0.361286	7
S	-0.024610	2.766253	-0.426806	16
C	1.371680	1.834523	-0.116556	6
C	0.990450	0.518323	0.039214	6
H	-1.289370	-2.953277	0.298174	1
H	0.424840	-2.265357	0.399264	1
H	-2.221560	-0.803337	-0.144376	1
H	2.357610	2.273453	-0.065436	1
H	1.689550	-0.279317	0.245264	1
Es	2.018412	2.130031	-0.082886	99
Es	0.746790	2.311975	-0.258548	99
Es	-0.113096	3.256443	-0.509356	99
Es	-0.633586	-2.089189	0.244592	99
Es	-0.729587	0.998113	-0.511932	99
Es	1.009837	1.113563	0.199523	99
Es	0.054293	2.770629	-0.403175	99
Es	0.079768	2.569638	-0.388363	99
Es	1.453134	-0.029473	0.178460	99
Es	0.289953	0.411622	-0.033427	99
Es	-0.024750	2.766267	-0.426390	99
Es	-1.422544	1.564206	-0.411652	99
Es	-0.834993	-1.499901	-0.192042	99
Es	-1.860317	-0.823948	-0.098338	99
Es	0.990442	0.518305	0.039211	99
Es	-0.062102	2.634754	-0.420803	99
Es	-0.774191	-0.253058	-0.054410	99
Es	-1.143707	-0.874104	-0.003581	99
Es	-0.911262	-1.404258	0.428037	99
Es	1.195485	1.121939	-0.273327	99
Es	-0.024002	2.765891	-0.428987	99
Es	-1.070582	-2.680841	0.282066	99
Es	0.079809	-2.205214	0.348801	99
Es	-0.431247	0.368979	-0.108483	99
Es	1.371598	1.834676	-0.116583	99
Es	-1.089419	1.503066	-0.361207	99
Es	-0.066309	2.891772	-0.454464	99
Es	-0.788365	1.087271	0.011188	99
Es	-0.632845	2.032241	-0.392462	99
41
Properties=species:S:1:pos:R:3:Z:I:1 energy=-644.2887670134668 field_type=dipole dipole="0.000000 0.000000 0.000000" charge=0
C	-0.633630	-2.089107	0.244574	6
C	-1.143710	-0.874217	-0.003566	6
C	-0.431220	0.368943	-0.108466	6
N	-1.090030	1.503113	-0.361286	7
S	-0.024610	2.766253	-0.426806	16
C	1.371680	1.834523	-0.116556	6
C	0.990450	0.518323	0.039214	6
H	-1.289370	-2.953277	0.298174	1
H	0.424840	-2.265357	0.399264	1
H	-2.221560	-0.803337	-0.144376	1
H	2.357610	2.273453	-0.065436	1
H	1.689550	-0.279317	0.245264	1
Es	2.017725	2.129432	-0.084218	99
Es	-0.023712	2.765852	-0.428688	99
Es	-0.431251	0.368982	-0.108464	99
Es	-1.416413	1.563516	-0.409616	99
Es	1.451951	-0.030408	0.178496	99
Es	-0.791568	1.087557	0.014034	99
Es	-0.112080	3.256241	-0.512417	99
Es	-0.023053	2.631689	-0.398324	99
Es	-0.636903	2.035015	-0.388240	99
Es	-0.633586	-2.089189	0.244591	99
Es	0.288546	0.413284	-0.028687	99
Es	0.990443	0.518305	0.039204	99
Es	-1.089411	1.503064	-0.361207	99
Es	0.084650	2.572135	-0.382910	99
Es	0.991402	1.037699	-0.047539	99
Es	-1.143710	-0.874106	-0.003582	99
Es	0.078016	-2.204960	0.348008	99
Es	-0.910897	-1.403991	0.430422	99
Es	1.371599	1.834674	-0.116589	99
Es	-0.032674	2.899220	-0.451967	99
Es	-0.727505	1.006644	-0.517710	99
Es	-1.069555	-2.681560	0.282948	99
Es	-0.027462	2.765408	-0.430601	99
Es	-0.774540	-0.252802	-0.054487	99
Es	-0.016268	2.767089	-0.424447	99
Es	-1.858157	-0.823738	-0.097359	99
Es	0.746972	2.311406	-0.265294	99
Es	1.209660	1.185435	-0.029317	99
Es	-0.835609	-1.500497	-0.194583	99
41
Properties=species:S:1:pos:R:3:Z:I:1 energy=-644.2887670134668 field_type=dipole dipole="0.000000 0.000000 0.000000" charge=0
C	-0.633630	-2.089107	0.244574	6
C	-1.143710	-0.874217	-0.003566	6
C	-0.431220	0.368943	-0.108466	6
N	-1.090030	1.503113	-0.361286	7
S	-0.024610	2.766253	-0.426806	16
C	1.371680	1.834523	-0.116556	6
C	0.990450	0.518323	0.039214	6
H	-1.289370	-2.953277	0.298174	1
H	0.424840	-2.265357	0.399264	1
H	-2.221560	-0.803337	-0.144376	1
H	2.357610	2.273453	-0.065436	1
H	1.689550	-0.279317	0.245264	1
Es	2.016911	2.128992	-0.084278	99
Es	-0.431247	0.368980	-0.108478	99
Es	-1.069268	-2.682263	0.283054	99
Es	1.451046	-0.031119	0.178561	99
Es	1.371599	1.834674	-0.116588	99
Es	0.990456	1.034499	-0.054879	99
Es	0.289490	0.414163	-0.028374	99
Es	-0.111870	3.256397	-0.512253	99
Es	-0.910820	-1.403805	0.428783	99
Es	-1.414954	1.561270	-0.409320	99
Es	-0.792757	1.083272	0.011516	99
Es	0.085276	2.572632	-0.383534	99
Es	-0.064061	2.763028	-0.434761	99
Es	-1.089502	1.503092	-0.361234	99
Es	-0.835563	-1.500644	-0.193002	99
Es	-1.857801	-0.824472	-0.097255	99
Es	1.208578	1.186535	-0.022242	99
Es	0.001794	2.633650	-0.401356	99
Es	-0.638888	2.036533	-0.388442	99
Es	-0.024702	2.766266	-0.426549	99
Es	-0.633582	-2.089188	0.244592	99
Es	-0.774564	-0.252553	-0.054420	99
Es	-1.143708	-0.874104	-0.003583	99
Es	-0.024810	2.766339	-0.425869	99
Es	0.077566	-2.204145	0.347867	99
Es	0.990439	0.518304	0.039216	99
Es	-0.723945	1.012965	-0.515108	99
Es	-0.011492	2.900046	-0.445035	99
Es	0.746990	2.312054	-0.265569	99
41
Properties=species:S:1:pos:R:3:Z:I:1 energy=-644.2887670134668 field_type=dipole dipole="0.000000 0.000000 0.000000" charge=0
C	-0.633630	-2.089107	0.244574	6
C	-1.143710	-0.874217	-0.003566	6
C	-0.431220	0.368943	-0.108466	6
N	-1.090030	1.503113	-0.361286	7
S	-0.024610	2.766253	-0.426806	16
C	1.371680	1.834523	-0.116556	6
C	0.990450	0.518323	0.039214	6
H	-1.289370	-2.953277	0.298174	1
H	0.424840	-2.265357	0.399264	1
H	-2.221560	-0.803337	-0.144376	1
H	2.357610	2.273453	-0.065436	1
H	1.689550	-0.279317	0.245264	1
Es	0.086951	2.572490	-0.386948	99
Es	-1.068743	-2.682733	0.282906	99
Es	-1.143707	-0.874104	-0.003584	99
Es	2.016483	2.128839	-0.083949	99
Es	0.990255	1.028553	-0.067792	99
Es	-0.774711	-0.252419	-0.054478	99
Es	-0.431248	0.368979	-0.108474	99
Es	0.076651	-2.203913	0.347635	99
Es	-1.089411	1.503064	-0.361205	99
Es	-0.910865	-1.404308	0.429561	99
Es	-0.112130	3.257018	-0.508714	99
Es	-0.715070	1.046268	-0.471554	99
Es	-1.856782	-0.824510	-0.096948	99
Es	-0.802391	1.053055	-0.032500	99
Es	-0.024373	2.766150	-0.427257	99
Es	-0.633585	-2.089189	0.244592	99
Es	-0.835601	-1.500259	-0.193930	99
Es	0.990440	0.518309	0.039222	99
Es	-0.028110	2.900572	-0.445716	99
Es	-0.026600	2.766159	-0.427316	99
Es	1.371600	1.834676	-0.116594	99
Es	1.206494	1.188447	-0.008728	99
Es	-0.023602	2.766420	-0.425749	99
Es	-1.411442	1.560794	-0.409829	99
Es	-0.640432	2.037395	-0.389059	99
Es	-0.020555	2.630032	-0.407394	99
Es	1.450566	-0.031536	0.178157	99
Es	0.289760	0.414565	-0.028421	99
Es	0.746773	2.312581	-0.264474	99
41
Properties=species:S:1:pos:R:3:Z:I:1 energy=-644.2887670134668 field_type=dipole dipole="0.000000 0.000000 0.000000" charge=0
C	-0.633630	-2.089107	0.244574	6
C	-1.143710	-0.874217	-0.003566	6
C	-0.431220	0.368943	-0.108466	6
N	-1.090030	1.503113	-0.361286	7
S	-0.024610	2.766253	-0.426806	16
C	1.371680	1.834523	-0.116556	6
C	0.990450	0.518323	0.039214	6
H	-1.289370	-2.953277	0.298174	1
H	0.424840	-2.265357	0.399264	1
H	-2.221560	-0.803337	-0.144376	1
H	2.357610	2.273453	-0.065436	1
H	1.689550	-0.279317	0.245264	1
Es	-0.835679	-1.500406	-0.194487	99
Es	-1.408906	1.560971	-0.407638	99
Es	-0.910832	-1.404209	0.430260	99
Es	-1.068189	-2.683141	0.283785	99
Es	1.449857	-0.031824	0.178998	99
Es	-0.633587	-2.089188	0.244597	99
Es	0.087702	2.573690	-0.380682	99
Es	0.746821	2.312767	-0.265562	99
Es	-0.774918	-0.252292	-0.054634	99
Es	0.075541	-2.203512	0.347797	99
Es	-0.757003	1.117271	-0.079934	99
Es	-0.024493	2.765908	-0.428582	99
Es	-1.089412	1.503066	-0.361203	99
Es	1.212275	1.181461	-0.055534	99
Es	1.371597	1.834678	-0.116587	99
Es	0.990437	0.518308	0.039212	99
Es	-1.143708	-0.874105	-0.003582	99
Es	-0.761417	0.984381	-0.424472	99
Es	2.016233	2.128500	-0.084765	99
Es	-0.025488	2.766351	-0.426071	99
Es	0.289992	0.415075	-0.028140	99
Es	0.982496	1.032315	-0.021358	99
Es	-1.855737	-0.824640	-0.097120	99
Es	-0.641530	2.038017	-0.388870	99
Es	-0.110901	3.255914	-0.516427	99
Es	-0.017076	2.631129	-0.401790	99
Es	-0.030549	2.899753	-0.450173	99
Es	-0.431246	0.368978	-0.108475	99
Es	-0.025668	2.766181	-0.427101	99
41
Properties=species:S:1:pos:R:3:Z:I:1 energy=-644.2887670134668 field_type=dipole dipole="0.000000 0.000000 0.000000" charge=0
C	-0.633630	-2.089107	0.244574	6
C	-1.143710	-0.874217	-0.003566	6
C	-0.431220	0.368943	-0.108466	6
N	-1.090030	1.503113	-0.361286	7
S	-0.024610	2.766253	-0.426806	16
C	1.371680	1.834523	-0.116556	6
C	0.990450	0.518323	0.039214	6
H	-1.289370	-2.953277	0.298174	1
H	0.424840	-2.265357	0.399264	1
H	-2.221560	-0.803337	-0.144376	1
H	2.357610	2.273453	-0.065436	1
H	1.689550	-0.279317	0.245264	1
Es	-0.911054	-1.404726	0.430659	99
Es	-0.111663	3.257168	-0.508594	99
Es	-0.025060	2.900991	-0.443020	99
Es	-0.022886	2.765743	-0.430262	99
Es	-1.143707	-0.874104	-0.003585	99
Es	-0.431248	0.368980	-0.108476	99
Es	-1.406308	1.560465	-0.408677	99
Es	-0.802777	1.026679	-0.113242	99
Es	0.089351	2.573150	-0.385736	99
Es	-0.642665	2.038521	-0.389694	99
Es	0.990437	0.518309	0.039219	99
Es	0.074842	-2.203306	0.347401	99
Es	-0.633585	-2.089189	0.244591	99
Es	0.290274	0.415125	-0.029118	99
Es	-0.017937	2.630656	-0.404158	99
Es	0.985622	1.023189	-0.060737	99
Es	-0.774879	-0.252279	-0.054549	99
Es	-0.024573	2.766228	-0.426673	99
Es	-0.032733	2.765589	-0.430169	99
Es	1.371598	1.834674	-0.116589	99
Es	1.207233	1.187683	-0.014999	99
Es	-0.715990	1.077424	-0.392074	99
Es	0.746653	2.313138	-0.264553	99
Es	2.015843	2.128537	-0.083780	99
Es	-1.067617	-2.683614	0.283112	99
Es	-1.855135	-0.824555	-0.096849	99
Es	1.449598	-0.032161	0.178213	99
Es	-1.089430	1.503073	-0.361215	99
Es	-0.835593	-1.499990	-0.194983	99
41
Properties=species:S:1:pos:R:3:Z:I:1 energy=-644.2887670134668 field_type=dipole dipole="0.000000 0.000000 0.000000" charge=0
C	-0.633630	-2.089107	0.244574	6
C	-1.143710	-0.874217	-0.003566	6
C	-0.431220	0.368943	-0.108466	6
N	-1.090030	1.503113	-0.361286	7
S	-0.024610	2.766253	-0.426806	16
C	1.371680	1.834523	-0.116556	6
C	0.990450	0.518323	0.039214	6
H	-1.289370	-2.953277	0.298174	1
H	0.424840	-2.265357	0.399264	1
H	-2.221560	-0.803337	-0.144376	1
H	2.357610	2.273453	-0.065436	1
H	1.689550	-0.279317	0.245264	1
Es	-0.031835	2.899860	-0.449478	99
Es	-0.023542	2.765882	-0.428910	99
Es	-0.431249	0.368980	-0.108471	99
Es	-0.779479	0.988559	-0.335453	99
Es	-0.775232	-0.252106	-0.054597	99
Es	0.990442	0.518306	0.039201	99
Es	0.746708	2.313210	-0.265748	99
Es	-1.067332	-2.683754	0.283824	99
Es	-1.854281	-0.824664	-0.096968	99
Es	1.211816	1.182095	-0.052146	99
Es	2.015760	2.128314	-0.084519	99
Es	-1.089398	1.503065	-0.361208	99
Es	1.371599	1.834678	-0.116591	99
Es	-0.911077	-1.404381	0.431273	99
Es	-0.110710	3.256217	-0.515160	99
Es	-1.404562	1.560587	-0.407634	99
Es	-0.740156	1.117471	-0.169337	99
Es	-0.835527	-1.500364	-0.195635	99
Es	-0.020721	2.766550	-0.425896	99
Es	-0.643271	2.038815	-0.389510	99
Es	1.449053	-0.032327	0.178858	99
Es	-0.633583	-2.089188	0.244592	99
Es	0.290529	0.415409	-0.029023	99
Es	-1.143707	-0.874104	-0.003584	99
Es	-0.024547	2.766254	-0.426731	99
Es	-0.022681	2.630768	-0.402706	99
Es	0.089946	2.574022	-0.380911	99
Es	0.074069	-2.203182	0.347574	99
Es	0.979580	1.026423	-0.023648	99
41
Properties=species:S:1:pos:R:3:Z:I:1 energy=-644.2887670134668 field_type=dipole dipole="0.000000 0.000000 0.000000" charge=0
C	-0.633630	-2.089107	0.244574	6
C	-1.143710	-0.874217	-0.003566	6
C	-0.431220	0.368943	-0.108466	6
N	-1.090030	1.503113	-0.361286	7
S	-0.024610	2.766253	-0.426806	16
C	1.371680	1.834523	-0.116556	6
C	0.990450	0.518323	0.039214	6
H	-1.289370	-2.953277	0.298174	1
H	0.424840	-2.265357	0.399264	1
H	-2.221560	-0.803337	-0.144376	1
H	2.357610	2.273453	-0.065436	1
H	1.689550	-0.279317	0.245264	1
Es	-1.066955	-2.684040	0.283625	99
Es	-0.790095	0.996848	-0.264825	99
Es	-0.911080	-1.404659	0.431598	99
Es	-1.089401	1.503058	-0.361220	99
Es	-0.775269	-0.252079	-0.054625	99
Es	-1.402836	1.560306	-0.407485	99
Es	1.448866	-0.032501	0.178605	99
Es	-0.835583	-1.500110	-0.195881	99
Es	-0.729837	1.110648	-0.240687	99
Es	-0.027582	2.899126	-0.454147	99
Es	0.073511	-2.203040	0.347345	99
Es	-0.633586	-2.089189	0.244589	99
Es	-0.026336	2.767320	-0.420167	99
Es	-1.853811	-0.824647	-0.096787	99
Es	2.015580	2.128279	-0.084269	99
Es	0.979663	1.022749	-0.034780	99
Es	-1.143707	-0.874106	-0.003589	99
Es	-0.026308	2.766203	-0.426824	99
Es	1.371598	1.834675	-0.116590	99
Es	1.210484	1.183921	-0.040818	99
Es	0.990439	0.518310	0.039232	99
Es	-0.111020	3.256668	-0.512482	99
Es	-0.022239	2.766492	-0.426064	99
Es	-0.431249	0.368979	-0.108475	99
Es	0.091041	2.573766	-0.383287	99
Es	0.290663	0.415557	-0.029139	99
Es	0.746521	2.313518	-0.264698	99
Es	-0.020695	2.630139	-0.406791	99
Es	-0.644167	2.039206	-0.389904	99
41
Properties=species:S:1:pos:R:3:Z:I:1 energy=-644.2887670134668 field_type=dipole dipole="0.000000 0.000000 0.000000" charge=0
C	-0.633630	-2.089107	0.244574	6
C	-1.143710	-0.874217	-0.003566	6
C	-0.431220	0.368943	-0.108466	6
N	-1.090030	1.503113	-0.361286	7
S	-0.024610	2.766253	-0.426806	16
C	1.371680	1.834523	-0.116556	6
C	0.990450	0.518323	0.039214	6
H	-1.289370	-2.953277	0.298174	1
H	0.424840	-2.265357	0.399264	1
H	-2.221560	-0.803337	-0.144376	1
H	2.357610	2.273453	-0.065436	1
H	1.689550	-0.279317	0.245264	1
Es	-0.910629	-1.405759	0.430369	99
Es	-0.026598	2.766410	-0.425629	99
Es	0.990442	0.518306	0.039217	99
Es	-0.775115	-0.252028	-0.054585	99
Es	1.448599	-0.032655	0.178634	99
Es	-0.644903	2.039511	-0.389847	99
Es	-0.633585	-2.089188	0.244592	99
Es	-0.431248	0.368979	-0.108475	99
Es	-1.401712	1.560150	-0.407186	99
Es	-0.021619	2.630181	-0.406341	99
Es	0.073456	-2.202733	0.347247	99
Es	-0.836002	-1.498998	-0.194707	99
Es	2.015441	2.128144	-0.084307	99
Es	-0.026961	2.899920	-0.450175	99
Es	0.979328	1.021509	-0.037084	99
Es	0.746516	2.313604	-0.265173	99
Es	-1.143707	-0.874103	-0.003582	99
Es	1.371598	1.834674	-0.116596	99
Es	-1.089420	1.503057	-0.361206	99
Es	-0.110731	3.256670	-0.512693	99
Es	1.210184	1.184329	-0.038336	99
Es	-1.066857	-2.684251	0.283737	99
Es	-0.023606	2.766560	-0.424818	99
Es	-0.729242	1.111130	-0.242908	99
Es	-1.853893	-0.824868	-0.096704	99
Es	0.091293	2.573902	-0.382936	99
Es	-0.024543	2.766236	-0.426809	99
Es	0.290744	0.415675	-0.029258	99
Es	-0.790619	0.997034	-0.262980	99
41
Properties=species:S:1:pos:R:3:Z:I:1 energy=-644.2887670134668 field_type=dipole dipole="0.000000 0.000000 0.000000" charge=0
C	-0.633630	-2.089107	0.244574	6
C	-1.143710	-0.874217	-0.003566	6
C	-0.431220	0.368943	-0.108466	6
N	-1.090030	1.503113	-0.361286	7
S	-0.024610	2.766253	-0.426806	16
C	1.371680	1.834523	-0.116556	6
C	0.990450	0.518323	0.039214	6
H	-1.289370	-2.953277	0.298174	1
H	0.424840	-2.265357	0.399264	1
H	-2.221560	-0.803337	-0.144376	1
H	2.357610	2.273453	-0.065436	1
H	1.689550	-0.279317	0.245264	1
Es	0.091557	2.574079	-0.382625	99
Es	-1.400578	1.559945	-0.407982	99
Es	-1.143707	-0.874103	-0.003581	99
Es	-0.645193	2.039611	-0.390137	99
Es	-0.725502	1.107396	-0.271458	99
Es	-1.089397	1.503068	-0.361203	99
Es	-0.025219	2.767128	-0.420119	99
Es	-0.835447	-1.503674	-0.187696	99
Es	0.990439	0.518307	0.039211	99
Es	0.979107	1.020271	-0.040456	99
Es	-1.066781	-2.684371	0.283836	99
Es	-0.775135	-0.251988	-0.054719	99
Es	-0.633585	-2.089189	0.244592	99
Es	-0.110713	3.256601	-0.513210	99
Es	2.015289	2.128046	-0.084274	99
Es	-0.017560	2.766510	-0.426232	99
Es	0.073232	-2.202605	0.347242	99
Es	-0.794609	1.001352	-0.233825	99
Es	0.746507	2.313921	-0.264586	99
Es	-1.853684	-0.824968	-0.096683	99
Es	-0.431249	0.368980	-0.108472	99
Es	1.371595	1.834677	-0.116590	99
Es	1.448313	-0.032822	0.178659	99
Es	1.209705	1.184821	-0.035159	99
Es	-0.024612	2.766357	-0.426088	99
Es	-0.031144	2.899803	-0.450012	99
Es	0.290847	0.415876	-0.028843	99
Es	-0.911118	-1.401083	0.423369	99
Es	-0.024748	2.629449	-0.411499	99
41
Properties=species:S:1:pos:R:3:Z:I:1 energy=-644.2887670134668 field_type=dipole dipole="0.000000 0.000000 0.000000" charge=0
C	-0.633630	-2.089107	0.244574	6
C	-1.143710	-0.874217	-0.003566	6
C	-0.431220	0.368943	-0.108466	6
N	-1.090030	1.503113	-0.361286	7
S	-0.024610	2.766253	-0.426806	16
C	1.371680	1.834523	-0.116556	6
C	0.990450	0.518323	0.039214	6
H	-1.289370	-2.953277	0.298174	1
H	0.424840	-2.265357	0.399264	1
H	-2.221560	-0.803337	-0.144376	1
H	2.357610	2.273453	-0.065436	1
H	1.689550	-0.279317	0.245264	1
Es	-0.775214	-0.251946	-0.054677	99
Es	-1.399541	1.559589	-0.407604	99
Es	-0.726539	1.109906	-0.260076	99
Es	-0.646157	2.039948	-0.390572	99
Es	1.448096	-0.032937	0.178807	99
Es	1.371598	1.834674	-0.116590	99
Es	-0.020085	2.900086	-0.448758	99
Es	-1.853320	-0.825010	-0.096736	99
Es	2.015090	2.127880	-0.084352	99
Es	1.209977	1.184362	-0.038292	99
Es	-0.024145	2.766311	-0.426366	99
Es	-0.431249	0.368980	-0.108474	99
Es	-0.910656	-1.400203	0.414302	99
Es	0.978314	1.019969	-0.037432	99
Es	-0.633586	-2.089189	0.244591	99
Es	-1.066562	-2.684481	0.283885	99
Es	-0.110538	3.256556	-0.513662	99
Es	0.990443	0.518305	0.039204	99
Es	0.746453	2.314192	-0.264128	99
Es	-1.089411	1.503063	-0.361195	99
Es	-1.143707	-0.874104	-0.003584	99
Es	-0.030704	2.766918	-0.422659	99
Es	0.072956	-2.202522	0.347263	99
Es	-0.793130	0.999587	-0.245363	99
Es	-0.023984	2.630329	-0.406230	99
Es	-0.835985	-1.504576	-0.178567	99
Es	0.290896	0.415974	-0.028724	99
Es	-0.024388	2.765655	-0.429847	99
Es	0.091690	2.574080	-0.382702	99
41
Properties=species:S:1:pos:R:3:Z:I:1 energy=-644.2887670134668 field_type=dipole dipole="0.000000 0.000000 0.000000" charge=0
C	-0.633630	-2.089107	0.244574	6
C	-1.143710	-0.874217	-0.003566	6
C	-0.431220	0.368943	-0.108466	6
N	-1.090030	1.503113	-0.361286	7
S	-0.024610	2.766253	-0.426806	16
C	1.371680	1.834523	-0.116556	6
C	0.990450	0.518323	0.039214	6
H	-1.289370	-2.953277	0.298174	1
H	0.424840	-2.265357	0.399264	1
H	-2.221560	-0.803337	-0.144376	1
H	2.357610	2.273453	-0.065436	1
H	1.689550	-0.279317	0.245264	1
Es	-0.024448	2.766155	-0.427146	99
Es	-0.727890	1.112199	-0.247472	99
Es	-0.791953	0.997493	-0.258481	99
Es	-0.431248	0.368979	-0.108479	99
Es	-0.906705	-1.415576	0.409840	99
Es	-0.775231	-0.251923	-0.054622	99
Es	-0.027464	2.765906	-0.429587	99
Es	-0.027389	2.766181	-0.427102	99
Es	0.072633	-2.202454	0.347134	99
Es	-1.089409	1.503069	-0.361203	99
Es	-1.398671	1.559632	-0.406886	99
Es	-1.853020	-0.824939	-0.096545	99
Es	0.978003	1.019329	-0.038614	99
Es	0.091849	2.574291	-0.381750	99
Es	-0.646572	2.040133	-0.390300	99
Es	1.447907	-0.033132	0.178385	99
Es	0.990442	0.518307	0.039216	99
Es	1.371600	1.834674	-0.116590	99
Es	-0.840006	-1.489276	-0.174271	99
Es	0.291059	0.415959	-0.029594	99
Es	-1.143707	-0.874104	-0.003582	99
Es	0.746708	2.313828	-0.267187	99
Es	1.209792	1.184652	-0.036448	99
Es	-1.066358	-2.684638	0.283725	99
Es	-0.633586	-2.089189	0.244591	99
Es	-0.110722	3.256941	-0.511291	99
Es	2.015004	2.127866	-0.084167	99
Es	-0.022393	2.630384	-0.404958	99
Es	-0.021611	2.900651	-0.445157	99
41
Properties=species:S:1:pos:R:3:Z:I:1 energy=-644.2887670134668 field_type=dipole dipole="0.000000 0.000000 0.000000" charge=0
C	-0.633630	-2.089107	0.244574	6
C	-1.143710	-0.874217	-0.003566	6
C	-0.431220	0.368943	-0.108466	6
N	-1.090030	1.503113	-0.361286	7
S	-0.024610	2.766253	-0.426806	16
C	1.371680	1.834523	-0.116556	6
C	0.990450	0.518323	0.039214	6
H	-1.289370	-2.953277	0.298174	1
H	0.424840	-2.265357	0.399264	1
H	-2.221560	-0.803337	-0.144376	1
H	2.357610	2.273453	-0.065436	1
H	1.689550	-0.279317	0.245264	1
Es	0.746553	2.314097	-0.266043	99
Es	-0.647156	2.040301	-0.390757	99
Es	0.291126	0.415940	-0.030232	99
Es	-1.089393	1.503062	-0.361207	99
Es	-0.024615	2.766254	-0.426803	99
Es	-0.110936	3.257189	-0.509713	99
Es	-1.397705	1.559393	-0.407132	99
Es	0.072478	-2.202414	0.347001	99
Es	0.976975	1.020005	-0.033008	99
Es	-0.725905	1.109954	-0.263170	99
Es	-0.905981	-1.417218	0.404765	99
Es	1.210351	1.183869	-0.041542	99
Es	-0.633585	-2.089189	0.244592	99
Es	-0.024560	2.766253	-0.426702	99
Es	-0.023949	2.630028	-0.407077	99
Es	1.447809	-0.033203	0.178333	99
Es	-0.840793	-1.487635	-0.169040	99
Es	-0.025477	2.900543	-0.446404	99
Es	-0.775202	-0.251897	-0.054633	99
Es	-0.794066	0.999842	-0.242585	99
Es	2.014874	2.127857	-0.084001	99
Es	-1.852741	-0.824998	-0.096575	99
Es	-0.024697	2.766237	-0.426798	99
Es	0.990440	0.518307	0.039214	99
Es	-1.066258	-2.684734	0.283596	99
Es	1.371598	1.834674	-0.116588	99
Es	0.092381	2.574003	-0.383970	99
Es	-0.431249	0.368980	-0.108475	99
Es	-1.143706	-0.874104	-0.003584	99
41
Properties=species:S:1:pos:R:3:Z:I:1 energy=-644.2887670134668 field_type=dipole dipole="0.000000 0.000000 0.000000" charge=0
C	-0.633630	-2.089107	0.244574	6
C	-1.143710	-0.874217	-0.003566	6
C	-0.431220	0.368943	-0.108466	6
N	-1.090030	1.503113	-0.361286	7
S	-0.024610	2.766253	-0.426806	16
C	1.371680	1.834523	-0.116556	6
C	0.990450	0.518323	0.039214	6
H	-1.289370	-2.953277	0.298174	1
H	0.424840	-2.265357	0.399264	1
H	-2.221560	-0.803337	-0.144376	1
H	2.357610	2.273453	-0.065436	1
H	1.689550	-0.279317	0.245264	1
Es	0.291070	0.416206	-0.028516	99
Es	1.210241	1.183825	-0.041959	99
Es	-0.023524	2.766323	-0.426555	99
Es	1.447680	-0.033201	0.178773	99
Es	-0.775409	-0.251814	-0.054750	99
Es	-0.024664	2.765926	-0.428367	99
Es	-0.026191	2.630882	-0.402005	99
Es	-0.909161	-1.400026	0.395764	99
Es	0.746395	2.314507	-0.264298	99
Es	0.072055	-2.202245	0.347106	99
Es	2.014789	2.127697	-0.084228	99
Es	-0.021175	2.765982	-0.428427	99
Es	-0.633584	-2.089191	0.244590	99
Es	-0.647447	2.040407	-0.390890	99
Es	-1.089395	1.503065	-0.361199	99
Es	0.990441	0.518306	0.039215	99
Es	-1.852441	-0.825067	-0.096638	99
Es	-1.065995	-2.684852	0.284067	99
Es	1.371597	1.834674	-0.116593	99
Es	-0.726751	1.111389	-0.255290	99
Es	0.976851	1.019614	-0.033946	99
Es	-0.793613	0.998595	-0.249942	99
Es	0.092226	2.574430	-0.381522	99
Es	-1.396791	1.559279	-0.407724	99
Es	-0.431249	0.368980	-0.108475	99
Es	-0.110300	3.256479	-0.514446	99
Es	-0.027724	2.900157	-0.448669	99
Es	-1.143706	-0.874104	-0.003586	99
Es	-0.837614	-1.504824	-0.160027	99
41
Properties=species:S:1:pos:R:3:Z:I:1 energy=-644.2887670134668 field_type=dipole dipole="0.000000 0.000000 0.000000" charge=0
C	-0.633630	-2.089107	0.244574	6
C	-1.143710	-0.874217	-0.003566	6
C	-0.431220	0.368943	-0.108466	6
N	-1.090030	1.503113	-0.361286	7
S	-0.024610	2.766253	-0.426806	16
C	1.371680	1.834523	-0.116556	6
C	0.990450	0.518323	0.039214	6
H	-1.289370	-2.953277	0.298174	1
H	0.424840	-2.265357	0.399264	1
H	-2.221560	-0.803337	-0.144376	1
H	2.357610	2.273453	-0.065436	1
H	1.689550	-0.279317	0.245264	1
Es	-1.143707	-0.874104	-0.003579	99
Es	1.209682	1.184567	-0.037284	99
Es	0.746398	2.314544	-0.264262	99
Es	-1.065843	-2.684945	0.284004	99
Es	1.447379	-0.033324	0.178906	99
Es	-0.431249	0.368980	-0.108475	99
Es	-0.024160	2.766328	-0.426168	99
Es	-0.025546	2.766533	-0.424695	99
Es	0.092542	2.574342	-0.382209	99
Es	-1.852195	-0.825017	-0.096623	99
Es	-0.633587	-2.089189	0.244592	99
Es	-0.908608	-1.400176	0.389332	99
Es	0.990441	0.518307	0.039217	99
Es	0.291291	0.416323	-0.028850	99
Es	-0.647867	2.040615	-0.390583	99
Es	0.976990	1.018376	-0.038481	99
Es	0.071785	-2.202214	0.347083	99
Es	-0.724709	1.109399	-0.271196	99
Es	-0.024512	2.766299	-0.426793	99
Es	2.014728	2.127692	-0.084202	99
Es	-0.838216	-1.504684	-0.153468	99
Es	-0.110291	3.256501	-0.514349	99
Es	-0.775333	-0.251858	-0.054834	99
Es	-0.024244	2.900116	-0.449170	99
Es	-0.024856	2.630044	-0.407004	99
Es	1.371593	1.834675	-0.116591	99
Es	-1.089407	1.503072	-0.361205	99
Es	-1.396278	1.559138	-0.407631	99
Es	-0.795609	1.001059	-0.234025	99
41
Properties=species:S:1:pos:R:3:Z:I:1 energy=-644.2887670134668 field_type=dipole dipole="0.000000 0.000000 0.000000" charge=0
C	-0.633630	-2.089107	0.244574	6
C	-1.143710	-0.874217	-0.003566	6
C	-0.431220	0.368943	-0.108466	6
N	-1.090030	1.503113	-0.361286	7
S	-0.024610	2.766253	-0.426806	16
C	1.371680	1.834523	-0.116556	6
C	0.990450	0.518323	0.039214	6
H	-1.289370	-2.953277	0.298174	1
H	0.424840	-2.265357	0.399264	1
H	-2.221560	-0.803337	-0.144376	1
H	2.357610	2.273453	-0.065436	1
H	1.689550	-0.279317	0.245264	1
Es	-1.089401	1.503062	-0.361203	99
Es	-0.036128	2.766317	-0.427523	99
Es	0.071554	-2.202117	0.347057	99
Es	-0.838634	-1.504523	-0.149225	99
Es	1.210308	1.183857	-0.041828	99
Es	2.014622	2.127617	-0.084361	99
Es	0.291277	0.416527	-0.028204	99
Es	-0.017194	2.900085	-0.448008	99
Es	0.092713	2.574221	-0.384068	99
Es	-0.775410	-0.251815	-0.054792	99
Es	1.371598	1.834675	-0.116589	99
Es	-0.908201	-1.400347	0.385098	99
Es	-0.431248	0.368980	-0.108474	99
Es	0.976135	1.018471	-0.034271	99
Es	0.990442	0.518306	0.039215	99
Es	-0.727223	1.113447	-0.248244	99
Es	-0.647490	2.040436	-0.390638	99
Es	-1.065691	-2.685035	0.284179	99
Es	0.746158	2.314815	-0.263216	99
Es	1.447179	-0.033451	0.178839	99
Es	-0.024832	2.765774	-0.429344	99
Es	-1.143707	-0.874104	-0.003583	99
Es	-1.396167	1.559504	-0.406962	99
Es	-0.020250	2.630863	-0.401703	99
Es	-0.793176	0.997288	-0.257763	99
Es	-1.852001	-0.825058	-0.096669	99
Es	-0.633585	-2.089190	0.244586	99
Es	-0.024866	2.766351	-0.425999	99
Es	-0.110168	3.256442	-0.514847	99
41
Properties=species:S:1:pos:R:3:Z:I:1 energy=-644.2887670134668 field_type=dipole dipole="0.000000 0.000000 0.000000" charge=0
C	-0.633630	-2.089107	0.244574	6
C	-1.143710	-0.874217	-0.003566	6
C	-0.431220	0.368943	-0.108466	6
N	-1.090030	1.503113	-0.361286	7
S	-0.024610	2.766253	-0.426806	16
C	1.371680	1.834523	-0.116556	6
C	0.990450	0.518323	0.039214	6
H	-1.289370	-2.953277	0.298174	1
H	0.424840	-2.265357	0.399264	1
H	-2.221560	-0.803337	-0.144376	1
H	2.357610	2.273453	-0.065436	1
H	1.689550	-0.279317	0.245264	1
Es	-0.633586	-2.089190	0.244592	99
Es	-0.794860	0.999625	-0.242650	99
Es	-1.851784	-0.824991	-0.096467	99
Es	-0.725537	1.110895	-0.262659	99
Es	1.209340	1.184968	-0.034745	99
Es	1.447175	-0.033460	0.178852	99
Es	-0.648245	2.040766	-0.390320	99
Es	0.746428	2.314727	-0.264780	99
Es	-0.026812	2.899870	-0.450388	99
Es	0.976829	1.017743	-0.041148	99
Es	-0.110118	3.256389	-0.515228	99
Es	2.014555	2.127479	-0.084329	99