47
Properties=species:S:1:pos:R:3:Z:I:1 energy=-305.27988905338987 field_type=dipole dipole="0.000000 0.000000 0.000000" charge=0
C	-2.151226	0.294183	-0.370129	6
C	-0.634576	0.269313	-0.393579	6
C	0.079794	1.350943	0.465941	6
C	1.100754	0.277583	0.909920	6
N	2.252934	0.305783	-0.003039	7
C	0.048424	-0.795867	0.509561	6
N	0.619694	-1.857347	-0.324129	7
H	-2.558246	-0.577787	-0.893269	1
H	-2.529126	1.192453	-0.869899	1
H	-2.541426	0.287083	0.653561	1
H	-0.276856	0.283873	-1.433139	1
H	-0.527796	1.725653	1.299971	1
H	0.465384	2.215443	-0.083389	1
H	1.375194	0.296193	1.967991	1
H	2.024844	0.482853	-0.977780	1
H	2.756994	-0.581777	0.015091	1
H	-0.556506	-1.152207	1.351061	1
H	1.134424	-1.517897	-1.133169	1
H	-0.082686	-2.498467	-0.691569	1
Es	-0.355195	-0.308492	0.027855	99
Es	0.079792	1.350895	0.465943	99
Es	2.462263	0.562260	0.097270	99
Es	0.349347	1.941597	0.089696	99
Es	-2.408236	0.908100	-0.712073	99
Es	0.903371	-1.626321	-0.815682	99
Es	-2.411294	0.288511	0.333165	99
Es	1.301630	0.284648	1.635089	99
Es	1.739234	0.262377	0.366922	99
Es	-0.377050	0.269141	-1.105214	99
Es	0.048488	-0.795958	0.509451	99
Es	-2.427106	-0.305261	-0.727793	99
Es	0.173948	-2.219306	-0.552952	99
Es	2.080637	0.389450	-0.589440	99
Es	-2.151222	0.294178	-0.370133	99
Es	-0.342759	1.594594	1.037365	99
Es	-1.404727	0.283357	-0.383809	99
Es	0.359318	-1.402467	0.016694	99
Es	0.845379	-2.052838	-0.137770	99
Es	-0.327205	0.881595	0.000470	99
Es	1.100825	0.277586	0.909785	99
Es	0.611746	-0.327455	0.754701	99
Es	-0.634596	0.269360	-0.393545	99
Es	0.619301	-1.857005	-0.324482	99
Es	0.636363	0.880131	0.727122	99
Es	2.537605	-0.237798	0.003563	99
Es	2.252545	0.305329	-0.003222	99
Es	-0.371413	-1.042119	1.077485	99
47
Properties=species:S:1:pos:R:3:Z:I:1 energy=-305.27988905338987 field_type=dipole dipole="0.000000 0.000000 0.000000" charge=0
C	-2.151226	0.294183	-0.370129	6
C	-0.634576	0.269313	-0.393579	6
C	0.079794	1.350943	0.465941	6
C	1.100754	0.277583	0.909920	6
N	2.252934	0.305783	-0.003039	7
C	0.048424	-0.795867	0.509561	6
N	0.619694	-1.857347	-0.324129	7
H	-2.558246	-0.577787	-0.893269	1
H	-2.529126	1.192453	-0.869899	1
H	-2.541426	0.287083	0.653561	1
H	-0.276856	0.283873	-1.433139	1
H	-0.527796	1.725653	1.299971	1
H	0.465384	2.215443	-0.083389	1
H	1.375194	0.296193	1.967991	1
H	2.024844	0.482853	-0.977780	1
H	2.756994	-0.581777	0.015091	1
H	-0.556506	-1.152207	1.351061	1
H	1.134424	-1.517897	-1.133169	1
H	-0.082686	-2.498467	-0.691569	1
Es	1.739601	0.263946	0.368600	99
Es	-0.376927	0.269009	-1.106197	99
Es	-0.371590	-1.042079	1.077977	99
Es	0.611536	-0.327273	0.754110	99
Es	2.080590	0.389845	-0.590541	99
Es	-0.327327	0.881210	0.000713	99
Es	-0.342880	1.594757	1.038116	99
Es	0.349818	1.941344	0.089600	99
Es	-2.426632	-0.305189	-0.728413	99
Es	-2.151223	0.294185	-0.370140	99
Es	2.463705	0.559961	0.096635	99
Es	0.048482	-0.795957	0.509451	99
Es	0.904211	-1.626019	-0.816569	99
Es	0.619316	-1.857027	-0.324448	99
Es	2.252549	0.305338	-0.003227	99
Es	-2.407551	0.907624	-0.712283	99
Es	-0.355355	-0.308238	0.028192	99
Es	2.535737	-0.237283	0.003337	99
Es	-1.404812	0.283467	-0.383735	99
Es	1.301571	0.284976	1.635714	99
Es	0.843441	-2.052396	-0.140362	99
Es	0.635945	0.879828	0.726452	99
Es	1.100826	0.277586	0.909785	99
Es	0.079792	1.350892	0.465943	99
Es	-2.411617	0.288661	0.334311	99
Es	0.360131	-1.402984	0.019228	99
Es	-0.634594	0.269361	-0.393544	99
Es	0.174245	-2.219460	-0.552243	99
47
Properties=species:S:1:pos:R:3:Z:I:1 energy=-305.27988905338987 field_type=dipole dipole="0.000000 0.000000 0.000000" charge=0
C	-2.151226	0.294183	-0.370129	6
C	-0.634576	0.269313	-0.393579	6
C	0.079794	1.350943	0.465941	6
C	1.100754	0.277583	0.909920	6
N	2.252934	0.305783	-0.003039	7
C	0.048424	-0.795867	0.509561	6
N	0.619694	-1.857347	-0.324129	7
H	-2.558246	-0.577787	-0.893269	1
H	-2.529126	1.192453	-0.869899	1
H	-2.541426	0.287083	0.653561	1
H	-0.276856	0.283873	-1.433139	1
H	-0.527796	1.725653	1.299971	1
H	0.465384	2.215443	-0.083389	1
H	1.375194	0.296193	1.967991	1
H	2.024844	0.482853	-0.977780	1
H	2.756994	-0.581777	0.015091	1
H	-0.556506	-1.152207	1.351061	1
H	1.134424	-1.517897	-1.133169	1
H	-0.082686	-2.498467	-0.691569	1
Es	0.048484	-0.795958	0.509450	99
Es	0.903953	-1.625745	-0.816919	99
Es	-0.377063	0.268994	-1.106804	99
Es	0.360885	-1.403231	0.020871	99
Es	0.611203	-0.327187	0.753874	99
Es	-2.411595	0.288889	0.334936	99
Es	-2.407097	0.907403	-0.712364	99
Es	-2.426558	-0.305235	-0.728701	99
Es	2.534907	-0.236848	0.003482	99
Es	0.174378	-2.219816	-0.551856	99
Es	2.463850	0.558449	0.097036	99
Es	1.301561	0.285111	1.636100	99
Es	1.100821	0.277586	0.909786	99
Es	0.635784	0.879732	0.725954	99
Es	-0.371809	-1.042087	1.078251	99
Es	2.081122	0.390558	-0.591537	99
Es	2.252653	0.305462	-0.003160	99
Es	-0.327391	0.881054	0.001037	99
Es	-1.404724	0.283421	-0.383728	99
Es	-0.634595	0.269360	-0.393544	99
Es	0.350030	1.941250	0.089477	99
Es	0.842943	-2.051994	-0.142182	99
Es	1.739555	0.264184	0.368786	99
Es	-0.342876	1.594778	1.038643	99
Es	-0.355316	-0.308087	0.028207	99
Es	0.079791	1.350895	0.465943	99
Es	0.619314	-1.857030	-0.324441	99
Es	-2.151223	0.294178	-0.370136	99
47
Properties=species:S:1:pos:R:3:Z:I:1 energy=-305.27988905338987 field_type=dipole dipole="0.000000 0.000000 0.000000" charge=0
C	-2.151226	0.294183	-0.370129	6
C	-0.634576	0.269313	-0.393579	6
C	0.079794	1.350943	0.465941	6
C	1.100754	0.277583	0.909920	6
N	2.252934	0.305783	-0.003039	7
C	0.048424	-0.795867	0.509561	6
N	0.619694	-1.857347	-0.324129	7
H	-2.558246	-0.577787	-0.893269	1
H	-2.529126	1.192453	-0.869899	1
H	-2.541426	0.287083	0.653561	1
H	-0.276856	0.283873	-1.433139	1
H	-0.527796	1.725653	1.299971	1
H	0.465384	2.215443	-0.083389	1
H	1.375194	0.296193	1.967991	1
H	2.024844	0.482853	-0.977780	1
H	2.756994	-0.581777	0.015091	1
H	-0.556506	-1.152207	1.351061	1
H	1.134424	-1.517897	-1.133169	1
H	-0.082686	-2.498467	-0.691569	1
Es	0.079792	1.350895	0.465944	99
Es	1.100821	0.277586	0.909786	99
Es	-2.151222	0.294178	-0.370136	99
Es	0.611090	-0.327108	0.753555	99
Es	-2.426362	-0.305243	-0.729066	99
Es	2.464127	0.557514	0.097159	99
Es	-2.411661	0.288927	0.335405	99
Es	0.174831	-2.220711	-0.550892	99
Es	0.842596	-2.050975	-0.143139	99
Es	-0.355562	-0.307872	0.028440	99
Es	2.534407	-0.236378	0.003337	99
Es	-0.371801	-1.042043	1.078397	99
Es	-0.327494	0.880921	0.001042	99
Es	-0.634596	0.269363	-0.393550	99
Es	0.350163	1.941198	0.089545	99
Es	1.301517	0.285181	1.636482	99
Es	0.048484	-0.795956	0.509451	99
Es	0.619359	-1.857074	-0.324429	99
Es	2.252577	0.305367	-0.003206	99
Es	-1.404784	0.283567	-0.383704	99
Es	0.903681	-1.625766	-0.817638	99
Es	0.361011	-1.403312	0.021504	99
Es	-2.406745	0.907254	-0.712367	99
Es	2.081174	0.391024	-0.592141	99
Es	-0.342894	1.594757	1.038932	99
Es	0.635737	0.879527	0.725658	99
Es	-0.376966	0.268846	-1.107267	99
Es	1.739708	0.264422	0.369360	99
47
Properties=species:S:1:pos:R:3:Z:I:1 energy=-305.27988905338987 field_type=dipole dipole="0.000000 0.000000 0.000000" charge=0
C	-2.151226	0.294183	-0.370129	6
C	-0.634576	0.269313	-0.393579	6
C	0.079794	1.350943	0.465941	6
C	1.100754	0.277583	0.909920	6
N	2.252934	0.305783	-0.003039	7
C	0.048424	-0.795867	0.509561	6
N	0.619694	-1.857347	-0.324129	7
H	-2.558246	-0.577787	-0.893269	1
H	-2.529126	1.192453	-0.869899	1
H	-2.541426	0.287083	0.653561	1
H	-0.276856	0.283873	-1.433139	1
H	-0.527796	1.725653	1.299971	1
H	0.465384	2.215443	-0.083389	1
H	1.375194	0.296193	1.967991	1
H	2.024844	0.482853	-0.977780	1
H	2.756994	-0.581777	0.015091	1
H	-0.556506	-1.152207	1.351061	1
H	1.134424	-1.517897	-1.133169	1
H	-0.082686	-2.498467	-0.691569	1
Es	2.533794	-0.236331	0.003257	99
Es	-0.371846	-1.042096	1.078566	99
Es	2.464486	0.556715	0.097062	99
Es	0.619334	-1.857045	-0.324430	99
Es	-0.342883	1.594733	1.039201	99
Es	0.635537	0.879458	0.725372	99
Es	2.081051	0.391302	-0.592499	99
Es	0.361729	-1.403419	0.022976	99
Es	1.740025	0.264944	0.369823	99
Es	0.350331	1.941174	0.089538	99
Es	-1.404751	0.283525	-0.383732	99
Es	0.903774	-1.625670	-0.817601	99
Es	0.611064	-0.327114	0.753373	99
Es	-0.355574	-0.307883	0.028422	99
Es	1.301475	0.285352	1.636689	99
Es	-2.151225	0.294178	-0.370137	99
Es	-0.634596	0.269359	-0.393547	99
Es	0.048485	-0.795958	0.509451	99
Es	2.252588	0.305387	-0.003195	99
Es	0.079792	1.350895	0.465946	99
Es	1.100820	0.277586	0.909786	99
Es	-2.406562	0.907118	-0.712472	99
Es	-0.377074	0.268878	-1.107528	99
Es	-2.426211	-0.305252	-0.729178	99
Es	-2.411666	0.289016	0.335743	99
Es	-0.327562	0.880842	0.001111	99
Es	0.842027	-2.051686	-0.144351	99
Es	0.174626	-2.219922	-0.551185	99
47
Properties=species:S:1:pos:R:3:Z:I:1 energy=-305.27988905338987 field_type=dipole dipole="0.000000 0.000000 0.000000" charge=0
C	-2.151226	0.294183	-0.370129	6
C	-0.634576	0.269313	-0.393579	6
C	0.079794	1.350943	0.465941	6
C	1.100754	0.277583	0.909920	6
N	2.252934	0.305783	-0.003039	7
C	0.048424	-0.795867	0.509561	6
N	0.619694	-1.857347	-0.324129	7
H	-2.558246	-0.577787	-0.893269	1
H	-2.529126	1.192453	-0.869899	1
H	-2.541426	0.287083	0.653561	1
H	-0.276856	0.283873	-1.433139	1
H	-0.527796	1.725653	1.299971	1
H	0.465384	2.215443	-0.083389	1
H	1.375194	0.296193	1.967991	1
H	2.024844	0.482853	-0.977780	1
H	2.756994	-0.581777	0.015091	1
H	-0.556506	-1.152207	1.351061	1
H	1.134424	-1.517897	-1.133169	1
H	-0.082686	-2.498467	-0.691569	1
Es	-2.406303	0.907143	-0.712540	99
Es	-0.327674	0.880688	0.001259	99
Es	-0.377098	0.268866	-1.107823	99
Es	2.252542	0.305341	-0.003213	99
Es	-1.404882	0.283630	-0.383545	99
Es	1.301507	0.285342	1.636831	99
Es	2.081275	0.391673	-0.592900	99
Es	1.100826	0.277586	0.909785	99
Es	0.635458	0.879442	0.725263	99
Es	0.350370	1.941128	0.089580	99
Es	-2.426073	-0.305390	-0.729371	99
Es	0.619308	-1.857025	-0.324467	99
Es	-2.411647	0.289088	0.335944	99
Es	0.361946	-1.403650	0.023506	99
Es	0.611087	-0.327090	0.753276	99
Es	0.079792	1.350893	0.465944	99
Es	-0.634592	0.269358	-0.393544	99
Es	0.841219	-2.051571	-0.144813	99
Es	2.464792	0.555883	0.097137	99
Es	2.533219	-0.236143	0.003218	99
Es	1.740027	0.265305	0.370165	99
Es	0.174680	-2.219840	-0.551056	99
Es	0.904339	-1.625652	-0.817802	99
Es	-0.371806	-1.042093	1.078625	99
Es	-0.355820	-0.307820	0.028392	99
Es	0.048484	-0.795960	0.509450	99
Es	-0.342761	1.594777	1.039298	99
Es	-2.151223	0.294178	-0.370137	99
47
Properties=species:S:1:pos:R:3:Z:I:1 energy=-305.27988905338987 field_type=dipole dipole="0.000000 0.000000 0.000000" charge=0
C	-2.151226	0.294183	-0.370129	6
C	-0.634576	0.269313	-0.393579	6
C	0.079794	1.350943	0.465941	6
C	1.100754	0.277583	0.909920	6
N	2.252934	0.305783	-0.003039	7
C	0.048424	-0.795867	0.509561	6
N	0.619694	-1.857347	-0.324129	7
H	-2.558246	-0.577787	-0.893269	1
H	-2.529126	1.192453	-0.869899	1
H	-2.541426	0.287083	0.653561	1
H	-0.276856	0.283873	-1.433139	1
H	-0.527796	1.725653	1.299971	1
H	0.465384	2.215443	-0.083389	1
H	1.375194	0.296193	1.967991	1
H	2.024844	0.482853	-0.977780	1
H	2.756994	-0.581777	0.015091	1
H	-0.556506	-1.152207	1.351061	1
H	1.134424	-1.517897	-1.133169	1
H	-0.082686	-2.498467	-0.691569	1
Es	-0.377178	0.268794	-1.107958	99
Es	0.635489	0.879363	0.725042	99
Es	0.174623	-2.219733	-0.550943	99
Es	0.362371	-1.403791	0.024140	99
Es	2.081261	0.391710	-0.593131	99
Es	1.100819	0.277585	0.909786	99
Es	-2.406138	0.907013	-0.712502	99
Es	-0.342780	1.594781	1.039467	99
Es	-1.404785	0.283487	-0.383669	99
Es	-0.371804	-1.042067	1.078707	99
Es	1.301506	0.285418	1.637054	99
Es	0.079792	1.350895	0.465944	99
Es	2.464819	0.555454	0.096999	99
Es	-2.426047	-0.305288	-0.729529	99
Es	1.740109	0.265617	0.370422	99
Es	0.350421	1.941068	0.089612	99
Es	0.610959	-0.327052	0.753159	99
Es	-0.355797	-0.307713	0.028409	99
Es	-0.327766	0.880809	0.001212	99
Es	-0.634594	0.269361	-0.393544	99
Es	2.532966	-0.236082	0.003292	99
Es	-2.411671	0.289105	0.336205	99
Es	0.904127	-1.625576	-0.817932	99
Es	0.841096	-2.051615	-0.145400	99
Es	2.252604	0.305360	-0.003222	99
Es	0.619328	-1.857039	-0.324470	99
Es	-2.151223	0.294177	-0.370137	99
Es	0.048485	-0.795954	0.509450	99
47
Properties=species:S:1:pos:R:3:Z:I:1 energy=-305.27988905338987 field_type=dipole dipole="0.000000 0.000000 0.000000" charge=0
C	-2.151226	0.294183	-0.370129	6
C	-0.634576	0.269313	-0.393579	6
C	0.079794	1.350943	0.465941	6
C	1.100754	0.277583	0.909920	6
N	2.252934	0.305783	-0.003039	7
C	0.048424	-0.795867	0.509561	6
N	0.619694	-1.857347	-0.324129	7
H	-2.558246	-0.577787	-0.893269	1
H	-2.529126	1.192453	-0.869899	1
H	-2.541426	0.287083	0.653561	1
H	-0.276856	0.283873	-1.433139	1
H	-0.527796	1.725653	1.299971	1
H	0.465384	2.215443	-0.083389	1
H	1.375194	0.296193	1.967991	1
H	2.024844	0.482853	-0.977780	1
H	2.756994	-0.581777	0.015091	1
H	-0.556506	-1.152207	1.351061	1
H	1.134424	-1.517897	-1.133169	1
H	-0.082686	-2.498467	-0.691569	1
Es	0.840596	-2.052140	-0.145433	99
Es	0.048484	-0.795959	0.509451	99
Es	-0.377234	0.268781	-1.108170	99
Es	0.904660	-1.625721	-0.817823	99
Es	-0.355935	-0.307771	0.028560	99
Es	0.635361	0.879355	0.724919	99
Es	1.301418	0.285470	1.637086	99
Es	1.740084	0.265303	0.370397	99
Es	2.464979	0.554793	0.097643	99
Es	2.081686	0.392444	-0.593518	99
Es	0.079791	1.350896	0.465944	99
Es	-2.151223	0.294178	-0.370136	99
Es	0.174472	-2.219122	-0.551248	99
Es	-1.404831	0.283575	-0.383603	99
Es	0.350507	1.941051	0.089635	99
Es	-2.406043	0.907133	-0.712519	99
Es	-0.327872	0.880762	0.001258	99
Es	-0.634596	0.269360	-0.393545	99
Es	-2.425943	-0.305433	-0.729643	99
Es	-0.342731	1.594780	1.039595	99
Es	0.362439	-1.403719	0.024274	99
Es	-2.411517	0.289082	0.336317	99
Es	0.611000	-0.327034	0.753045	99
Es	2.252556	0.305335	-0.003223	99
Es	-0.371779	-1.042070	1.078806	99
Es	1.100827	0.277586	0.909784	99
Es	0.619315	-1.857026	-0.324459	99
Es	2.532517	-0.235805	0.003069	99
47
Properties=species:S:1:pos:R:3:Z:I:1 energy=-305.27988905338987 field_type=dipole dipole="0.000000 0.000000 0.000000" charge=0
C	-2.151226	0.294183	-0.370129	6
C	-0.634576	0.269313	-0.393579	6
C	0.079794	1.350943	0.465941	6
C	1.100754	0.277583	0.909920	6
N	2.252934	0.305783	-0.003039	7
C	0.048424	-0.795867	0.509561	6
N	0.619694	-1.857347	-0.324129	7
H	-2.558246	-0.577787	-0.893269	1
H	-2.529126	1.192453	-0.869899	1
H	-2.541426	0.287083	0.653561	1
H	-0.276856	0.283873	-1.433139	1
H	-0.527796	1.725653	1.299971	1
H	0.465384	2.215443	-0.083389	1
H	1.375194	0.296193	1.967991	1
H	2.024844	0.482853	-0.977780	1
H	2.756994	-0.581777	0.015091	1
H	-0.556506	-1.152207	1.351061	1
H	1.134424	-1.517897	-1.133169	1
H	-0.082686	-2.498467	-0.691569	1
Es	0.174591	-2.219782	-0.550923	99
Es	2.252556	0.305343	-0.003218	99
Es	-2.405980	0.907158	-0.712592	99
Es	0.840970	-2.051584	-0.146461	99
Es	1.100823	0.277585	0.909785	99
Es	0.903822	-1.625269	-0.817989	99
Es	-0.377199	0.268769	-1.108245	99
Es	0.635345	0.879436	0.724870	99
Es	-1.404845	0.283481	-0.383664	99
Es	0.619311	-1.857021	-0.324448	99
Es	0.362780	-1.404008	0.025101	99
Es	-0.355860	-0.307694	0.028580	99
Es	-0.634596	0.269361	-0.393545	99
Es	1.301561	0.285438	1.637176	99
Es	2.081057	0.391403	-0.593608	99
Es	0.610929	-0.327108	0.752838	99
Es	0.048484	-0.795959	0.509450	99
Es	-0.327976	0.880661	0.001287	99
Es	2.533099	-0.235372	0.003512	99
Es	-0.342648	1.594780	1.039658	99
Es	-0.371858	-1.042079	1.078998	99
Es	-2.425900	-0.305355	-0.729632	99
Es	0.350530	1.941049	0.089639	99
Es	2.464673	0.554937	0.096477	99
Es	0.079790	1.350895	0.465944	99
Es	-2.151224	0.294179	-0.370137	99
Es	-2.411510	0.289058	0.336440	99
Es	1.740265	0.265788	0.371169	99
47
Properties=species:S:1:pos:R:3:Z:I:1 energy=-305.27988905338987 field_type=dipole dipole="0.000000 0.000000 0.000000" charge=0
C	-2.151226	0.294183	-0.370129	6
C	-0.634576	0.269313	-0.393579	6
C	0.079794	1.350943	0.465941	6
C	1.100754	0.277583	0.909920	6
N	2.252934	0.305783	-0.003039	7
C	0.048424	-0.795867	0.509561	6
N	0.619694	-1.857347	-0.324129	7
H	-2.558246	-0.577787	-0.893269	1
H	-2.529126	1.192453	-0.869899	1
H	-2.541426	0.287083	0.653561	1
H	-0.276856	0.283873	-1.433139	1
H	-0.527796	1.725653	1.299971	1
H	0.465384	2.215443	-0.083389	1
H	1.375194	0.296193	1.967991	1
H	2.024844	0.482853	-0.977780	1
H	2.756994	-0.581777	0.015091	1
H	-0.556506	-1.152207	1.351061	1
H	1.134424	-1.517897	-1.133169	1
H	-0.082686	-2.498467	-0.691569	1
Es	-1.404788	0.283637	-0.383574	99
Es	0.610977	-0.327022	0.752922	99
Es	2.465192	0.554521	0.097262	99
Es	-0.342698	1.594877	1.039879	99
Es	0.079791	1.350894	0.465943	99
Es	2.532302	-0.235512	0.003284	99
Es	0.840701	-2.051358	-0.146660	99
Es	0.362711	-1.404098	0.025297	99
Es	2.252526	0.305326	-0.003233	99
Es	2.081656	0.392052	-0.593743	99
Es	0.048483	-0.795957	0.509450	99
Es	1.739911	0.265765	0.370705	99
Es	-0.371693	-1.042039	1.078850	99
Es	-2.151223	0.294178	-0.370136	99
Es	-0.634595	0.269360	-0.393545	99
Es	0.174827	-2.219918	-0.550609	99
Es	0.635373	0.879190	0.724588	99
Es	-2.425739	-0.305449	-0.729658	99
Es	-0.377298	0.268744	-1.108331	99
Es	-0.327960	0.880777	0.001277	99
Es	0.903922	-1.625363	-0.818270	99
Es	-2.411606	0.289156	0.336505	99
Es	0.350530	1.940895	0.089537	99
Es	-2.405959	0.907016	-0.712684	99
Es	1.100826	0.277586	0.909785	99
Es	-0.356019	-0.307684	0.028678	99
Es	0.619314	-1.857020	-0.324448	99
Es	1.301526	0.285533	1.637390	99
47
Properties=species:S:1:pos:R:3:Z:I:1 energy=-305.27988905338987 field_type=dipole dipole="0.000000 0.000000 0.000000" charge=0
C	-2.151226	0.294183	-0.370129	6
C	-0.634576	0.269313	-0.393579	6
C	0.079794	1.350943	0.465941	6
C	1.100754	0.277583	0.909920	6
N	2.252934	0.305783	-0.003039	7
C	0.048424	-0.795867	0.509561	6
N	0.619694	-1.857347	-0.324129	7
H	-2.558246	-0.577787	-0.893269	1
H	-2.529126	1.192453	-0.869899	1
H	-2.541426	0.287083	0.653561	1
H	-0.276856	0.283873	-1.433139	1
H	-0.527796	1.725653	1.299971	1
H	0.465384	2.215443	-0.083389	1
H	1.375194	0.296193	1.967991	1
H	2.024844	0.482853	-0.977780	1
H	2.756994	-0.581777	0.015091	1
H	-0.556506	-1.152207	1.351061	1
H	1.134424	-1.517897	-1.133169	1
H	-0.082686	-2.498467	-0.691569	1
Es	1.100826	0.277586	0.909785	99
Es	0.048487	-0.795958	0.509452	99
Es	1.301541	0.285564	1.637413	99
Es	0.362846	-1.403935	0.025091	99
Es	-2.405751	0.907004	-0.712505	99
Es	-0.327899	0.880526	0.001255	99
Es	0.619313	-1.857032	-0.324460	99
Es	1.740322	0.266291	0.371076	99
Es	0.840621	-2.051626	-0.146385	99
Es	-0.356116	-0.307723	0.028614	99
Es	2.252592	0.305360	-0.003209	99
Es	-0.634595	0.269361	-0.393545	99
Es	0.079793	1.350894	0.465943	99
Es	2.081336	0.392012	-0.593863	99
Es	0.904073	-1.625501	-0.818374	99
Es	-0.377258	0.268759	-1.108442	99
Es	0.174675	-2.219564	-0.550576	99
Es	-0.371759	-1.042109	1.078969	99
Es	0.635226	0.879316	0.724703	99
Es	-2.411509	0.289108	0.336718	99
Es	-2.151223	0.294178	-0.370136	99
Es	2.532373	-0.235669	0.003467	99
Es	0.350712	1.940966	0.089654	99
Es	-0.342709	1.594816	1.039834	99
Es	0.610844	-0.327004	0.752785	99
Es	2.464951	0.554176	0.096801	99
Es	-1.404898	0.283658	-0.383689	99
Es	-2.425823	-0.305367	-0.729912	99
47
Properties=species:S:1:pos:R:3:Z:I:1 energy=-305.27988905338987 field_type=dipole dipole="0.000000 0.000000 0.000000" charge=0
C	-2.151226	0.294183	-0.370129	6
C	-0.634576	0.269313	-0.393579	6
C	0.079794	1.350943	0.465941	6
C	1.100754	0.277583	0.909920	6
N	2.252934	0.305783	-0.003039	7
C	0.048424	-0.795867	0.509561	6
N	0.619694	-1.857347	-0.324129	7
H	-2.558246	-0.577787	-0.893269	1
H	-2.529126	1.192453	-0.869899	1
H	-2.541426	0.287083	0.653561	1
H	-0.276856	0.283873	-1.433139	1
H	-0.527796	1.725653	1.299971	1
H	0.465384	2.215443	-0.083389	1
H	1.375194	0.296193	1.967991	1
H	2.024844	0.482853	-0.977780	1
H	2.756994	-0.581777	0.015091	1
H	-0.556506	-1.152207	1.351061	1
H	1.134424	-1.517897	-1.133169	1
H	-0.082686	-2.498467	-0.691569	1
Es	-1.404788	0.283544	-0.383693	99
Es	1.100822	0.277587	0.909786	99
Es	2.252522	0.305295	-0.003249	99
Es	-0.356080	-0.307725	0.028653	99
Es	2.532194	-0.235386	0.003428	99
Es	0.635238	0.879258	0.724582	99
Es	0.840844	-2.052333	-0.146710	99
Es	1.301493	0.285569	1.637432	99
Es	0.619425	-1.857124	-0.324342	99
Es	1.740334	0.265972	0.370942	99
Es	0.903572	-1.625272	-0.818541	99
Es	0.610832	-0.326944	0.752804	99
Es	0.350681	1.940989	0.089598	99
Es	0.363078	-1.404127	0.025474	99
Es	2.465193	0.554378	0.097101	99
Es	0.048483	-0.795958	0.509450	99
Es	-0.377280	0.268725	-1.108510	99
Es	0.174618	-2.218827	-0.550643	99
Es	-0.342635	1.594777	1.039945	99
Es	-2.405697	0.907016	-0.712535	99
Es	-2.151224	0.294178	-0.370137	99
Es	-0.328032	0.880666	0.001440	99
Es	0.079791	1.350896	0.465943	99
Es	-0.371843	-1.042080	1.078964	99
Es	-2.425809	-0.305395	-0.729923	99
Es	2.081357	0.391904	-0.593993	99
Es	-2.411507	0.289140	0.336741	99
Es	-0.634595	0.269362	-0.393544	99
47
Properties=species:S:1:pos:R:3:Z:I:1 energy=-305.27988905338987 field_type=dipole dipole="0.000000 0.000000 0.000000" charge=0
C	-2.151226	0.294183	-0.370129	6
C	-0.634576	0.269313	-0.393579	6
C	0.079794	1.350943	0.465941	6
C	1.100754	0.277583	0.909920	6
N	2.252934	0.305783	-0.003039	7
C	0.048424	-0.795867	0.509561	6
N	0.619694	-1.857347	-0.324129	7
H	-2.558246	-0.577787	-0.893269	1
H	-2.529126	1.192453	-0.869899	1
H	-2.541426	0.287083	0.653561	1
H	-0.276856	0.283873	-1.433139	1
H	-0.527796	1.725653	1.299971	1
H	0.465384	2.215443	-0.083389	1
H	1.375194	0.296193	1.967991	1
H	2.024844	0.482853	-0.977780	1
H	2.756994	-0.581777	0.015091	1
H	-0.556506	-1.152207	1.351061	1
H	1.134424	-1.517897	-1.133169	1
H	-0.082686	-2.498467	-0.691569	1
Es	2.252577	0.305342	-0.003210	99
Es	-2.425752	-0.305407	-0.729844	99
Es	-0.328113	0.880652	0.001340	99
Es	1.100825	0.277586	0.909785	99
Es	0.903896	-1.625390	-0.818522	99
Es	0.048487	-0.795956	0.509452	99
Es	1.740304	0.265992	0.370879	99
Es	1.301499	0.285574	1.637543	99
Es	2.081523	0.392208	-0.594205	99
Es	0.619315	-1.857028	-0.324460	99
Es	0.363370	-1.404206	0.026242	99
Es	-2.405705	0.906982	-0.712647	99
Es	-2.151224	0.294178	-0.370136	99
Es	-0.356081	-0.307638	0.028600	99
Es	-0.377363	0.268763	-1.108591	99
Es	-0.342619	1.594816	1.039911	99
Es	0.610836	-0.327043	0.752643	99
Es	2.465113	0.554024	0.097291	99
Es	2.532033	-0.235414	0.003486	99
Es	0.174668	-2.219479	-0.550467	99
Es	0.635283	0.879210	0.724542	99
Es	0.079792	1.350894	0.465943	99
Es	0.350649	1.940948	0.089670	99
Es	-1.404696	0.283545	-0.383604	99
Es	-0.634596	0.269362	-0.393544	99
Es	-0.371726	-1.042011	1.079109	99
Es	-2.411553	0.289194	0.336742	99
Es	0.840245	-2.051612	-0.147490	99
47
Properties=species:S:1:pos:R:3:Z:I:1 energy=-305.27988905338987 field_type=dipole dipole="0.000000 0.000000 0.000000" charge=0
C	-2.151226	0.294183	-0.370129	6
C	-0.634576	0.269313	-0.393579	6
C	0.079794	1.350943	0.465941	6
C	1.100754	0.277583	0.909920	6
N	2.252934	0.305783	-0.003039	7
C	0.048424	-0.795867	0.509561	6
N	0.619694	-1.857347	-0.324129	7
H	-2.558246	-0.577787	-0.893269	1
H	-2.529126	1.192453	-0.869899	1
H	-2.541426	0.287083	0.653561	1
H	-0.276856	0.283873	-1.433139	1
H	-0.527796	1.725653	1.299971	1
H	0.465384	2.215443	-0.083389	1
H	1.375194	0.296193	1.967991	1
H	2.024844	0.482853	-0.977780	1
H	2.756994	-0.581777	0.015091	1
H	-0.556506	-1.152207	1.351061	1
H	1.134424	-1.517897	-1.133169	1
H	-0.082686	-2.498467	-0.691569	1
Es	-2.151223	0.294178	-0.370136	99
Es	2.081483	0.392322	-0.594239	99
Es	2.465119	0.553568	0.096989	99
Es	-2.411399	0.289174	0.336890	99
Es	-0.634595	0.269363	-0.393543	99
Es	1.301520	0.285483	1.637657	99
Es	-0.356138	-0.307721	0.028765	99
Es	-1.404814	0.283547	-0.383705	99
Es	2.252566	0.305343	-0.003226	99
Es	0.610779	-0.326706	0.752522	99
Es	0.048484	-0.795958	0.509450	99
Es	0.174703	-2.219715	-0.550513	99
Es	-2.405654	0.906983	-0.712565	99
Es	0.840618	-2.051481	-0.147205	99
Es	1.740395	0.266413	0.371182	99
Es	-0.342792	1.594734	1.039911	99
Es	2.531925	-0.235526	0.003484	99
Es	-0.371745	-1.042028	1.079059	99
Es	1.100825	0.277585	0.909784	99
Es	0.619327	-1.857041	-0.324437	99
Es	0.363070	-1.404196	0.025858	99
Es	-0.377329	0.268711	-1.108671	99
Es	-0.327975	0.880585	0.001326	99
Es	0.079792	1.350895	0.465944	99
Es	0.903708	-1.625271	-0.818429	99
Es	0.350691	1.941014	0.089619	99
Es	-2.425775	-0.305421	-0.729945	99
Es	0.635424	0.879253	0.724638	99
47
Properties=species:S:1:pos:R:3:Z:I:1 energy=-305.27988905338987 field_type=dipole dipole="0.000000 0.000000 0.000000" charge=0
C	-2.151226	0.294183	-0.370129	6
C	-0.634576	0.269313	-0.393579	6
C	0.079794	1.350943	0.465941	6
C	1.100754	0.277583	0.909920	6
N	2.252934	0.305783	-0.003039	7
C	0.048424	-0.795867	0.509561	6
N	0.619694	-1.857347	-0.324129	7
H	-2.558246	-0.577787	-0.893269	1
H	-2.529126	1.192453	-0.869899	1
H	-2.541426	0.287083	0.653561	1
H	-0.276856	0.283873	-1.433139	1
H	-0.527796	1.725653	1.299971	1
H	0.465384	2.215443	-0.083389	1
H	1.375194	0.296193	1.967991	1
H	2.024844	0.482853	-0.977780	1
H	2.756994	-0.581777	0.015091	1
H	-0.556506	-1.152207	1.351061	1
H	1.134424	-1.517897	-1.133169	1
H	-0.082686	-2.498467	-0.691569	1
Es	-2.405614	0.906978	-0.712645	99
Es	0.619324	-1.857030	-0.324478	99
Es	2.531841	-0.235288	0.003601	99
Es	0.079792	1.350894	0.465943	99
Es	0.174664	-2.219503	-0.550390	99
Es	0.903541	-1.625330	-0.818563	99
Es	-0.342616	1.594820	1.040054	99
Es	0.363268	-1.404126	0.025866	99
Es	1.100829	0.277586	0.909784	99
Es	2.252575	0.305366	-0.003230	99
Es	-2.411461	0.289164	0.336950	99
Es	1.301443	0.285619	1.637662	99
Es	-1.404823	0.283594	-0.383630	99
Es	0.350669	1.940902	0.089648	99
Es	0.048483	-0.795960	0.509450	99
Es	-0.377427	0.268725	-1.108709	99
Es	2.081502	0.392065	-0.594375	99
Es	-2.151224	0.294178	-0.370136	99
Es	2.465209	0.553635	0.097019	99
Es	0.840698	-2.051673	-0.147171	99
Es	-0.371732	-1.042052	1.079167	99
Es	0.635359	0.879197	0.724439	99
Es	1.740421	0.266385	0.371175	99
Es	-0.356138	-0.307722	0.028715	99
Es	0.610743	-0.326853	0.752501	99
Es	-2.425634	-0.305442	-0.729976	99
Es	-0.634595	0.269359	-0.393545	99
Es	-0.328109	0.880596	0.001333	99
47
Properties=species:S:1:pos:R:3:Z:I:1 energy=-305.27988905338987 field_type=dipole dipole="0.000000 0.000000 0.000000" charge=0
C	-2.151226	0.294183	-0.370129	6
C	-0.634576	0.269313	-0.393579	6
C	0.079794	1.350943	0.465941	6
C	1.100754	0.277583	0.909920	6
N	2.252934	0.305783	-0.003039	7
C	0.048424	-0.795867	0.509561	6
N	0.619694	-1.857347	-0.324129	7
H	-2.558246	-0.577787	-0.893269	1
H	-2.529126	1.192453	-0.869899	1
H	-2.541426	0.287083	0.653561	1
H	-0.276856	0.283873	-1.433139	1
H	-0.527796	1.725653	1.299971	1
H	0.465384	2.215443	-0.083389	1
H	1.375194	0.296193	1.967991	1
H	2.024844	0.482853	-0.977780	1
H	2.756994	-0.581777	0.015091	1
H	-0.556506	-1.152207	1.351061	1
H	1.134424	-1.517897	-1.133169	1
H	-0.082686	-2.498467	-0.691569	1
Es	-0.634596	0.269361	-0.393545	99
Es	0.840360	-2.051967	-0.147709	99
Es	-0.342575	1.594728	1.040023	99
Es	-2.405540	0.907094	-0.712644	99
Es	2.252570	0.305337	-0.003222	99
Es	0.635281	0.879159	0.724386	99
Es	1.740187	0.265889	0.371133	99
Es	0.350664	1.940995	0.089787	99
Es	-0.356210	-0.307665	0.028479	99
Es	0.174730	-2.219133	-0.550537	99
Es	0.363482	-1.404360	0.026569	99
Es	-0.328151	0.880661	0.001470	99
Es	-0.377465	0.268791	-1.108769	99
Es	-1.404866	0.283406	-0.383585	99
Es	0.079791	1.350894	0.465944	99
Es	2.081679	0.392129	-0.594505	99
Es	-0.371731	-1.042102	1.079134	99
Es	2.532179	-0.234897	0.003610	99
Es	-2.411397	0.289118	0.336981	99
Es	1.301469	0.285605	1.637692	99
Es	-2.425651	-0.305426	-0.730011	99
Es	1.100825	0.277586	0.909785	99
Es	0.619305	-1.857027	-0.324467	99
Es	2.464878	0.553734	0.097215	99
Es	0.610842	-0.326899	0.752540	99
Es	0.048484	-0.795959	0.509450	99
Es	-2.151223	0.294178	-0.370136	99
Es	0.903669	-1.625145	-0.818603	99
47
Properties=species:S:1:pos:R:3:Z:I:1 energy=-305.27988905338987 field_type=dipole dipole="0.000000 0.000000 0.000000" charge=0
C	-2.151226	0.294183	-0.370129	6
C	-0.634576	0.269313	-0.393579	6
C	0.079794	1.350943	0.465941	6
C	1.100754	0.277583	0.909920	6
N	2.252934	0.305783	-0.003039	7
C	0.048424	-0.795867	0.509561	6
N	0.619694	-1.857347	-0.324129	7
H	-2.558246	-0.577787	-0.893269	1
H	-2.529126	1.192453	-0.869899	1
H	-2.541426	0.287083	0.653561	1
H	-0.276856	0.283873	-1.433139	1
H	-0.527796	1.725653	1.299971	1
H	0.465384	2.215443	-0.083389	1
H	1.375194	0.296193	1.967991	1
H	2.024844	0.482853	-0.977780	1
H	2.756994	-0.581777	0.015091	1
H	-0.556506	-1.152207	1.351061	1
H	1.134424	-1.517897	-1.133169	1
H	-0.082686	-2.498467	-0.691569	1
Es	-1.404790	0.283673	-0.383732	99
Es	0.079791	1.350895	0.465942	99
Es	-0.634595	0.269361	-0.393545	99
Es	-0.356128	-0.307666	0.028731	99
Es	-0.342594	1.594810	1.040042	99
Es	1.100824	0.277586	0.909785	99
Es	0.840645	-2.051984	-0.147853	99
Es	-0.328222	0.880583	0.001314	99
Es	0.635248	0.879129	0.724392	99
Es	2.531347	-0.235143	0.003340	99
Es	-0.371761	-1.042070	1.079134	99
Es	1.740328	0.266053	0.371025	99
Es	2.465697	0.553659	0.097465	99
Es	0.610821	-0.326883	0.752573	99
Es	0.363519	-1.404353	0.026688	99
Es	-0.377414	0.268760	-1.108781	99
Es	2.252560	0.305360	-0.003207	99
Es	-2.405662	0.906935	-0.712546	99
Es	0.048484	-0.795958	0.509451	99
Es	-2.151222	0.294179	-0.370136	99
Es	0.619311	-1.857006	-0.324492	99
Es	0.903182	-1.625140	-0.818859	99
Es	0.350712	1.940919	0.089713	99
Es	0.174865	-2.219173	-0.550245	99
Es	2.081539	0.392242	-0.594454	99
Es	-2.425594	-0.305397	-0.730067	99
Es	1.301489	0.285645	1.637731	99
Es	-2.411392	0.289071	0.337053	99
47
Properties=species:S:1:pos:R:3:Z:I:1 energy=-305.27988905338987 field_type=dipole dipole="0.000000 0.000000 0.000000" charge=0
C	-2.151226	0.294183	-0.370129	6
C	-0.634576	0.269313	-0.393579	6
C	0.079794	1.350943	0.465941	6
C	1.100754	0.277583	0.909920	6
N	2.252934	0.305783	-0.003039	7
C	0.048424	-0.795867	0.509561	6
N	0.619694	-1.857347	-0.324129	7
H	-2.558246	-0.577787	-0.893269	1
H	-2.529126	1.192453	-0.869899	1
H	-2.541426	0.287083	0.653561	1
H	-0.276856	0.283873	-1.433139	1
H	-0.527796	1.725653	1.299971	1
H	0.465384	2.215443	-0.083389	1
H	1.375194	0.296193	1.967991	1
H	2.024844	0.482853	-0.977780	1
H	2.756994	-0.581777	0.015091	1
H	-0.556506	-1.152207	1.351061	1
H	1.134424	-1.517897	-1.133169	1
H	-0.082686	-2.498467	-0.691569	1
Es	-1.404861	0.283576	-0.383604	99
Es	0.903199	-1.625136	-0.818692	99
Es	-2.151223	0.294178	-0.370136	99
Es	0.619366	-1.857075	-0.324407	99
Es	0.840777	-2.051387	-0.147751	99
Es	0.350773	1.940912	0.089695	99
Es	-2.411459	0.289230	0.337080	99
Es	-2.425596	-0.305462	-0.730077	99