43
Properties=species:S:1:pos:R:3:Z:I:1 energy=-661.4593372843789 field_type=dipole dipole="0.000000 0.000000 0.000000" charge=0
C	-1.450454	-1.327596	0.114760	6
C	0.065716	-1.223166	0.064670	6
C	0.517015	0.199074	0.061330	6
N	0.702215	0.928434	1.143360	7
N	1.120265	2.210094	0.845410	7
C	1.235565	2.397984	-0.450730	6
S	0.844915	1.031484	-1.408620	16
H	-1.757575	-2.377966	0.137480	1
H	-1.910554	-0.858306	-0.761390	1
H	-1.852005	-0.836716	1.007910	1
H	0.442356	-1.753816	-0.817690	1
H	0.490766	-1.729046	0.939680	1
H	1.551775	3.339544	-0.876170	1
Es	0.908320	1.563052	0.959664	99
Es	0.652924	0.810846	1.486963	99
Es	-1.650769	-2.042911	0.128067	99
Es	1.419654	2.158204	0.270469	99
Es	0.353685	-1.551544	0.650954	99
Es	-1.450392	-1.327596	0.114745	99
Es	0.904545	0.585874	0.657133	99
Es	-0.677274	-1.253764	0.085307	99
Es	-1.715775	-0.995347	0.718150	99
Es	0.517055	0.199117	0.061176	99
Es	0.859310	1.141324	-1.450664	99
Es	0.322714	-1.566511	-0.541656	99
Es	0.891372	2.327712	0.247997	99
Es	1.235537	2.397863	-0.450840	99
Es	0.300633	-0.488447	0.047472	99
Es	0.065712	-1.223066	0.064649	99
Es	0.737173	0.993329	-1.434804	99
Es	-1.755623	-1.006648	-0.485474	99
Es	0.663451	0.579113	-0.677665	99
Es	0.446089	1.119091	-1.574792	99
Es	1.189103	2.459079	1.105519	99
Es	0.702289	0.928609	1.142740	99
Es	0.857918	1.032334	-1.290357	99
Es	1.120150	2.209665	0.844927	99
Es	1.051464	1.758354	-0.953177	99
Es	0.844849	1.031463	-1.408622	99
Es	1.239598	0.871764	-1.520434	99
Es	1.443837	3.014100	-0.749643	99
Es	0.374828	0.749542	0.637692	99
Es	0.925375	0.959987	-1.456049	99
43
Properties=species:S:1:pos:R:3:Z:I:1 energy=-661.4593372843789 field_type=dipole dipole="0.000000 0.000000 0.000000" charge=0
C	-1.450454	-1.327596	0.114760	6
C	0.065716	-1.223166	0.064670	6
C	0.517015	0.199074	0.061330	6
N	0.702215	0.928434	1.143360	7
N	1.120265	2.210094	0.845410	7
C	1.235565	2.397984	-0.450730	6
S	0.844915	1.031484	-1.408620	16
H	-1.757575	-2.377966	0.137480	1
H	-1.910554	-0.858306	-0.761390	1
H	-1.852005	-0.836716	1.007910	1
H	0.442356	-1.753816	-0.817690	1
H	0.490766	-1.729046	0.939680	1
H	1.551775	3.339544	-0.876170	1
Es	0.874160	1.149441	-1.409695	99
Es	0.065712	-1.223068	0.064649	99
Es	-0.676557	-1.253396	0.085279	99
Es	0.759069	1.007306	-1.325472	99
Es	-1.649892	-2.043927	0.127146	99
Es	-1.754332	-1.006497	-0.485745	99
Es	1.037230	1.772609	-0.960131	99
Es	0.352264	-1.551760	0.651756	99
Es	0.811568	0.993612	-1.516306	99
Es	0.906313	1.563307	0.958370	99
Es	1.187446	2.463040	1.106029	99
Es	1.235537	2.397863	-0.450845	99
Es	0.935297	0.975336	-1.380668	99
Es	0.702290	0.928631	1.142733	99
Es	0.322028	-1.567817	-0.543381	99
Es	0.381956	0.747303	0.636380	99
Es	1.417083	2.157782	0.269712	99
Es	0.299813	-0.487616	0.048515	99
Es	0.968079	1.034181	-1.200038	99
Es	0.896082	2.324533	0.247301	99
Es	0.517041	0.199121	0.061175	99
Es	0.756671	0.947337	-1.884984	99
Es	1.120149	2.209668	0.844926	99
Es	0.648058	0.809233	1.489901	99
Es	0.843751	1.032622	-1.409277	99
Es	-1.450393	-1.327595	0.114746	99
Es	0.903046	0.588638	0.657265	99
Es	1.444248	3.014472	-0.749300	99
Es	-1.715573	-0.994373	0.719691	99
Es	0.639609	0.574602	-0.680291	99
43
Properties=species:S:1:pos:R:3:Z:I:1 energy=-661.4593372843789 field_type=dipole dipole="0.000000 0.000000 0.000000" charge=0
C	-1.450454	-1.327596	0.114760	6
C	0.065716	-1.223166	0.064670	6
C	0.517015	0.199074	0.061330	6
N	0.702215	0.928434	1.143360	7
N	1.120265	2.210094	0.845410	7
C	1.235565	2.397984	-0.450730	6
S	0.844915	1.031484	-1.408620	16
H	-1.757575	-2.377966	0.137480	1
H	-1.910554	-0.858306	-0.761390	1
H	-1.852005	-0.836716	1.007910	1
H	0.442356	-1.753816	-0.817690	1
H	0.490766	-1.729046	0.939680	1
H	1.551775	3.339544	-0.876170	1
Es	-0.676188	-1.253165	0.085290	99
Es	0.702274	0.928558	1.142763	99
Es	1.189544	2.464150	1.106451	99
Es	0.886914	1.061373	-1.198458	99
Es	0.896844	2.323460	0.247349	99
Es	-1.753947	-1.006004	-0.486402	99
Es	0.881350	0.924099	-1.419684	99
Es	1.413896	2.157604	0.269453	99
Es	0.653066	0.569247	-0.678752	99
Es	0.517038	0.199120	0.061172	99
Es	0.382622	0.747803	0.636383	99
Es	0.777548	1.044612	-1.302779	99
Es	1.444200	3.014728	-0.749134	99
Es	-1.450391	-1.327594	0.114747	99
Es	0.065712	-1.223065	0.064648	99
Es	0.939031	1.100828	-1.407896	99
Es	0.299050	-0.487013	0.048664	99
Es	1.235538	2.397862	-0.450846	99
Es	1.120153	2.209676	0.844918	99
Es	1.051408	1.769257	-0.959121	99
Es	0.907780	1.562813	0.957731	99
Es	0.780618	1.057291	-1.502250	99
Es	0.321318	-1.568095	-0.543889	99
Es	0.844903	1.031495	-1.408589	99
Es	-1.649397	-2.044527	0.127271	99
Es	0.351631	-1.552348	0.652526	99
Es	0.810533	0.928912	-1.889998	99
Es	0.899499	0.590565	0.656818	99
Es	0.650213	0.807134	1.491108	99
Es	-1.715009	-0.994185	0.719950	99
43
Properties=species:S:1:pos:R:3:Z:I:1 energy=-661.4593372843789 field_type=dipole dipole="0.000000 0.000000 0.000000" charge=0
C	-1.450454	-1.327596	0.114760	6
C	0.065716	-1.223166	0.064670	6
C	0.517015	0.199074	0.061330	6
N	0.702215	0.928434	1.143360	7
N	1.120265	2.210094	0.845410	7
C	1.235565	2.397984	-0.450730	6
S	0.844915	1.031484	-1.408620	16
H	-1.757575	-2.377966	0.137480	1
H	-1.910554	-0.858306	-0.761390	1
H	-1.852005	-0.836716	1.007910	1
H	0.442356	-1.753816	-0.817690	1
H	0.490766	-1.729046	0.939680	1
H	1.551775	3.339544	-0.876170	1
Es	1.120149	2.209663	0.844920	99
Es	0.869685	1.067339	-1.199097	99
Es	-0.676000	-1.253016	0.085175	99
Es	1.412138	2.157680	0.269029	99
Es	0.298710	-0.486632	0.048778	99
Es	0.897351	2.322404	0.247687	99
Es	0.517037	0.199122	0.061174	99
Es	0.924750	0.998187	-1.400327	99
Es	0.650222	0.806121	1.491851	99
Es	-1.753669	-1.005957	-0.486970	99
Es	1.055171	1.767811	-0.958814	99
Es	-1.714618	-0.993824	0.720266	99
Es	0.780182	0.936759	-1.452064	99
Es	0.383872	0.747614	0.636137	99
Es	1.235539	2.397862	-0.450846	99
Es	0.898269	0.591950	0.657014	99
Es	0.846115	1.031621	-1.408437	99
Es	-1.648958	-2.044752	0.127493	99
Es	0.320792	-1.568446	-0.544191	99
Es	0.702286	0.928603	1.142745	99
Es	1.444314	3.014774	-0.749116	99
Es	0.820809	0.925602	-1.890113	99
Es	0.860062	1.118993	-1.490596	99
Es	0.655314	0.568716	-0.678579	99
Es	1.190618	2.464856	1.106837	99
Es	0.351027	-1.552689	0.653005	99
Es	0.813104	1.072393	-1.290024	99
Es	0.065711	-1.223067	0.064647	99
Es	0.908162	1.562496	0.957114	99
Es	-1.450393	-1.327595	0.114745	99
43
Properties=species:S:1:pos:R:3:Z:I:1 energy=-661.4593372843789 field_type=dipole dipole="0.000000 0.000000 0.000000" charge=0
C	-1.450454	-1.327596	0.114760	6
C	0.065716	-1.223166	0.064670	6
C	0.517015	0.199074	0.061330	6
N	0.702215	0.928434	1.143360	7
N	1.120265	2.210094	0.845410	7
C	1.235565	2.397984	-0.450730	6
S	0.844915	1.031484	-1.408620	16
H	-1.757575	-2.377966	0.137480	1
H	-1.910554	-0.858306	-0.761390	1
H	-1.852005	-0.836716	1.007910	1
H	0.442356	-1.753816	-0.817690	1
H	0.490766	-1.729046	0.939680	1
H	1.551775	3.339544	-0.876170	1
Es	1.190450	2.465912	1.106855	99
Es	1.057738	1.766702	-0.958616	99
Es	0.824119	0.924438	-1.890279	99
Es	0.650256	0.805181	1.492633	99
Es	0.856782	0.978792	-1.523804	99
Es	-1.648778	-2.045102	0.127167	99
Es	-1.450393	-1.327595	0.114745	99
Es	-1.714193	-0.993616	0.720754	99
Es	0.844871	1.031489	-1.408561	99
Es	1.235533	2.397863	-0.450849	99
Es	0.910967	1.133981	-1.390139	99
Es	0.862964	1.069481	-1.199646	99
Es	0.898793	2.322016	0.247239	99
Es	0.896988	0.592818	0.656761	99
Es	0.385323	0.747954	0.636125	99
Es	0.320141	-1.568726	-0.544875	99
Es	0.655304	0.568988	-0.678651	99
Es	0.350599	-1.552965	0.653419	99
Es	0.907996	1.562292	0.956677	99
Es	0.768814	1.060459	-1.409028	99
Es	0.517039	0.199120	0.061174	99
Es	0.065708	-1.223066	0.064651	99
Es	0.298012	-0.486321	0.049020	99
Es	-1.753192	-1.005606	-0.487070	99
Es	1.410881	2.156829	0.269572	99
Es	-0.675539	-1.252919	0.085234	99
Es	0.702276	0.928624	1.142763	99
Es	0.843662	0.953020	-1.309745	99
Es	1.120151	2.209674	0.844922	99
Es	1.444481	3.014875	-0.749001	99
43
Properties=species:S:1:pos:R:3:Z:I:1 energy=-661.4593372843789 field_type=dipole dipole="0.000000 0.000000 0.000000" charge=0
C	-1.450454	-1.327596	0.114760	6
C	0.065716	-1.223166	0.064670	6
C	0.517015	0.199074	0.061330	6
N	0.702215	0.928434	1.143360	7
N	1.120265	2.210094	0.845410	7
C	1.235565	2.397984	-0.450730	6
S	0.844915	1.031484	-1.408620	16
H	-1.757575	-2.377966	0.137480	1
H	-1.910554	-0.858306	-0.761390	1
H	-1.852005	-0.836716	1.007910	1
H	0.442356	-1.753816	-0.817690	1
H	0.490766	-1.729046	0.939680	1
H	1.551775	3.339544	-0.876170	1
Es	-1.450392	-1.327596	0.114745	99
Es	1.058614	1.766179	-0.958445	99
Es	1.191020	2.466526	1.106984	99
Es	1.235534	2.397863	-0.450849	99
Es	0.823357	0.924551	-1.890398	99
Es	-1.714173	-0.993498	0.720868	99
Es	0.862012	1.154572	-1.397178	99
Es	0.829383	0.983180	-1.527741	99
Es	1.120152	2.209668	0.844916	99
Es	0.350286	-1.553101	0.653669	99
Es	0.517034	0.199122	0.061172	99
Es	1.409875	2.156771	0.269329	99
Es	-0.675242	-1.252898	0.085258	99
Es	0.319888	-1.568897	-0.544992	99
Es	0.650475	0.804571	1.492945	99
Es	0.065710	-1.223065	0.064648	99
Es	0.702288	0.928612	1.142742	99
Es	0.654797	0.569300	-0.678802	99
Es	0.844931	1.031457	-1.408605	99
Es	-1.752976	-1.005604	-0.487322	99
Es	1.444583	3.014880	-0.748939	99
Es	-1.648565	-2.045168	0.127190	99
Es	0.908088	1.562344	0.956421	99
Es	0.899314	2.321244	0.247488	99
Es	0.800965	0.968337	-1.303937	99
Es	0.863974	1.069202	-1.199744	99
Es	0.887137	1.020559	-1.403937	99
Es	0.297720	-0.486073	0.049080	99
Es	0.385889	0.747915	0.636013	99
Es	0.896073	0.593636	0.656864	99
43
Properties=species:S:1:pos:R:3:Z:I:1 energy=-661.4593372843789 field_type=dipole dipole="0.000000 0.000000 0.000000" charge=0
C	-1.450454	-1.327596	0.114760	6
C	0.065716	-1.223166	0.064670	6
C	0.517015	0.199074	0.061330	6
N	0.702215	0.928434	1.143360	7
N	1.120265	2.210094	0.845410	7
C	1.235565	2.397984	-0.450730	6
S	0.844915	1.031484	-1.408620	16
H	-1.757575	-2.377966	0.137480	1
H	-1.910554	-0.858306	-0.761390	1
H	-1.852005	-0.836716	1.007910	1
H	0.442356	-1.753816	-0.817690	1
H	0.490766	-1.729046	0.939680	1
H	1.551775	3.339544	-0.876170	1
Es	0.517041	0.199119	0.061172	99
Es	1.444673	3.014924	-0.748885	99
Es	0.065710	-1.223069	0.064650	99
Es	0.845199	1.031208	-1.408710	99
Es	0.872135	1.144053	-1.356959	99
Es	0.830022	1.021882	-1.537388	99
Es	0.861062	1.070136	-1.199988	99
Es	-1.648401	-2.045329	0.127060	99
Es	1.409391	2.156798	0.269234	99
Es	1.120144	2.209655	0.844938	99
Es	0.908252	1.562111	0.956140	99
Es	0.297646	-0.485982	0.049157	99
Es	0.825049	0.924471	-1.890493	99
Es	0.895264	0.593081	0.656493	99
Es	0.899707	2.320790	0.247646	99
Es	0.877551	1.020279	-1.407993	99
Es	1.060078	1.765577	-0.958342	99
Es	0.319468	-1.569210	-0.545320	99
Es	-1.450394	-1.327596	0.114745	99
Es	0.386818	0.749184	0.636322	99
Es	1.235538	2.397861	-0.450850	99
Es	0.649983	0.804272	1.493261	99
Es	0.654563	0.569370	-0.678826	99
Es	0.702287	0.928609	1.142748	99
Es	1.190980	2.466874	1.107035	99
Es	-1.752608	-1.005386	-0.487539	99
Es	0.349759	-1.553265	0.653978	99
Es	-1.713706	-0.993259	0.721303	99
Es	0.799762	0.940258	-1.330272	99
Es	-0.675218	-1.252828	0.085129	99
43
Properties=species:S:1:pos:R:3:Z:I:1 energy=-661.4593372843789 field_type=dipole dipole="0.000000 0.000000 0.000000" charge=0
C	-1.450454	-1.327596	0.114760	6
C	0.065716	-1.223166	0.064670	6
C	0.517015	0.199074	0.061330	6
N	0.702215	0.928434	1.143360	7
N	1.120265	2.210094	0.845410	7
C	1.235565	2.397984	-0.450730	6
S	0.844915	1.031484	-1.408620	16
H	-1.757575	-2.377966	0.137480	1
H	-1.910554	-0.858306	-0.761390	1
H	-1.852005	-0.836716	1.007910	1
H	0.442356	-1.753816	-0.817690	1
H	0.490766	-1.729046	0.939680	1
H	1.551775	3.339544	-0.876170	1
Es	0.908227	1.562106	0.955823	99
Es	0.826787	0.923898	-1.890478	99
Es	0.349208	-1.553496	0.654304	99
Es	1.408671	2.156202	0.269559	99
Es	-0.674712	-1.252724	0.085108	99
Es	0.319052	-1.569457	-0.545573	99
Es	1.120148	2.209662	0.844921	99
Es	0.517032	0.199122	0.061173	99
Es	-1.450392	-1.327596	0.114746	99
Es	0.900386	2.320859	0.247242	99
Es	0.065711	-1.223065	0.064648	99
Es	0.801909	0.917269	-1.443362	99
Es	-1.713504	-0.993089	0.721428	99
Es	0.387500	0.748009	0.635869	99
Es	0.649845	0.803896	1.493595	99
Es	-1.648244	-2.045511	0.127057	99
Es	1.235535	2.397863	-0.450849	99
Es	0.702289	0.928605	1.142739	99
Es	0.822913	1.041950	-1.409432	99
Es	1.444763	3.014971	-0.748788	99
Es	0.894959	0.594558	0.657024	99
Es	0.856685	1.071734	-1.200965	99
Es	-1.752305	-1.005270	-0.487750	99
Es	0.844911	1.031492	-1.408586	99
Es	1.059780	1.765457	-0.958309	99
Es	0.864059	1.059282	-1.280777	99
Es	0.297319	-0.485696	0.049281	99
Es	0.655530	0.569260	-0.678777	99
Es	0.892608	1.107078	-1.498532	99
Es	1.191083	2.467218	1.107103	99
43
Properties=species:S:1:pos:R:3:Z:I:1 energy=-661.4593372843789 field_type=dipole dipole="0.000000 0.000000 0.000000" charge=0
C	-1.450454	-1.327596	0.114760	6
C	0.065716	-1.223166	0.064670	6
C	0.517015	0.199074	0.061330	6
N	0.702215	0.928434	1.143360	7
N	1.120265	2.210094	0.845410	7
C	1.235565	2.397984	-0.450730	6
S	0.844915	1.031484	-1.408620	16
H	-1.757575	-2.377966	0.137480	1
H	-1.910554	-0.858306	-0.761390	1
H	-1.852005	-0.836716	1.007910	1
H	0.442356	-1.753816	-0.817690	1
H	0.490766	-1.729046	0.939680	1
H	1.551775	3.339544	-0.876170	1
Es	-1.450392	-1.327596	0.114746	99
Es	1.235534	2.397864	-0.450849	99
Es	0.065711	-1.223066	0.064648	99
Es	1.191245	2.467653	1.107039	99
Es	0.654777	0.569629	-0.678771	99
Es	0.850697	1.037433	-1.276850	99
Es	0.517033	0.199122	0.061171	99
Es	0.802797	0.927033	-1.469882	99
Es	1.059313	1.765609	-0.958416	99
Es	0.894636	0.596057	0.657623	99
Es	0.900722	2.320063	0.247605	99
Es	-1.648045	-2.045675	0.127011	99
Es	-1.713239	-0.992954	0.721636	99
Es	0.908180	1.562058	0.955708	99
Es	-1.751985	-1.005106	-0.487977	99
Es	0.903296	1.118648	-1.475717	99
Es	1.408124	2.156479	0.269198	99
Es	0.821566	1.043958	-1.409438	99
Es	0.649578	0.803527	1.493744	99
Es	0.348912	-1.553677	0.654529	99
Es	0.843870	1.031775	-1.409069	99
Es	-0.674543	-1.252752	0.085184	99
Es	0.297051	-0.485589	0.049364	99
Es	1.444764	3.015055	-0.748736	99
Es	0.387930	0.746872	0.635352	99
Es	0.862675	1.069722	-1.200736	99
Es	0.826407	0.923719	-1.890441	99
Es	0.318701	-1.569551	-0.545894	99
Es	1.120150	2.209667	0.844920	99
Es	0.702287	0.928609	1.142743	99
43
Properties=species:S:1:pos:R:3:Z:I:1 energy=-661.4593372843789 field_type=dipole dipole="0.000000 0.000000 0.000000" charge=0
C	-1.450454	-1.327596	0.114760	6
C	0.065716	-1.223166	0.064670	6
C	0.517015	0.199074	0.061330	6
N	0.702215	0.928434	1.143360	7
N	1.120265	2.210094	0.845410	7
C	1.235565	2.397984	-0.450730	6
S	0.844915	1.031484	-1.408620	16
H	-1.757575	-2.377966	0.137480	1
H	-1.910554	-0.858306	-0.761390	1
H	-1.852005	-0.836716	1.007910	1
H	0.442356	-1.753816	-0.817690	1
H	0.490766	-1.729046	0.939680	1
H	1.551775	3.339544	-0.876170	1
Es	0.318508	-1.569698	-0.546058	99
Es	1.120144	2.209673	0.844974	99
Es	0.348464	-1.553813	0.654767	99
Es	0.854255	1.026571	-1.407492	99
Es	0.908443	1.562000	0.955663	99
Es	0.824310	0.924990	-1.890607	99
Es	0.654187	0.570010	-0.678762	99
Es	0.887001	1.095775	-1.511422	99
Es	0.702285	0.928599	1.142738	99
Es	1.407626	2.156612	0.269073	99
Es	-1.450393	-1.327596	0.114746	99
Es	0.065711	-1.223066	0.064648	99
Es	-1.647883	-2.045864	0.126934	99
Es	0.388559	0.749392	0.636368	99
Es	0.900888	2.319789	0.247824	99
Es	0.844915	1.031490	-1.408606	99
Es	0.850084	1.081368	-1.285499	99
Es	-1.712981	-0.992798	0.721830	99
Es	0.650096	0.803067	1.493900	99
Es	0.863883	1.069500	-1.200656	99
Es	1.235533	2.397863	-0.450850	99
Es	0.296800	-0.485431	0.049480	99
Es	-0.674322	-1.252622	0.084928	99
Es	-1.751833	-1.005051	-0.487985	99
Es	1.191551	2.467878	1.106976	99
Es	1.444959	3.015012	-0.748755	99
Es	1.060276	1.765126	-0.958360	99
Es	0.893334	0.594086	0.656429	99
Es	0.786319	0.922607	-1.427951	99
Es	0.517035	0.199121	0.061170	99
43
Properties=species:S:1:pos:R:3:Z:I:1 energy=-661.4593372843789 field_type=dipole dipole="0.000000 0.000000 0.000000" charge=0
C	-1.450454	-1.327596	0.114760	6
C	0.065716	-1.223166	0.064670	6
C	0.517015	0.199074	0.061330	6
N	0.702215	0.928434	1.143360	7
N	1.120265	2.210094	0.845410	7
C	1.235565	2.397984	-0.450730	6
S	0.844915	1.031484	-1.408620	16
H	-1.757575	-2.377966	0.137480	1
H	-1.910554	-0.858306	-0.761390	1
H	-1.852005	-0.836716	1.007910	1
H	0.442356	-1.753816	-0.817690	1
H	0.490766	-1.729046	0.939680	1
H	1.551775	3.339544	-0.876170	1
Es	-1.450392	-1.327595	0.114746	99
Es	0.790057	0.919243	-1.388836	99
Es	0.654335	0.569915	-0.678876	99
Es	0.827120	0.923988	-1.890665	99
Es	0.894409	0.597514	0.658121	99
Es	1.120150	2.209669	0.844920	99
Es	0.873353	1.105599	-1.305255	99
Es	-0.674147	-1.252567	0.085066	99
Es	0.517033	0.199122	0.061172	99
Es	0.901228	2.319560	0.247837	99
Es	0.388630	0.745950	0.634765	99
Es	0.844807	1.031542	-1.408571	99
Es	0.871803	1.069665	-1.529891	99
Es	0.348194	-1.553964	0.654844	99
Es	0.908198	1.561967	0.955472	99
Es	0.856870	1.071632	-1.200767	99
Es	0.845793	1.031065	-1.408515	99
Es	-1.647807	-2.045808	0.126931	99
Es	0.065709	-1.223067	0.064647	99
Es	1.191571	2.468154	1.107092	99
Es	0.318073	-1.569894	-0.546149	99
Es	1.060849	1.764820	-0.958215	99
Es	0.702289	0.928611	1.142746	99
Es	-1.712860	-0.992759	0.721975	99
Es	1.444958	3.015015	-0.748709	99
Es	1.407307	2.156431	0.269107	99
Es	-1.751638	-1.004964	-0.488218	99
Es	1.235534	2.397863	-0.450849	99
Es	0.649493	0.803156	1.494002	99
Es	0.296832	-0.485274	0.049516	99
43
Properties=species:S:1:pos:R:3:Z:I:1 energy=-661.4593372843789 field_type=dipole dipole="0.000000 0.000000 0.000000" charge=0
C	-1.450454	-1.327596	0.114760	6
C	0.065716	-1.223166	0.064670	6
C	0.517015	0.199074	0.061330	6
N	0.702215	0.928434	1.143360	7
N	1.120265	2.210094	0.845410	7
C	1.235565	2.397984	-0.450730	6
S	0.844915	1.031484	-1.408620	16
H	-1.757575	-2.377966	0.137480	1
H	-1.910554	-0.858306	-0.761390	1
H	-1.852005	-0.836716	1.007910	1
H	0.442356	-1.753816	-0.817690	1
H	0.490766	-1.729046	0.939680	1
H	1.551775	3.339544	-0.876170	1
Es	1.062520	1.764245	-0.958263	99
Es	0.347810	-1.554037	0.655084	99
Es	0.389116	0.747269	0.635216	99
Es	-1.450392	-1.327597	0.114746	99
Es	1.191947	2.468607	1.107289	99
Es	1.235533	2.397862	-0.450851	99
Es	0.654140	0.570086	-0.678837	99
Es	0.893315	0.597031	0.657571	99
Es	0.649759	0.802670	1.494171	99
Es	0.800061	0.922716	-1.444549	99
Es	0.836047	1.070788	-1.238359	99
Es	1.406377	2.156508	0.269090	99
Es	0.887584	1.110644	-1.500750	99
Es	0.844111	1.031862	-1.408628	99
Es	0.065710	-1.223067	0.064649	99
Es	0.901520	2.318660	0.248389	99
Es	0.296668	-0.485246	0.049532	99
Es	0.908533	1.561944	0.955042	99
Es	0.843055	1.032217	-1.408813	99
Es	-1.751301	-1.004811	-0.488238	99
Es	0.317805	-1.570074	-0.546356	99
Es	0.870512	1.061108	-1.241261	99
Es	-1.647781	-2.046083	0.126869	99
Es	1.120147	2.209663	0.844924	99
Es	-0.673996	-1.252450	0.085035	99
Es	0.702286	0.928603	1.142739	99
Es	0.517026	0.199124	0.061172	99
Es	-1.712590	-0.992563	0.722040	99
Es	1.445073	3.015046	-0.748678	99
Es	0.827157	0.923863	-1.890533	99
43
Properties=species:S:1:pos:R:3:Z:I:1 energy=-661.4593372843789 field_type=dipole dipole="0.000000 0.000000 0.000000" charge=0
C	-1.450454	-1.327596	0.114760	6
C	0.065716	-1.223166	0.064670	6
C	0.517015	0.199074	0.061330	6
N	0.702215	0.928434	1.143360	7
N	1.120265	2.210094	0.845410	7
C	1.235565	2.397984	-0.450730	6
S	0.844915	1.031484	-1.408620	16
H	-1.757575	-2.377966	0.137480	1
H	-1.910554	-0.858306	-0.761390	1
H	-1.852005	-0.836716	1.007910	1
H	0.442356	-1.753816	-0.817690	1
H	0.490766	-1.729046	0.939680	1
H	1.551775	3.339544	-0.876170	1
Es	0.702287	0.928610	1.142746	99
Es	-1.712598	-0.992595	0.722117	99
Es	0.389275	0.747706	0.635389	99
Es	1.235536	2.397862	-0.450850	99
Es	0.649958	0.802325	1.494425	99
Es	0.826084	0.923567	-1.890586	99
Es	0.296547	-0.485120	0.049615	99
Es	0.317645	-1.570084	-0.546445	99
Es	0.892724	0.596786	0.657418	99
Es	1.192038	2.468576	1.107214	99
Es	0.901574	2.318728	0.248376	99
Es	0.653578	0.570336	-0.678919	99
Es	0.347633	-1.554172	0.655158	99
Es	-1.647692	-2.045959	0.126914	99
Es	0.824891	1.022709	-1.278570	99
Es	-0.673736	-1.252484	0.085071	99
Es	1.062834	1.764006	-0.958116	99
Es	0.845978	1.031107	-1.408511	99
Es	0.891212	1.138235	-1.457221	99
Es	1.406340	2.156746	0.268675	99
Es	0.908546	1.561773	0.954994	99
Es	0.517025	0.199125	0.061173	99
Es	0.848233	1.030167	-1.408140	99
Es	0.814117	0.936134	-1.488861	99
Es	1.445239	3.014994	-0.748691	99
Es	-1.751249	-1.004807	-0.488444	99
Es	0.858266	1.071310	-1.200798	99
Es	1.120153	2.209668	0.844919	99
Es	0.065702	-1.223064	0.064648	99
Es	-1.450391	-1.327595	0.114745	99
43
Properties=species:S:1:pos:R:3:Z:I:1 energy=-661.4593372843789 field_type=dipole dipole="0.000000 0.000000 0.000000" charge=0
C	-1.450454	-1.327596	0.114760	6
C	0.065716	-1.223166	0.064670	6
C	0.517015	0.199074	0.061330	6
N	0.702215	0.928434	1.143360	7
N	1.120265	2.210094	0.845410	7
C	1.235565	2.397984	-0.450730	6
S	0.844915	1.031484	-1.408620	16
H	-1.757575	-2.377966	0.137480	1
H	-1.910554	-0.858306	-0.761390	1
H	-1.852005	-0.836716	1.007910	1
H	0.442356	-1.753816	-0.817690	1
H	0.490766	-1.729046	0.939680	1
H	1.551775	3.339544	-0.876170	1
Es	0.892744	0.596769	0.657493	99
Es	0.860077	1.070603	-1.200734	99
Es	1.191967	2.468731	1.107170	99
Es	0.347316	-1.554196	0.655297	99
Es	1.445311	3.015017	-0.748643	99
Es	0.826830	0.923771	-1.890630	99
Es	-1.647744	-2.046128	0.126788	99
Es	0.649628	0.802326	1.494310	99
Es	1.120147	2.209662	0.844942	99
Es	0.517032	0.199122	0.061171	99
Es	0.794048	0.921123	-1.435731	99
Es	-1.450393	-1.327596	0.114746	99
Es	0.908445	1.561875	0.955048	99
Es	-0.673621	-1.252409	0.085094	99
Es	0.065711	-1.223068	0.064648	99
Es	1.406177	2.156656	0.268694	99
Es	-1.712430	-0.992401	0.722209	99
Es	0.296413	-0.485169	0.049742	99
Es	0.317461	-1.570227	-0.546714	99
Es	1.062483	1.764123	-0.958115	99
Es	0.880217	1.108066	-1.506531	99
Es	0.844901	1.031500	-1.408599	99
Es	0.652680	0.570694	-0.678995	99
Es	-1.750892	-1.004708	-0.488429	99
Es	0.901798	2.318738	0.248328	99
Es	0.389595	0.747757	0.635370	99
Es	0.849443	1.029451	-1.408452	99
Es	0.702288	0.928603	1.142742	99
Es	0.854587	1.068042	-1.281923	99
Es	1.235534	2.397863	-0.450850	99
43
Properties=species:S:1:pos:R:3:Z:I:1 energy=-661.4593372843789 field_type=dipole dipole="0.000000 0.000000 0.000000" charge=0
C	-1.450454	-1.327596	0.114760	6
C	0.065716	-1.223166	0.064670	6
C	0.517015	0.199074	0.061330	6
N	0.702215	0.928434	1.143360	7
N	1.120265	2.210094	0.845410	7
C	1.235565	2.397984	-0.450730	6
S	0.844915	1.031484	-1.408620	16
H	-1.757575	-2.377966	0.137480	1
H	-1.910554	-0.858306	-0.761390	1
H	-1.852005	-0.836716	1.007910	1
H	0.442356	-1.753816	-0.817690	1
H	0.490766	-1.729046	0.939680	1
H	1.551775	3.339544	-0.876170	1
Es	0.296124	-0.484907	0.049800	99
Es	0.651374	0.571214	-0.679117	99
Es	-1.712394	-0.992372	0.722356	99
Es	-1.750872	-1.004746	-0.488437	99
Es	0.908421	1.561800	0.954835	99
Es	0.844608	1.031516	-1.408542	99
Es	0.859022	1.125985	-1.488744	99
Es	0.390250	0.747120	0.635054	99
Es	0.856256	1.072012	-1.200692	99
Es	0.804899	0.920807	-1.456561	99
Es	0.346933	-1.554327	0.655432	99
Es	1.445650	3.014948	-0.748584	99
Es	0.847572	1.054799	-1.278477	99
Es	0.702290	0.928621	1.142744	99
Es	0.827847	0.923519	-1.890662	99
Es	0.065711	-1.223065	0.064649	99
Es	0.649492	0.801946	1.494588	99
Es	-1.450393	-1.327595	0.114746	99
Es	1.120149	2.209666	0.844921	99
Es	1.191963	2.468996	1.107151	99
Es	-0.673135	-1.252305	0.084948	99
Es	1.235535	2.397862	-0.450850	99
Es	0.517031	0.199122	0.061171	99
Es	1.064620	1.763208	-0.958026	99
Es	-1.647655	-2.046095	0.126719	99
Es	0.892223	0.597799	0.657928	99
Es	0.869138	1.024497	-1.409025	99
Es	1.405795	2.156487	0.268512	99
Es	0.317178	-1.570397	-0.546720	99
Es	0.902116	2.318475	0.248327	99
43
Properties=species:S:1:pos:R:3:Z:I:1 energy=-661.4593372843789 field_type=dipole dipole="0.000000 0.000000 0.000000" charge=0
C	-1.450454	-1.327596	0.114760	6
C	0.065716	-1.223166	0.064670	6
C	0.517015	0.199074	0.061330	6
N	0.702215	0.928434	1.143360	7
N	1.120265	2.210094	0.845410	7
C	1.235565	2.397984	-0.450730	6
S	0.844915	1.031484	-1.408620	16
H	-1.757575	-2.377966	0.137480	1
H	-1.910554	-0.858306	-0.761390	1
H	-1.852005	-0.836716	1.007910	1
H	0.442356	-1.753816	-0.817690	1
H	0.490766	-1.729046	0.939680	1
H	1.551775	3.339544	-0.876170	1
Es	0.346764	-1.554450	0.655549	99
Es	0.856107	1.071986	-1.201112	99
Es	0.649886	0.801964	1.494597	99
Es	-0.673055	-1.252286	0.085034	99
Es	0.836549	1.035140	-1.409796	99
Es	0.389933	0.746927	0.635065	99
Es	0.869678	1.104478	-1.303836	99
Es	0.065711	-1.223066	0.064648	99
Es	0.908543	1.561733	0.954770	99
Es	0.902023	2.318437	0.248335	99
Es	-1.750738	-1.004678	-0.488692	99
Es	1.192332	2.468928	1.107213	99
Es	0.702285	0.928597	1.142736	99
Es	-1.450393	-1.327596	0.114746	99
Es	1.445404	3.015039	-0.748598	99
Es	0.892352	0.598141	0.657865	99
Es	-1.647442	-2.046131	0.126798	99
Es	0.316872	-1.570454	-0.546867	99
Es	0.843449	1.032861	-1.408532	99
Es	0.881929	1.067439	-1.527457	99
Es	1.235534	2.397863	-0.450850	99
Es	0.794307	0.916871	-1.391315	99
Es	0.296203	-0.484867	0.049808	99
Es	1.120150	2.209667	0.844934	99
Es	0.653150	0.570604	-0.678933	99
Es	-1.712220	-0.992326	0.722460	99
Es	0.517031	0.199122	0.061171	99
Es	1.405517	2.156668	0.268628	99
Es	0.826357	0.924434	-1.890840	99
Es	1.063533	1.763543	-0.958084	99
43
Properties=species:S:1:pos:R:3:Z:I:1 energy=-661.4593372843789 field_type=dipole dipole="0.000000 0.000000 0.000000" charge=0
C	-1.450454	-1.327596	0.114760	6
C	0.065716	-1.223166	0.064670	6
C	0.517015	0.199074	0.061330	6
N	0.702215	0.928434	1.143360	7
N	1.120265	2.210094	0.845410	7
C	1.235565	2.397984	-0.450730	6
S	0.844915	1.031484	-1.408620	16
H	-1.757575	-2.377966	0.137480	1
H	-1.910554	-0.858306	-0.761390	1
H	-1.852005	-0.836716	1.007910	1
H	0.442356	-1.753816	-0.817690	1
H	0.490766	-1.729046	0.939680	1
H	1.551775	3.339544	-0.876170	1
Es	0.517030	0.199122	0.061171	99
Es	0.815254	0.933276	-1.333468	99
Es	0.908486	1.561654	0.954469	99
Es	-1.712076	-0.992296	0.722642	99
Es	-1.750667	-1.004636	-0.488671	99
Es	0.316951	-1.570453	-0.546895	99
Es	-1.450393	-1.327595	0.114746	99
Es	0.902217	2.317656	0.248809	99
Es	0.651577	0.571115	-0.679138	99
Es	0.892475	0.598469	0.658354	99
Es	-0.673310	-1.252429	0.084956	99
Es	1.191959	2.469252	1.107241	99
Es	0.837496	1.033887	-1.408557	99
Es	0.390529	0.746437	0.634719	99
Es	0.885434	1.140592	-1.352714	99
Es	0.843693	1.032581	-1.408558	99
Es	0.857321	1.071716	-1.200755	99
Es	1.120147	2.209663	0.844934	99
Es	0.843119	1.017161	-1.537961	99
Es	0.649079	0.802158	1.494758	99
Es	0.346757	-1.554411	0.655521	99
Es	0.826965	0.924019	-1.890834	99
Es	1.064492	1.763182	-0.958003	99
Es	1.405482	2.157046	0.268165	99
Es	-1.647434	-2.046102	0.126678	99
Es	0.296005	-0.484831	0.049856	99
Es	1.235538	2.397861	-0.450850	99
Es	0.702287	0.928608	1.142745	99
Es	0.065710	-1.223065	0.064648	99
Es	1.445629	3.014954	-0.748567	99
43
Properties=species:S:1:pos:R:3:Z:I:1 energy=-661.4593372843789 field_type=dipole dipole="0.000000 0.000000 0.000000" charge=0
C	-1.450454	-1.327596	0.114760	6
C	0.065716	-1.223166	0.064670	6
C	0.517015	0.199074	0.061330	6
N	0.702215	0.928434	1.143360	7
N	1.120265	2.210094	0.845410	7
C	1.235565	2.397984	-0.450730	6
S	0.844915	1.031484	-1.408620	16
H	-1.757575	-2.377966	0.137480	1
H	-1.910554	-0.858306	-0.761390	1
H	-1.852005	-0.836716	1.007910	1
H	0.442356	-1.753816	-0.817690	1
H	0.490766	-1.729046	0.939680	1
H	1.551775	3.339544	-0.876170	1
Es	0.065710	-1.223065	0.064649	99
Es	0.908699	1.561688	0.954660	99
Es	0.902141	2.317680	0.248715	99
Es	0.892458	0.599344	0.658652	99
Es	0.845532	1.031211	-1.408544	99
Es	0.824986	1.002176	-1.282119	99
Es	1.120149	2.209666	0.844931	99
Es	0.390257	0.745756	0.634273	99
Es	-1.711978	-0.992207	0.722589	99
Es	-1.450394	-1.327596	0.114746	99
Es	0.702291	0.928622	1.142758	99
Es	0.893203	1.144909	-1.440768	99
Es	1.235538	2.397861	-0.450851	99
Es	-0.672978	-1.252226	0.084944	99
Es	-1.647478	-2.046268	0.126659	99
Es	1.063917	1.763415	-0.958091	99
Es	0.858577	1.071207	-1.200760	99
Es	0.346406	-1.554507	0.655758	99
Es	0.652050	0.571074	-0.679040	99
Es	0.296007	-0.484878	0.049872	99
Es	1.405411	2.156930	0.268274	99
Es	0.817385	0.947673	-1.501327	99
Es	0.649247	0.802025	1.494689	99
Es	1.445489	3.015033	-0.748552	99
Es	0.826267	0.923663	-1.890727	99
Es	0.517033	0.199122	0.061170	99
Es	1.192118	2.469253	1.107258	99
Es	-1.750439	-1.004523	-0.488677	99
Es	0.843414	1.032104	-1.408633	99
Es	0.316733	-1.570548	-0.547066	99
43
Properties=species:S:1:pos:R:3:Z:I:1 energy=-661.4593372843789 field_type=dipole dipole="0.000000 0.000000 0.000000" charge=0
C	-1.450454	-1.327596	0.114760	6
C	0.065716	-1.223166	0.064670	6
C	0.517015	0.199074	0.061330	6
N	0.702215	0.928434	1.143360	7
N	1.120265	2.210094	0.845410	7
C	1.235565	2.397984	-0.450730	6
S	0.844915	1.031484	-1.408620	16
H	-1.757575	-2.377966	0.137480	1
H	-1.910554	-0.858306	-0.761390	1
H	-1.852005	-0.836716	1.007910	1
H	0.442356	-1.753816	-0.817690	1
H	0.490766	-1.729046	0.939680	1
H	1.551775	3.339544	-0.876170	1
Es	0.908440	1.561695	0.954368	99
Es	0.517031	0.199123	0.061171	99
Es	0.065711	-1.223066	0.064649	99
Es	0.859400	1.070876	-1.200724	99
Es	0.390706	0.745769	0.634513	99
Es	0.316505	-1.570571	-0.547125	99
Es	-1.647372	-2.046301	0.126758	99
Es	0.702291	0.928609	1.142746	99
Es	0.843989	1.031915	-1.408679	99
Es	1.235535	2.397862	-0.450850	99
Es	-1.750366	-1.004486	-0.488848	99
Es	0.891940	0.599665	0.658542	99
Es	1.405077	2.156272	0.268797	99
Es	0.828357	1.031550	-1.277901	99
Es	0.841592	1.032997	-1.409079	99
Es	1.063622	1.763474	-0.958043	99
Es	1.120156	2.209688	0.844914	99
Es	0.649504	0.801622	1.494846	99
Es	0.346357	-1.554583	0.655838	99
Es	0.825787	0.923825	-1.890730	99
Es	1.192246	2.469350	1.107283	99
Es	0.651829	0.571196	-0.679081	99
Es	0.902700	2.318215	0.248180	99
Es	-1.450392	-1.327596	0.114746	99
Es	0.899313	1.130698	-1.465478	99
Es	0.811125	0.930992	-1.480324	99
Es	0.295915	-0.484814	0.049875	99
Es	-0.672868	-1.252256	0.085030	99
Es	-1.711873	-0.992178	0.722594	99
Es	1.445498	3.015047	-0.748544	99
43
Properties=species:S:1:pos:R:3:Z:I:1 energy=-661.4593372843789 field_type=dipole dipole="0.000000 0.000000 0.000000" charge=0
C	-1.450454	-1.327596	0.114760	6
C	0.065716	-1.223166	0.064670	6
C	0.517015	0.199074	0.061330	6