50
Properties=species:S:1:pos:R:3:Z:I:1 energy=-704.6430529543828 field_type=dipole dipole="0.000000 0.000000 0.000000" charge=0
C	-1.433361	-0.717549	0.601294	6
C	0.090169	-0.668289	0.612844	6
C	0.674609	-1.475590	-0.540696	6
S	0.709759	1.023961	0.633084	16
C	0.156319	1.760221	-0.889196	6
O	0.048709	1.728170	1.716574	8
O	2.158909	0.969071	0.582714	8
H	-1.855561	-0.148709	1.435754	1
H	-1.785471	-1.750689	0.691474	1
H	-1.844571	-0.305819	-0.325456	1
H	0.444299	-1.103839	1.555484	1
H	0.341769	-1.094329	-1.510986	1
H	0.365679	-2.524129	-0.471646	1
H	1.768909	-1.450229	-0.529336	1
H	0.578629	1.212281	-1.732036	1
H	0.514779	2.792201	-0.909276	1
H	-0.933581	1.753271	-0.920596	1
Es	0.305716	1.468565	1.319716	99
Es	0.720712	0.998529	0.627746	99
Es	0.715615	1.010403	0.629775	99
Es	0.674564	-1.475549	-0.540655	99
Es	0.090189	-0.668164	0.612798	99
Es	1.621431	0.992586	0.614383	99
Es	0.048885	1.727963	1.716283	99
Es	0.635099	0.985986	0.730068	99
Es	0.454670	-2.177262	-0.482940	99
Es	-0.210286	1.643326	1.570014	99
Es	1.404515	-1.457732	-0.530711	99
Es	-1.701524	-0.435149	-0.035419	99
Es	-0.658474	-0.666369	0.600016	99
Es	2.164249	1.266643	0.565086	99
Es	2.158590	0.969100	0.582703	99
Es	0.656214	1.042506	0.517888	99
Es	0.367234	0.130799	0.593824	99
Es	0.399150	1.403942	-0.199174	99
Es	0.437075	1.384209	-1.438934	99
Es	-1.433284	-0.717553	0.601272	99
Es	0.440008	-1.206763	-1.196229	99
Es	0.166578	1.534236	1.906384	99
Es	2.108573	0.812199	0.322343	99
Es	2.162403	0.816835	0.837894	99
Es	0.821051	1.082329	0.659781	99
Es	-0.566171	1.743134	-0.900485	99
Es	-1.654788	-1.418734	0.658281	99
Es	0.183315	1.980165	1.633396	99
Es	0.384994	-1.041493	0.034362	99
Es	0.156354	1.760156	-0.889087	99
Es	0.398466	2.429561	-0.884248	99
Es	0.334339	-0.936552	1.241223	99
Es	-1.712772	-0.338206	1.159011	99
50
Properties=species:S:1:pos:R:3:Z:I:1 energy=-704.6430529543828 field_type=dipole dipole="0.000000 0.000000 0.000000" charge=0
C	-1.433361	-0.717549	0.601294	6
C	0.090169	-0.668289	0.612844	6
C	0.674609	-1.475590	-0.540696	6
S	0.709759	1.023961	0.633084	16
C	0.156319	1.760221	-0.889196	6
O	0.048709	1.728170	1.716574	8
O	2.158909	0.969071	0.582714	8
H	-1.855561	-0.148709	1.435754	1
H	-1.785471	-1.750689	0.691474	1
H	-1.844571	-0.305819	-0.325456	1
H	0.444299	-1.103839	1.555484	1
H	0.341769	-1.094329	-1.510986	1
H	0.365679	-2.524129	-0.471646	1
H	1.768909	-1.450229	-0.529336	1
H	0.578629	1.212281	-1.732036	1
H	0.514779	2.792201	-0.909276	1
H	-0.933581	1.753271	-0.920596	1
Es	0.399112	1.404778	-0.199809	99
Es	0.642483	0.966145	0.555575	99
Es	0.164070	1.535108	1.900905	99
Es	2.167860	1.260327	0.577901	99
Es	0.048870	1.727973	1.716332	99
Es	-0.219114	1.656847	1.573778	99
Es	0.193674	1.969378	1.637185	99
Es	-0.567164	1.743547	-0.900053	99
Es	0.709890	1.025155	0.633225	99
Es	-1.655064	-1.418024	0.657553	99
Es	-1.713708	-0.337552	1.159422	99
Es	0.818377	0.970146	0.642861	99
Es	0.439987	-1.207450	-1.195371	99
Es	0.306609	1.464958	1.317592	99
Es	2.158622	0.969054	0.582701	99
Es	0.723787	1.130087	0.594468	99
Es	1.618475	0.998654	0.615429	99
Es	0.398575	2.428557	-0.883453	99
Es	0.454509	-2.176516	-0.483654	99
Es	0.438015	1.383961	-1.439450	99
Es	0.385135	-1.041857	0.034593	99
Es	0.334029	-0.935587	1.240429	99
Es	-0.658439	-0.666634	0.600017	99
Es	0.367413	0.130336	0.594356	99
Es	0.674564	-1.475548	-0.540655	99
Es	-1.433291	-0.717551	0.601273	99
Es	2.153047	0.816417	0.831411	99
Es	2.117278	0.812814	0.314867	99
Es	-1.701060	-0.436088	-0.034621	99
Es	0.090189	-0.668165	0.612798	99
Es	1.405412	-1.458039	-0.531300	99
Es	0.654198	1.028263	0.739152	99
Es	0.156352	1.760155	-0.889089	99
50
Properties=species:S:1:pos:R:3:Z:I:1 energy=-704.6430529543828 field_type=dipole dipole="0.000000 0.000000 0.000000" charge=0
C	-1.433361	-0.717549	0.601294	6
C	0.090169	-0.668289	0.612844	6
C	0.674609	-1.475590	-0.540696	6
S	0.709759	1.023961	0.633084	16
C	0.156319	1.760221	-0.889196	6
O	0.048709	1.728170	1.716574	8
O	2.158909	0.969071	0.582714	8
H	-1.855561	-0.148709	1.435754	1
H	-1.785471	-1.750689	0.691474	1
H	-1.844571	-0.305819	-0.325456	1
H	0.444299	-1.103839	1.555484	1
H	0.341769	-1.094329	-1.510986	1
H	0.365679	-2.524129	-0.471646	1
H	1.768909	-1.450229	-0.529336	1
H	0.578629	1.212281	-1.732036	1
H	0.514779	2.792201	-0.909276	1
H	-0.933581	1.753271	-0.920596	1
Es	0.090189	-0.668164	0.612798	99
Es	-1.654937	-1.417920	0.657239	99
Es	0.305978	1.464438	1.316007	99
Es	0.398619	2.428261	-0.883086	99
Es	0.384991	-1.041772	0.034561	99
Es	0.048850	1.728026	1.716263	99
Es	2.157224	0.829383	0.832423	99
Es	2.154095	1.259493	0.575346	99
Es	0.399035	1.405152	-0.200106	99
Es	0.799374	1.046997	0.706540	99
Es	1.616139	0.989978	0.618001	99
Es	0.159548	1.530569	1.895653	99
Es	0.680243	0.914001	0.646622	99
Es	-0.658633	-0.666652	0.599986	99
Es	-1.714035	-0.337477	1.159655	99
Es	0.156352	1.760155	-0.889098	99
Es	0.612736	1.098038	0.654986	99
Es	-1.701033	-0.436381	-0.034246	99
Es	0.367463	0.130198	0.594543	99
Es	0.438442	1.383840	-1.439600	99
Es	0.709758	1.023967	0.633083	99
Es	-1.433290	-0.717550	0.601273	99
Es	2.158639	0.969075	0.582716	99
Es	0.439937	-1.207976	-1.194777	99
Es	0.454434	-2.176265	-0.483866	99
Es	-0.567495	1.743639	-0.899926	99
Es	1.405983	-1.457932	-0.531641	99
Es	0.674564	-1.475555	-0.540656	99
Es	0.746582	1.036738	0.524062	99
Es	-0.223307	1.668608	1.573943	99
Es	0.202936	1.962641	1.643880	99
Es	2.129197	0.809320	0.313749	99
Es	0.334113	-0.935227	1.240038	99
50
Properties=species:S:1:pos:R:3:Z:I:1 energy=-704.6430529543828 field_type=dipole dipole="0.000000 0.000000 0.000000" charge=0
C	-1.433361	-0.717549	0.601294	6
C	0.090169	-0.668289	0.612844	6
C	0.674609	-1.475590	-0.540696	6
S	0.709759	1.023961	0.633084	16
C	0.156319	1.760221	-0.889196	6
O	0.048709	1.728170	1.716574	8
O	2.158909	0.969071	0.582714	8
H	-1.855561	-0.148709	1.435754	1
H	-1.785471	-1.750689	0.691474	1
H	-1.844571	-0.305819	-0.325456	1
H	0.444299	-1.103839	1.555484	1
H	0.341769	-1.094329	-1.510986	1
H	0.365679	-2.524129	-0.471646	1
H	1.768909	-1.450229	-0.529336	1
H	0.578629	1.212281	-1.732036	1
H	0.514779	2.792201	-0.909276	1
H	-0.933581	1.753271	-0.920596	1
Es	-1.714263	-0.337480	1.159757	99
Es	0.399120	1.405313	-0.200171	99
Es	2.156854	1.257164	0.579730	99
Es	2.152200	0.827562	0.831378	99
Es	-1.654939	-1.417698	0.657056	99
Es	-0.658560	-0.666650	0.600002	99
Es	-0.567683	1.743737	-0.899848	99
Es	0.385242	-1.041930	0.034602	99
Es	0.304904	1.470195	1.309775	99
Es	-1.433288	-0.717550	0.601272	99
Es	0.454311	-2.176056	-0.484084	99
Es	0.718253	0.905668	0.633181	99
Es	0.744010	1.064260	0.528963	99
Es	0.367403	0.129994	0.594703	99
Es	0.438712	1.383948	-1.439831	99
Es	0.333968	-0.934832	1.239876	99
Es	0.782272	1.064668	0.710917	99
Es	1.615101	0.993283	0.615293	99
Es	-1.701026	-0.436551	-0.034054	99
Es	0.674562	-1.475548	-0.540653	99
Es	0.167430	1.528098	1.887637	99
Es	1.406095	-1.458181	-0.531681	99
Es	0.090189	-0.668164	0.612798	99
Es	0.156352	1.760161	-0.889093	99
Es	0.398495	2.427930	-0.882837	99
Es	0.594296	1.061278	0.659171	99
Es	2.132513	0.810121	0.313056	99
Es	0.048823	1.728019	1.716359	99
Es	0.709860	1.023883	0.633071	99
Es	-0.225773	1.663771	1.582941	99
Es	0.198557	1.964171	1.649020	99
Es	2.158632	0.969082	0.582716	99
Es	0.440070	-1.208023	-1.194654	99
50
Properties=species:S:1:pos:R:3:Z:I:1 energy=-704.6430529543828 field_type=dipole dipole="0.000000 0.000000 0.000000" charge=0
C	-1.433361	-0.717549	0.601294	6
C	0.090169	-0.668289	0.612844	6
C	0.674609	-1.475590	-0.540696	6
S	0.709759	1.023961	0.633084	16
C	0.156319	1.760221	-0.889196	6
O	0.048709	1.728170	1.716574	8
O	2.158909	0.969071	0.582714	8
H	-1.855561	-0.148709	1.435754	1
H	-1.785471	-1.750689	0.691474	1
H	-1.844571	-0.305819	-0.325456	1
H	0.444299	-1.103839	1.555484	1
H	0.341769	-1.094329	-1.510986	1
H	0.365679	-2.524129	-0.471646	1
H	1.768909	-1.450229	-0.529336	1
H	0.578629	1.212281	-1.732036	1
H	0.514779	2.792201	-0.909276	1
H	-0.933581	1.753271	-0.920596	1
Es	0.310343	1.466282	1.314842	99
Es	0.775125	1.086843	0.703493	99
Es	0.385141	-1.041976	0.034615	99
Es	2.132003	0.810631	0.311875	99
Es	0.333992	-0.934739	1.239687	99
Es	0.438791	1.383839	-1.439948	99
Es	0.724755	1.065895	0.531021	99
Es	0.189227	1.965710	1.637765	99
Es	-1.714480	-0.337411	1.159946	99
Es	0.749105	0.909279	0.632696	99
Es	0.454398	-2.175999	-0.484147	99
Es	0.440011	-1.208177	-1.194510	99
Es	-0.567791	1.743972	-0.899757	99
Es	0.589786	1.034308	0.664690	99
Es	0.367447	0.130019	0.594830	99
Es	0.674562	-1.475548	-0.540653	99
Es	-0.225759	1.653380	1.582988	99
Es	0.156353	1.760153	-0.889088	99
Es	0.399093	1.405488	-0.200233	99
Es	0.048790	1.728066	1.716420	99
Es	-1.700976	-0.436757	-0.033965	99
Es	2.158127	0.830980	0.829525	99
Es	1.406221	-1.458082	-0.531794	99
Es	0.171239	1.540772	1.893689	99
Es	-0.658552	-0.666810	0.600044	99
Es	-1.433298	-0.717547	0.601273	99
Es	-1.654849	-1.417466	0.656890	99
Es	2.151871	1.257814	0.577482	99
Es	1.614624	0.988654	0.620522	99
Es	0.398603	2.427713	-0.882725	99
Es	2.158669	0.969073	0.582712	99
Es	0.090185	-0.668162	0.612797	99
Es	0.709935	1.023448	0.633382	99
50
Properties=species:S:1:pos:R:3:Z:I:1 energy=-704.6430529543828 field_type=dipole dipole="0.000000 0.000000 0.000000" charge=0
C	-1.433361	-0.717549	0.601294	6
C	0.090169	-0.668289	0.612844	6
C	0.674609	-1.475590	-0.540696	6
S	0.709759	1.023961	0.633084	16
C	0.156319	1.760221	-0.889196	6
O	0.048709	1.728170	1.716574	8
O	2.158909	0.969071	0.582714	8
H	-1.855561	-0.148709	1.435754	1
H	-1.785471	-1.750689	0.691474	1
H	-1.844571	-0.305819	-0.325456	1
H	0.444299	-1.103839	1.555484	1
H	0.341769	-1.094329	-1.510986	1
H	0.365679	-2.524129	-0.471646	1
H	1.768909	-1.450229	-0.529336	1
H	0.578629	1.212281	-1.732036	1
H	0.514779	2.792201	-0.909276	1
H	-0.933581	1.753271	-0.920596	1
Es	0.385002	-1.041919	0.034568	99
Es	0.309667	1.464453	1.315729	99
Es	0.180915	1.550655	1.895485	99
Es	0.741741	1.121906	0.583691	99
Es	-1.714410	-0.337229	1.159809	99
Es	0.398629	2.427904	-0.882735	99
Es	0.090191	-0.668165	0.612802	99
Es	0.808707	0.964444	0.674893	99
Es	0.334014	-0.934673	1.239592	99
Es	0.666824	0.964203	0.554607	99
Es	0.674561	-1.475546	-0.540655	99
Es	0.182631	1.965331	1.627050	99
Es	-1.700841	-0.436755	-0.033829	99
Es	2.154891	1.256029	0.581273	99
Es	0.621564	1.044888	0.719895	99
Es	0.156352	1.760157	-0.889092	99
Es	0.454177	-2.176034	-0.484281	99
Es	-0.228231	1.645774	1.591119	99
Es	-1.433288	-0.717551	0.601271	99
Es	2.142088	0.835465	0.833391	99
Es	1.613775	0.992574	0.608404	99
Es	1.406344	-1.458128	-0.531824	99
Es	0.048855	1.728002	1.716309	99
Es	2.145900	0.804084	0.316368	99
Es	-0.658628	-0.666791	0.600123	99
Es	0.438752	1.383770	-1.439886	99
Es	2.158636	0.968992	0.582692	99
Es	-0.567748	1.743837	-0.899710	99
Es	0.440206	-1.208240	-1.194250	99
Es	0.367479	0.130017	0.594703	99
Es	-1.655040	-1.417658	0.656925	99
Es	0.709888	1.024336	0.632237	99
Es	0.399089	1.405514	-0.200308	99
50
Properties=species:S:1:pos:R:3:Z:I:1 energy=-704.6430529543828 field_type=dipole dipole="0.000000 0.000000 0.000000" charge=0
C	-1.433361	-0.717549	0.601294	6
C	0.090169	-0.668289	0.612844	6
C	0.674609	-1.475590	-0.540696	6
S	0.709759	1.023961	0.633084	16
C	0.156319	1.760221	-0.889196	6
O	0.048709	1.728170	1.716574	8
O	2.158909	0.969071	0.582714	8
H	-1.855561	-0.148709	1.435754	1
H	-1.785471	-1.750689	0.691474	1
H	-1.844571	-0.305819	-0.325456	1
H	0.444299	-1.103839	1.555484	1
H	0.341769	-1.094329	-1.510986	1
H	0.365679	-2.524129	-0.471646	1
H	1.768909	-1.450229	-0.529336	1
H	0.578629	1.212281	-1.732036	1
H	0.514779	2.792201	-0.909276	1
H	-0.933581	1.753271	-0.920596	1
Es	0.438836	1.383741	-1.440046	99
Es	0.367362	0.129775	0.594759	99
Es	1.613742	0.988168	0.609890	99
Es	0.399207	1.405672	-0.200193	99
Es	-1.654753	-1.417211	0.656802	99
Es	0.696153	0.927718	0.706436	99
Es	0.334003	-0.934636	1.239766	99
Es	-1.714598	-0.337462	1.160104	99
Es	0.828614	1.042659	0.587632	99
Es	0.156353	1.760156	-0.889090	99
Es	-1.433299	-0.717548	0.601276	99
Es	0.398442	2.427538	-0.882853	99
Es	0.048814	1.728043	1.716376	99
Es	0.638929	1.125655	0.663927	99
Es	0.682978	1.004886	0.587571	99
Es	0.439952	-1.208290	-1.194646	99
Es	0.186164	1.544162	1.886335	99
Es	0.090189	-0.668165	0.612797	99
Es	0.184786	1.967377	1.633791	99
Es	0.674562	-1.475548	-0.540653	99
Es	2.158636	0.969077	0.582716	99
Es	1.406351	-1.458434	-0.531796	99
Es	0.454376	-2.175561	-0.484156	99
Es	0.702050	1.018848	0.619755	99
Es	-0.658561	-0.666758	0.600007	99
Es	2.148816	0.843164	0.838198	99
Es	-0.230081	1.646236	1.599512	99
Es	2.147169	0.800965	0.318643	99
Es	0.304227	1.468433	1.309734	99
Es	2.146941	1.255803	0.572728	99
Es	-1.701029	-0.436835	-0.034019	99
Es	0.385196	-1.041960	0.034653	99
Es	-0.567837	1.743981	-0.899591	99
50
Properties=species:S:1:pos:R:3:Z:I:1 energy=-704.6430529543828 field_type=dipole dipole="0.000000 0.000000 0.000000" charge=0
C	-1.433361	-0.717549	0.601294	6
C	0.090169	-0.668289	0.612844	6
C	0.674609	-1.475590	-0.540696	6
S	0.709759	1.023961	0.633084	16
C	0.156319	1.760221	-0.889196	6
O	0.048709	1.728170	1.716574	8
O	2.158909	0.969071	0.582714	8
H	-1.855561	-0.148709	1.435754	1
H	-1.785471	-1.750689	0.691474	1
H	-1.844571	-0.305819	-0.325456	1
H	0.444299	-1.103839	1.555484	1
H	0.341769	-1.094329	-1.510986	1
H	0.365679	-2.524129	-0.471646	1
H	1.768909	-1.450229	-0.529336	1
H	0.578629	1.212281	-1.732036	1
H	0.514779	2.792201	-0.909276	1
H	-0.933581	1.753271	-0.920596	1
Es	-0.567840	1.744048	-0.899904	99
Es	0.187729	1.545865	1.885218	99
Es	2.165690	1.252648	0.569828	99
Es	-1.714491	-0.337278	1.159944	99
Es	0.622990	0.978003	0.581977	99
Es	0.367408	0.129825	0.594742	99
Es	0.156352	1.760157	-0.889091	99
Es	-0.658628	-0.666789	0.600043	99
Es	-1.433289	-0.717549	0.601271	99
Es	0.384965	-1.041993	0.034647	99
Es	-1.700889	-0.436800	-0.033826	99
Es	0.677152	1.135070	0.669071	99
Es	0.731348	0.958016	0.725929	99
Es	-0.235069	1.655687	1.605016	99
Es	0.454406	-2.175818	-0.484241	99
Es	0.807484	1.024718	0.555251	99
Es	1.406369	-1.458144	-0.531806	99
Es	0.334120	-0.934587	1.239762	99
Es	0.048828	1.728035	1.716355	99
Es	0.438946	1.383850	-1.439904	99
Es	-1.654963	-1.417491	0.656845	99
Es	0.440055	-1.208328	-1.194421	99
Es	0.300877	1.464928	1.308859	99
Es	0.191422	1.959697	1.630203	99
Es	0.399012	1.405614	-0.200084	99
Es	2.134820	0.792877	0.321826	99
Es	0.398600	2.427606	-0.882692	99
Es	0.709772	1.023959	0.633075	99
Es	0.674564	-1.475547	-0.540653	99
Es	2.142491	0.839867	0.834496	99
Es	1.613767	1.002475	0.612995	99
Es	0.090189	-0.668162	0.612794	99
Es	2.158503	0.969188	0.582843	99
50
Properties=species:S:1:pos:R:3:Z:I:1 energy=-704.6430529543828 field_type=dipole dipole="0.000000 0.000000 0.000000" charge=0
C	-1.433361	-0.717549	0.601294	6
C	0.090169	-0.668289	0.612844	6
C	0.674609	-1.475590	-0.540696	6
S	0.709759	1.023961	0.633084	16
C	0.156319	1.760221	-0.889196	6
O	0.048709	1.728170	1.716574	8
O	2.158909	0.969071	0.582714	8
H	-1.855561	-0.148709	1.435754	1
H	-1.785471	-1.750689	0.691474	1
H	-1.844571	-0.305819	-0.325456	1
H	0.444299	-1.103839	1.555484	1
H	0.341769	-1.094329	-1.510986	1
H	0.365679	-2.524129	-0.471646	1
H	1.768909	-1.450229	-0.529336	1
H	0.578629	1.212281	-1.732036	1
H	0.514779	2.792201	-0.909276	1
H	-0.933581	1.753271	-0.920596	1
Es	-0.229498	1.649812	1.591262	99
Es	0.385040	-1.042113	0.034691	99
Es	-0.568072	1.744063	-0.899657	99
Es	0.185612	1.963285	1.631587	99
Es	0.674563	-1.475548	-0.540653	99
Es	1.406581	-1.458082	-0.531966	99
Es	-0.658615	-0.666711	0.599999	99
Es	0.438786	1.383851	-1.439861	99
Es	0.697716	1.132672	0.587465	99
Es	-1.655029	-1.417515	0.656901	99
Es	1.613075	0.996026	0.613135	99
Es	0.398835	2.427599	-0.882671	99
Es	-1.700845	-0.437157	-0.033531	99
Es	0.632631	0.962829	0.587405	99
Es	0.310384	1.464754	1.314223	99
Es	0.178418	1.548244	1.892207	99
Es	0.822123	0.973687	0.607313	99
Es	0.367570	0.129887	0.594783	99
Es	2.142148	0.800704	0.316388	99
Es	-1.714660	-0.337050	1.159786	99
Es	0.454144	-2.175934	-0.484445	99
Es	0.334058	-0.934416	1.239446	99
Es	2.157278	1.253499	0.577770	99
Es	0.156354	1.760157	-0.889088	99
Es	0.709534	1.024123	0.633270	99
Es	2.158554	0.969066	0.582759	99
Es	0.440130	-1.208300	-1.193979	99
Es	0.048812	1.728059	1.716357	99
Es	0.399232	1.405672	-0.200362	99
Es	-1.433292	-0.717550	0.601273	99
Es	2.144218	0.837762	0.831901	99
Es	0.090189	-0.668165	0.612798	99
Es	0.686718	1.026436	0.749860	99
50
Properties=species:S:1:pos:R:3:Z:I:1 energy=-704.6430529543828 field_type=dipole dipole="0.000000 0.000000 0.000000" charge=0
C	-1.433361	-0.717549	0.601294	6
C	0.090169	-0.668289	0.612844	6
C	0.674609	-1.475590	-0.540696	6
S	0.709759	1.023961	0.633084	16
C	0.156319	1.760221	-0.889196	6
O	0.048709	1.728170	1.716574	8
O	2.158909	0.969071	0.582714	8
H	-1.855561	-0.148709	1.435754	1
H	-1.785471	-1.750689	0.691474	1
H	-1.844571	-0.305819	-0.325456	1
H	0.444299	-1.103839	1.555484	1
H	0.341769	-1.094329	-1.510986	1
H	0.365679	-2.524129	-0.471646	1
H	1.768909	-1.450229	-0.529336	1
H	0.578629	1.212281	-1.732036	1
H	0.514779	2.792201	-0.909276	1
H	-0.933581	1.753271	-0.920596	1
Es	0.156351	1.760154	-0.889088	99
Es	0.709394	1.023697	0.632552	99
Es	2.140550	0.794895	0.320761	99
Es	0.398560	2.427391	-0.882563	99
Es	0.334084	-0.934461	1.239568	99
Es	-1.701012	-0.436897	-0.033696	99
Es	-1.714571	-0.337357	1.159988	99
Es	0.699435	1.134165	0.587247	99
Es	-1.433288	-0.717550	0.601272	99
Es	-0.568030	1.744090	-0.899691	99
Es	0.090188	-0.668164	0.612796	99
Es	1.406595	-1.458192	-0.531912	99
Es	0.385009	-1.042050	0.034539	99
Es	1.613038	0.993596	0.615097	99
Es	0.367452	0.129788	0.594834	99
Es	0.823875	0.974204	0.614985	99
Es	0.189518	1.961841	1.626534	99
Es	-1.654980	-1.417285	0.656789	99
Es	0.439029	1.383911	-1.440072	99
Es	2.156740	1.255508	0.570081	99
Es	0.454280	-2.175690	-0.484279	99
Es	0.440005	-1.208431	-1.194231	99
Es	-0.658500	-0.666814	0.600076	99
Es	2.146328	0.843995	0.833327	99
Es	0.048837	1.727965	1.716321	99
Es	2.158617	0.969071	0.582710	99
Es	0.674563	-1.475547	-0.540653	99
Es	-0.231460	1.653022	1.593362	99
Es	0.644973	0.967836	0.580944	99
Es	0.177481	1.553188	1.891888	99
Es	0.309349	1.458111	1.317550	99
Es	0.399223	1.405782	-0.200246	99
Es	0.671061	1.019874	0.749577	99
50
Properties=species:S:1:pos:R:3:Z:I:1 energy=-704.6430529543828 field_type=dipole dipole="0.000000 0.000000 0.000000" charge=0
C	-1.433361	-0.717549	0.601294	6
C	0.090169	-0.668289	0.612844	6
C	0.674609	-1.475590	-0.540696	6
S	0.709759	1.023961	0.633084	16
C	0.156319	1.760221	-0.889196	6
O	0.048709	1.728170	1.716574	8
O	2.158909	0.969071	0.582714	8
H	-1.855561	-0.148709	1.435754	1
H	-1.785471	-1.750689	0.691474	1
H	-1.844571	-0.305819	-0.325456	1
H	0.444299	-1.103839	1.555484	1
H	0.341769	-1.094329	-1.510986	1
H	0.365679	-2.524129	-0.471646	1
H	1.768909	-1.450229	-0.529336	1
H	0.578629	1.212281	-1.732036	1
H	0.514779	2.792201	-0.909276	1
H	-0.933581	1.753271	-0.920596	1
Es	0.187179	1.553722	1.888343	99
Es	-1.714426	-0.337216	1.159928	99
Es	0.438828	1.383873	-1.440063	99
Es	-0.236624	1.658378	1.606037	99
Es	0.384946	-1.042018	0.034624	99
Es	-0.658556	-0.666745	0.599940	99
Es	-1.433287	-0.717549	0.601271	99
Es	0.398551	2.427591	-0.882697	99
Es	-0.567706	1.744142	-0.899824	99
Es	2.152546	1.254644	0.573676	99
Es	0.440183	-1.208266	-1.194333	99
Es	0.334093	-0.934554	1.239834	99
Es	0.192591	1.955707	1.622084	99
Es	-1.700890	-0.436807	-0.033705	99
Es	2.143940	0.844417	0.834339	99
Es	0.709746	1.023958	0.633070	99
Es	0.301710	1.458071	1.312643	99
Es	0.693955	1.127343	0.575848	99
Es	0.674563	-1.475547	-0.540653	99
Es	0.804338	0.955016	0.584833	99
Es	0.399133	1.405613	-0.199980	99
Es	0.367431	0.129894	0.594685	99
Es	0.734365	1.049318	0.733042	99
Es	0.048856	1.728239	1.716544	99
Es	0.454349	-2.176053	-0.484269	99
Es	0.090192	-0.668164	0.612803	99
Es	1.406270	-1.458039	-0.531801	99
Es	0.156353	1.760156	-0.889089	99
Es	2.146656	0.796443	0.318911	99
Es	-1.655017	-1.417593	0.656860	99
Es	2.158790	0.969254	0.582737	99
Es	0.606331	0.964153	0.638477	99
Es	1.613302	0.992265	0.612248	99
50
Properties=species:S:1:pos:R:3:Z:I:1 energy=-704.6430529543828 field_type=dipole dipole="0.000000 0.000000 0.000000" charge=0
C	-1.433361	-0.717549	0.601294	6
C	0.090169	-0.668289	0.612844	6
C	0.674609	-1.475590	-0.540696	6
S	0.709759	1.023961	0.633084	16
C	0.156319	1.760221	-0.889196	6
O	0.048709	1.728170	1.716574	8
O	2.158909	0.969071	0.582714	8
H	-1.855561	-0.148709	1.435754	1
H	-1.785471	-1.750689	0.691474	1
H	-1.844571	-0.305819	-0.325456	1
H	0.444299	-1.103839	1.555484	1
H	0.341769	-1.094329	-1.510986	1
H	0.365679	-2.524129	-0.471646	1
H	1.768909	-1.450229	-0.529336	1
H	0.578629	1.212281	-1.732036	1
H	0.514779	2.792201	-0.909276	1
H	-0.933581	1.753271	-0.920596	1
Es	0.803361	0.959724	0.575561	99
Es	-0.237256	1.664431	1.598734	99
Es	2.159852	0.842785	0.831755	99
Es	0.178423	1.551124	1.887295	99
Es	0.674563	-1.475547	-0.540653	99
Es	0.398647	2.427794	-0.882644	99
Es	-0.658593	-0.666779	0.599946	99
Es	1.406250	-1.457855	-0.531880	99
Es	2.145354	1.254632	0.570681	99
Es	0.713967	1.010241	0.745772	99
Es	0.384958	-1.042050	0.034647	99
Es	1.613351	0.986979	0.622976	99
Es	-1.700800	-0.436792	-0.033470	99
Es	0.440322	-1.208308	-1.194076	99
Es	0.305276	1.456316	1.315825	99
Es	0.454297	-2.176300	-0.484367	99
Es	0.367536	0.130077	0.594789	99
Es	0.709649	1.023966	0.633051	99
Es	0.090190	-0.668166	0.612800	99
Es	0.399088	1.405656	-0.200152	99
Es	0.048771	1.728044	1.716443	99
Es	0.714106	1.139470	0.611133	99
Es	-1.433289	-0.717550	0.601272	99
Es	0.438774	1.383790	-1.440022	99
Es	2.158593	0.969069	0.582702	99
Es	-0.567699	1.744033	-0.899723	99
Es	-1.714363	-0.337108	1.159824	99
Es	-1.655146	-1.417847	0.656837	99
Es	2.138073	0.803549	0.313695	99
Es	0.156352	1.760155	-0.889090	99
Es	0.607644	0.986363	0.599787	99
Es	0.198432	1.954183	1.627304	99
Es	0.334011	-0.934430	1.239614	99
50
Properties=species:S:1:pos:R:3:Z:I:1 energy=-704.6430529543828 field_type=dipole dipole="0.000000 0.000000 0.000000" charge=0
C	-1.433361	-0.717549	0.601294	6
C	0.090169	-0.668289	0.612844	6
C	0.674609	-1.475590	-0.540696	6
S	0.709759	1.023961	0.633084	16
C	0.156319	1.760221	-0.889196	6
O	0.048709	1.728170	1.716574	8
O	2.158909	0.969071	0.582714	8
H	-1.855561	-0.148709	1.435754	1
H	-1.785471	-1.750689	0.691474	1
H	-1.844571	-0.305819	-0.325456	1
H	0.444299	-1.103839	1.555484	1
H	0.341769	-1.094329	-1.510986	1
H	0.365679	-2.524129	-0.471646	1
H	1.768909	-1.450229	-0.529336	1
H	0.578629	1.212281	-1.732036	1
H	0.514779	2.792201	-0.909276	1
H	-0.933581	1.753271	-0.920596	1
Es	0.812764	0.950708	0.620427	99
Es	-0.232195	1.657973	1.592606	99
Es	-0.658580	-0.666793	0.600048	99
Es	0.048839	1.727992	1.716330	99
Es	2.158603	0.969068	0.582710	99
Es	0.367603	0.129959	0.594748	99
Es	-0.568084	1.744036	-0.899742	99
Es	0.674563	-1.475548	-0.540653	99
Es	2.150681	0.797836	0.318547	99
Es	0.438903	1.383872	-1.439843	99
Es	0.090189	-0.668164	0.612798	99
Es	0.399200	1.405733	-0.200344	99
Es	0.440110	-1.208319	-1.193884	99
Es	-1.433290	-0.717550	0.601272	99
Es	-1.700910	-0.436935	-0.033362	99
Es	0.398801	2.427595	-0.882616	99
Es	0.156352	1.760155	-0.889091	99
Es	0.709749	1.023962	0.633088	99
Es	0.176052	1.551802	1.892759	99
Es	0.385022	-1.042153	0.034658	99
Es	0.307816	1.457128	1.317355	99
Es	1.612324	0.984508	0.615690	99
Es	2.142100	1.254636	0.569795	99
Es	-1.655226	-1.417643	0.656870	99
Es	0.454071	-2.176023	-0.484379	99
Es	-1.714495	-0.337196	1.159668	99
Es	0.658000	1.023741	0.745634	99
Es	0.727582	1.133460	0.595378	99
Es	1.406681	-1.457958	-0.531952	99
Es	0.193138	1.959209	1.626542	99
Es	2.151554	0.850967	0.835158	99
Es	0.334149	-0.934333	1.239390	99
Es	0.640626	0.987919	0.570760	99
50
Properties=species:S:1:pos:R:3:Z:I:1 energy=-704.6430529543828 field_type=dipole dipole="0.000000 0.000000 0.000000" charge=0
C	-1.433361	-0.717549	0.601294	6
C	0.090169	-0.668289	0.612844	6
C	0.674609	-1.475590	-0.540696	6
S	0.709759	1.023961	0.633084	16
C	0.156319	1.760221	-0.889196	6
O	0.048709	1.728170	1.716574	8
O	2.158909	0.969071	0.582714	8
H	-1.855561	-0.148709	1.435754	1
H	-1.785471	-1.750689	0.691474	1
H	-1.844571	-0.305819	-0.325456	1
H	0.444299	-1.103839	1.555484	1
H	0.341769	-1.094329	-1.510986	1
H	0.365679	-2.524129	-0.471646	1
H	1.768909	-1.450229	-0.529336	1
H	0.578629	1.212281	-1.732036	1
H	0.514779	2.792201	-0.909276	1
H	-0.933581	1.753271	-0.920596	1
Es	0.385016	-1.042058	0.034656	99
Es	-1.433288	-0.717549	0.601272	99
Es	0.438884	1.383960	-1.439976	99
Es	0.398672	2.427636	-0.882562	99
Es	-1.700748	-0.436931	-0.033395	99
Es	0.674561	-1.475549	-0.540651	99
Es	1.406510	-1.458006	-0.531986	99
Es	0.186078	1.958070	1.634573	99
Es	0.313309	1.467676	1.312957	99
Es	1.612985	1.000730	0.614158	99
Es	0.666573	1.022421	0.541351	99
Es	2.158653	0.969071	0.582708	99
Es	-1.655219	-1.417694	0.656801	99
Es	0.709874	1.023975	0.633347	99
Es	0.048818	1.728041	1.716379	99
Es	0.831462	1.034392	0.613907	99
Es	2.141312	0.804519	0.312177	99
Es	-1.714484	-0.337028	1.159803	99
Es	0.177394	1.546985	1.891347	99
Es	2.142691	0.832680	0.829332	99
Es	-0.232017	1.653400	1.590257	99
Es	0.454205	-2.176026	-0.484382	99
Es	0.680061	0.918587	0.684230	99
Es	2.159589	1.249957	0.583439	99
Es	-0.567911	1.744047	-0.899784	99
Es	0.334043	-0.934206	1.239500	99
Es	0.660742	1.120363	0.692444	99
Es	0.367539	0.129922	0.594863	99
Es	0.156352	1.760155	-0.889090	99
Es	0.090189	-0.668163	0.612795	99
Es	-0.658628	-0.666864	0.600019	99
Es	0.399208	1.405639	-0.200184	99
Es	0.440266	-1.208506	-1.193941	99
50
Properties=species:S:1:pos:R:3:Z:I:1 energy=-704.6430529543828 field_type=dipole dipole="0.000000 0.000000 0.000000" charge=0
C	-1.433361	-0.717549	0.601294	6
C	0.090169	-0.668289	0.612844	6
C	0.674609	-1.475590	-0.540696	6
S	0.709759	1.023961	0.633084	16
C	0.156319	1.760221	-0.889196	6
O	0.048709	1.728170	1.716574	8
O	2.158909	0.969071	0.582714	8
H	-1.855561	-0.148709	1.435754	1
H	-1.785471	-1.750689	0.691474	1
H	-1.844571	-0.305819	-0.325456	1
H	0.444299	-1.103839	1.555484	1
H	0.341769	-1.094329	-1.510986	1
H	0.365679	-2.524129	-0.471646	1
H	1.768909	-1.450229	-0.529336	1
H	0.578629	1.212281	-1.732036	1
H	0.514779	2.792201	-0.909276	1
H	-0.933581	1.753271	-0.920596	1
Es	0.674562	-1.475546	-0.540650	99
Es	0.303415	1.460345	1.313076	99
Es	0.156352	1.760155	-0.889089	99
Es	1.612249	0.990163	0.608055	99
Es	1.406139	-1.457880	-0.531723	99
Es	-0.235999	1.658205	1.601586	99
Es	0.599505	1.080648	0.659409	99
Es	0.398536	2.427856	-0.882804	99
Es	-1.433288	-0.717549	0.601272	99
Es	0.454328	-2.176335	-0.484229	99
Es	0.090189	-0.668165	0.612798	99
Es	2.158726	0.969088	0.582861	99
Es	0.440362	-1.208272	-1.194290	99
Es	-1.700774	-0.436743	-0.033571	99
Es	0.438674	1.383886	-1.439978	99
Es	2.138343	0.844664	0.832661	99
Es	0.183788	1.549862	1.887411	99
Es	0.691577	0.941920	0.566033	99
Es	0.367539	0.130100	0.594702	99
Es	0.334116	-0.934488	1.239702	99
Es	-1.655139	-1.417883	0.656886	99
Es	0.794313	1.096939	0.580764	99
Es	0.384904	-1.041980	0.034589	99
Es	0.193620	1.957630	1.626923	99
Es	0.709812	1.024071	0.633193	99
Es	2.159640	0.800999	0.315536	99
Es	-0.567596	1.743968	-0.899799	99
Es	2.146251	1.252052	0.582720	99
Es	0.048755	1.728088	1.716515	99
Es	-1.714319	-0.337100	1.159802	99
Es	0.753508	0.976177	0.725926	99
Es	-0.658627	-0.666834	0.600023	99
Es	0.399232	1.405605	-0.199945	99
50
Properties=species:S:1:pos:R:3:Z:I:1 energy=-704.6430529543828 field_type=dipole dipole="0.000000 0.000000 0.000000" charge=0
C	-1.433361	-0.717549	0.601294	6
C	0.090169	-0.668289	0.612844	6
C	0.674609	-1.475590	-0.540696	6
S	0.709759	1.023961	0.633084	16
C	0.156319	1.760221	-0.889196	6
O	0.048709	1.728170	1.716574	8
O	2.158909	0.969071	0.582714	8
H	-1.855561	-0.148709	1.435754	1
H	-1.785471	-1.750689	0.691474	1
H	-1.844571	-0.305819	-0.325456	1
H	0.444299	-1.103839	1.555484	1
H	0.341769	-1.094329	-1.510986	1
H	0.365679	-2.524129	-0.471646	1
H	1.768909	-1.450229	-0.529336	1
H	0.578629	1.212281	-1.732036	1
H	0.514779	2.792201	-0.909276	1
H	-0.933581	1.753271	-0.920596	1
Es	0.440232	-1.208249	-1.194296	99
Es	0.399223	1.405445	-0.199888	99
Es	0.454369	-2.176059	-0.484351	99
Es	0.738070	1.074658	0.713954	99
Es	2.149782	1.255344	0.566737	99
Es	0.709668	1.024049	0.632873	99
Es	0.305804	1.458707	1.313013	99
Es	2.149746	0.789239	0.323227	99
Es	-0.237225	1.659443	1.603700	99
Es	0.384981	-1.042078	0.034674	99
Es	0.156353	1.760155	-0.889090	99
Es	1.613200	0.989859	0.612823	99
Es	2.158621	0.969072	0.582723	99
Es	-1.654972	-1.417676	0.656876	99
Es	-1.714319	-0.337205	1.160010	99
Es	-1.700951	-0.436777	-0.033663	99
Es	0.674563	-1.475547	-0.540653	99
Es	0.090189	-0.668164	0.612798	99
Es	-0.567591	1.744100	-0.899867	99
Es	-0.658626	-0.666688	0.599882	99
Es	0.367407	0.129863	0.594741	99
Es	2.143869	0.853466	0.836313	99
Es	0.048831	1.727990	1.716312	99
Es	-1.433285	-0.717549	0.601273	99
Es	0.183752	1.553729	1.887002	99
Es	0.438775	1.384102	-1.440177	99
Es	1.406212	-1.458073	-0.531842	99
Es	0.334106	-0.934443	1.239863	99
Es	0.398435	2.427645	-0.882609	99
Es	0.672108	1.107694	0.556980	99
Es	0.617178	0.953628	0.669867	99
Es	0.811708	0.959734	0.591595	99
Es	0.192482	1.954233	1.625571	99
50
Properties=species:S:1:pos:R:3:Z:I:1 energy=-704.6430529543828 field_type=dipole dipole="0.000000 0.000000 0.000000" charge=0
C	-1.433361	-0.717549	0.601294	6
C	0.090169	-0.668289	0.612844	6
C	0.674609	-1.475590	-0.540696	6
S	0.709759	1.023961	0.633084	16
C	0.156319	1.760221	-0.889196	6
O	0.048709	1.728170	1.716574	8
O	2.158909	0.969071	0.582714	8
H	-1.855561	-0.148709	1.435754	1
H	-1.785471	-1.750689	0.691474	1
H	-1.844571	-0.305819	-0.325456	1
H	0.444299	-1.103839	1.555484	1
H	0.341769	-1.094329	-1.510986	1
H	0.365679	-2.524129	-0.471646	1
H	1.768909	-1.450229	-0.529336	1
H	0.578629	1.212281	-1.732036	1
H	0.514779	2.792201	-0.909276	1
H	-0.933581	1.753271	-0.920596	1
Es	0.803090	1.077769	0.576283	99
Es	0.454512	-2.176179	-0.484330	99
Es	0.399134	1.405587	-0.199715	99
Es	-0.658592	-0.666858	0.599945	99
Es	0.194264	1.553052	1.876283	99
Es	0.398411	2.427756	-0.882717	99
Es	2.158531	0.969063	0.582646	99
Es	0.709878	1.024064	0.633088	99
Es	0.048777	1.727921	1.716200	99
Es	0.440397	-1.208282	-1.194454	99
Es	0.156351	1.760155	-0.889089	99
Es	0.726554	0.903754	0.645146	99
Es	-1.714347	-0.337070	1.160013	99
Es	-1.433288	-0.717549	0.601272	99
Es	2.130023	0.795361	0.318517	99