45
Properties=species:S:1:pos:R:3:Z:I:1 energy=-739.2940932049956 field_type=dipole dipole="0.000000 0.000000 0.000000" charge=0
C	-1.667399	-0.248639	-0.253973	6
C	-0.232689	-0.328489	0.149167	6
C	0.378521	-1.465409	0.525637	6
S	0.686221	1.153971	0.130027	16
O	1.717711	0.816171	-1.063523	8
O	-0.130739	2.258992	-0.319823	8
O	1.507571	1.261861	1.316807	8
H	-2.213929	0.432851	0.405877	1
H	-2.159599	-1.225579	-0.201593	1
H	-1.757779	0.113311	-1.283113	1
H	-0.155719	-2.409778	0.553597	1
H	1.424891	-1.483459	0.818607	1
H	2.602941	1.124192	-0.777693	1
Es	1.279948	1.313570	1.488037	99
Es	0.098973	2.439101	-0.313250	99
Es	1.613330	0.966941	-1.291989	99
Es	0.378550	-1.465452	0.525649	99
Es	1.074626	-1.480851	0.718123	99
Es	-2.018728	0.204249	0.192278	99
Es	1.178668	1.220278	0.893430	99
Es	1.641262	1.485214	1.153581	99
Es	0.188535	1.856041	-0.165263	99
Es	-1.713800	-0.009914	-0.938445	99
Es	-0.015005	-0.792518	0.637089	99
Es	-1.667299	-0.248655	-0.253943	99
Es	0.731032	1.201810	0.030860	99
Es	0.773732	1.138022	0.212102	99
Es	-0.923348	-0.273772	-0.049376	99
Es	1.391375	0.944030	-0.652843	99
Es	-0.211460	2.083709	-0.553069	99
Es	-0.273594	2.186683	-0.053920	99
Es	0.686141	1.153959	0.129926	99
Es	-1.980885	-0.914970	-0.212273	99
Es	1.507354	1.261818	1.316537	99
Es	-0.130587	2.258768	-0.319737	99
Es	0.599698	1.223983	0.173544	99
Es	-0.232648	-0.328271	0.149123	99
Es	1.717770	0.816334	-1.063221	99
Es	0.640780	1.051851	0.103268	99
Es	1.599662	0.976806	1.248421	99
Es	1.717708	0.529578	-1.040256	99
Es	0.019981	-2.094121	0.542303	99
Es	2.159131	0.989590	-0.894898	99
Es	0.154550	-0.903436	0.023647	99
Es	0.189716	0.368492	0.136227	99
45
Properties=species:S:1:pos:R:3:Z:I:1 energy=-739.2940932049956 field_type=dipole dipole="0.000000 0.000000 0.000000" charge=0
C	-1.667399	-0.248639	-0.253973	6
C	-0.232689	-0.328489	0.149167	6
C	0.378521	-1.465409	0.525637	6
S	0.686221	1.153971	0.130027	16
O	1.717711	0.816171	-1.063523	8
O	-0.130739	2.258992	-0.319823	8
O	1.507571	1.261861	1.316807	8
H	-2.213929	0.432851	0.405877	1
H	-2.159599	-1.225579	-0.201593	1
H	-1.757779	0.113311	-1.283113	1
H	-0.155719	-2.409778	0.553597	1
H	1.424891	-1.483459	0.818607	1
H	2.602941	1.124192	-0.777693	1
Es	1.507440	1.261839	1.316586	99
Es	1.176806	1.221085	0.889838	99
Es	0.626259	1.251187	0.168645	99
Es	0.378548	-1.465452	0.525651	99
Es	0.212478	1.856183	-0.177882	99
Es	2.156504	0.983800	-0.890273	99
Es	-1.667302	-0.248654	-0.253943	99
Es	0.628911	1.106931	0.041793	99
Es	-1.980952	-0.913811	-0.212188	99
Es	1.712399	0.522955	-1.036832	99
Es	-2.018822	0.203533	0.191782	99
Es	1.075175	-1.481408	0.719048	99
Es	0.686284	1.154644	0.130410	99
Es	-0.230688	2.149578	-0.066437	99
Es	-0.240850	2.091628	-0.541895	99
Es	0.155068	-0.903316	0.022913	99
Es	0.061483	2.468323	-0.299393	99
Es	1.717757	0.816338	-1.063198	99
Es	-0.922949	-0.274033	-0.049556	99
Es	-0.015388	-0.792928	0.637607	99
Es	0.020427	-2.092840	0.542370	99
Es	0.706847	1.069275	0.220257	99
Es	-0.232653	-0.328261	0.149137	99
Es	-1.714487	-0.009813	-0.938772	99
Es	1.623639	0.964171	1.290488	99
Es	0.189297	0.367643	0.136399	99
Es	0.783075	1.187694	0.088578	99
Es	1.281067	1.332142	1.450953	99
Es	1.614307	0.974941	-1.295926	99
Es	1.617934	1.478238	1.152007	99
Es	1.398186	0.948444	-0.656764	99
Es	-0.130633	2.258812	-0.319744	99
45
Properties=species:S:1:pos:R:3:Z:I:1 energy=-739.2940932049956 field_type=dipole dipole="0.000000 0.000000 0.000000" charge=0
C	-1.667399	-0.248639	-0.253973	6
C	-0.232689	-0.328489	0.149167	6
C	0.378521	-1.465409	0.525637	6
S	0.686221	1.153971	0.130027	16
O	1.717711	0.816171	-1.063523	8
O	-0.130739	2.258992	-0.319823	8
O	1.507571	1.261861	1.316807	8
H	-2.213929	0.432851	0.405877	1
H	-2.159599	-1.225579	-0.201593	1
H	-1.757779	0.113311	-1.283113	1
H	-0.155719	-2.409778	0.553597	1
H	1.424891	-1.483459	0.818607	1
H	2.602941	1.124192	-0.777693	1
Es	0.573589	1.155069	0.085529	99
Es	-0.232652	-0.328264	0.149128	99
Es	0.755247	1.074722	0.070804	99
Es	0.020537	-2.092747	0.542289	99
Es	-1.981126	-0.914115	-0.212389	99
Es	1.614348	1.475312	1.150346	99
Es	0.157263	1.802396	-0.221300	99
Es	-2.018749	0.203725	0.191735	99
Es	1.507443	1.261834	1.316592	99
Es	1.615999	0.976747	-1.297355	99
Es	1.625265	0.958250	1.294141	99
Es	1.170697	1.227941	0.895007	99
Es	0.126070	2.372825	-0.257195	99
Es	-0.312689	2.233293	-0.539220	99
Es	1.400760	0.952305	-0.660009	99
Es	0.189298	0.367553	0.136528	99
Es	0.378549	-1.465453	0.525647	99
Es	-0.015517	-0.792946	0.638031	99
Es	-0.922941	-0.273722	-0.049507	99
Es	1.075038	-1.481639	0.718987	99
Es	-1.667297	-0.248655	-0.253943	99
Es	1.712330	0.516556	-1.033181	99
Es	2.152171	0.984474	-0.889165	99
Es	1.717767	0.816367	-1.063208	99
Es	0.681830	1.123468	0.239038	99
Es	-0.130559	2.258698	-0.319730	99
Es	0.155290	-0.903532	0.022366	99
Es	-0.168202	2.157475	-0.067932	99
Es	0.686251	1.153898	0.130261	99
Es	0.734456	1.262555	0.124044	99
Es	1.288930	1.334126	1.443777	99
Es	-1.714227	-0.009653	-0.938455	99
45
Properties=species:S:1:pos:R:3:Z:I:1 energy=-739.2940932049956 field_type=dipole dipole="0.000000 0.000000 0.000000" charge=0
C	-1.667399	-0.248639	-0.253973	6
C	-0.232689	-0.328489	0.149167	6
C	0.378521	-1.465409	0.525637	6
S	0.686221	1.153971	0.130027	16
O	1.717711	0.816171	-1.063523	8
O	-0.130739	2.258992	-0.319823	8
O	1.507571	1.261861	1.316807	8
H	-2.213929	0.432851	0.405877	1
H	-2.159599	-1.225579	-0.201593	1
H	-1.757779	0.113311	-1.283113	1
H	-0.155719	-2.409778	0.553597	1
H	1.424891	-1.483459	0.818607	1
H	2.602941	1.124192	-0.777693	1
Es	0.378552	-1.465450	0.525648	99
Es	1.402058	0.950873	-0.659430	99
Es	-1.667302	-0.248654	-0.253945	99
Es	1.717740	0.816302	-1.063225	99
Es	0.629649	1.267834	0.106989	99
Es	-0.922604	-0.274175	-0.049769	99
Es	-0.099154	2.533958	-0.348997	99
Es	-1.981051	-0.912705	-0.212390	99
Es	1.277763	1.323905	1.425191	99
Es	0.686349	1.154010	0.129938	99
Es	1.707613	0.522496	-1.033281	99
Es	1.615031	0.978307	-1.299353	99
Es	0.155290	-0.903392	0.022513	99
Es	-0.232655	-0.328252	0.149137	99
Es	-0.015709	-0.793069	0.637975	99
Es	0.807776	1.156318	0.148449	99
Es	0.641629	1.107610	0.215513	99
Es	-0.193978	2.098920	-0.117024	99
Es	2.156595	0.978517	-0.887570	99
Es	-1.715070	-0.009523	-0.938947	99
Es	-2.018835	0.202811	0.191624	99
Es	0.665886	1.083988	0.048845	99
Es	-0.130364	2.258761	-0.319695	99
Es	1.639725	0.967028	1.310994	99
Es	-0.164872	2.007570	-0.478034	99
Es	1.600810	1.478545	1.166632	99
Es	1.181287	1.226082	0.880445	99
Es	1.507406	1.261833	1.316538	99
Es	0.260145	1.925330	-0.141831	99
Es	1.075790	-1.482198	0.719822	99
Es	0.020566	-2.091415	0.542337	99
Es	0.189101	0.366699	0.136564	99
45
Properties=species:S:1:pos:R:3:Z:I:1 energy=-739.2940932049956 field_type=dipole dipole="0.000000 0.000000 0.000000" charge=0
C	-1.667399	-0.248639	-0.253973	6
C	-0.232689	-0.328489	0.149167	6
C	0.378521	-1.465409	0.525637	6
S	0.686221	1.153971	0.130027	16
O	1.717711	0.816171	-1.063523	8
O	-0.130739	2.258992	-0.319823	8
O	1.507571	1.261861	1.316807	8
H	-2.213929	0.432851	0.405877	1
H	-2.159599	-1.225579	-0.201593	1
H	-1.757779	0.113311	-1.283113	1
H	-0.155719	-2.409778	0.553597	1
H	1.424891	-1.483459	0.818607	1
H	2.602941	1.124192	-0.777693	1
Es	1.612369	0.981390	-1.296373	99
Es	1.406605	0.950273	-0.663436	99
Es	0.572948	1.153519	0.151031	99
Es	1.707222	0.515534	-1.032657	99
Es	0.378550	-1.465452	0.525652	99
Es	1.633223	0.961630	1.309185	99
Es	1.287628	1.290208	1.388927	99
Es	-1.667300	-0.248654	-0.253944	99
Es	0.189517	0.367492	0.137209	99
Es	-0.130607	2.258579	-0.319698	99
Es	-1.981800	-0.913840	-0.212422	99
Es	-0.337351	2.430878	-0.247974	99
Es	0.020143	-2.092221	0.542034	99
Es	0.713413	1.244054	0.051575	99
Es	-1.715094	-0.008930	-0.938175	99
Es	-2.018231	0.202515	0.190798	99
Es	2.154914	0.982959	-0.887020	99
Es	1.603801	1.507355	1.203778	99
Es	0.155303	-0.902620	0.023880	99
Es	-0.922387	-0.273890	-0.050070	99
Es	1.717760	0.816291	-1.063270	99
Es	1.075649	-1.481621	0.720018	99
Es	-0.090416	2.019338	-0.482875	99
Es	0.126839	2.252357	-0.327145	99
Es	1.507397	1.261818	1.316541	99
Es	0.103373	1.863374	-0.028097	99
Es	-0.232654	-0.328261	0.149132	99
Es	1.174958	1.236463	0.881419	99
Es	0.738035	1.173071	0.227539	99
Es	0.686330	1.154419	0.130805	99
Es	0.720611	1.044696	0.088782	99
Es	-0.015583	-0.793858	0.636513	99
45
Properties=species:S:1:pos:R:3:Z:I:1 energy=-739.2940932049956 field_type=dipole dipole="0.000000 0.000000 0.000000" charge=0
C	-1.667399	-0.248639	-0.253973	6
C	-0.232689	-0.328489	0.149167	6
C	0.378521	-1.465409	0.525637	6
S	0.686221	1.153971	0.130027	16
O	1.717711	0.816171	-1.063523	8
O	-0.130739	2.258992	-0.319823	8
O	1.507571	1.261861	1.316807	8
H	-2.213929	0.432851	0.405877	1
H	-2.159599	-1.225579	-0.201593	1
H	-1.757779	0.113311	-1.283113	1
H	-0.155719	-2.409778	0.553597	1
H	1.424891	-1.483459	0.818607	1
H	2.602941	1.124192	-0.777693	1
Es	0.189602	0.367372	0.136632	99
Es	0.020115	-2.092223	0.542422	99
Es	0.111527	1.868706	-0.026246	99
Es	-0.922387	-0.273877	-0.050013	99
Es	0.155071	-0.902919	0.023788	99
Es	-0.322180	2.447398	-0.246668	99
Es	0.669855	1.150378	0.152115	99
Es	-1.981859	-0.913739	-0.212135	99
Es	0.123336	2.235607	-0.344540	99
Es	-0.015490	-0.793555	0.636872	99
Es	1.171479	1.233221	0.885487	99
Es	0.378548	-1.465452	0.525650	99
Es	-0.110313	2.014138	-0.468761	99
Es	1.289335	1.296862	1.396038	99
Es	1.706669	0.517828	-1.030741	99
Es	2.155540	0.981184	-0.887037	99
Es	0.658205	1.282351	0.116131	99
Es	1.507409	1.261832	1.316550	99
Es	1.075565	-1.481563	0.720026	99
Es	-1.667299	-0.248655	-0.253943	99
Es	-0.232653	-0.328262	0.149130	99
Es	1.604867	1.503652	1.192295	99
Es	0.682588	1.152949	0.134533	99
Es	0.794527	1.101256	0.185982	99
Es	1.404991	0.952288	-0.663044	99
Es	0.626173	1.082820	0.060945	99
Es	1.613967	0.978875	-1.298758	99
Es	-0.130515	2.258693	-0.319584	99
Es	1.633868	0.961799	1.309442	99
Es	-1.715259	-0.008716	-0.938528	99
Es	1.717787	0.816337	-1.063181	99
Es	-2.017902	0.202280	0.190802	99
45
Properties=species:S:1:pos:R:3:Z:I:1 energy=-739.2940932049956 field_type=dipole dipole="0.000000 0.000000 0.000000" charge=0
C	-1.667399	-0.248639	-0.253973	6
C	-0.232689	-0.328489	0.149167	6
C	0.378521	-1.465409	0.525637	6
S	0.686221	1.153971	0.130027	16
O	1.717711	0.816171	-1.063523	8
O	-0.130739	2.258992	-0.319823	8
O	1.507571	1.261861	1.316807	8
H	-2.213929	0.432851	0.405877	1
H	-2.159599	-1.225579	-0.201593	1
H	-1.757779	0.113311	-1.283113	1
H	-0.155719	-2.409778	0.553597	1
H	1.424891	-1.483459	0.818607	1
H	2.602941	1.124192	-0.777693	1
Es	-0.922326	-0.273968	-0.050145	99
Es	-1.714840	-0.009177	-0.938220	99
Es	-2.018188	0.202883	0.190649	99
Es	1.406667	0.955046	-0.666192	99
Es	1.603608	1.507992	1.201795	99
Es	-0.130601	2.258659	-0.319562	99
Es	0.770526	1.097289	0.215815	99
Es	0.650047	1.086768	0.041196	99
Es	-0.232652	-0.328261	0.149124	99
Es	-0.349974	2.424168	-0.268665	99
Es	1.172705	1.236380	0.884227	99
Es	-1.667300	-0.248653	-0.253943	99
Es	1.289448	1.290315	1.389689	99
Es	1.705765	0.515170	-1.026293	99
Es	1.717800	0.816314	-1.063240	99
Es	-0.015877	-0.793496	0.636698	99
Es	0.633995	1.275927	0.135752	99
Es	1.507436	1.261835	1.316598	99
Es	1.633764	0.960861	1.307524	99
Es	0.020206	-2.092432	0.541938	99
Es	0.378548	-1.465452	0.525650	99
Es	0.688597	1.154898	0.128226	99
Es	1.613791	0.976997	-1.299830	99
Es	-0.071705	2.029670	-0.469612	99
Es	2.154813	0.982924	-0.887202	99
Es	0.126877	2.256789	-0.316334	99
Es	1.075490	-1.481534	0.719968	99
Es	0.189444	0.367611	0.137278	99
Es	0.688155	1.154926	0.128700	99
Es	0.097289	1.855305	-0.031599	99
Es	-1.981931	-0.913913	-0.212235	99
Es	0.155590	-0.902977	0.023906	99
45
Properties=species:S:1:pos:R:3:Z:I:1 energy=-739.2940932049956 field_type=dipole dipole="0.000000 0.000000 0.000000" charge=0
C	-1.667399	-0.248639	-0.253973	6
C	-0.232689	-0.328489	0.149167	6
C	0.378521	-1.465409	0.525637	6
S	0.686221	1.153971	0.130027	16
O	1.717711	0.816171	-1.063523	8
O	-0.130739	2.258992	-0.319823	8
O	1.507571	1.261861	1.316807	8
H	-2.213929	0.432851	0.405877	1
H	-2.159599	-1.225579	-0.201593	1
H	-1.757779	0.113311	-1.283113	1
H	-0.155719	-2.409778	0.553597	1
H	1.424891	-1.483459	0.818607	1
H	2.602941	1.124192	-0.777693	1
Es	-1.714441	-0.009545	-0.938436	99
Es	2.149802	0.981671	-0.886642	99
Es	-1.667300	-0.248654	-0.253943	99
Es	0.684390	1.153408	0.132048	99
Es	-0.015626	-0.792631	0.638352	99
Es	1.617748	0.985241	-1.293785	99
Es	1.507406	1.261843	1.316579	99
Es	1.403180	0.950646	-0.660635	99
Es	0.155423	-0.903889	0.022363	99
Es	-0.124906	2.147695	-0.096733	99
Es	0.639649	1.279187	0.114385	99
Es	1.632909	0.957379	1.297435	99
Es	-0.328258	2.333935	-0.506887	99
Es	1.175421	1.239700	0.886982	99
Es	1.075208	-1.481959	0.719000	99
Es	0.378548	-1.465451	0.525649	99
Es	1.717764	0.816359	-1.063205	99
Es	1.710423	0.512542	-1.038578	99
Es	1.606735	1.486629	1.177843	99
Es	1.284209	1.311808	1.420936	99
Es	-1.981224	-0.913738	-0.212462	99
Es	0.783614	1.108200	0.207557	99
Es	0.684767	1.153655	0.131469	99
Es	-0.232653	-0.328262	0.149129	99
Es	0.133388	1.785220	-0.234896	99
Es	0.638919	1.075326	0.064265	99
Es	-0.922786	-0.273918	-0.049599	99
Es	0.122240	2.299238	-0.247204	99
Es	-0.130546	2.258666	-0.319742	99
Es	0.020626	-2.092345	0.542224	99
Es	0.189209	0.367312	0.136449	99
Es	-2.018670	0.203599	0.191744	99
45
Properties=species:S:1:pos:R:3:Z:I:1 energy=-739.2940932049956 field_type=dipole dipole="0.000000 0.000000 0.000000" charge=0
C	-1.667399	-0.248639	-0.253973	6
C	-0.232689	-0.328489	0.149167	6
C	0.378521	-1.465409	0.525637	6
S	0.686221	1.153971	0.130027	16
O	1.717711	0.816171	-1.063523	8
O	-0.130739	2.258992	-0.319823	8
O	1.507571	1.261861	1.316807	8
H	-2.213929	0.432851	0.405877	1
H	-2.159599	-1.225579	-0.201593	1
H	-1.757779	0.113311	-1.283113	1
H	-0.155719	-2.409778	0.553597	1
H	1.424891	-1.483459	0.818607	1
H	2.602941	1.124192	-0.777693	1
Es	-1.714220	-0.009899	-0.938270	99
Es	1.605973	1.486122	1.188789	99
Es	-2.019021	0.203882	0.191587	99
Es	-0.123352	2.137327	-0.119605	99
Es	2.149631	0.983157	-0.887819	99
Es	-0.327885	2.339310	-0.505035	99
Es	0.722403	1.140657	0.243996	99
Es	-0.922822	-0.273721	-0.049502	99
Es	0.155657	-0.903759	0.022228	99
Es	-0.015791	-0.792859	0.638186	99
Es	0.020693	-2.092232	0.541896	99
Es	1.507431	1.261834	1.316582	99
Es	1.709514	0.510793	-1.032450	99
Es	1.075291	-1.482080	0.719059	99
Es	0.378548	-1.465452	0.525654	99
Es	0.686220	1.153953	0.130008	99
Es	-0.130544	2.258588	-0.319767	99
Es	1.283457	1.305626	1.416337	99
Es	0.139981	1.786380	-0.230225	99
Es	0.628974	1.063155	0.101943	99
Es	1.177316	1.247695	0.882890	99
Es	0.189109	0.367279	0.136931	99
Es	0.113699	2.303156	-0.230828	99
Es	1.617144	0.981635	-1.296126	99
Es	1.404785	0.954456	-0.663265	99
Es	0.622535	1.265500	0.100565	99
Es	-0.232654	-0.328259	0.149136	99
Es	0.771201	1.146526	0.073229	99
Es	1.717786	0.816383	-1.063137	99
Es	1.632534	0.956123	1.295164	99
Es	-1.667300	-0.248653	-0.253944	99
Es	-1.981125	-0.913759	-0.212545	99
45
Properties=species:S:1:pos:R:3:Z:I:1 energy=-739.2940932049956 field_type=dipole dipole="0.000000 0.000000 0.000000" charge=0
C	-1.667399	-0.248639	-0.253973	6
C	-0.232689	-0.328489	0.149167	6
C	0.378521	-1.465409	0.525637	6
S	0.686221	1.153971	0.130027	16
O	1.717711	0.816171	-1.063523	8
O	-0.130739	2.258992	-0.319823	8
O	1.507571	1.261861	1.316807	8
H	-2.213929	0.432851	0.405877	1
H	-2.159599	-1.225579	-0.201593	1
H	-1.757779	0.113311	-1.283113	1
H	-0.155719	-2.409778	0.553597	1
H	1.424891	-1.483459	0.818607	1
H	2.602941	1.124192	-0.777693	1
Es	0.155400	-0.903291	0.022270	99
Es	1.717773	0.816300	-1.063252	99
Es	-0.130449	2.258735	-0.319703	99
Es	0.189069	0.366403	0.136782	99
Es	1.075898	-1.482458	0.720014	99
Es	0.686268	1.154005	0.129865	99
Es	0.585969	1.178678	0.052012	99
Es	0.259012	1.924733	-0.127242	99
Es	0.661674	1.184614	0.218049	99
Es	-0.015685	-0.793321	0.638065	99
Es	1.164530	1.243325	0.889395	99
Es	0.740135	1.034028	0.140900	99
Es	-1.715247	-0.009337	-0.938955	99
Es	-0.232654	-0.328260	0.149134	99
Es	-1.981227	-0.912527	-0.212341	99
Es	1.613587	0.981272	-1.299552	99
Es	-0.155889	2.534691	-0.356643	99
Es	-1.667301	-0.248654	-0.253944	99
Es	1.706639	0.519286	-1.031680	99
Es	-0.922521	-0.273958	-0.049695	99
Es	0.020578	-2.091061	0.542286	99
Es	-0.162738	2.095631	-0.152205	99
Es	1.602865	1.472249	1.168290	99
Es	1.297289	1.321481	1.420397	99
Es	0.378549	-1.465452	0.525649	99
Es	-0.138185	2.010783	-0.449886	99
Es	1.634825	0.958410	1.305049	99
Es	2.155154	0.978674	-0.887166	99
Es	1.507439	1.261883	1.316609	99
Es	0.757276	1.218458	0.108893	99
Es	1.405782	0.950975	-0.661113	99
Es	-2.018648	0.202567	0.191379	99
45
Properties=species:S:1:pos:R:3:Z:I:1 energy=-739.2940932049956 field_type=dipole dipole="0.000000 0.000000 0.000000" charge=0
C	-1.667399	-0.248639	-0.253973	6
C	-0.232689	-0.328489	0.149167	6
C	0.378521	-1.465409	0.525637	6
S	0.686221	1.153971	0.130027	16
O	1.717711	0.816171	-1.063523	8
O	-0.130739	2.258992	-0.319823	8
O	1.507571	1.261861	1.316807	8
H	-2.213929	0.432851	0.405877	1
H	-2.159599	-1.225579	-0.201593	1
H	-1.757779	0.113311	-1.283113	1
H	-0.155719	-2.409778	0.553597	1
H	1.424891	-1.483459	0.818607	1
H	2.602941	1.124192	-0.777693	1
Es	1.605957	1.485343	1.187418	99
Es	-1.981181	-0.913553	-0.212591	99
Es	0.662586	1.177374	0.220224	99
Es	-2.018927	0.203807	0.191685	99
Es	0.155996	-0.903419	0.021807	99
Es	1.614257	0.982340	-1.296245	99
Es	-1.714277	-0.009793	-0.938365	99
Es	1.632234	0.955729	1.296916	99
Es	-0.015896	-0.793188	0.638326	99
Es	1.717755	0.816311	-1.063264	99
Es	1.174183	1.248148	0.884468	99
Es	0.134820	1.784427	-0.232156	99
Es	1.075204	-1.482273	0.719309	99
Es	1.710467	0.510300	-1.031463	99
Es	-0.232655	-0.328256	0.149137	99
Es	1.286900	1.306411	1.414464	99
Es	-1.667300	-0.248654	-0.253944	99
Es	-0.922732	-0.273913	-0.049650	99
Es	2.149227	0.984308	-0.889258	99
Es	0.686213	1.153973	0.130085	99
Es	-0.119736	2.141267	-0.113833	99
Es	0.724138	1.028333	0.129376	99
Es	0.020702	-2.092057	0.541779	99
Es	-0.329340	2.344905	-0.500443	99
Es	1.407092	0.953137	-0.662552	99
Es	0.593646	1.202089	0.050673	99
Es	0.764720	1.207995	0.119382	99
Es	0.116702	2.295506	-0.239334	99
Es	0.188972	0.367220	0.137256	99
Es	1.507416	1.261836	1.316531	99
Es	-0.130525	2.258667	-0.319726	99
Es	0.378549	-1.465454	0.525649	99
45
Properties=species:S:1:pos:R:3:Z:I:1 energy=-739.2940932049956 field_type=dipole dipole="0.000000 0.000000 0.000000" charge=0
C	-1.667399	-0.248639	-0.253973	6
C	-0.232689	-0.328489	0.149167	6
C	0.378521	-1.465409	0.525637	6
S	0.686221	1.153971	0.130027	16
O	1.717711	0.816171	-1.063523	8
O	-0.130739	2.258992	-0.319823	8
O	1.507571	1.261861	1.316807	8
H	-2.213929	0.432851	0.405877	1
H	-2.159599	-1.225579	-0.201593	1
H	-1.757779	0.113311	-1.283113	1
H	-0.155719	-2.409778	0.553597	1
H	1.424891	-1.483459	0.818607	1
H	2.602941	1.124192	-0.777693	1
Es	1.705739	0.518930	-1.033432	99
Es	0.257099	1.921709	-0.125573	99
Es	1.717764	0.816382	-1.063192	99
Es	1.601698	1.476677	1.181912	99
Es	0.686093	1.153573	0.129553	99
Es	0.020511	-2.090932	0.542226	99
Es	1.406219	0.950158	-0.661374	99
Es	-0.156989	2.534832	-0.357005	99
Es	1.075974	-1.482607	0.719995	99
Es	0.750673	1.099992	0.230203	99
Es	0.378550	-1.465453	0.525645	99
Es	0.588227	1.239428	0.145418	99
Es	-0.130419	2.258741	-0.319687	99
Es	2.155603	0.978084	-0.886535	99
Es	1.635646	0.956882	1.300177	99
Es	1.295729	1.310525	1.414291	99
Es	-0.015554	-0.793336	0.638008	99
Es	-1.715213	-0.009519	-0.938806	99
Es	-2.018644	0.202807	0.191306	99
Es	-1.667300	-0.248654	-0.253944	99
Es	-1.981366	-0.912470	-0.212316	99
Es	-0.232648	-0.328265	0.149116	99
Es	0.189079	0.366522	0.136660	99
Es	0.155298	-0.903236	0.022446	99
Es	0.750353	1.195219	0.075313	99
Es	1.613591	0.982948	-1.298228	99
Es	-0.156413	2.099236	-0.156079	99
Es	1.507372	1.261853	1.316523	99
Es	1.166517	1.251358	0.886785	99
Es	-0.141501	2.010089	-0.447324	99
Es	-0.922488	-0.274192	-0.049696	99
Es	0.655969	1.081584	0.069273	99
45
Properties=species:S:1:pos:R:3:Z:I:1 energy=-739.2940932049956 field_type=dipole dipole="0.000000 0.000000 0.000000" charge=0
C	-1.667399	-0.248639	-0.253973	6
C	-0.232689	-0.328489	0.149167	6
C	0.378521	-1.465409	0.525637	6
S	0.686221	1.153971	0.130027	16
O	1.717711	0.816171	-1.063523	8
O	-0.130739	2.258992	-0.319823	8
O	1.507571	1.261861	1.316807	8
H	-2.213929	0.432851	0.405877	1
H	-2.159599	-1.225579	-0.201593	1
H	-1.757779	0.113311	-1.283113	1
H	-0.155719	-2.409778	0.553597	1
H	1.424891	-1.483459	0.818607	1
H	2.602941	1.124192	-0.777693	1
Es	1.717766	0.816320	-1.063224	99
Es	1.180286	1.244817	0.880110	99
Es	-0.922699	-0.273869	-0.049669	99
Es	-0.130147	2.258476	-0.319974	99
Es	0.188885	0.367121	0.137621	99
Es	1.405367	0.953349	-0.662994	99
Es	0.767115	1.209239	0.135415	99
Es	0.686920	1.154204	0.129630	99
Es	0.655971	1.162966	0.216839	99
Es	1.075290	-1.482251	0.719277	99
Es	-1.981025	-0.913385	-0.212633	99
Es	1.617112	0.983546	-1.296447	99
Es	2.150405	0.981071	-0.886698	99
Es	1.603295	1.487650	1.190539	99
Es	-0.331092	2.350466	-0.495395	99
Es	1.633952	0.957643	1.305538	99
Es	1.507370	1.261810	1.316616	99
Es	0.156204	-0.903446	0.021756	99
Es	1.708111	0.512085	-1.033392	99
Es	-0.016109	-0.793232	0.638266	99
Es	1.281793	1.305574	1.407002	99
Es	-2.019168	0.203949	0.191727	99
Es	0.599154	1.214927	0.052907	99
Es	-1.714295	-0.010048	-0.938313	99
Es	-0.232654	-0.328259	0.149134	99
Es	0.378548	-1.465452	0.525651	99
Es	-0.113894	2.144645	-0.119468	99
Es	0.117273	2.289366	-0.244464	99
Es	0.722111	1.028468	0.114942	99
Es	-1.667301	-0.248654	-0.253944	99
Es	0.129763	1.781818	-0.226182	99
Es	0.020859	-2.092048	0.541490	99
45
Properties=species:S:1:pos:R:3:Z:I:1 energy=-739.2940932049956 field_type=dipole dipole="0.000000 0.000000 0.000000" charge=0
C	-1.667399	-0.248639	-0.253973	6
C	-0.232689	-0.328489	0.149167	6
C	0.378521	-1.465409	0.525637	6
S	0.686221	1.153971	0.130027	16
O	1.717711	0.816171	-1.063523	8
O	-0.130739	2.258992	-0.319823	8
O	1.507571	1.261861	1.316807	8
H	-2.213929	0.432851	0.405877	1
H	-2.159599	-1.225579	-0.201593	1
H	-1.757779	0.113311	-1.283113	1
H	-0.155719	-2.409778	0.553597	1
H	1.424891	-1.483459	0.818607	1
H	2.602941	1.124192	-0.777693	1
Es	0.685454	1.153869	0.131699	99
Es	1.294512	1.318376	1.421763	99
Es	-0.159058	2.533411	-0.363620	99
Es	1.075863	-1.482723	0.720095	99
Es	-0.130374	2.258817	-0.319677	99
Es	1.640723	0.960931	1.302609	99
Es	0.378548	-1.465453	0.525650	99
Es	0.255670	1.921006	-0.122166	99
Es	1.166892	1.244654	0.886700	99
Es	-0.132400	2.013685	-0.443312	99
Es	2.154539	0.977535	-0.885763	99
Es	0.188969	0.366167	0.136580	99
Es	1.615250	0.981062	-1.301108	99
Es	0.779827	1.207376	0.176661	99
Es	0.020780	-2.090709	0.542319	99
Es	0.686824	1.154061	0.128747	99
Es	-2.018788	0.202407	0.191641	99
Es	1.717853	0.816312	-1.063253	99
Es	1.404843	0.951609	-0.661837	99
Es	0.155400	-0.903380	0.021874	99
Es	1.706441	0.520005	-1.030810	99
Es	0.584404	1.231253	0.089048	99
Es	-0.015791	-0.793207	0.638706	99
Es	-1.980935	-0.912145	-0.212372	99
Es	-1.667302	-0.248654	-0.253944	99
Es	-0.922512	-0.274039	-0.049703	99
Es	-1.715376	-0.009333	-0.939232	99
Es	1.507434	1.261839	1.316582	99
Es	-0.232653	-0.328262	0.149134	99
Es	1.597359	1.471503	1.172073	99
Es	0.694812	1.023205	0.123523	99
Es	-0.162043	2.097686	-0.156945	99
45
Properties=species:S:1:pos:R:3:Z:I:1 energy=-739.2940932049956 field_type=dipole dipole="0.000000 0.000000 0.000000" charge=0
C	-1.667399	-0.248639	-0.253973	6
C	-0.232689	-0.328489	0.149167	6
C	0.378521	-1.465409	0.525637	6
S	0.686221	1.153971	0.130027	16
O	1.717711	0.816171	-1.063523	8
O	-0.130739	2.258992	-0.319823	8
O	1.507571	1.261861	1.316807	8
H	-2.213929	0.432851	0.405877	1
H	-2.159599	-1.225579	-0.201593	1
H	-1.757779	0.113311	-1.283113	1
H	-0.155719	-2.409778	0.553597	1
H	1.424891	-1.483459	0.818607	1
H	2.602941	1.124192	-0.777693	1
Es	1.603044	0.952087	1.344579	99
Es	1.612169	0.986242	-1.295629	99
Es	-0.130602	2.258626	-0.319478	99
Es	0.378552	-1.465452	0.525650	99
Es	-2.017852	0.202747	0.190835	99
Es	-0.232656	-0.328257	0.149144	99
Es	1.707512	0.511346	-1.033000	99
Es	1.140192	1.235424	0.914078	99
Es	-0.378255	2.389458	-0.338318	99
Es	0.155661	-0.902978	0.023334	99
Es	1.391076	1.467117	1.431394	99
Es	1.717768	0.816333	-1.063221	99
Es	2.151588	0.983264	-0.885632	99
Es	1.409624	0.949307	-0.665222	99
Es	0.686193	1.153953	0.129962	99
Es	-0.015813	-0.793639	0.637035	99
Es	0.136713	2.284666	-0.272754	99
Es	0.075357	1.811354	-0.072871	99
Es	0.676590	1.232775	0.208769	99
Es	0.576534	1.131197	0.087721	99
Es	0.756562	1.049773	0.169223	99
Es	-1.714795	-0.008735	-0.938287	99
Es	-1.667299	-0.248653	-0.253943	99
Es	-1.981918	-0.914332	-0.212206	99
Es	1.565216	1.340937	1.093155	99
Es	0.189433	0.367676	0.137186	99
Es	1.075164	-1.481467	0.719907	99
Es	1.507416	1.261833	1.316558	99
Es	-0.031285	2.080565	-0.402334	99
Es	0.735463	1.202069	0.054031	99
Es	-0.922495	-0.273737	-0.050142	99
Es	0.020313	-2.092634	0.542137	99
45
Properties=species:S:1:pos:R:3:Z:I:1 energy=-739.2940932049956 field_type=dipole dipole="0.000000 0.000000 0.000000" charge=0
C	-1.667399	-0.248639	-0.253973	6
C	-0.232689	-0.328489	0.149167	6
C	0.378521	-1.465409	0.525637	6
S	0.686221	1.153971	0.130027	16
O	1.717711	0.816171	-1.063523	8
O	-0.130739	2.258992	-0.319823	8
O	1.507571	1.261861	1.316807	8
H	-2.213929	0.432851	0.405877	1
H	-2.159599	-1.225579	-0.201593	1
H	-1.757779	0.113311	-1.283113	1
H	-0.155719	-2.409778	0.553597	1
H	1.424891	-1.483459	0.818607	1
H	2.602941	1.124192	-0.777693	1
Es	0.132175	1.869280	-0.031557	99
Es	1.408166	0.952312	-0.664841	99
Es	-0.130616	2.258644	-0.319575	99
Es	-1.667300	-0.248654	-0.253944	99
Es	0.699556	1.266645	0.072896	99
Es	1.613000	0.981598	-1.298390	99
Es	0.020160	-2.091795	0.542150	99
Es	-1.715218	-0.008970	-0.938185	99
Es	0.686231	1.153945	0.129904	99
Es	0.155193	-0.902909	0.023690	99
Es	1.597098	1.508557	1.206583	99
Es	1.704374	0.516149	-1.029929	99
Es	0.658152	1.174044	0.207809	99
Es	-0.015444	-0.793643	0.636797	99
Es	0.596749	1.098983	0.090022	99
Es	0.189418	0.367146	0.137021	99
Es	1.638966	0.960515	1.306207	99
Es	-0.232651	-0.328261	0.149125	99
Es	2.155563	0.980153	-0.886266	99
Es	-0.100793	2.021142	-0.451684	99
Es	0.083457	2.208383	-0.327573	99
Es	0.378548	-1.465453	0.525649	99
Es	-2.018200	0.202508	0.190756	99
Es	1.300094	1.284387	1.380699	99
Es	1.163447	1.242059	0.889716	99
Es	0.790654	1.076139	0.149074	99
Es	-1.981913	-0.913440	-0.212419	99
Es	1.075868	-1.481914	0.719990	99
Es	1.507366	1.261825	1.316539	99
Es	-0.922351	-0.273930	-0.049917	99
Es	-0.312369	2.467135	-0.275441	99
Es	1.717789	0.816285	-1.063245	99
45
Properties=species:S:1:pos:R:3:Z:I:1 energy=-739.2940932049956 field_type=dipole dipole="0.000000 0.000000 0.000000" charge=0
C	-1.667399	-0.248639	-0.253973	6
C	-0.232689	-0.328489	0.149167	6
C	0.378521	-1.465409	0.525637	6
S	0.686221	1.153971	0.130027	16
O	1.717711	0.816171	-1.063523	8
O	-0.130739	2.258992	-0.319823	8
O	1.507571	1.261861	1.316807	8
H	-2.213929	0.432851	0.405877	1
H	-2.159599	-1.225579	-0.201593	1
H	-1.757779	0.113311	-1.283113	1
H	-0.155719	-2.409778	0.553597	1
H	1.424891	-1.483459	0.818607	1
H	2.602941	1.124192	-0.777693	1
Es	-0.135879	2.012815	-0.440537	99
Es	1.614435	0.981129	-1.299947	99
Es	1.706540	0.518421	-1.030892	99
Es	1.304192	1.335215	1.428219	99
Es	1.161084	1.246476	0.891546	99
Es	0.155406	-0.903479	0.022373	99
Es	-0.130467	2.258718	-0.319683	99
Es	1.075994	-1.482665	0.719959	99
Es	-0.154102	2.100117	-0.160232	99
Es	0.189047	0.366377	0.136731	99
Es	0.758543	1.232190	0.157891	99
Es	-0.163291	2.533304	-0.362448	99
Es	-1.715098	-0.009619	-0.938848	99
Es	1.631904	0.956238	1.306001	99
Es	0.020632	-2.090829	0.542205	99
Es	0.728510	1.028796	0.153663	99
Es	1.507353	1.261879	1.316496	99
Es	0.255511	1.919645	-0.122772	99
Es	-2.018950	0.202818	0.191414	99
Es	0.685852	1.154005	0.130689	99
Es	1.602434	1.457530	1.157455	99
Es	-0.015750	-0.793083	0.638176	99
Es	-0.922503	-0.274189	-0.049694	99
Es	0.576588	1.200173	0.068416	99
Es	-1.981156	-0.912314	-0.212490	99
Es	2.154520	0.978789	-0.886666	99
Es	-0.232656	-0.328257	0.149136	99
Es	-1.667300	-0.248653	-0.253943	99
Es	1.405690	0.951851	-0.662043	99
Es	1.717737	0.816332	-1.063207	99
Es	0.378548	-1.465452	0.525651	99
Es	0.681802	1.154583	0.139038	99
45
Properties=species:S:1:pos:R:3:Z:I:1 energy=-739.2940932049956 field_type=dipole dipole="0.000000 0.000000 0.000000" charge=0
C	-1.667399	-0.248639	-0.253973	6
C	-0.232689	-0.328489	0.149167	6
C	0.378521	-1.465409	0.525637	6
S	0.686221	1.153971	0.130027	16
O	1.717711	0.816171	-1.063523	8
O	-0.130739	2.258992	-0.319823	8
O	1.507571	1.261861	1.316807	8
H	-2.213929	0.432851	0.405877	1
H	-2.159599	-1.225579	-0.201593	1
H	-1.757779	0.113311	-1.283113	1
H	-0.155719	-2.409778	0.553597	1
H	1.424891	-1.483459	0.818607	1
H	2.602941	1.124192	-0.777693	1
Es	0.155351	-0.902918	0.023411	99
Es	-1.715041	-0.009094	-0.938261	99
Es	1.507340	1.261831	1.316503	99
Es	0.591477	1.192063	0.046319	99
Es	-1.981848	-0.913439	-0.212417	99
Es	-0.922439	-0.273830	-0.049924	99
Es	-0.232651	-0.328264	0.149122	99
Es	-0.327632	2.453373	-0.276199	99
Es	-0.130541	2.258714	-0.319661	99
Es	-0.015686	-0.793757	0.636900	99
Es	1.165294	1.242532	0.887745	99
Es	0.189412	0.367095	0.137300	99
Es	0.097777	2.224099	-0.320082	99
Es	0.020323	-2.091842	0.542020	99
Es	1.300405	1.279420	1.372819	99
Es	1.717784	0.816354	-1.063206	99
Es	1.593772	1.512353	1.214459	99
Es	-2.018286	0.202699	0.190822	99
Es	1.704473	0.514747	-1.031393	99
Es	-1.667299	-0.248654	-0.253944	99
Es	2.154507	0.979945	-0.885799	99
Es	0.758428	1.231078	0.144570	99
Es	0.117027	1.857314	-0.034834	99
Es	1.409223	0.951184	-0.664877	99
Es	0.652748	1.157467	0.195930	99
Es	-0.084770	2.031109	-0.455039	99
Es	0.378549	-1.465453	0.525650	99
Es	1.640159	0.961246	1.308243	99
Es	0.686162	1.154072	0.130150	99
Es	1.612850	0.984235	-1.297413	99
Es	0.742507	1.035068	0.132737	99
Es	1.075794	-1.481881	0.720009	99
45
Properties=species:S:1:pos:R:3:Z:I:1 energy=-739.2940932049956 field_type=dipole dipole="0.000000 0.000000 0.000000" charge=0
C	-1.667399	-0.248639	-0.253973	6
C	-0.232689	-0.328489	0.149167	6
C	0.378521	-1.465409	0.525637	6
S	0.686221	1.153971	0.130027	16
O	1.717711	0.816171	-1.063523	8
O	-0.130739	2.258992	-0.319823	8
O	1.507571	1.261861	1.316807	8
H	-2.213929	0.432851	0.405877	1
H	-2.159599	-1.225579	-0.201593	1