45
Properties=species:S:1:pos:R:3:Z:I:1 energy=-739.2965939143933 field_type=dipole dipole="0.000000 0.000000 0.000000" charge=0
C	-0.083566	-2.076990	0.724428	6
C	-0.329396	-0.783970	-0.015992	6
O	-1.226936	-0.748930	-0.866772	8
S	0.576764	0.767870	0.245008	16
C	-0.166016	1.906600	-0.891392	6
O	0.265544	1.177560	1.601718	8
O	1.939694	0.498690	-0.173212	8
H	0.811394	-1.976150	1.343588	1
H	0.072944	-2.884760	0.005618	1
H	-0.940506	-2.295840	1.365588	1
H	-0.034806	1.531920	-1.908171	1
H	0.339204	2.868920	-0.783491	1
H	-1.224316	2.015080	-0.646922	1
Es	1.963644	0.285962	0.032294	99
Es	1.754402	0.413421	-0.421210	99
Es	1.939452	0.498726	-0.173148	99
Es	-0.655687	-2.201039	1.134374	99
Es	0.424456	1.033573	1.108504	99
Es	-0.020528	1.127040	1.466691	99
Es	0.379456	1.437683	1.557845	99
Es	0.512651	-2.007154	1.137865	99
Es	-1.226663	-0.749004	-0.866490	99
Es	1.454733	0.623799	0.021574	99
Es	-0.070692	1.649324	-1.549601	99
Es	-0.083576	-2.076872	0.724376	99
Es	-0.171954	-1.385884	0.366171	99
Es	0.675099	0.821922	0.209291	99
Es	0.510307	0.844516	0.306745	99
Es	-1.361667	-1.024787	-0.888047	99
Es	-0.854951	1.967978	-0.718038	99
Es	0.576867	0.767897	0.245089	99
Es	0.605795	0.676428	0.314196	99
Es	-0.329358	-0.783859	-0.015999	99
Es	0.515666	0.728486	0.149649	99
Es	0.181374	2.521287	-0.799261	99
Es	-1.260596	-0.468839	-1.004381	99
Es	-0.727782	-0.812876	-0.734264	99
Es	-1.058927	-0.678558	-0.380866	99
Es	-0.165937	1.906496	-0.891278	99
Es	0.394512	0.936255	1.712622	99
Es	0.093396	-0.081010	0.113039	99
Es	0.170909	1.356740	-0.363066	99
Es	0.013830	-2.592244	0.236895	99
Es	0.265631	1.177439	1.601495	99
Es	2.018665	0.773004	-0.162158	99
45
Properties=species:S:1:pos:R:3:Z:I:1 energy=-739.2965939143933 field_type=dipole dipole="0.000000 0.000000 0.000000" charge=0
C	-0.083566	-2.076990	0.724428	6
C	-0.329396	-0.783970	-0.015992	6
O	-1.226936	-0.748930	-0.866772	8
S	0.576764	0.767870	0.245008	16
C	-0.166016	1.906600	-0.891392	6
O	0.265544	1.177560	1.601718	8
O	1.939694	0.498690	-0.173212	8
H	0.811394	-1.976150	1.343588	1
H	0.072944	-2.884760	0.005618	1
H	-0.940506	-2.295840	1.365588	1
H	-0.034806	1.531920	-1.908171	1
H	0.339204	2.868920	-0.783491	1
H	-1.224316	2.015080	-0.646922	1
Es	-0.171964	-1.387781	0.366932	99
Es	0.423517	1.030260	1.105915	99
Es	0.180937	2.519188	-0.798986	99
Es	0.576758	0.767875	0.245037	99
Es	-0.329351	-0.783860	-0.016004	99
Es	0.013139	-2.591357	0.235914	99
Es	-0.656648	-2.200092	1.133457	99
Es	0.480757	0.706018	0.203579	99
Es	0.093337	-0.081167	0.112993	99
Es	0.374253	1.425639	1.537752	99
Es	1.970187	0.302531	0.042820	99
Es	1.985954	0.773211	-0.137602	99
Es	-0.030024	1.126801	1.481155	99
Es	-0.069695	1.649254	-1.550785	99
Es	0.589453	0.755117	0.365063	99
Es	-0.083577	-2.076872	0.724375	99
Es	1.794612	0.411661	-0.442787	99
Es	-1.256314	-0.472226	-0.999190	99
Es	0.676996	0.735389	0.187387	99
Es	-1.226716	-0.748948	-0.866550	99
Es	0.265604	1.177491	1.601382	99
Es	-0.165934	1.906498	-0.891276	99
Es	1.939580	0.498805	-0.173267	99
Es	-1.061548	-0.677313	-0.377864	99
Es	0.559707	0.874843	0.223883	99
Es	-0.855993	1.968820	-0.717052	99
Es	-1.366228	-1.021378	-0.892884	99
Es	0.410409	0.951754	1.721062	99
Es	1.440684	0.608744	0.008419	99
Es	0.514508	-2.006449	1.138924	99
Es	0.171300	1.357889	-0.363232	99
Es	-0.725173	-0.814494	-0.737662	99
45
Properties=species:S:1:pos:R:3:Z:I:1 energy=-739.2965939143933 field_type=dipole dipole="0.000000 0.000000 0.000000" charge=0
C	-0.083566	-2.076990	0.724428	6
C	-0.329396	-0.783970	-0.015992	6
O	-1.226936	-0.748930	-0.866772	8
S	0.576764	0.767870	0.245008	16
C	-0.166016	1.906600	-0.891392	6
O	0.265544	1.177560	1.601718	8
O	1.939694	0.498690	-0.173212	8
H	0.811394	-1.976150	1.343588	1
H	0.072944	-2.884760	0.005618	1
H	-0.940506	-2.295840	1.365588	1
H	-0.034806	1.531920	-1.908171	1
H	0.339204	2.868920	-0.783491	1
H	-1.224316	2.015080	-0.646922	1
Es	-0.723884	-0.813893	-0.739396	99
Es	0.375038	1.407072	1.484319	99
Es	0.093423	-0.081162	0.113049	99
Es	-0.034639	1.142610	1.497574	99
Es	1.796068	0.396209	-0.437888	99
Es	1.939521	0.498724	-0.173148	99
Es	0.465560	0.725496	0.259057	99
Es	0.171062	1.358522	-0.363635	99
Es	-0.856376	1.968849	-0.716588	99
Es	0.412248	0.996997	1.112757	99
Es	-0.083577	-2.076869	0.724375	99
Es	-1.251276	-0.474079	-0.991924	99
Es	-0.329351	-0.783857	-0.015996	99
Es	0.425634	0.987807	1.751138	99
Es	-1.062583	-0.677800	-0.376699	99
Es	0.265590	1.177488	1.601485	99
Es	-0.172075	-1.388622	0.367229	99
Es	-1.226679	-0.748963	-0.866521	99
Es	-0.657055	-2.199748	1.133307	99
Es	1.439992	0.579007	0.019390	99
Es	0.583968	0.827432	0.143289	99
Es	1.928302	0.781038	-0.162628	99
Es	-0.069283	1.648921	-1.551149	99
Es	0.646466	0.679922	0.237527	99
Es	0.013030	-2.591047	0.235397	99
Es	-1.371692	-1.019883	-0.899594	99
Es	0.610965	0.838636	0.340085	99
Es	0.515085	-2.005960	1.139091	99
Es	-0.165932	1.906491	-0.891278	99
Es	2.027169	0.339926	0.051959	99
Es	0.576726	0.767830	0.245010	99
Es	0.181082	2.518756	-0.798685	99
45
Properties=species:S:1:pos:R:3:Z:I:1 energy=-739.2965939143933 field_type=dipole dipole="0.000000 0.000000 0.000000" charge=0
C	-0.083566	-2.076990	0.724428	6
C	-0.329396	-0.783970	-0.015992	6
O	-1.226936	-0.748930	-0.866772	8
S	0.576764	0.767870	0.245008	16
C	-0.166016	1.906600	-0.891392	6
O	0.265544	1.177560	1.601718	8
O	1.939694	0.498690	-0.173212	8
H	0.811394	-1.976150	1.343588	1
H	0.072944	-2.884760	0.005618	1
H	-0.940506	-2.295840	1.365588	1
H	-0.034806	1.531920	-1.908171	1
H	0.339204	2.868920	-0.783491	1
H	-1.224316	2.015080	-0.646922	1
Es	-0.329360	-0.783862	-0.016000	99
Es	-0.083576	-2.076877	0.724378	99
Es	0.265617	1.177456	1.601376	99
Es	-1.226626	-0.748791	-0.866527	99
Es	-0.165938	1.906500	-0.891280	99
Es	1.442813	0.583486	0.023553	99
Es	0.676795	0.704044	0.225426	99
Es	0.576784	0.767895	0.244968	99
Es	-0.657310	-2.199419	1.133044	99
Es	0.357252	1.401386	1.472179	99
Es	0.093486	-0.081137	0.113076	99
Es	0.180722	2.518609	-0.798595	99
Es	0.439041	1.008503	1.759649	99
Es	1.939343	0.498699	-0.173087	99
Es	-0.172052	-1.389191	0.367482	99
Es	-0.856441	1.968659	-0.716483	99
Es	-1.373867	-1.019862	-0.902553	99
Es	2.028488	0.336948	0.049276	99
Es	-0.069069	1.648975	-1.551370	99
Es	0.558581	0.785831	0.363949	99
Es	0.171259	1.358752	-0.363611	99
Es	-0.035965	1.128072	1.499018	99
Es	1.931029	0.778525	-0.163786	99
Es	0.417977	0.996523	1.115094	99
Es	-1.248407	-0.476481	-0.989626	99
Es	0.515503	-2.005829	1.139331	99
Es	0.595045	0.860471	0.205232	99
Es	-0.723239	-0.813206	-0.738901	99
Es	0.476499	0.721052	0.185394	99
Es	0.012813	-2.590792	0.235100	99
Es	-1.064056	-0.676371	-0.376526	99
Es	1.789384	0.397284	-0.438272	99
45
Properties=species:S:1:pos:R:3:Z:I:1 energy=-739.2965939143933 field_type=dipole dipole="0.000000 0.000000 0.000000" charge=0
C	-0.083566	-2.076990	0.724428	6
C	-0.329396	-0.783970	-0.015992	6
O	-1.226936	-0.748930	-0.866772	8
S	0.576764	0.767870	0.245008	16
C	-0.166016	1.906600	-0.891392	6
O	0.265544	1.177560	1.601718	8
O	1.939694	0.498690	-0.173212	8
H	0.811394	-1.976150	1.343588	1
H	0.072944	-2.884760	0.005618	1
H	-0.940506	-2.295840	1.365588	1
H	-0.034806	1.531920	-1.908171	1
H	0.339204	2.868920	-0.783491	1
H	-1.224316	2.015080	-0.646922	1
Es	-0.036221	1.125654	1.493799	99
Es	-0.657252	-2.199428	1.133042	99
Es	-0.329358	-0.783858	-0.015999	99
Es	0.171057	1.358707	-0.363885	99
Es	0.568746	0.673076	0.290016	99
Es	-1.226679	-0.749005	-0.866502	99
Es	-1.377327	-1.019182	-0.903286	99
Es	0.347715	1.388620	1.454691	99
Es	0.181040	2.518765	-0.798525	99
Es	0.012883	-2.590902	0.235071	99
Es	-0.856521	1.968603	-0.716418	99
Es	0.442865	1.032422	1.775793	99
Es	1.799278	0.389911	-0.435646	99
Es	0.265574	1.177493	1.601494	99
Es	-0.083576	-2.076872	0.724375	99
Es	1.438207	0.582206	0.017135	99
Es	-1.245509	-0.477570	-0.988235	99
Es	2.030281	0.347464	0.057818	99
Es	0.423963	0.987752	1.121529	99
Es	-1.063171	-0.674651	-0.376910	99
Es	1.939440	0.498734	-0.173142	99
Es	0.580415	0.846268	0.333898	99
Es	-0.165939	1.906499	-0.891280	99
Es	-0.172189	-1.389277	0.367475	99
Es	0.575836	0.768197	0.245864	99
Es	-0.723520	-0.814398	-0.739170	99
Es	0.515501	-2.005594	1.139351	99
Es	-0.069132	1.648902	-1.551232	99
Es	1.923858	0.776649	-0.168443	99
Es	0.477156	0.783633	0.171829	99
Es	0.681566	0.768130	0.183368	99
Es	0.093540	-0.081096	0.113035	99
45
Properties=species:S:1:pos:R:3:Z:I:1 energy=-739.2965939143933 field_type=dipole dipole="0.000000 0.000000 0.000000" charge=0
C	-0.083566	-2.076990	0.724428	6
C	-0.329396	-0.783970	-0.015992	6
O	-1.226936	-0.748930	-0.866772	8
S	0.576764	0.767870	0.245008	16
C	-0.166016	1.906600	-0.891392	6
O	0.265544	1.177560	1.601718	8
O	1.939694	0.498690	-0.173212	8
H	0.811394	-1.976150	1.343588	1
H	0.072944	-2.884760	0.005618	1
H	-0.940506	-2.295840	1.365588	1
H	-0.034806	1.531920	-1.908171	1
H	0.339204	2.868920	-0.783491	1
H	-1.224316	2.015080	-0.646922	1
Es	1.440049	0.571688	0.022165	99
Es	0.093452	-0.081374	0.112830	99
Es	0.172054	1.358123	-0.362663	99
Es	-0.172212	-1.388593	0.367030	99
Es	0.265608	1.177481	1.601393	99
Es	-0.329356	-0.783858	-0.016000	99
Es	2.054093	0.350439	0.051573	99
Es	-1.366798	-1.018607	-0.895890	99
Es	1.898516	0.765693	-0.157322	99
Es	-0.032703	1.190429	1.472667	99
Es	0.616842	0.716046	0.142294	99
Es	-0.083576	-2.076873	0.724376	99
Es	-0.165936	1.906497	-0.891276	99
Es	0.576815	0.768700	0.244853	99
Es	-0.069048	1.649803	-1.551385	99
Es	-1.226727	-0.748935	-0.866578	99
Es	0.179790	2.517475	-0.799277	99
Es	0.012618	-2.590022	0.236185	99
Es	0.319362	0.904363	1.580064	99
Es	0.456296	0.750599	0.261679	99
Es	0.646354	0.739924	0.345391	99
Es	-1.253480	-0.472785	-0.998415	99
Es	1.939467	0.498812	-0.173174	99
Es	0.587398	0.864029	0.230727	99
Es	0.435420	1.084204	1.099552	99
Es	-0.724499	-0.816497	-0.737245	99
Es	-0.856481	1.969531	-0.716859	99
Es	0.515901	-2.006510	1.139653	99
Es	-1.064680	-0.677525	-0.376141	99
Es	-0.657212	-2.200202	1.132553	99
Es	0.456283	1.355314	1.693712	99
Es	1.798913	0.408483	-0.445565	99
45
Properties=species:S:1:pos:R:3:Z:I:1 energy=-739.2965939143933 field_type=dipole dipole="0.000000 0.000000 0.000000" charge=0
C	-0.083566	-2.076990	0.724428	6
C	-0.329396	-0.783970	-0.015992	6
O	-1.226936	-0.748930	-0.866772	8
S	0.576764	0.767870	0.245008	16
C	-0.166016	1.906600	-0.891392	6
O	0.265544	1.177560	1.601718	8
O	1.939694	0.498690	-0.173212	8
H	0.811394	-1.976150	1.343588	1
H	0.072944	-2.884760	0.005618	1
H	-0.940506	-2.295840	1.365588	1
H	-0.034806	1.531920	-1.908171	1
H	0.339204	2.868920	-0.783491	1
H	-1.224316	2.015080	-0.646922	1
Es	-0.724726	-0.816740	-0.738978	99
Es	0.172052	1.358170	-0.362723	99
Es	-1.364019	-1.018881	-0.891076	99
Es	1.788636	0.403099	-0.440840	99
Es	2.073966	0.364223	0.047827	99
Es	-0.657384	-2.200183	1.132621	99
Es	-1.257628	-0.473309	-1.001892	99
Es	-0.031133	1.191238	1.467638	99
Es	0.515826	-2.006626	1.139588	99
Es	-0.165938	1.906497	-0.891279	99
Es	0.093397	-0.081346	0.112948	99
Es	1.444373	0.568336	0.030895	99
Es	0.012673	-2.589939	0.236110	99
Es	-1.226670	-0.748994	-0.866485	99
Es	0.179779	2.517443	-0.799212	99
Es	-0.172177	-1.388531	0.367243	99
Es	0.601601	0.664479	0.234754	99
Es	-0.329357	-0.783857	-0.015996	99
Es	0.454597	1.353313	1.700059	99
Es	1.884719	0.760673	-0.167123	99
Es	0.534389	0.806252	0.136307	99
Es	-0.083576	-2.076874	0.724377	99
Es	-1.062885	-0.676496	-0.376098	99
Es	0.678510	0.825979	0.277568	99
Es	1.939358	0.498778	-0.173068	99
Es	0.439574	1.083305	1.100580	99
Es	-0.069056	1.649766	-1.551513	99
Es	0.265600	1.177475	1.601439	99
Es	0.492328	0.774942	0.331310	99
Es	0.315267	0.906470	1.577675	99
Es	-0.856435	1.969520	-0.716753	99
Es	0.576868	0.767670	0.245008	99
45
Properties=species:S:1:pos:R:3:Z:I:1 energy=-739.2965939143933 field_type=dipole dipole="0.000000 0.000000 0.000000" charge=0
C	-0.083566	-2.076990	0.724428	6
C	-0.329396	-0.783970	-0.015992	6
O	-1.226936	-0.748930	-0.866772	8
S	0.576764	0.767870	0.245008	16
C	-0.166016	1.906600	-0.891392	6
O	0.265544	1.177560	1.601718	8
O	1.939694	0.498690	-0.173212	8
H	0.811394	-1.976150	1.343588	1
H	0.072944	-2.884760	0.005618	1
H	-0.940506	-2.295840	1.365588	1
H	-0.034806	1.531920	-1.908171	1
H	0.339204	2.868920	-0.783491	1
H	-1.224316	2.015080	-0.646922	1
Es	0.490949	0.795651	0.322414	99
Es	0.172182	1.358486	-0.362509	99
Es	-0.329355	-0.783863	-0.016006	99
Es	-0.657207	-2.199491	1.132011	99
Es	-0.083576	-2.076871	0.724375	99
Es	0.682833	0.730396	0.301640	99
Es	0.420736	1.402661	1.630656	99
Es	-1.065182	-0.678686	-0.375227	99
Es	0.179369	2.516862	-0.799194	99
Es	1.939413	0.498734	-0.173129	99
Es	-0.856269	1.969773	-0.716458	99
Es	1.805719	0.413903	-0.452486	99
Es	1.861668	0.743336	-0.155444	99
Es	-0.165938	1.906500	-0.891281	99
Es	-0.172448	-1.389445	0.367692	99
Es	0.093218	-0.081258	0.113081	99
Es	2.083665	0.381329	0.053610	99
Es	1.440630	0.557860	0.025286	99
Es	0.372480	0.907321	1.632362	99
Es	-0.724644	-0.818102	-0.737751	99
Es	0.576933	0.767954	0.244787	99
Es	-0.068975	1.649691	-1.552080	99
Es	0.516406	-2.006094	1.140199	99
Es	-1.375644	-1.015601	-0.905680	99
Es	-0.034720	1.149837	1.489315	99
Es	0.265598	1.177475	1.601450	99
Es	0.419916	1.074497	1.093615	99
Es	0.597545	0.854328	0.198395	99
Es	-1.243816	-0.473333	-0.989516	99
Es	-1.226663	-0.748918	-0.866522	99
Es	0.535440	0.690949	0.157738	99
Es	0.012267	-2.590029	0.235563	99
45
Properties=species:S:1:pos:R:3:Z:I:1 energy=-739.2965939143933 field_type=dipole dipole="0.000000 0.000000 0.000000" charge=0
C	-0.083566	-2.076990	0.724428	6
C	-0.329396	-0.783970	-0.015992	6
O	-1.226936	-0.748930	-0.866772	8
S	0.576764	0.767870	0.245008	16
C	-0.166016	1.906600	-0.891392	6
O	0.265544	1.177560	1.601718	8
O	1.939694	0.498690	-0.173212	8
H	0.811394	-1.976150	1.343588	1
H	0.072944	-2.884760	0.005618	1
H	-0.940506	-2.295840	1.365588	1
H	-0.034806	1.531920	-1.908171	1
H	0.339204	2.868920	-0.783491	1
H	-1.224316	2.015080	-0.646922	1
Es	1.467029	0.674087	0.013008	99
Es	0.515570	-2.006196	1.139994	99
Es	0.698105	0.777873	0.231707	99
Es	0.558357	0.685171	0.310873	99
Es	-1.062384	-0.676568	-0.376869	99
Es	0.515463	0.747422	0.137497	99
Es	0.576720	0.767710	0.245120	99
Es	-0.656588	-2.199556	1.132346	99
Es	0.093112	-0.081216	0.113201	99
Es	-0.083576	-2.076874	0.724377	99
Es	0.362413	1.376719	1.455254	99
Es	-0.724379	-0.815652	-0.739062	99
Es	-0.069160	1.649664	-1.551684	99
Es	0.012514	-2.590885	0.235480	99
Es	0.443927	1.018145	1.773441	99
Es	1.939322	0.498825	-0.173089	99
Es	0.265589	1.177473	1.601449	99
Es	0.535086	0.861117	0.299769	99
Es	0.408069	0.988294	1.114639	99
Es	-0.329361	-0.783857	-0.015997	99
Es	-0.856261	1.969572	-0.716648	99
Es	-0.172254	-1.388695	0.367452	99
Es	-0.036088	1.151443	1.502447	99
Es	1.814797	0.296843	-0.031740	99
Es	-1.364163	-1.020011	-0.890548	99
Es	1.785958	0.460412	-0.457929	99
Es	-0.165936	1.906496	-0.891277	99
Es	0.171790	1.358157	-0.362765	99
Es	-1.258375	-0.473354	-1.001473	99
Es	2.123996	0.664722	-0.052455	99
Es	0.179919	2.517500	-0.799068	99
Es	-1.226683	-0.748928	-0.866542	99
45
Properties=species:S:1:pos:R:3:Z:I:1 energy=-739.2965939143933 field_type=dipole dipole="0.000000 0.000000 0.000000" charge=0
C	-0.083566	-2.076990	0.724428	6
C	-0.329396	-0.783970	-0.015992	6
O	-1.226936	-0.748930	-0.866772	8
S	0.576764	0.767870	0.245008	16
C	-0.166016	1.906600	-0.891392	6
O	0.265544	1.177560	1.601718	8
O	1.939694	0.498690	-0.173212	8
H	0.811394	-1.976150	1.343588	1
H	0.072944	-2.884760	0.005618	1
H	-0.940506	-2.295840	1.365588	1
H	-0.034806	1.531920	-1.908171	1
H	0.339204	2.868920	-0.783491	1
H	-1.224316	2.015080	-0.646922	1
Es	1.939377	0.498767	-0.173117	99
Es	-0.656155	-2.199410	1.132222	99
Es	0.093196	-0.081302	0.113163	99
Es	0.012322	-2.591255	0.235712	99
Es	1.792103	0.456037	-0.457219	99
Es	-1.226742	-0.748931	-0.866581	99
Es	-1.258115	-0.474032	-1.000766	99
Es	0.265581	1.177491	1.601505	99
Es	0.494743	0.797221	0.328978	99
Es	0.515503	-2.006243	1.140132	99
Es	-0.034871	1.149895	1.500043	99
Es	-0.856276	1.969730	-0.716682	99
Es	-0.723550	-0.815011	-0.738733	99
Es	2.125038	0.662944	-0.046990	99
Es	-1.063874	-0.676606	-0.376609	99
Es	0.172013	1.358227	-0.362508	99
Es	0.590245	0.667266	0.253677	99
Es	-1.363839	-1.019812	-0.891662	99
Es	-0.069231	1.649589	-1.551568	99
Es	0.362133	1.379009	1.454517	99
Es	0.536926	0.789256	0.128114	99
Es	0.441669	1.019463	1.775318	99
Es	0.576693	0.767573	0.245130	99
Es	-0.083575	-2.076873	0.724377	99
Es	1.464122	0.675123	0.006627	99
Es	-0.172350	-1.388484	0.367100	99
Es	0.685079	0.817998	0.269045	99
Es	-0.165942	1.906501	-0.891282	99
Es	1.810459	0.302006	-0.031476	99
Es	-0.329356	-0.783858	-0.015999	99
Es	0.409406	0.986209	1.115839	99
Es	0.179796	2.517363	-0.799397	99
45
Properties=species:S:1:pos:R:3:Z:I:1 energy=-739.2965939143933 field_type=dipole dipole="0.000000 0.000000 0.000000" charge=0
C	-0.083566	-2.076990	0.724428	6
C	-0.329396	-0.783970	-0.015992	6
O	-1.226936	-0.748930	-0.866772	8
S	0.576764	0.767870	0.245008	16
C	-0.166016	1.906600	-0.891392	6
O	0.265544	1.177560	1.601718	8
O	1.939694	0.498690	-0.173212	8
H	0.811394	-1.976150	1.343588	1
H	0.072944	-2.884760	0.005618	1
H	-0.940506	-2.295840	1.365588	1
H	-0.034806	1.531920	-1.908171	1
H	0.339204	2.868920	-0.783491	1
H	-1.224316	2.015080	-0.646922	1
Es	0.641757	0.733551	0.149184	99
Es	-0.656348	-2.199538	1.132242	99
Es	1.809738	0.300442	-0.036248	99
Es	0.576866	0.767683	0.244990	99
Es	2.123667	0.659683	-0.042208	99
Es	0.265563	1.177508	1.601499	99
Es	0.093173	-0.081279	0.113205	99
Es	1.793778	0.462848	-0.459996	99
Es	-0.856296	1.969509	-0.716724	99
Es	-0.083576	-2.076873	0.724376	99
Es	-0.723765	-0.815032	-0.739267	99
Es	-1.226660	-0.748865	-0.866537	99
Es	0.444230	1.032387	1.780488	99
Es	0.484804	0.839256	0.211901	99
Es	0.012443	-2.591050	0.235516	99
Es	0.420943	0.989292	1.119759	99
Es	-0.165938	1.906497	-0.891279	99
Es	0.171956	1.358223	-0.362602	99
Es	0.533575	0.679464	0.286613	99
Es	0.179812	2.517561	-0.799241	99
Es	0.515535	-2.006192	1.140102	99
Es	-1.062534	-0.675874	-0.377221	99
Es	-1.361493	-1.020462	-0.887506	99
Es	0.646704	0.819340	0.332244	99
Es	1.464488	0.673188	0.009389	99
Es	-0.329355	-0.783859	-0.016000	99
Es	-0.035330	1.131990	1.492566	99
Es	1.939433	0.498722	-0.173152	99
Es	-0.172323	-1.388619	0.367277	99
Es	0.348497	1.380885	1.452916	99
Es	-1.261653	-0.474165	-1.003824	99
Es	-0.069164	1.649627	-1.551550	99
45
Properties=species:S:1:pos:R:3:Z:I:1 energy=-739.2965939143933 field_type=dipole dipole="0.000000 0.000000 0.000000" charge=0
C	-0.083566	-2.076990	0.724428	6
C	-0.329396	-0.783970	-0.015992	6
O	-1.226936	-0.748930	-0.866772	8
S	0.576764	0.767870	0.245008	16
C	-0.166016	1.906600	-0.891392	6
O	0.265544	1.177560	1.601718	8
O	1.939694	0.498690	-0.173212	8
H	0.811394	-1.976150	1.343588	1
H	0.072944	-2.884760	0.005618	1
H	-0.940506	-2.295840	1.365588	1
H	-0.034806	1.531920	-1.908171	1
H	0.339204	2.868920	-0.783491	1
H	-1.224316	2.015080	-0.646922	1
Es	0.265578	1.177506	1.601508	99
Es	-0.723802	-0.815506	-0.738761	99
Es	-1.063880	-0.676529	-0.376337	99
Es	0.093199	-0.081286	0.113134	99
Es	1.780802	0.456771	-0.457015	99
Es	0.677531	0.714620	0.294000	99
Es	2.130545	0.659537	-0.054003	99
Es	-1.363813	-1.019521	-0.891613	99
Es	0.358313	1.378373	1.457831	99
Es	1.810968	0.303769	-0.033178	99
Es	0.515681	-2.006224	1.140265	99
Es	0.172032	1.358274	-0.362553	99
Es	1.469419	0.676074	0.015144	99
Es	-0.069103	1.649697	-1.551804	99
Es	0.609110	0.851335	0.187075	99
Es	-0.329358	-0.783858	-0.015998	99
Es	-0.083575	-2.076874	0.724377	99
Es	0.012329	-2.590934	0.235421	99
Es	-1.226623	-0.748761	-0.866531	99
Es	-0.172373	-1.388698	0.367475	99
Es	0.505024	0.811904	0.329096	99
Es	1.939380	0.498757	-0.173118	99
Es	0.438270	1.019845	1.779379	99
Es	-1.257993	-0.474133	-1.001168	99
Es	-0.656364	-2.199432	1.132066	99
Es	0.179647	2.517151	-0.799233	99
Es	-0.165935	1.906496	-0.891275	99
Es	-0.856295	1.969746	-0.716582	99
Es	0.515306	0.693518	0.169834	99
Es	0.576723	0.767893	0.244939	99
Es	-0.035075	1.145468	1.491631	99
Es	0.416859	0.990873	1.116901	99
45
Properties=species:S:1:pos:R:3:Z:I:1 energy=-739.2965939143933 field_type=dipole dipole="0.000000 0.000000 0.000000" charge=0
C	-0.083566	-2.076990	0.724428	6
C	-0.329396	-0.783970	-0.015992	6
O	-1.226936	-0.748930	-0.866772	8
S	0.576764	0.767870	0.245008	16
C	-0.166016	1.906600	-0.891392	6
O	0.265544	1.177560	1.601718	8
O	1.939694	0.498690	-0.173212	8
H	0.811394	-1.976150	1.343588	1
H	0.072944	-2.884760	0.005618	1
H	-0.940506	-2.295840	1.365588	1
H	-0.034806	1.531920	-1.908171	1
H	0.339204	2.868920	-0.783491	1
H	-1.224316	2.015080	-0.646922	1
Es	0.411309	0.989587	1.114448	99
Es	1.467185	0.674313	0.013051	99
Es	0.593508	0.856732	0.230069	99
Es	-1.063934	-0.678152	-0.376758	99
Es	0.576623	0.767842	0.245002	99
Es	0.265607	1.177461	1.601436	99
Es	-0.069159	1.649653	-1.551583	99
Es	1.818742	0.298352	-0.026455	99
Es	0.450521	1.029330	1.775773	99
Es	1.781878	0.453191	-0.455712	99
Es	0.352057	1.374898	1.452223	99
Es	-0.656199	-2.199335	1.132004	99
Es	0.093167	-0.081280	0.113152	99
Es	-0.856326	1.969723	-0.716713	99
Es	0.012228	-2.591096	0.235516	99
Es	-1.226703	-0.748951	-0.866547	99
Es	0.179690	2.517288	-0.799400	99
Es	-0.165937	1.906495	-0.891277	99
Es	0.172086	1.358249	-0.362452	99
Es	-0.329356	-0.783860	-0.016001	99
Es	-0.035542	1.140802	1.503352	99
Es	-0.723805	-0.815224	-0.738167	99
Es	-0.083576	-2.076874	0.724376	99
Es	0.689582	0.717202	0.265233	99
Es	-0.172322	-1.388697	0.367246	99
Es	1.939388	0.498773	-0.173118	99
Es	2.123900	0.670210	-0.059934	99
Es	0.510271	0.769809	0.343275	99
Es	-1.258463	-0.472524	-1.000823	99
Es	0.515662	-2.006255	1.140336	99
Es	0.513732	0.727712	0.141381	99
Es	-1.363291	-1.019523	-0.892022	99
45
Properties=species:S:1:pos:R:3:Z:I:1 energy=-739.2965939143933 field_type=dipole dipole="0.000000 0.000000 0.000000" charge=0
C	-0.083566	-2.076990	0.724428	6
C	-0.329396	-0.783970	-0.015992	6
O	-1.226936	-0.748930	-0.866772	8
S	0.576764	0.767870	0.245008	16
C	-0.166016	1.906600	-0.891392	6
O	0.265544	1.177560	1.601718	8
O	1.939694	0.498690	-0.173212	8
H	0.811394	-1.976150	1.343588	1
H	0.072944	-2.884760	0.005618	1
H	-0.940506	-2.295840	1.365588	1
H	-0.034806	1.531920	-1.908171	1
H	0.339204	2.868920	-0.783491	1
H	-1.224316	2.015080	-0.646922	1
Es	0.579828	0.854788	0.212966	99
Es	0.640722	0.770912	0.352843	99
Es	0.454691	0.742087	0.256094	99
Es	0.450333	1.044566	1.776915	99
Es	0.338115	1.387176	1.449230	99
Es	0.171129	1.358769	-0.363846	99
Es	-1.245361	-0.477191	-0.986419	99
Es	2.085702	0.393468	0.048807	99
Es	0.631818	0.703216	0.157840	99
Es	-1.063177	-0.676083	-0.376604	99
Es	1.874728	0.761151	-0.192572	99
Es	-1.377267	-1.019585	-0.905330	99
Es	-0.172315	-1.389368	0.367562	99
Es	1.939520	0.498821	-0.173222	99
Es	0.424413	0.986704	1.121636	99
Es	-0.657388	-2.199311	1.132986	99
Es	-0.069104	1.648952	-1.551369	99
Es	-0.165938	1.906498	-0.891280	99
Es	0.515717	-2.005630	1.139383	99
Es	0.576645	0.768304	0.245203	99
Es	-0.083576	-2.076874	0.724376	99
Es	1.780735	0.373330	-0.426742	99
Es	-0.329355	-0.783859	-0.016002	99
Es	-0.856435	1.968454	-0.716387	99
Es	0.265616	1.177432	1.601389	99
Es	-1.226697	-0.748960	-0.866537	99
Es	0.012731	-2.590750	0.235077	99
Es	-0.723548	-0.813134	-0.739398	99
Es	1.450391	0.568221	0.041432	99
Es	0.093510	-0.081040	0.113131	99
Es	0.180879	2.518818	-0.798422	99
Es	-0.034536	1.115968	1.498170	99
45
Properties=species:S:1:pos:R:3:Z:I:1 energy=-739.2965939143933 field_type=dipole dipole="0.000000 0.000000 0.000000" charge=0
C	-0.083566	-2.076990	0.724428	6
C	-0.329396	-0.783970	-0.015992	6
O	-1.226936	-0.748930	-0.866772	8
S	0.576764	0.767870	0.245008	16
C	-0.166016	1.906600	-0.891392	6
O	0.265544	1.177560	1.601718	8
O	1.939694	0.498690	-0.173212	8
H	0.811394	-1.976150	1.343588	1
H	0.072944	-2.884760	0.005618	1
H	-0.940506	-2.295840	1.365588	1
H	-0.034806	1.531920	-1.908171	1
H	0.339204	2.868920	-0.783491	1
H	-1.224316	2.015080	-0.646922	1
Es	0.429311	0.988413	1.123333	99
Es	1.939390	0.498732	-0.173121	99
Es	-0.172489	-1.389332	0.367584	99
Es	0.444348	1.042967	1.782304	99
Es	-0.723921	-0.813890	-0.740329	99
Es	-0.069198	1.648636	-1.551177	99
Es	-0.035189	1.119122	1.489510	99
Es	0.576796	0.767867	0.245027	99
Es	0.170797	1.358793	-0.364027	99
Es	-0.329360	-0.783858	-0.016001	99
Es	1.453361	0.571473	0.046718	99
Es	-0.856411	1.968390	-0.716419	99
Es	0.627338	0.838035	0.334690	99
Es	1.877517	0.759797	-0.190585	99
Es	0.561150	0.677857	0.285511	99
Es	0.093560	-0.081035	0.113189	99
Es	0.181282	2.519136	-0.798411	99
Es	0.466266	0.807265	0.208282	99
Es	-1.226697	-0.748919	-0.866554	99
Es	1.772392	0.378564	-0.427789	99
Es	0.339855	1.383911	1.450789	99
Es	0.012908	-2.590435	0.235203	99
Es	0.265614	1.177428	1.601398	99
Es	-1.381150	-1.018435	-0.907627	99
Es	2.088407	0.386488	0.042439	99
Es	0.652184	0.748291	0.151443	99
Es	-1.062077	-0.675192	-0.376483	99
Es	-0.165937	1.906495	-0.891277	99
Es	0.515764	-2.005629	1.139397	99
Es	-1.242082	-0.478614	-0.983412	99
Es	-0.083578	-2.076874	0.724370	99
Es	-0.657628	-2.199596	1.132933	99
45
Properties=species:S:1:pos:R:3:Z:I:1 energy=-739.2965939143933 field_type=dipole dipole="0.000000 0.000000 0.000000" charge=0
C	-0.083566	-2.076990	0.724428	6
C	-0.329396	-0.783970	-0.015992	6
O	-1.226936	-0.748930	-0.866772	8
S	0.576764	0.767870	0.245008	16
C	-0.166016	1.906600	-0.891392	6
O	0.265544	1.177560	1.601718	8
O	1.939694	0.498690	-0.173212	8
H	0.811394	-1.976150	1.343588	1
H	0.072944	-2.884760	0.005618	1
H	-0.940506	-2.295840	1.365588	1
H	-0.034806	1.531920	-1.908171	1
H	0.339204	2.868920	-0.783491	1
H	-1.224316	2.015080	-0.646922	1
Es	-0.329357	-0.783857	-0.016000	99
Es	0.602185	0.800894	0.133859	99
Es	-0.656273	-2.199476	1.132374	99
Es	0.482281	0.823722	0.278337	99
Es	1.789751	0.474779	-0.460802	99
Es	0.672066	0.789362	0.323850	99
Es	-0.069263	1.649603	-1.551546	99
Es	-0.165937	1.906496	-0.891278	99
Es	-0.034255	1.135662	1.487669	99
Es	1.470306	0.678636	0.016022	99
Es	0.265608	1.177459	1.601428	99
Es	1.939396	0.498744	-0.173129	99
Es	-1.063169	-0.676795	-0.376357	99
Es	0.012553	-2.591295	0.235450	99
Es	0.180030	2.517715	-0.799120	99
Es	0.515302	-2.006121	1.140008	99
Es	0.171839	1.358180	-0.362855	99
Es	0.550597	0.657126	0.243693	99
Es	-0.856273	1.969444	-0.716626	99
Es	-0.724411	-0.814751	-0.738684	99
Es	-1.226756	-0.748935	-0.866601	99
Es	2.137355	0.633656	-0.033237	99
Es	0.436944	1.033411	1.784345	99
Es	-0.172271	-1.388558	0.367266	99
Es	-1.363374	-1.020271	-0.891386	99
Es	0.093176	-0.081244	0.113241	99
Es	-0.083576	-2.076873	0.724376	99
Es	-1.258374	-0.473642	-1.001307	99
Es	0.353018	1.383385	1.449854	99
Es	0.422562	0.982177	1.123918	99
Es	0.576548	0.768166	0.245224	99
Es	1.794296	0.309052	-0.051076	99
45
Properties=species:S:1:pos:R:3:Z:I:1 energy=-739.2965939143933 field_type=dipole dipole="0.000000 0.000000 0.000000" charge=0
C	-0.083566	-2.076990	0.724428	6
C	-0.329396	-0.783970	-0.015992	6
O	-1.226936	-0.748930	-0.866772	8
S	0.576764	0.767870	0.245008	16
C	-0.166016	1.906600	-0.891392	6
O	0.265544	1.177560	1.601718	8
O	1.939694	0.498690	-0.173212	8
H	0.811394	-1.976150	1.343588	1
H	0.072944	-2.884760	0.005618	1
H	-0.940506	-2.295840	1.365588	1
H	-0.034806	1.531920	-1.908171	1
H	0.339204	2.868920	-0.783491	1
H	-1.224316	2.015080	-0.646922	1
Es	-0.069148	1.648566	-1.551088	99
Es	0.576870	0.768039	0.245113	99
Es	-0.657245	-2.199093	1.132804	99
Es	-0.083577	-2.076873	0.724375	99
Es	0.170792	1.358844	-0.363958	99
Es	0.181352	2.519022	-0.798514	99
Es	0.012665	-2.590935	0.234822	99
Es	0.425196	0.984885	1.123015	99
Es	0.515707	-2.005504	1.139583	99
Es	0.689255	0.744298	0.291293	99
Es	0.093515	-0.081029	0.113181	99
Es	0.548581	0.697620	0.148416	99
Es	1.441841	0.559036	0.029083	99
Es	-0.172301	-1.389555	0.367635	99
Es	2.077427	0.388168	0.055008	99
Es	1.800582	0.388294	-0.437926	99
Es	-0.724072	-0.813763	-0.740328	99
Es	-0.856496	1.968567	-0.716490	99
Es	-0.329361	-0.783855	-0.015993	99
Es	0.451582	1.049863	1.778849	99
Es	-1.062140	-0.676796	-0.376194	99
Es	-0.035236	1.115953	1.498230	99
Es	0.265593	1.177517	1.601520	99
Es	1.871892	0.760725	-0.175256	99
Es	0.336800	1.383702	1.445701	99
Es	-1.241398	-0.477728	-0.981854	99
Es	-1.226684	-0.748925	-0.866543	99
Es	-0.165938	1.906497	-0.891279	99
Es	1.939325	0.498752	-0.173098	99
Es	0.494647	0.758215	0.327770	99
Es	-1.381816	-1.017767	-0.909307	99
Es	0.574312	0.871109	0.212341	99
45
Properties=species:S:1:pos:R:3:Z:I:1 energy=-739.2965939143933 field_type=dipole dipole="0.000000 0.000000 0.000000" charge=0
C	-0.083566	-2.076990	0.724428	6
C	-0.329396	-0.783970	-0.015992	6
O	-1.226936	-0.748930	-0.866772	8
S	0.576764	0.767870	0.245008	16
C	-0.166016	1.906600	-0.891392	6
O	0.265544	1.177560	1.601718	8
O	1.939694	0.498690	-0.173212	8
H	0.811394	-1.976150	1.343588	1
H	0.072944	-2.884760	0.005618	1
H	-0.940506	-2.295840	1.365588	1
H	-0.034806	1.531920	-1.908171	1
H	0.339204	2.868920	-0.783491	1
H	-1.224316	2.015080	-0.646922	1
Es	0.577028	0.768933	0.244716	99
Es	0.012257	-2.590782	0.235779	99
Es	0.179587	2.517097	-0.799262	99
Es	0.515821	-2.006342	1.140305	99
Es	0.608082	0.664869	0.240117	99
Es	-0.083579	-2.076876	0.724380	99
Es	-1.363445	-1.019449	-0.892353	99
Es	0.418575	0.982903	1.122208	99
Es	0.453261	0.775487	0.239757	99
Es	-1.063727	-0.677727	-0.375941	99
Es	-0.069129	1.649962	-1.551688	99
Es	0.172208	1.358113	-0.362588	99
Es	2.124468	0.664227	-0.050400	99
Es	1.939378	0.498762	-0.173110	99
Es	-0.037018	1.146739	1.490584	99
Es	1.788864	0.455989	-0.457781	99
Es	-0.329355	-0.783856	-0.015996	99
Es	-0.165938	1.906497	-0.891279	99
Es	0.265594	1.177477	1.601458	99
Es	0.442400	1.037449	1.787378	99
Es	-0.656383	-2.199561	1.131979	99
Es	-0.172227	-1.388664	0.367131	99
Es	-1.258345	-0.473370	-1.000449	99
Es	-1.226659	-0.748934	-0.866512	99
Es	1.812556	0.300675	-0.030291	99
Es	0.619845	0.811440	0.153645	99
Es	0.354414	1.367482	1.445605	99
Es	0.093099	-0.081256	0.113086	99
Es	0.625460	0.818574	0.346737	99
Es	-0.724016	-0.814953	-0.739076	99
Es	1.465843	0.675219	0.009394	99
Es	-0.856393	1.969729	-0.716623	99
45
Properties=species:S:1:pos:R:3:Z:I:1 energy=-739.2965939143933 field_type=dipole dipole="0.000000 0.000000 0.000000" charge=0
C	-0.083566	-2.076990	0.724428	6
C	-0.329396	-0.783970	-0.015992	6
O	-1.226936	-0.748930	-0.866772	8
S	0.576764	0.767870	0.245008	16
C	-0.166016	1.906600	-0.891392	6
O	0.265544	1.177560	1.601718	8