40
Properties=species:S:1:pos:R:3:Z:I:1 energy=-717.057509810519 field_type=dipole dipole="0.000000 0.000000 0.000000" charge=0
C	-1.204713	-1.115012	0.561581	6
C	0.057397	-0.892472	0.170201	6
S	0.768607	0.671808	0.314311	16
O	-0.023523	1.600908	1.091191	8
O	2.212687	0.600828	0.364001	8
C	0.568377	1.408128	-1.325129	6
N	0.420577	1.842778	-2.396889	7
H	-1.644223	-2.104712	0.475141	1
H	-1.831923	-0.332122	0.982901	1
H	0.676737	-1.680132	-0.237309	1
Es	-0.040820	1.492820	1.345374	99
Es	0.624827	1.389605	-2.016512	99
Es	0.306570	1.224674	0.888102	99
Es	2.285639	0.418907	0.555238	99
Es	0.768222	0.671522	0.314063	99
Es	0.803227	0.760722	0.377635	99
Es	0.649570	0.679601	0.298469	99
Es	0.477563	-1.386715	-0.101535	99
Es	1.686935	0.614154	0.468933	99
Es	2.196893	0.898286	0.331877	99
Es	0.420634	1.842604	-2.396465	99
Es	2.212361	0.600831	0.363999	99
Es	-0.196164	1.466310	0.844886	99
Es	0.057518	-0.892282	0.170198	99
Es	0.568429	1.407970	-1.324738	99
Es	2.050219	0.480463	0.087954	99
Es	-0.598728	-0.880854	0.060563	99
Es	0.376672	1.981486	-2.728029	99
Es	-0.023358	1.600692	1.091029	99
Es	0.631980	1.083993	-0.672051	99
Es	-1.491311	-1.769204	0.502504	99
Es	-1.204743	-1.115025	0.561594	99
Es	-1.616244	-0.605702	0.835293	99
Es	-0.384828	-1.023958	0.642360	99
Es	0.824676	0.676644	0.209093	99
Es	0.797195	0.570562	0.371810	99
Es	0.163336	1.794840	0.960803	99
Es	0.182804	1.641734	-1.858416	99
Es	0.661569	1.876331	-1.793293	99
Es	0.389161	-0.152762	0.234642	99
40
Properties=species:S:1:pos:R:3:Z:I:1 energy=-717.057509810519 field_type=dipole dipole="0.000000 0.000000 0.000000" charge=0
C	-1.204713	-1.115012	0.561581	6
C	0.057397	-0.892472	0.170201	6
S	0.768607	0.671808	0.314311	16
O	-0.023523	1.600908	1.091191	8
O	2.212687	0.600828	0.364001	8
C	0.568377	1.408128	-1.325129	6
N	0.420577	1.842778	-2.396889	7
H	-1.644223	-2.104712	0.475141	1
H	-1.831923	-0.332122	0.982901	1
H	0.676737	-1.680132	-0.237309	1
Es	-1.616670	-0.606556	0.835421	99
Es	0.845655	0.583520	0.310854	99
Es	0.477610	-1.385812	-0.101838	99
Es	2.035258	0.485688	0.103008	99
Es	0.630948	1.083927	-0.671940	99
Es	0.388736	-0.153420	0.233301	99
Es	-1.491094	-1.767796	0.503311	99
Es	-0.131627	1.456380	0.793137	99
Es	0.166016	1.787260	0.977396	99
Es	-0.383439	-1.024549	0.645704	99
Es	0.172591	1.647788	-1.856044	99
Es	0.621536	1.394848	-2.013217	99
Es	-1.204742	-1.115024	0.561590	99
Es	0.669609	1.866025	-1.798216	99
Es	0.568442	1.407953	-1.324742	99
Es	0.324122	1.232506	0.935634	99
Es	-0.023361	1.600688	1.091036	99
Es	0.681399	0.651745	0.234262	99
Es	1.687252	0.594570	0.495646	99
Es	-0.125852	1.501976	1.333078	99
Es	0.824463	0.773407	0.288271	99
Es	2.339845	0.441501	0.535364	99
Es	0.768543	0.671819	0.314341	99
Es	-0.599602	-0.880822	0.058069	99
Es	0.722837	0.678617	0.423332	99
Es	0.420636	1.842608	-2.396472	99
Es	2.212269	0.600796	0.364025	99
Es	0.383287	1.980605	-2.728776	99
Es	0.057519	-0.892282	0.170207	99
Es	2.157618	0.890285	0.309637	99
40
Properties=species:S:1:pos:R:3:Z:I:1 energy=-717.057509810519 field_type=dipole dipole="0.000000 0.000000 0.000000" charge=0
C	-1.204713	-1.115012	0.561581	6
C	0.057397	-0.892472	0.170201	6
S	0.768607	0.671808	0.314311	16
O	-0.023523	1.600908	1.091191	8
O	2.212687	0.600828	0.364001	8
C	0.568377	1.408128	-1.325129	6
N	0.420577	1.842778	-2.396889	7
H	-1.644223	-2.104712	0.475141	1
H	-1.831923	-0.332122	0.982901	1
H	0.676737	-1.680132	-0.237309	1
Es	0.169720	1.604983	-1.872027	99
Es	2.386837	0.475014	0.516369	99
Es	0.624500	1.880819	-1.784511	99
Es	0.888490	0.637131	0.327145	99
Es	0.768617	0.671858	0.314209	99
Es	0.388702	-0.153563	0.232992	99
Es	0.683605	0.604408	0.380093	99
Es	-0.129967	1.487933	1.332534	99
Es	-1.204741	-1.115023	0.561590	99
Es	-0.599181	-0.880435	0.056662	99
Es	0.477461	-1.385208	-0.101736	99
Es	0.630551	1.084060	-0.671860	99
Es	2.112507	0.877450	0.293209	99
Es	0.764744	0.757608	0.349748	99
Es	0.154922	1.789570	0.986531	99
Es	0.386002	1.981992	-2.728334	99
Es	0.667304	1.421354	-2.011429	99
Es	-0.125359	1.457281	0.791366	99
Es	0.568431	1.407967	-1.324733	99
Es	0.420635	1.842607	-2.396470	99
Es	0.057525	-0.892274	0.170200	99
Es	2.026038	0.486599	0.118144	99
Es	-0.023371	1.600631	1.090987	99
Es	0.737498	0.688074	0.199788	99
Es	-0.383815	-1.025156	0.647156	99
Es	2.212291	0.600812	0.363999	99
Es	-1.491038	-1.767454	0.503664	99
Es	-1.616677	-0.607051	0.835451	99
Es	1.694614	0.573080	0.515864	99
Es	0.332960	1.243183	0.928780	99
40
Properties=species:S:1:pos:R:3:Z:I:1 energy=-717.057509810519 field_type=dipole dipole="0.000000 0.000000 0.000000" charge=0
C	-1.204713	-1.115012	0.561581	6
C	0.057397	-0.892472	0.170201	6
S	0.768607	0.671808	0.314311	16
O	-0.023523	1.600908	1.091191	8
O	2.212687	0.600828	0.364001	8
C	0.568377	1.408128	-1.325129	6
N	0.420577	1.842778	-2.396889	7
H	-1.644223	-2.104712	0.475141	1
H	-1.831923	-0.332122	0.982901	1
H	0.676737	-1.680132	-0.237309	1
Es	0.158394	1.783245	0.999520	99
Es	0.388511	-0.153630	0.232255	99
Es	-1.490972	-1.767120	0.503854	99
Es	2.399549	0.484435	0.507845	99
Es	0.840614	0.739653	0.233554	99
Es	0.820888	0.653233	0.418576	99
Es	2.021609	0.486616	0.124587	99
Es	0.694275	1.851235	-1.808236	99
Es	0.477279	-1.384851	-0.102100	99
Es	1.697237	0.570282	0.522995	99
Es	-0.599355	-0.880527	0.056388	99
Es	2.212262	0.600852	0.364130	99
Es	-1.616719	-0.607242	0.835573	99
Es	-1.204741	-1.115026	0.561596	99
Es	0.057524	-0.892274	0.170196	99
Es	0.335244	1.244706	0.947072	99
Es	0.420634	1.842604	-2.396464	99
Es	0.388110	1.979411	-2.729706	99
Es	2.101647	0.870842	0.287973	99
Es	0.597041	1.395703	-2.007545	99
Es	0.648517	0.707131	0.326904	99
Es	-0.383305	-1.025426	0.648155	99
Es	0.168988	1.663181	-1.850765	99
Es	0.768428	0.672045	0.314189	99
Es	0.568420	1.407963	-1.324735	99
Es	-0.096128	1.462250	0.774723	99
Es	-0.165012	1.487536	1.317893	99
Es	0.629718	1.083689	-0.671902	99
Es	-0.023368	1.600684	1.091036	99
Es	0.764517	0.587049	0.277820	99
40
Properties=species:S:1:pos:R:3:Z:I:1 energy=-717.057509810519 field_type=dipole dipole="0.000000 0.000000 0.000000" charge=0
C	-1.204713	-1.115012	0.561581	6
C	0.057397	-0.892472	0.170201	6
S	0.768607	0.671808	0.314311	16
O	-0.023523	1.600908	1.091191	8
O	2.212687	0.600828	0.364001	8
C	0.568377	1.408128	-1.325129	6
N	0.420577	1.842778	-2.396889	7
H	-1.644223	-2.104712	0.475141	1
H	-1.831923	-0.332122	0.982901	1
H	0.676737	-1.680132	-0.237309	1
Es	1.703815	0.573301	0.534432	99
Es	0.057528	-0.892277	0.170206	99
Es	0.248651	1.283303	0.754987	99
Es	0.180613	1.550125	-1.893186	99
Es	-0.023383	1.600827	1.091078	99
Es	2.108526	0.877572	0.283190	99
Es	-0.305339	1.493192	1.019149	99
Es	-1.490537	-1.766906	0.505016	99
Es	-1.204744	-1.115026	0.561595	99
Es	0.736267	0.713920	0.420608	99
Es	0.873471	0.728602	0.263737	99
Es	0.158497	1.414364	1.274547	99
Es	0.628311	1.084485	-0.671103	99
Es	0.476737	-1.384171	-0.103268	99
Es	-0.383742	-1.025979	0.650122	99
Es	0.387261	-0.153647	0.229986	99
Es	2.398549	0.473214	0.494422	99
Es	0.674182	0.669028	0.241506	99
Es	-1.616412	-0.607787	0.836435	99
Es	-0.598171	-0.880338	0.055885	99
Es	0.420634	1.842603	-2.396463	99
Es	0.790441	0.575817	0.331014	99
Es	0.732036	1.474374	-1.998959	99
Es	0.131066	1.786537	0.990790	99
Es	0.548501	1.879415	-1.776373	99
Es	2.009066	0.488193	0.131066	99
Es	0.768615	0.671725	0.314195	99
Es	0.388757	1.985018	-2.728581	99
Es	2.212203	0.600804	0.364073	99
Es	0.568406	1.407962	-1.324724	99
40
Properties=species:S:1:pos:R:3:Z:I:1 energy=-717.057509810519 field_type=dipole dipole="0.000000 0.000000 0.000000" charge=0
C	-1.204713	-1.115012	0.561581	6
C	0.057397	-0.892472	0.170201	6
S	0.768607	0.671808	0.314311	16
O	-0.023523	1.600908	1.091191	8
O	2.212687	0.600828	0.364001	8
C	0.568377	1.408128	-1.325129	6
N	0.420577	1.842778	-2.396889	7
H	-1.644223	-2.104712	0.475141	1
H	-1.831923	-0.332122	0.982901	1
H	0.676737	-1.680132	-0.237309	1
Es	0.762596	0.584816	0.273258	99
Es	0.746785	1.490177	-1.995242	99
Es	0.184528	1.533731	-1.898862	99
Es	0.531305	1.879648	-1.775341	99
Es	2.422354	0.504596	0.489432	99
Es	2.012423	0.492576	0.122590	99
Es	0.568415	1.407965	-1.324735	99
Es	0.334791	1.248820	0.969395	99
Es	-1.616167	-0.607869	0.835201	99
Es	-1.491451	-1.767182	0.504182	99
Es	0.476773	-1.384284	-0.101690	99
Es	1.707800	0.557689	0.536775	99
Es	0.732149	0.654832	0.431252	99
Es	-0.600048	-0.880497	0.055455	99
Es	0.889739	0.713759	0.296528	99
Es	2.077621	0.857767	0.294602	99
Es	0.057528	-0.892272	0.170200	99
Es	0.388870	-0.153586	0.231740	99
Es	-0.077476	1.446693	0.769376	99
Es	0.629719	1.084569	-0.671357	99
Es	2.212115	0.600514	0.364136	99
Es	0.420636	1.842613	-2.396474	99
Es	0.768594	0.671862	0.314311	99
Es	0.689889	0.733847	0.255690	99
Es	-0.382555	-1.025321	0.649265	99
Es	0.385798	1.985115	-2.727369	99
Es	-1.204744	-1.115025	0.561591	99
Es	0.157996	1.787055	0.991495	99
Es	-0.182757	1.494876	1.308927	99
Es	-0.023422	1.600765	1.091051	99
40
Properties=species:S:1:pos:R:3:Z:I:1 energy=-717.057509810519 field_type=dipole dipole="0.000000 0.000000 0.000000" charge=0
C	-1.204713	-1.115012	0.561581	6
C	0.057397	-0.892472	0.170201	6
S	0.768607	0.671808	0.314311	16
O	-0.023523	1.600908	1.091191	8
O	2.212687	0.600828	0.364001	8
C	0.568377	1.408128	-1.325129	6
N	0.420577	1.842778	-2.396889	7
H	-1.644223	-2.104712	0.475141	1
H	-1.831923	-0.332122	0.982901	1
H	0.676737	-1.680132	-0.237309	1
Es	1.706681	0.557655	0.536649	99
Es	0.629280	1.084763	-0.671299	99
Es	0.755203	1.500332	-1.991743	99
Es	-0.383181	-1.025712	0.649232	99
Es	0.388992	-0.153479	0.231847	99
Es	-1.491499	-1.767242	0.504190	99
Es	0.568434	1.407969	-1.324733	99
Es	2.424980	0.501486	0.484813	99
Es	-0.084776	1.442657	0.770563	99
Es	0.643285	0.691548	0.330773	99
Es	-1.204744	-1.115026	0.561592	99
Es	0.386146	1.984968	-2.727181	99
Es	0.153694	1.786600	0.987277	99
Es	0.057525	-0.892277	0.170200	99
Es	0.476646	-1.384166	-0.101688	99
Es	0.420634	1.842607	-2.396468	99
Es	0.825788	0.667742	0.414686	99
Es	0.337368	1.253073	0.965934	99
Es	2.212246	0.600807	0.364052	99
Es	-1.616062	-0.607923	0.835298	99
Es	0.829749	0.742169	0.226319	99
Es	0.775544	0.585855	0.284942	99
Es	-0.599497	-0.880207	0.055286	99
Es	2.077833	0.857103	0.294062	99
Es	2.010578	0.496147	0.127955	99
Es	-0.023369	1.600709	1.091029	99
Es	0.768606	0.671811	0.314306	99
Es	0.520688	1.877031	-1.775919	99
Es	0.186852	1.526144	-1.902018	99
Es	-0.173820	1.495102	1.315424	99
40
Properties=species:S:1:pos:R:3:Z:I:1 energy=-717.057509810519 field_type=dipole dipole="0.000000 0.000000 0.000000" charge=0
C	-1.204713	-1.115012	0.561581	6
C	0.057397	-0.892472	0.170201	6
S	0.768607	0.671808	0.314311	16
O	-0.023523	1.600908	1.091191	8
O	2.212687	0.600828	0.364001	8
C	0.568377	1.408128	-1.325129	6
N	0.420577	1.842778	-2.396889	7
H	-1.644223	-2.104712	0.475141	1
H	-1.831923	-0.332122	0.982901	1
H	0.676737	-1.680132	-0.237309	1
Es	0.782088	0.580456	0.305481	99
Es	2.212157	0.600615	0.364065	99
Es	-0.383230	-1.025756	0.649694	99
Es	0.476917	-1.384299	-0.102525	99
Es	0.057526	-0.892276	0.170199	99
Es	0.627860	1.083136	-0.671913	99
Es	0.149991	1.785319	0.998127	99
Es	2.010192	0.493569	0.128087	99
Es	0.524050	1.394622	-1.991794	99
Es	0.387717	1.978443	-2.730503	99
Es	2.426597	0.505871	0.484439	99
Es	0.768599	0.671878	0.314275	99
Es	0.756270	1.798734	-1.843781	99
Es	1.707535	0.558737	0.538774	99
Es	-0.599126	-0.880271	0.055557	99
Es	-1.616408	-0.607845	0.835903	99
Es	2.075788	0.854294	0.292079	99
Es	0.420634	1.842604	-2.396466	99
Es	-0.023325	1.600670	1.091001	99
Es	-0.181297	1.485679	1.310040	99
Es	0.641735	0.687277	0.325748	99
Es	0.830362	0.726487	0.214734	99
Es	0.182288	1.718333	-1.830180	99
Es	-1.490927	-1.766884	0.504524	99
Es	-1.204744	-1.115025	0.561591	99
Es	0.820182	0.693026	0.410768	99
Es	0.341736	1.254162	0.960268	99
Es	0.388232	-0.153655	0.231127	99
Es	0.568420	1.407962	-1.324740	99
Es	-0.078013	1.452384	0.770801	99
40
Properties=species:S:1:pos:R:3:Z:I:1 energy=-717.057509810519 field_type=dipole dipole="0.000000 0.000000 0.000000" charge=0
C	-1.204713	-1.115012	0.561581	6
C	0.057397	-0.892472	0.170201	6
S	0.768607	0.671808	0.314311	16
O	-0.023523	1.600908	1.091191	8
O	2.212687	0.600828	0.364001	8
C	0.568377	1.408128	-1.325129	6
N	0.420577	1.842778	-2.396889	7
H	-1.644223	-2.104712	0.475141	1
H	-1.831923	-0.332122	0.982901	1
H	0.676737	-1.680132	-0.237309	1
Es	0.568427	1.407973	-1.324739	99
Es	0.768637	0.671796	0.314387	99
Es	0.383172	1.981308	-2.727672	99
Es	0.420634	1.842608	-2.396471	99
Es	0.765437	0.599432	0.291111	99
Es	2.053470	0.449922	0.176520	99
Es	-0.183429	1.494842	1.310905	99
Es	0.512142	1.871719	-1.779023	99
Es	0.358023	1.267619	0.969742	99
Es	-0.600926	-0.879861	0.054472	99
Es	0.630463	1.087713	-0.670326	99
Es	0.848734	0.725290	0.227715	99
Es	0.765051	1.508888	-1.989209	99
Es	0.388660	-0.155005	0.233776	99
Es	-1.490460	-1.765693	0.503195	99
Es	-0.023338	1.600761	1.091016	99
Es	2.212408	0.600774	0.364019	99
Es	0.643831	0.705616	0.317198	99
Es	-0.382090	-1.025932	0.648796	99
Es	0.477979	-1.384618	-0.101758	99
Es	0.187293	1.523456	-1.901922	99
Es	0.816350	0.656950	0.420695	99
Es	0.057526	-0.892277	0.170203	99
Es	2.202919	0.436851	0.579464	99
Es	0.135120	1.764906	0.999011	99
Es	1.661551	0.666882	0.423015	99
Es	-1.204745	-1.115026	0.561591	99
Es	-1.617753	-0.607532	0.835535	99
Es	2.302013	0.858798	0.264517	99
Es	-0.077293	1.450089	0.759619	99
40
Properties=species:S:1:pos:R:3:Z:I:1 energy=-717.057509810519 field_type=dipole dipole="0.000000 0.000000 0.000000" charge=0
C	-1.204713	-1.115012	0.561581	6
C	0.057397	-0.892472	0.170201	6
S	0.768607	0.671808	0.314311	16
O	-0.023523	1.600908	1.091191	8
O	2.212687	0.600828	0.364001	8
C	0.568377	1.408128	-1.325129	6
N	0.420577	1.842778	-2.396889	7
H	-1.644223	-2.104712	0.475141	1
H	-1.831923	-0.332122	0.982901	1
H	0.676737	-1.680132	-0.237309	1
Es	0.129229	1.764776	0.990005	99
Es	0.388747	-0.154950	0.233554	99
Es	2.212388	0.600833	0.363992	99
Es	0.764201	0.758229	0.311299	99
Es	0.057525	-0.892274	0.170195	99
Es	2.212841	0.431298	0.574980	99
Es	0.420630	1.842620	-2.396494	99
Es	1.661519	0.662242	0.428890	99
Es	-0.080350	1.440699	0.764412	99
Es	0.383818	1.981577	-2.727380	99
Es	0.513817	1.865952	-1.781338	99
Es	2.050771	0.455939	0.174744	99
Es	2.294858	0.862915	0.264928	99
Es	-0.600798	-0.879782	0.054231	99
Es	0.665569	0.635696	0.384102	99
Es	0.568424	1.407989	-1.324721	99
Es	0.883305	0.649520	0.361325	99
Es	-1.490459	-1.765728	0.503291	99
Es	0.761337	0.643815	0.200018	99
Es	0.630147	1.087271	-0.670487	99
Es	-0.023367	1.600701	1.091033	99
Es	-1.617718	-0.607715	0.835468	99
Es	-0.178453	1.498914	1.316173	99
Es	-1.204745	-1.115025	0.561590	99
Es	0.477788	-1.384522	-0.101662	99
Es	-0.382164	-1.025909	0.649248	99
Es	0.183991	1.528420	-1.900146	99
Es	0.361989	1.273084	0.968621	99
Es	0.766374	1.509855	-1.988768	99
Es	0.768591	0.671809	0.314279	99
40
Properties=species:S:1:pos:R:3:Z:I:1 energy=-717.057509810519 field_type=dipole dipole="0.000000 0.000000 0.000000" charge=0
C	-1.204713	-1.115012	0.561581	6
C	0.057397	-0.892472	0.170201	6
S	0.768607	0.671808	0.314311	16
O	-0.023523	1.600908	1.091191	8
O	2.212687	0.600828	0.364001	8
C	0.568377	1.408128	-1.325129	6
N	0.420577	1.842778	-2.396889	7
H	-1.644223	-2.104712	0.475141	1
H	-1.831923	-0.332122	0.982901	1
H	0.676737	-1.680132	-0.237309	1
Es	0.719730	0.717629	0.220109	99
Es	0.177020	1.705678	-1.834764	99
Es	2.212472	0.600901	0.364064	99
Es	1.659406	0.580629	0.301280	99
Es	-0.383944	-1.024842	0.647168	99
Es	0.691025	0.589850	0.371675	99
Es	2.070812	0.772867	0.413719	99
Es	0.568430	1.407956	-1.324742	99
Es	0.542738	1.388608	-1.999053	99
Es	0.773763	0.744713	0.371436	99
Es	-0.198722	1.500347	1.296828	99
Es	-0.599339	-0.880656	0.055859	99
Es	0.385736	1.978763	-2.728544	99
Es	2.140374	0.461450	0.607145	99
Es	-0.061656	1.438878	0.770348	99
Es	0.742981	1.817561	-1.833063	99
Es	-1.616914	-0.606998	0.835037	99
Es	-0.023294	1.600610	1.091030	99
Es	0.768615	0.671906	0.314393	99
Es	0.057525	-0.892277	0.170201	99
Es	0.477694	-1.385439	-0.100585	99
Es	-1.204745	-1.115024	0.561590	99
Es	0.340774	1.250553	0.984550	99
Es	0.629718	1.082477	-0.672743	99
Es	2.349235	0.597530	0.121548	99
Es	-1.491088	-1.767167	0.503504	99
Es	0.389024	-0.153808	0.233051	99
Es	0.889842	0.635005	0.293449	99
Es	0.420634	1.842602	-2.396468	99
Es	0.151959	1.787947	0.987359	99
40
Properties=species:S:1:pos:R:3:Z:I:1 energy=-717.057509810519 field_type=dipole dipole="0.000000 0.000000 0.000000" charge=0
C	-1.204713	-1.115012	0.561581	6
C	0.057397	-0.892472	0.170201	6
S	0.768607	0.671808	0.314311	16
O	-0.023523	1.600908	1.091191	8
O	2.212687	0.600828	0.364001	8
C	0.568377	1.408128	-1.325129	6
N	0.420577	1.842778	-2.396889	7
H	-1.644223	-2.104712	0.475141	1
H	-1.831923	-0.332122	0.982901	1
H	0.676737	-1.680132	-0.237309	1
Es	0.476807	-1.384105	-0.102742	99
Es	0.839414	0.628842	0.398184	99
Es	-0.598915	-0.880055	0.055352	99
Es	-0.383401	-1.026078	0.649947	99
Es	0.763127	1.790740	-1.848818	99
Es	0.765227	0.748399	0.335852	99
Es	2.430641	0.517848	0.480404	99
Es	0.388206	-0.153665	0.231084	99
Es	0.515661	1.398233	-1.988227	99
Es	-1.490859	-1.766806	0.504591	99
Es	0.420634	1.842604	-2.396464	99
Es	0.824768	0.677680	0.199634	99
Es	-0.066537	1.447900	0.767953	99
Es	2.011226	0.483726	0.140505	99
Es	0.768551	0.671830	0.314195	99
Es	-1.616420	-0.607951	0.835995	99
Es	0.183873	1.722874	-1.828572	99
Es	0.144083	1.782188	0.997377	99
Es	-0.023383	1.600716	1.091045	99
Es	2.212306	0.600836	0.364024	99
Es	0.645022	0.632325	0.323176	99
Es	0.627545	1.083461	-0.671735	99
Es	0.387991	1.977956	-2.730809	99
Es	0.347300	1.260226	0.969530	99
Es	0.057519	-0.892277	0.170193	99
Es	-0.192361	1.487185	1.304352	99
Es	0.568424	1.407960	-1.324749	99
Es	2.065917	0.855053	0.276621	99
Es	1.712182	0.555631	0.545889	99
Es	-1.204745	-1.115026	0.561591	99
40
Properties=species:S:1:pos:R:3:Z:I:1 energy=-717.057509810519 field_type=dipole dipole="0.000000 0.000000 0.000000" charge=0
C	-1.204713	-1.115012	0.561581	6
C	0.057397	-0.892472	0.170201	6
S	0.768607	0.671808	0.314311	16
O	-0.023523	1.600908	1.091191	8
O	2.212687	0.600828	0.364001	8
C	0.568377	1.408128	-1.325129	6
N	0.420577	1.842778	-2.396889	7
H	-1.644223	-2.104712	0.475141	1
H	-1.831923	-0.332122	0.982901	1
H	0.676737	-1.680132	-0.237309	1
Es	0.388334	-0.153712	0.230678	99
Es	0.627718	1.082979	-0.671901	99
Es	0.768605	0.671816	0.314303	99
Es	-0.382990	-1.025759	0.650399	99
Es	0.057515	-0.892271	0.170176	99
Es	2.212263	0.600810	0.364021	99
Es	0.346182	1.258855	0.961271	99
Es	0.757743	0.611158	0.265647	99
Es	2.003435	0.495856	0.130097	99
Es	0.519256	1.397859	-1.989275	99
Es	0.699123	0.752913	0.264283	99
Es	0.388252	1.978170	-2.730902	99
Es	0.476693	-1.384051	-0.102287	99
Es	0.760043	1.794007	-1.846598	99
Es	-1.616477	-0.608048	0.835813	99
Es	2.439435	0.520927	0.468980	99
Es	-0.023344	1.600665	1.091025	99
Es	1.716237	0.550340	0.549665	99
Es	0.182935	1.720280	-1.829493	99
Es	-0.599252	-0.880324	0.055098	99
Es	-0.075510	1.448135	0.772389	99
Es	0.568420	1.407957	-1.324738	99
Es	-1.204744	-1.115025	0.561592	99
Es	0.144421	1.783842	0.994466	99
Es	0.722595	0.626790	0.424743	99
Es	0.894909	0.696429	0.302046	99
Es	0.420636	1.842605	-2.396459	99
Es	-1.490863	-1.766777	0.504589	99
Es	2.060914	0.845203	0.294665	99
Es	-0.182680	1.486618	1.311088	99
40
Properties=species:S:1:pos:R:3:Z:I:1 energy=-717.057509810519 field_type=dipole dipole="0.000000 0.000000 0.000000" charge=0
C	-1.204713	-1.115012	0.561581	6
C	0.057397	-0.892472	0.170201	6
S	0.768607	0.671808	0.314311	16
O	-0.023523	1.600908	1.091191	8
O	2.212687	0.600828	0.364001	8
C	0.568377	1.408128	-1.325129	6
N	0.420577	1.842778	-2.396889	7
H	-1.644223	-2.104712	0.475141	1
H	-1.831923	-0.332122	0.982901	1
H	0.676737	-1.680132	-0.237309	1
Es	-0.383374	-1.025857	0.650600	99
Es	0.768427	0.671692	0.314361	99
Es	2.003867	0.499137	0.132061	99
Es	-1.616450	-0.608104	0.835886	99
Es	0.420635	1.842604	-2.396465	99
Es	0.647221	0.632815	0.298663	99
Es	-0.071857	1.455181	0.768715	99
Es	-0.598942	-0.880200	0.054664	99
Es	1.712488	0.552932	0.545977	99
Es	0.756599	1.797951	-1.843807	99
Es	0.476764	-1.383964	-0.102227	99
Es	-0.023357	1.600630	1.091034	99
Es	0.627657	1.082740	-0.671984	99
Es	2.434035	0.508307	0.470525	99
Es	0.388206	-0.153787	0.230639	99
Es	0.524683	1.400421	-1.989505	99
Es	0.568431	1.407947	-1.324736	99
Es	0.057522	-0.892274	0.170197	99
Es	-1.490789	-1.766733	0.504803	99
Es	0.180261	1.713583	-1.831895	99
Es	-0.186643	1.478136	1.306319	99
Es	0.761625	0.753551	0.341282	99
Es	0.817170	0.623395	0.404767	99
Es	0.141513	1.782258	1.004705	99
Es	-1.204744	-1.115025	0.561591	99
Es	0.349405	1.261946	0.959398	99
Es	2.212262	0.600757	0.364057	99
Es	0.848553	0.677634	0.211949	99
Es	2.069629	0.851970	0.294788	99
Es	0.389011	1.978606	-2.730984	99
40
Properties=species:S:1:pos:R:3:Z:I:1 energy=-717.057509810519 field_type=dipole dipole="0.000000 0.000000 0.000000" charge=0
C	-1.204713	-1.115012	0.561581	6
C	0.057397	-0.892472	0.170201	6
S	0.768607	0.671808	0.314311	16
O	-0.023523	1.600908	1.091191	8
O	2.212687	0.600828	0.364001	8
C	0.568377	1.408128	-1.325129	6
N	0.420577	1.842778	-2.396889	7
H	-1.644223	-2.104712	0.475141	1
H	-1.831923	-0.332122	0.982901	1
H	0.676737	-1.680132	-0.237309	1
Es	-0.381864	-1.026055	0.649378	99
Es	2.331618	0.842368	0.263172	99
Es	1.661302	0.678862	0.403590	99
Es	0.630166	1.087499	-0.670382	99
Es	-0.182400	1.497086	1.313832	99
Es	2.172634	0.441929	0.584343	99
Es	0.760509	1.501426	-1.991598	99
Es	2.212419	0.600830	0.363994	99
Es	0.768607	0.671928	0.314313	99
Es	-1.204744	-1.115024	0.561591	99
Es	0.383500	1.981221	-2.727903	99
Es	0.182052	1.535354	-1.897209	99
Es	-1.490391	-1.765560	0.503443	99
Es	-0.600941	-0.879894	0.054394	99
Es	-1.617753	-0.607558	0.835602	99
Es	0.130071	1.762467	0.994171	99
Es	0.768241	0.742732	0.339408	99
Es	0.388482	-0.155141	0.233436	99
Es	0.726508	0.688749	0.204619	99
Es	0.057534	-0.892279	0.170217	99
Es	0.477869	-1.384417	-0.102190	99
Es	0.521928	1.867575	-1.781095	99
Es	0.361750	1.273624	0.970345	99
Es	-0.076945	1.444290	0.760889	99
Es	0.568422	1.407984	-1.324722	99
Es	0.894320	0.641729	0.318604	99
Es	-0.023388	1.600728	1.091054	99
Es	0.420634	1.842604	-2.396467	99
Es	0.685295	0.613960	0.394097	99
Es	2.054371	0.449231	0.192455	99
40
Properties=species:S:1:pos:R:3:Z:I:1 energy=-717.057509810519 field_type=dipole dipole="0.000000 0.000000 0.000000" charge=0
C	-1.204713	-1.115012	0.561581	6
C	0.057397	-0.892472	0.170201	6
S	0.768607	0.671808	0.314311	16
O	-0.023523	1.600908	1.091191	8
O	2.212687	0.600828	0.364001	8
C	0.568377	1.408128	-1.325129	6
N	0.420577	1.842778	-2.396889	7
H	-1.644223	-2.104712	0.475141	1
H	-1.831923	-0.332122	0.982901	1
H	0.676737	-1.680132	-0.237309	1
Es	0.386574	1.985251	-2.727604	99
Es	-0.599413	-0.880086	0.054881	99
Es	-0.383024	-1.025975	0.650146	99
Es	0.057525	-0.892275	0.170199	99
Es	-1.616040	-0.608109	0.835488	99
Es	0.761638	1.509000	-1.988240	99
Es	2.054774	0.847259	0.270002	99
Es	-1.491403	-1.766936	0.504497	99
Es	2.436775	0.533534	0.483221	99
Es	1.709925	0.551031	0.541725	99
Es	0.514598	1.868509	-1.779133	99
Es	0.388717	-0.153660	0.231355	99
Es	0.141427	1.782599	1.012279	99
Es	2.018530	0.480523	0.148545	99
Es	0.774592	0.738468	0.366960	99
Es	0.568419	1.407979	-1.324719	99
Es	-1.204744	-1.115025	0.561590	99
Es	0.186764	1.525703	-1.902058	99
Es	0.420634	1.842604	-2.396465	99
Es	0.820402	0.592913	0.375042	99
Es	-0.079399	1.463055	0.768767	99
Es	-0.023308	1.600636	1.091036	99
Es	0.641526	0.649279	0.304453	99
Es	0.476550	-1.383918	-0.102072	99
Es	2.212297	0.600838	0.363991	99
Es	0.838198	0.706453	0.210511	99
Es	0.349305	1.262225	0.949509	99
Es	0.768276	0.671975	0.314035	99
Es	-0.178934	1.469607	1.308589	99
Es	0.628626	1.084794	-0.671154	99
40
Properties=species:S:1:pos:R:3:Z:I:1 energy=-717.057509810519 field_type=dipole dipole="0.000000 0.000000 0.000000" charge=0
C	-1.204713	-1.115012	0.561581	6
C	0.057397	-0.892472	0.170201	6
S	0.768607	0.671808	0.314311	16
O	-0.023523	1.600908	1.091191	8
O	2.212687	0.600828	0.364001	8
C	0.568377	1.408128	-1.325129	6
N	0.420577	1.842778	-2.396889	7
H	-1.644223	-2.104712	0.475141	1
H	-1.831923	-0.332122	0.982901	1
H	0.676737	-1.680132	-0.237309	1
Es	-1.616103	-0.608128	0.835509	99
Es	0.768619	0.672416	0.314602	99
Es	-0.023373	1.600676	1.091017	99
Es	0.568451	1.407968	-1.324725	99
Es	2.056295	0.847603	0.281642	99
Es	0.386538	1.985340	-2.727689	99
Es	0.057527	-0.892278	0.170206	99
Es	-1.204743	-1.115025	0.561592	99
Es	0.691102	0.706085	0.226291	99
Es	0.628643	1.084670	-0.671223	99
Es	-1.491309	-1.767019	0.504482	99
Es	0.510352	1.872007	-1.777467	99
Es	0.762538	1.511221	-1.987427	99
Es	2.438351	0.528622	0.475818	99
Es	0.476622	-1.384122	-0.101873	99
Es	0.154656	1.781539	1.014929	99
Es	0.388693	-0.153579	0.231138	99
Es	2.009832	0.485526	0.137948	99
Es	0.339614	1.251570	0.966534	99
Es	0.190073	1.520031	-1.904379	99
Es	-0.199275	1.479423	1.295506	99
Es	1.715577	0.550626	0.548025	99
Es	0.715991	0.623129	0.423540	99
Es	0.420635	1.842605	-2.396466	99
Es	-0.382960	-1.025610	0.649921	99
Es	0.898363	0.689494	0.293807	99
Es	0.768890	0.667984	0.312795	99
Es	-0.062491	1.464938	0.762267	99
Es	2.212240	0.600768	0.364025	99
Es	-0.599540	-0.880233	0.055034	99
40
Properties=species:S:1:pos:R:3:Z:I:1 energy=-717.057509810519 field_type=dipole dipole="0.000000 0.000000 0.000000" charge=0
C	-1.204713	-1.115012	0.561581	6
C	0.057397	-0.892472	0.170201	6
S	0.768607	0.671808	0.314311	16
O	-0.023523	1.600908	1.091191	8
O	2.212687	0.600828	0.364001	8
C	0.568377	1.408128	-1.325129	6
N	0.420577	1.842778	-2.396889	7
H	-1.644223	-2.104712	0.475141	1
H	-1.831923	-0.332122	0.982901	1
H	0.676737	-1.680132	-0.237309	1
Es	0.816455	0.603088	0.392611	99
Es	1.717587	0.545889	0.550526	99
Es	0.143643	1.780149	1.004018	99
Es	2.212311	0.600901	0.364003	99
Es	2.442137	0.520355	0.463087	99
Es	-0.383371	-1.026197	0.650984	99
Es	-1.204744	-1.115024	0.561590	99
Es	0.743544	0.612462	0.249690	99
Es	0.767264	1.785018	-1.852180	99
Es	0.568419	1.407955	-1.324740	99
Es	2.059209	0.844105	0.299970	99
Es	0.057526	-0.892275	0.170196	99
Es	0.768722	0.671623	0.314329	99
Es	2.001033	0.501937	0.129868	99
Es	0.388276	-0.153630	0.230322	99
Es	0.476533	-1.383750	-0.102275	99
Es	0.660169	0.720397	0.356710	99
Es	0.510822	1.402643	-1.985348	99
Es	-0.075055	1.454958	0.765859	99
Es	0.627423	1.082841	-0.671898	99
Es	0.854105	0.751530	0.257671	99
Es	-0.183803	1.480659	1.309046	99
Es	0.387970	1.978383	-2.730949	99
Es	0.420632	1.842608	-2.396487	99
Es	-1.491127	-1.766647	0.504893	99
Es	0.347617	1.261635	0.960276	99
Es	-0.023341	1.600623	1.091029	99
Es	-1.616121	-0.608191	0.835802	99
Es	0.184743	1.724406	-1.827789	99
Es	-0.598775	-0.880200	0.054566	99
40
Properties=species:S:1:pos:R:3:Z:I:1 energy=-717.057509810519 field_type=dipole dipole="0.000000 0.000000 0.000000" charge=0
C	-1.204713	-1.115012	0.561581	6
C	0.057397	-0.892472	0.170201	6
S	0.768607	0.671808	0.314311	16
O	-0.023523	1.600908	1.091191	8
O	2.212687	0.600828	0.364001	8
C	0.568377	1.408128	-1.325129	6
N	0.420577	1.842778	-2.396889	7
H	-1.644223	-2.104712	0.475141	1
H	-1.831923	-0.332122	0.982901	1
H	0.676737	-1.680132	-0.237309	1
Es	-0.185871	1.478739	1.306071	99
Es	0.639270	0.673032	0.331197	99
Es	0.508619	1.867972	-1.779043	99
Es	-0.069486	1.443165	0.767944	99
Es	2.212286	0.600795	0.364029	99
Es	2.440861	0.528690	0.471921	99
Es	-0.383035	-1.025837	0.650304	99
Es	-0.023332	1.600592	1.091045	99
Es	-0.599391	-0.880182	0.054739	99
Es	0.388732	-0.153620	0.231030	99
Es	-1.616022	-0.608174	0.835450	99
Es	0.420633	1.842609	-2.396472	99
Es	2.009657	0.488959	0.141931	99
Es	0.476515	-1.383919	-0.101869	99
Es	0.568426	1.407975	-1.324729	99
Es	0.189676	1.520342	-1.904120	99
Es	1.715390	0.547393	0.547619	99
Es	-1.491393	-1.766944	0.504579	99
Es	2.054103	0.847374	0.282014	99
Es	0.353752	1.269403	0.967210	99
Es	0.822605	0.740394	0.219662	99
Es	0.134007	1.786140	0.997935	99
Es	0.784000	0.596366	0.292707	99
Es	0.057522	-0.892277	0.170198	99
Es	0.386157	1.985808	-2.727536	99
Es	0.768653	0.671756	0.314305	99
Es	0.765121	1.514457	-1.986342	99
Es	-1.204745	-1.115025	0.561590	99
Es	0.828458	0.677572	0.413144	99
Es	0.628636	1.084693	-0.671129	99
40
Properties=species:S:1:pos:R:3:Z:I:1 energy=-717.057509810519 field_type=dipole dipole="0.000000 0.000000 0.000000" charge=0
C	-1.204713	-1.115012	0.561581	6
C	0.057397	-0.892472	0.170201	6
S	0.768607	0.671808	0.314311	16
O	-0.023523	1.600908	1.091191	8
O	2.212687	0.600828	0.364001	8
C	0.568377	1.408128	-1.325129	6
N	0.420577	1.842778	-2.396889	7
H	-1.644223	-2.104712	0.475141	1
H	-1.831923	-0.332122	0.982901	1
H	0.676737	-1.680132	-0.237309	1
Es	0.882106	0.707518	0.263533	99
Es	0.671365	0.725490	0.265916	99
Es	0.756484	0.575497	0.295656	99
Es	2.381836	0.624990	0.149785	99
Es	0.334593	1.245282	0.988703	99
Es	-0.383248	-1.024815	0.647581	99
Es	0.386508	1.984792	-2.726215	99
Es	0.477299	-1.385170	-0.100764	99
Es	-1.616542	-0.607356	0.834942	99
Es	0.630441	1.083708	-0.672157	99
Es	-1.491416	-1.767285	0.503523	99
Es	0.707551	1.449805	-2.007292	99
Es	-0.599886	-0.880621	0.055956	99
Es	2.115293	0.462522	0.610989	99
Es	1.664037	0.590553	0.279054	99
Es	0.389214	-0.153673	0.232691	99
Es	0.764401	0.678758	0.431747	99
Es	0.171183	1.571156	-1.884814	99
Es	0.057524	-0.892275	0.170198	99
Es	-1.204745	-1.115026	0.561593	99
Es	0.568431	1.407968	-1.324738	99
Es	0.420634	1.842604	-2.396465	99
Es	2.058884	0.734637	0.404042	99
Es	2.212244	0.600751	0.363892	99
Es	-0.213334	1.494692	1.283489	99
Es	0.159945	1.787208	1.003183	99
Es	0.582513	1.883587	-1.777709	99
Es	-0.048771	1.450485	0.763744	99
Es	0.768606	0.671811	0.314303	99
Es	-0.023344	1.600657	1.091014	99
40
Properties=species:S:1:pos:R:3:Z:I:1 energy=-717.057509810519 field_type=dipole dipole="0.000000 0.000000 0.000000" charge=0
C	-1.204713	-1.115012	0.561581	6
C	0.057397	-0.892472	0.170201	6
S	0.768607	0.671808	0.314311	16
O	-0.023523	1.600908	1.091191	8
O	2.212687	0.600828	0.364001	8
C	0.568377	1.408128	-1.325129	6
N	0.420577	1.842778	-2.396889	7
H	-1.644223	-2.104712	0.475141	1
H	-1.831923	-0.332122	0.982901	1
H	0.676737	-1.680132	-0.237309	1
Es	-0.023325	1.600619	1.091039	99
Es	0.843002	0.723105	0.219738	99
Es	2.213635	0.429988	0.567661	99
Es	0.768625	0.671539	0.314283	99
Es	0.372804	1.284911	0.957243	99
Es	0.420634	1.842604	-2.396466	99
Es	-0.600663	-0.879692	0.054336	99