48
Properties=species:S:1:pos:R:3:Z:I:1 energy=-740.4758853297742 field_type=dipole dipole="0.000000 0.000000 0.000000" charge=0
C	-1.975257	-1.016404	-0.123665	6
C	-0.471007	-0.840284	-0.173425	6
S	-0.008347	0.882006	-0.106225	16
O	-0.473597	1.525596	-1.319475	8
O	-0.370657	1.400396	1.201945	8
C	1.788122	0.811816	-0.160865	6
O	2.412792	0.236936	0.994865	8
H	-2.235917	-2.078014	-0.171825	1
H	-2.460337	-0.506944	-0.962395	1
H	-2.389807	-0.604304	0.801905	1
H	-0.068617	-1.251854	-1.103685	1
H	0.000313	-1.342404	0.676325	1
H	2.147413	1.839216	-0.270195	1
H	2.078093	0.239296	-1.045685	1
H	2.026813	0.704946	1.762395	1
Es	-0.149578	-1.158025	0.392986	99
Es	-0.168050	1.170289	1.284421	99
Es	-0.353710	1.784812	-1.255840	99
Es	-0.252477	-0.036991	-0.141858	99
Es	-1.197724	-0.898751	-0.148867	99
Es	-0.293344	1.313476	-0.857132	99
Es	-0.242895	1.660357	1.135256	99
Es	-0.370572	1.400306	1.201759	99
Es	1.999713	1.504650	-0.236932	99
Es	-0.470994	-0.840142	-0.173425	99
Es	-0.261211	1.228370	0.704658	99
Es	-0.057763	0.791620	-0.164657	99
Es	2.693286	0.326369	0.960222	99
Es	-0.302534	1.300959	-1.448036	99
Es	2.412532	0.237214	0.994848	99
Es	-0.191510	-1.098038	-0.797085	99
Es	-1.975153	-1.016400	-0.123669	99
Es	-2.293024	-0.675937	-0.689409	99
Es	2.322020	-0.057906	1.010062	99
Es	1.788064	0.811697	-0.160640	99
Es	-2.133311	-1.734254	-0.157000	99
Es	-0.650899	1.329143	1.170554	99
Es	2.135188	0.465064	0.562669	99
Es	-0.085284	0.923637	-0.026642	99
Es	1.961987	0.423427	-0.752003	99
Es	-0.743785	1.435999	-1.230395	99
Es	0.089906	0.844275	-0.050718	99
Es	0.952888	0.827861	-0.125965	99
Es	0.019889	0.968420	-0.182772	99
Es	-2.244979	-0.741407	0.499560	99
Es	-0.008361	0.882002	-0.106308	99
Es	-0.473478	1.525439	-1.319224	99
Es	2.202514	0.495301	1.387713	99
48
Properties=species:S:1:pos:R:3:Z:I:1 energy=-740.4758853297742 field_type=dipole dipole="0.000000 0.000000 0.000000" charge=0
C	-1.975257	-1.016404	-0.123665	6
C	-0.471007	-0.840284	-0.173425	6
S	-0.008347	0.882006	-0.106225	16
O	-0.473597	1.525596	-1.319475	8
O	-0.370657	1.400396	1.201945	8
C	1.788122	0.811816	-0.160865	6
O	2.412792	0.236936	0.994865	8
H	-2.235917	-2.078014	-0.171825	1
H	-2.460337	-0.506944	-0.962395	1
H	-2.389807	-0.604304	0.801905	1
H	-0.068617	-1.251854	-1.103685	1
H	0.000313	-1.342404	0.676325	1
H	2.147413	1.839216	-0.270195	1
H	2.078093	0.239296	-1.045685	1
H	2.026813	0.704946	1.762395	1
Es	2.135534	0.464528	0.558778	99
Es	2.690397	0.321136	0.961063	99
Es	-0.383808	1.780689	-1.245467	99
Es	1.998580	1.503699	-0.236306	99
Es	-2.293434	-0.676194	-0.691467	99
Es	0.012575	0.827586	-0.214950	99
Es	-0.370574	1.400286	1.201696	99
Es	1.962470	0.423544	-0.753340	99
Es	2.412520	0.237236	0.994848	99
Es	1.788060	0.811705	-0.160642	99
Es	-0.470992	-0.840145	-0.173423	99
Es	-2.131578	-1.732387	-0.156898	99
Es	-0.260134	1.236697	0.695582	99
Es	-0.153894	1.178626	1.295070	99
Es	-1.975149	-1.016401	-0.123667	99
Es	-2.245191	-0.741861	0.501505	99
Es	2.203117	0.494681	1.391855	99
Es	-0.286198	1.316762	-0.850872	99
Es	-0.295799	1.314458	-1.471516	99
Es	-1.197373	-0.898630	-0.148815	99
Es	-0.191722	-1.097937	-0.798892	99
Es	-0.270902	1.658601	1.136684	99
Es	-0.008318	0.882006	-0.106151	99
Es	2.324035	-0.051337	1.009634	99
Es	-0.727516	1.423240	-1.223686	99
Es	0.953383	0.828433	-0.125896	99
Es	0.032254	0.989262	-0.107321	99
Es	-0.473505	1.525469	-1.319260	99
Es	-0.149447	-1.158153	0.394825	99
Es	0.040880	0.820891	-0.013996	99
Es	-0.119068	0.890253	-0.088712	99
Es	-0.637973	1.314175	1.167796	99
Es	-0.253877	-0.038084	-0.141926	99
48
Properties=species:S:1:pos:R:3:Z:I:1 energy=-740.4758853297742 field_type=dipole dipole="0.000000 0.000000 0.000000" charge=0
C	-1.975257	-1.016404	-0.123665	6
C	-0.471007	-0.840284	-0.173425	6
S	-0.008347	0.882006	-0.106225	16
O	-0.473597	1.525596	-1.319475	8
O	-0.370657	1.400396	1.201945	8
C	1.788122	0.811816	-0.160865	6
O	2.412792	0.236936	0.994865	8
H	-2.235917	-2.078014	-0.171825	1
H	-2.460337	-0.506944	-0.962395	1
H	-2.389807	-0.604304	0.801905	1
H	-0.068617	-1.251854	-1.103685	1
H	0.000313	-1.342404	0.676325	1
H	2.147413	1.839216	-0.270195	1
H	2.078093	0.239296	-1.045685	1
H	2.026813	0.704946	1.762395	1
Es	-2.130983	-1.731622	-0.156841	99
Es	2.136825	0.465096	0.557085	99
Es	1.962433	0.423495	-0.753806	99
Es	-2.245135	-0.742054	0.502247	99
Es	-0.370579	1.400245	1.201651	99
Es	-0.008364	0.882122	-0.106073	99
Es	-0.473500	1.525423	-1.319195	99
Es	1.998304	1.503355	-0.236159	99
Es	-0.149487	-1.158224	0.395627	99
Es	2.323007	-0.048156	1.009236	99
Es	-1.197226	-0.898620	-0.148856	99
Es	2.688792	0.317062	0.961364	99
Es	-0.641010	1.347178	1.166115	99
Es	-0.282644	1.306842	-0.853273	99
Es	-0.250482	1.641511	1.121581	99
Es	0.953675	0.828880	-0.125815	99
Es	-0.254392	-0.038631	-0.141943	99
Es	-0.722160	1.448957	-1.206187	99
Es	-0.264197	1.224745	0.695100	99
Es	-2.293530	-0.676217	-0.692287	99
Es	-0.322206	1.309907	-1.491703	99
Es	2.412573	0.237171	0.994867	99
Es	-0.470994	-0.840141	-0.173425	99
Es	-0.167218	1.174646	1.312433	99
Es	1.788060	0.811702	-0.160645	99
Es	2.204388	0.495095	1.393862	99
Es	-0.035992	0.836724	-0.221985	99
Es	-1.975151	-1.016402	-0.123669	99
Es	-0.366329	1.769432	-1.240514	99
Es	0.042880	0.801405	-0.036201	99
Es	0.061732	0.969209	-0.113631	99
Es	-0.101918	0.920559	-0.053211	99
Es	-0.191820	-1.097856	-0.799616	99
48
Properties=species:S:1:pos:R:3:Z:I:1 energy=-740.4758853297742 field_type=dipole dipole="0.000000 0.000000 0.000000" charge=0
C	-1.975257	-1.016404	-0.123665	6
C	-0.471007	-0.840284	-0.173425	6
S	-0.008347	0.882006	-0.106225	16
O	-0.473597	1.525596	-1.319475	8
O	-0.370657	1.400396	1.201945	8
C	1.788122	0.811816	-0.160865	6
O	2.412792	0.236936	0.994865	8
H	-2.235917	-2.078014	-0.171825	1
H	-2.460337	-0.506944	-0.962395	1
H	-2.389807	-0.604304	0.801905	1
H	-0.068617	-1.251854	-1.103685	1
H	0.000313	-1.342404	0.676325	1
H	2.147413	1.839216	-0.270195	1
H	2.078093	0.239296	-1.045685	1
H	2.026813	0.704946	1.762395	1
Es	-2.130540	-1.731179	-0.156833	99
Es	-0.094896	0.813318	-0.097619	99
Es	-2.245218	-0.742217	0.502644	99
Es	-0.714997	1.440441	-1.202495	99
Es	-0.254776	-0.038873	-0.141983	99
Es	0.085029	0.816345	-0.107547	99
Es	-0.639159	1.344327	1.173587	99
Es	-0.321694	1.308173	-1.492652	99
Es	1.997845	1.503129	-0.235935	99
Es	-0.473505	1.525468	-1.319260	99
Es	1.788060	0.811701	-0.160641	99
Es	-0.017202	0.943844	-0.212607	99
Es	2.326472	-0.047076	1.006985	99
Es	-1.975153	-1.016399	-0.123669	99
Es	2.686171	0.318128	0.962482	99
Es	-0.470995	-0.840142	-0.173425	99
Es	2.412559	0.237227	0.994851	99
Es	-2.293589	-0.676323	-0.692741	99
Es	-0.006179	0.954738	-0.007109	99
Es	2.137772	0.465843	0.556213	99
Es	-0.269256	1.222172	0.694146	99
Es	1.962632	0.423590	-0.754205	99
Es	-0.191889	-1.097838	-0.800018	99
Es	-0.278764	1.314412	-0.850436	99
Es	-0.377839	1.772049	-1.246095	99
Es	0.953876	0.828871	-0.125830	99
Es	-1.197125	-0.898562	-0.148771	99
Es	-0.008448	0.881782	-0.106231	99
Es	-0.154872	1.185089	1.316716	99
Es	-0.259542	1.636356	1.110720	99
Es	-0.370572	1.400363	1.201769	99
Es	2.202615	0.492257	1.396091	99
Es	-0.149469	-1.158181	0.396031	99
48
Properties=species:S:1:pos:R:3:Z:I:1 energy=-740.4758853297742 field_type=dipole dipole="0.000000 0.000000 0.000000" charge=0
C	-1.975257	-1.016404	-0.123665	6
C	-0.471007	-0.840284	-0.173425	6
S	-0.008347	0.882006	-0.106225	16
O	-0.473597	1.525596	-1.319475	8
O	-0.370657	1.400396	1.201945	8
C	1.788122	0.811816	-0.160865	6
O	2.412792	0.236936	0.994865	8
H	-2.235917	-2.078014	-0.171825	1
H	-2.460337	-0.506944	-0.962395	1
H	-2.389807	-0.604304	0.801905	1
H	-0.068617	-1.251854	-1.103685	1
H	0.000313	-1.342404	0.676325	1
H	2.147413	1.839216	-0.270195	1
H	2.078093	0.239296	-1.045685	1
H	2.026813	0.704946	1.762395	1
Es	1.788061	0.811707	-0.160638	99
Es	-0.278806	1.305327	-0.853946	99
Es	2.325783	-0.046221	1.008612	99
Es	-1.975152	-1.016399	-0.123669	99
Es	-0.008731	0.882008	-0.106202	99
Es	-0.716220	1.443079	-1.202830	99
Es	0.056927	0.793271	-0.087721	99
Es	-1.196863	-0.898560	-0.148946	99
Es	-0.377743	1.765138	-1.230438	99
Es	0.010757	0.924001	-0.222070	99
Es	-0.633752	1.345988	1.152760	99
Es	-0.470993	-0.840141	-0.173426	99
Es	-0.262434	1.637207	1.113879	99
Es	-2.293732	-0.676434	-0.692896	99
Es	0.017174	0.964700	-0.022540	99
Es	1.962806	0.423673	-0.754348	99
Es	-0.117827	0.846061	-0.092601	99
Es	2.412551	0.237270	0.994849	99
Es	-0.320562	1.321526	-1.504540	99
Es	2.204204	0.493920	1.395765	99
Es	-0.169576	1.183822	1.333722	99
Es	2.137175	0.464792	0.555376	99
Es	-0.191948	-1.097842	-0.800206	99
Es	-0.257063	1.221047	0.694902	99
Es	2.685807	0.316621	0.962069	99
Es	-0.370574	1.400279	1.201674	99
Es	0.953871	0.828924	-0.125886	99
Es	-2.245158	-0.742250	0.502847	99
Es	-0.255080	-0.039037	-0.142077	99
Es	-0.149441	-1.158133	0.396399	99
Es	-2.130383	-1.730925	-0.156767	99
Es	-0.473466	1.525446	-1.319186	99
Es	1.997741	1.502972	-0.235789	99
48
Properties=species:S:1:pos:R:3:Z:I:1 energy=-740.4758853297742 field_type=dipole dipole="0.000000 0.000000 0.000000" charge=0
C	-1.975257	-1.016404	-0.123665	6
C	-0.471007	-0.840284	-0.173425	6
S	-0.008347	0.882006	-0.106225	16
O	-0.473597	1.525596	-1.319475	8
O	-0.370657	1.400396	1.201945	8
C	1.788122	0.811816	-0.160865	6
O	2.412792	0.236936	0.994865	8
H	-2.235917	-2.078014	-0.171825	1
H	-2.460337	-0.506944	-0.962395	1
H	-2.389807	-0.604304	0.801905	1
H	-0.068617	-1.251854	-1.103685	1
H	0.000313	-1.342404	0.676325	1
H	2.147413	1.839216	-0.270195	1
H	2.078093	0.239296	-1.045685	1
H	2.026813	0.704946	1.762395	1
Es	2.203634	0.493957	1.395588	99
Es	0.954006	0.828964	-0.125815	99
Es	-0.278283	1.304458	-0.853949	99
Es	-0.470994	-0.840143	-0.173424	99
Es	-0.087478	0.890806	-0.205670	99
Es	-0.008112	0.881997	-0.106455	99
Es	1.962690	0.423501	-0.754381	99
Es	0.083499	0.832487	-0.136601	99
Es	-0.636928	1.363258	1.148856	99
Es	-1.975152	-1.016400	-0.123669	99
Es	-0.053380	0.823105	-0.006468	99
Es	-1.197082	-0.898577	-0.148807	99
Es	1.997732	1.503072	-0.235834	99
Es	-0.371386	1.761219	-1.231440	99
Es	-2.130272	-1.730884	-0.156867	99
Es	0.023805	0.981664	-0.075935	99
Es	-0.473510	1.525504	-1.319305	99
Es	-0.149554	-1.158061	0.396284	99
Es	-0.331545	1.317358	-1.510366	99
Es	2.137384	0.464635	0.555446	99
Es	-0.251916	1.627018	1.100812	99
Es	1.788061	0.811701	-0.160643	99
Es	-0.370553	1.400238	1.201661	99
Es	-0.255005	-0.039082	-0.141954	99
Es	-2.245239	-0.742177	0.503043	99
Es	2.684055	0.318972	0.962230	99
Es	-0.191891	-1.097935	-0.800352	99
Es	-0.256691	1.209564	0.699322	99
Es	2.412590	0.237214	0.994855	99
Es	-0.712076	1.451988	-1.195881	99
Es	-0.177348	1.188208	1.346297	99
Es	2.327845	-0.048322	1.008554	99
Es	-2.293553	-0.676470	-0.692995	99
48
Properties=species:S:1:pos:R:3:Z:I:1 energy=-740.4758853297742 field_type=dipole dipole="0.000000 0.000000 0.000000" charge=0
C	-1.975257	-1.016404	-0.123665	6
C	-0.471007	-0.840284	-0.173425	6
S	-0.008347	0.882006	-0.106225	16
O	-0.473597	1.525596	-1.319475	8
O	-0.370657	1.400396	1.201945	8
C	1.788122	0.811816	-0.160865	6
O	2.412792	0.236936	0.994865	8
H	-2.235917	-2.078014	-0.171825	1
H	-2.460337	-0.506944	-0.962395	1
H	-2.389807	-0.604304	0.801905	1
H	-0.068617	-1.251854	-1.103685	1
H	0.000313	-1.342404	0.676325	1
H	2.147413	1.839216	-0.270195	1
H	2.078093	0.239296	-1.045685	1
H	2.026813	0.704946	1.762395	1
Es	-0.008348	0.882006	-0.106230	99
Es	-0.329422	1.322629	-1.514009	99
Es	-0.273773	1.637797	1.115039	99
Es	2.412501	0.237162	0.994866	99
Es	-0.370577	1.400307	1.201719	99
Es	-0.149476	-1.158295	0.396378	99
Es	1.997702	1.502979	-0.235898	99
Es	-0.470994	-0.840143	-0.173425	99
Es	-0.473486	1.525463	-1.319220	99
Es	2.325902	-0.044924	1.008724	99
Es	-0.369881	1.757428	-1.225059	99
Es	0.050554	0.834181	-0.006496	99
Es	0.009018	0.817954	-0.210073	99
Es	-0.630601	1.336784	1.146839	99
Es	-0.282243	1.299928	-0.853387	99
Es	-1.196920	-0.898529	-0.148810	99
Es	-0.255090	-0.039126	-0.141900	99
Es	0.024473	0.988439	-0.122697	99
Es	-0.167728	1.188873	1.339194	99
Es	1.788060	0.811703	-0.160645	99
Es	-2.293702	-0.676532	-0.693186	99
Es	1.962666	0.423559	-0.754360	99
Es	-0.711748	1.455069	-1.199281	99
Es	-1.975151	-1.016399	-0.123669	99
Es	0.954027	0.828999	-0.125831	99
Es	-0.192057	-1.097736	-0.800456	99
Es	-2.245195	-0.742240	0.503017	99
Es	-0.250704	1.224512	0.694178	99
Es	-0.117369	0.887411	-0.085676	99
Es	2.203440	0.493766	1.395825	99
Es	-2.130236	-1.730650	-0.156694	99
Es	2.137466	0.464186	0.554854	99
Es	2.686244	0.316272	0.962503	99
48
Properties=species:S:1:pos:R:3:Z:I:1 energy=-740.4758853297742 field_type=dipole dipole="0.000000 0.000000 0.000000" charge=0
C	-1.975257	-1.016404	-0.123665	6
C	-0.471007	-0.840284	-0.173425	6
S	-0.008347	0.882006	-0.106225	16
O	-0.473597	1.525596	-1.319475	8
O	-0.370657	1.400396	1.201945	8
C	1.788122	0.811816	-0.160865	6
O	2.412792	0.236936	0.994865	8
H	-2.235917	-2.078014	-0.171825	1
H	-2.460337	-0.506944	-0.962395	1
H	-2.389807	-0.604304	0.801905	1
H	-0.068617	-1.251854	-1.103685	1
H	0.000313	-1.342404	0.676325	1
H	2.147413	1.839216	-0.270195	1
H	2.078093	0.239296	-1.045685	1
H	2.026813	0.704946	1.762395	1
Es	-0.711378	1.459851	-1.194819	99
Es	1.962669	0.423582	-0.754350	99
Es	0.034124	0.834157	-0.214329	99
Es	-2.293718	-0.676430	-0.693146	99
Es	-0.008348	0.882005	-0.106225	99
Es	-2.130158	-1.730625	-0.156835	99
Es	1.788060	0.811699	-0.160642	99
Es	2.412592	0.237267	0.994864	99
Es	-0.470992	-0.840144	-0.173421	99
Es	-0.251970	1.217869	0.696447	99
Es	-0.370566	1.400245	1.201671	99
Es	-0.473435	1.525415	-1.319173	99
Es	-0.191983	-1.097816	-0.800416	99
Es	-0.262560	1.633918	1.110217	99
Es	-2.245228	-0.742408	0.503102	99
Es	2.137986	0.465460	0.555292	99
Es	2.323965	-0.044419	1.008047	99
Es	-0.280186	1.295259	-0.856368	99
Es	-0.254982	-0.039157	-0.141909	99
Es	0.069672	0.870871	-0.008916	99
Es	-0.104530	0.834660	-0.080927	99
Es	0.954009	0.829044	-0.125870	99
Es	2.686688	0.314270	0.962213	99
Es	-0.178844	1.184982	1.347929	99
Es	2.204291	0.493836	1.396337	99
Es	-1.196991	-0.898452	-0.148829	99
Es	-0.032608	0.988335	-0.120740	99
Es	-0.149588	-1.158259	0.396373	99
Es	-0.629448	1.351236	1.140699	99
Es	-0.335865	1.326306	-1.519773	99
Es	-1.975149	-1.016398	-0.123669	99
Es	1.997742	1.502993	-0.235875	99
Es	-0.365918	1.753684	-1.220826	99
48
Properties=species:S:1:pos:R:3:Z:I:1 energy=-740.4758853297742 field_type=dipole dipole="0.000000 0.000000 0.000000" charge=0
C	-1.975257	-1.016404	-0.123665	6
C	-0.471007	-0.840284	-0.173425	6
S	-0.008347	0.882006	-0.106225	16
O	-0.473597	1.525596	-1.319475	8
O	-0.370657	1.400396	1.201945	8
C	1.788122	0.811816	-0.160865	6
O	2.412792	0.236936	0.994865	8
H	-2.235917	-2.078014	-0.171825	1
H	-2.460337	-0.506944	-0.962395	1
H	-2.389807	-0.604304	0.801905	1
H	-0.068617	-1.251854	-1.103685	1
H	0.000313	-1.342404	0.676325	1
H	2.147413	1.839216	-0.270195	1
H	2.078093	0.239296	-1.045685	1
H	2.026813	0.704946	1.762395	1
Es	2.685755	0.315275	0.962118	99
Es	0.954006	0.828977	-0.125945	99
Es	1.962704	0.423642	-0.754319	99
Es	2.137567	0.465064	0.555081	99
Es	0.069112	0.846920	-0.017283	99
Es	-0.364142	1.752376	-1.219459	99
Es	2.325296	-0.044589	1.008081	99
Es	-0.703407	1.463241	-1.185442	99
Es	-0.349022	1.327227	-1.527924	99
Es	-0.008296	0.882055	-0.106207	99
Es	-2.130120	-1.730371	-0.156879	99
Es	-0.103067	0.830985	-0.090094	99
Es	2.204327	0.493493	1.396648	99
Es	-0.255044	-0.039310	-0.141991	99
Es	-1.197061	-0.898538	-0.148976	99
Es	-0.632597	1.345921	1.154800	99
Es	0.032276	0.857131	-0.222827	99
Es	-0.166306	1.186078	1.335038	99
Es	-0.473478	1.525512	-1.319258	99
Es	-0.370602	1.400359	1.201906	99
Es	-2.245263	-0.742495	0.503255	99
Es	2.412560	0.237145	0.994852	99
Es	1.788060	0.811700	-0.160640	99
Es	-2.293724	-0.676450	-0.693237	99
Es	-0.031698	0.992932	-0.094718	99
Es	-0.149546	-1.158251	0.396530	99
Es	-0.265120	1.633626	1.112084	99
Es	-0.191906	-1.097723	-0.800366	99
Es	-0.258768	1.222251	0.693149	99
Es	-0.276716	1.292170	-0.858871	99
Es	-1.975150	-1.016396	-0.123670	99
Es	1.997717	1.503024	-0.235879	99
Es	-0.470995	-0.840146	-0.173425	99
48
Properties=species:S:1:pos:R:3:Z:I:1 energy=-740.4758853297742 field_type=dipole dipole="0.000000 0.000000 0.000000" charge=0
C	-1.975257	-1.016404	-0.123665	6
C	-0.471007	-0.840284	-0.173425	6
S	-0.008347	0.882006	-0.106225	16
O	-0.473597	1.525596	-1.319475	8
O	-0.370657	1.400396	1.201945	8
C	1.788122	0.811816	-0.160865	6
O	2.412792	0.236936	0.994865	8
H	-2.235917	-2.078014	-0.171825	1
H	-2.460337	-0.506944	-0.962395	1
H	-2.389807	-0.604304	0.801905	1
H	-0.068617	-1.251854	-1.103685	1
H	0.000313	-1.342404	0.676325	1
H	2.147413	1.839216	-0.270195	1
H	2.078093	0.239296	-1.045685	1
H	2.026813	0.704946	1.762395	1
Es	2.204339	0.493600	1.396861	99
Es	-2.293754	-0.676530	-0.693325	99
Es	-0.149461	-1.158215	0.396685	99
Es	-1.975153	-1.016400	-0.123669	99
Es	-0.629359	1.352464	1.138682	99
Es	-0.107682	0.870431	-0.177204	99
Es	-0.370533	1.400307	1.201626	99
Es	2.412592	0.237152	0.994867	99
Es	-2.245197	-0.742422	0.503382	99
Es	0.041647	0.979960	-0.129405	99
Es	-0.707481	1.459826	-1.193144	99
Es	0.954057	0.829045	-0.125852	99
Es	-0.031020	0.872110	0.018154	99
Es	2.325305	-0.043371	1.008358	99
Es	2.686232	0.314826	0.961814	99
Es	-0.180766	1.185833	1.350388	99
Es	-0.280219	1.300976	-0.853086	99
Es	-0.338835	1.318461	-1.517011	99
Es	-2.130069	-1.730260	-0.156824	99
Es	-0.473490	1.525469	-1.319234	99
Es	0.063712	0.805580	-0.136444	99
Es	-0.008363	0.881987	-0.106215	99
Es	-0.255154	-0.039640	-0.141932	99
Es	-0.191959	-1.097632	-0.800688	99
Es	2.137099	0.464295	0.554918	99
Es	-0.470994	-0.840143	-0.173425	99
Es	-0.366775	1.755779	-1.228493	99
Es	-1.196992	-0.898458	-0.148954	99
Es	1.997531	1.502842	-0.235782	99
Es	1.788062	0.811700	-0.160645	99
Es	-0.249914	1.217866	0.696192	99
Es	-0.262820	1.631779	1.110079	99
Es	1.962767	0.423616	-0.754539	99
48
Properties=species:S:1:pos:R:3:Z:I:1 energy=-740.4758853297742 field_type=dipole dipole="0.000000 0.000000 0.000000" charge=0
C	-1.975257	-1.016404	-0.123665	6
C	-0.471007	-0.840284	-0.173425	6
S	-0.008347	0.882006	-0.106225	16
O	-0.473597	1.525596	-1.319475	8
O	-0.370657	1.400396	1.201945	8
C	1.788122	0.811816	-0.160865	6
O	2.412792	0.236936	0.994865	8
H	-2.235917	-2.078014	-0.171825	1
H	-2.460337	-0.506944	-0.962395	1
H	-2.389807	-0.604304	0.801905	1
H	-0.068617	-1.251854	-1.103685	1
H	0.000313	-1.342404	0.676325	1
H	2.147413	1.839216	-0.270195	1
H	2.078093	0.239296	-1.045685	1
H	2.026813	0.704946	1.762395	1
Es	1.788060	0.811702	-0.160643	99
Es	2.137741	0.464792	0.554710	99
Es	-2.245302	-0.742407	0.503424	99
Es	-0.370592	1.400330	1.201734	99
Es	-0.705628	1.484240	-1.179056	99
Es	-0.191993	-1.097851	-0.800656	99
Es	1.997659	1.502988	-0.235864	99
Es	2.412600	0.237116	0.994851	99
Es	2.325864	-0.045237	1.008570	99
Es	1.962677	0.423536	-0.754421	99
Es	-1.196924	-0.898499	-0.148852	99
Es	-0.149638	-1.158198	0.396567	99
Es	0.101356	0.911999	-0.113060	99
Es	-0.183211	1.185597	1.351502	99
Es	2.204591	0.494094	1.396458	99
Es	-0.008323	0.882024	-0.106182	99
Es	-0.248033	1.217190	0.696904	99
Es	-0.008743	0.777159	-0.123467	99
Es	-0.632256	1.356882	1.137784	99
Es	-0.470995	-0.840146	-0.173426	99
Es	2.684701	0.315702	0.962215	99
Es	-0.473498	1.525453	-1.319242	99
Es	-2.130118	-1.730392	-0.157028	99
Es	-2.293550	-0.676445	-0.693204	99
Es	-0.365437	1.317430	-1.526889	99
Es	-0.278128	1.289432	-0.859943	99
Es	-0.344087	1.743947	-1.225841	99
Es	-0.054361	0.903998	0.009700	99
Es	-0.259323	1.628218	1.109065	99
Es	-0.255064	-0.039382	-0.141928	99
Es	0.954075	0.829112	-0.125868	99
Es	-0.071616	0.934852	-0.198110	99
Es	-1.975151	-1.016399	-0.123669	99
48
Properties=species:S:1:pos:R:3:Z:I:1 energy=-740.4758853297742 field_type=dipole dipole="0.000000 0.000000 0.000000" charge=0
C	-1.975257	-1.016404	-0.123665	6
C	-0.471007	-0.840284	-0.173425	6
S	-0.008347	0.882006	-0.106225	16
O	-0.473597	1.525596	-1.319475	8
O	-0.370657	1.400396	1.201945	8
C	1.788122	0.811816	-0.160865	6
O	2.412792	0.236936	0.994865	8
H	-2.235917	-2.078014	-0.171825	1
H	-2.460337	-0.506944	-0.962395	1
H	-2.389807	-0.604304	0.801905	1
H	-0.068617	-1.251854	-1.103685	1
H	0.000313	-1.342404	0.676325	1
H	2.147413	1.839216	-0.270195	1
H	2.078093	0.239296	-1.045685	1
H	2.026813	0.704946	1.762395	1
Es	-0.335063	1.338266	-1.530057	99
Es	0.954089	0.828969	-0.126006	99
Es	-0.058131	0.787940	-0.100938	99
Es	-2.293716	-0.676673	-0.693296	99
Es	-0.629868	1.357014	1.140573	99
Es	-0.257500	1.631019	1.111941	99
Es	2.137447	0.464631	0.554547	99
Es	-0.252510	1.218282	0.695354	99
Es	0.095743	0.857799	-0.145085	99
Es	-0.002359	0.930707	0.010059	99
Es	-2.245301	-0.742311	0.503254	99
Es	-1.975152	-1.016401	-0.123669	99
Es	-0.385265	1.754208	-1.215006	99
Es	-0.370550	1.400250	1.201665	99
Es	2.412543	0.237177	0.994854	99
Es	-2.130032	-1.730414	-0.156757	99
Es	-0.255074	-0.039363	-0.142014	99
Es	-0.470994	-0.840142	-0.173425	99
Es	-1.197062	-0.898414	-0.148807	99
Es	-0.703321	1.443219	-1.187603	99
Es	-0.149444	-1.158183	0.396475	99
Es	1.788060	0.811703	-0.160643	99
Es	-0.473476	1.525440	-1.319220	99
Es	-0.182877	1.181649	1.347451	99
Es	1.997766	1.503244	-0.236036	99
Es	-0.068737	0.951785	-0.188803	99
Es	-0.269626	1.299335	-0.859091	99
Es	-0.192082	-1.097812	-0.800504	99
Es	2.325819	-0.043258	1.007993	99
Es	2.685360	0.314723	0.962149	99
Es	2.204341	0.493141	1.397286	99
Es	-0.008205	0.881777	-0.106349	99
Es	1.962531	0.423528	-0.754161	99
48
Properties=species:S:1:pos:R:3:Z:I:1 energy=-740.4758853297742 field_type=dipole dipole="0.000000 0.000000 0.000000" charge=0
C	-1.975257	-1.016404	-0.123665	6
C	-0.471007	-0.840284	-0.173425	6
S	-0.008347	0.882006	-0.106225	16
O	-0.473597	1.525596	-1.319475	8
O	-0.370657	1.400396	1.201945	8
C	1.788122	0.811816	-0.160865	6
O	2.412792	0.236936	0.994865	8
H	-2.235917	-2.078014	-0.171825	1
H	-2.460337	-0.506944	-0.962395	1
H	-2.389807	-0.604304	0.801905	1
H	-0.068617	-1.251854	-1.103685	1
H	0.000313	-1.342404	0.676325	1
H	2.147413	1.839216	-0.270195	1
H	2.078093	0.239296	-1.045685	1
H	2.026813	0.704946	1.762395	1
Es	-0.280138	1.301077	-0.853637	99
Es	-0.034639	0.903173	-0.107575	99
Es	2.204024	0.492580	1.397188	99
Es	-2.129896	-1.730303	-0.156534	99
Es	-0.149318	-1.158385	0.396975	99
Es	2.137608	0.465218	0.554891	99
Es	1.788061	0.811702	-0.160640	99
Es	-1.975152	-1.016399	-0.123669	99
Es	-0.255343	-0.039639	-0.142079	99
Es	0.030828	0.910814	0.017559	99
Es	-0.470994	-0.840145	-0.173426	99
Es	-2.293828	-0.676234	-0.693795	99
Es	-0.331730	1.321379	-1.513767	99
Es	2.412461	0.237166	0.994860	99
Es	-0.072158	0.785261	-0.118627	99
Es	-0.165000	1.194953	1.347054	99
Es	-0.632556	1.351492	1.152493	99
Es	-2.244814	-0.742465	0.503353	99
Es	-0.709514	1.452692	-1.196942	99
Es	-0.370646	1.400358	1.201814	99
Es	-1.197023	-0.898670	-0.148837	99
Es	-0.258400	1.216492	0.695020	99
Es	1.962850	0.423817	-0.755166	99
Es	-0.372062	1.760025	-1.227283	99
Es	-0.192191	-1.097484	-0.800788	99
Es	-0.266854	1.625123	1.100537	99
Es	2.327847	-0.045698	1.007522	99
Es	0.051789	0.921138	-0.215561	99
Es	2.683715	0.317069	0.962308	99
Es	-0.017504	0.889638	-0.106928	99
Es	0.954057	0.829530	-0.125519	99
Es	-0.473505	1.525473	-1.319263	99
Es	1.997378	1.502088	-0.235406	99
48
Properties=species:S:1:pos:R:3:Z:I:1 energy=-740.4758853297742 field_type=dipole dipole="0.000000 0.000000 0.000000" charge=0
C	-1.975257	-1.016404	-0.123665	6
C	-0.471007	-0.840284	-0.173425	6
S	-0.008347	0.882006	-0.106225	16
O	-0.473597	1.525596	-1.319475	8
O	-0.370657	1.400396	1.201945	8
C	1.788122	0.811816	-0.160865	6
O	2.412792	0.236936	0.994865	8
H	-2.235917	-2.078014	-0.171825	1
H	-2.460337	-0.506944	-0.962395	1
H	-2.389807	-0.604304	0.801905	1
H	-0.068617	-1.251854	-1.103685	1
H	0.000313	-1.342404	0.676325	1
H	2.147413	1.839216	-0.270195	1
H	2.078093	0.239296	-1.045685	1
H	2.026813	0.704946	1.762395	1
Es	2.683120	0.317499	0.963147	99
Es	-0.630729	1.348824	1.146384	99
Es	1.788061	0.811703	-0.160642	99
Es	-0.007263	0.882546	-0.106277	99
Es	-0.704607	1.458274	-1.188959	99
Es	1.997430	1.502801	-0.235734	99
Es	-0.253372	1.214285	0.696397	99
Es	-0.149594	-1.158240	0.396667	99
Es	-2.245243	-0.742384	0.503527	99
Es	-2.293587	-0.676524	-0.693555	99
Es	0.954180	0.829131	-0.125846	99
Es	-0.169052	1.197595	1.352261	99
Es	-0.013079	0.818160	-0.000825	99
Es	0.099534	0.914779	-0.128097	99
Es	2.328134	-0.045962	1.007433	99
Es	-0.370611	1.400352	1.201829	99
Es	-0.369644	1.752369	-1.217629	99
Es	-0.056592	0.821470	-0.203925	99
Es	-0.064262	0.973088	-0.092011	99
Es	2.138520	0.465375	0.554444	99
Es	1.962775	0.423601	-0.754660	99
Es	-0.277285	1.294245	-0.857660	99
Es	-0.269631	1.627176	1.100128	99
Es	-0.470994	-0.840142	-0.173425	99
Es	2.412622	0.237110	0.994859	99
Es	2.203119	0.492493	1.397006	99
Es	-1.975148	-1.016397	-0.123668	99
Es	-0.255208	-0.039319	-0.141972	99
Es	-0.192088	-1.097831	-0.800680	99
Es	-2.129869	-1.730256	-0.156845	99
Es	-0.473494	1.525445	-1.319214	99
Es	-0.341739	1.330161	-1.527526	99
Es	-1.197051	-0.898590	-0.148802	99
48
Properties=species:S:1:pos:R:3:Z:I:1 energy=-740.4758853297742 field_type=dipole dipole="0.000000 0.000000 0.000000" charge=0
C	-1.975257	-1.016404	-0.123665	6
C	-0.471007	-0.840284	-0.173425	6
S	-0.008347	0.882006	-0.106225	16
O	-0.473597	1.525596	-1.319475	8
O	-0.370657	1.400396	1.201945	8
C	1.788122	0.811816	-0.160865	6
O	2.412792	0.236936	0.994865	8
H	-2.235917	-2.078014	-0.171825	1
H	-2.460337	-0.506944	-0.962395	1
H	-2.389807	-0.604304	0.801905	1
H	-0.068617	-1.251854	-1.103685	1
H	0.000313	-1.342404	0.676325	1
H	2.147413	1.839216	-0.270195	1
H	2.078093	0.239296	-1.045685	1
H	2.026813	0.704946	1.762395	1
Es	-0.184237	1.187578	1.356824	99
Es	-0.705141	1.463969	-1.186366	99
Es	-1.196814	-0.898391	-0.148950	99
Es	-0.149511	-1.158172	0.396624	99
Es	-0.248526	1.215773	0.696966	99
Es	-0.031621	0.897992	-0.232987	99
Es	2.136256	0.463489	0.554789	99
Es	0.079110	0.925968	-0.084525	99
Es	-0.008364	0.881958	-0.106238	99
Es	0.010922	0.775665	-0.080638	99
Es	-0.626154	1.353709	1.134078	99
Es	0.953964	0.828971	-0.126017	99
Es	-1.975152	-1.016399	-0.123669	99
Es	-0.347159	1.324991	-1.526492	99
Es	1.997665	1.503016	-0.235978	99
Es	2.204763	0.493858	1.396858	99
Es	2.412518	0.237196	0.994855	99
Es	-2.130038	-1.730175	-0.156632	99
Es	-0.363990	1.750779	-1.221554	99
Es	-2.245408	-0.742488	0.503090	99
Es	-0.370571	1.400219	1.201590	99
Es	1.788061	0.811702	-0.160641	99
Es	-0.473498	1.525460	-1.319242	99
Es	-0.255182	-0.039420	-0.141988	99
Es	-0.091678	0.928465	-0.026744	99
Es	-0.263880	1.630877	1.107534	99
Es	2.686740	0.314316	0.961455	99
Es	2.325252	-0.042340	1.008930	99
Es	1.962762	0.423645	-0.754218	99
Es	-0.191844	-1.097681	-0.800446	99
Es	-0.276975	1.295218	-0.857360	99
Es	-0.470994	-0.840144	-0.173425	99
Es	-2.293925	-0.676764	-0.693351	99
48
Properties=species:S:1:pos:R:3:Z:I:1 energy=-740.4758853297742 field_type=dipole dipole="0.000000 0.000000 0.000000" charge=0
C	-1.975257	-1.016404	-0.123665	6
C	-0.471007	-0.840284	-0.173425	6
S	-0.008347	0.882006	-0.106225	16
O	-0.473597	1.525596	-1.319475	8
O	-0.370657	1.400396	1.201945	8
C	1.788122	0.811816	-0.160865	6
O	2.412792	0.236936	0.994865	8
H	-2.235917	-2.078014	-0.171825	1
H	-2.460337	-0.506944	-0.962395	1
H	-2.389807	-0.604304	0.801905	1
H	-0.068617	-1.251854	-1.103685	1
H	0.000313	-1.342404	0.676325	1
H	2.147413	1.839216	-0.270195	1
H	2.078093	0.239296	-1.045685	1
H	2.026813	0.704946	1.762395	1
Es	0.071871	0.836366	-0.028557	99
Es	-2.293729	-0.676503	-0.693384	99
Es	0.016281	0.853151	-0.227132	99
Es	-0.192145	-1.097872	-0.800545	99
Es	-1.197008	-0.898533	-0.148815	99
Es	2.686167	0.314732	0.962374	99
Es	-0.473533	1.525504	-1.319285	99
Es	-0.266889	1.629327	1.103936	99
Es	2.325628	-0.042841	1.008457	99
Es	-0.255021	-0.039249	-0.141984	99
Es	-2.245213	-0.742466	0.503418	99
Es	-0.277211	1.294871	-0.857379	99
Es	-1.975144	-1.016401	-0.123670	99
Es	1.962693	0.423581	-0.754522	99
Es	-0.008501	0.882311	-0.106418	99
Es	2.412550	0.237199	0.994847	99
Es	0.954187	0.829039	-0.125859	99
Es	-0.470994	-0.840141	-0.173424	99
Es	1.997516	1.502996	-0.235792	99
Es	-0.191520	1.192717	1.367977	99
Es	-0.358937	1.747908	-1.222956	99
Es	1.788060	0.811701	-0.160643	99
Es	2.203781	0.493406	1.396797	99
Es	-0.240271	1.212769	0.700113	99
Es	2.137375	0.463967	0.554399	99
Es	-0.708047	1.469254	-1.186171	99
Es	-0.115120	0.848815	-0.074974	99
Es	-0.624163	1.353198	1.123274	99
Es	-0.149570	-1.158278	0.396495	99
Es	-0.348999	1.322924	-1.525206	99
Es	-0.370536	1.400239	1.201666	99
Es	-2.129991	-1.730263	-0.156853	99
Es	-0.006214	0.989408	-0.094050	99
48
Properties=species:S:1:pos:R:3:Z:I:1 energy=-740.4758853297742 field_type=dipole dipole="0.000000 0.000000 0.000000" charge=0
C	-1.975257	-1.016404	-0.123665	6
C	-0.471007	-0.840284	-0.173425	6
S	-0.008347	0.882006	-0.106225	16
O	-0.473597	1.525596	-1.319475	8
O	-0.370657	1.400396	1.201945	8
C	1.788122	0.811816	-0.160865	6
O	2.412792	0.236936	0.994865	8
H	-2.235917	-2.078014	-0.171825	1
H	-2.460337	-0.506944	-0.962395	1
H	-2.389807	-0.604304	0.801905	1
H	-0.068617	-1.251854	-1.103685	1
H	0.000313	-1.342404	0.676325	1
H	2.147413	1.839216	-0.270195	1
H	2.078093	0.239296	-1.045685	1
H	2.026813	0.704946	1.762395	1
Es	-0.149589	-1.158325	0.396714	99
Es	0.051329	0.972045	-0.089540	99
Es	-0.361415	1.747953	-1.221207	99
Es	-0.174092	1.188691	1.349143	99
Es	-0.008332	0.882148	-0.106089	99
Es	-0.370636	1.400370	1.201798	99
Es	-0.470994	-0.840142	-0.173425	99
Es	1.788061	0.811699	-0.160643	99
Es	-0.627974	1.352666	1.145408	99
Es	0.052596	0.797104	-0.062043	99
Es	-2.245259	-0.742502	0.503462	99
Es	2.137668	0.464730	0.554428	99
Es	-0.704795	1.468109	-1.191355	99
Es	-2.129873	-1.730277	-0.156880	99
Es	2.326999	-0.043700	1.007623	99
Es	1.997678	1.503020	-0.235927	99
Es	-0.030974	0.865206	-0.232311	99
Es	-2.293718	-0.676519	-0.693426	99
Es	-0.264462	1.628839	1.106532	99
Es	-0.255292	-0.039316	-0.141921	99
Es	-0.256196	1.217614	0.694133	99
Es	1.962631	0.423571	-0.754348	99
Es	-1.975150	-1.016400	-0.123670	99
Es	2.684835	0.315784	0.962745	99
Es	0.954111	0.829079	-0.125941	99
Es	-0.473564	1.525481	-1.319297	99
Es	2.412609	0.237288	0.994842	99
Es	-0.106316	0.893543	-0.041144	99
Es	-1.196904	-0.898460	-0.148932	99
Es	-0.344639	1.324550	-1.525278	99
Es	2.203367	0.492338	1.397245	99
Es	-0.192052	-1.097702	-0.800672	99
Es	-0.282304	1.294351	-0.853891	99
48