43
Properties=species:S:1:pos:R:3:Z:I:1 energy=-661.4690237910766 field_type=dipole dipole="0.000000 0.000000 0.000000" charge=0
N	-2.038791	-0.532412	0.118158	7
C	-0.684101	-0.586942	0.081778	6
C	0.194779	0.473328	-0.028122	6
N	-0.195391	1.769048	-0.070712	7
C	1.551419	0.062328	-0.084422	6
C	1.672679	-1.307212	0.007568	6
S	0.151509	-2.078432	0.156368	16
H	-2.474831	0.262738	-0.339422	1
H	-2.532581	-1.401522	-0.058042	1
H	0.484899	2.504728	0.093228	1
H	-1.109871	2.003148	0.306048	1
H	2.400309	0.725818	-0.180092	1
H	2.579969	-1.894612	-0.002332	1
Es	-0.159869	-0.070521	0.341977	99
Es	1.574076	-0.652441	-0.349929	99
Es	0.135449	-2.201428	0.599795	99
Es	0.235499	-2.076568	0.075572	99
Es	0.947655	-1.705396	0.078212	99
Es	-0.187615	-0.109533	-0.291584	99
Es	-2.034906	-0.474015	0.410096	99
Es	0.049921	-2.113112	0.106903	99
Es	2.116957	0.520784	-0.148446	99
Es	-0.238987	1.747567	-0.354869	99
Es	0.182615	-2.151991	0.242092	99
Es	1.672543	-1.307360	0.007591	99
Es	-0.684214	-0.587113	0.081800	99
Es	-2.276509	-0.069460	-0.182663	99
Es	0.884399	0.315705	-0.059703	99
Es	-2.038550	-0.532509	0.117567	99
Es	-0.320609	-1.314062	0.120593	99
Es	2.271680	-1.709394	0.003276	99
Es	-0.730326	1.893684	0.185497	99
Es	0.151470	-2.078946	0.156260	99
Es	-1.451851	-0.571857	0.041905	99
Es	0.194737	0.473469	-0.028139	99
Es	-0.195275	1.768822	-0.070046	99
Es	1.551424	0.062366	-0.084447	99
Es	0.138801	-1.968996	0.200753	99
Es	-0.019604	1.218478	0.014189	99
Es	1.608629	-0.608663	0.275521	99
Es	-2.315700	-1.049686	-0.012945	99
Es	0.080374	-2.281913	-0.258050	99
Es	0.217507	2.188744	0.058566	99
43
Properties=species:S:1:pos:R:3:Z:I:1 energy=-661.4690237910766 field_type=dipole dipole="0.000000 0.000000 0.000000" charge=0
N	-2.038791	-0.532412	0.118158	7
C	-0.684101	-0.586942	0.081778	6
C	0.194779	0.473328	-0.028122	6
N	-0.195391	1.769048	-0.070712	7
C	1.551419	0.062328	-0.084422	6
C	1.672679	-1.307212	0.007568	6
S	0.151509	-2.078432	0.156368	16
H	-2.474831	0.262738	-0.339422	1
H	-2.532581	-1.401522	-0.058042	1
H	0.484899	2.504728	0.093228	1
H	-1.109871	2.003148	0.306048	1
H	2.400309	0.725818	-0.180092	1
H	2.579969	-1.894612	-0.002332	1
Es	0.194738	0.473479	-0.028151	99
Es	0.229671	-1.931454	0.349336	99
Es	-0.233622	1.738578	-0.311935	99
Es	-1.445902	-0.570036	0.052537	99
Es	0.151404	-2.078064	0.156173	99
Es	-2.038481	-0.532522	0.117471	99
Es	1.672541	-1.307366	0.007597	99
Es	2.118394	0.521217	-0.150884	99
Es	-0.018887	1.212344	0.005970	99
Es	-0.195234	1.768531	-0.069977	99
Es	2.272382	-1.708495	0.004418	99
Es	-0.159170	-0.072402	0.341030	99
Es	0.231148	-2.081633	0.070248	99
Es	-0.328676	-1.316775	0.103047	99
Es	1.551419	0.062361	-0.084421	99
Es	-2.024806	-0.479590	0.370615	99
Es	-0.738933	1.897942	0.172541	99
Es	0.884082	0.313305	-0.066071	99
Es	-0.684215	-0.587129	0.081813	99
Es	0.204078	-2.041885	0.242614	99
Es	1.575224	-0.650414	-0.344994	99
Es	0.220017	2.200349	0.035476	99
Es	0.108169	-2.191404	0.180969	99
Es	1.607010	-0.608325	0.273398	99
Es	-0.009706	-2.541733	0.039930	99
Es	0.952410	-1.713630	0.051601	99
Es	-2.283141	-0.060569	-0.171708	99
Es	-0.190407	-0.107788	-0.286978	99
Es	0.063343	-1.997364	0.129709	99
Es	-2.325132	-1.054872	0.005970	99
43
Properties=species:S:1:pos:R:3:Z:I:1 energy=-661.4690237910766 field_type=dipole dipole="0.000000 0.000000 0.000000" charge=0
N	-2.038791	-0.532412	0.118158	7
C	-0.684101	-0.586942	0.081778	6
C	0.194779	0.473328	-0.028122	6
N	-0.195391	1.769048	-0.070712	7
C	1.551419	0.062328	-0.084422	6
C	1.672679	-1.307212	0.007568	6
S	0.151509	-2.078432	0.156368	16
H	-2.474831	0.262738	-0.339422	1
H	-2.532581	-1.401522	-0.058042	1
H	0.484899	2.504728	0.093228	1
H	-1.109871	2.003148	0.306048	1
H	2.400309	0.725818	-0.180092	1
H	2.579969	-1.894612	-0.002332	1
Es	0.151922	-2.078405	0.156226	99
Es	0.103580	-2.188593	0.195352	99
Es	0.068409	-1.991155	0.131875	99
Es	-0.684215	-0.587130	0.081810	99
Es	-0.189958	-0.108507	-0.287601	99
Es	0.206449	-2.094602	0.066962	99
Es	0.220617	2.200229	0.037208	99
Es	-0.159899	-0.072017	0.340168	99
Es	1.672542	-1.307366	0.007592	99
Es	0.956979	-1.712344	0.071766	99
Es	0.884379	0.313125	-0.062455	99
Es	-1.444628	-0.568803	0.055622	99
Es	2.118694	0.521635	-0.149486	99
Es	1.551420	0.062364	-0.084429	99
Es	-0.739437	1.897600	0.171619	99
Es	0.194738	0.473476	-0.028145	99
Es	-0.019452	1.209787	-0.000686	99
Es	-0.329696	-1.314599	0.117547	99
Es	-2.283614	-0.059240	-0.168818	99
Es	-0.195250	1.768787	-0.069949	99
Es	2.272260	-1.708501	0.003360	99
Es	1.574441	-0.650508	-0.345469	99
Es	-2.025454	-0.481798	0.365848	99
Es	0.227603	-1.920312	0.187197	99
Es	-2.038507	-0.532514	0.117516	99
Es	-2.325200	-1.055372	0.004411	99
Es	1.607634	-0.607745	0.272405	99
Es	-0.232970	1.741535	-0.305609	99
Es	0.227973	-2.037630	0.231883	99
Es	-0.011638	-2.556746	0.163626	99
43
Properties=species:S:1:pos:R:3:Z:I:1 energy=-661.4690237910766 field_type=dipole dipole="0.000000 0.000000 0.000000" charge=0
N	-2.038791	-0.532412	0.118158	7
C	-0.684101	-0.586942	0.081778	6
C	0.194779	0.473328	-0.028122	6
N	-0.195391	1.769048	-0.070712	7
C	1.551419	0.062328	-0.084422	6
C	1.672679	-1.307212	0.007568	6
S	0.151509	-2.078432	0.156368	16
H	-2.474831	0.262738	-0.339422	1
H	-2.532581	-1.401522	-0.058042	1
H	0.484899	2.504728	0.093228	1
H	-1.109871	2.003148	0.306048	1
H	2.400309	0.725818	-0.180092	1
H	2.579969	-1.894612	-0.002332	1
Es	0.178220	-2.199227	0.175771	99
Es	2.272318	-1.708232	0.003364	99
Es	0.884423	0.312908	-0.061269	99
Es	-2.326513	-1.056084	0.007206	99
Es	-2.023022	-0.483827	0.358282	99
Es	0.151900	-2.078518	0.156256	99
Es	1.551420	0.062364	-0.084434	99
Es	-0.010785	-2.556796	0.176849	99
Es	-0.684208	-0.587126	0.081806	99
Es	-0.195263	1.768801	-0.070021	99
Es	0.248571	-1.994479	0.158278	99
Es	-0.019606	1.208565	-0.002870	99
Es	-0.190848	-0.108046	-0.287639	99
Es	0.220656	2.202105	0.033461	99
Es	-0.741623	1.898380	0.167073	99
Es	-1.444329	-0.568348	0.056487	99
Es	1.607571	-0.607398	0.271599	99
Es	0.056571	-2.042175	0.217378	99
Es	1.672543	-1.307357	0.007588	99
Es	2.118896	0.521830	-0.149132	99
Es	0.194739	0.473480	-0.028147	99
Es	-0.329258	-1.314545	0.118657	99
Es	0.122388	-2.076060	0.073098	99
Es	0.956978	-1.712269	0.074147	99
Es	-0.158508	-0.072439	0.339639	99
Es	0.226579	-1.921259	0.171936	99
Es	1.573915	-0.650245	-0.345425	99
Es	-0.230570	1.740191	-0.295040	99
Es	-2.285041	-0.057013	-0.164969	99
Es	-2.038392	-0.532526	0.117417	99
43
Properties=species:S:1:pos:R:3:Z:I:1 energy=-661.4690237910766 field_type=dipole dipole="0.000000 0.000000 0.000000" charge=0
N	-2.038791	-0.532412	0.118158	7
C	-0.684101	-0.586942	0.081778	6
C	0.194779	0.473328	-0.028122	6
N	-0.195391	1.769048	-0.070712	7
C	1.551419	0.062328	-0.084422	6
C	1.672679	-1.307212	0.007568	6
S	0.151509	-2.078432	0.156368	16
H	-2.474831	0.262738	-0.339422	1
H	-2.532581	-1.401522	-0.058042	1
H	0.484899	2.504728	0.093228	1
H	-1.109871	2.003148	0.306048	1
H	2.400309	0.725818	-0.180092	1
H	2.579969	-1.894612	-0.002332	1
Es	-0.159374	-0.071953	0.339165	99
Es	2.119057	0.521990	-0.148787	99
Es	1.672548	-1.307357	0.007574	99
Es	0.194740	0.473482	-0.028141	99
Es	1.573736	-0.649944	-0.345235	99
Es	0.046319	-2.136712	0.187678	99
Es	0.152659	-2.084812	0.072224	99
Es	-0.195228	1.768654	-0.069873	99
Es	0.250163	-2.139937	0.187287	99
Es	-2.038326	-0.532531	0.117374	99
Es	1.551421	0.062367	-0.084428	99
Es	0.224460	-1.923527	0.145553	99
Es	-0.189572	-0.108635	-0.287496	99
Es	0.220835	2.203001	0.031580	99
Es	0.956978	-1.711656	0.078617	99
Es	-1.443852	-0.567787	0.057551	99
Es	0.884560	0.312637	-0.060644	99
Es	2.272229	-1.708221	0.003006	99
Es	-0.742443	1.898646	0.165002	99
Es	-0.229518	1.740486	-0.287939	99
Es	-0.328909	-1.314412	0.122196	99
Es	0.151632	-2.078383	0.156244	99
Es	-2.327047	-1.056431	0.007955	99
Es	-0.020055	1.207344	-0.006053	99
Es	-2.286079	-0.055444	-0.161692	99
Es	1.607552	-0.606963	0.271199	99
Es	-2.021882	-0.485632	0.353194	99
Es	-0.684213	-0.587129	0.081809	99
Es	0.158012	-1.950354	0.180589	99
Es	-0.010679	-2.556132	0.191838	99
43
Properties=species:S:1:pos:R:3:Z:I:1 energy=-661.4690237910766 field_type=dipole dipole="0.000000 0.000000 0.000000" charge=0
N	-2.038791	-0.532412	0.118158	7
C	-0.684101	-0.586942	0.081778	6
C	0.194779	0.473328	-0.028122	6
N	-0.195391	1.769048	-0.070712	7
C	1.551419	0.062328	-0.084422	6
C	1.672679	-1.307212	0.007568	6
S	0.151509	-2.078432	0.156368	16
H	-2.474831	0.262738	-0.339422	1
H	-2.532581	-1.401522	-0.058042	1
H	0.484899	2.504728	0.093228	1
H	-1.109871	2.003148	0.306048	1
H	2.400309	0.725818	-0.180092	1
H	2.579969	-1.894612	-0.002332	1
Es	-0.742760	1.898714	0.164260	99
Es	-2.286501	-0.054763	-0.160295	99
Es	-0.328619	-1.314336	0.124179	99
Es	0.027223	-2.097426	0.158249	99
Es	0.151459	-2.078242	0.158038	99
Es	1.573071	-0.649924	-0.345465	99
Es	-0.684217	-0.587132	0.081806	99
Es	0.224336	-2.180202	0.168776	99
Es	1.607933	-0.606858	0.271128	99
Es	-2.038456	-0.532520	0.117494	99
Es	0.884640	0.312489	-0.059696	99
Es	-1.443742	-0.567553	0.057982	99
Es	-0.188424	-0.108974	-0.287884	99
Es	0.220911	2.203194	0.031316	99
Es	-2.021469	-0.486461	0.351713	99
Es	0.957019	-1.711647	0.080027	99
Es	0.151609	-2.079054	0.148070	99
Es	0.208318	-1.947194	0.162948	99
Es	0.194740	0.473482	-0.028141	99
Es	1.672535	-1.307369	0.007586	99
Es	-2.326945	-1.056576	0.007485	99
Es	-0.195243	1.768741	-0.069925	99
Es	2.272110	-1.708112	0.002811	99
Es	1.551421	0.062366	-0.084427	99
Es	-0.020086	1.206888	-0.007679	99
Es	-0.159853	-0.071510	0.338902	99
Es	-0.229060	1.740714	-0.285257	99
Es	-0.010124	-2.555848	0.197822	99
Es	2.119083	0.522172	-0.148685	99
Es	0.218813	-1.932405	0.124209	99
43
Properties=species:S:1:pos:R:3:Z:I:1 energy=-661.4690237910766 field_type=dipole dipole="0.000000 0.000000 0.000000" charge=0
N	-2.038791	-0.532412	0.118158	7
C	-0.684101	-0.586942	0.081778	6
C	0.194779	0.473328	-0.028122	6
N	-0.195391	1.769048	-0.070712	7
C	1.551419	0.062328	-0.084422	6
C	1.672679	-1.307212	0.007568	6
S	0.151509	-2.078432	0.156368	16
H	-2.474831	0.262738	-0.339422	1
H	-2.532581	-1.401522	-0.058042	1
H	0.484899	2.504728	0.093228	1
H	-1.109871	2.003148	0.306048	1
H	2.400309	0.725818	-0.180092	1
H	2.579969	-1.894612	-0.002332	1
Es	0.167234	-2.081778	0.198638	99
Es	0.037703	-2.043269	0.188105	99
Es	-2.020978	-0.487561	0.343521	99
Es	0.194740	0.473481	-0.028147	99
Es	-2.286877	-0.053681	-0.159137	99
Es	-0.328683	-1.314677	0.119783	99
Es	0.235067	-1.984685	0.109970	99
Es	2.272298	-1.707994	0.003424	99
Es	0.225493	-1.924190	0.159228	99
Es	-1.442781	-0.567120	0.061888	99
Es	0.164311	-2.199911	0.122143	99
Es	1.607209	-0.606836	0.270756	99
Es	-0.020268	1.206845	-0.006791	99
Es	-0.188962	-0.108709	-0.287460	99
Es	-0.159481	-0.071691	0.338722	99
Es	1.551421	0.062365	-0.084422	99
Es	0.220757	2.204218	0.028896	99
Es	-0.195240	1.768783	-0.069910	99
Es	1.573422	-0.649588	-0.344958	99
Es	-2.038605	-0.532495	0.117683	99
Es	0.956682	-1.711700	0.078404	99
Es	-0.684213	-0.587129	0.081811	99
Es	-2.327855	-1.056991	0.010413	99
Es	0.153092	-2.079783	0.158695	99
Es	0.884554	0.312287	-0.060557	99
Es	-0.010543	-2.556720	0.187565	99
Es	1.672541	-1.307365	0.007593	99
Es	-0.743639	1.899217	0.161605	99
Es	-0.227907	1.739214	-0.281219	99
Es	2.119230	0.522114	-0.148898	99
43
Properties=species:S:1:pos:R:3:Z:I:1 energy=-661.4690237910766 field_type=dipole dipole="0.000000 0.000000 0.000000" charge=0
N	-2.038791	-0.532412	0.118158	7
C	-0.684101	-0.586942	0.081778	6
C	0.194779	0.473328	-0.028122	6
N	-0.195391	1.769048	-0.070712	7
C	1.551419	0.062328	-0.084422	6
C	1.672679	-1.307212	0.007568	6
S	0.151509	-2.078432	0.156368	16
H	-2.474831	0.262738	-0.339422	1
H	-2.532581	-1.401522	-0.058042	1
H	0.484899	2.504728	0.093228	1
H	-1.109871	2.003148	0.306048	1
H	2.400309	0.725818	-0.180092	1
H	2.579969	-1.894612	-0.002332	1
Es	0.956597	-1.711793	0.077643	99
Es	-2.286965	-0.053700	-0.158626	99
Es	0.255616	-2.138886	0.158443	99
Es	-0.328430	-1.314434	0.122479	99
Es	-1.443416	-0.567321	0.059815	99
Es	-2.020067	-0.487280	0.344949	99
Es	-0.160408	-0.071277	0.338686	99
Es	-0.019889	1.206481	-0.008540	99
Es	0.194738	0.473481	-0.028154	99
Es	-0.010925	-2.556454	0.190589	99
Es	1.551420	0.062366	-0.084431	99
Es	0.150009	-2.076806	0.179640	99
Es	2.272142	-1.707962	0.002776	99
Es	-0.684218	-0.587134	0.081810	99
Es	-2.328181	-1.057113	0.010985	99
Es	-0.743775	1.899076	0.161840	99
Es	-0.195230	1.768482	-0.069944	99
Es	-0.227840	1.739682	-0.278201	99
Es	0.220613	2.204617	0.027452	99
Es	2.119263	0.522157	-0.148840	99
Es	-0.187899	-0.108965	-0.287437	99
Es	0.884526	0.312159	-0.060328	99
Es	0.224336	-1.923637	0.149106	99
Es	1.573423	-0.649707	-0.344876	99
Es	0.042823	-2.149516	0.146072	99
Es	1.672542	-1.307364	0.007575	99
Es	1.607253	-0.606613	0.270872	99
Es	-2.038433	-0.532533	0.117410	99
Es	0.151591	-2.078432	0.157818	99
Es	0.158506	-1.946917	0.140762	99
43
Properties=species:S:1:pos:R:3:Z:I:1 energy=-661.4690237910766 field_type=dipole dipole="0.000000 0.000000 0.000000" charge=0
N	-2.038791	-0.532412	0.118158	7
C	-0.684101	-0.586942	0.081778	6
C	0.194779	0.473328	-0.028122	6
N	-0.195391	1.769048	-0.070712	7
C	1.551419	0.062328	-0.084422	6
C	1.672679	-1.307212	0.007568	6
S	0.151509	-2.078432	0.156368	16
H	-2.474831	0.262738	-0.339422	1
H	-2.532581	-1.401522	-0.058042	1
H	0.484899	2.504728	0.093228	1
H	-1.109871	2.003148	0.306048	1
H	2.400309	0.725818	-0.180092	1
H	2.579969	-1.894612	-0.002332	1
Es	-0.227252	1.739508	-0.273994	99
Es	0.884568	0.312039	-0.060706	99
Es	0.224612	-1.923336	0.158175	99
Es	2.119248	0.522359	-0.148863	99
Es	-0.743966	1.899422	0.160565	99
Es	-2.287229	-0.053298	-0.157772	99
Es	-2.328659	-1.057190	0.012172	99
Es	0.273225	-2.045813	0.129058	99
Es	-0.010979	-2.556982	0.185732	99
Es	1.672541	-1.307368	0.007591	99
Es	1.607003	-0.606514	0.270997	99
Es	1.573407	-0.649572	-0.344974	99
Es	-0.684217	-0.587131	0.081805	99
Es	-2.019911	-0.487937	0.341090	99
Es	-0.188298	-0.108724	-0.287357	99
Es	0.194741	0.473480	-0.028139	99
Es	2.272101	-1.707945	0.003114	99
Es	0.114127	-2.203204	0.162197	99
Es	1.551420	0.062365	-0.084435	99
Es	0.151215	-2.078497	0.154058	99
Es	-1.442680	-0.566918	0.061508	99
Es	0.956454	-1.711770	0.076869	99
Es	-0.159448	-0.071614	0.338816	99
Es	-0.195228	1.768690	-0.069837	99
Es	0.220767	2.205083	0.026164	99
Es	0.154619	-2.073547	0.191911	99
Es	0.064853	-1.989377	0.143702	99
Es	-0.020475	1.205692	-0.010280	99
Es	-2.038469	-0.532524	0.117459	99
Es	-0.328371	-1.314722	0.120720	99
43
Properties=species:S:1:pos:R:3:Z:I:1 energy=-661.4690237910766 field_type=dipole dipole="0.000000 0.000000 0.000000" charge=0
N	-2.038791	-0.532412	0.118158	7
C	-0.684101	-0.586942	0.081778	6
C	0.194779	0.473328	-0.028122	6
N	-0.195391	1.769048	-0.070712	7
C	1.551419	0.062328	-0.084422	6
C	1.672679	-1.307212	0.007568	6
S	0.151509	-2.078432	0.156368	16
H	-2.474831	0.262738	-0.339422	1
H	-2.532581	-1.401522	-0.058042	1
H	0.484899	2.504728	0.093228	1
H	-1.109871	2.003148	0.306048	1
H	2.400309	0.725818	-0.180092	1
H	2.579969	-1.894612	-0.002332	1
Es	-0.226420	1.739609	-0.269443	99
Es	2.119405	0.522329	-0.148899	99
Es	-2.329164	-1.057381	0.013642	99
Es	-0.328097	-1.314634	0.121409	99
Es	0.150809	-2.078023	0.156475	99
Es	-2.038381	-0.532534	0.117382	99
Es	1.672540	-1.307369	0.007589	99
Es	0.956334	-1.711831	0.076883	99
Es	-0.195215	1.768595	-0.069831	99
Es	-1.442626	-0.566801	0.062101	99
Es	-0.159695	-0.071706	0.338569	99
Es	0.149179	-2.071949	0.229417	99
Es	-0.684218	-0.587133	0.081811	99
Es	1.607063	-0.606390	0.270356	99
Es	0.224005	-1.923553	0.156829	99
Es	-2.288023	-0.052236	-0.155392	99
Es	1.551420	0.062365	-0.084422	99
Es	1.573369	-0.649351	-0.344321	99
Es	0.194740	0.473484	-0.028142	99
Es	0.220702	2.205427	0.025009	99
Es	-0.010978	-2.556762	0.188160	99
Es	2.272260	-1.707826	0.002814	99
Es	-0.744799	1.899539	0.159255	99
Es	0.049779	-2.150757	0.133466	99
Es	-2.018811	-0.489009	0.336878	99
Es	0.156192	-1.953302	0.114305	99
Es	0.252646	-2.136571	0.145472	99
Es	-0.188202	-0.108704	-0.286900	99
Es	0.884401	0.311879	-0.060691	99
Es	-0.020494	1.205249	-0.012434	99
43
Properties=species:S:1:pos:R:3:Z:I:1 energy=-661.4690237910766 field_type=dipole dipole="0.000000 0.000000 0.000000" charge=0
N	-2.038791	-0.532412	0.118158	7
C	-0.684101	-0.586942	0.081778	6
C	0.194779	0.473328	-0.028122	6
N	-0.195391	1.769048	-0.070712	7
C	1.551419	0.062328	-0.084422	6
C	1.672679	-1.307212	0.007568	6
S	0.151509	-2.078432	0.156368	16
H	-2.474831	0.262738	-0.339422	1
H	-2.532581	-1.401522	-0.058042	1
H	0.484899	2.504728	0.093228	1
H	-1.109871	2.003148	0.306048	1
H	2.400309	0.725818	-0.180092	1
H	2.579969	-1.894612	-0.002332	1
Es	0.884517	0.311799	-0.060674	99
Es	-0.189336	-0.108201	-0.287113	99
Es	-0.195230	1.768686	-0.069855	99
Es	0.223883	-2.179291	0.153045	99
Es	1.672539	-1.307367	0.007581	99
Es	-0.158303	-0.072145	0.338714	99
Es	-0.684217	-0.587132	0.081809	99
Es	1.551421	0.062366	-0.084426	99
Es	1.573102	-0.649317	-0.344634	99
Es	0.203101	-1.958562	0.125834	99
Es	0.223763	-1.923796	0.162056	99
Es	0.027184	-2.098570	0.166235	99
Es	0.956318	-1.711757	0.077207	99
Es	1.607025	-0.606332	0.270694	99
Es	2.119316	0.522453	-0.148879	99
Es	0.150959	-2.077711	0.156229	99
Es	0.220691	2.205673	0.024444	99
Es	0.194741	0.473480	-0.028127	99
Es	-2.329034	-1.057357	0.013327	99
Es	0.153707	-2.076145	0.176355	99
Es	-0.744613	1.899480	0.159323	99
Es	-2.018992	-0.488689	0.338436	99
Es	2.272178	-1.707778	0.003013	99
Es	-0.226557	1.738976	-0.270422	99
Es	-2.038224	-0.532519	0.117414	99
Es	-0.020402	1.205649	-0.010944	99
Es	-2.287851	-0.052480	-0.155940	99
Es	-0.011024	-2.557102	0.184846	99
Es	-0.328112	-1.314727	0.120571	99
Es	-1.442830	-0.566928	0.061228	99
43
Properties=species:S:1:pos:R:3:Z:I:1 energy=-661.4690237910766 field_type=dipole dipole="0.000000 0.000000 0.000000" charge=0
N	-2.038791	-0.532412	0.118158	7
C	-0.684101	-0.586942	0.081778	6
C	0.194779	0.473328	-0.028122	6
N	-0.195391	1.769048	-0.070712	7
C	1.551419	0.062328	-0.084422	6
C	1.672679	-1.307212	0.007568	6
S	0.151509	-2.078432	0.156368	16
H	-2.474831	0.262738	-0.339422	1
H	-2.532581	-1.401522	-0.058042	1
H	0.484899	2.504728	0.093228	1
H	-1.109871	2.003148	0.306048	1
H	2.400309	0.725818	-0.180092	1
H	2.579969	-1.894612	-0.002332	1
Es	0.220488	2.206416	0.022270	99
Es	0.884562	0.311569	-0.060662	99
Es	-0.020735	1.204624	-0.013635	99
Es	-0.224647	1.738667	-0.261862	99
Es	0.191495	-2.098252	0.238073	99
Es	1.672545	-1.307360	0.007598	99
Es	-0.328116	-1.314894	0.120248	99
Es	0.175029	-2.174124	0.090120	99
Es	1.551421	0.062367	-0.084428	99
Es	-2.038536	-0.532521	0.117521	99
Es	2.119449	0.522465	-0.148975	99
Es	-2.288843	-0.051034	-0.152923	99
Es	2.272332	-1.707736	0.003230	99
Es	0.032199	-2.069953	0.182442	99
Es	0.207902	-1.969536	0.110411	99
Es	1.573165	-0.649105	-0.344266	99
Es	-0.745992	1.900177	0.155503	99
Es	-1.442081	-0.566382	0.063768	99
Es	0.956251	-1.711682	0.077901	99
Es	-0.158062	-0.072193	0.338240	99
Es	-0.010694	-2.557005	0.187292	99
Es	-0.189606	-0.108044	-0.286646	99
Es	0.151420	-2.078233	0.155984	99
Es	-0.195220	1.768616	-0.069809	99
Es	0.224217	-1.924287	0.159954	99
Es	0.194739	0.473483	-0.028142	99
Es	1.606686	-0.606304	0.270243	99
Es	-0.684218	-0.587133	0.081816	99
Es	-2.329793	-1.057573	0.015795	99
Es	-2.017637	-0.490381	0.330283	99
43
Properties=species:S:1:pos:R:3:Z:I:1 energy=-661.4690237910766 field_type=dipole dipole="0.000000 0.000000 0.000000" charge=0
N	-2.038791	-0.532412	0.118158	7
C	-0.684101	-0.586942	0.081778	6
C	0.194779	0.473328	-0.028122	6
N	-0.195391	1.769048	-0.070712	7
C	1.551419	0.062328	-0.084422	6
C	1.672679	-1.307212	0.007568	6
S	0.151509	-2.078432	0.156368	16
H	-2.474831	0.262738	-0.339422	1
H	-2.532581	-1.401522	-0.058042	1
H	0.484899	2.504728	0.093228	1
H	-1.109871	2.003148	0.306048	1
H	2.400309	0.725818	-0.180092	1
H	2.579969	-1.894612	-0.002332	1
Es	2.119358	0.522511	-0.148890	99
Es	-0.225513	1.738700	-0.266543	99
Es	-2.329414	-1.057533	0.014537	99
Es	0.194739	0.473480	-0.028142	99
Es	-0.020618	1.205218	-0.011704	99
Es	-0.158846	-0.071897	0.338505	99
Es	0.154287	-2.078779	0.182599	99
Es	0.205454	-1.943378	0.122980	99
Es	0.214894	-1.934972	0.173119	99
Es	-0.328066	-1.314775	0.121591	99
Es	-2.018545	-0.489336	0.334549	99
Es	0.030281	-2.098098	0.159673	99
Es	1.672541	-1.307366	0.007587	99
Es	1.551421	0.062365	-0.084427	99
Es	-0.195220	1.768618	-0.069861	99
Es	-0.745343	1.899914	0.157122	99
Es	0.151539	-2.078304	0.155878	99
Es	1.606950	-0.606154	0.270508	99
Es	-0.188206	-0.108691	-0.287211	99
Es	-0.684217	-0.587131	0.081810	99
Es	-2.038450	-0.532529	0.117439	99
Es	-2.288071	-0.051919	-0.155018	99
Es	1.573264	-0.649095	-0.344528	99
Es	2.272181	-1.707707	0.003021	99
Es	0.956333	-1.711646	0.078339	99
Es	0.220628	2.206028	0.023524	99
Es	0.224963	-2.181169	0.137450	99
Es	0.884484	0.311702	-0.060524	99
Es	-1.442404	-0.566669	0.062986	99
Es	-0.010683	-2.556735	0.190976	99
43
Properties=species:S:1:pos:R:3:Z:I:1 energy=-661.4690237910766 field_type=dipole dipole="0.000000 0.000000 0.000000" charge=0
N	-2.038791	-0.532412	0.118158	7
C	-0.684101	-0.586942	0.081778	6
C	0.194779	0.473328	-0.028122	6
N	-0.195391	1.769048	-0.070712	7
C	1.551419	0.062328	-0.084422	6
C	1.672679	-1.307212	0.007568	6
S	0.151509	-2.078432	0.156368	16
H	-2.474831	0.262738	-0.339422	1
H	-2.532581	-1.401522	-0.058042	1
H	0.484899	2.504728	0.093228	1
H	-1.109871	2.003148	0.306048	1
H	2.400309	0.725818	-0.180092	1
H	2.579969	-1.894612	-0.002332	1
Es	-2.329327	-1.057547	0.014306	99
Es	0.220586	2.206169	0.022757	99
Es	1.573495	-0.649288	-0.344494	99
Es	1.672541	-1.307365	0.007590	99
Es	-0.225719	1.739036	-0.265022	99
Es	-0.186393	-0.109377	-0.287225	99
Es	1.551422	0.062367	-0.084430	99
Es	-2.038437	-0.532532	0.117419	99
Es	0.255105	-2.136782	0.183241	99
Es	-0.327962	-1.314602	0.122626	99
Es	-0.195224	1.768619	-0.069888	99
Es	0.043319	-2.148921	0.157578	99
Es	-0.011250	-2.556931	0.186959	99
Es	1.606704	-0.606113	0.270639	99
Es	0.956202	-1.711871	0.076317	99
Es	0.156294	-1.945922	0.135694	99
Es	0.152620	-2.079202	0.150855	99
Es	0.884527	0.311749	-0.060546	99
Es	-2.018214	-0.489623	0.334580	99
Es	0.223119	-1.924660	0.157889	99
Es	-0.160977	-0.071046	0.338458	99
Es	0.151967	-2.078954	0.151486	99
Es	2.119333	0.522493	-0.148979	99
Es	2.272117	-1.707720	0.002816	99
Es	-2.288437	-0.051731	-0.154165	99
Es	-0.745193	1.899736	0.157892	99
Es	0.194739	0.473481	-0.028143	99
Es	-1.442471	-0.566573	0.062505	99
Es	-0.684216	-0.587130	0.081826	99
Es	-0.020550	1.204896	-0.013195	99
43
Properties=species:S:1:pos:R:3:Z:I:1 energy=-661.4690237910766 field_type=dipole dipole="0.000000 0.000000 0.000000" charge=0
N	-2.038791	-0.532412	0.118158	7
C	-0.684101	-0.586942	0.081778	6
C	0.194779	0.473328	-0.028122	6
N	-0.195391	1.769048	-0.070712	7
C	1.551419	0.062328	-0.084422	6
C	1.672679	-1.307212	0.007568	6
S	0.151509	-2.078432	0.156368	16
H	-2.474831	0.262738	-0.339422	1
H	-2.532581	-1.401522	-0.058042	1
H	0.484899	2.504728	0.093228	1
H	-1.109871	2.003148	0.306048	1
H	2.400309	0.725818	-0.180092	1
H	2.579969	-1.894612	-0.002332	1
Es	0.223876	-1.924221	0.156583	99
Es	-2.329324	-1.057632	0.014113	99
Es	-0.020631	1.205002	-0.012220	99
Es	-0.160428	-0.071183	0.338239	99
Es	0.151560	-2.078355	0.156786	99
Es	-2.038583	-0.532510	0.117587	99
Es	1.551421	0.062367	-0.084432	99
Es	0.884593	0.311666	-0.060102	99
Es	2.119419	0.522553	-0.148874	99
Es	-0.011122	-2.556970	0.187930	99
Es	0.171310	-1.947580	0.135172	99
Es	0.152261	-2.077554	0.164996	99
Es	-0.225240	1.738474	-0.265088	99
Es	1.672541	-1.307367	0.007593	99
Es	-2.018088	-0.489789	0.334047	99
Es	-0.745461	1.900030	0.156677	99
Es	0.194740	0.473480	-0.028136	99
Es	0.220550	2.206153	0.023176	99
Es	0.247727	-2.154462	0.153048	99
Es	-0.327857	-1.314699	0.121558	99
Es	2.272039	-1.707711	0.003013	99
Es	-0.186924	-0.109277	-0.287321	99
Es	0.956193	-1.711695	0.077892	99
Es	-0.684216	-0.587132	0.081798	99
Es	-0.195268	1.768865	-0.070034	99
Es	1.573348	-0.649099	-0.344624	99
Es	1.606685	-0.606158	0.270570	99
Es	-1.442575	-0.566599	0.062710	99
Es	0.035489	-2.132447	0.168666	99
Es	-2.288315	-0.051495	-0.153975	99
43
Properties=species:S:1:pos:R:3:Z:I:1 energy=-661.4690237910766 field_type=dipole dipole="0.000000 0.000000 0.000000" charge=0
N	-2.038791	-0.532412	0.118158	7
C	-0.684101	-0.586942	0.081778	6
C	0.194779	0.473328	-0.028122	6
N	-0.195391	1.769048	-0.070712	7
C	1.551419	0.062328	-0.084422	6
C	1.672679	-1.307212	0.007568	6
S	0.151509	-2.078432	0.156368	16
H	-2.474831	0.262738	-0.339422	1
H	-2.532581	-1.401522	-0.058042	1
H	0.484899	2.504728	0.093228	1
H	-1.109871	2.003148	0.306048	1
H	2.400309	0.725818	-0.180092	1
H	2.579969	-1.894612	-0.002332	1
Es	0.218327	-1.938954	0.134642	99
Es	-0.020738	1.204474	-0.014332	99
Es	-2.329843	-1.057682	0.015705	99
Es	-2.018190	-0.490458	0.329196	99
Es	-0.195232	1.768753	-0.069865	99
Es	-0.010933	-2.556860	0.189709	99
Es	1.606660	-0.605942	0.270143	99
Es	-1.441681	-0.566092	0.065347	99
Es	-0.684215	-0.587131	0.081811	99
Es	2.272249	-1.707669	0.003234	99
Es	0.884567	0.311507	-0.060660	99
Es	-2.288588	-0.051216	-0.153224	99
Es	0.956255	-1.711691	0.078637	99
Es	0.137321	-2.080044	0.101429	99
Es	-0.745942	1.900066	0.155577	99
Es	0.039867	-2.086331	0.202027	99
Es	-0.188833	-0.108282	-0.286807	99
Es	0.220482	2.206533	0.022132	99
Es	0.215534	-2.185445	0.161871	99
Es	0.194739	0.473483	-0.028143	99
Es	1.573066	-0.648917	-0.344384	99
Es	-0.327841	-1.314777	0.121210	99
Es	-0.224628	1.738694	-0.260990	99
Es	2.119463	0.522550	-0.148791	99
Es	0.151503	-2.078400	0.156359	99
Es	1.672541	-1.307367	0.007591	99
Es	-0.158456	-0.072203	0.338341	99
Es	-2.038534	-0.532523	0.117500	99
Es	1.551421	0.062366	-0.084429	99
Es	0.219379	-1.945788	0.176511	99
43
Properties=species:S:1:pos:R:3:Z:I:1 energy=-661.4690237910766 field_type=dipole dipole="0.000000 0.000000 0.000000" charge=0
N	-2.038791	-0.532412	0.118158	7
C	-0.684101	-0.586942	0.081778	6
C	0.194779	0.473328	-0.028122	6
N	-0.195391	1.769048	-0.070712	7
C	1.551419	0.062328	-0.084422	6
C	1.672679	-1.307212	0.007568	6
S	0.151509	-2.078432	0.156368	16
H	-2.474831	0.262738	-0.339422	1
H	-2.532581	-1.401522	-0.058042	1
H	0.484899	2.504728	0.093228	1
H	-1.109871	2.003148	0.306048	1
H	2.400309	0.725818	-0.180092	1
H	2.579969	-1.894612	-0.002332	1
Es	1.606580	-0.606051	0.270704	99
Es	0.152804	-2.077836	0.164300	99
Es	-0.010741	-2.557233	0.186779	99
Es	-0.187598	-0.108905	-0.287289	99
Es	-0.020804	1.204853	-0.012509	99
Es	-0.225034	1.738403	-0.263690	99
Es	0.249585	-1.996751	0.127667	99
Es	-2.329628	-1.057769	0.015282	99
Es	0.220596	2.206395	0.022375	99
Es	-2.018201	-0.490299	0.330646	99
Es	2.119366	0.522621	-0.148803	99
Es	2.272012	-1.707680	0.003170	99
Es	0.035421	-2.031144	0.167496	99
Es	1.672541	-1.307367	0.007590	99
Es	0.223722	-1.924218	0.153241	99
Es	-0.195239	1.768752	-0.069886	99
Es	-0.745475	1.900158	0.156178	99
Es	0.153099	-2.077601	0.164840	99
Es	-0.327909	-1.314774	0.121467	99
Es	-2.288531	-0.051245	-0.153374	99
Es	1.573344	-0.648985	-0.344718	99
Es	0.194740	0.473482	-0.028142	99
Es	1.551419	0.062365	-0.084429	99
Es	-0.159524	-0.071576	0.338397	99
Es	-2.038425	-0.532529	0.117433	99
Es	0.166994	-2.207016	0.158211	99
Es	0.884618	0.311570	-0.060471	99
Es	-0.684216	-0.587132	0.081809	99
Es	0.956212	-1.711651	0.078599	99
Es	-1.442007	-0.566184	0.064471	99
43
Properties=species:S:1:pos:R:3:Z:I:1 energy=-661.4690237910766 field_type=dipole dipole="0.000000 0.000000 0.000000" charge=0
N	-2.038791	-0.532412	0.118158	7
C	-0.684101	-0.586942	0.081778	6
C	0.194779	0.473328	-0.028122	6
N	-0.195391	1.769048	-0.070712	7
C	1.551419	0.062328	-0.084422	6
C	1.672679	-1.307212	0.007568	6
S	0.151509	-2.078432	0.156368	16
H	-2.474831	0.262738	-0.339422	1
H	-2.532581	-1.401522	-0.058042	1
H	0.484899	2.504728	0.093228	1
H	-1.109871	2.003148	0.306048	1
H	2.400309	0.725818	-0.180092	1
H	2.579969	-1.894612	-0.002332	1
Es	-2.038322	-0.532542	0.117329	99
Es	1.672541	-1.307366	0.007595	99
Es	0.151464	-2.078442	0.155966	99
Es	0.220649	2.206503	0.021615	99
Es	0.223871	-1.924027	0.156418	99
Es	0.884511	0.311489	-0.060827	99
Es	-0.684216	-0.587129	0.081818	99
Es	-0.020765	1.204734	-0.013599	99
Es	-1.441987	-0.566285	0.064462	99
Es	2.119404	0.522639	-0.148739	99
Es	1.573371	-0.648924	-0.344447	99
Es	-0.327960	-1.314779	0.120975	99
Es	-0.189404	-0.108107	-0.286890	99
Es	-0.745707	1.900053	0.156234	99
Es	0.264464	-2.116029	0.139124	99
Es	1.606636	-0.606067	0.270438	99
Es	-2.329649	-1.057646	0.015115	99
Es	0.194739	0.473482	-0.028146	99
Es	-0.011288	-2.557074	0.185859	99
Es	-0.157823	-0.072373	0.338567	99
Es	-0.195208	1.768394	-0.069898	99
Es	2.272073	-1.707581	0.003047	99
Es	0.956206	-1.711798	0.077924	99
Es	1.551421	0.062366	-0.084429	99
Es	0.129968	-1.948160	0.145985	99
Es	-2.288476	-0.051341	-0.153540	99
Es	-0.224956	1.738830	-0.261834	99
Es	-2.018424	-0.490212	0.331124	99
Es	0.152358	-2.078081	0.159737	99
Es	0.060229	-2.169873	0.180363	99
43
Properties=species:S:1:pos:R:3:Z:I:1 energy=-661.4690237910766 field_type=dipole dipole="0.000000 0.000000 0.000000" charge=0
N	-2.038791	-0.532412	0.118158	7
C	-0.684101	-0.586942	0.081778	6
C	0.194779	0.473328	-0.028122	6
N	-0.195391	1.769048	-0.070712	7
C	1.551419	0.062328	-0.084422	6
C	1.672679	-1.307212	0.007568	6
S	0.151509	-2.078432	0.156368	16
H	-2.474831	0.262738	-0.339422	1
H	-2.532581	-1.401522	-0.058042	1
H	0.484899	2.504728	0.093228	1
H	-1.109871	2.003148	0.306048	1
H	2.400309	0.725818	-0.180092	1
H	2.579969	-1.894612	-0.002332	1
Es	-0.010883	-2.556989	0.189844	99
Es	2.119432	0.522648	-0.148864	99
Es	0.884669	0.311542	-0.060317	99
Es	1.606624	-0.605874	0.270592	99
Es	0.194740	0.473482	-0.028143	99
Es	2.272017	-1.707599	0.003098	99
Es	-0.186954	-0.109234	-0.287239	99
Es	0.109901	-2.203592	0.165829	99
Es	-0.327903	-1.314761	0.121515	99
Es	-2.288477	-0.051147	-0.153194	99
Es	-0.224724	1.738704	-0.262146	99
Es	0.151913	-2.078196	0.159407	99
Es	0.274149	-2.049923	0.140344	99
Es	-2.018006	-0.490367	0.329810	99
Es	-0.745645	1.900007	0.155536	99
Es	-1.441896	-0.566257	0.064640	99
Es	1.573089	-0.648867	-0.344651	99
Es	0.956215	-1.711785	0.078309	99
Es	-0.020860	1.204520	-0.013700	99
Es	0.220484	2.206588	0.022635	99
Es	-0.195227	1.768723	-0.069832	99
Es	-2.329930	-1.057717	0.015801	99
Es	1.551421	0.062367	-0.084428	99
Es	1.672541	-1.307367	0.007592	99
Es	0.070648	-1.980365	0.159968	99