45
Properties=species:S:1:pos:R:3:Z:I:1 energy=-739.2730979463427 field_type=dipole dipole="0.000000 0.000000 0.000000" charge=0
O	-2.020713	0.238225	-0.799034	8
C	-0.574863	0.158615	-0.742294	6
C	0.110997	1.145905	0.234506	6
C	1.211797	0.130725	0.605316	6
S	0.130157	-1.205015	0.204136	16
O	-0.724523	-1.582865	1.311346	8
O	0.759567	-2.175154	-0.666244	8
H	-2.322503	-0.688055	-0.854124	1
H	-0.152363	0.170765	-1.753344	1
H	-0.522043	1.433005	1.083536	1
H	0.481687	2.065245	-0.229034	1
H	2.092017	0.158745	-0.045044	1
H	1.530787	0.149855	1.650276	1
Es	-2.076151	0.370660	-1.064305	99
Es	0.129783	-1.205282	0.204166	99
Es	-1.461158	0.182046	-0.771660	99
Es	-0.724382	-1.582788	1.311169	99
Es	-2.020514	0.237955	-0.799111	99
Es	0.111046	1.145783	0.234463	99
Es	0.759450	-2.174968	-0.666088	99
Es	0.480869	-2.255122	-0.741564	99
Es	0.161105	-1.236416	0.315047	99
Es	0.692236	0.657590	0.443133	99
Es	0.367335	1.754912	-0.084457	99
Es	-0.493411	-1.731175	1.414445	99
Es	0.035782	-1.255729	0.180055	99
Es	0.910763	-2.294594	-0.450682	99
Es	-0.310425	1.318761	0.800525	99
Es	1.777938	0.140705	0.159456	99
Es	0.525999	-1.842490	-0.314261	99
Es	-0.265197	0.687219	-0.272034	99
Es	1.418931	0.136373	1.296636	99
Es	-0.901578	-1.702606	1.101975	99
Es	-2.107748	0.344244	-0.529830	99
Es	-2.160652	-0.259538	-0.832554	99
Es	-0.272805	0.159327	-1.408696	99
Es	-0.319935	-0.538235	-0.345568	99
Es	1.211700	0.130668	0.605281	99
Es	0.860647	-1.910849	-0.800711	99
Es	-0.401435	-1.444134	0.898498	99
Es	0.110597	-1.085575	0.197251	99
Es	0.213519	-1.242042	0.124196	99
Es	-0.746658	-1.283802	1.365819	99
Es	0.775971	-0.543629	0.469542	99
Es	-0.575071	0.158566	-0.742204	99
45
Properties=species:S:1:pos:R:3:Z:I:1 energy=-739.2730979463427 field_type=dipole dipole="0.000000 0.000000 0.000000" charge=0
O	-2.020713	0.238225	-0.799034	8
C	-0.574863	0.158615	-0.742294	6
C	0.110997	1.145905	0.234506	6
C	1.211797	0.130725	0.605316	6
S	0.130157	-1.205015	0.204136	16
O	-0.724523	-1.582865	1.311346	8
O	0.759567	-2.175154	-0.666244	8
H	-2.322503	-0.688055	-0.854124	1
H	-0.152363	0.170765	-1.753344	1
H	-0.522043	1.433005	1.083536	1
H	0.481687	2.065245	-0.229034	1
H	2.092017	0.158745	-0.045044	1
H	1.530787	0.149855	1.650276	1
Es	0.759455	-2.174971	-0.666088	99
Es	0.132940	-1.250298	0.093170	99
Es	0.224363	-1.138353	0.221218	99
Es	0.886315	-2.279433	-0.434771	99
Es	-0.272658	0.159454	-1.409205	99
Es	-0.320001	-0.538066	-0.345413	99
Es	0.130465	-1.205332	0.203941	99
Es	1.211702	0.130667	0.605280	99
Es	-0.724269	-1.582765	1.311082	99
Es	-0.380518	-1.436814	0.911565	99
Es	-2.109423	0.354205	-0.525178	99
Es	-0.776279	-1.288830	1.382036	99
Es	0.111045	1.145782	0.234464	99
Es	-0.575071	0.158565	-0.742206	99
Es	-2.074373	0.360493	-1.059507	99
Es	0.368206	1.755035	-0.085589	99
Es	-2.160044	-0.260561	-0.832074	99
Es	-0.263933	0.687072	-0.270947	99
Es	0.034341	-1.138001	0.216822	99
Es	-0.871534	-1.694806	1.077965	99
Es	0.690771	0.657452	0.443274	99
Es	-1.461536	0.183310	-0.781362	99
Es	0.885891	-1.923544	-0.808950	99
Es	0.775520	-0.543953	0.470381	99
Es	1.417511	0.136429	1.294745	99
Es	0.495366	-2.264907	-0.740955	99
Es	0.128692	-1.293089	0.285581	99
Es	-0.515023	-1.741344	1.409270	99
Es	1.779905	0.141252	0.159005	99
Es	-2.020538	0.237936	-0.799032	99
Es	0.510774	-1.835277	-0.322507	99
Es	-0.311508	1.318522	0.801914	99
45
Properties=species:S:1:pos:R:3:Z:I:1 energy=-739.2730979463427 field_type=dipole dipole="0.000000 0.000000 0.000000" charge=0
O	-2.020713	0.238225	-0.799034	8
C	-0.574863	0.158615	-0.742294	6
C	0.110997	1.145905	0.234506	6
C	1.211797	0.130725	0.605316	6
S	0.130157	-1.205015	0.204136	16
O	-0.724523	-1.582865	1.311346	8
O	0.759567	-2.175154	-0.666244	8
H	-2.322503	-0.688055	-0.854124	1
H	-0.152363	0.170765	-1.753344	1
H	-0.522043	1.433005	1.083536	1
H	0.481687	2.065245	-0.229034	1
H	2.092017	0.158745	-0.045044	1
H	1.530787	0.149855	1.650276	1
Es	-0.483129	-1.689737	1.387541	99
Es	-0.575067	0.158562	-0.742205	99
Es	0.483775	-2.156692	-0.725002	99
Es	0.073507	-1.295076	0.256106	99
Es	0.759353	-2.174952	-0.666146	99
Es	-0.311902	1.318412	0.802487	99
Es	0.690217	0.657556	0.443370	99
Es	1.780753	0.141440	0.158782	99
Es	0.086193	-1.093873	0.241813	99
Es	-2.073871	0.358809	-1.055772	99
Es	-2.020510	0.237949	-0.799041	99
Es	0.546133	-1.852631	-0.284720	99
Es	-1.461252	0.183638	-0.784579	99
Es	-0.320053	-0.537801	-0.345352	99
Es	0.775206	-0.543913	0.470724	99
Es	0.120719	-1.216935	0.088872	99
Es	1.416845	0.136420	1.294135	99
Es	-0.724352	-1.582780	1.311124	99
Es	0.368676	1.754977	-0.085811	99
Es	0.852152	-2.376554	-0.498033	99
Es	0.111046	1.145783	0.234463	99
Es	-0.263384	0.686813	-0.270787	99
Es	0.896418	-1.917286	-0.799432	99
Es	0.240213	-1.214186	0.229767	99
Es	-2.160933	-0.260729	-0.833829	99
Es	0.130139	-1.205012	0.204176	99
Es	-0.783359	-1.289714	1.384265	99
Es	-0.272494	0.159302	-1.409440	99
Es	-0.402620	-1.436303	0.889960	99
Es	-2.109342	0.355681	-0.523817	99
Es	-0.874227	-1.746005	1.119031	99
Es	1.211701	0.130668	0.605282	99
45
Properties=species:S:1:pos:R:3:Z:I:1 energy=-739.2730979463427 field_type=dipole dipole="0.000000 0.000000 0.000000" charge=0
O	-2.020713	0.238225	-0.799034	8
C	-0.574863	0.158615	-0.742294	6
C	0.110997	1.145905	0.234506	6
C	1.211797	0.130725	0.605316	6
S	0.130157	-1.205015	0.204136	16
O	-0.724523	-1.582865	1.311346	8
O	0.759567	-2.175154	-0.666244	8
H	-2.322503	-0.688055	-0.854124	1
H	-0.152363	0.170765	-1.753344	1
H	-0.522043	1.433005	1.083536	1
H	0.481687	2.065245	-0.229034	1
H	2.092017	0.158745	-0.045044	1
H	1.530787	0.149855	1.650276	1
Es	1.416777	0.136143	1.293723	99
Es	-0.859988	-1.682785	1.078768	99
Es	-0.575064	0.158564	-0.742206	99
Es	-0.319962	-0.537965	-0.345141	99
Es	1.211701	0.130668	0.605281	99
Es	-0.263221	0.687006	-0.270117	99
Es	-0.724376	-1.582798	1.311168	99
Es	0.023961	-1.184031	0.180537	99
Es	-0.381882	-1.432618	0.906977	99
Es	0.135139	-1.231179	0.318851	99
Es	0.168104	-1.300457	0.135145	99
Es	-0.783290	-1.294315	1.397551	99
Es	-2.073829	0.357731	-1.058197	99
Es	-0.518261	-1.751989	1.397416	99
Es	0.368326	1.754952	-0.086421	99
Es	-0.312394	1.318415	0.802419	99
Es	0.875138	-1.921399	-0.826101	99
Es	0.448853	-1.850879	-0.363409	99
Es	0.130123	-1.204996	0.204119	99
Es	0.775469	-0.543527	0.471163	99
Es	0.193478	-1.104427	0.182077	99
Es	0.759424	-2.174943	-0.666058	99
Es	-2.020484	0.237884	-0.798934	99
Es	-2.160940	-0.260002	-0.831258	99
Es	0.588260	-2.391454	-0.705455	99
Es	-1.461658	0.182468	-0.784447	99
Es	1.781040	0.141062	0.158493	99
Es	0.690102	0.657139	0.443413	99
Es	0.111046	1.145783	0.234463	99
Es	0.866243	-2.139486	-0.412182	99
Es	-2.108994	0.357461	-0.524123	99
Es	-0.272290	0.159805	-1.409582	99
45
Properties=species:S:1:pos:R:3:Z:I:1 energy=-739.2730979463427 field_type=dipole dipole="0.000000 0.000000 0.000000" charge=0
O	-2.020713	0.238225	-0.799034	8
C	-0.574863	0.158615	-0.742294	6
C	0.110997	1.145905	0.234506	6
C	1.211797	0.130725	0.605316	6
S	0.130157	-1.205015	0.204136	16
O	-0.724523	-1.582865	1.311346	8
O	0.759567	-2.175154	-0.666244	8
H	-2.322503	-0.688055	-0.854124	1
H	-0.152363	0.170765	-1.753344	1
H	-0.522043	1.433005	1.083536	1
H	0.481687	2.065245	-0.229034	1
H	2.092017	0.158745	-0.045044	1
H	1.530787	0.149855	1.650276	1
Es	0.074142	-1.222415	0.311960	99
Es	-0.385251	-1.435021	0.902323	99
Es	0.130340	-1.205079	0.204187	99
Es	-0.784922	-1.292343	1.392867	99
Es	-0.724394	-1.582790	1.311184	99
Es	-0.863123	-1.697635	1.087194	99
Es	0.368320	1.754822	-0.086633	99
Es	0.441440	-1.859359	-0.362707	99
Es	-2.020544	0.237961	-0.799050	99
Es	-0.319948	-0.537852	-0.344991	99
Es	0.871362	-1.915119	-0.824940	99
Es	0.243853	-1.224361	0.214934	99
Es	-2.075252	0.356863	-1.059458	99
Es	1.416638	0.135940	1.293599	99
Es	0.610336	-2.408123	-0.699351	99
Es	0.113368	-1.093595	0.163647	99
Es	0.775452	-0.543369	0.471155	99
Es	0.855328	-2.120593	-0.420164	99
Es	-2.110102	0.356756	-0.523439	99
Es	-2.158572	-0.259568	-0.830421	99
Es	1.211699	0.130667	0.605281	99
Es	-0.312602	1.318448	0.802638	99
Es	-1.461407	0.183547	-0.784498	99
Es	0.690051	0.656911	0.443333	99
Es	1.781240	0.141047	0.158393	99
Es	-0.272173	0.159868	-1.409763	99
Es	-0.263122	0.687189	-0.269883	99
Es	0.089054	-1.279651	0.126001	99
Es	-0.575070	0.158562	-0.742205	99
Es	0.111044	1.145787	0.234464	99
Es	0.759449	-2.174963	-0.666082	99
Es	-0.510083	-1.736701	1.398358	99
45
Properties=species:S:1:pos:R:3:Z:I:1 energy=-739.2730979463427 field_type=dipole dipole="0.000000 0.000000 0.000000" charge=0
O	-2.020713	0.238225	-0.799034	8
C	-0.574863	0.158615	-0.742294	6
C	0.110997	1.145905	0.234506	6
C	1.211797	0.130725	0.605316	6
S	0.130157	-1.205015	0.204136	16
O	-0.724523	-1.582865	1.311346	8
O	0.759567	-2.175154	-0.666244	8
H	-2.322503	-0.688055	-0.854124	1
H	-0.152363	0.170765	-1.753344	1
H	-0.522043	1.433005	1.083536	1
H	0.481687	2.065245	-0.229034	1
H	2.092017	0.158745	-0.045044	1
H	1.530787	0.149855	1.650276	1
Es	-0.312459	1.318506	0.802687	99
Es	1.416803	0.136051	1.294030	99
Es	-0.263181	0.686998	-0.270175	99
Es	-0.790249	-1.298559	1.400298	99
Es	0.138316	-1.206367	0.214724	99
Es	0.759390	-2.174940	-0.666049	99
Es	0.131871	-1.205328	0.206383	99
Es	-0.520478	-1.756308	1.396190	99
Es	0.866324	-2.133842	-0.417191	99
Es	-0.852969	-1.679175	1.074240	99
Es	-0.272221	0.159711	-1.409727	99
Es	-2.159305	-0.259402	-0.830634	99
Es	0.215193	-1.130999	0.141771	99
Es	0.869625	-1.918148	-0.828530	99
Es	0.448155	-1.855032	-0.359291	99
Es	-1.461247	0.183146	-0.785678	99
Es	-2.020535	0.237967	-0.799048	99
Es	-0.320051	-0.537846	-0.345084	99
Es	1.211700	0.130668	0.605281	99
Es	0.690090	0.657119	0.443160	99
Es	1.780976	0.141023	0.158355	99
Es	-0.575070	0.158562	-0.742206	99
Es	-2.110106	0.358055	-0.523223	99
Es	0.594399	-2.396199	-0.702189	99
Es	0.368331	1.754738	-0.086385	99
Es	0.111047	1.145782	0.234463	99
Es	-0.724214	-1.582627	1.311123	99
Es	-0.379837	-1.427831	0.910084	99
Es	0.129280	-1.331232	0.181789	99
Es	-2.074651	0.355788	-1.058338	99
Es	0.036137	-1.151154	0.276052	99
Es	0.775488	-0.543298	0.471051	99
45
Properties=species:S:1:pos:R:3:Z:I:1 energy=-739.2730979463427 field_type=dipole dipole="0.000000 0.000000 0.000000" charge=0
O	-2.020713	0.238225	-0.799034	8
C	-0.574863	0.158615	-0.742294	6
C	0.110997	1.145905	0.234506	6
C	1.211797	0.130725	0.605316	6
S	0.130157	-1.205015	0.204136	16
O	-0.724523	-1.582865	1.311346	8
O	0.759567	-2.175154	-0.666244	8
H	-2.322503	-0.688055	-0.854124	1
H	-0.152363	0.170765	-1.753344	1
H	-0.522043	1.433005	1.083536	1
H	0.481687	2.065245	-0.229034	1
H	2.092017	0.158745	-0.045044	1
H	1.530787	0.149855	1.650276	1
Es	0.128211	-1.205201	0.202418	99
Es	0.630004	-2.418560	-0.681952	99
Es	-0.860501	-1.725488	1.101939	99
Es	-0.272072	0.159748	-1.409810	99
Es	0.368295	1.754632	-0.086379	99
Es	-0.724371	-1.582802	1.311172	99
Es	0.433775	-1.867419	-0.367044	99
Es	1.211698	0.130667	0.605279	99
Es	-2.159525	-0.259357	-0.832696	99
Es	-0.575068	0.158564	-0.742206	99
Es	-0.320029	-0.537687	-0.345008	99
Es	-0.398871	-1.426995	0.893903	99
Es	1.781158	0.141034	0.158163	99
Es	-0.263176	0.686711	-0.270269	99
Es	-0.312531	1.318587	0.802640	99
Es	0.088352	-1.307523	0.268156	99
Es	0.759505	-2.175003	-0.666117	99
Es	-2.020496	0.237890	-0.799162	99
Es	0.863235	-2.100942	-0.420555	99
Es	0.690177	0.656864	0.443169	99
Es	0.851400	-1.916133	-0.837679	99
Es	1.416604	0.136176	1.294232	99
Es	0.111046	1.145782	0.234463	99
Es	0.089436	-1.089535	0.241545	99
Es	-0.795052	-1.298221	1.396873	99
Es	0.775528	-0.543170	0.471206	99
Es	-2.073232	0.356128	-1.057538	99
Es	-0.488997	-1.710973	1.388021	99
Es	0.222855	-1.216851	0.112204	99
Es	0.121947	-1.205980	0.196420	99
Es	-1.460756	0.183347	-0.783392	99
Es	-2.111999	0.357537	-0.524064	99
45
Properties=species:S:1:pos:R:3:Z:I:1 energy=-739.2730979463427 field_type=dipole dipole="0.000000 0.000000 0.000000" charge=0
O	-2.020713	0.238225	-0.799034	8
C	-0.574863	0.158615	-0.742294	6
C	0.110997	1.145905	0.234506	6
C	1.211797	0.130725	0.605316	6
S	0.130157	-1.205015	0.204136	16
O	-0.724523	-1.582865	1.311346	8
O	0.759567	-2.175154	-0.666244	8
H	-2.322503	-0.688055	-0.854124	1
H	-0.152363	0.170765	-1.753344	1
H	-0.522043	1.433005	1.083536	1
H	0.481687	2.065245	-0.229034	1
H	2.092017	0.158745	-0.045044	1
H	1.530787	0.149855	1.650276	1
Es	-0.800011	-1.304533	1.410173	99
Es	0.368550	1.754771	-0.086486	99
Es	-0.365366	-1.423971	0.926584	99
Es	1.781351	0.141292	0.158266	99
Es	-2.160472	-0.260219	-0.830597	99
Es	0.876176	-1.915193	-0.822652	99
Es	1.416475	0.136319	1.293657	99
Es	1.211701	0.130668	0.605281	99
Es	-2.072767	0.355259	-1.058312	99
Es	-0.272237	0.159671	-1.409780	99
Es	0.775287	-0.543496	0.471274	99
Es	-0.575068	0.158562	-0.742209	99
Es	0.759447	-2.174952	-0.666069	99
Es	0.852964	-2.127775	-0.424511	99
Es	0.129807	-1.204645	0.203725	99
Es	0.053064	-1.210095	0.140653	99
Es	0.447154	-1.856783	-0.356225	99
Es	0.227334	-1.264665	0.149016	99
Es	-1.461517	0.182905	-0.784014	99
Es	-0.312520	1.318474	0.802791	99
Es	-0.320045	-0.537765	-0.345094	99
Es	0.150469	-1.091421	0.215683	99
Es	-0.835935	-1.655285	1.056211	99
Es	0.111045	1.145781	0.234464	99
Es	0.602218	-2.403412	-0.703801	99
Es	0.689948	0.656871	0.443293	99
Es	-0.724364	-1.582787	1.311133	99
Es	-2.020499	0.237921	-0.798986	99
Es	-0.263033	0.686945	-0.270079	99
Es	-2.110598	0.359648	-0.524920	99
Es	-0.542124	-1.777973	1.387813	99
Es	0.090115	-1.254287	0.311654	99
45
Properties=species:S:1:pos:R:3:Z:I:1 energy=-739.2730979463427 field_type=dipole dipole="0.000000 0.000000 0.000000" charge=0
O	-2.020713	0.238225	-0.799034	8
C	-0.574863	0.158615	-0.742294	6
C	0.110997	1.145905	0.234506	6
C	1.211797	0.130725	0.605316	6
S	0.130157	-1.205015	0.204136	16
O	-0.724523	-1.582865	1.311346	8
O	0.759567	-2.175154	-0.666244	8
H	-2.322503	-0.688055	-0.854124	1
H	-0.152363	0.170765	-1.753344	1
H	-0.522043	1.433005	1.083536	1
H	0.481687	2.065245	-0.229034	1
H	2.092017	0.158745	-0.045044	1
H	1.530787	0.149855	1.650276	1
Es	0.368599	1.754731	-0.086547	99
Es	1.781388	0.141333	0.158200	99
Es	0.111046	1.145784	0.234463	99
Es	-1.461186	0.183577	-0.788245	99
Es	0.759243	-2.174856	-0.666002	99
Es	1.416427	0.136112	1.293827	99
Es	-0.320055	-0.537692	-0.345111	99
Es	-0.263028	0.686711	-0.269973	99
Es	-2.109294	0.359372	-0.523058	99
Es	-0.524065	-1.760330	1.384874	99
Es	0.025122	-1.204778	0.271968	99
Es	0.133722	-1.115874	0.123318	99
Es	0.873665	-1.915606	-0.826505	99
Es	-0.782943	-1.300816	1.412294	99
Es	1.211701	0.130669	0.605281	99
Es	-0.379324	-1.428224	0.908486	99
Es	0.153834	-1.312124	0.152706	99
Es	-2.075102	0.354369	-1.056557	99
Es	0.775351	-0.543334	0.471115	99
Es	-0.312555	1.318475	0.802906	99
Es	-0.857167	-1.672324	1.075174	99
Es	0.689845	0.656974	0.443322	99
Es	-0.272085	0.159710	-1.409872	99
Es	0.625801	-2.417213	-0.689908	99
Es	0.132602	-1.202403	0.207381	99
Es	0.205510	-1.189922	0.265373	99
Es	0.434500	-1.862883	-0.367942	99
Es	-0.724341	-1.582776	1.311093	99
Es	0.844698	-2.107566	-0.422932	99
Es	-2.159767	-0.259775	-0.829961	99
Es	-2.020517	0.237943	-0.799029	99
Es	-0.575074	0.158563	-0.742206	99
45
Properties=species:S:1:pos:R:3:Z:I:1 energy=-739.2730979463427 field_type=dipole dipole="0.000000 0.000000 0.000000" charge=0
O	-2.020713	0.238225	-0.799034	8
C	-0.574863	0.158615	-0.742294	6
C	0.110997	1.145905	0.234506	6
C	1.211797	0.130725	0.605316	6
S	0.130157	-1.205015	0.204136	16
O	-0.724523	-1.582865	1.311346	8
O	0.759567	-2.175154	-0.666244	8
H	-2.322503	-0.688055	-0.854124	1
H	-0.152363	0.170765	-1.753344	1
H	-0.522043	1.433005	1.083536	1
H	0.481687	2.065245	-0.229034	1
H	2.092017	0.158745	-0.045044	1
H	1.530787	0.149855	1.650276	1
Es	-2.020588	0.238082	-0.799056	99
Es	0.163655	-1.309874	0.240183	99
Es	1.415989	0.136324	1.293197	99
Es	0.111048	1.145782	0.234462	99
Es	0.813885	-2.414068	-0.531983	99
Es	-0.798438	-1.296333	1.395965	99
Es	1.781929	0.141386	0.158332	99
Es	0.542447	-1.863939	-0.275915	99
Es	-2.072136	0.350668	-1.053199	99
Es	0.130546	-1.204552	0.203881	99
Es	0.509538	-2.109611	-0.711345	99
Es	-0.320105	-0.537628	-0.345167	99
Es	0.759440	-2.174953	-0.666073	99
Es	0.912698	-1.915487	-0.788008	99
Es	0.368640	1.754586	-0.086626	99
Es	-0.854884	-1.780850	1.147237	99
Es	0.775184	-0.543569	0.471477	99
Es	-0.724395	-1.582823	1.311171	99
Es	0.011428	-1.201007	0.203129	99
Es	-0.575071	0.158563	-0.742206	99
Es	0.689879	0.656902	0.443437	99
Es	-2.160721	-0.259886	-0.831957	99
Es	-0.262852	0.686721	-0.269938	99
Es	-1.460078	0.184427	-0.787996	99
Es	-2.112533	0.362188	-0.524565	99
Es	0.175768	-1.182558	0.092640	99
Es	-0.312624	1.318614	0.802950	99
Es	-0.413591	-1.433479	0.878083	99
Es	-0.272067	0.159613	-1.409821	99
Es	-0.476524	-1.650961	1.359453	99
Es	0.169384	-1.127115	0.280907	99
Es	1.211702	0.130668	0.605282	99
45
Properties=species:S:1:pos:R:3:Z:I:1 energy=-739.2730979463427 field_type=dipole dipole="0.000000 0.000000 0.000000" charge=0
O	-2.020713	0.238225	-0.799034	8
C	-0.574863	0.158615	-0.742294	6
C	0.110997	1.145905	0.234506	6
C	1.211797	0.130725	0.605316	6
S	0.130157	-1.205015	0.204136	16
O	-0.724523	-1.582865	1.311346	8
O	0.759567	-2.175154	-0.666244	8
H	-2.322503	-0.688055	-0.854124	1
H	-0.152363	0.170765	-1.753344	1
H	-0.522043	1.433005	1.083536	1
H	0.481687	2.065245	-0.229034	1
H	2.092017	0.158745	-0.045044	1
H	1.530787	0.149855	1.650276	1
Es	0.021075	-1.154407	0.206470	99
Es	-2.072749	0.353873	-1.055184	99
Es	-2.160559	-0.259789	-0.832441	99
Es	-0.483861	-1.667584	1.371429	99
Es	0.189940	-1.186140	0.095754	99
Es	-0.793726	-1.292768	1.391849	99
Es	1.211701	0.130668	0.605281	99
Es	0.775182	-0.543441	0.471423	99
Es	-0.312739	1.318381	0.803044	99
Es	0.111047	1.145785	0.234465	99
Es	0.689774	0.657020	0.443421	99
Es	0.188199	-1.160509	0.283281	99
Es	-0.575071	0.158564	-0.742205	99
Es	0.121394	-1.319117	0.231052	99
Es	1.781734	0.141341	0.158132	99
Es	-2.020525	0.237936	-0.798994	99
Es	0.368663	1.754715	-0.086580	99
Es	0.518368	-2.092910	-0.709026	99
Es	1.416201	0.136224	1.293346	99
Es	-0.272045	0.159655	-1.409925	99
Es	0.541872	-1.869938	-0.271239	99
Es	-0.262734	0.686642	-0.269999	99
Es	-0.862682	-1.764099	1.133541	99
Es	-0.724338	-1.582780	1.311089	99
Es	-0.403195	-1.437226	0.884050	99
Es	0.922593	-1.916527	-0.778954	99
Es	0.795759	-2.423748	-0.548082	99
Es	-2.111419	0.359905	-0.523832	99
Es	0.759428	-2.174930	-0.666039	99
Es	0.130142	-1.204900	0.204196	99
Es	-1.460730	0.183566	-0.786284	99
Es	-0.320147	-0.537632	-0.345106	99
45
Properties=species:S:1:pos:R:3:Z:I:1 energy=-739.2730979463427 field_type=dipole dipole="0.000000 0.000000 0.000000" charge=0
O	-2.020713	0.238225	-0.799034	8
C	-0.574863	0.158615	-0.742294	6
C	0.110997	1.145905	0.234506	6
C	1.211797	0.130725	0.605316	6
S	0.130157	-1.205015	0.204136	16
O	-0.724523	-1.582865	1.311346	8
O	0.759567	-2.175154	-0.666244	8
H	-2.322503	-0.688055	-0.854124	1
H	-0.152363	0.170765	-1.753344	1
H	-0.522043	1.433005	1.083536	1
H	0.481687	2.065245	-0.229034	1
H	2.092017	0.158745	-0.045044	1
H	1.530787	0.149855	1.650276	1
Es	0.075946	-1.094538	0.242438	99
Es	0.759440	-2.174952	-0.666070	99
Es	0.853672	-2.109677	-0.425623	99
Es	-2.020516	0.237936	-0.799022	99
Es	0.775447	-0.543291	0.471437	99
Es	0.441514	-1.856900	-0.363030	99
Es	-0.272054	0.159788	-1.409905	99
Es	1.416551	0.136118	1.293640	99
Es	1.781342	0.141073	0.158148	99
Es	0.616789	-2.413631	-0.681891	99
Es	0.232683	-1.202755	0.125036	99
Es	0.689875	0.656889	0.443292	99
Es	1.211699	0.130668	0.605281	99
Es	-2.074202	0.354734	-1.059696	99
Es	-0.492864	-1.721648	1.378792	99
Es	-0.575073	0.158563	-0.742206	99
Es	-0.396064	-1.417716	0.899470	99
Es	-0.853828	-1.715403	1.090773	99
Es	-0.262893	0.686914	-0.269791	99
Es	0.368376	1.754780	-0.086759	99
Es	0.866522	-1.922944	-0.836698	99
Es	0.101361	-1.312986	0.266642	99
Es	-2.110406	0.359500	-0.523631	99
Es	-0.724279	-1.582751	1.311056	99
Es	-1.461620	0.182630	-0.785181	99
Es	-0.312784	1.318416	0.802777	99
Es	0.121506	-1.206888	0.194550	99
Es	-0.800738	-1.307015	1.411814	99
Es	0.119276	-1.207923	0.192073	99
Es	-0.320053	-0.537693	-0.344953	99
Es	-2.159119	-0.259254	-0.829293	99
Es	0.111045	1.145784	0.234464	99
45
Properties=species:S:1:pos:R:3:Z:I:1 energy=-739.2730979463427 field_type=dipole dipole="0.000000 0.000000 0.000000" charge=0
O	-2.020713	0.238225	-0.799034	8
C	-0.574863	0.158615	-0.742294	6
C	0.110997	1.145905	0.234506	6
C	1.211797	0.130725	0.605316	6
S	0.130157	-1.205015	0.204136	16
O	-0.724523	-1.582865	1.311346	8
O	0.759567	-2.175154	-0.666244	8
H	-2.322503	-0.688055	-0.854124	1
H	-0.152363	0.170765	-1.753344	1
H	-0.522043	1.433005	1.083536	1
H	0.481687	2.065245	-0.229034	1
H	2.092017	0.158745	-0.045044	1
H	1.530787	0.149855	1.650276	1
Es	-0.411617	-1.429083	0.880452	99
Es	1.416154	0.136392	1.292816	99
Es	0.130088	-1.204943	0.204143	99
Es	-0.724356	-1.582779	1.311123	99
Es	-0.575068	0.158562	-0.742206	99
Es	1.211699	0.130667	0.605281	99
Es	0.049330	-1.261748	0.279414	99
Es	0.759451	-2.174969	-0.666114	99
Es	-0.850817	-1.781213	1.142491	99
Es	0.106470	-1.088338	0.191213	99
Es	0.226130	-1.210957	0.249566	99
Es	-0.272167	0.159525	-1.409780	99
Es	-2.070241	0.350125	-1.053205	99
Es	-1.460309	0.183851	-0.786516	99
Es	-0.320105	-0.537624	-0.345203	99
Es	0.534586	-1.862964	-0.279033	99
Es	-0.312717	1.318562	0.802990	99
Es	-2.020538	0.237988	-0.799017	99
Es	-2.161237	-0.260034	-0.832909	99
Es	0.138761	-1.259121	0.096415	99
Es	0.111045	1.145785	0.234463	99
Es	0.368786	1.754580	-0.086473	99
Es	-0.262735	0.686985	-0.270039	99
Es	0.689715	0.656965	0.443610	99
Es	0.912920	-1.914963	-0.789385	99
Es	-2.113669	0.363496	-0.525146	99
Es	-0.478115	-1.651104	1.357559	99
Es	1.781850	0.141478	0.158275	99
Es	0.818501	-2.408019	-0.525257	99
Es	0.512529	-2.117145	-0.713556	99
Es	0.775154	-0.543819	0.471684	99
Es	-0.802926	-1.300310	1.400277	99
45
Properties=species:S:1:pos:R:3:Z:I:1 energy=-739.2730979463427 field_type=dipole dipole="0.000000 0.000000 0.000000" charge=0
O	-2.020713	0.238225	-0.799034	8
C	-0.574863	0.158615	-0.742294	6
C	0.110997	1.145905	0.234506	6
C	1.211797	0.130725	0.605316	6
S	0.130157	-1.205015	0.204136	16
O	-0.724523	-1.582865	1.311346	8
O	0.759567	-2.175154	-0.666244	8
H	-2.322503	-0.688055	-0.854124	1
H	-0.152363	0.170765	-1.753344	1
H	-0.522043	1.433005	1.083536	1
H	0.481687	2.065245	-0.229034	1
H	2.092017	0.158745	-0.045044	1
H	1.530787	0.149855	1.650276	1
Es	-0.272089	0.159564	-1.409834	99
Es	-0.810954	-1.310773	1.411507	99
Es	-2.112279	0.361750	-0.524505	99
Es	0.022881	-1.244989	0.181123	99
Es	-2.160138	-0.260056	-0.831344	99
Es	-0.320104	-0.537566	-0.345007	99
Es	0.518230	-2.103529	-0.707199	99
Es	0.805233	-2.417581	-0.537815	99
Es	0.774984	-0.543767	0.471533	99
Es	1.211700	0.130668	0.605282	99
Es	-0.262855	0.686745	-0.270050	99
Es	0.111046	1.145783	0.234464	99
Es	-0.312519	1.318250	0.803041	99
Es	-0.409455	-1.414726	0.889834	99
Es	-2.072914	0.351004	-1.053798	99
Es	0.129901	-1.204937	0.203919	99
Es	0.129314	-1.084050	0.208732	99
Es	0.759433	-2.174943	-0.666064	99
Es	0.368958	1.754943	-0.086535	99
Es	0.689590	0.656879	0.443511	99
Es	-2.020503	0.237955	-0.799026	99
Es	-0.846061	-1.768985	1.119344	99
Es	1.781855	0.141588	0.158229	99
Es	-1.460153	0.184796	-0.788111	99
Es	0.537729	-1.866854	-0.275081	99
Es	-0.724363	-1.582791	1.311141	99
Es	1.416098	0.136460	1.292991	99
Es	0.154597	-1.240944	0.303771	99
Es	-0.476993	-1.667258	1.360063	99
Es	0.917378	-1.915161	-0.787156	99
Es	0.214081	-1.250209	0.123179	99
Es	-0.575075	0.158565	-0.742208	99
45
Properties=species:S:1:pos:R:3:Z:I:1 energy=-739.2730979463427 field_type=dipole dipole="0.000000 0.000000 0.000000" charge=0
O	-2.020713	0.238225	-0.799034	8
C	-0.574863	0.158615	-0.742294	6
C	0.110997	1.145905	0.234506	6
C	1.211797	0.130725	0.605316	6
S	0.130157	-1.205015	0.204136	16
O	-0.724523	-1.582865	1.311346	8
O	0.759567	-2.175154	-0.666244	8
H	-2.322503	-0.688055	-0.854124	1
H	-0.152363	0.170765	-1.753344	1
H	-0.522043	1.433005	1.083536	1
H	0.481687	2.065245	-0.229034	1
H	2.092017	0.158745	-0.045044	1
H	1.530787	0.149855	1.650276	1
Es	-0.724377	-1.582782	1.311124	99
Es	0.840940	-2.112834	-0.432549	99
Es	0.368617	1.754871	-0.086783	99
Es	-0.312748	1.318277	0.803024	99
Es	-2.110600	0.360334	-0.523781	99
Es	1.781615	0.141385	0.158179	99
Es	-0.262778	0.686716	-0.269789	99
Es	0.015904	-1.163018	0.218448	99
Es	1.416317	0.136116	1.293274	99
Es	0.775265	-0.543492	0.471378	99
Es	-0.846084	-1.668054	1.070799	99
Es	0.183139	-1.173273	0.284895	99
Es	0.759405	-2.174915	-0.666056	99
Es	-0.575072	0.158565	-0.742205	99
Es	-2.073812	0.353277	-1.055632	99
Es	-0.272083	0.159782	-1.409973	99
Es	0.443018	-1.858620	-0.357056	99
Es	-0.793123	-1.302488	1.412380	99
Es	0.129990	-1.204538	0.205347	99
Es	-2.160031	-0.260074	-0.830787	99
Es	-0.376140	-1.426594	0.912095	99
Es	0.689650	0.657034	0.443425	99
Es	-0.320037	-0.537692	-0.344989	99
Es	-0.528122	-1.764586	1.385529	99
Es	1.211702	0.130668	0.605281	99
Es	-2.020525	0.237953	-0.799041	99
Es	0.877224	-1.917752	-0.827753	99
Es	-1.460853	0.184055	-0.787488	99
Es	0.134069	-1.325102	0.208615	99
Es	0.111048	1.145782	0.234461	99
Es	0.187691	-1.159177	0.103446	99
Es	0.617343	-2.413996	-0.689886	99
45
Properties=species:S:1:pos:R:3:Z:I:1 energy=-739.2730979463427 field_type=dipole dipole="0.000000 0.000000 0.000000" charge=0
O	-2.020713	0.238225	-0.799034	8
C	-0.574863	0.158615	-0.742294	6
C	0.110997	1.145905	0.234506	6
C	1.211797	0.130725	0.605316	6
S	0.130157	-1.205015	0.204136	16
O	-0.724523	-1.582865	1.311346	8
O	0.759567	-2.175154	-0.666244	8
H	-2.322503	-0.688055	-0.854124	1
H	-0.152363	0.170765	-1.753344	1
H	-0.522043	1.433005	1.083536	1
H	0.481687	2.065245	-0.229034	1
H	2.092017	0.158745	-0.045044	1
H	1.530787	0.149855	1.650276	1
Es	0.600095	-2.406685	-0.686836	99
Es	1.211699	0.130668	0.605281	99
Es	-2.073107	0.353543	-1.054968	99
Es	0.072071	-1.220566	0.123213	99
Es	0.130179	-1.205039	0.204172	99
Es	0.368740	1.754827	-0.086740	99
Es	0.210092	-1.294996	0.203261	99
Es	-2.110350	0.360656	-0.522639	99
Es	-0.532685	-1.768508	1.389780	99
Es	-0.831807	-1.664807	1.064072	99
Es	-0.575070	0.158563	-0.742206	99
Es	0.451577	-1.847713	-0.358083	99
Es	1.416411	0.136188	1.293455	99
Es	-0.724529	-1.582889	1.311211	99
Es	-0.312603	1.318396	0.803024	99
Es	0.775254	-0.543493	0.471238	99
Es	-2.020522	0.237983	-0.799051	99
Es	0.759417	-2.174922	-0.666061	99
Es	0.184311	-1.097057	0.185558	99
Es	-0.320055	-0.537773	-0.345093	99
Es	-1.461440	0.183431	-0.788090	99
Es	0.882432	-1.928104	-0.832298	99
Es	1.781458	0.141323	0.158288	99
Es	0.111046	1.145784	0.234463	99
Es	0.054143	-1.207450	0.304550	99
Es	0.689585	0.657110	0.443284	99
Es	-2.160282	-0.260121	-0.832052	99
Es	-0.808084	-1.306447	1.407725	99
Es	-0.272250	0.159665	-1.409886	99
Es	0.844398	-2.120752	-0.429973	99
Es	-0.370704	-1.421875	0.919133	99
Es	-0.262867	0.686889	-0.269799	99
45
Properties=species:S:1:pos:R:3:Z:I:1 energy=-739.2730979463427 field_type=dipole dipole="0.000000 0.000000 0.000000" charge=0
O	-2.020713	0.238225	-0.799034	8
C	-0.574863	0.158615	-0.742294	6
C	0.110997	1.145905	0.234506	6
C	1.211797	0.130725	0.605316	6
S	0.130157	-1.205015	0.204136	16
O	-0.724523	-1.582865	1.311346	8
O	0.759567	-2.175154	-0.666244	8
H	-2.322503	-0.688055	-0.854124	1
H	-0.152363	0.170765	-1.753344	1
H	-0.522043	1.433005	1.083536	1
H	0.481687	2.065245	-0.229034	1
H	2.092017	0.158745	-0.045044	1
H	1.530787	0.149855	1.650276	1
Es	0.440176	-1.859316	-0.360804	99
Es	0.046546	-1.259484	0.163346	99
Es	-1.460895	0.183934	-0.788213	99
Es	0.232738	-1.232901	0.137393	99
Es	-0.802961	-1.310846	1.416790	99
Es	0.835307	-2.098820	-0.437408	99
Es	1.781782	0.141288	0.158159	99
Es	-0.320016	-0.537644	-0.345017	99
Es	-0.312779	1.318258	0.802912	99
Es	0.872083	-1.920868	-0.834652	99
Es	-0.575071	0.158563	-0.742205	99
Es	0.759360	-2.174892	-0.666039	99
Es	0.130018	-1.204741	0.204495	99
Es	-2.109633	0.358716	-0.522805	99
Es	-0.507218	-1.743003	1.379236	99
Es	0.139586	-1.237364	0.319420	99
Es	0.689576	0.656791	0.443412	99
Es	-2.020477	0.237927	-0.799099	99
Es	-0.724312	-1.582748	1.311041	99
Es	-2.159715	-0.259723	-0.830918	99
Es	0.101881	-1.090639	0.196089	99
Es	-0.385733	-1.414928	0.908860	99
Es	1.416179	0.136236	1.293178	99
Es	-2.075145	0.354680	-1.055721	99
Es	0.631013	-2.424225	-0.674374	99
Es	0.368724	1.754952	-0.086854	99
Es	-0.272087	0.159776	-1.409926	99
Es	1.211700	0.130667	0.605280	99
Es	0.111045	1.145783	0.234463	99
Es	-0.847608	-1.693020	1.075975	99
Es	0.775217	-0.543442	0.471541	99
Es	-0.262731	0.686865	-0.269624	99
45
Properties=species:S:1:pos:R:3:Z:I:1 energy=-739.2730979463427 field_type=dipole dipole="0.000000 0.000000 0.000000" charge=0
O	-2.020713	0.238225	-0.799034	8
C	-0.574863	0.158615	-0.742294	6
C	0.110997	1.145905	0.234506	6
C	1.211797	0.130725	0.605316	6
S	0.130157	-1.205015	0.204136	16
O	-0.724523	-1.582865	1.311346	8
O	0.759567	-2.175154	-0.666244	8
H	-2.322503	-0.688055	-0.854124	1
H	-0.152363	0.170765	-1.753344	1
H	-0.522043	1.433005	1.083536	1
H	0.481687	2.065245	-0.229034	1
H	2.092017	0.158745	-0.045044	1
H	1.530787	0.149855	1.650276	1
Es	-2.159526	-0.259874	-0.828336	99
Es	-0.489947	-1.727471	1.369459	99
Es	0.121125	-1.326254	0.195670	99
Es	1.416399	0.136013	1.293250	99
Es	0.111046	1.145784	0.234464	99
Es	-2.109574	0.360212	-0.524148	99
Es	-0.575066	0.158562	-0.742206	99
Es	-0.810236	-1.318315	1.424743	99
Es	0.631708	-2.422273	-0.680840	99
Es	0.035233	-1.151394	0.267191	99
Es	-0.272081	0.159894	-1.409906	99
Es	-1.461153	0.183759	-0.787343	99
Es	0.759397	-2.174945	-0.666036	99
Es	0.156410	-1.151605	0.095959	99
Es	1.211701	0.130668	0.605282	99
Es	0.874940	-1.918174	-0.829825	99
Es	-0.844178	-1.709731	1.084240	99
Es	-0.262726	0.687037	-0.269670	99
Es	1.781569	0.141168	0.158213	99
Es	0.130399	-1.204959	0.204354	99
Es	-0.399106	-1.406235	0.902308	99
Es	0.689522	0.656811	0.443474	99
Es	-0.724355	-1.582782	1.311131	99
Es	0.435107	-1.861991	-0.366182	99
Es	-2.020499	0.237908	-0.799040	99
Es	0.836754	-2.100788	-0.430355	99
Es	0.207638	-1.190875	0.257568	99
Es	0.368683	1.754870	-0.086889	99
Es	-2.075077	0.353605	-1.057910	99
Es	-0.312952	1.318343	0.802791	99
Es	0.775397	-0.543352	0.471441	99
Es	-0.320001	-0.537785	-0.344919	99
45
Properties=species:S:1:pos:R:3:Z:I:1 energy=-739.2730979463427 field_type=dipole dipole="0.000000 0.000000 0.000000" charge=0
O	-2.020713	0.238225	-0.799034	8
C	-0.574863	0.158615	-0.742294	6
C	0.110997	1.145905	0.234506	6