38
Properties=species:S:1:pos:R:3:Z:I:1 energy=-301.82068033987423 field_type=dipole dipole="0.000000 0.000000 0.000000" charge=0
C	-2.063146	-0.054197	0.113219	6
C	-0.570556	-0.020807	0.042699	6
C	0.125654	1.183663	-0.003311	6
N	1.476294	1.251003	-0.081921	7
C	2.110094	0.058783	-0.118271	6
C	1.427484	-1.144587	-0.078711	6
N	0.078384	-1.211007	0.001219	7
H	-2.483816	0.942383	0.283299	1
H	-2.384626	-0.700907	0.936479	1
H	-2.471126	-0.445487	-0.824421	1
H	-0.385006	2.139703	0.022589	1
H	3.191244	0.095123	-0.181681	1
H	1.949124	-2.093667	-0.111191	1
Es	1.427375	-1.144617	-0.078706	99
Es	-2.323635	-0.314858	-0.516809	99
Es	2.110061	0.058885	-0.118262	99
Es	-0.194595	-0.671346	0.018421	99
Es	-0.113614	-1.537240	0.012139	99
Es	2.844953	0.070393	-0.161341	99
Es	1.646857	0.609180	-0.344504	99
Es	-0.570562	-0.020907	0.042700	99
Es	1.776098	-0.547763	-0.099101	99
Es	0.677539	-1.045537	0.220073	99
Es	0.876598	1.200781	-0.047457	99
Es	1.675034	0.609011	0.160713	99
Es	-0.232527	1.827826	0.015246	99
Es	1.656476	1.581912	-0.093059	99
Es	1.792498	-1.782603	-0.101340	99
Es	0.125759	1.183682	-0.003312	99
Es	-2.063090	-0.054180	0.113215	99
Es	-0.062538	0.530564	-0.278595	99
Es	-2.339129	0.627354	0.226509	99
Es	1.476008	1.250460	-0.081904	99
Es	0.648645	-1.046273	-0.285834	99
Es	-0.029941	0.531219	0.299624	99
Es	-1.315586	-0.029313	0.081270	99
Es	0.078673	-1.210525	0.001199	99
Es	-2.269424	-0.486724	0.664467	99
38
Properties=species:S:1:pos:R:3:Z:I:1 energy=-301.82068033987423 field_type=dipole dipole="0.000000 0.000000 0.000000" charge=0
C	-2.063146	-0.054197	0.113219	6
C	-0.570556	-0.020807	0.042699	6
C	0.125654	1.183663	-0.003311	6
N	1.476294	1.251003	-0.081921	7
C	2.110094	0.058783	-0.118271	6
C	1.427484	-1.144587	-0.078711	6
N	0.078384	-1.211007	0.001219	7
H	-2.483816	0.942383	0.283299	1
H	-2.384626	-0.700907	0.936479	1
H	-2.471126	-0.445487	-0.824421	1
H	-0.385006	2.139703	0.022589	1
H	3.191244	0.095123	-0.181681	1
H	1.949124	-2.093667	-0.111191	1
Es	-2.320298	-0.313037	-0.507094	99
Es	1.663350	1.582391	-0.093447	99
Es	0.873180	1.189919	-0.045700	99
Es	1.734486	0.702611	-0.095116	99
Es	1.427377	-1.144618	-0.078705	99
Es	1.792493	-1.784578	-0.101238	99
Es	-1.312778	-0.030472	0.079262	99
Es	1.769563	-0.544701	-0.100351	99
Es	-0.110972	-1.543505	0.011793	99
Es	0.683190	-1.150321	-0.033851	99
Es	-2.345265	0.630033	0.225292	99
Es	2.110063	0.058883	-0.118271	99
Es	-0.235439	1.828304	0.015259	99
Es	-2.271144	-0.488077	0.658102	99
Es	-0.223540	0.582144	0.019028	99
Es	-2.063091	-0.054180	0.113215	99
Es	0.274668	-0.854216	-0.012676	99
Es	0.078685	-1.210473	0.001202	99
Es	0.426114	0.831416	-0.018770	99
Es	1.656165	0.079411	-0.090881	99
Es	2.846809	0.071387	-0.161184	99
Es	-0.570558	-0.020910	0.042703	99
Es	-0.186885	-0.662181	0.022012	99
Es	1.475993	1.250466	-0.081903	99
Es	0.125763	1.183687	-0.003327	99
38
Properties=species:S:1:pos:R:3:Z:I:1 energy=-301.82068033987423 field_type=dipole dipole="0.000000 0.000000 0.000000" charge=0
C	-2.063146	-0.054197	0.113219	6
C	-0.570556	-0.020807	0.042699	6
C	0.125654	1.183663	-0.003311	6
N	1.476294	1.251003	-0.081921	7
C	2.110094	0.058783	-0.118271	6
C	1.427484	-1.144587	-0.078711	6
N	0.078384	-1.211007	0.001219	7
H	-2.483816	0.942383	0.283299	1
H	-2.384626	-0.700907	0.936479	1
H	-2.471126	-0.445487	-0.824421	1
H	-0.385006	2.139703	0.022589	1
H	3.191244	0.095123	-0.181681	1
H	1.949124	-2.093667	-0.111191	1
Es	1.769464	-0.544619	-0.099517	99
Es	-0.570558	-0.020909	0.042696	99
Es	-2.310769	-0.303646	-0.493649	99
Es	1.475991	1.250469	-0.081903	99
Es	-0.187780	-0.662426	0.016988	99
Es	-2.277621	-0.495431	0.648531	99
Es	0.683362	-1.150421	-0.034879	99
Es	1.735344	0.702746	-0.092867	99
Es	0.125764	1.183687	-0.003311	99
Es	1.792680	-1.784524	-0.101404	99
Es	-0.235594	1.828273	0.015550	99
Es	1.427378	-1.144619	-0.078706	99
Es	-2.063090	-0.054179	0.113215	99
Es	1.662858	1.581684	-0.092547	99
Es	2.846922	0.071203	-0.160948	99
Es	-1.310921	-0.033215	0.077718	99
Es	0.873170	1.190280	-0.042412	99
Es	2.110063	0.058884	-0.118267	99
Es	-2.350278	0.630833	0.222804	99
Es	1.658442	0.078236	-0.094160	99
Es	-0.223625	0.582190	0.017601	99
Es	0.078687	-1.210486	0.001202	99
Es	0.422749	0.830025	-0.020697	99
Es	-0.110553	-1.542966	0.010586	99
Es	0.275849	-0.851689	-0.006272	99
38
Properties=species:S:1:pos:R:3:Z:I:1 energy=-301.82068033987423 field_type=dipole dipole="0.000000 0.000000 0.000000" charge=0
C	-2.063146	-0.054197	0.113219	6
C	-0.570556	-0.020807	0.042699	6
C	0.125654	1.183663	-0.003311	6
N	1.476294	1.251003	-0.081921	7
C	2.110094	0.058783	-0.118271	6
C	1.427484	-1.144587	-0.078711	6
N	0.078384	-1.211007	0.001219	7
H	-2.483816	0.942383	0.283299	1
H	-2.384626	-0.700907	0.936479	1
H	-2.471126	-0.445487	-0.824421	1
H	-0.385006	2.139703	0.022589	1
H	3.191244	0.095123	-0.181681	1
H	1.949124	-2.093667	-0.111191	1
Es	0.125764	1.183688	-0.003315	99
Es	1.736037	0.702857	-0.088727	99
Es	1.769294	-0.544570	-0.101679	99
Es	1.475997	1.250479	-0.081903	99
Es	-0.188324	-0.662435	0.014020	99
Es	-2.063092	-0.054180	0.113214	99
Es	-0.110425	-1.542060	0.008360	99
Es	0.276286	-0.849148	-0.003561	99
Es	2.847022	0.071060	-0.160242	99
Es	-2.296880	-0.514677	0.606132	99
Es	-0.223732	0.582081	0.013004	99
Es	2.110063	0.058885	-0.118263	99
Es	1.792835	-1.784490	-0.101545	99
Es	0.683676	-1.151095	-0.033177	99
Es	1.660120	0.076105	-0.096466	99
Es	1.662602	1.580907	-0.091264	99
Es	0.078683	-1.210475	0.001202	99
Es	-0.570560	-0.020912	0.042698	99
Es	0.873090	1.190732	-0.037820	99
Es	-2.352237	0.630757	0.221741	99
Es	-2.290042	-0.283253	-0.450284	99
Es	0.420630	0.829620	-0.021106	99
Es	1.427378	-1.144619	-0.078704	99
Es	-0.235728	1.828235	0.015652	99
Es	-1.310526	-0.034108	0.077385	99
38
Properties=species:S:1:pos:R:3:Z:I:1 energy=-301.82068033987423 field_type=dipole dipole="0.000000 0.000000 0.000000" charge=0
C	-2.063146	-0.054197	0.113219	6
C	-0.570556	-0.020807	0.042699	6
C	0.125654	1.183663	-0.003311	6
N	1.476294	1.251003	-0.081921	7
C	2.110094	0.058783	-0.118271	6
C	1.427484	-1.144587	-0.078711	6
N	0.078384	-1.211007	0.001219	7
H	-2.483816	0.942383	0.283299	1
H	-2.384626	-0.700907	0.936479	1
H	-2.471126	-0.445487	-0.824421	1
H	-0.385006	2.139703	0.022589	1
H	3.191244	0.095123	-0.181681	1
H	1.949124	-2.093667	-0.111191	1
Es	0.078688	-1.210469	0.001202	99
Es	-0.110247	-1.541210	0.008123	99
Es	1.661363	0.075589	-0.098151	99
Es	0.125764	1.183687	-0.003307	99
Es	1.475989	1.250461	-0.081902	99
Es	1.427377	-1.144618	-0.078705	99
Es	2.110064	0.058885	-0.118258	99
Es	1.736647	0.702919	-0.088016	99
Es	-0.235832	1.828200	0.015438	99
Es	-2.352688	0.630657	0.221299	99
Es	-2.308483	-0.522659	0.564275	99
Es	-0.188738	-0.662415	0.012825	99
Es	0.277769	-0.847731	-0.003630	99
Es	0.417827	0.828743	-0.020235	99
Es	1.769233	-0.544555	-0.100799	99
Es	0.872987	1.191258	-0.036416	99
Es	-0.223774	0.582071	0.010640	99
Es	-0.570559	-0.020911	0.042699	99
Es	-1.310419	-0.034185	0.077917	99
Es	0.683948	-1.151941	-0.031908	99
Es	2.847059	0.071004	-0.159865	99
Es	1.792954	-1.784445	-0.101459	99
Es	-2.063089	-0.054184	0.113218	99
Es	1.662235	1.580235	-0.090934	99
Es	-2.278143	-0.275005	-0.408700	99
38
Properties=species:S:1:pos:R:3:Z:I:1 energy=-301.82068033987423 field_type=dipole dipole="0.000000 0.000000 0.000000" charge=0
C	-2.063146	-0.054197	0.113219	6
C	-0.570556	-0.020807	0.042699	6
C	0.125654	1.183663	-0.003311	6
N	1.476294	1.251003	-0.081921	7
C	2.110094	0.058783	-0.118271	6
C	1.427484	-1.144587	-0.078711	6
N	0.078384	-1.211007	0.001219	7
H	-2.483816	0.942383	0.283299	1
H	-2.384626	-0.700907	0.936479	1
H	-2.471126	-0.445487	-0.824421	1
H	-0.385006	2.139703	0.022589	1
H	3.191244	0.095123	-0.181681	1
H	1.949124	-2.093667	-0.111191	1
Es	1.793066	-1.784428	-0.101292	99
Es	1.769311	-0.544484	-0.099033	99
Es	0.684017	-1.152047	-0.032269	99
Es	-0.110083	-1.540933	0.008043	99
Es	-0.570558	-0.020910	0.042696	99
Es	-1.310383	-0.034182	0.077931	99
Es	-2.314641	-0.525843	0.536022	99
Es	-2.353053	0.630592	0.220948	99
Es	0.277728	-0.846062	-0.001623	99
Es	-0.235865	1.828212	0.015271	99
Es	1.736624	0.702937	-0.089051	99
Es	1.662007	0.073599	-0.098805	99
Es	-0.189021	-0.662527	0.011179	99
Es	1.662154	1.580022	-0.090984	99
Es	1.475990	1.250463	-0.081902	99
Es	-0.223845	0.582032	0.008997	99
Es	0.125763	1.183687	-0.003320	99
Es	1.427378	-1.144618	-0.078703	99
Es	2.847132	0.070852	-0.159798	99
Es	0.417275	0.829072	-0.019277	99
Es	-2.271689	-0.271655	-0.380181	99
Es	0.872956	1.191364	-0.035646	99
Es	2.110063	0.058884	-0.118268	99
Es	0.078696	-1.210462	0.001203	99
Es	-2.063090	-0.054180	0.113215	99
38
Properties=species:S:1:pos:R:3:Z:I:1 energy=-301.82068033987423 field_type=dipole dipole="0.000000 0.000000 0.000000" charge=0
C	-2.063146	-0.054197	0.113219	6
C	-0.570556	-0.020807	0.042699	6
C	0.125654	1.183663	-0.003311	6
N	1.476294	1.251003	-0.081921	7
C	2.110094	0.058783	-0.118271	6
C	1.427484	-1.144587	-0.078711	6
N	0.078384	-1.211007	0.001219	7
H	-2.483816	0.942383	0.283299	1
H	-2.384626	-0.700907	0.936479	1
H	-2.471126	-0.445487	-0.824421	1
H	-0.385006	2.139703	0.022589	1
H	3.191244	0.095123	-0.181681	1
H	1.949124	-2.093667	-0.111191	1
Es	1.661804	1.579768	-0.091125	99
Es	-2.318711	-0.527398	0.515989	99
Es	-2.267515	-0.270014	-0.359839	99
Es	2.110059	0.058886	-0.118219	99
Es	1.662743	0.074148	-0.099214	99
Es	1.427378	-1.144619	-0.078705	99
Es	0.872870	1.191519	-0.036462	99
Es	0.415249	0.828100	-0.017908	99
Es	-0.189254	-0.662608	0.010819	99
Es	1.736974	0.703000	-0.089183	99
Es	-0.570558	-0.020910	0.042696	99
Es	-0.109933	-1.540647	0.007936	99
Es	-0.235962	1.828220	0.015125	99
Es	-2.353166	0.630630	0.220362	99
Es	-0.223795	0.582043	0.008570	99
Es	0.125764	1.183687	-0.003319	99
Es	0.278988	-0.845696	-0.002900	99
Es	-2.063091	-0.054179	0.113215	99
Es	-1.310383	-0.034267	0.078174	99
Es	1.476006	1.250471	-0.081903	99
Es	2.847146	0.070844	-0.159530	99
Es	1.769320	-0.544523	-0.098703	99
Es	0.078694	-1.210479	0.001200	99
Es	0.684190	-1.152158	-0.030499	99
Es	1.793113	-1.784432	-0.101224	99
38
Properties=species:S:1:pos:R:3:Z:I:1 energy=-301.82068033987423 field_type=dipole dipole="0.000000 0.000000 0.000000" charge=0
C	-2.063146	-0.054197	0.113219	6
C	-0.570556	-0.020807	0.042699	6
C	0.125654	1.183663	-0.003311	6
N	1.476294	1.251003	-0.081921	7
C	2.110094	0.058783	-0.118271	6
C	1.427484	-1.144587	-0.078711	6
N	0.078384	-1.211007	0.001219	7
H	-2.483816	0.942383	0.283299	1
H	-2.384626	-0.700907	0.936479	1
H	-2.471126	-0.445487	-0.824421	1
H	-0.385006	2.139703	0.022589	1
H	3.191244	0.095123	-0.181681	1
H	1.949124	-2.093667	-0.111191	1
Es	-0.109966	-1.540288	0.008268	99
Es	-1.310392	-0.034214	0.078112	99
Es	-2.353290	0.630578	0.219895	99
Es	0.872828	1.191880	-0.035041	99
Es	2.110063	0.058885	-0.118259	99
Es	0.280209	-0.845578	-0.003367	99
Es	0.078688	-1.210473	0.001201	99
Es	0.684307	-1.152557	-0.029676	99
Es	1.793169	-1.784429	-0.101195	99
Es	1.663131	0.074752	-0.100276	99
Es	-0.235998	1.828170	0.015012	99
Es	-0.189217	-0.662508	0.010056	99
Es	-2.264571	-0.269049	-0.344159	99
Es	2.847163	0.070800	-0.159502	99
Es	-0.570559	-0.020910	0.042697	99
Es	1.475988	1.250465	-0.081902	99
Es	-2.063092	-0.054179	0.113215	99
Es	1.427377	-1.144618	-0.078708	99
Es	-0.223846	0.581984	0.009114	99
Es	1.769385	-0.544512	-0.097092	99
Es	1.736927	0.702979	-0.089828	99
Es	-2.321561	-0.528338	0.500788	99
Es	1.661913	1.579422	-0.091101	99
Es	0.125763	1.183687	-0.003318	99
Es	0.413511	0.827435	-0.019583	99
38
Properties=species:S:1:pos:R:3:Z:I:1 energy=-301.82068033987423 field_type=dipole dipole="0.000000 0.000000 0.000000" charge=0
C	-2.063146	-0.054197	0.113219	6
C	-0.570556	-0.020807	0.042699	6
C	0.125654	1.183663	-0.003311	6
N	1.476294	1.251003	-0.081921	7
C	2.110094	0.058783	-0.118271	6
C	1.427484	-1.144587	-0.078711	6
N	0.078384	-1.211007	0.001219	7
H	-2.483816	0.942383	0.283299	1
H	-2.384626	-0.700907	0.936479	1
H	-2.471126	-0.445487	-0.824421	1
H	-0.385006	2.139703	0.022589	1
H	3.191244	0.095123	-0.181681	1
H	1.949124	-2.093667	-0.111191	1
Es	-0.109756	-1.540426	0.008632	99
Es	0.872700	1.191767	-0.036622	99
Es	1.793177	-1.784419	-0.101026	99
Es	1.737287	0.703161	-0.090034	99
Es	-0.223780	0.582004	0.008985	99
Es	1.661595	1.579306	-0.091162	99
Es	-0.570559	-0.020910	0.042694	99
Es	2.110063	0.058886	-0.118260	99
Es	0.276794	-0.842767	-0.003214	99
Es	-0.189446	-0.662625	0.009198	99
Es	0.125763	1.183687	-0.003317	99
Es	0.684312	-1.152310	-0.029027	99
Es	-0.236056	1.828181	0.014894	99
Es	1.475992	1.250466	-0.081903	99
Es	2.847184	0.070786	-0.159351	99
Es	1.769382	-0.544495	-0.097527	99
Es	-2.262525	-0.268475	-0.332400	99
Es	1.427377	-1.144618	-0.078703	99
Es	-1.310387	-0.034204	0.077936	99
Es	-2.063090	-0.054179	0.113215	99
Es	0.417060	0.830066	-0.018188	99
Es	-2.353417	0.630558	0.219840	99
Es	-2.323500	-0.528842	0.489172	99
Es	1.663072	0.069253	-0.099682	99
Es	0.078690	-1.210468	0.001204	99
38
Properties=species:S:1:pos:R:3:Z:I:1 energy=-301.82068033987423 field_type=dipole dipole="0.000000 0.000000 0.000000" charge=0
C	-2.063146	-0.054197	0.113219	6
C	-0.570556	-0.020807	0.042699	6
C	0.125654	1.183663	-0.003311	6
N	1.476294	1.251003	-0.081921	7
C	2.110094	0.058783	-0.118271	6
C	1.427484	-1.144587	-0.078711	6
N	0.078384	-1.211007	0.001219	7
H	-2.483816	0.942383	0.283299	1
H	-2.384626	-0.700907	0.936479	1
H	-2.471126	-0.445487	-0.824421	1
H	-0.385006	2.139703	0.022589	1
H	3.191244	0.095123	-0.181681	1
H	1.949124	-2.093667	-0.111191	1
Es	0.684275	-1.152618	-0.029753	99
Es	1.737107	0.703027	-0.090640	99
Es	1.769443	-0.544500	-0.096637	99
Es	-2.260733	-0.268084	-0.322067	99
Es	-0.570559	-0.020910	0.042696	99
Es	1.475996	1.250467	-0.081903	99
Es	-2.325262	-0.529160	0.479048	99
Es	0.414979	0.828846	-0.016639	99
Es	1.661701	1.579139	-0.091361	99
Es	0.872683	1.192143	-0.037494	99
Es	-0.236100	1.828148	0.014750	99
Es	2.847194	0.070773	-0.159400	99
Es	0.078686	-1.210473	0.001201	99
Es	1.663521	0.070861	-0.099750	99
Es	1.427378	-1.144618	-0.078704	99
Es	-0.109579	-1.540171	0.008435	99
Es	-2.353472	0.630550	0.219501	99
Es	-0.223747	0.581970	0.008560	99
Es	0.278526	-0.843182	-0.001272	99
Es	2.110063	0.058886	-0.118257	99
Es	-0.189651	-0.662528	0.008016	99
Es	0.125763	1.183687	-0.003326	99
Es	-2.063092	-0.054181	0.113212	99
Es	1.793191	-1.784423	-0.100940	99
Es	-1.310381	-0.034266	0.078076	99
38
Properties=species:S:1:pos:R:3:Z:I:1 energy=-301.82068033987423 field_type=dipole dipole="0.000000 0.000000 0.000000" charge=0
C	-2.063146	-0.054197	0.113219	6
C	-0.570556	-0.020807	0.042699	6
C	0.125654	1.183663	-0.003311	6
N	1.476294	1.251003	-0.081921	7
C	2.110094	0.058783	-0.118271	6
C	1.427484	-1.144587	-0.078711	6
N	0.078384	-1.211007	0.001219	7
H	-2.483816	0.942383	0.283299	1
H	-2.384626	-0.700907	0.936479	1
H	-2.471126	-0.445487	-0.824421	1
H	-0.385006	2.139703	0.022589	1
H	3.191244	0.095123	-0.181681	1
H	1.949124	-2.093667	-0.111191	1
Es	-0.109472	-1.539979	0.008766	99
Es	-0.223791	0.582012	0.008713	99
Es	2.110062	0.058884	-0.118256	99
Es	0.872594	1.192208	-0.037512	99
Es	0.125763	1.183687	-0.003318	99
Es	-2.353525	0.630510	0.219465	99
Es	-2.259422	-0.267863	-0.314217	99
Es	2.847200	0.070747	-0.159365	99
Es	-0.236087	1.828178	0.014674	99
Es	0.684398	-1.152728	-0.028385	99
Es	0.415728	0.829484	-0.016963	99
Es	-2.063092	-0.054180	0.113213	99
Es	1.769410	-0.544510	-0.095696	99
Es	1.663507	0.069465	-0.100577	99
Es	1.475987	1.250461	-0.081902	99
Es	-1.310385	-0.034127	0.078235	99
Es	1.427377	-1.144619	-0.078702	99
Es	0.078686	-1.210467	0.001196	99
Es	1.793261	-1.784406	-0.100872	99
Es	1.737485	0.703155	-0.090866	99
Es	-2.326526	-0.529437	0.471065	99
Es	1.661448	1.578845	-0.091268	99
Es	-0.189756	-0.662597	0.009247	99
Es	0.277642	-0.842430	-0.004020	99
Es	-0.570559	-0.020910	0.042696	99
38
Properties=species:S:1:pos:R:3:Z:I:1 energy=-301.82068033987423 field_type=dipole dipole="0.000000 0.000000 0.000000" charge=0
C	-2.063146	-0.054197	0.113219	6
C	-0.570556	-0.020807	0.042699	6
C	0.125654	1.183663	-0.003311	6
N	1.476294	1.251003	-0.081921	7
C	2.110094	0.058783	-0.118271	6
C	1.427484	-1.144587	-0.078711	6
N	0.078384	-1.211007	0.001219	7
H	-2.483816	0.942383	0.283299	1
H	-2.384626	-0.700907	0.936479	1
H	-2.471126	-0.445487	-0.824421	1
H	-0.385006	2.139703	0.022589	1
H	3.191244	0.095123	-0.181681	1
H	1.949124	-2.093667	-0.111191	1
Es	-0.109474	-1.539876	0.008804	99
Es	1.737436	0.703239	-0.091223	99
Es	1.793296	-1.784406	-0.100793	99
Es	0.078688	-1.210471	0.001201	99
Es	-0.570559	-0.020910	0.042696	99
Es	-0.236129	1.828159	0.014645	99
Es	-2.258377	-0.267673	-0.307660	99
Es	-0.223796	0.582029	0.008727	99
Es	-1.310353	-0.034275	0.078031	99
Es	-0.189780	-0.662597	0.008473	99
Es	0.278937	-0.842752	-0.003774	99
Es	1.663844	0.070634	-0.100156	99
Es	0.684452	-1.152821	-0.027815	99
Es	0.872561	1.192112	-0.037354	99
Es	-2.327527	-0.529535	0.464948	99
Es	1.769395	-0.544468	-0.095944	99
Es	2.847216	0.070703	-0.159336	99
Es	1.475986	1.250465	-0.081901	99
Es	2.110063	0.058885	-0.118256	99
Es	0.414115	0.828636	-0.016913	99
Es	-2.063094	-0.054186	0.113215	99
Es	1.661462	1.578898	-0.091420	99
Es	0.125763	1.183687	-0.003319	99
Es	1.427378	-1.144619	-0.078704	99
Es	-2.353573	0.630525	0.219179	99
38
Properties=species:S:1:pos:R:3:Z:I:1 energy=-301.82068033987423 field_type=dipole dipole="0.000000 0.000000 0.000000" charge=0
C	-2.063146	-0.054197	0.113219	6
C	-0.570556	-0.020807	0.042699	6
C	0.125654	1.183663	-0.003311	6
N	1.476294	1.251003	-0.081921	7
C	2.110094	0.058783	-0.118271	6
C	1.427484	-1.144587	-0.078711	6
N	0.078384	-1.211007	0.001219	7
H	-2.483816	0.942383	0.283299	1
H	-2.384626	-0.700907	0.936479	1
H	-2.471126	-0.445487	-0.824421	1
H	-0.385006	2.139703	0.022589	1
H	3.191244	0.095123	-0.181681	1
H	1.949124	-2.093667	-0.111191	1
Es	0.684313	-1.151141	-0.022990	99
Es	-2.222256	-0.369952	0.445533	99
Es	2.846744	0.070945	-0.163352	99
Es	-0.235998	1.828111	0.011819	99
Es	-0.221795	0.582128	0.035599	99
Es	-2.063100	-0.054185	0.113200	99
Es	0.418360	0.830835	-0.002072	99
Es	1.733693	0.701508	-0.125195	99
Es	0.078689	-1.210472	0.001198	99
Es	1.427378	-1.144618	-0.078696	99
Es	0.277868	-0.849240	-0.030117	99
Es	-0.570559	-0.020911	0.042701	99
Es	1.476000	1.250477	-0.081903	99
Es	1.661502	1.579961	-0.101178	99
Es	1.661424	0.075295	-0.090201	99
Es	0.125763	1.183687	-0.003327	99
Es	-2.354861	0.630103	0.212809	99
Es	-2.361932	-0.425517	-0.275228	99
Es	-1.310466	-0.035762	0.073784	99
Es	2.110060	0.058885	-0.118291	99
Es	1.770441	-0.543337	-0.069371	99
Es	-0.108887	-1.541032	0.026193	99
Es	0.870299	1.190194	-0.075891	99
Es	1.793129	-1.784410	-0.098333	99
Es	-0.187879	-0.662171	0.018662	99
38
Properties=species:S:1:pos:R:3:Z:I:1 energy=-301.82068033987423 field_type=dipole dipole="0.000000 0.000000 0.000000" charge=0
C	-2.063146	-0.054197	0.113219	6
C	-0.570556	-0.020807	0.042699	6
C	0.125654	1.183663	-0.003311	6
N	1.476294	1.251003	-0.081921	7
C	2.110094	0.058783	-0.118271	6
C	1.427484	-1.144587	-0.078711	6
N	0.078384	-1.211007	0.001219	7
H	-2.483816	0.942383	0.283299	1
H	-2.384626	-0.700907	0.936479	1
H	-2.471126	-0.445487	-0.824421	1
H	-0.385006	2.139703	0.022589	1
H	3.191244	0.095123	-0.181681	1
H	1.949124	-2.093667	-0.111191	1
Es	0.125764	1.183687	-0.003319	99
Es	1.661388	1.578714	-0.091663	99
Es	0.078685	-1.210474	0.001201	99
Es	1.427378	-1.144618	-0.078703	99
Es	0.872539	1.192384	-0.037705	99
Es	0.281500	-0.843715	-0.005066	99
Es	1.664343	0.073397	-0.100548	99
Es	1.475991	1.250466	-0.081903	99
Es	0.684522	-1.152854	-0.026955	99
Es	1.769471	-0.544467	-0.094630	99
Es	0.411021	0.826800	-0.015618	99
Es	-0.223802	0.581953	0.007919	99
Es	-1.310365	-0.034212	0.078030	99
Es	-2.353636	0.630507	0.218886	99
Es	2.847226	0.070680	-0.159417	99
Es	-2.329199	-0.529718	0.454228	99
Es	2.110064	0.058884	-0.118260	99
Es	-2.063121	-0.054218	0.113146	99
Es	-2.256627	-0.267421	-0.296511	99
Es	1.793309	-1.784417	-0.100754	99
Es	-0.570559	-0.020910	0.042698	99
Es	1.737453	0.703191	-0.091895	99
Es	-0.236140	1.828134	0.014658	99
Es	-0.109408	-1.539763	0.009018	99
Es	-0.189864	-0.662625	0.008515	99
38
Properties=species:S:1:pos:R:3:Z:I:1 energy=-301.82068033987423 field_type=dipole dipole="0.000000 0.000000 0.000000" charge=0
C	-2.063146	-0.054197	0.113219	6
C	-0.570556	-0.020807	0.042699	6
C	0.125654	1.183663	-0.003311	6
N	1.476294	1.251003	-0.081921	7
C	2.110094	0.058783	-0.118271	6
C	1.427484	-1.144587	-0.078711	6
N	0.078384	-1.211007	0.001219	7
H	-2.483816	0.942383	0.283299	1
H	-2.384626	-0.700907	0.936479	1
H	-2.471126	-0.445487	-0.824421	1
H	-0.385006	2.139703	0.022589	1
H	3.191244	0.095123	-0.181681	1
H	1.949124	-2.093667	-0.111191	1
Es	0.412312	0.827790	-0.015639	99
Es	0.078688	-1.210475	0.001201	99
Es	2.110052	0.058885	-0.118320	99
Es	0.125764	1.183687	-0.003314	99
Es	0.280208	-0.842555	-0.004992	99
Es	-2.329788	-0.529739	0.450069	99
Es	-2.353688	0.630486	0.218870	99
Es	-0.570558	-0.020911	0.042699	99
Es	-1.310358	-0.034205	0.078077	99
Es	1.475991	1.250464	-0.081902	99
Es	0.684503	-1.152791	-0.027347	99
Es	-2.063092	-0.054181	0.113215	99
Es	0.872552	1.192254	-0.038061	99
Es	-2.256030	-0.267413	-0.292499	99
Es	1.793337	-1.784404	-0.100692	99
Es	-0.236158	1.828159	0.014473	99
Es	1.769474	-0.544467	-0.094484	99
Es	1.664383	0.071260	-0.100395	99
Es	-0.223795	0.581977	0.008248	99
Es	-0.109341	-1.539803	0.009387	99
Es	1.427378	-1.144618	-0.078708	99
Es	-0.189908	-0.662658	0.008535	99
Es	1.737372	0.703169	-0.092165	99
Es	1.661403	1.578799	-0.091593	99
Es	2.847233	0.070671	-0.159310	99
38
Properties=species:S:1:pos:R:3:Z:I:1 energy=-301.82068033987423 field_type=dipole dipole="0.000000 0.000000 0.000000" charge=0
C	-2.063146	-0.054197	0.113219	6
C	-0.570556	-0.020807	0.042699	6
C	0.125654	1.183663	-0.003311	6
N	1.476294	1.251003	-0.081921	7
C	2.110094	0.058783	-0.118271	6
C	1.427484	-1.144587	-0.078711	6
N	0.078384	-1.211007	0.001219	7
H	-2.483816	0.942383	0.283299	1
H	-2.384626	-0.700907	0.936479	1
H	-2.471126	-0.445487	-0.824421	1
H	-0.385006	2.139703	0.022589	1
H	3.191244	0.095123	-0.181681	1
H	1.949124	-2.093667	-0.111191	1
Es	-2.330389	-0.529834	0.446456	99
Es	-0.570559	-0.020910	0.042699	99
Es	-0.189987	-0.662689	0.008436	99
Es	-1.310385	-0.034127	0.078053	99
Es	-0.223785	0.581966	0.007034	99
Es	2.110064	0.058886	-0.118260	99
Es	1.737711	0.703386	-0.092731	99
Es	1.476000	1.250476	-0.081903	99
Es	-2.255418	-0.267338	-0.288522	99
Es	0.872409	1.192276	-0.038049	99
Es	0.412943	0.828271	-0.014534	99
Es	1.664301	0.070313	-0.100644	99
Es	1.793291	-1.784400	-0.100696	99
Es	0.125763	1.183687	-0.003319	99
Es	2.847235	0.070654	-0.159402	99
Es	-2.063108	-0.054203	0.113172	99
Es	1.427377	-1.144617	-0.078712	99
Es	1.661159	1.578530	-0.091744	99
Es	0.684489	-1.152831	-0.027973	99
Es	1.769565	-0.544402	-0.093642	99
Es	-0.109267	-1.539794	0.009148	99
Es	-2.353667	0.630490	0.218638	99
Es	0.078687	-1.210473	0.001202	99
Es	-0.236191	1.828160	0.014508	99
Es	0.279695	-0.842090	-0.003863	99
38
Properties=species:S:1:pos:R:3:Z:I:1 energy=-301.82068033987423 field_type=dipole dipole="0.000000 0.000000 0.000000" charge=0
C	-2.063146	-0.054197	0.113219	6
C	-0.570556	-0.020807	0.042699	6
C	0.125654	1.183663	-0.003311	6
N	1.476294	1.251003	-0.081921	7
C	2.110094	0.058783	-0.118271	6
C	1.427484	-1.144587	-0.078711	6
N	0.078384	-1.211007	0.001219	7
H	-2.483816	0.942383	0.283299	1
H	-2.384626	-0.700907	0.936479	1
H	-2.471126	-0.445487	-0.824421	1
H	-0.385006	2.139703	0.022589	1
H	3.191244	0.095123	-0.181681	1
H	1.949124	-2.093667	-0.111191	1
Es	2.110063	0.058885	-0.118257	99
Es	-0.109328	-1.539582	0.009622	99
Es	-2.330909	-0.529768	0.442879	99
Es	1.769568	-0.544492	-0.092762	99
Es	1.427378	-1.144619	-0.078698	99
Es	-0.190029	-0.662787	0.008209	99
Es	-2.254898	-0.267363	-0.285298	99
Es	2.847216	0.070665	-0.159419	99
Es	1.475990	1.250462	-0.081902	99
Es	1.793347	-1.784396	-0.100619	99
Es	0.279304	-0.841698	-0.003798	99
Es	0.413308	0.828599	-0.015549	99
Es	1.664269	0.069605	-0.101327	99
Es	-2.353725	0.630457	0.218569	99
Es	-0.570558	-0.020910	0.042699	99
Es	0.872454	1.192542	-0.038102	99
Es	-0.223740	0.581963	0.008124	99
Es	0.684569	-1.152906	-0.028468	99
Es	1.661273	1.578480	-0.091688	99
Es	1.737582	0.703246	-0.092794	99
Es	0.125763	1.183687	-0.003319	99
Es	-1.310334	-0.034176	0.078358	99
Es	0.078683	-1.210472	0.001202	99
Es	-2.063091	-0.054180	0.113213	99
Es	-0.236223	1.828142	0.014477	99
38
Properties=species:S:1:pos:R:3:Z:I:1 energy=-301.82068033987423 field_type=dipole dipole="0.000000 0.000000 0.000000" charge=0
C	-2.063146	-0.054197	0.113219	6
C	-0.570556	-0.020807	0.042699	6
C	0.125654	1.183663	-0.003311	6
N	1.476294	1.251003	-0.081921	7
C	2.110094	0.058783	-0.118271	6
C	1.427484	-1.144587	-0.078711	6
N	0.078384	-1.211007	0.001219	7
H	-2.483816	0.942383	0.283299	1
H	-2.384626	-0.700907	0.936479	1
H	-2.471126	-0.445487	-0.824421	1
H	-0.385006	2.139703	0.022589	1
H	3.191244	0.095123	-0.181681	1
H	1.949124	-2.093667	-0.111191	1
Es	0.280830	-0.842407	-0.004132	99
Es	-0.236225	1.828153	0.014406	99
Es	-0.223735	0.581956	0.008547	99
Es	1.737649	0.703310	-0.092818	99
Es	-0.570558	-0.020910	0.042695	99
Es	-2.353753	0.630469	0.218450	99
Es	1.475989	1.250462	-0.081902	99
Es	-1.310361	-0.034203	0.078175	99
Es	0.078700	-1.210466	0.001199	99
Es	0.411443	0.827398	-0.015474	99
Es	-2.063092	-0.054180	0.113214	99
Es	1.664639	0.071493	-0.100563	99
Es	1.661233	1.578497	-0.091792	99
Es	1.769448	-0.544472	-0.093751	99
Es	2.847235	0.070638	-0.159290	99
Es	2.110063	0.058885	-0.118259	99
Es	0.125763	1.183687	-0.003316	99
Es	-0.109179	-1.539793	0.009472	99
Es	-2.254466	-0.267321	-0.282180	99
Es	1.793384	-1.784395	-0.100590	99
Es	-0.190052	-0.662661	0.007469	99
Es	-2.331298	-0.529803	0.440110	99
Es	0.684481	-1.152779	-0.027217	99
Es	0.872415	1.192442	-0.038401	99
Es	1.427379	-1.144618	-0.078702	99
38
Properties=species:S:1:pos:R:3:Z:I:1 energy=-301.82068033987423 field_type=dipole dipole="0.000000 0.000000 0.000000" charge=0
C	-2.063146	-0.054197	0.113219	6
C	-0.570556	-0.020807	0.042699	6
C	0.125654	1.183663	-0.003311	6
N	1.476294	1.251003	-0.081921	7
C	2.110094	0.058783	-0.118271	6
C	1.427484	-1.144587	-0.078711	6
N	0.078384	-1.211007	0.001219	7
H	-2.483816	0.942383	0.283299	1
H	-2.384626	-0.700907	0.936479	1
H	-2.471126	-0.445487	-0.824421	1
H	-0.385006	2.139703	0.022589	1
H	3.191244	0.095123	-0.181681	1
H	1.949124	-2.093667	-0.111191	1
Es	-0.570558	-0.020910	0.042697	99
Es	0.410388	0.826763	-0.014951	99
Es	2.110059	0.058885	-0.118219	99
Es	1.661189	1.578492	-0.091854	99
Es	0.872437	1.192476	-0.038487	99
Es	0.078692	-1.210467	0.001199	99
Es	-1.310348	-0.034215	0.078032	99
Es	-2.063091	-0.054180	0.113214	99
Es	2.847243	0.070593	-0.159353	99
Es	1.475993	1.250477	-0.081903	99
Es	0.684620	-1.153070	-0.026219	99
Es	-2.331533	-0.529786	0.437612	99
Es	0.125763	1.183687	-0.003319	99
Es	1.427378	-1.144618	-0.078702	99
Es	1.793392	-1.784390	-0.100592	99
Es	-2.254074	-0.267295	-0.279478	99
Es	-0.109275	-1.539498	0.009006	99
Es	-0.236201	1.828150	0.014377	99
Es	-0.223769	0.581965	0.008078	99
Es	1.664703	0.072627	-0.101260	99
Es	-0.190033	-0.662670	0.009198	99
Es	1.737682	0.703280	-0.092838	99
Es	-2.353916	0.630441	0.218336	99
Es	1.769452	-0.544416	-0.092968	99
Es	0.281738	-0.842938	-0.006255	99
38
Properties=species:S:1:pos:R:3:Z:I:1 energy=-301.82068033987423 field_type=dipole dipole="0.000000 0.000000 0.000000" charge=0
C	-2.063146	-0.054197	0.113219	6
C	-0.570556	-0.020807	0.042699	6
C	0.125654	1.183663	-0.003311	6
N	1.476294	1.251003	-0.081921	7
C	2.110094	0.058783	-0.118271	6
C	1.427484	-1.144587	-0.078711	6
N	0.078384	-1.211007	0.001219	7
H	-2.483816	0.942383	0.283299	1
H	-2.384626	-0.700907	0.936479	1
H	-2.471126	-0.445487	-0.824421	1
H	-0.385006	2.139703	0.022589	1
H	3.191244	0.095123	-0.181681	1
H	1.949124	-2.093667	-0.111191	1
Es	1.793370	-1.784390	-0.100522	99
Es	-2.063091	-0.054180	0.113213	99
Es	0.414106	0.829356	-0.016579	99
Es	-2.253696	-0.267302	-0.277082	99
Es	-2.353818	0.630456	0.218172	99
Es	-0.570559	-0.020910	0.042696	99
Es	-0.190036	-0.662692	0.008533	99
Es	1.427378	-1.144619	-0.078702	99
Es	2.110063	0.058885	-0.118261	99
Es	-0.109269	-1.539459	0.009356	99
Es	1.475989	1.250462	-0.081902	99
Es	1.769510	-0.544472	-0.093522	99
Es	1.664362	0.067837	-0.101025	99
Es	1.661207	1.578440	-0.091963	99
Es	0.125763	1.183687	-0.003321	99
Es	0.278311	-0.840734	-0.006319	99
Es	-2.332011	-0.529794	0.435201	99
Es	2.847243	0.070651	-0.159334	99
Es	-0.236215	1.828152	0.014303	99
Es	0.078691	-1.210467	0.001204	99
Es	-0.223764	0.581949	0.009067	99
Es	0.684660	-1.153048	-0.025582	99
Es	-1.310354	-0.034193	0.078236	99
Es	0.872438	1.192495	-0.037935	99
Es	1.737655	0.703273	-0.092582	99
38
Properties=species:S:1:pos:R:3:Z:I:1 energy=-301.82068033987423 field_type=dipole dipole="0.000000 0.000000 0.000000" charge=0
C	-2.063146	-0.054197	0.113219	6
C	-0.570556	-0.020807	0.042699	6
C	0.125654	1.183663	-0.003311	6
N	1.476294	1.251003	-0.081921	7
C	2.110094	0.058783	-0.118271	6
C	1.427484	-1.144587	-0.078711	6
N	0.078384	-1.211007	0.001219	7
H	-2.483816	0.942383	0.283299	1
H	-2.384626	-0.700907	0.936479	1
H	-2.471126	-0.445487	-0.824421	1
H	-0.385006	2.139703	0.022589	1
H	3.191244	0.095123	-0.181681	1
H	1.949124	-2.093667	-0.111191	1
Es	-2.353743	0.630483	0.218339	99
Es	1.737634	0.703234	-0.093077	99
Es	0.125763	1.183687	-0.003321	99
Es	-0.109052	-1.539542	0.009555	99
Es	1.427378	-1.144618	-0.078701	99
Es	-2.332350	-0.529782	0.432973	99
Es	-0.236267	1.828131	0.014152	99
Es	-2.253427	-0.267290	-0.274849	99
Es	2.847240	0.070639	-0.159311	99
Es	-0.570559	-0.020910	0.042696	99
Es	1.475990	1.250464	-0.081903	99
Es	0.078687	-1.210473	0.001198	99
Es	1.661193	1.578344	-0.091925	99
Es	0.684575	-1.153013	-0.026705	99
Es	1.664792	0.071048	-0.100511	99
Es	-0.190233	-0.662717	0.007475	99
Es	1.793356	-1.784394	-0.100553	99
Es	-0.223740	0.581966	0.008449	99
Es	0.280771	-0.842033	-0.004573	99
Es	-1.310347	-0.034223	0.078089	99
Es	1.769521	-0.544430	-0.093411	99
Es	0.411373	0.827453	-0.014700	99
Es	0.872406	1.192653	-0.039005	99
Es	-2.063091	-0.054181	0.113212	99
Es	2.110063	0.058886	-0.118242	99
38
Properties=species:S:1:pos:R:3:Z:I:1 energy=-301.82068033987423 field_type=dipole dipole="0.000000 0.000000 0.000000" charge=0
C	-2.063146	-0.054197	0.113219	6
C	-0.570556	-0.020807	0.042699	6
C	0.125654	1.183663	-0.003311	6
N	1.476294	1.251003	-0.081921	7