46
Properties=species:S:1:pos:R:3:Z:I:1 energy=-272.1038919581078 field_type=dipole dipole="0.000000 0.000000 0.000000" charge=0
C	-2.430393	-1.052102	0.874857	6
C	-0.939994	-1.025952	0.853227	6
C	-0.184184	-1.658892	-0.286503	6
C	-0.216734	-0.155552	-0.146453	6
C	1.007426	0.604738	0.275107	6
C	1.791496	1.160538	-0.880143	6
C	2.010487	2.465638	-1.083063	6
H	-2.811224	-0.234682	1.495157	1
H	-2.784994	-1.996562	1.298867	1
H	-2.858963	-0.946202	-0.127313	1
H	-0.523574	-1.124162	1.849727	1
H	-0.746264	-2.102872	-1.100573	1
H	0.734296	-2.185192	-0.051213	1
H	-0.822284	0.409108	-0.848203	1
H	1.674747	-0.039332	0.861287	1
H	0.693387	1.414668	0.944987	1
H	2.199226	0.438498	-1.584633	1
H	1.622726	3.221338	-0.406303	1
H	2.584816	2.806978	-1.938813	1
Es	-0.572326	-1.959909	-0.836466	99
Es	-0.184235	-1.658755	-0.286420	99
Es	-2.430378	-1.052100	0.874857	99
Es	0.444540	-2.009373	-0.125801	99
Es	-0.609558	-1.519659	0.338715	99
Es	-2.688145	-0.493643	1.298568	99
Es	0.793551	1.163009	0.726975	99
Es	-2.716761	-0.979721	0.187848	99
Es	-0.939921	-1.025940	0.853077	99
Es	1.462065	0.162954	0.666585	99
Es	1.396723	0.884511	-0.310350	99
Es	1.007437	0.604736	0.275060	99
Es	0.409196	0.214039	0.057350	99
Es	2.177312	1.810793	-0.807181	99
Es	2.399956	2.705408	-1.662017	99
Es	-0.644899	-1.089311	1.528989	99
Es	2.010506	2.465741	-1.083079	99
Es	-0.631670	-0.431608	0.449620	99
Es	1.791466	1.160423	-0.880110	99
Es	-1.685262	-1.038845	0.847710	99
Es	-2.670780	-1.696656	1.164664	99
Es	-0.087600	-0.896250	-0.378067	99
Es	2.064816	0.662583	-1.354808	99
Es	-0.635635	0.220779	-0.623493	99
Es	1.628455	1.848361	-1.161783	99
Es	1.748739	2.982946	-0.625318	99
Es	-0.216735	-0.155710	-0.146390	99
46
Properties=species:S:1:pos:R:3:Z:I:1 energy=-272.1038919581078 field_type=dipole dipole="0.000000 0.000000 0.000000" charge=0
C	-2.430393	-1.052102	0.874857	6
C	-0.939994	-1.025952	0.853227	6
C	-0.184184	-1.658892	-0.286503	6
C	-0.216734	-0.155552	-0.146453	6
C	1.007426	0.604738	0.275107	6
C	1.791496	1.160538	-0.880143	6
C	2.010487	2.465638	-1.083063	6
H	-2.811224	-0.234682	1.495157	1
H	-2.784994	-1.996562	1.298867	1
H	-2.858963	-0.946202	-0.127313	1
H	-0.523574	-1.124162	1.849727	1
H	-0.746264	-2.102872	-1.100573	1
H	0.734296	-2.185192	-0.051213	1
H	-0.822284	0.409108	-0.848203	1
H	1.674747	-0.039332	0.861287	1
H	0.693387	1.414668	0.944987	1
H	2.199226	0.438498	-1.584633	1
H	1.622726	3.221338	-0.406303	1
H	2.584816	2.806978	-1.938813	1
Es	-0.630477	-0.426661	0.448545	99
Es	2.176058	1.810829	-0.808116	99
Es	2.399633	2.705280	-1.662919	99
Es	-2.671279	-1.700137	1.164972	99
Es	0.409675	0.214247	0.057906	99
Es	2.065369	0.662683	-1.355009	99
Es	-0.635488	0.221124	-0.622710	99
Es	2.010499	2.465745	-1.083084	99
Es	-0.571645	-1.960755	-0.834299	99
Es	1.748039	2.983026	-0.625047	99
Es	-0.184230	-1.658744	-0.286424	99
Es	0.442169	-2.009840	-0.125623	99
Es	-0.086438	-0.893291	-0.379539	99
Es	1.461107	0.162721	0.666126	99
Es	0.792775	1.163302	0.727705	99
Es	-0.216732	-0.155709	-0.146392	99
Es	-2.687421	-0.491421	1.297842	99
Es	-0.646744	-1.090135	1.527592	99
Es	-0.610043	-1.525306	0.338860	99
Es	1.629809	1.848457	-1.160661	99
Es	1.397356	0.884193	-0.310625	99
Es	-2.430378	-1.052101	0.874856	99
Es	-0.939918	-1.025946	0.853071	99
Es	1.791471	1.160416	-0.880104	99
Es	-2.714161	-0.979126	0.189516	99
Es	-1.685585	-1.038783	0.847234	99
Es	1.007437	0.604736	0.275061	99
46
Properties=species:S:1:pos:R:3:Z:I:1 energy=-272.1038919581078 field_type=dipole dipole="0.000000 0.000000 0.000000" charge=0
C	-2.430393	-1.052102	0.874857	6
C	-0.939994	-1.025952	0.853227	6
C	-0.184184	-1.658892	-0.286503	6
C	-0.216734	-0.155552	-0.146453	6
C	1.007426	0.604738	0.275107	6
C	1.791496	1.160538	-0.880143	6
C	2.010487	2.465638	-1.083063	6
H	-2.811224	-0.234682	1.495157	1
H	-2.784994	-1.996562	1.298867	1
H	-2.858963	-0.946202	-0.127313	1
H	-0.523574	-1.124162	1.849727	1
H	-0.746264	-2.102872	-1.100573	1
H	0.734296	-2.185192	-0.051213	1
H	-0.822284	0.409108	-0.848203	1
H	1.674747	-0.039332	0.861287	1
H	0.693387	1.414668	0.944987	1
H	2.199226	0.438498	-1.584633	1
H	1.622726	3.221338	-0.406303	1
H	2.584816	2.806978	-1.938813	1
Es	1.747727	2.982957	-0.624981	99
Es	-0.630322	-0.422766	0.448183	99
Es	2.399531	2.705246	-1.663495	99
Es	-0.571035	-1.961123	-0.832855	99
Es	-0.648147	-1.090604	1.526322	99
Es	-2.671348	-1.702463	1.164932	99
Es	0.440479	-2.010029	-0.125441	99
Es	1.791466	1.160419	-0.880108	99
Es	0.409921	0.214604	0.058318	99
Es	1.460354	0.162502	0.665775	99
Es	1.630564	1.848570	-1.160034	99
Es	-2.712084	-0.978873	0.190916	99
Es	0.792358	1.163298	0.728243	99
Es	2.175411	1.810833	-0.808441	99
Es	-0.216739	-0.155709	-0.146385	99
Es	-2.686957	-0.489831	1.297142	99
Es	-0.635238	0.221161	-0.622335	99
Es	2.065610	0.662909	-1.355094	99
Es	-2.430378	-1.052101	0.874854	99
Es	-0.184231	-1.658750	-0.286423	99
Es	-0.939915	-1.025936	0.853069	99
Es	-1.685724	-1.038876	0.847044	99
Es	1.397654	0.883950	-0.310979	99
Es	-0.085741	-0.892071	-0.380151	99
Es	1.007436	0.604736	0.275060	99
Es	-0.610299	-1.528997	0.338678	99
Es	2.010504	2.465746	-1.083081	99
46
Properties=species:S:1:pos:R:3:Z:I:1 energy=-272.1038919581078 field_type=dipole dipole="0.000000 0.000000 0.000000" charge=0
C	-2.430393	-1.052102	0.874857	6
C	-0.939994	-1.025952	0.853227	6
C	-0.184184	-1.658892	-0.286503	6
C	-0.216734	-0.155552	-0.146453	6
C	1.007426	0.604738	0.275107	6
C	1.791496	1.160538	-0.880143	6
C	2.010487	2.465638	-1.083063	6
H	-2.811224	-0.234682	1.495157	1
H	-2.784994	-1.996562	1.298867	1
H	-2.858963	-0.946202	-0.127313	1
H	-0.523574	-1.124162	1.849727	1
H	-0.746264	-2.102872	-1.100573	1
H	0.734296	-2.185192	-0.051213	1
H	-0.822284	0.409108	-0.848203	1
H	1.674747	-0.039332	0.861287	1
H	0.693387	1.414668	0.944987	1
H	2.199226	0.438498	-1.584633	1
H	1.622726	3.221338	-0.406303	1
H	2.584816	2.806978	-1.938813	1
Es	-0.939913	-1.025942	0.853064	99
Es	-0.085521	-0.891332	-0.380421	99
Es	-2.430379	-1.052101	0.874856	99
Es	2.399419	2.705374	-1.663851	99
Es	-0.630091	-0.420185	0.447854	99
Es	1.791471	1.160418	-0.880106	99
Es	0.410238	0.214687	0.058541	99
Es	-0.649107	-1.090860	1.525354	99
Es	1.459771	0.162528	0.665444	99
Es	2.010505	2.465749	-1.083081	99
Es	0.792026	1.163189	0.728676	99
Es	2.175051	1.810903	-0.808953	99
Es	0.439346	-2.010206	-0.125631	99
Es	-2.686347	-0.488406	1.296581	99
Es	1.397951	0.883803	-0.311168	99
Es	1.007436	0.604736	0.275060	99
Es	-0.570558	-1.961031	-0.831605	99
Es	1.631025	1.848527	-1.159633	99
Es	-2.671298	-1.703930	1.164871	99
Es	-0.216733	-0.155703	-0.146389	99
Es	-0.635141	0.221177	-0.622056	99
Es	-2.710570	-0.978893	0.192118	99
Es	-0.184230	-1.658748	-0.286424	99
Es	-1.685994	-1.039000	0.846772	99
Es	-0.610739	-1.531875	0.338783	99
Es	1.747531	2.982784	-0.624791	99
Es	2.065709	0.663141	-1.355130	99
46
Properties=species:S:1:pos:R:3:Z:I:1 energy=-272.1038919581078 field_type=dipole dipole="0.000000 0.000000 0.000000" charge=0
C	-2.430393	-1.052102	0.874857	6
C	-0.939994	-1.025952	0.853227	6
C	-0.184184	-1.658892	-0.286503	6
C	-0.216734	-0.155552	-0.146453	6
C	1.007426	0.604738	0.275107	6
C	1.791496	1.160538	-0.880143	6
C	2.010487	2.465638	-1.083063	6
H	-2.811224	-0.234682	1.495157	1
H	-2.784994	-1.996562	1.298867	1
H	-2.858963	-0.946202	-0.127313	1
H	-0.523574	-1.124162	1.849727	1
H	-0.746264	-2.102872	-1.100573	1
H	0.734296	-2.185192	-0.051213	1
H	-0.822284	0.409108	-0.848203	1
H	1.674747	-0.039332	0.861287	1
H	0.693387	1.414668	0.944987	1
H	2.199226	0.438498	-1.584633	1
H	1.622726	3.221338	-0.406303	1
H	2.584816	2.806978	-1.938813	1
Es	1.007436	0.604736	0.275060	99
Es	2.065841	0.663291	-1.355161	99
Es	-0.216727	-0.155703	-0.146392	99
Es	1.631325	1.848719	-1.159482	99
Es	-2.430373	-1.052101	0.874857	99
Es	-0.939914	-1.025944	0.853064	99
Es	-0.650069	-1.090943	1.524421	99
Es	-2.709260	-0.978867	0.193225	99
Es	-2.671205	-1.705084	1.164584	99
Es	-0.570158	-1.961195	-0.830676	99
Es	1.791469	1.160418	-0.880106	99
Es	0.410617	0.214668	0.058836	99
Es	-2.685907	-0.487346	1.296118	99
Es	-0.630040	-0.418101	0.447764	99
Es	2.174585	1.810787	-0.809051	99
Es	-1.686076	-1.039039	0.846545	99
Es	-0.610986	-1.534133	0.338986	99
Es	-0.634994	0.221268	-0.621794	99
Es	1.459416	0.162555	0.665239	99
Es	2.010505	2.465747	-1.083082	99
Es	-0.184232	-1.658747	-0.286423	99
Es	1.398072	0.883690	-0.311448	99
Es	2.399502	2.705400	-1.664039	99
Es	-0.085362	-0.890997	-0.380814	99
Es	0.438301	-2.010067	-0.125675	99
Es	0.791680	1.163097	0.728947	99
Es	1.747410	2.982694	-0.624770	99
46
Properties=species:S:1:pos:R:3:Z:I:1 energy=-272.1038919581078 field_type=dipole dipole="0.000000 0.000000 0.000000" charge=0
C	-2.430393	-1.052102	0.874857	6
C	-0.939994	-1.025952	0.853227	6
C	-0.184184	-1.658892	-0.286503	6
C	-0.216734	-0.155552	-0.146453	6
C	1.007426	0.604738	0.275107	6
C	1.791496	1.160538	-0.880143	6
C	2.010487	2.465638	-1.083063	6
H	-2.811224	-0.234682	1.495157	1
H	-2.784994	-1.996562	1.298867	1
H	-2.858963	-0.946202	-0.127313	1
H	-0.523574	-1.124162	1.849727	1
H	-0.746264	-2.102872	-1.100573	1
H	0.734296	-2.185192	-0.051213	1
H	-0.822284	0.409108	-0.848203	1
H	1.674747	-0.039332	0.861287	1
H	0.693387	1.414668	0.944987	1
H	2.199226	0.438498	-1.584633	1
H	1.622726	3.221338	-0.406303	1
H	2.584816	2.806978	-1.938813	1
Es	2.399448	2.705539	-1.664257	99
Es	2.010501	2.465749	-1.083083	99
Es	1.791467	1.160418	-0.880109	99
Es	-2.430381	-1.052101	0.874852	99
Es	-0.630094	-0.416674	0.447736	99
Es	-0.216731	-0.155701	-0.146392	99
Es	-2.671044	-1.705875	1.164378	99
Es	-1.686230	-1.039120	0.846412	99
Es	1.007435	0.604735	0.275057	99
Es	-0.634956	0.221209	-0.621645	99
Es	1.398266	0.883531	-0.311567	99
Es	1.631635	1.848741	-1.159275	99
Es	-0.085129	-0.890725	-0.380998	99
Es	0.791515	1.162957	0.729091	99
Es	-0.650763	-1.090977	1.523637	99
Es	-0.611411	-1.535956	0.339141	99
Es	2.174456	1.810794	-0.809178	99
Es	2.065886	0.663528	-1.355167	99
Es	-0.939911	-1.025942	0.853063	99
Es	0.437475	-2.010003	-0.125733	99
Es	1.747261	2.982519	-0.624717	99
Es	-0.184228	-1.658746	-0.286423	99
Es	-2.708209	-0.978985	0.194104	99
Es	0.410830	0.215060	0.058878	99
Es	-2.685446	-0.486368	1.295717	99
Es	1.458970	0.162340	0.665183	99
Es	-0.569755	-1.961143	-0.829971	99
46
Properties=species:S:1:pos:R:3:Z:I:1 energy=-272.1038919581078 field_type=dipole dipole="0.000000 0.000000 0.000000" charge=0
C	-2.430393	-1.052102	0.874857	6
C	-0.939994	-1.025952	0.853227	6
C	-0.184184	-1.658892	-0.286503	6
C	-0.216734	-0.155552	-0.146453	6
C	1.007426	0.604738	0.275107	6
C	1.791496	1.160538	-0.880143	6
C	2.010487	2.465638	-1.083063	6
H	-2.811224	-0.234682	1.495157	1
H	-2.784994	-1.996562	1.298867	1
H	-2.858963	-0.946202	-0.127313	1
H	-0.523574	-1.124162	1.849727	1
H	-0.746264	-2.102872	-1.100573	1
H	0.734296	-2.185192	-0.051213	1
H	-0.822284	0.409108	-0.848203	1
H	1.674747	-0.039332	0.861287	1
H	0.693387	1.414668	0.944987	1
H	2.199226	0.438498	-1.584633	1
H	1.622726	3.221338	-0.406303	1
H	2.584816	2.806978	-1.938813	1
Es	2.399518	2.705630	-1.664403	99
Es	2.065900	0.663727	-1.355138	99
Es	-2.707164	-0.979067	0.195044	99
Es	2.174372	1.810975	-0.809283	99
Es	-0.569265	-1.961093	-0.829370	99
Es	-0.634923	0.221053	-0.621462	99
Es	1.747170	2.982377	-0.624748	99
Es	-0.939912	-1.025942	0.853061	99
Es	1.398122	0.883405	-0.311972	99
Es	2.010503	2.465747	-1.083081	99
Es	-0.611733	-1.537739	0.339532	99
Es	1.007436	0.604736	0.275060	99
Es	0.791493	1.162793	0.729206	99
Es	-0.184229	-1.658742	-0.286425	99
Es	-1.686331	-1.039118	0.846151	99
Es	0.436740	-2.009772	-0.125852	99
Es	-0.216732	-0.155700	-0.146388	99
Es	0.411057	0.215482	0.059218	99
Es	-0.630067	-0.415453	0.447882	99
Es	1.791466	1.160416	-0.880107	99
Es	1.458728	0.162213	0.665095	99
Es	-0.651632	-1.091009	1.522849	99
Es	1.631766	1.848595	-1.159105	99
Es	-0.085006	-0.890441	-0.381209	99
Es	-2.430377	-1.052101	0.874857	99
Es	-2.670880	-1.706614	1.164023	99
Es	-2.685162	-0.485554	1.295299	99
46
Properties=species:S:1:pos:R:3:Z:I:1 energy=-272.1038919581078 field_type=dipole dipole="0.000000 0.000000 0.000000" charge=0
C	-2.430393	-1.052102	0.874857	6
C	-0.939994	-1.025952	0.853227	6
C	-0.184184	-1.658892	-0.286503	6
C	-0.216734	-0.155552	-0.146453	6
C	1.007426	0.604738	0.275107	6
C	1.791496	1.160538	-0.880143	6
C	2.010487	2.465638	-1.083063	6
H	-2.811224	-0.234682	1.495157	1
H	-2.784994	-1.996562	1.298867	1
H	-2.858963	-0.946202	-0.127313	1
H	-0.523574	-1.124162	1.849727	1
H	-0.746264	-2.102872	-1.100573	1
H	0.734296	-2.185192	-0.051213	1
H	-0.822284	0.409108	-0.848203	1
H	1.674747	-0.039332	0.861287	1
H	0.693387	1.414668	0.944987	1
H	2.199226	0.438498	-1.584633	1
H	1.622726	3.221338	-0.406303	1
H	2.584816	2.806978	-1.938813	1
Es	1.398385	0.883245	-0.311962	99
Es	-0.630008	-0.414308	0.447747	99
Es	-1.686208	-1.039078	0.846012	99
Es	-0.612124	-1.539015	0.339876	99
Es	2.174082	1.810769	-0.809334	99
Es	1.007438	0.604736	0.275057	99
Es	2.065989	0.664003	-1.355047	99
Es	0.791197	1.162643	0.729355	99
Es	0.436205	-2.009695	-0.125954	99
Es	2.010505	2.465749	-1.083081	99
Es	2.399608	2.705829	-1.664474	99
Es	1.747074	2.982150	-0.624701	99
Es	-0.184231	-1.658745	-0.286425	99
Es	-2.670897	-1.707070	1.163926	99
Es	-0.085055	-0.890561	-0.381258	99
Es	-0.569007	-1.961008	-0.828861	99
Es	-0.652251	-1.090951	1.522383	99
Es	-0.216730	-0.155702	-0.146391	99
Es	-0.939916	-1.025939	0.853064	99
Es	1.631962	1.848810	-1.159234	99
Es	-0.634814	0.221024	-0.621325	99
Es	0.411401	0.215550	0.059084	99
Es	1.458352	0.162175	0.665031	99
Es	-2.684967	-0.484810	1.294634	99
Es	-2.706218	-0.979316	0.195864	99
Es	-2.430378	-1.052101	0.874857	99
Es	1.791464	1.160417	-0.880109	99
46
Properties=species:S:1:pos:R:3:Z:I:1 energy=-272.1038919581078 field_type=dipole dipole="0.000000 0.000000 0.000000" charge=0
C	-2.430393	-1.052102	0.874857	6
C	-0.939994	-1.025952	0.853227	6
C	-0.184184	-1.658892	-0.286503	6
C	-0.216734	-0.155552	-0.146453	6
C	1.007426	0.604738	0.275107	6
C	1.791496	1.160538	-0.880143	6
C	2.010487	2.465638	-1.083063	6
H	-2.811224	-0.234682	1.495157	1
H	-2.784994	-1.996562	1.298867	1
H	-2.858963	-0.946202	-0.127313	1
H	-0.523574	-1.124162	1.849727	1
H	-0.746264	-2.102872	-1.100573	1
H	0.734296	-2.185192	-0.051213	1
H	-0.822284	0.409108	-0.848203	1
H	1.674747	-0.039332	0.861287	1
H	0.693387	1.414668	0.944987	1
H	2.199226	0.438498	-1.584633	1
H	1.622726	3.221338	-0.406303	1
H	2.584816	2.806978	-1.938813	1
Es	1.398399	0.883167	-0.312030	99
Es	1.458150	0.162135	0.664869	99
Es	-0.630109	-0.413710	0.447903	99
Es	-0.612373	-1.540251	0.340128	99
Es	-1.686408	-1.039229	0.845991	99
Es	-2.684581	-0.484098	1.294234	99
Es	-0.939911	-1.025941	0.853060	99
Es	-2.670801	-1.707471	1.163747	99
Es	2.065978	0.664183	-1.355111	99
Es	-0.184230	-1.658744	-0.286423	99
Es	-2.430371	-1.052101	0.874856	99
Es	-0.568669	-1.960909	-0.828270	99
Es	-0.084962	-0.890296	-0.381578	99
Es	-0.652754	-1.090860	1.521727	99
Es	0.791161	1.162527	0.729519	99
Es	0.435682	-2.009580	-0.126053	99
Es	1.007436	0.604737	0.275059	99
Es	2.010504	2.465748	-1.083082	99
Es	-0.216730	-0.155702	-0.146391	99
Es	-2.705415	-0.979479	0.196510	99
Es	-0.634959	0.220798	-0.621135	99
Es	1.791468	1.160417	-0.880106	99
Es	2.399671	2.705912	-1.664602	99
Es	0.411625	0.215926	0.059091	99
Es	2.173842	1.810691	-0.809398	99
Es	1.632102	1.848924	-1.159081	99
Es	1.747113	2.982010	-0.624702	99
