48
Properties=species:S:1:pos:R:3:Z:I:1 energy=-289.28007317184904 field_type=dipole dipole="0.000000 0.000000 0.000000" charge=0
C	-1.401532	-2.044346	0.959370	6
C	-1.261022	-1.588756	-0.484040	6
C	-0.035932	-0.748036	-0.681250	6
C	-0.067682	0.437104	-1.616330	6
N	-0.027582	0.620914	-0.167110	7
C	1.284178	1.017653	0.351410	6
C	1.221498	2.464254	0.818570	6
H	-2.267772	-2.704376	1.068890	1
H	-1.540092	-1.188516	1.629460	1
H	-0.509912	-2.587616	1.291500	1
H	-2.165832	-1.045136	-0.779120	1
H	-1.191602	-2.467247	-1.135260	1
H	0.878758	-1.327127	-0.615880	1
H	-1.004052	0.702193	-2.093210	1
H	0.816528	0.662934	-2.199360	1
H	2.093658	0.910594	-0.382390	1
H	1.542298	0.384323	1.209420	1
H	0.967368	3.138134	-0.005580	1
H	2.192528	2.772103	1.220520	1
H	0.476198	2.590954	1.610390	1
Es	1.889558	2.670934	1.091264	99
Es	-1.401525	-2.044350	0.959344	99
Es	1.284054	1.017652	0.351368	99
Es	1.221518	2.464237	0.818561	99
Es	0.555711	0.774499	0.025911	99
Es	1.254628	1.747066	0.581809	99
Es	-0.067664	0.437083	-1.616092	99
Es	0.716195	2.547104	1.357032	99
Es	0.540081	0.598017	-2.007272	99
Es	-0.651133	-1.155784	-0.578473	99
Es	-0.027100	0.620647	-0.167451	99
Es	-0.035942	-0.747790	-0.681235	99
Es	-0.020109	0.686973	-0.821406	99
Es	-1.495270	-1.463384	1.412881	99
Es	1.049799	2.920105	0.252678	99
Es	-1.325384	-1.817254	0.240608	99
Es	0.597238	-1.135590	-0.630279	99
Es	-0.704779	0.616383	-1.944163	99
Es	-1.260997	-1.588760	-0.484010	99
Es	-1.205730	-2.189889	-0.930756	99
Es	-1.992987	-2.497063	1.031930	99
Es	-0.009317	-0.028197	-0.258045	99
Es	-1.876038	-1.212382	-0.685900	99
Es	-0.318944	0.740817	-0.001576	99
Es	1.838639	0.938076	-0.164816	99
Es	1.459309	0.579537	0.939306	99
Es	-0.058574	-0.288389	-1.333320	99
Es	-0.787861	-2.417181	1.181364	99
48
Properties=species:S:1:pos:R:3:Z:I:1 energy=-289.28007317184904 field_type=dipole dipole="0.000000 0.000000 0.000000" charge=0
C	-1.401532	-2.044346	0.959370	6
C	-1.261022	-1.588756	-0.484040	6
C	-0.035932	-0.748036	-0.681250	6
C	-0.067682	0.437104	-1.616330	6
N	-0.027582	0.620914	-0.167110	7
C	1.284178	1.017653	0.351410	6
C	1.221498	2.464254	0.818570	6
H	-2.267772	-2.704376	1.068890	1
H	-1.540092	-1.188516	1.629460	1
H	-0.509912	-2.587616	1.291500	1
H	-2.165832	-1.045136	-0.779120	1
H	-1.191602	-2.467247	-1.135260	1
H	0.878758	-1.327127	-0.615880	1
H	-1.004052	0.702193	-2.093210	1
H	0.816528	0.662934	-2.199360	1
H	2.093658	0.910594	-0.382390	1
H	1.542298	0.384323	1.209420	1
H	0.967368	3.138134	-0.005580	1
H	2.192528	2.772103	1.220520	1
H	0.476198	2.590954	1.610390	1
Es	-0.058592	-0.289845	-1.335083	99
Es	0.554823	0.775080	0.026282	99
Es	1.254998	1.746884	0.581904	99
Es	-0.010193	-0.029826	-0.255895	99
Es	-0.704291	0.616877	-1.943974	99
Es	1.221518	2.464237	0.818561	99
Es	0.596761	-1.135629	-0.629796	99
Es	-1.260998	-1.588760	-0.484010	99
Es	-1.401526	-2.044350	0.959344	99
Es	-0.035943	-0.747793	-0.681238	99
Es	-1.325426	-1.817226	0.240554	99
Es	1.049734	2.921506	0.251982	99
Es	-1.875362	-1.212048	-0.685969	99
Es	0.717296	2.547038	1.357099	99
Es	-0.651394	-1.155868	-0.578133	99
Es	1.284053	1.017653	0.351369	99
Es	-0.027119	0.620645	-0.167461	99
Es	-1.991852	-2.496563	1.031971	99
Es	1.459637	0.578634	0.939666	99
Es	1.888175	2.670323	1.091396	99
Es	-0.067665	0.437074	-1.616093	99
Es	1.837661	0.938232	-0.164537	99
Es	-0.788445	-2.417604	1.181425	99
Es	-0.020484	0.689046	-0.822666	99
Es	-1.205457	-2.189906	-0.931565	99
Es	-0.316140	0.740232	-0.002734	99
Es	-1.495624	-1.463428	1.413718	99
Es	0.539234	0.598504	-2.006852	99
48
Properties=species:S:1:pos:R:3:Z:I:1 energy=-289.28007317184904 field_type=dipole dipole="0.000000 0.000000 0.000000" charge=0
C	-1.401532	-2.044346	0.959370	6
C	-1.261022	-1.588756	-0.484040	6
C	-0.035932	-0.748036	-0.681250	6
C	-0.067682	0.437104	-1.616330	6
N	-0.027582	0.620914	-0.167110	7
C	1.284178	1.017653	0.351410	6
C	1.221498	2.464254	0.818570	6
H	-2.267772	-2.704376	1.068890	1
H	-1.540092	-1.188516	1.629460	1
H	-0.509912	-2.587616	1.291500	1
H	-2.165832	-1.045136	-0.779120	1
H	-1.191602	-2.467247	-1.135260	1
H	0.878758	-1.327127	-0.615880	1
H	-1.004052	0.702193	-2.093210	1
H	0.816528	0.662934	-2.199360	1
H	2.093658	0.910594	-0.382390	1
H	1.542298	0.384323	1.209420	1
H	0.967368	3.138134	-0.005580	1
H	2.192528	2.772103	1.220520	1
H	0.476198	2.590954	1.610390	1
Es	-1.874908	-1.211850	-0.686013	99
Es	-0.788799	-2.417943	1.181507	99
Es	-0.651553	-1.155917	-0.578071	99
Es	-1.205354	-2.190006	-0.931985	99
Es	1.284050	1.017650	0.351367	99
Es	-0.035943	-0.747793	-0.681234	99
Es	1.887135	2.670036	1.091447	99
Es	-0.314348	0.738825	-0.003100	99
Es	0.596439	-1.135677	-0.629381	99
Es	0.718146	2.546937	1.357066	99
Es	1.049597	2.922475	0.251660	99
Es	1.221518	2.464237	0.818561	99
Es	-0.021259	0.691361	-0.823570	99
Es	-1.260996	-1.588760	-0.484009	99
Es	0.538787	0.598439	-2.006260	99
Es	-1.325494	-1.817134	0.240479	99
Es	-0.704037	0.617228	-1.944315	99
Es	-1.991138	-2.496131	1.031977	99
Es	1.255319	1.746789	0.581811	99
Es	0.554166	0.775657	0.026694	99
Es	-0.058478	-0.290487	-1.335784	99
Es	1.459940	0.577962	0.939920	99
Es	-0.010092	-0.031029	-0.255193	99
Es	-0.027110	0.620641	-0.167459	99
Es	-1.401525	-2.044351	0.959345	99
Es	-1.495850	-1.463438	1.414187	99
Es	1.836830	0.938315	-0.164296	99
Es	-0.067666	0.437082	-1.616088	99
48
Properties=species:S:1:pos:R:3:Z:I:1 energy=-289.28007317184904 field_type=dipole dipole="0.000000 0.000000 0.000000" charge=0
C	-1.401532	-2.044346	0.959370	6
C	-1.261022	-1.588756	-0.484040	6
C	-0.035932	-0.748036	-0.681250	6
C	-0.067682	0.437104	-1.616330	6
N	-0.027582	0.620914	-0.167110	7
C	1.284178	1.017653	0.351410	6
C	1.221498	2.464254	0.818570	6
H	-2.267772	-2.704376	1.068890	1
H	-1.540092	-1.188516	1.629460	1
H	-0.509912	-2.587616	1.291500	1
H	-2.165832	-1.045136	-0.779120	1
H	-1.191602	-2.467247	-1.135260	1
H	0.878758	-1.327127	-0.615880	1
H	-1.004052	0.702193	-2.093210	1
H	0.816528	0.662934	-2.199360	1
H	2.093658	0.910594	-0.382390	1
H	1.542298	0.384323	1.209420	1
H	0.967368	3.138134	-0.005580	1
H	2.192528	2.772103	1.220520	1
H	0.476198	2.590954	1.610390	1
Es	-0.021694	0.692458	-0.824047	99
Es	1.460077	0.577582	0.940087	99
Es	-0.010562	-0.031733	-0.253974	99
Es	-1.874623	-1.211738	-0.686051	99
Es	-0.027099	0.620637	-0.167466	99
Es	0.538335	0.598568	-2.005949	99
Es	-0.035945	-0.747803	-0.681240	99
Es	1.836354	0.938347	-0.164157	99
Es	1.049656	2.923158	0.251449	99
Es	0.596211	-1.135710	-0.629166	99
Es	-1.990503	-2.495887	1.032070	99
Es	0.553802	0.776019	0.026972	99
Es	1.284047	1.017650	0.351365	99
Es	-0.058453	-0.291074	-1.336680	99
Es	-0.067663	0.437090	-1.616093	99
Es	0.718688	2.546958	1.357147	99
Es	-1.496016	-1.463409	1.414573	99
Es	-0.789123	-2.418074	1.181516	99
Es	1.886356	2.669693	1.091374	99
Es	1.221518	2.464236	0.818560	99
Es	-1.260996	-1.588760	-0.484009	99
Es	-1.205187	-2.190036	-0.932317	99
Es	-0.651688	-1.155914	-0.577978	99
Es	-0.703799	0.617392	-1.944351	99
Es	-1.401526	-2.044350	0.959345	99
Es	1.255472	1.746706	0.581746	99
Es	-1.325514	-1.817172	0.240382	99
Es	-0.312749	0.738283	-0.003844	99
48
Properties=species:S:1:pos:R:3:Z:I:1 energy=-289.28007317184904 field_type=dipole dipole="0.000000 0.000000 0.000000" charge=0
C	-1.401532	-2.044346	0.959370	6
C	-1.261022	-1.588756	-0.484040	6
C	-0.035932	-0.748036	-0.681250	6
C	-0.067682	0.437104	-1.616330	6
N	-0.027582	0.620914	-0.167110	7
C	1.284178	1.017653	0.351410	6
C	1.221498	2.464254	0.818570	6
H	-2.267772	-2.704376	1.068890	1
H	-1.540092	-1.188516	1.629460	1
H	-0.509912	-2.587616	1.291500	1
H	-2.165832	-1.045136	-0.779120	1
H	-1.191602	-2.467247	-1.135260	1
H	0.878758	-1.327127	-0.615880	1
H	-1.004052	0.702193	-2.093210	1
H	0.816528	0.662934	-2.199360	1
H	2.093658	0.910594	-0.382390	1
H	1.542298	0.384323	1.209420	1
H	0.967368	3.138134	-0.005580	1
H	2.192528	2.772103	1.220520	1
H	0.476198	2.590954	1.610390	1
Es	-1.990142	-2.495561	1.031973	99
Es	-0.703630	0.617520	-1.944365	99
Es	-0.010826	-0.032335	-0.253168	99
Es	1.460187	0.577309	0.940151	99
Es	-1.874413	-1.211493	-0.685985	99
Es	-1.205143	-2.190016	-0.932649	99
Es	-1.401525	-2.044350	0.959344	99
Es	1.221518	2.464237	0.818560	99
Es	-0.035944	-0.747799	-0.681243	99
Es	1.284052	1.017651	0.351368	99
Es	-1.496105	-1.463347	1.414869	99
Es	1.049679	2.923644	0.251354	99
Es	-0.058536	-0.291449	-1.337115	99
Es	1.255606	1.746662	0.581700	99
Es	0.553484	0.776354	0.027215	99
Es	-1.325474	-1.817287	0.240348	99
Es	1.885806	2.669527	1.091432	99
Es	-1.260999	-1.588762	-0.484003	99
Es	0.719053	2.546917	1.357068	99
Es	-0.651701	-1.156098	-0.577787	99
Es	0.538082	0.598607	-2.005773	99
Es	-0.067665	0.437084	-1.616095	99
Es	-0.027100	0.620636	-0.167468	99
Es	-0.022119	0.693459	-0.824422	99
Es	0.596081	-1.135656	-0.629115	99
Es	-0.789348	-2.418379	1.181517	99
Es	-0.311493	0.737680	-0.004436	99
Es	1.835993	0.938363	-0.164015	99
48
Properties=species:S:1:pos:R:3:Z:I:1 energy=-289.28007317184904 field_type=dipole dipole="0.000000 0.000000 0.000000" charge=0
C	-1.401532	-2.044346	0.959370	6
C	-1.261022	-1.588756	-0.484040	6
C	-0.035932	-0.748036	-0.681250	6
C	-0.067682	0.437104	-1.616330	6
N	-0.027582	0.620914	-0.167110	7
C	1.284178	1.017653	0.351410	6
C	1.221498	2.464254	0.818570	6
H	-2.267772	-2.704376	1.068890	1
H	-1.540092	-1.188516	1.629460	1
H	-0.509912	-2.587616	1.291500	1
H	-2.165832	-1.045136	-0.779120	1
H	-1.191602	-2.467247	-1.135260	1
H	0.878758	-1.327127	-0.615880	1
H	-1.004052	0.702193	-2.093210	1
H	0.816528	0.662934	-2.199360	1
H	2.093658	0.910594	-0.382390	1
H	1.542298	0.384323	1.209420	1
H	0.967368	3.138134	-0.005580	1
H	2.192528	2.772103	1.220520	1
H	0.476198	2.590954	1.610390	1
Es	-0.703436	0.617693	-1.944405	99
Es	0.537886	0.598703	-2.005535	99
Es	-1.401525	-2.044350	0.959345	99
Es	-1.989835	-2.495446	1.031956	99
Es	-1.496223	-1.463343	1.415068	99
Es	0.719442	2.547035	1.357198	99
Es	-0.067672	0.437083	-1.616086	99
Es	0.595940	-1.135796	-0.628968	99
Es	-0.027109	0.620645	-0.167453	99
Es	-0.310508	0.736980	-0.004877	99
Es	1.835753	0.938387	-0.163960	99
Es	-0.035943	-0.747794	-0.681232	99
Es	1.460218	0.577079	0.940211	99
Es	0.553240	0.776608	0.027588	99
Es	1.049680	2.923966	0.251226	99
Es	1.885395	2.669308	1.091236	99
Es	1.221518	2.464237	0.818560	99
Es	-0.022517	0.694499	-0.824691	99
Es	-1.205051	-2.189991	-0.932863	99
Es	1.255621	1.746565	0.581794	99
Es	-1.874266	-1.211488	-0.685949	99
Es	-0.789507	-2.418444	1.181534	99
Es	-0.058559	-0.291838	-1.337479	99
Es	1.284054	1.017651	0.351368	99
Es	-1.325385	-1.817319	0.240375	99
Es	-0.010980	-0.032817	-0.252873	99
Es	-0.651856	-1.155932	-0.577813	99
Es	-1.260997	-1.588760	-0.484010	99
48
Properties=species:S:1:pos:R:3:Z:I:1 energy=-289.28007317184904 field_type=dipole dipole="0.000000 0.000000 0.000000" charge=0
C	-1.401532	-2.044346	0.959370	6
C	-1.261022	-1.588756	-0.484040	6
C	-0.035932	-0.748036	-0.681250	6
C	-0.067682	0.437104	-1.616330	6
N	-0.027582	0.620914	-0.167110	7
C	1.284178	1.017653	0.351410	6
C	1.221498	2.464254	0.818570	6
H	-2.267772	-2.704376	1.068890	1
H	-1.540092	-1.188516	1.629460	1
H	-0.509912	-2.587616	1.291500	1
H	-2.165832	-1.045136	-0.779120	1
H	-1.191602	-2.467247	-1.135260	1
H	0.878758	-1.327127	-0.615880	1
H	-1.004052	0.702193	-2.093210	1
H	0.816528	0.662934	-2.199360	1
H	2.093658	0.910594	-0.382390	1
H	1.542298	0.384323	1.209420	1
H	0.967368	3.138134	-0.005580	1
H	2.192528	2.772103	1.220520	1
H	0.476198	2.590954	1.610390	1
Es	1.221518	2.464237	0.818561	99
Es	-0.651948	-1.156026	-0.577722	99
Es	-0.703236	0.617783	-1.944399	99
Es	-0.035945	-0.747796	-0.681233	99
Es	-0.027175	0.620663	-0.167444	99
Es	-1.205006	-2.189971	-0.933048	99
Es	1.460295	0.576855	0.940243	99
Es	-0.789637	-2.418602	1.181492	99
Es	1.835489	0.938429	-0.163867	99
Es	0.553051	0.776848	0.027767	99
Es	-0.067665	0.437084	-1.616094	99
Es	0.537572	0.598743	-2.005344	99
Es	1.284053	1.017651	0.351368	99
Es	1.884995	2.669224	1.091222	99
Es	1.049736	2.924215	0.251138	99
Es	-1.496200	-1.463426	1.415258	99
Es	1.255774	1.746539	0.581809	99
Es	-1.874039	-1.211414	-0.685995	99
Es	-1.989611	-2.495245	1.032004	99
Es	-0.011095	-0.033191	-0.252394	99
Es	0.719618	2.547036	1.357192	99
Es	-1.325499	-1.817233	0.240412	99
Es	-0.022483	0.695000	-0.824823	99
Es	-0.058506	-0.292225	-1.337965	99
Es	0.595779	-1.135744	-0.628848	99
Es	-1.260997	-1.588759	-0.484010	99
Es	-1.401525	-2.044350	0.959344	99
Es	-0.309935	0.736792	-0.005360	99
48
Properties=species:S:1:pos:R:3:Z:I:1 energy=-289.28007317184904 field_type=dipole dipole="0.000000 0.000000 0.000000" charge=0
C	-1.401532	-2.044346	0.959370	6
C	-1.261022	-1.588756	-0.484040	6
C	-0.035932	-0.748036	-0.681250	6
C	-0.067682	0.437104	-1.616330	6
N	-0.027582	0.620914	-0.167110	7
C	1.284178	1.017653	0.351410	6
C	1.221498	2.464254	0.818570	6
H	-2.267772	-2.704376	1.068890	1
H	-1.540092	-1.188516	1.629460	1
H	-0.509912	-2.587616	1.291500	1
H	-2.165832	-1.045136	-0.779120	1
H	-1.191602	-2.467247	-1.135260	1
H	0.878758	-1.327127	-0.615880	1
H	-1.004052	0.702193	-2.093210	1
H	0.816528	0.662934	-2.199360	1
H	2.093658	0.910594	-0.382390	1
H	1.542298	0.384323	1.209420	1
H	0.967368	3.138134	-0.005580	1
H	2.192528	2.772103	1.220520	1
H	0.476198	2.590954	1.610390	1
Es	-0.789878	-2.418747	1.181488	99
Es	-1.205013	-2.190045	-0.933164	99
Es	-0.703243	0.617825	-1.944464	99
Es	-1.873896	-1.211321	-0.685981	99
Es	-1.325420	-1.817265	0.240368	99
Es	0.552880	0.776934	0.027866	99
Es	-0.022403	0.694901	-0.825168	99
Es	-0.027166	0.620669	-0.167419	99
Es	-0.067664	0.437085	-1.616090	99
Es	1.049760	2.924497	0.251065	99
Es	0.595742	-1.135702	-0.628753	99
Es	1.884644	2.669088	1.091183	99
Es	-0.058380	-0.292390	-1.338168	99
Es	-0.035942	-0.747795	-0.681237	99
Es	1.835281	0.938448	-0.163803	99
Es	1.460361	0.576692	0.940286	99
Es	0.537490	0.598844	-2.005199	99
Es	1.284054	1.017651	0.351369	99
Es	-1.401533	-2.044356	0.959342	99
Es	1.221518	2.464237	0.818560	99
Es	-0.011405	-0.033241	-0.251713	99
Es	0.719951	2.547141	1.357127	99
Es	-1.989395	-2.495048	1.032004	99
Es	-0.309475	0.736862	-0.005811	99
Es	-1.496184	-1.463328	1.415431	99
Es	1.255752	1.746399	0.581883	99
Es	-0.652061	-1.156157	-0.577730	99
Es	-1.260997	-1.588760	-0.484010	99
48
Properties=species:S:1:pos:R:3:Z:I:1 energy=-289.28007317184904 field_type=dipole dipole="0.000000 0.000000 0.000000" charge=0
C	-1.401532	-2.044346	0.959370	6
C	-1.261022	-1.588756	-0.484040	6
C	-0.035932	-0.748036	-0.681250	6
C	-0.067682	0.437104	-1.616330	6
N	-0.027582	0.620914	-0.167110	7
C	1.284178	1.017653	0.351410	6
C	1.221498	2.464254	0.818570	6
H	-2.267772	-2.704376	1.068890	1
H	-1.540092	-1.188516	1.629460	1
H	-0.509912	-2.587616	1.291500	1
H	-2.165832	-1.045136	-0.779120	1
H	-1.191602	-2.467247	-1.135260	1
H	0.878758	-1.327127	-0.615880	1
H	-1.004052	0.702193	-2.093210	1
H	0.816528	0.662934	-2.199360	1
H	2.093658	0.910594	-0.382390	1
H	1.542298	0.384323	1.209420	1
H	0.967368	3.138134	-0.005580	1
H	2.192528	2.772103	1.220520	1
H	0.476198	2.590954	1.610390	1
Es	-1.204977	-2.190015	-0.933347	99
Es	1.049772	2.924708	0.251045	99
Es	1.284054	1.017651	0.351369	99
Es	-0.027243	0.620683	-0.167400	99
Es	0.537299	0.598779	-2.005064	99
Es	-0.703207	0.617857	-1.944542	99
Es	-1.401525	-2.044350	0.959344	99
Es	-0.308856	0.736182	-0.005783	99
Es	-1.873716	-1.211279	-0.685975	99
Es	1.255899	1.746440	0.581821	99
Es	-0.067663	0.437075	-1.616097	99
Es	1.221518	2.464237	0.818560	99
Es	0.595630	-1.135740	-0.628677	99
Es	0.720055	2.547055	1.357183	99
Es	-1.325513	-1.817249	0.240345	99
Es	1.884377	2.669005	1.091151	99
Es	-0.035944	-0.747796	-0.681237	99
Es	-1.989156	-2.495095	1.032039	99
Es	1.460353	0.576586	0.940309	99
Es	-1.496315	-1.463407	1.415553	99
Es	-0.058238	-0.292531	-1.338259	99
Es	-0.022800	0.695957	-0.825171	99
Es	1.835168	0.938457	-0.163702	99
Es	-0.011175	-0.033614	-0.251808	99
Es	0.552680	0.777084	0.027862	99
Es	-0.652178	-1.156150	-0.577732	99
Es	-1.260997	-1.588759	-0.484010	99
Es	-0.789927	-2.418650	1.181484	99
48
Properties=species:S:1:pos:R:3:Z:I:1 energy=-289.28007317184904 field_type=dipole dipole="0.000000 0.000000 0.000000" charge=0
C	-1.401532	-2.044346	0.959370	6
C	-1.261022	-1.588756	-0.484040	6
C	-0.035932	-0.748036	-0.681250	6
C	-0.067682	0.437104	-1.616330	6
N	-0.027582	0.620914	-0.167110	7
C	1.284178	1.017653	0.351410	6
C	1.221498	2.464254	0.818570	6
H	-2.267772	-2.704376	1.068890	1
H	-1.540092	-1.188516	1.629460	1
H	-0.509912	-2.587616	1.291500	1
H	-2.165832	-1.045136	-0.779120	1
H	-1.191602	-2.467247	-1.135260	1
H	0.878758	-1.327127	-0.615880	1
H	-1.004052	0.702193	-2.093210	1
H	0.816528	0.662934	-2.199360	1
H	2.093658	0.910594	-0.382390	1
H	1.542298	0.384323	1.209420	1
H	0.967368	3.138134	-0.005580	1
H	2.192528	2.772103	1.220520	1
H	0.476198	2.590954	1.610390	1
Es	-1.260997	-1.588760	-0.484010	99
Es	-1.401525	-2.044350	0.959344	99
Es	-0.790087	-2.418848	1.181531	99
Es	-1.873648	-1.211263	-0.686005	99
Es	-0.308653	0.736019	-0.006328	99
Es	0.537177	0.598883	-2.004947	99
Es	-0.035944	-0.747795	-0.681237	99
Es	1.834984	0.938458	-0.163695	99
Es	0.552467	0.777373	0.028315	99
Es	-0.058284	-0.292705	-1.338649	99
Es	1.884199	2.668921	1.091135	99
Es	-0.011260	-0.033768	-0.251499	99
Es	0.720261	2.547083	1.357145	99
Es	-0.027186	0.620669	-0.167435	99
Es	-0.067665	0.437083	-1.616093	99
Es	-1.496346	-1.463333	1.415674	99
Es	1.221518	2.464236	0.818560	99
Es	-1.988984	-2.494862	1.031983	99
Es	-0.022694	0.695958	-0.825219	99
Es	1.049763	2.924887	0.251029	99
Es	1.284054	1.017651	0.351369	99
Es	0.595584	-1.135718	-0.628631	99
Es	-1.204856	-2.189923	-0.933483	99
Es	-1.325545	-1.817452	0.240299	99
Es	1.255892	1.746395	0.581798	99
Es	1.460439	0.576485	0.940340	99
Es	-0.703080	0.617919	-1.944525	99
Es	-0.652206	-1.156124	-0.577503	99
48
Properties=species:S:1:pos:R:3:Z:I:1 energy=-289.28007317184904 field_type=dipole dipole="0.000000 0.000000 0.000000" charge=0
C	-1.401532	-2.044346	0.959370	6
C	-1.261022	-1.588756	-0.484040	6
C	-0.035932	-0.748036	-0.681250	6
C	-0.067682	0.437104	-1.616330	6
N	-0.027582	0.620914	-0.167110	7
C	1.284178	1.017653	0.351410	6
C	1.221498	2.464254	0.818570	6
H	-2.267772	-2.704376	1.068890	1
H	-1.540092	-1.188516	1.629460	1
H	-0.509912	-2.587616	1.291500	1
H	-2.165832	-1.045136	-0.779120	1
H	-1.191602	-2.467247	-1.135260	1
H	0.878758	-1.327127	-0.615880	1
H	-1.004052	0.702193	-2.093210	1
H	0.816528	0.662934	-2.199360	1
H	2.093658	0.910594	-0.382390	1
H	1.542298	0.384323	1.209420	1
H	0.967368	3.138134	-0.005580	1
H	2.192528	2.772103	1.220520	1
H	0.476198	2.590954	1.610390	1
Es	-1.325507	-1.817321	0.240350	99
Es	0.595552	-1.135724	-0.628680	99
Es	1.049768	2.925086	0.250956	99
Es	-0.308332	0.735859	-0.006514	99
Es	-1.204990	-2.189997	-0.933526	99
Es	1.884004	2.668784	1.091099	99
Es	-1.988909	-2.494910	1.032029	99
Es	0.552224	0.777449	0.028232	99
Es	-1.873512	-1.211128	-0.685974	99
Es	-0.790156	-2.418799	1.181428	99
Es	1.460481	0.576400	0.940352	99
Es	1.284054	1.017651	0.351369	99
Es	1.834903	0.938537	-0.163554	99
Es	1.221518	2.464237	0.818560	99
Es	-0.011293	-0.034036	-0.251156	99
Es	-0.027130	0.620656	-0.167435	99
Es	0.720399	2.547029	1.357193	99
Es	-0.035944	-0.747795	-0.681238	99
Es	-1.496301	-1.463344	1.415785	99
Es	-0.067665	0.437084	-1.616093	99
Es	1.255916	1.746420	0.581829	99
Es	-0.022799	0.696429	-0.825356	99
Es	-1.401525	-2.044350	0.959345	99
Es	0.537164	0.598752	-2.004851	99
Es	-1.260997	-1.588760	-0.484010	99
Es	-0.702972	0.617979	-1.944632	99
Es	-0.058415	-0.292787	-1.338584	99
Es	-0.652159	-1.156282	-0.577661	99
48
Properties=species:S:1:pos:R:3:Z:I:1 energy=-289.28007317184904 field_type=dipole dipole="0.000000 0.000000 0.000000" charge=0
C	-1.401532	-2.044346	0.959370	6
C	-1.261022	-1.588756	-0.484040	6
C	-0.035932	-0.748036	-0.681250	6
C	-0.067682	0.437104	-1.616330	6
N	-0.027582	0.620914	-0.167110	7
C	1.284178	1.017653	0.351410	6
C	1.221498	2.464254	0.818570	6
H	-2.267772	-2.704376	1.068890	1
H	-1.540092	-1.188516	1.629460	1
H	-0.509912	-2.587616	1.291500	1
H	-2.165832	-1.045136	-0.779120	1
H	-1.191602	-2.467247	-1.135260	1
H	0.878758	-1.327127	-0.615880	1
H	-1.004052	0.702193	-2.093210	1
H	0.816528	0.662934	-2.199360	1
H	2.093658	0.910594	-0.382390	1
H	1.542298	0.384323	1.209420	1
H	0.967368	3.138134	-0.005580	1
H	2.192528	2.772103	1.220520	1
H	0.476198	2.590954	1.610390	1
Es	-0.703008	0.618015	-1.944610	99
Es	1.049783	2.925153	0.250973	99
Es	-1.496326	-1.463356	1.415918	99
Es	0.720497	2.547088	1.357165	99
Es	-0.035944	-0.747797	-0.681237	99
Es	1.883854	2.668788	1.091072	99
Es	-0.058282	-0.292896	-1.338882	99
Es	-1.260997	-1.588759	-0.484010	99
Es	-0.011682	-0.034111	-0.250896	99
Es	-0.022967	0.696703	-0.825415	99
Es	-0.652224	-1.156160	-0.577611	99
Es	0.552403	0.777254	0.028194	99
Es	0.595433	-1.135753	-0.628573	99
Es	1.255982	1.746391	0.581792	99
Es	1.221518	2.464236	0.818561	99
Es	-0.790296	-2.418842	1.181423	99
Es	1.834759	0.938472	-0.163571	99
Es	1.284055	1.017651	0.351369	99
Es	-1.204935	-2.190071	-0.933601	99
Es	-0.027212	0.620693	-0.167399	99
Es	-1.988755	-2.494836	1.032018	99
Es	-1.873500	-1.211157	-0.685912	99
Es	-1.401526	-2.044350	0.959344	99
Es	1.460486	0.576304	0.940369	99
Es	0.537029	0.598792	-2.004796	99
Es	-0.067665	0.437085	-1.616092	99
Es	-1.325423	-1.817271	0.240241	99
Es	-0.307679	0.735853	-0.006570	99
48
Properties=species:S:1:pos:R:3:Z:I:1 energy=-289.28007317184904 field_type=dipole dipole="0.000000 0.000000 0.000000" charge=0
C	-1.401532	-2.044346	0.959370	6
C	-1.261022	-1.588756	-0.484040	6
C	-0.035932	-0.748036	-0.681250	6
C	-0.067682	0.437104	-1.616330	6
N	-0.027582	0.620914	-0.167110	7
C	1.284178	1.017653	0.351410	6
C	1.221498	2.464254	0.818570	6
H	-2.267772	-2.704376	1.068890	1
H	-1.540092	-1.188516	1.629460	1
H	-0.509912	-2.587616	1.291500	1
H	-2.165832	-1.045136	-0.779120	1
H	-1.191602	-2.467247	-1.135260	1
H	0.878758	-1.327127	-0.615880	1
H	-1.004052	0.702193	-2.093210	1
H	0.816528	0.662934	-2.199360	1
H	2.093658	0.910594	-0.382390	1
H	1.542298	0.384323	1.209420	1
H	0.967368	3.138134	-0.005580	1
H	2.192528	2.772103	1.220520	1
H	0.476198	2.590954	1.610390	1
Es	-0.652256	-1.156116	-0.577507	99
Es	-0.067665	0.437084	-1.616091	99
Es	-1.988659	-2.494814	1.031983	99
Es	1.834578	0.938383	-0.163533	99
Es	-0.027365	0.620743	-0.167338	99
Es	-0.790296	-2.418913	1.181258	99
Es	-1.496298	-1.463443	1.416109	99
Es	0.552183	0.777638	0.028675	99
Es	1.284054	1.017652	0.351369	99
Es	-0.011490	-0.034233	-0.250655	99
Es	-0.058537	-0.292951	-1.338871	99
Es	-1.325507	-1.817170	0.240332	99
Es	-0.307450	0.735477	-0.007109	99
Es	0.595439	-1.135812	-0.628693	99
Es	-1.401525	-2.044350	0.959344	99
Es	-0.702935	0.618052	-1.944526	99
Es	1.221517	2.464236	0.818561	99
Es	1.256091	1.746505	0.581592	99
Es	1.883703	2.668686	1.090974	99
Es	0.720587	2.547041	1.357285	99
Es	-1.204879	-2.190008	-0.933681	99
Es	1.049788	2.925311	0.251012	99
Es	-0.022867	0.696740	-0.825619	99
Es	1.460545	0.576282	0.940399	99
Es	0.537025	0.598804	-2.004846	99
Es	-1.873464	-1.211153	-0.685916	99
Es	-1.260997	-1.588760	-0.484010	99
Es	-0.035943	-0.747791	-0.681237	99
48
Properties=species:S:1:pos:R:3:Z:I:1 energy=-289.28007317184904 field_type=dipole dipole="0.000000 0.000000 0.000000" charge=0
C	-1.401532	-2.044346	0.959370	6
C	-1.261022	-1.588756	-0.484040	6
C	-0.035932	-0.748036	-0.681250	6
C	-0.067682	0.437104	-1.616330	6
N	-0.027582	0.620914	-0.167110	7
C	1.284178	1.017653	0.351410	6
C	1.221498	2.464254	0.818570	6
H	-2.267772	-2.704376	1.068890	1
H	-1.540092	-1.188516	1.629460	1
H	-0.509912	-2.587616	1.291500	1
H	-2.165832	-1.045136	-0.779120	1
H	-1.191602	-2.467247	-1.135260	1
H	0.878758	-1.327127	-0.615880	1
H	-1.004052	0.702193	-2.093210	1
H	0.816528	0.662934	-2.199360	1
H	2.093658	0.910594	-0.382390	1
H	1.542298	0.384323	1.209420	1
H	0.967368	3.138134	-0.005580	1
H	2.192528	2.772103	1.220520	1
H	0.476198	2.590954	1.610390	1
Es	-1.401525	-2.044350	0.959343	99
Es	-0.011416	-0.034274	-0.250666	99
Es	-0.058227	-0.293162	-1.339038	99
Es	-1.260999	-1.588761	-0.484011	99
Es	-1.988549	-2.494738	1.032047	99
Es	-1.204918	-2.190057	-0.933662	99
Es	1.284054	1.017651	0.351369	99
Es	1.049839	2.925319	0.250945	99
Es	1.256059	1.746414	0.581800	99
Es	0.595363	-1.135754	-0.628464	99
Es	-1.325555	-1.817293	0.240247	99
Es	-0.067666	0.437083	-1.616094	99
Es	-0.035944	-0.747796	-0.681238	99
Es	1.460400	0.576119	0.940380	99
Es	0.536867	0.598831	-2.004659	99
Es	-1.873349	-1.211134	-0.685978	99
Es	-0.790344	-2.418876	1.181447	99
Es	-0.023113	0.697186	-0.825669	99
Es	0.552017	0.777957	0.028784	99
Es	-0.652238	-1.156184	-0.577614	99
Es	0.720617	2.547104	1.357209	99
Es	-0.702874	0.618052	-1.944632	99
Es	-1.496406	-1.463355	1.415989	99
Es	-0.307299	0.735121	-0.007156	99
Es	-0.027171	0.620642	-0.167441	99
Es	1.221518	2.464237	0.818560	99
Es	1.883595	2.668698	1.091005	99
Es	1.834640	0.938438	-0.163543	99
