48
Properties=species:S:1:pos:R:3:Z:I:1 energy=-289.2870043257068 field_type=dipole dipole="0.000000 0.000000 0.000000" charge=0
C	-2.044825	-0.637724	0.249375	6
C	-0.845715	-0.919143	-0.642235	6
C	0.342235	-0.007393	-0.367865	6
C	1.229725	-0.419693	0.789945	6
N	0.641025	0.013797	2.046765	7
C	1.040715	0.576806	-1.587255	6
C	0.217445	1.469266	-0.709605	6
H	-2.878285	-1.292683	-0.024985	1
H	-2.382765	0.398687	0.146905	1
H	-1.817725	-0.816414	1.304205	1
H	-1.167355	-0.813553	-1.685175	1
H	-0.540615	-1.965313	-0.523215	1
H	2.227595	0.023646	0.696275	1
H	1.362305	-1.507064	0.797655	1
H	0.550785	1.027576	2.039255	1
H	1.278225	-0.210793	2.808075	1
H	0.656885	0.347636	-2.574475	1
H	2.117555	0.705266	-1.567285	1
H	0.739165	2.194267	-0.095445	1
H	-0.726385	1.832826	-1.100915	1
Es	0.217514	1.469116	-0.709636	99
Es	1.045553	-0.113302	2.498918	99
Es	-2.044817	-0.637729	0.249336	99
Es	0.575727	1.957614	-0.285091	99
Es	1.317146	-1.165021	0.794466	99
Es	0.166983	0.767624	-0.376542	99
Es	0.342283	-0.007263	-0.367969	99
Es	0.773770	0.417890	-2.256655	99
Es	0.641521	0.014032	2.046679	99
Es	0.914003	-0.163034	1.508306	99
Es	1.923455	-0.108739	0.714282	99
Es	1.040620	0.576849	-1.587125	99
Es	-0.630452	-1.633997	-0.557060	99
Es	-1.893511	-0.761451	0.957971	99
Es	0.609932	0.629391	2.034922	99
Es	-0.845710	-0.919111	-0.642210	99
Es	0.668370	1.168381	-1.255572	99
Es	1.229646	-0.419638	0.790051	99
Es	0.772477	0.113941	-1.029500	99
Es	-0.251286	-0.448797	-0.501037	99
Es	-2.273718	0.072568	0.173267	99
Es	1.774883	0.663620	-1.566770	99
Es	0.326758	-0.135657	2.103505	99
Es	-2.615762	-1.087466	0.054750	99
Es	0.785576	-0.202060	0.208771	99
Es	-1.063855	-0.837733	-1.359979	99
Es	-0.424931	1.710041	-0.974247	99
Es	-1.440476	-0.774472	-0.189607	99
48
Properties=species:S:1:pos:R:3:Z:I:1 energy=-289.2870043257068 field_type=dipole dipole="0.000000 0.000000 0.000000" charge=0
C	-2.044825	-0.637724	0.249375	6
C	-0.845715	-0.919143	-0.642235	6
C	0.342235	-0.007393	-0.367865	6
C	1.229725	-0.419693	0.789945	6
N	0.641025	0.013797	2.046765	7
C	1.040715	0.576806	-1.587255	6
C	0.217445	1.469266	-0.709605	6
H	-2.878285	-1.292683	-0.024985	1
H	-2.382765	0.398687	0.146905	1
H	-1.817725	-0.816414	1.304205	1
H	-1.167355	-0.813553	-1.685175	1
H	-0.540615	-1.965313	-0.523215	1
H	2.227595	0.023646	0.696275	1
H	1.362305	-1.507064	0.797655	1
H	0.550785	1.027576	2.039255	1
H	1.278225	-0.210793	2.808075	1
H	0.656885	0.347636	-2.574475	1
H	2.117555	0.705266	-1.567285	1
H	0.739165	2.194267	-0.095445	1
H	-0.726385	1.832826	-1.100915	1
Es	-2.614381	-1.087191	0.055478	99
Es	-0.629760	-1.635330	-0.557242	99
Es	1.922291	-0.108391	0.714280	99
Es	-2.044817	-0.637729	0.249336	99
Es	-0.845710	-0.919111	-0.642207	99
Es	0.608586	0.631537	2.035895	99
Es	-1.440574	-0.774622	-0.189735	99
Es	-1.893746	-0.762209	0.957487	99
Es	0.774723	0.417983	-2.255987	99
Es	0.668593	1.171116	-1.256550	99
Es	0.914243	-0.163896	1.507978	99
Es	-0.251458	-0.448945	-0.501186	99
Es	1.229646	-0.419638	0.790051	99
Es	1.043031	-0.114923	2.499181	99
Es	0.342289	-0.007269	-0.367973	99
Es	-1.063543	-0.836857	-1.359271	99
Es	1.317627	-1.166387	0.794031	99
Es	0.786012	-0.201822	0.208706	99
Es	1.773542	0.663065	-1.567212	99
Es	-0.423876	1.710234	-0.974157	99
Es	0.575222	1.957617	-0.286062	99
Es	0.165816	0.767939	-0.374962	99
Es	0.217516	1.469109	-0.709642	99
Es	1.040618	0.576847	-1.587122	99
Es	0.641553	0.014037	2.046677	99
Es	-2.274713	0.073877	0.173094	99
Es	0.330187	-0.134879	2.102469	99
Es	0.772780	0.111434	-1.029130	99
48
Properties=species:S:1:pos:R:3:Z:I:1 energy=-289.2870043257068 field_type=dipole dipole="0.000000 0.000000 0.000000" charge=0
C	-2.044825	-0.637724	0.249375	6
C	-0.845715	-0.919143	-0.642235	6
C	0.342235	-0.007393	-0.367865	6
C	1.229725	-0.419693	0.789945	6
N	0.641025	0.013797	2.046765	7
C	1.040715	0.576806	-1.587255	6
C	0.217445	1.469266	-0.709605	6
H	-2.878285	-1.292683	-0.024985	1
H	-2.382765	0.398687	0.146905	1
H	-1.817725	-0.816414	1.304205	1
H	-1.167355	-0.813553	-1.685175	1
H	-0.540615	-1.965313	-0.523215	1
H	2.227595	0.023646	0.696275	1
H	1.362305	-1.507064	0.797655	1
H	0.550785	1.027576	2.039255	1
H	1.278225	-0.210793	2.808075	1
H	0.656885	0.347636	-2.574475	1
H	2.117555	0.705266	-1.567285	1
H	0.739165	2.194267	-0.095445	1
H	-0.726385	1.832826	-1.100915	1
Es	0.342283	-0.007263	-0.367967	99
Es	0.607244	0.632743	2.036634	99
Es	-2.275214	0.074676	0.172959	99
Es	-1.894046	-0.762783	0.957245	99
Es	0.786152	-0.201624	0.208859	99
Es	0.574824	1.957453	-0.286510	99
Es	1.040617	0.576853	-1.587122	99
Es	0.773223	0.109664	-1.028934	99
Es	0.775310	0.418215	-2.255491	99
Es	1.317899	-1.167130	0.793744	99
Es	0.217517	1.469109	-0.709638	99
Es	0.914414	-0.164178	1.507788	99
Es	-2.613481	-1.086755	0.055867	99
Es	-0.251626	-0.449000	-0.501425	99
Es	-0.423165	1.710325	-0.973823	99
Es	0.165194	0.767634	-0.374234	99
Es	-2.044820	-0.637728	0.249338	99
Es	1.772522	0.662981	-1.567578	99
Es	1.921617	-0.108169	0.714231	99
Es	-1.063358	-0.836474	-1.358768	99
Es	-1.440682	-0.774799	-0.189696	99
Es	1.041392	-0.116177	2.499680	99
Es	0.668766	1.173070	-1.257467	99
Es	-0.845710	-0.919108	-0.642212	99
Es	-0.629252	-1.636051	-0.557320	99
Es	1.229647	-0.419639	0.790050	99
Es	0.641536	0.014037	2.046666	99
Es	0.332896	-0.134287	2.101349	99
48
Properties=species:S:1:pos:R:3:Z:I:1 energy=-289.2870043257068 field_type=dipole dipole="0.000000 0.000000 0.000000" charge=0
C	-2.044825	-0.637724	0.249375	6
C	-0.845715	-0.919143	-0.642235	6
C	0.342235	-0.007393	-0.367865	6
C	1.229725	-0.419693	0.789945	6
N	0.641025	0.013797	2.046765	7
C	1.040715	0.576806	-1.587255	6
C	0.217445	1.469266	-0.709605	6
H	-2.878285	-1.292683	-0.024985	1
H	-2.382765	0.398687	0.146905	1
H	-1.817725	-0.816414	1.304205	1
H	-1.167355	-0.813553	-1.685175	1
H	-0.540615	-1.965313	-0.523215	1
H	2.227595	0.023646	0.696275	1
H	1.362305	-1.507064	0.797655	1
H	0.550785	1.027576	2.039255	1
H	1.278225	-0.210793	2.808075	1
H	0.656885	0.347636	-2.574475	1
H	2.117555	0.705266	-1.567285	1
H	0.739165	2.194267	-0.095445	1
H	-0.726385	1.832826	-1.100915	1
Es	-0.628958	-1.636524	-0.557320	99
Es	0.775854	0.418461	-2.255129	99
Es	-2.275739	0.075045	0.173114	99
Es	-0.845710	-0.919111	-0.642209	99
Es	-1.894288	-0.763316	0.957106	99
Es	-2.044817	-0.637729	0.249337	99
Es	-2.612759	-1.086362	0.056065	99
Es	0.668983	1.174622	-1.258108	99
Es	0.342283	-0.007263	-0.367966	99
Es	1.318197	-1.167560	0.793592	99
Es	0.574377	1.957412	-0.286939	99
Es	0.333776	-0.134102	2.100810	99
Es	1.040013	-0.116840	2.499485	99
Es	-0.422510	1.710305	-0.973799	99
Es	0.217513	1.469114	-0.709634	99
Es	0.641552	0.014040	2.046658	99
Es	-1.440720	-0.774664	-0.189998	99
Es	0.164719	0.767146	-0.373440	99
Es	0.914961	-0.164334	1.508021	99
Es	1.771736	0.662967	-1.567721	99
Es	0.773497	0.108444	-1.028773	99
Es	-0.251697	-0.448974	-0.501611	99
Es	1.040621	0.576843	-1.587117	99
Es	1.921011	-0.108154	0.714182	99
Es	0.607180	0.633610	2.037174	99
Es	0.786091	-0.201565	0.208811	99
Es	1.229645	-0.419639	0.790052	99
Es	-1.063114	-0.836273	-1.358417	99
48
Properties=species:S:1:pos:R:3:Z:I:1 energy=-289.2870043257068 field_type=dipole dipole="0.000000 0.000000 0.000000" charge=0
C	-2.044825	-0.637724	0.249375	6
C	-0.845715	-0.919143	-0.642235	6
C	0.342235	-0.007393	-0.367865	6
C	1.229725	-0.419693	0.789945	6
N	0.641025	0.013797	2.046765	7
C	1.040715	0.576806	-1.587255	6
C	0.217445	1.469266	-0.709605	6
H	-2.878285	-1.292683	-0.024985	1
H	-2.382765	0.398687	0.146905	1
H	-1.817725	-0.816414	1.304205	1
H	-1.167355	-0.813553	-1.685175	1
H	-0.540615	-1.965313	-0.523215	1
H	2.227595	0.023646	0.696275	1
H	1.362305	-1.507064	0.797655	1
H	0.550785	1.027576	2.039255	1
H	1.278225	-0.210793	2.808075	1
H	0.656885	0.347636	-2.574475	1
H	2.117555	0.705266	-1.567285	1
H	0.739165	2.194267	-0.095445	1
H	-0.726385	1.832826	-1.100915	1
Es	-1.440802	-0.774726	-0.189933	99
Es	-2.612365	-1.086148	0.056238	99
Es	0.574216	1.957317	-0.287270	99
Es	1.040617	0.576844	-1.587127	99
Es	0.164229	0.767068	-0.372872	99
Es	-0.845709	-0.919111	-0.642209	99
Es	0.915070	-0.164577	1.507983	99
Es	1.229646	-0.419637	0.790050	99
Es	0.606122	0.634153	2.037409	99
Es	0.669081	1.175385	-1.258860	99
Es	0.776182	0.418659	-2.254799	99
Es	-1.063010	-0.836131	-1.358160	99
Es	-0.251831	-0.449104	-0.501633	99
Es	-2.275947	0.075362	0.173070	99
Es	-2.044818	-0.637729	0.249337	99
Es	-0.421899	1.710364	-0.973538	99
Es	0.786161	-0.201525	0.209113	99
Es	0.641529	0.014029	2.046671	99
Es	1.039056	-0.117539	2.500100	99
Es	0.335667	-0.133539	2.099963	99
Es	0.773691	0.107492	-1.028644	99
Es	1.771204	0.663026	-1.567899	99
Es	1.920757	-0.107877	0.713909	99
Es	-0.628749	-1.636777	-0.557402	99
Es	0.217511	1.469114	-0.709629	99
Es	1.318223	-1.167966	0.793335	99
Es	-1.894415	-0.763564	0.956989	99
Es	0.342282	-0.007265	-0.367966	99
48
Properties=species:S:1:pos:R:3:Z:I:1 energy=-289.2870043257068 field_type=dipole dipole="0.000000 0.000000 0.000000" charge=0
C	-2.044825	-0.637724	0.249375	6
C	-0.845715	-0.919143	-0.642235	6
C	0.342235	-0.007393	-0.367865	6
C	1.229725	-0.419693	0.789945	6
N	0.641025	0.013797	2.046765	7
C	1.040715	0.576806	-1.587255	6
C	0.217445	1.469266	-0.709605	6
H	-2.878285	-1.292683	-0.024985	1
H	-2.382765	0.398687	0.146905	1
H	-1.817725	-0.816414	1.304205	1
H	-1.167355	-0.813553	-1.685175	1
H	-0.540615	-1.965313	-0.523215	1
H	2.227595	0.023646	0.696275	1
H	1.362305	-1.507064	0.797655	1
H	0.550785	1.027576	2.039255	1
H	1.278225	-0.210793	2.808075	1
H	0.656885	0.347636	-2.574475	1
H	2.117555	0.705266	-1.567285	1
H	0.739165	2.194267	-0.095445	1
H	-0.726385	1.832826	-1.100915	1
Es	0.776345	0.418808	-2.254450	99
Es	1.920508	-0.107855	0.714041	99
Es	1.040613	0.576852	-1.587116	99
Es	0.342281	-0.007263	-0.367968	99
Es	0.915389	-0.164685	1.507986	99
Es	-1.894572	-0.763788	0.956898	99
Es	0.669247	1.176218	-1.259367	99
Es	0.641548	0.014039	2.046671	99
Es	-2.611957	-1.085849	0.056471	99
Es	0.773753	0.106946	-1.028505	99
Es	-0.421484	1.710221	-0.973426	99
Es	1.770846	0.662955	-1.568120	99
Es	0.606292	0.634537	2.037818	99
Es	-0.845710	-0.919111	-0.642209	99
Es	-2.044817	-0.637729	0.249336	99
Es	0.164094	0.766773	-0.372490	99
Es	1.318301	-1.168225	0.793191	99
Es	0.573958	1.957374	-0.287511	99
Es	1.229648	-0.419636	0.790051	99
Es	-0.628617	-1.637012	-0.557505	99
Es	0.786336	-0.201399	0.209136	99
Es	-1.440807	-0.774841	-0.190083	99
Es	0.336102	-0.133163	2.099368	99
Es	0.217513	1.469115	-0.709633	99
Es	-1.062906	-0.835984	-1.357921	99
Es	-2.276223	0.075559	0.173091	99
Es	1.037989	-0.118144	2.500199	99
Es	-0.251968	-0.449116	-0.501724	99
48
Properties=species:S:1:pos:R:3:Z:I:1 energy=-289.2870043257068 field_type=dipole dipole="0.000000 0.000000 0.000000" charge=0
C	-2.044825	-0.637724	0.249375	6
C	-0.845715	-0.919143	-0.642235	6
C	0.342235	-0.007393	-0.367865	6
C	1.229725	-0.419693	0.789945	6
N	0.641025	0.013797	2.046765	7
C	1.040715	0.576806	-1.587255	6
C	0.217445	1.469266	-0.709605	6
H	-2.878285	-1.292683	-0.024985	1
H	-2.382765	0.398687	0.146905	1
H	-1.817725	-0.816414	1.304205	1
H	-1.167355	-0.813553	-1.685175	1
H	-0.540615	-1.965313	-0.523215	1
H	2.227595	0.023646	0.696275	1
H	1.362305	-1.507064	0.797655	1
H	0.550785	1.027576	2.039255	1
H	1.278225	-0.210793	2.808075	1
H	0.656885	0.347636	-2.574475	1
H	2.117555	0.705266	-1.567285	1
H	0.739165	2.194267	-0.095445	1
H	-0.726385	1.832826	-1.100915	1
Es	1.040615	0.576855	-1.587120	99
Es	-2.044816	-0.637729	0.249336	99
Es	0.776666	0.418816	-2.254292	99
Es	-1.440855	-0.774854	-0.190119	99
Es	1.318288	-1.168428	0.793132	99
Es	1.770414	0.662967	-1.568109	99
Es	0.786251	-0.201280	0.209173	99
Es	0.573828	1.957228	-0.287840	99
Es	-0.628490	-1.637226	-0.557508	99
Es	0.669263	1.176990	-1.260038	99
Es	0.163876	0.766618	-0.372095	99
Es	0.336521	-0.132807	2.098477	99
Es	0.606320	0.634790	2.038104	99
Es	-1.062905	-0.835853	-1.357791	99
Es	-2.276334	0.075730	0.173036	99
Es	0.217518	1.469117	-0.709640	99
Es	0.641546	0.014027	2.046694	99
Es	1.920401	-0.107757	0.713989	99
Es	-2.611687	-1.085660	0.056531	99
Es	0.773931	0.106367	-1.028305	99
Es	-1.894602	-0.764004	0.956926	99
Es	1.036953	-0.118760	2.500569	99
Es	-0.251996	-0.449217	-0.501736	99
Es	0.342280	-0.007264	-0.367964	99
Es	-0.845709	-0.919111	-0.642209	99
Es	0.915933	-0.164574	1.508100	99
Es	1.229647	-0.419637	0.790051	99
Es	-0.421162	1.710255	-0.973124	99
48
Properties=species:S:1:pos:R:3:Z:I:1 energy=-289.2870043257068 field_type=dipole dipole="0.000000 0.000000 0.000000" charge=0
C	-2.044825	-0.637724	0.249375	6
C	-0.845715	-0.919143	-0.642235	6
C	0.342235	-0.007393	-0.367865	6
C	1.229725	-0.419693	0.789945	6
N	0.641025	0.013797	2.046765	7
C	1.040715	0.576806	-1.587255	6
C	0.217445	1.469266	-0.709605	6
H	-2.878285	-1.292683	-0.024985	1
H	-2.382765	0.398687	0.146905	1
H	-1.817725	-0.816414	1.304205	1
H	-1.167355	-0.813553	-1.685175	1
H	-0.540615	-1.965313	-0.523215	1
H	2.227595	0.023646	0.696275	1
H	1.362305	-1.507064	0.797655	1
H	0.550785	1.027576	2.039255	1
H	1.278225	-0.210793	2.808075	1
H	0.656885	0.347636	-2.574475	1
H	2.117555	0.705266	-1.567285	1
H	0.739165	2.194267	-0.095445	1
H	-0.726385	1.832826	-1.100915	1
Es	1.040615	0.576853	-1.587120	99
Es	-1.440883	-0.774871	-0.190159	99
Es	1.920206	-0.107705	0.713885	99
Es	-1.894821	-0.764267	0.956929	99
Es	0.163443	0.766434	-0.371535	99
Es	0.641612	0.014063	2.046653	99
Es	0.776762	0.419097	-2.254093	99
Es	0.916276	-0.164367	1.508440	99
Es	0.606270	0.635038	2.038269	99
Es	0.669536	1.177317	-1.260276	99
Es	1.318341	-1.168574	0.792946	99
Es	0.336741	-0.132799	2.097926	99
Es	-0.252037	-0.449132	-0.501829	99
Es	1.770072	0.662974	-1.568272	99
Es	-2.611359	-1.085373	0.056546	99
Es	0.342283	-0.007266	-0.367966	99
Es	0.573665	1.957348	-0.287979	99
Es	-1.062792	-0.835823	-1.357617	99
Es	1.229647	-0.419638	0.790051	99
Es	-0.420649	1.710166	-0.973208	99
Es	0.786345	-0.201433	0.209245	99
Es	1.036328	-0.119173	2.500721	99
Es	-0.845709	-0.919111	-0.642209	99
Es	0.217516	1.469113	-0.709636	99
Es	-2.044817	-0.637729	0.249338	99
Es	-0.628381	-1.637352	-0.557537	99
Es	0.773968	0.105947	-1.028350	99
Es	-2.276482	0.075862	0.173063	99
48
Properties=species:S:1:pos:R:3:Z:I:1 energy=-289.2870043257068 field_type=dipole dipole="0.000000 0.000000 0.000000" charge=0
C	-2.044825	-0.637724	0.249375	6
C	-0.845715	-0.919143	-0.642235	6
C	0.342235	-0.007393	-0.367865	6
C	1.229725	-0.419693	0.789945	6
N	0.641025	0.013797	2.046765	7
C	1.040715	0.576806	-1.587255	6
C	0.217445	1.469266	-0.709605	6
H	-2.878285	-1.292683	-0.024985	1
H	-2.382765	0.398687	0.146905	1
H	-1.817725	-0.816414	1.304205	1
H	-1.167355	-0.813553	-1.685175	1
H	-0.540615	-1.965313	-0.523215	1
H	2.227595	0.023646	0.696275	1
H	1.362305	-1.507064	0.797655	1
H	0.550785	1.027576	2.039255	1
H	1.278225	-0.210793	2.808075	1
H	0.656885	0.347636	-2.574475	1
H	2.117555	0.705266	-1.567285	1
H	0.739165	2.194267	-0.095445	1
H	-0.726385	1.832826	-1.100915	1
Es	0.641527	0.014036	2.046676	99
Es	0.669624	1.177820	-1.260704	99
Es	-1.894902	-0.764453	0.956869	99
Es	1.769814	0.663019	-1.568289	99
Es	0.573450	1.957302	-0.288137	99
Es	-1.062775	-0.835601	-1.357559	99
Es	1.040613	0.576850	-1.587114	99
Es	1.920098	-0.107643	0.713855	99
Es	0.342282	-0.007266	-0.367962	99
Es	-0.252090	-0.449301	-0.501719	99
Es	-2.044817	-0.637729	0.249336	99
Es	-2.276596	0.076025	0.173078	99
Es	0.774012	0.105520	-1.028262	99
Es	0.916304	-0.164527	1.508343	99
Es	0.606286	0.635181	2.038417	99
Es	1.036122	-0.119094	2.500479	99
Es	0.786403	-0.201287	0.209378	99
Es	-0.845710	-0.919111	-0.642209	99
Es	-1.440809	-0.774895	-0.190192	99
Es	-2.611121	-1.085194	0.056633	99
Es	0.336954	-0.132790	2.098065	99
Es	-0.628384	-1.637549	-0.557592	99
Es	0.163250	0.766277	-0.371375	99
Es	0.217520	1.469102	-0.709638	99
Es	1.318350	-1.168716	0.792847	99
Es	0.776977	0.419148	-2.253921	99
Es	1.229647	-0.419638	0.790050	99
Es	-0.420332	1.710111	-0.973128	99
48
Properties=species:S:1:pos:R:3:Z:I:1 energy=-289.2870043257068 field_type=dipole dipole="0.000000 0.000000 0.000000" charge=0
C	-2.044825	-0.637724	0.249375	6
C	-0.845715	-0.919143	-0.642235	6
C	0.342235	-0.007393	-0.367865	6
C	1.229725	-0.419693	0.789945	6
N	0.641025	0.013797	2.046765	7
C	1.040715	0.576806	-1.587255	6
C	0.217445	1.469266	-0.709605	6
H	-2.878285	-1.292683	-0.024985	1
H	-2.382765	0.398687	0.146905	1
H	-1.817725	-0.816414	1.304205	1
H	-1.167355	-0.813553	-1.685175	1
H	-0.540615	-1.965313	-0.523215	1
H	2.227595	0.023646	0.696275	1
H	1.362305	-1.507064	0.797655	1
H	0.550785	1.027576	2.039255	1
H	1.278225	-0.210793	2.808075	1
H	0.656885	0.347636	-2.574475	1
H	2.117555	0.705266	-1.567285	1
H	0.739165	2.194267	-0.095445	1
H	-0.726385	1.832826	-1.100915	1
Es	0.777074	0.419273	-2.253779	99
Es	1.920017	-0.107599	0.713859	99
Es	-1.894976	-0.764570	0.956911	99
Es	0.606827	0.635427	2.038430	99
Es	1.769535	0.663012	-1.568377	99
Es	-2.610924	-1.085013	0.056700	99
Es	0.774118	0.105111	-1.028074	99
Es	1.040616	0.576851	-1.587118	99
Es	1.318354	-1.168844	0.792804	99
Es	0.916522	-0.164813	1.508495	99
Es	0.573372	1.957203	-0.288178	99
Es	-2.044815	-0.637730	0.249339	99
Es	0.786323	-0.201143	0.209323	99
Es	0.337123	-0.132110	2.097512	99
Es	0.342283	-0.007263	-0.367967	99
Es	1.229646	-0.419637	0.790051	99
Es	-0.628275	-1.637632	-0.557577	99
Es	1.035159	-0.119691	2.500826	99
Es	0.669809	1.178260	-1.261099	99
Es	-0.252157	-0.449342	-0.501712	99
Es	-1.440894	-0.774909	-0.190321	99
Es	-1.062685	-0.835618	-1.357432	99
Es	0.163222	0.766174	-0.371293	99
Es	-0.845710	-0.919110	-0.642210	99
Es	-0.420219	1.710106	-0.972964	99
Es	0.217515	1.469113	-0.709633	99
Es	-2.276705	0.076060	0.173059	99
Es	0.641542	0.014031	2.046652	99
48
Properties=species:S:1:pos:R:3:Z:I:1 energy=-289.2870043257068 field_type=dipole dipole="0.000000 0.000000 0.000000" charge=0
C	-2.044825	-0.637724	0.249375	6
C	-0.845715	-0.919143	-0.642235	6
C	0.342235	-0.007393	-0.367865	6
C	1.229725	-0.419693	0.789945	6
N	0.641025	0.013797	2.046765	7
C	1.040715	0.576806	-1.587255	6
C	0.217445	1.469266	-0.709605	6
H	-2.878285	-1.292683	-0.024985	1
H	-2.382765	0.398687	0.146905	1
H	-1.817725	-0.816414	1.304205	1
H	-1.167355	-0.813553	-1.685175	1
H	-0.540615	-1.965313	-0.523215	1
H	2.227595	0.023646	0.696275	1
H	1.362305	-1.507064	0.797655	1
H	0.550785	1.027576	2.039255	1
H	1.278225	-0.210793	2.808075	1
H	0.656885	0.347636	-2.574475	1
H	2.117555	0.705266	-1.567285	1
H	0.739165	2.194267	-0.095445	1
H	-0.726385	1.832826	-1.100915	1
Es	1.035824	-0.118991	2.499954	99
Es	-1.895092	-0.764788	0.956958	99
Es	-1.062650	-0.835488	-1.357381	99
Es	1.318517	-1.168884	0.792761	99
Es	0.217517	1.469117	-0.709637	99
Es	-2.044816	-0.637729	0.249336	99
Es	0.774230	0.104925	-1.028153	99
Es	-0.419900	1.709966	-0.973043	99
Es	-2.610627	-1.084823	0.056687	99
Es	0.641568	0.014051	2.046662	99
Es	0.342286	-0.007270	-0.367970	99
Es	-2.276834	0.076180	0.173011	99
Es	0.786312	-0.201303	0.209395	99
Es	0.669970	1.178472	-1.261250	99
Es	-0.845710	-0.919111	-0.642209	99
Es	-0.252247	-0.449463	-0.501783	99
Es	0.573140	1.957295	-0.288401	99
Es	1.040616	0.576848	-1.587119	99
Es	1.919852	-0.107474	0.713713	99
Es	-0.628180	-1.637758	-0.557591	99
Es	0.606364	0.635552	2.038541	99
Es	0.916248	-0.164882	1.508399	99
Es	0.777264	0.419432	-2.253686	99
Es	-1.440892	-0.774908	-0.190282	99
Es	0.337164	-0.132860	2.098416	99
Es	1.769202	0.663088	-1.568388	99
Es	0.162925	0.766040	-0.370768	99
Es	1.229646	-0.419636	0.790051	99
48
Properties=species:S:1:pos:R:3:Z:I:1 energy=-289.2870043257068 field_type=dipole dipole="0.000000 0.000000 0.000000" charge=0
C	-2.044825	-0.637724	0.249375	6
C	-0.845715	-0.919143	-0.642235	6
C	0.342235	-0.007393	-0.367865	6
C	1.229725	-0.419693	0.789945	6
N	0.641025	0.013797	2.046765	7
C	1.040715	0.576806	-1.587255	6
C	0.217445	1.469266	-0.709605	6
H	-2.878285	-1.292683	-0.024985	1
H	-2.382765	0.398687	0.146905	1
H	-1.817725	-0.816414	1.304205	1
H	-1.167355	-0.813553	-1.685175	1
H	-0.540615	-1.965313	-0.523215	1
H	2.227595	0.023646	0.696275	1
H	1.362305	-1.507064	0.797655	1
H	0.550785	1.027576	2.039255	1
H	1.278225	-0.210793	2.808075	1
H	0.656885	0.347636	-2.574475	1
H	2.117555	0.705266	-1.567285	1
H	0.739165	2.194267	-0.095445	1
H	-0.726385	1.832826	-1.100915	1
Es	0.786390	-0.201290	0.209555	99
Es	0.342286	-0.007264	-0.367963	99
Es	-0.419642	1.709828	-0.972806	99
Es	-2.276784	0.076308	0.173095	99
Es	1.034511	-0.120174	2.501171	99
Es	1.229647	-0.419639	0.790051	99
Es	0.573031	1.957325	-0.288555	99
Es	0.669801	1.178754	-1.261503	99
Es	-1.440979	-0.774995	-0.190355	99
Es	-0.252265	-0.449400	-0.501675	99
Es	-1.062552	-0.835488	-1.357244	99
Es	-0.845709	-0.919109	-0.642209	99
Es	0.162939	0.765942	-0.370653	99
Es	0.916481	-0.165001	1.508623	99
Es	1.919886	-0.107394	0.713649	99
Es	1.769161	0.663182	-1.568442	99
Es	0.337746	-0.131653	2.097002	99
Es	0.606787	0.635688	2.038449	99
Es	0.217516	1.469104	-0.709633	99
Es	0.777310	0.419510	-2.253571	99
Es	1.040618	0.576843	-1.587118	99
Es	1.318407	-1.168984	0.792674	99
Es	-2.044816	-0.637729	0.249336	99
Es	-2.610619	-1.084735	0.056740	99
Es	-0.628212	-1.637824	-0.557648	99
Es	-1.895146	-0.764874	0.956830	99
Es	0.641569	0.014065	2.046673	99
Es	0.774338	0.104602	-1.028246	99
48
Properties=species:S:1:pos:R:3:Z:I:1 energy=-289.2870043257068 field_type=dipole dipole="0.000000 0.000000 0.000000" charge=0
C	-2.044825	-0.637724	0.249375	6
C	-0.845715	-0.919143	-0.642235	6
C	0.342235	-0.007393	-0.367865	6
C	1.229725	-0.419693	0.789945	6
N	0.641025	0.013797	2.046765	7
C	1.040715	0.576806	-1.587255	6
C	0.217445	1.469266	-0.709605	6
H	-2.878285	-1.292683	-0.024985	1
H	-2.382765	0.398687	0.146905	1
H	-1.817725	-0.816414	1.304205	1
H	-1.167355	-0.813553	-1.685175	1
H	-0.540615	-1.965313	-0.523215	1
H	2.227595	0.023646	0.696275	1
H	1.362305	-1.507064	0.797655	1
H	0.550785	1.027576	2.039255	1
H	1.278225	-0.210793	2.808075	1
H	0.656885	0.347636	-2.574475	1
H	2.117555	0.705266	-1.567285	1
H	0.739165	2.194267	-0.095445	1
H	-0.726385	1.832826	-1.100915	1
Es	-0.252385	-0.449528	-0.501739	99
Es	0.162902	0.765788	-0.370538	99
Es	0.670024	1.179172	-1.261683	99
Es	-0.419481	1.709835	-0.972870	99
Es	-1.440941	-0.774982	-0.190335	99
Es	0.774269	0.104374	-1.028127	99
Es	-1.895172	-0.764964	0.956931	99
Es	-2.610424	-1.084603	0.056774	99
Es	0.777386	0.419640	-2.253343	99
Es	0.342280	-0.007254	-0.367965	99
Es	1.040624	0.576852	-1.587119	99
Es	1.229646	-0.419637	0.790051	99
Es	-2.276901	0.076310	0.173024	99
Es	-2.044814	-0.637731	0.249334	99
Es	1.769014	0.663024	-1.568536	99
Es	0.217509	1.469108	-0.709632	99
Es	1.034486	-0.119973	2.500633	99
Es	0.916671	-0.164901	1.508509	99
Es	-0.845709	-0.919111	-0.642209	99
Es	-1.062609	-0.835437	-1.357239	99
Es	0.572920	1.957288	-0.288633	99
Es	1.919721	-0.107424	0.713650	99
Es	1.318529	-1.169031	0.792687	99
Es	0.337722	-0.132001	2.097297	99
Es	0.641574	0.014065	2.046669	99
Es	0.786309	-0.201194	0.209437	99
Es	-0.628129	-1.637865	-0.557632	99
Es	0.606675	0.635776	2.038831	99
48
Properties=species:S:1:pos:R:3:Z:I:1 energy=-289.2870043257068 field_type=dipole dipole="0.000000 0.000000 0.000000" charge=0
C	-2.044825	-0.637724	0.249375	6
C	-0.845715	-0.919143	-0.642235	6
C	0.342235	-0.007393	-0.367865	6
C	1.229725	-0.419693	0.789945	6
N	0.641025	0.013797	2.046765	7
C	1.040715	0.576806	-1.587255	6
C	0.217445	1.469266	-0.709605	6
H	-2.878285	-1.292683	-0.024985	1
H	-2.382765	0.398687	0.146905	1
H	-1.817725	-0.816414	1.304205	1
H	-1.167355	-0.813553	-1.685175	1
H	-0.540615	-1.965313	-0.523215	1
H	2.227595	0.023646	0.696275	1
H	1.362305	-1.507064	0.797655	1
H	0.550785	1.027576	2.039255	1
H	1.278225	-0.210793	2.808075	1
H	0.656885	0.347636	-2.574475	1
H	2.117555	0.705266	-1.567285	1
H	0.739165	2.194267	-0.095445	1
H	-0.726385	1.832826	-1.100915	1
Es	1.919763	-0.107343	0.713599	99
Es	-2.610341	-1.084513	0.056710	99
Es	1.318410	-1.169129	0.792572	99
Es	-0.845710	-0.919112	-0.642209	99
Es	0.774429	0.104233	-1.028088	99
Es	1.033872	-0.120532	2.501271	99
Es	-1.895275	-0.765105	0.956904	99
Es	-1.062522	-0.835448	-1.357174	99
Es	0.162656	0.765743	-0.370346	99
Es	-0.252309	-0.449516	-0.501710	99
Es	-1.440946	-0.774883	-0.190383	99
Es	-0.628162	-1.637939	-0.557602	99
Es	-2.276918	0.076369	0.173096	99
Es	1.229647	-0.419638	0.790051	99
Es	1.768784	0.663110	-1.568516	99
Es	0.917047	-0.164625	1.508807	99
Es	-2.044817	-0.637730	0.249336	99
Es	0.606683	0.635829	2.038784	99
Es	0.572909	1.957260	-0.288744	99
Es	0.786388	-0.201195	0.209605	99
Es	0.337949	-0.131687	2.096342	99
Es	0.669962	1.179355	-1.261944	99
Es	0.217514	1.469113	-0.709635	99
Es	0.342283	-0.007265	-0.367967	99
Es	0.641504	0.014011	2.046685	99
Es	1.040618	0.576857	-1.587117	99
Es	0.777514	0.419540	-2.253335	99
Es	-0.419233	1.709840	-0.972767	99
48
Properties=species:S:1:pos:R:3:Z:I:1 energy=-289.2870043257068 field_type=dipole dipole="0.000000 0.000000 0.000000" charge=0
C	-2.044825	-0.637724	0.249375	6
C	-0.845715	-0.919143	-0.642235	6
C	0.342235	-0.007393	-0.367865	6
C	1.229725	-0.419693	0.789945	6
N	0.641025	0.013797	2.046765	7
C	1.040715	0.576806	-1.587255	6
C	0.217445	1.469266	-0.709605	6
H	-2.878285	-1.292683	-0.024985	1
H	-2.382765	0.398687	0.146905	1
H	-1.817725	-0.816414	1.304205	1
H	-1.167355	-0.813553	-1.685175	1
H	-0.540615	-1.965313	-0.523215	1
H	2.227595	0.023646	0.696275	1
H	1.362305	-1.507064	0.797655	1
H	0.550785	1.027576	2.039255	1
H	1.278225	-0.210793	2.808075	1
H	0.656885	0.347636	-2.574475	1
H	2.117555	0.705266	-1.567285	1
H	0.739165	2.194267	-0.095445	1
H	-0.726385	1.832826	-1.100915	1
Es	-1.440931	-0.774941	-0.190365	99
Es	0.916778	-0.164853	1.508703	99
Es	-0.252363	-0.449652	-0.501756	99
Es	0.217517	1.469111	-0.709639	99
Es	1.768650	0.663126	-1.568555	99
Es	0.162278	0.765695	-0.369813	99
Es	0.786465	-0.201093	0.209471	99
Es	0.670186	1.179241	-1.262085	99
Es	0.641495	0.014017	2.046675	99
Es	-0.628094	-1.638022	-0.557699	99
Es	0.777581	0.419664	-2.253234	99
Es	1.040613	0.576852	-1.587117	99
Es	0.606849	0.636021	2.038863	99
Es	0.774449	0.104324	-1.028147	99
Es	-1.895309	-0.765176	0.956889	99
Es	0.342282	-0.007265	-0.367966	99
Es	-2.044817	-0.637729	0.249336	99
Es	-2.276997	0.076421	0.173084	99
Es	-0.845711	-0.919113	-0.642211	99
Es	-0.419053	1.709917	-0.972870	99
Es	0.572890	1.957212	-0.288899	99
Es	0.338067	-0.131610	2.096611	99
Es	1.318404	-1.169206	0.792555	99
Es	1.919707	-0.107369	0.713677	99
Es	-2.610204	-1.084428	0.056769	99
Es	1.033856	-0.120564	2.500980	99
Es	-1.062537	-0.835342	-1.357080	99
Es	1.229646	-0.419639	0.790050	99
48
Properties=species:S:1:pos:R:3:Z:I:1 energy=-289.2870043257068 field_type=dipole dipole="0.000000 0.000000 0.000000" charge=0
C	-2.044825	-0.637724	0.249375	6
C	-0.845715	-0.919143	-0.642235	6
C	0.342235	-0.007393	-0.367865	6
C	1.229725	-0.419693	0.789945	6
N	0.641025	0.013797	2.046765	7
C	1.040715	0.576806	-1.587255	6
C	0.217445	1.469266	-0.709605	6
H	-2.878285	-1.292683	-0.024985	1
H	-2.382765	0.398687	0.146905	1
H	-1.817725	-0.816414	1.304205	1
H	-1.167355	-0.813553	-1.685175	1
H	-0.540615	-1.965313	-0.523215	1
H	2.227595	0.023646	0.696275	1
H	1.362305	-1.507064	0.797655	1
H	0.550785	1.027576	2.039255	1
H	1.278225	-0.210793	2.808075	1
H	0.656885	0.347636	-2.574475	1
H	2.117555	0.705266	-1.567285	1
H	0.739165	2.194267	-0.095445	1
H	-0.726385	1.832826	-1.100915	1
Es	0.774420	0.103965	-1.027904	99
Es	-0.252391	-0.449583	-0.501711	99
Es	0.162588	0.765675	-0.370122	99
Es	0.917302	-0.164673	1.508870	99
Es	0.342273	-0.007256	-0.367951	99
Es	1.032753	-0.121434	2.501803	99
Es	-1.440957	-0.774993	-0.190553	99
Es	0.217513	1.469110	-0.709631	99
Es	0.777626	0.419607	-2.253007	99
Es	-0.845710	-0.919111	-0.642209	99
Es	0.641567	0.014046	2.046647	99
Es	-2.610090	-1.084250	0.056861	99
Es	-1.062539	-0.835366	-1.356987	99
Es	-0.628114	-1.638048	-0.557739	99
Es	0.338298	-0.130937	2.095492	99
Es	1.768614	0.663074	-1.568650	99
Es	1.318477	-1.169232	0.792516	99
Es	-2.044825	-0.637737	0.249330	99
Es	-0.418981	1.709759	-0.972691	99
Es	1.040614	0.576846	-1.587117	99
Es	1.229646	-0.419638	0.790051	99
Es	1.919673	-0.107188	0.713522	99
Es	0.607103	0.635996	2.039032	99
Es	-1.895328	-0.765224	0.956970	99
Es	0.670079	1.179733	-1.262416	99
Es	0.572810	1.957282	-0.288895	99
Es	-2.277081	0.076354	0.173086	99
Es	0.786358	-0.201182	0.209631	99
48
Properties=species:S:1:pos:R:3:Z:I:1 energy=-289.2870043257068 field_type=dipole dipole="0.000000 0.000000 0.000000" charge=0
C	-2.044825	-0.637724	0.249375	6
C	-0.845715	-0.919143	-0.642235	6
C	0.342235	-0.007393	-0.367865	6
C	1.229725	-0.419693	0.789945	6
N	0.641025	0.013797	2.046765	7
C	1.040715	0.576806	-1.587255	6
C	0.217445	1.469266	-0.709605	6
H	-2.878285	-1.292683	-0.024985	1
H	-2.382765	0.398687	0.146905	1
H	-1.817725	-0.816414	1.304205	1
H	-1.167355	-0.813553	-1.685175	1
H	-0.540615	-1.965313	-0.523215	1
H	2.227595	0.023646	0.696275	1
H	1.362305	-1.507064	0.797655	1
H	0.550785	1.027576	2.039255	1
H	1.278225	-0.210793	2.808075	1
H	0.656885	0.347636	-2.574475	1
H	2.117555	0.705266	-1.567285	1
H	0.739165	2.194267	-0.095445	1
H	-0.726385	1.832826	-1.100915	1
Es	0.607375	0.635944	2.039119	99
Es	-0.252451	-0.449648	-0.501656	99
Es	0.572695	1.957376	-0.289019	99
Es	0.774423	0.103726	-1.028060	99
Es	1.768545	0.663207	-1.568521	99
Es	-2.044817	-0.637730	0.249336	99
Es	1.919612	-0.107243	0.713550	99
Es	0.162517	0.765627	-0.369924	99
Es	0.917435	-0.164574	1.508831	99
Es	0.641461	0.013986	2.046687	99
Es	-2.609958	-1.084192	0.056724	99
Es	-0.418799	1.709609	-0.972636	99
Es	1.229648	-0.419639	0.790050	99
Es	0.669918	1.179819	-1.262474	99
Es	-1.440934	-0.774932	-0.190383	99
Es	0.777797	0.419704	-2.253045	99
Es	-2.277074	0.076510	0.173103	99
Es	0.338054	-0.130899	2.095480	99
Es	1.032708	-0.121395	2.501700	99
Es	-0.628069	-1.638128	-0.557733	99
Es	0.786405	-0.201152	0.209609	99
Es	-1.895505	-0.765406	0.956918	99
Es	1.318447	-1.169298	0.792498	99
Es	0.342285	-0.007267	-0.367967	99
Es	0.217517	1.469112	-0.709638	99
Es	-0.845710	-0.919111	-0.642209	99
Es	-1.062439	-0.835258	-1.356996	99
Es	1.040614	0.576849	-1.587116	99
48
Properties=species:S:1:pos:R:3:Z:I:1 energy=-289.2870043257068 field_type=dipole dipole="0.000000 0.000000 0.000000" charge=0
C	-2.044825	-0.637724	0.249375	6
C	-0.845715	-0.919143	-0.642235	6
C	0.342235	-0.007393	-0.367865	6
C	1.229725	-0.419693	0.789945	6
N	0.641025	0.013797	2.046765	7
C	1.040715	0.576806	-1.587255	6
C	0.217445	1.469266	-0.709605	6