33
Properties=species:S:1:pos:R:3:Z:I:1 energy=-283.34771790049416 field_type=dipole dipole="0.000000 0.000000 0.000000" charge=0
C	-3.572652	-0.273631	0.000000	6
C	-2.372662	-0.274511	0.000000	6
C	-0.840412	-0.274481	0.000000	6
C	0.349748	-0.274481	0.000000	6
C	1.793748	-0.274481	0.000000	6
C	2.275768	1.086689	0.000000	6
N	2.659978	2.171679	0.000000	7
H	-4.637372	-0.270141	0.000000	1
H	2.171928	-0.808321	-0.878630	1
H	2.171928	-0.808321	0.878630	1
Es	-4.261255	-0.271958	-0.000055	99
Es	-2.950111	-0.203503	0.348418	99
Es	1.061344	-0.261585	-0.000065	99
Es	-0.840883	-0.274487	-0.000001	99
Es	2.037207	0.434225	0.000220	99
Es	2.782774	2.517603	0.000072	99
Es	-3.572846	-0.273633	0.000001	99
Es	2.310719	1.734258	-0.248282	99
Es	0.350028	-0.274469	-0.000012	99
Es	-2.372177	-0.274508	-0.000004	99
Es	2.659828	2.171249	0.000001	99
Es	2.275643	1.086306	0.000009	99
Es	1.793674	-0.274325	0.000001	99
Es	2.369021	1.714027	0.284245	99
Es	-0.258336	-0.633879	0.033339	99
Es	-0.264137	-0.069432	0.291742	99
Es	2.031068	-0.602154	0.575453	99
Es	2.774848	1.568442	-0.036135	99
Es	-2.948690	-0.612269	-0.112441	99
Es	-0.265424	-0.126924	-0.325034	99
Es	2.031175	-0.602055	-0.575562	99
Es	-1.605284	-0.274855	0.000035	99
Es	-2.948890	-0.009098	-0.235943	99
33
Properties=species:S:1:pos:R:3:Z:I:1 energy=-283.34771790049416 field_type=dipole dipole="0.000000 0.000000 0.000000" charge=0
C	-3.572652	-0.273631	0.000000	6
C	-2.372662	-0.274511	0.000000	6
C	-0.840412	-0.274481	0.000000	6
C	0.349748	-0.274481	0.000000	6
C	1.793748	-0.274481	0.000000	6
C	2.275768	1.086689	0.000000	6
N	2.659978	2.171679	0.000000	7
H	-4.637372	-0.270141	0.000000	1
H	2.171928	-0.808321	-0.878630	1
H	2.171928	-0.808321	0.878630	1
Es	-4.263726	-0.273580	0.000353	99
Es	2.659829	2.171251	-0.000000	99
Es	2.763478	1.563454	-0.117217	99
Es	1.793671	-0.274322	0.000001	99
Es	-2.372157	-0.274514	-0.000001	99
Es	0.350058	-0.274472	-0.000006	99
Es	-2.949146	-0.010545	-0.228263	99
Es	-0.266885	-0.174325	-0.325983	99
Es	2.191972	1.781509	-0.111453	99
Es	1.055021	-0.263671	-0.000279	99
Es	-0.262983	-0.029775	0.248396	99
Es	-2.949259	-0.199686	0.328161	99
Es	-1.605293	-0.274375	0.000138	99
Es	2.033172	0.437228	0.001528	99
Es	2.275602	1.086319	0.000004	99
Es	2.032942	-0.599535	0.567585	99
Es	2.032729	-0.599084	-0.567707	99
Es	-0.258120	-0.625996	0.077914	99
Es	2.802500	2.506374	0.003950	99
Es	-2.948954	-0.614897	-0.100416	99
Es	-0.840903	-0.274493	-0.000005	99
Es	-3.572861	-0.273629	-0.000011	99
Es	2.488611	1.677742	0.223311	99
33
Properties=species:S:1:pos:R:3:Z:I:1 energy=-283.34771790049416 field_type=dipole dipole="0.000000 0.000000 0.000000" charge=0
C	-3.572652	-0.273631	0.000000	6
C	-2.372662	-0.274511	0.000000	6
C	-0.840412	-0.274481	0.000000	6
C	0.349748	-0.274481	0.000000	6
C	1.793748	-0.274481	0.000000	6
C	2.275768	1.086689	0.000000	6
N	2.659978	2.171679	0.000000	7
H	-4.637372	-0.270141	0.000000	1
H	2.171928	-0.808321	-0.878630	1
H	2.171928	-0.808321	0.878630	1
Es	2.032446	-0.597494	-0.563613	99
Es	-0.257662	-0.634025	0.002975	99
Es	2.275623	1.086322	0.000003	99
Es	-0.265090	-0.095034	0.290222	99
Es	-0.265267	-0.100860	-0.293151	99
Es	2.816243	2.495132	-0.000353	99
Es	-3.572870	-0.273642	-0.000005	99
Es	1.053305	-0.264751	-0.000081	99
Es	-2.949071	-0.023998	0.236827	99
Es	0.350061	-0.274470	0.000005	99
Es	2.028490	0.442179	0.000113	99
Es	-2.949266	-0.619781	0.080356	99
Es	-4.264175	-0.274430	-0.000204	99
Es	-1.605297	-0.274407	-0.000115	99
Es	-0.840916	-0.274491	0.000007	99
Es	-2.948952	-0.181153	-0.316878	99
Es	2.486752	1.683295	0.003691	99
Es	1.793671	-0.274322	-0.000000	99
Es	-2.372146	-0.274497	0.000008	99
Es	2.171338	1.794561	-0.000923	99
Es	2.659829	2.171253	0.000000	99
Es	2.779303	1.549751	-0.002550	99
Es	2.032945	-0.598159	0.563669	99
33
Properties=species:S:1:pos:R:3:Z:I:1 energy=-283.34771790049416 field_type=dipole dipole="0.000000 0.000000 0.000000" charge=0
C	-3.572652	-0.273631	0.000000	6
C	-2.372662	-0.274511	0.000000	6
C	-0.840412	-0.274481	0.000000	6
C	0.349748	-0.274481	0.000000	6
C	1.793748	-0.274481	0.000000	6
C	2.275768	1.086689	0.000000	6
N	2.659978	2.171679	0.000000	7
H	-4.637372	-0.270141	0.000000	1
H	2.171928	-0.808321	-0.878630	1
H	2.171928	-0.808321	0.878630	1
Es	-0.840916	-0.274493	-0.000017	99
Es	-2.948611	-0.143166	0.298925	99
Es	1.793668	-0.274318	-0.000003	99
Es	2.832770	2.479255	0.000571	99
Es	2.032191	-0.597352	-0.560161	99
Es	0.350063	-0.274475	-0.000004	99
Es	-2.949878	-0.628369	-0.043616	99
Es	-1.605296	-0.274465	0.000283	99
Es	2.767875	1.550261	-0.000444	99
Es	-2.372143	-0.274503	0.000009	99
Es	2.031415	-0.596436	0.560226	99
Es	2.275630	1.086339	-0.000002	99
Es	2.172569	1.802176	-0.000873	99
Es	-2.948767	-0.053547	-0.255493	99
Es	2.486804	1.683259	0.001377	99
Es	-3.572871	-0.273641	-0.000006	99
Es	2.659827	2.171249	-0.000001	99
Es	2.024844	0.448639	-0.000575	99
Es	-0.258539	-0.609509	-0.132423	99
Es	-4.264375	-0.274010	-0.000068	99
Es	-0.269564	-0.254121	0.304199	99
Es	-0.259950	0.034126	-0.172080	99
Es	1.052550	-0.265922	0.000175	99
33
Properties=species:S:1:pos:R:3:Z:I:1 energy=-283.34771790049416 field_type=dipole dipole="0.000000 0.000000 0.000000" charge=0
C	-3.572652	-0.273631	0.000000	6
C	-2.372662	-0.274511	0.000000	6
C	-0.840412	-0.274481	0.000000	6
C	0.349748	-0.274481	0.000000	6
C	1.793748	-0.274481	0.000000	6
C	2.275768	1.086689	0.000000	6
N	2.659978	2.171679	0.000000	7
H	-4.637372	-0.270141	0.000000	1
H	2.171928	-0.808321	-0.878630	1
H	2.171928	-0.808321	0.878630	1
Es	2.859927	2.448882	-0.000260	99
Es	-2.949847	0.050536	0.143193	99
Es	2.486857	1.683215	0.001539	99
Es	2.032507	-0.596703	-0.559900	99
Es	2.275646	1.086354	0.000002	99
Es	2.175395	1.807481	0.000177	99
Es	-2.950530	-0.605307	0.135291	99
Es	-1.605278	-0.274880	-0.000225	99
Es	-0.270526	-0.277257	-0.284855	99
Es	0.350064	-0.274479	0.000004	99
Es	1.052297	-0.266353	-0.000164	99
Es	-4.264450	-0.273283	-0.000079	99
Es	2.031641	-0.595949	0.559479	99
Es	2.743604	1.566925	-0.001547	99
Es	-2.946892	-0.269856	-0.278191	99
Es	-2.372142	-0.274517	0.000002	99
Es	-0.840918	-0.274493	0.000006	99
Es	1.793668	-0.274316	0.000001	99
Es	-0.258905	0.052752	0.140084	99
Es	2.018867	0.455327	0.000438	99
Es	2.659829	2.171252	0.000000	99
Es	-3.572872	-0.273635	0.000002	99
Es	-0.258645	-0.604719	0.145004	99
33
Properties=species:S:1:pos:R:3:Z:I:1 energy=-283.34771790049416 field_type=dipole dipole="0.000000 0.000000 0.000000" charge=0
C	-3.572652	-0.273631	0.000000	6
C	-2.372662	-0.274511	0.000000	6
C	-0.840412	-0.274481	0.000000	6
C	0.349748	-0.274481	0.000000	6
C	1.793748	-0.274481	0.000000	6
C	2.275768	1.086689	0.000000	6
N	2.659978	2.171679	0.000000	7
H	-4.637372	-0.270141	0.000000	1
H	2.171928	-0.808321	-0.878630	1
H	2.171928	-0.808321	0.878630	1
Es	2.719414	1.600650	0.001324	99
Es	2.018043	0.456408	-0.000392	99
Es	2.486884	1.683178	-0.000409	99
Es	2.275680	1.086395	-0.000001	99
Es	-4.264474	-0.272890	-0.000087	99
Es	2.659828	2.171249	-0.000000	99
Es	1.052214	-0.266624	0.000060	99
Es	-2.948477	-0.460158	-0.267875	99
Es	-2.950213	0.083785	-0.008418	99
Es	-0.256728	-0.633758	-0.075979	99
Es	2.885003	2.408110	0.000120	99
Es	-0.274314	-0.274588	0.148317	99
Es	2.175308	1.812676	-0.000782	99
Es	2.031630	-0.595524	-0.559255	99
Es	-0.257038	0.079068	-0.072474	99
Es	-1.605275	-0.275092	0.000127	99
Es	0.350064	-0.274478	-0.000006	99
Es	2.032591	-0.596667	0.559496	99
Es	-0.840918	-0.274475	0.000002	99
Es	-3.572873	-0.273631	0.000001	99
Es	1.793667	-0.274315	-0.000002	99
Es	-2.948578	-0.447828	0.276230	99
Es	-2.372141	-0.274517	0.000003	99
33
Properties=species:S:1:pos:R:3:Z:I:1 energy=-283.34771790049416 field_type=dipole dipole="0.000000 0.000000 0.000000" charge=0
C	-3.572652	-0.273631	0.000000	6
C	-2.372662	-0.274511	0.000000	6
C	-0.840412	-0.274481	0.000000	6
C	0.349748	-0.274481	0.000000	6
C	1.793748	-0.274481	0.000000	6
C	2.275768	1.086689	0.000000	6
N	2.659978	2.171679	0.000000	7
H	-4.637372	-0.270141	0.000000	1
H	2.171928	-0.808321	-0.878630	1
H	2.171928	-0.808321	0.878630	1
Es	-2.950763	0.064480	-0.119555	99
Es	-0.257046	-0.630104	0.088340	99
Es	2.275664	1.086376	-0.000004	99
Es	2.030994	-0.594232	0.559599	99
Es	1.052198	-0.266692	-0.000152	99
Es	2.175455	1.816014	0.000174	99
Es	2.486881	1.683183	0.001669	99
Es	-2.372142	-0.274506	-0.000002	99
Es	-3.572872	-0.273631	0.000003	99
Es	2.016103	0.455727	0.001417	99
Es	-1.605280	-0.274905	-0.000014	99
Es	-2.945076	-0.265524	0.210541	99
Es	2.659830	2.171250	0.000001	99
Es	-4.264480	-0.272247	0.000273	99
Es	2.908600	2.352554	-0.000736	99
Es	-0.840919	-0.274484	0.000002	99
Es	-0.257600	0.069897	0.105854	99
Es	2.034867	-0.597444	-0.561004	99
Es	0.350064	-0.274476	-0.000003	99
Es	-0.273433	-0.269002	-0.193969	99
Es	1.793667	-0.274317	0.000002	99
Es	-2.951423	-0.623740	-0.091257	99
Es	2.696009	1.652801	-0.001180	99
33
Properties=species:S:1:pos:R:3:Z:I:1 energy=-283.34771790049416 field_type=dipole dipole="0.000000 0.000000 0.000000" charge=0
C	-3.572652	-0.273631	0.000000	6
C	-2.372662	-0.274511	0.000000	6
C	-0.840412	-0.274481	0.000000	6
C	0.349748	-0.274481	0.000000	6
C	1.793748	-0.274481	0.000000	6
C	2.275768	1.086689	0.000000	6
N	2.659978	2.171679	0.000000	7
H	-4.637372	-0.270141	0.000000	1
H	2.171928	-0.808321	-0.878630	1
H	2.171928	-0.808321	0.878630	1
Es	-2.951095	0.074797	-0.088825	99
Es	2.659828	2.171250	-0.000000	99
Es	-1.605279	-0.274880	0.000007	99
Es	2.015146	0.456776	0.001141	99
Es	1.793670	-0.274318	-0.000006	99
Es	2.031665	-0.594789	0.559693	99
Es	2.919994	2.316278	-0.000888	99
Es	2.275699	1.086424	0.000011	99
Es	0.350064	-0.274478	-0.000001	99
Es	-2.944357	-0.272590	0.169972	99
Es	2.176231	1.816257	0.001162	99
Es	2.486894	1.683156	0.000438	99
Es	1.052185	-0.266740	-0.000150	99
Es	2.684753	1.687648	-0.000842	99
Es	-0.256847	-0.632169	0.081562	99
Es	-4.264481	-0.272269	0.000255	99
Es	-3.572872	-0.273636	0.000000	99
Es	2.034205	-0.596727	-0.560790	99
Es	-0.840918	-0.274482	-0.000011	99
Es	-2.372142	-0.274512	0.000003	99
Es	-0.274004	-0.273045	-0.166324	99
Es	-0.257230	0.076026	0.084971	99
Es	-2.951812	-0.627002	-0.081378	99
33
Properties=species:S:1:pos:R:3:Z:I:1 energy=-283.34771790049416 field_type=dipole dipole="0.000000 0.000000 0.000000" charge=0
C	-3.572652	-0.273631	0.000000	6
C	-2.372662	-0.274511	0.000000	6
C	-0.840412	-0.274481	0.000000	6
C	0.349748	-0.274481	0.000000	6
C	1.793748	-0.274481	0.000000	6
C	2.275768	1.086689	0.000000	6
N	2.659978	2.171679	0.000000	7
H	-4.637372	-0.270141	0.000000	1
H	2.171928	-0.808321	-0.878630	1
H	2.171928	-0.808321	0.878630	1
Es	-2.372141	-0.274505	-0.000009	99
Es	1.793667	-0.274314	0.000001	99
Es	2.675845	1.721728	0.000389	99
Es	2.928804	2.282324	0.001309	99
Es	-0.840918	-0.274486	0.000003	99
Es	2.031434	-0.594302	-0.559894	99
Es	-2.951704	0.085369	0.030177	99
Es	2.486893	1.683160	-0.000380	99
Es	-1.605278	-0.274858	0.000115	99
Es	-2.952320	-0.636069	0.021620	99
Es	-0.256911	-0.631188	-0.085177	99
Es	2.177058	1.815776	-0.001259	99
Es	2.014733	0.457391	-0.000367	99
Es	-0.257420	0.073367	-0.094350	99
Es	-0.273751	-0.271360	0.179334	99
Es	0.350063	-0.274482	0.000001	99
Es	-2.943240	-0.274051	-0.051775	99
Es	2.659827	2.171247	0.000000	99
Es	2.034136	-0.597346	0.560203	99
Es	-3.572872	-0.273634	-0.000001	99
Es	-4.264480	-0.272494	-0.000104	99
Es	1.052195	-0.266695	0.000179	99
Es	2.275677	1.086398	-0.000014	99
33
Properties=species:S:1:pos:R:3:Z:I:1 energy=-283.34771790049416 field_type=dipole dipole="0.000000 0.000000 0.000000" charge=0
C	-3.572652	-0.273631	0.000000	6
C	-2.372662	-0.274511	0.000000	6
C	-0.840412	-0.274481	0.000000	6
C	0.349748	-0.274481	0.000000	6
C	1.793748	-0.274481	0.000000	6
C	2.275768	1.086689	0.000000	6
N	2.659978	2.171679	0.000000	7
H	-4.637372	-0.270141	0.000000	1
H	2.171928	-0.808321	-0.878630	1
H	2.171928	-0.808321	0.878630	1
Es	-0.256529	0.085342	0.027089	99
Es	2.486902	1.683149	-0.000011	99
Es	-4.264482	-0.272600	0.000191	99
Es	-0.840919	-0.274486	0.000000	99
Es	2.275676	1.086385	-0.000004	99
Es	0.350064	-0.274475	-0.000005	99
Es	-2.372142	-0.274513	-0.000001	99
Es	2.671517	1.741288	0.000128	99
Es	2.178452	1.814506	0.000110	99
Es	1.793667	-0.274316	-0.000002	99
Es	2.031919	-0.595741	0.558959	99
Es	-0.275323	-0.273306	-0.050754	99
Es	2.014203	0.459818	0.000867	99
Es	-3.572872	-0.273635	-0.000007	99
Es	2.933263	2.261846	-0.000446	99
Es	-2.951307	0.079372	-0.070264	99
Es	-0.256227	-0.641285	0.023682	99
Es	-2.943900	-0.273642	0.136070	99
Es	-2.952055	-0.630391	-0.065937	99
Es	1.052177	-0.266723	0.000021	99
Es	2.032664	-0.595990	-0.559729	99
Es	2.659827	2.171241	-0.000005	99
Es	-1.605279	-0.274869	0.000048	99
33
Properties=species:S:1:pos:R:3:Z:I:1 energy=-283.34771790049416 field_type=dipole dipole="0.000000 0.000000 0.000000" charge=0
C	-3.572652	-0.273631	0.000000	6
C	-2.372662	-0.274511	0.000000	6
C	-0.840412	-0.274481	0.000000	6
C	0.349748	-0.274481	0.000000	6
C	1.793748	-0.274481	0.000000	6
C	2.275768	1.086689	0.000000	6
N	2.659978	2.171679	0.000000	7
H	-4.637372	-0.270141	0.000000	1
H	2.171928	-0.808321	-0.878630	1
H	2.171928	-0.808321	0.878630	1
Es	-2.372142	-0.274508	-0.000001	99
Es	2.659827	2.171243	0.000000	99
Es	2.034054	-0.598699	0.558420	99
Es	1.052167	-0.266712	0.000079	99
Es	-0.840918	-0.274485	0.000003	99
Es	-2.952262	-0.633289	0.048511	99
Es	1.793671	-0.274322	0.000004	99
Es	-0.275401	-0.273941	0.030638	99
Es	-2.943520	-0.274495	-0.097294	99
Es	-1.605279	-0.274855	-0.000103	99
Es	-0.256152	-0.641418	-0.020488	99
Es	-3.572872	-0.273634	-0.000001	99
Es	2.014387	0.461201	0.000128	99
Es	-0.256526	0.086103	-0.010114	99
Es	-2.951481	0.083080	0.048945	99
Es	2.029585	-0.593073	-0.558361	99
Es	2.275644	1.086347	-0.000001	99
Es	0.350064	-0.274477	0.000000	99
Es	2.937171	2.242095	-0.000760	99
Es	2.179210	1.813598	0.001122	99
Es	2.667645	1.760834	0.000544	99
Es	2.486909	1.683131	-0.001209	99
Es	-4.264481	-0.272749	-0.000062	99
33
Properties=species:S:1:pos:R:3:Z:I:1 energy=-283.34771790049416 field_type=dipole dipole="0.000000 0.000000 0.000000" charge=0
C	-3.572652	-0.273631	0.000000	6
C	-2.372662	-0.274511	0.000000	6
C	-0.840412	-0.274481	0.000000	6
C	0.349748	-0.274481	0.000000	6
C	1.793748	-0.274481	0.000000	6
C	2.275768	1.086689	0.000000	6
N	2.659978	2.171679	0.000000	7
H	-4.637372	-0.270141	0.000000	1
H	2.171928	-0.808321	-0.878630	1
H	2.171928	-0.808321	0.878630	1
Es	2.275649	1.086357	0.000006	99
Es	-3.572872	-0.273634	-0.000000	99
Es	-2.943135	-0.274691	0.004599	99
Es	2.031885	-0.595513	0.558731	99
Es	-0.840918	-0.274483	-0.000003	99
Es	2.659829	2.171251	-0.000000	99
Es	-0.256504	0.086067	-0.011215	99
Es	-4.264479	-0.272971	-0.000014	99
Es	1.793667	-0.274315	0.000005	99
Es	2.180355	1.811752	-0.000625	99
Es	-2.951702	0.086492	-0.000654	99
Es	1.052160	-0.266764	0.000029	99
Es	-2.952425	-0.636489	-0.003933	99
Es	-0.256145	-0.641882	-0.007878	99
Es	2.664944	1.776551	0.000089	99
Es	2.486913	1.683124	0.000591	99
Es	2.939890	2.226597	0.000066	99
Es	0.350064	-0.274477	0.000000	99
Es	-0.275433	-0.273414	0.019084	99
Es	-2.372142	-0.274510	0.000000	99
Es	2.013047	0.462783	-0.000503	99
Es	2.031931	-0.596018	-0.558377	99
Es	-1.605279	-0.274838	0.000002	99
33
Properties=species:S:1:pos:R:3:Z:I:1 energy=-283.34771790049416 field_type=dipole dipole="0.000000 0.000000 0.000000" charge=0
C	-3.572652	-0.273631	0.000000	6
C	-2.372662	-0.274511	0.000000	6
C	-0.840412	-0.274481	0.000000	6
C	0.349748	-0.274481	0.000000	6
C	1.793748	-0.274481	0.000000	6
C	2.275768	1.086689	0.000000	6
N	2.659978	2.171679	0.000000	7
H	-4.637372	-0.270141	0.000000	1
H	2.171928	-0.808321	-0.878630	1
H	2.171928	-0.808321	0.878630	1
Es	2.017921	0.462964	-0.000342	99
Es	-0.256164	-0.641970	-0.000067	99
Es	2.031120	-0.597705	0.555201	99
Es	-4.264482	-0.272823	0.000082	99
Es	-0.840919	-0.274486	0.000001	99
Es	-2.372141	-0.274507	-0.000004	99
Es	2.662653	1.790690	-0.000651	99
Es	-2.951766	0.086486	0.003525	99
Es	1.052151	-0.267178	0.000180	99
Es	2.659823	2.171220	0.000001	99
Es	-0.256468	0.086192	0.004557	99
Es	2.179988	1.812588	0.001530	99
Es	-2.952362	-0.636488	0.002756	99
Es	2.942225	2.212021	-0.000600	99
Es	2.275657	1.086349	0.000003	99
Es	-2.943136	-0.274663	-0.006302	99
Es	1.793668	-0.274315	-0.000009	99
Es	-1.605278	-0.274875	0.000010	99
Es	0.350064	-0.274477	0.000000	99
Es	2.486929	1.683090	-0.000127	99
Es	2.028133	-0.594036	-0.555251	99
Es	-3.572872	-0.273634	0.000002	99
Es	-0.275449	-0.273469	-0.004494	99
33
Properties=species:S:1:pos:R:3:Z:I:1 energy=-283.34771790049416 field_type=dipole dipole="0.000000 0.000000 0.000000" charge=0
C	-3.572652	-0.273631	0.000000	6
C	-2.372662	-0.274511	0.000000	6
C	-0.840412	-0.274481	0.000000	6
C	0.349748	-0.274481	0.000000	6
C	1.793748	-0.274481	0.000000	6
C	2.275768	1.086689	0.000000	6
N	2.659978	2.171679	0.000000	7
H	-4.637372	-0.270141	0.000000	1
H	2.171928	-0.808321	-0.878630	1
H	2.171928	-0.808321	0.878630	1
Es	2.943471	2.203476	0.003885	99
Es	2.018130	0.464023	-0.000683	99
Es	-0.256537	0.085939	-0.014429	99
Es	0.350064	-0.274477	0.000002	99
Es	2.486918	1.683082	0.001072	99
Es	-0.256105	-0.641901	0.003808	99
Es	2.659828	2.171249	0.000000	99
Es	2.275671	1.086377	0.000001	99
Es	-2.943135	-0.274922	-0.007796	99
Es	-3.572872	-0.273635	-0.000002	99
Es	-1.605280	-0.274852	0.000008	99
Es	1.052146	-0.267192	-0.000480	99
Es	-2.951666	0.086380	-0.007802	99
Es	1.793668	-0.274318	-0.000000	99
Es	2.661423	1.798827	0.001336	99
Es	-0.275438	-0.273239	0.010656	99
Es	-2.952463	-0.636137	0.015703	99
Es	2.039297	-0.609535	-0.548522	99
Es	-0.840919	-0.274487	-0.000003	99
Es	-4.264475	-0.272914	-0.000811	99
Es	2.180676	1.811789	-0.006242	99
Es	-2.372142	-0.274510	0.000003	99
Es	2.019036	-0.582047	0.550296	99
33
Properties=species:S:1:pos:R:3:Z:I:1 energy=-283.34771790049416 field_type=dipole dipole="0.000000 0.000000 0.000000" charge=0
C	-3.572652	-0.273631	0.000000	6
C	-2.372662	-0.274511	0.000000	6
C	-0.840412	-0.274481	0.000000	6
C	0.349748	-0.274481	0.000000	6
C	1.793748	-0.274481	0.000000	6
C	2.275768	1.086689	0.000000	6
N	2.659978	2.171679	0.000000	7
H	-4.637372	-0.270141	0.000000	1
H	2.171928	-0.808321	-0.878630	1
H	2.171928	-0.808321	0.878630	1
Es	2.659828	2.171117	-0.000009	99
Es	2.275694	1.086402	-0.000010	99
Es	1.793667	-0.274315	0.000002	99
Es	-1.605279	-0.274859	-0.000043	99
Es	2.015547	-0.577347	0.546228	99
Es	-0.256175	-0.641442	0.018034	99
Es	-4.264473	-0.272969	-0.000974	99
Es	-2.952395	-0.636313	0.009654	99
Es	-2.943132	-0.274527	0.004358	99
Es	0.350064	-0.274476	0.000006	99
Es	2.660387	1.806190	0.002888	99
Es	-0.275430	-0.273801	-0.007352	99
Es	2.018138	0.465086	-0.001677	99
Es	1.052144	-0.267194	-0.000657	99
Es	-2.372142	-0.274508	0.000012	99
Es	-3.572872	-0.273634	-0.000002	99
Es	-0.256477	0.086021	-0.010547	99
Es	-2.951734	0.086185	-0.013958	99
Es	2.042015	-0.614070	-0.543207	99
Es	-0.840919	-0.274490	0.000000	99
Es	2.486917	1.683081	0.001129	99
Es	2.181437	1.810559	-0.008022	99
Es	2.944487	2.196278	0.004147	99
33
Properties=species:S:1:pos:R:3:Z:I:1 energy=-283.34771790049416 field_type=dipole dipole="0.000000 0.000000 0.000000" charge=0
C	-3.572652	-0.273631	0.000000	6
C	-2.372662	-0.274511	0.000000	6
C	-0.840412	-0.274481	0.000000	6
C	0.349748	-0.274481	0.000000	6
C	1.793748	-0.274481	0.000000	6
C	2.275768	1.086689	0.000000	6
N	2.659978	2.171679	0.000000	7
H	-4.637372	-0.270141	0.000000	1
H	2.171928	-0.808321	-0.878630	1
H	2.171928	-0.808321	0.878630	1
Es	-0.256173	-0.641480	0.017011	99
Es	2.486897	1.683072	0.002366	99
Es	-2.951656	0.085688	-0.022690	99
Es	2.945298	2.190158	0.005769	99
Es	-0.840919	-0.274493	-0.000003	99
Es	-2.952477	-0.636034	0.016048	99
Es	2.659620	1.812173	0.001191	99
Es	-4.264467	-0.273012	-0.001271	99
Es	-2.372141	-0.274511	0.000005	99
Es	-0.275432	-0.273762	-0.006698	99
Es	0.350064	-0.274475	-0.000000	99
Es	-1.605280	-0.274898	0.000037	99
Es	2.275665	1.086375	-0.000005	99
Es	2.182146	1.809364	-0.009042	99
Es	-2.943128	-0.274309	0.006716	99
Es	-0.256476	0.086015	-0.010212	99
Es	2.012432	-0.573649	0.541599	99
Es	2.017736	0.466357	-0.001196	99
Es	-3.572872	-0.273634	-0.000004	99
Es	1.793667	-0.274313	0.000002	99
Es	1.052149	-0.267209	-0.000773	99
Es	2.659830	2.171235	0.000001	99
Es	2.044815	-0.617682	-0.538851	99
33
Properties=species:S:1:pos:R:3:Z:I:1 energy=-283.34771790049416 field_type=dipole dipole="0.000000 0.000000 0.000000" charge=0
C	-3.572652	-0.273631	0.000000	6
C	-2.372662	-0.274511	0.000000	6
C	-0.840412	-0.274481	0.000000	6
C	0.349748	-0.274481	0.000000	6
C	1.793748	-0.274481	0.000000	6
C	2.275768	1.086689	0.000000	6
N	2.659978	2.171679	0.000000	7
H	-4.637372	-0.270141	0.000000	1
H	2.171928	-0.808321	-0.878630	1
H	2.171928	-0.808321	0.878630	1
Es	2.182775	1.808350	0.010331	99
Es	2.046890	-0.620628	0.534447	99
Es	-2.952444	-0.635946	-0.016688	99
Es	2.275708	1.086422	0.000002	99
Es	2.659830	2.171234	-0.000006	99
Es	2.946110	2.183862	-0.006430	99
Es	0.350064	-0.274476	-0.000004	99
Es	1.793670	-0.274317	-0.000016	99
Es	-2.951689	0.085707	0.021711	99
Es	-3.572872	-0.273636	0.000003	99
Es	1.052154	-0.267289	0.000850	99
Es	-0.256151	-0.641029	-0.024025	99
Es	2.658763	1.818491	-0.002188	99
Es	-0.275414	-0.274064	0.010593	99
Es	2.486895	1.683064	-0.002170	99
Es	-0.256518	0.085910	0.013289	99
Es	-0.840919	-0.274490	0.000008	99
Es	-2.372142	-0.274509	-0.000005	99
Es	-4.264462	-0.273161	0.001414	99
Es	-2.943128	-0.274399	-0.005092	99
Es	-1.605280	-0.274852	-0.000004	99
Es	2.017441	0.467301	0.001303	99
Es	2.010015	-0.570568	-0.537324	99
