39
Properties=species:S:1:pos:R:3:Z:I:1 energy=-285.7853144220794 field_type=dipole dipole="0.000000 0.000000 0.000000" charge=0
C	-1.544652	-0.600120	0.293119	6
C	-0.093882	-0.545270	-0.122621	6
C	0.483758	-1.659350	-0.610921	6
C	0.625728	0.734690	0.004179	6
C	0.155278	1.775390	0.717399	6
C	1.878819	0.914700	-0.676151	6
N	2.892138	1.072050	-1.221901	7
H	-2.127412	0.168150	-0.227271	1
H	-1.646342	-0.454500	1.373829	1
H	-2.005261	-1.565390	0.053449	1
H	-0.070312	-2.590070	-0.700991	1
H	1.521139	-1.702830	-0.931091	1
H	-0.778412	1.743140	1.266959	1
H	0.709409	2.709410	0.782009	1
Es	3.212186	1.121908	-1.394552	99
Es	0.568620	1.111093	0.587756	99
Es	-1.927936	-0.075489	-0.056874	99
Es	0.155258	1.775433	0.717431	99
Es	0.296423	-1.157112	-0.062345	99
Es	0.114555	-0.996400	-0.663229	99
Es	0.264247	1.332107	0.073419	99
Es	2.321815	1.268630	-1.080244	99
Es	2.385814	0.737618	-1.128968	99
Es	-1.602991	-0.494189	1.021506	99
Es	0.107840	-2.287968	-0.670631	99
Es	1.180701	-1.685997	-0.825581	99
Es	1.286327	0.813529	-0.357139	99
Es	-1.844125	-1.255668	0.128798	99
Es	0.524516	2.399395	0.761547	99
Es	-1.544591	-0.600108	0.293110	99
Es	0.625897	0.734617	0.004054	99
Es	2.891743	1.071989	-1.221688	99
Es	0.483791	-1.659424	-0.610944	99
Es	1.878504	0.914650	-0.675982	99
Es	-0.811319	-0.557669	0.089634	99
Es	-0.093922	-0.545105	-0.122562	99
Es	0.283961	0.107306	-0.064495	99
Es	-0.470830	1.749699	1.082531	99
Es	2.570330	0.998150	-0.699836	99
39
Properties=species:S:1:pos:R:3:Z:I:1 energy=-285.7853144220794 field_type=dipole dipole="0.000000 0.000000 0.000000" charge=0
C	-1.544652	-0.600120	0.293119	6
C	-0.093882	-0.545270	-0.122621	6
C	0.483758	-1.659350	-0.610921	6
C	0.625728	0.734690	0.004179	6
C	0.155278	1.775390	0.717399	6
C	1.878819	0.914700	-0.676151	6
N	2.892138	1.072050	-1.221901	7
H	-2.127412	0.168150	-0.227271	1
H	-1.646342	-0.454500	1.373829	1
H	-2.005261	-1.565390	0.053449	1
H	-0.070312	-2.590070	-0.700991	1
H	1.521139	-1.702830	-0.931091	1
H	-0.778412	1.743140	1.266959	1
H	0.709409	2.709410	0.782009	1
Es	0.296039	-1.156148	-0.063821	99
Es	-1.603973	-0.492614	1.020800	99
Es	0.285350	0.106329	-0.061742	99
Es	1.288003	0.820850	-0.355059	99
Es	2.497800	1.247912	-0.775773	99
Es	-1.544592	-0.600107	0.293112	99
Es	-0.093917	-0.545113	-0.122546	99
Es	2.301349	1.071053	-1.178276	99
Es	2.891742	1.071988	-1.221687	99
Es	2.479765	0.692765	-0.948182	99
Es	0.155260	1.775432	0.717439	99
Es	0.114445	-0.997953	-0.661352	99
Es	0.483793	-1.659420	-0.610947	99
Es	-0.810076	-0.557193	0.091173	99
Es	0.568179	1.111617	0.585392	99
Es	1.878500	0.914666	-0.675984	99
Es	-1.846040	-1.256048	0.128515	99
Es	-1.926428	-0.077591	-0.054789	99
Es	0.107048	-2.286427	-0.671627	99
Es	0.524081	2.398520	0.759686	99
Es	1.181500	-1.685463	-0.828736	99
Es	3.211340	1.106503	-1.402976	99
Es	0.264639	1.332337	0.075502	99
Es	0.625888	0.734623	0.004043	99
Es	-0.472884	1.750476	1.082551	99
39
Properties=species:S:1:pos:R:3:Z:I:1 energy=-285.7853144220794 field_type=dipole dipole="0.000000 0.000000 0.000000" charge=0
C	-1.544652	-0.600120	0.293119	6
C	-0.093882	-0.545270	-0.122621	6
C	0.483758	-1.659350	-0.610921	6
C	0.625728	0.734690	0.004179	6
C	0.155278	1.775390	0.717399	6
C	1.878819	0.914700	-0.676151	6
N	2.892138	1.072050	-1.221901	7
H	-2.127412	0.168150	-0.227271	1
H	-1.646342	-0.454500	1.373829	1
H	-2.005261	-1.565390	0.053449	1
H	-0.070312	-2.590070	-0.700991	1
H	1.521139	-1.702830	-0.931091	1
H	-0.778412	1.743140	1.266959	1
H	0.709409	2.709410	0.782009	1
Es	-1.846577	-1.255726	0.128553	99
Es	0.155255	1.775436	0.717431	99
Es	3.211288	1.094245	-1.404016	99
Es	1.181895	-1.686026	-0.830252	99
Es	0.114458	-0.998376	-0.661264	99
Es	2.891741	1.071988	-1.221687	99
Es	-1.544591	-0.600108	0.293111	99
Es	-1.605736	-0.490293	1.021450	99
Es	-0.093921	-0.545111	-0.122560	99
Es	-0.473741	1.751706	1.082781	99
Es	1.289445	0.824885	-0.353984	99
Es	-0.809636	-0.556726	0.091764	99
Es	0.106842	-2.284742	-0.672090	99
Es	-1.924648	-0.080284	-0.054965	99
Es	2.451616	0.690751	-0.993341	99
Es	0.568839	1.111212	0.585155	99
Es	0.483793	-1.659421	-0.610947	99
Es	0.523578	2.397224	0.758611	99
Es	2.368425	1.030193	-1.074842	99
Es	0.295781	-1.156098	-0.063611	99
Es	0.264140	1.332919	0.075975	99
Es	1.878513	0.914658	-0.675966	99
Es	0.625907	0.734610	0.004067	99
Es	0.286126	0.105916	-0.060546	99
Es	2.458018	1.298161	-0.834110	99
39
Properties=species:S:1:pos:R:3:Z:I:1 energy=-285.7853144220794 field_type=dipole dipole="0.000000 0.000000 0.000000" charge=0
C	-1.544652	-0.600120	0.293119	6
C	-0.093882	-0.545270	-0.122621	6
C	0.483758	-1.659350	-0.610921	6
C	0.625728	0.734690	0.004179	6
C	0.155278	1.775390	0.717399	6
C	1.878819	0.914700	-0.676151	6
N	2.892138	1.072050	-1.221901	7
H	-2.127412	0.168150	-0.227271	1
H	-1.646342	-0.454500	1.373829	1
H	-2.005261	-1.565390	0.053449	1
H	-0.070312	-2.590070	-0.700991	1
H	1.521139	-1.702830	-0.931091	1
H	-0.778412	1.743140	1.266959	1
H	0.709409	2.709410	0.782009	1
Es	-0.809329	-0.556087	0.092003	99
Es	-1.607656	-0.487259	1.021760	99
Es	2.420431	0.703829	-1.045838	99
Es	1.878496	0.914670	-0.675972	99
Es	0.114441	-0.999062	-0.660751	99
Es	0.295614	-1.155679	-0.063953	99
Es	-0.474306	1.752754	1.083016	99
Es	-1.922317	-0.083594	-0.054699	99
Es	1.290989	0.827877	-0.353106	99
Es	0.155254	1.775436	0.717430	99
Es	-1.544595	-0.600108	0.293112	99
Es	2.891744	1.071989	-1.221688	99
Es	0.263604	1.333591	0.077491	99
Es	0.569510	1.110849	0.583486	99
Es	-0.093917	-0.545111	-0.122549	99
Es	0.625898	0.734618	0.004053	99
Es	0.483790	-1.659418	-0.610956	99
Es	2.428854	1.003363	-0.972872	99
Es	0.286686	0.105460	-0.059457	99
Es	2.428955	1.317955	-0.883646	99
Es	1.182075	-1.686519	-0.831434	99
Es	0.523372	2.396287	0.757547	99
Es	0.106607	-2.283619	-0.672015	99
Es	3.209917	1.084517	-1.404804	99
Es	-1.847304	-1.255745	0.128559	99
39
Properties=species:S:1:pos:R:3:Z:I:1 energy=-285.7853144220794 field_type=dipole dipole="0.000000 0.000000 0.000000" charge=0
C	-1.544652	-0.600120	0.293119	6
C	-0.093882	-0.545270	-0.122621	6
C	0.483758	-1.659350	-0.610921	6
C	0.625728	0.734690	0.004179	6
C	0.155278	1.775390	0.717399	6
C	1.878819	0.914700	-0.676151	6
N	2.892138	1.072050	-1.221901	7
H	-2.127412	0.168150	-0.227271	1
H	-1.646342	-0.454500	1.373829	1
H	-2.005261	-1.565390	0.053449	1
H	-0.070312	-2.590070	-0.700991	1
H	1.521139	-1.702830	-0.931091	1
H	-0.778412	1.743140	1.266959	1
H	0.709409	2.709410	0.782009	1
Es	1.878502	0.914679	-0.675969	99
Es	1.182160	-1.687045	-0.832077	99
Es	2.421293	0.707101	-1.042792	99
Es	2.891737	1.071987	-1.221690	99
Es	2.430401	1.002552	-0.970242	99
Es	-0.809168	-0.555420	0.092494	99
Es	-0.474815	1.753548	1.082886	99
Es	0.570272	1.109109	0.575433	99
Es	2.427565	1.319975	-0.889226	99
Es	0.295672	-1.155074	-0.064343	99
Es	0.483792	-1.659420	-0.610952	99
Es	0.287123	0.105091	-0.058730	99
Es	-1.915646	-0.092889	-0.054072	99
Es	0.523144	2.395803	0.756444	99
Es	1.292374	0.830436	-0.352345	99
Es	0.262893	1.335492	0.085519	99
Es	0.625901	0.734614	0.004063	99
Es	-0.093911	-0.545112	-0.122549	99
Es	0.155253	1.775437	0.717429	99
Es	-1.544592	-0.600107	0.293112	99
Es	0.114403	-0.999730	-0.660322	99
Es	-1.614044	-0.477912	1.021040	99
Es	-1.847683	-1.256234	0.128666	99
Es	3.207798	1.077063	-1.405382	99
Es	0.106389	-2.282952	-0.671681	99
39
Properties=species:S:1:pos:R:3:Z:I:1 energy=-285.7853144220794 field_type=dipole dipole="0.000000 0.000000 0.000000" charge=0
C	-1.544652	-0.600120	0.293119	6
C	-0.093882	-0.545270	-0.122621	6
C	0.483758	-1.659350	-0.610921	6
C	0.625728	0.734690	0.004179	6
C	0.155278	1.775390	0.717399	6
C	1.878819	0.914700	-0.676151	6
N	2.892138	1.072050	-1.221901	7
H	-2.127412	0.168150	-0.227271	1
H	-1.646342	-0.454500	1.373829	1
H	-2.005261	-1.565390	0.053449	1
H	-0.070312	-2.590070	-0.700991	1
H	1.521139	-1.702830	-0.931091	1
H	-0.778412	1.743140	1.266959	1
H	0.709409	2.709410	0.782009	1
Es	-0.093918	-0.545112	-0.122553	99
Es	0.264318	1.335733	0.096766	99
Es	2.423309	0.709581	-1.038537	99
Es	2.891742	1.071988	-1.221687	99
Es	-1.544592	-0.600107	0.293112	99
Es	0.483792	-1.659421	-0.610950	99
Es	0.287367	0.104900	-0.058411	99
Es	-1.907003	-0.105435	-0.049643	99
Es	0.114124	-0.999844	-0.660685	99
Es	0.568710	1.109092	0.563925	99
Es	3.205667	1.071194	-1.406210	99
Es	1.293428	0.832292	-0.351614	99
Es	1.878505	0.914683	-0.675969	99
Es	-1.847255	-1.256392	0.129053	99
Es	2.424051	1.322058	-0.897262	99
Es	-0.809150	-0.554842	0.092367	99
Es	0.106519	-2.282414	-0.671218	99
Es	2.432922	1.001537	-0.966048	99
Es	1.182197	-1.687781	-0.832152	99
Es	0.522855	2.395429	0.755715	99
Es	0.296045	-1.155047	-0.063858	99
Es	-1.622976	-0.465365	1.016327	99
Es	0.625899	0.734616	0.004060	99
Es	0.155252	1.775437	0.717427	99
Es	-0.474996	1.754213	1.082761	99
39
Properties=species:S:1:pos:R:3:Z:I:1 energy=-285.7853144220794 field_type=dipole dipole="0.000000 0.000000 0.000000" charge=0
C	-1.544652	-0.600120	0.293119	6
C	-0.093882	-0.545270	-0.122621	6
C	0.483758	-1.659350	-0.610921	6
C	0.625728	0.734690	0.004179	6
C	0.155278	1.775390	0.717399	6
C	1.878819	0.914700	-0.676151	6
N	2.892138	1.072050	-1.221901	7
H	-2.127412	0.168150	-0.227271	1
H	-1.646342	-0.454500	1.373829	1
H	-2.005261	-1.565390	0.053449	1
H	-0.070312	-2.590070	-0.700991	1
H	1.521139	-1.702830	-0.931091	1
H	-0.778412	1.743140	1.266959	1
H	0.709409	2.709410	0.782009	1
Es	-1.630214	-0.455336	1.009987	99
Es	0.155252	1.775437	0.717428	99
Es	1.182180	-1.688537	-0.832165	99
Es	-0.809320	-0.554407	0.092672	99
Es	-0.475029	1.754854	1.082833	99
Es	3.202883	1.065936	-1.407648	99
Es	2.423277	1.322915	-0.900686	99
Es	0.266975	1.334741	0.107383	99
Es	-1.899918	-0.115178	-0.043777	99
Es	0.625903	0.734615	0.004065	99
Es	0.113820	-1.000171	-0.660994	99
Es	0.106755	-2.281906	-0.670690	99
Es	1.878505	0.914683	-0.675966	99
Es	0.522514	2.394902	0.755211	99
Es	-1.846834	-1.256584	0.129199	99
Es	2.891743	1.071989	-1.221688	99
Es	0.566099	1.110364	0.552971	99
Es	0.296367	-1.154758	-0.063512	99
Es	0.287544	0.104556	-0.058269	99
Es	0.483792	-1.659420	-0.610951	99
Es	-1.544594	-0.600108	0.293112	99
Es	2.427434	0.711169	-1.030952	99
Es	2.431284	1.002255	-0.969179	99
Es	1.294314	0.834095	-0.351109	99
Es	-0.093922	-0.545111	-0.122560	99
39
Properties=species:S:1:pos:R:3:Z:I:1 energy=-285.7853144220794 field_type=dipole dipole="0.000000 0.000000 0.000000" charge=0
C	-1.544652	-0.600120	0.293119	6
C	-0.093882	-0.545270	-0.122621	6
C	0.483758	-1.659350	-0.610921	6
C	0.625728	0.734690	0.004179	6
C	0.155278	1.775390	0.717399	6
C	1.878819	0.914700	-0.676151	6
N	2.892138	1.072050	-1.221901	7
H	-2.127412	0.168150	-0.227271	1
H	-1.646342	-0.454500	1.373829	1
H	-2.005261	-1.565390	0.053449	1
H	-0.070312	-2.590070	-0.700991	1
H	1.521139	-1.702830	-0.931091	1
H	-0.778412	1.743140	1.266959	1
H	0.709409	2.709410	0.782009	1
Es	0.106941	-2.281462	-0.670264	99
Es	-0.809474	-0.553860	0.092748	99
Es	-0.475058	1.755427	1.082810	99
Es	-1.544593	-0.600106	0.293114	99
Es	2.433166	1.001593	-0.966053	99
Es	0.522231	2.394505	0.754708	99
Es	1.295111	0.835377	-0.350652	99
Es	0.625904	0.734614	0.004067	99
Es	3.200453	1.061454	-1.409013	99
Es	-1.846436	-1.256836	0.129370	99
Es	0.296693	-1.155546	-0.062892	99
Es	0.155252	1.775437	0.717427	99
Es	0.483792	-1.659420	-0.610951	99
Es	1.182182	-1.689110	-0.832248	99
Es	2.422089	1.323368	-0.903792	99
Es	0.113406	-0.999468	-0.661634	99
Es	0.287769	0.104317	-0.057963	99
Es	1.878509	0.914688	-0.675968	99
Es	0.562648	1.112293	0.541678	99
Es	2.428197	0.714254	-1.029962	99
Es	-0.093918	-0.545111	-0.122557	99
Es	0.270458	1.333002	0.118474	99
Es	2.891743	1.071985	-1.221689	99
Es	-1.634415	-0.449386	1.005394	99
Es	-1.895836	-0.121016	-0.039435	99
39
Properties=species:S:1:pos:R:3:Z:I:1 energy=-285.7853144220794 field_type=dipole dipole="0.000000 0.000000 0.000000" charge=0
C	-1.544652	-0.600120	0.293119	6
C	-0.093882	-0.545270	-0.122621	6
C	0.483758	-1.659350	-0.610921	6
C	0.625728	0.734690	0.004179	6
C	0.155278	1.775390	0.717399	6
C	1.878819	0.914700	-0.676151	6
N	2.892138	1.072050	-1.221901	7
H	-2.127412	0.168150	-0.227271	1
H	-1.646342	-0.454500	1.373829	1
H	-2.005261	-1.565390	0.053449	1
H	-0.070312	-2.590070	-0.700991	1
H	1.521139	-1.702830	-0.931091	1
H	-0.778412	1.743140	1.266959	1
H	0.709409	2.709410	0.782009	1
Es	-1.846069	-1.257050	0.129525	99
Es	0.287874	0.104186	-0.057971	99
Es	1.182174	-1.689774	-0.832258	99
Es	2.891740	1.071988	-1.221687	99
Es	0.107116	-2.280912	-0.669978	99
Es	0.296919	-1.156007	-0.062409	99
Es	-1.892454	-0.125678	-0.035683	99
Es	-1.637826	-0.444443	1.001271	99
Es	-0.809668	-0.553561	0.093013	99
Es	-0.474969	1.755955	1.083000	99
Es	0.625902	0.734617	0.004063	99
Es	2.430845	1.002465	-0.970437	99
Es	0.113100	-0.999063	-0.662132	99
Es	0.155256	1.775435	0.717433	99
Es	3.198184	1.057740	-1.410005	99
Es	0.522012	2.394072	0.754293	99
Es	1.295770	0.836611	-0.350401	99
Es	0.274374	1.330743	0.129564	99
Es	-1.544592	-0.600107	0.293112	99
Es	-0.093914	-0.545114	-0.122547	99
Es	0.483789	-1.659419	-0.610956	99
Es	2.432073	0.715486	-1.023505	99
Es	2.421924	1.323531	-0.905163	99
Es	1.878524	0.914661	-0.675965	99
Es	0.558725	1.114632	0.530539	99
39
Properties=species:S:1:pos:R:3:Z:I:1 energy=-285.7853144220794 field_type=dipole dipole="0.000000 0.000000 0.000000" charge=0
C	-1.544652	-0.600120	0.293119	6
C	-0.093882	-0.545270	-0.122621	6
C	0.483758	-1.659350	-0.610921	6
C	0.625728	0.734690	0.004179	6
C	0.155278	1.775390	0.717399	6
C	1.878819	0.914700	-0.676151	6
N	2.892138	1.072050	-1.221901	7
H	-2.127412	0.168150	-0.227271	1
H	-1.646342	-0.454500	1.373829	1
H	-2.005261	-1.565390	0.053449	1
H	-0.070312	-2.590070	-0.700991	1
H	1.521139	-1.702830	-0.931091	1
H	-0.778412	1.743140	1.266959	1
H	0.709409	2.709410	0.782009	1
Es	0.625905	0.734613	0.004069	99
Es	2.421319	1.323546	-0.906791	99
Es	3.196389	1.053796	-1.410452	99
Es	0.521885	2.393860	0.754156	99
Es	1.878510	0.914688	-0.675964	99
Es	1.182124	-1.690104	-0.832232	99
Es	1.296356	0.837556	-0.350012	99
Es	-1.891439	-0.127146	-0.034476	99
Es	2.432474	0.718726	-1.023937	99
Es	-1.638912	-0.442917	0.999935	99
Es	-0.474976	1.756229	1.082957	99
Es	0.288014	0.104029	-0.057797	99
Es	0.483793	-1.659421	-0.610948	99
Es	0.553441	1.117775	0.517186	99
Es	-0.093917	-0.545112	-0.122557	99
Es	0.107276	-2.280693	-0.669759	99
Es	-0.809672	-0.553355	0.092907	99
Es	-1.544592	-0.600107	0.293112	99
Es	0.279629	1.327763	0.142653	99
Es	0.112933	-0.998598	-0.662365	99
Es	2.891740	1.071987	-1.221687	99
Es	2.432091	1.002032	-0.968260	99
Es	0.155250	1.775438	0.717425	99
Es	0.297074	-1.156557	-0.062081	99
Es	-1.845884	-1.257033	0.129635	99
39
Properties=species:S:1:pos:R:3:Z:I:1 energy=-285.7853144220794 field_type=dipole dipole="0.000000 0.000000 0.000000" charge=0
C	-1.544652	-0.600120	0.293119	6
C	-0.093882	-0.545270	-0.122621	6
C	0.483758	-1.659350	-0.610921	6
C	0.625728	0.734690	0.004179	6
C	0.155278	1.775390	0.717399	6
C	1.878819	0.914700	-0.676151	6
N	2.892138	1.072050	-1.221901	7
H	-2.127412	0.168150	-0.227271	1
H	-1.646342	-0.454500	1.373829	1
H	-2.005261	-1.565390	0.053449	1
H	-0.070312	-2.590070	-0.700991	1
H	1.521139	-1.702830	-0.931091	1
H	-0.778412	1.743140	1.266959	1
H	0.709409	2.709410	0.782009	1
Es	-0.810093	-0.552658	0.093345	99
Es	2.433501	1.001761	-0.966317	99
Es	-1.643306	-0.436940	0.994197	99
Es	0.297250	-1.154894	-0.062250	99
Es	0.288036	0.103819	-0.057733	99
Es	1.297036	0.838220	-0.349610	99
Es	1.182073	-1.690761	-0.832328	99
Es	2.434495	0.719579	-1.020550	99
Es	-1.544597	-0.600106	0.293113	99
Es	0.155250	1.775438	0.717424	99
Es	-1.845297	-1.257545	0.129519	99
Es	-1.887188	-0.133023	-0.029021	99
Es	2.419146	1.324373	-0.911379	99
Es	1.878510	0.914706	-0.675951	99
Es	0.112943	-1.000221	-0.662079	99
Es	0.107362	-2.280198	-0.669367	99
Es	3.194354	1.051538	-1.411604	99
Es	0.521677	2.393467	0.753815	99
Es	-0.093918	-0.545113	-0.122555	99
Es	0.278642	1.328305	0.140453	99
Es	0.483791	-1.659420	-0.610953	99
Es	2.891741	1.071988	-1.221687	99
Es	0.554483	1.117412	0.519113	99
Es	0.625910	0.734612	0.004081	99
Es	-0.474989	1.756655	1.083040	99
39
Properties=species:S:1:pos:R:3:Z:I:1 energy=-285.7853144220794 field_type=dipole dipole="0.000000 0.000000 0.000000" charge=0
C	-1.544652	-0.600120	0.293119	6
C	-0.093882	-0.545270	-0.122621	6
C	0.483758	-1.659350	-0.610921	6
C	0.625728	0.734690	0.004179	6
C	0.155278	1.775390	0.717399	6
C	1.878819	0.914700	-0.676151	6
N	2.892138	1.072050	-1.221901	7
H	-2.127412	0.168150	-0.227271	1
H	-1.646342	-0.454500	1.373829	1
H	-2.005261	-1.565390	0.053449	1
H	-0.070312	-2.590070	-0.700991	1
H	1.521139	-1.702830	-0.931091	1
H	-0.778412	1.743140	1.266959	1
H	0.709409	2.709410	0.782009	1
Es	1.878508	0.914692	-0.675962	99
Es	-0.093918	-0.545115	-0.122556	99
Es	0.280445	1.327217	0.144905	99
Es	0.288146	0.103812	-0.057586	99
Es	-1.645803	-0.433309	0.990593	99
Es	0.297530	-1.155991	-0.061509	99
Es	3.192927	1.048958	-1.411917	99
Es	2.437168	0.720864	-1.016553	99
Es	0.112560	-0.999209	-0.662802	99
Es	1.297513	0.838893	-0.349331	99
Es	0.155253	1.775441	0.717426	99
Es	0.625903	0.734617	0.004066	99
Es	0.107495	-2.279860	-0.669107	99
Es	-1.884783	-0.136531	-0.025686	99
Es	0.552755	1.118618	0.514564	99
Es	-1.544591	-0.600106	0.293112	99
Es	0.483792	-1.659421	-0.610949	99
Es	-1.844916	-1.257780	0.129709	99
Es	1.182014	-1.691180	-0.832400	99
Es	2.418949	1.324306	-0.912187	99
Es	-0.474929	1.756929	1.083136	99
Es	2.891742	1.071988	-1.221688	99
Es	0.521508	2.393227	0.753581	99
Es	-0.810251	-0.552381	0.093362	99
Es	2.431793	1.002316	-0.969504	99
39
Properties=species:S:1:pos:R:3:Z:I:1 energy=-285.7853144220794 field_type=dipole dipole="0.000000 0.000000 0.000000" charge=0
C	-1.544652	-0.600120	0.293119	6
C	-0.093882	-0.545270	-0.122621	6
C	0.483758	-1.659350	-0.610921	6
C	0.625728	0.734690	0.004179	6
C	0.155278	1.775390	0.717399	6
C	1.878819	0.914700	-0.676151	6
N	2.892138	1.072050	-1.221901	7
H	-2.127412	0.168150	-0.227271	1
H	-1.646342	-0.454500	1.373829	1
H	-2.005261	-1.565390	0.053449	1
H	-0.070312	-2.590070	-0.700991	1
H	1.521139	-1.702830	-0.931091	1
H	-0.778412	1.743140	1.266959	1
H	0.709409	2.709410	0.782009	1
Es	2.891743	1.071989	-1.221688	99
Es	-0.093918	-0.545113	-0.122555	99
Es	-1.647342	-0.431242	0.988413	99
Es	0.625904	0.734613	0.004071	99
Es	-1.883382	-0.138641	-0.023605	99
Es	-1.844615	-1.257904	0.129788	99
Es	1.878517	0.914742	-0.675943	99
Es	0.483793	-1.659422	-0.610947	99
Es	-0.474942	1.757264	1.083159	99
Es	0.288348	0.103481	-0.057518	99
Es	2.433740	1.001778	-0.966148	99
Es	0.107569	-2.279580	-0.668872	99
Es	0.155252	1.775437	0.717428	99
Es	0.297664	-1.156104	-0.061321	99
Es	0.521404	2.392941	0.753370	99
Es	3.191445	1.046683	-1.412234	99
Es	0.112472	-0.999125	-0.662924	99
Es	-0.810374	-0.551931	0.093363	99
Es	2.418034	1.324719	-0.914501	99
Es	0.282388	1.325973	0.149689	99
Es	1.181999	-1.691555	-0.832413	99
Es	0.550736	1.119933	0.509566	99
Es	1.297971	0.839538	-0.348946	99
Es	2.437001	0.722617	-1.017627	99
Es	-1.544596	-0.600099	0.293110	99
39
Properties=species:S:1:pos:R:3:Z:I:1 energy=-285.7853144220794 field_type=dipole dipole="0.000000 0.000000 0.000000" charge=0
C	-1.544652	-0.600120	0.293119	6
C	-0.093882	-0.545270	-0.122621	6
C	0.483758	-1.659350	-0.610921	6
C	0.625728	0.734690	0.004179	6
C	0.155278	1.775390	0.717399	6
C	1.878819	0.914700	-0.676151	6
N	2.892138	1.072050	-1.221901	7
H	-2.127412	0.168150	-0.227271	1
H	-1.646342	-0.454500	1.373829	1
H	-2.005261	-1.565390	0.053449	1
H	-0.070312	-2.590070	-0.700991	1
H	1.521139	-1.702830	-0.931091	1
H	-0.778412	1.743140	1.266959	1
H	0.709409	2.709410	0.782009	1
Es	-1.844506	-1.257932	0.129770	99
Es	3.190156	1.044855	-1.412752	99
Es	0.112350	-0.998215	-0.662855	99
Es	1.181972	-1.691707	-0.832403	99
Es	0.107697	-2.279464	-0.668733	99
Es	0.521283	2.392774	0.753202	99
Es	0.625902	0.734614	0.004068	99
Es	1.878519	0.914682	-0.675962	99
Es	-0.810454	-0.551853	0.093544	99
Es	2.417118	1.324835	-0.916278	99
Es	0.483792	-1.659420	-0.610951	99
Es	0.297680	-1.157070	-0.061414	99
Es	2.891739	1.071988	-1.221686	99
Es	-1.544593	-0.600106	0.293113	99
Es	0.283321	1.325365	0.151967	99
Es	2.438325	0.723749	-1.015841	99
Es	-0.093919	-0.545112	-0.122557	99
Es	0.288393	0.103438	-0.057464	99
Es	1.298423	0.840033	-0.348795	99
Es	0.549859	1.120599	0.507257	99
Es	-0.474870	1.757472	1.083230	99
Es	0.155251	1.775438	0.717426	99
Es	-1.649280	-0.428532	0.985555	99
Es	2.434047	1.001770	-0.965855	99
Es	-1.881393	-0.141207	-0.020866	99
39
Properties=species:S:1:pos:R:3:Z:I:1 energy=-285.7853144220794 field_type=dipole dipole="0.000000 0.000000 0.000000" charge=0
C	-1.544652	-0.600120	0.293119	6
C	-0.093882	-0.545270	-0.122621	6
C	0.483758	-1.659350	-0.610921	6
C	0.625728	0.734690	0.004179	6
C	0.155278	1.775390	0.717399	6
C	1.878819	0.914700	-0.676151	6
N	2.892138	1.072050	-1.221901	7
H	-2.127412	0.168150	-0.227271	1
H	-1.646342	-0.454500	1.373829	1
H	-2.005261	-1.565390	0.053449	1
H	-0.070312	-2.590070	-0.700991	1
H	1.521139	-1.702830	-0.931091	1
H	-0.778412	1.743140	1.266959	1
H	0.709409	2.709410	0.782009	1
Es	1.181948	-1.692281	-0.832517	99
Es	0.521165	2.392538	0.752999	99
Es	-0.474866	1.757734	1.083273	99
Es	2.438745	0.724834	-1.015736	99
Es	0.288517	0.103194	-0.057447	99
Es	-1.649846	-0.427777	0.984713	99
Es	0.285942	1.323738	0.158032	99
Es	0.547205	1.122283	0.501058	99
Es	-1.844080	-1.258312	0.129662	99
Es	-0.093917	-0.545112	-0.122557	99
Es	1.298746	0.840627	-0.348588	99
Es	0.112249	-0.998155	-0.662947	99
Es	2.891743	1.071988	-1.221686	99
Es	0.483792	-1.659422	-0.610949	99
Es	0.297791	-1.157138	-0.061323	99
Es	0.155252	1.775438	0.717426	99
Es	3.189291	1.043384	-1.412864	99
Es	-1.880936	-0.141934	-0.020187	99
Es	1.878518	0.914682	-0.675959	99
Es	0.107770	-2.278948	-0.668468	99
Es	2.434233	1.001720	-0.965546	99
Es	2.416948	1.324700	-0.916716	99
Es	0.625896	0.734609	0.004072	99
Es	-0.810706	-0.551292	0.093858	99
Es	-1.544589	-0.600105	0.293112	99
39
Properties=species:S:1:pos:R:3:Z:I:1 energy=-285.7853144220794 field_type=dipole dipole="0.000000 0.000000 0.000000" charge=0
C	-1.544652	-0.600120	0.293119	6
C	-0.093882	-0.545270	-0.122621	6
C	0.483758	-1.659350	-0.610921	6
C	0.625728	0.734690	0.004179	6
C	0.155278	1.775390	0.717399	6
C	1.878819	0.914700	-0.676151	6
N	2.892138	1.072050	-1.221901	7
H	-2.127412	0.168150	-0.227271	1
H	-1.646342	-0.454500	1.373829	1
H	-2.005261	-1.565390	0.053449	1
H	-0.070312	-2.590070	-0.700991	1
H	1.521139	-1.702830	-0.931091	1
H	-0.778412	1.743140	1.266959	1
H	0.709409	2.709410	0.782009	1
Es	-1.544592	-0.600106	0.293112	99
Es	0.521070	2.392359	0.752875	99
Es	-0.474853	1.757923	1.083308	99
Es	3.188164	1.042242	-1.413483	99
Es	0.548853	1.121407	0.504498	99
Es	-1.843764	-1.258501	0.129605	99
Es	0.155251	1.775438	0.717427	99
Es	2.434795	1.001650	-0.964786	99
Es	1.299189	0.840862	-0.348208	99
Es	2.416112	1.324948	-0.918408	99
Es	0.297804	-1.157441	-0.061531	99
Es	0.107905	-2.278704	-0.668265	99
Es	0.483792	-1.659422	-0.610948	99
Es	2.439614	0.725527	-1.014569	99
Es	0.625903	0.734616	0.004068	99
Es	0.112197	-0.997858	-0.662760	99
Es	1.878520	0.914694	-0.675955	99
Es	-0.093919	-0.545113	-0.122557	99
Es	0.288565	0.103014	-0.057442	99
Es	-0.810931	-0.551023	0.094156	99
Es	1.181910	-1.692582	-0.832527	99
Es	-1.652571	-0.424081	0.980580	99
Es	2.891741	1.071988	-1.221686	99
Es	-1.878236	-0.145533	-0.016220	99
Es	0.284293	1.324691	0.154433	99
39
Properties=species:S:1:pos:R:3:Z:I:1 energy=-285.7853144220794 field_type=dipole dipole="0.000000 0.000000 0.000000" charge=0
C	-1.544652	-0.600120	0.293119	6
C	-0.093882	-0.545270	-0.122621	6
C	0.483758	-1.659350	-0.610921	6
C	0.625728	0.734690	0.004179	6
C	0.155278	1.775390	0.717399	6
C	1.878819	0.914700	-0.676151	6
N	2.892138	1.072050	-1.221901	7
H	-2.127412	0.168150	-0.227271	1
H	-1.646342	-0.454500	1.373829	1
H	-2.005261	-1.565390	0.053449	1
H	-0.070312	-2.590070	-0.700991	1
H	1.521139	-1.702830	-0.931091	1
H	-0.778412	1.743140	1.266959	1
H	0.709409	2.709410	0.782009	1
Es	2.417371	1.324704	-0.916618	99
Es	0.546280	1.123030	0.498623	99
Es	-0.474798	1.758203	1.083399	99
Es	-0.811047	-0.550577	0.094181	99
Es	0.625906	0.734615	0.004072	99
Es	1.181855	-1.693148	-0.832649	99
Es	0.297795	-1.157644	-0.061676	99
Es	0.483792	-1.659421	-0.610950	99
Es	0.288646	0.102893	-0.057558	99
Es	2.891737	1.071985	-1.221688	99
Es	0.286881	1.323106	0.160291	99
Es	0.107921	-2.278213	-0.668046	99
Es	3.187018	1.040855	-1.413914	99
Es	-1.843591	-1.258733	0.129716	99
Es	-1.878158	-0.145810	-0.016024	99
Es	1.299376	0.841163	-0.348150	99
Es	-0.093918	-0.545112	-0.122557	99
Es	2.441697	0.726111	-1.011378	99
Es	2.432353	1.002309	-0.969341	99
Es	1.878536	0.914699	-0.675956	99
Es	0.112213	-0.997725	-0.662487	99
Es	-1.652677	-0.423746	0.980220	99
Es	0.520963	2.392118	0.752665	99
Es	0.155252	1.775438	0.717426	99
Es	-1.544593	-0.600106	0.293113	99
39
Properties=species:S:1:pos:R:3:Z:I:1 energy=-285.7853144220794 field_type=dipole dipole="0.000000 0.000000 0.000000" charge=0
C	-1.544652	-0.600120	0.293119	6
C	-0.093882	-0.545270	-0.122621	6
C	0.483758	-1.659350	-0.610921	6
C	0.625728	0.734690	0.004179	6
C	0.155278	1.775390	0.717399	6
C	1.878819	0.914700	-0.676151	6
N	2.892138	1.072050	-1.221901	7
H	-2.127412	0.168150	-0.227271	1
H	-1.646342	-0.454500	1.373829	1
H	-2.005261	-1.565390	0.053449	1
H	-0.070312	-2.590070	-0.700991	1
H	1.521139	-1.702830	-0.931091	1
H	-0.778412	1.743140	1.266959	1
H	0.709409	2.709410	0.782009	1
Es	1.878517	0.914693	-0.675953	99
Es	2.442513	0.726790	-1.010381	99
Es	1.299654	0.841429	-0.347979	99
Es	-1.875775	-0.149119	-0.012243	99
Es	0.155251	1.775438	0.717426	99
Es	0.107985	-2.278181	-0.667971	99
Es	0.520942	2.392099	0.752584	99
Es	-1.655146	-0.420471	0.976404	99
Es	-0.093919	-0.545113	-0.122559	99
Es	3.185872	1.039819	-1.414544	99
Es	0.483792	-1.659421	-0.610949	99
Es	0.284930	1.324116	0.156291	99
Es	2.434049	1.002011	-0.966808	99
Es	0.297825	-1.157671	-0.061715	99
Es	2.891740	1.071987	-1.221686	99
Es	-0.474766	1.758262	1.083421	99
Es	-1.544595	-0.600106	0.293113	99
Es	-0.811170	-0.550360	0.094322	99
Es	0.625902	0.734612	0.004073	99
Es	-1.843304	-1.258858	0.129695	99
Es	0.112155	-0.997666	-0.662552	99
Es	1.181829	-1.693189	-0.832668	99
Es	0.288777	0.102766	-0.057310	99
Es	2.415626	1.325106	-0.919770	99
Es	0.548128	1.122022	0.502474	99
39
Properties=species:S:1:pos:R:3:Z:I:1 energy=-285.7853144220794 field_type=dipole dipole="0.000000 0.000000 0.000000" charge=0
C	-1.544652	-0.600120	0.293119	6
C	-0.093882	-0.545270	-0.122621	6
C	0.483758	-1.659350	-0.610921	6
C	0.625728	0.734690	0.004179	6
C	0.155278	1.775390	0.717399	6
C	1.878819	0.914700	-0.676151	6
N	2.892138	1.072050	-1.221901	7
H	-2.127412	0.168150	-0.227271	1
H	-1.646342	-0.454500	1.373829	1
H	-2.005261	-1.565390	0.053449	1
H	-0.070312	-2.590070	-0.700991	1
H	1.521139	-1.702830	-0.931091	1
H	-0.778412	1.743140	1.266959	1
H	0.709409	2.709410	0.782009	1
Es	0.520824	2.392108	0.752525	99
Es	3.185473	1.038328	-1.414064	99
Es	0.108049	-2.278065	-0.667938	99
Es	2.415330	1.324888	-0.920406	99
Es	-1.843215	-1.258951	0.129613	99
Es	-0.093920	-0.545112	-0.122562	99
Es	0.288767	0.102703	-0.057279	99
Es	0.155253	1.775436	0.717430	99
Es	0.111927	-0.998293	-0.663440	99
Es	-1.653500	-0.422722	0.979028	99
Es	0.298170	-1.157008	-0.060761	99
Es	-1.877422	-0.146793	-0.014980	99
Es	1.181814	-1.693325	-0.832635	99
Es	2.442994	0.727824	-1.010125	99
Es	-0.811280	-0.550344	0.094463	99
Es	0.541911	1.125817	0.488823	99
Es	-0.474817	1.758229	1.083344	99
Es	2.434027	1.002009	-0.966776	99
Es	0.291200	1.320380	0.169898	99
Es	1.878518	0.914690	-0.675955	99
Es	-1.544591	-0.600105	0.293112	99
Es	0.483792	-1.659421	-0.610949	99
Es	2.891737	1.071987	-1.221685	99
Es	1.299864	0.842120	-0.348040	99
Es	0.625906	0.734614	0.004073	99
