43
Properties=species:S:1:pos:R:3:Z:I:1 energy=-270.96301385513567 field_type=dipole dipole="0.000000 0.000000 0.000000" charge=0
C	-2.149864	-0.358015	0.082000	6
C	-0.662234	-0.378455	0.007100	6
C	0.107296	-1.469955	-0.112930	6
C	1.563816	-1.136525	-0.141720	6
C	1.586506	0.391465	-0.223110	6
C	0.165486	0.809915	0.053560	6
C	-0.230674	2.060925	0.312630	6
H	-2.568604	-1.366465	-0.004520	1
H	-2.569314	0.244315	-0.730700	1
H	-2.485774	0.059985	1.036400	1
H	-0.265554	-2.483865	-0.159940	1
H	2.053816	-1.493875	0.770550	1
H	2.062716	-1.587425	-1.004980	1
H	1.881126	0.708895	-1.230740	1
H	2.294316	0.815915	0.496060	1
H	0.483736	2.877475	0.331010	1
H	-1.266794	2.305695	0.519330	1
Es	-0.230704	2.061016	0.312640	99
Es	1.900656	-1.447493	-0.729170	99
Es	1.563779	-1.136510	-0.141720	99
Es	-0.140041	-2.165059	-0.145309	99
Es	-2.367143	-0.072908	0.725939	99
Es	0.165538	0.809797	0.053531	99
Es	0.840121	-1.338908	-0.134482	99
Es	0.107382	-1.470052	-0.112937	99
Es	-2.427988	-1.045394	0.023539	99
Es	-0.266367	-0.925051	0.264479	99
Es	1.889424	-1.379995	0.480262	99
Es	-0.934348	2.230464	0.451414	99
Es	-0.283525	0.237842	0.031374	99
Es	-2.424223	0.051085	-0.466232	99
Es	-0.298439	-0.883692	-0.375417	99
Es	0.252590	2.619680	0.326907	99
Es	0.882978	0.621205	-0.078413	99
Es	-0.003489	1.396558	0.507106	99
Es	-1.406012	-0.363890	0.046502	99
Es	-0.099431	1.500382	-0.130276	99
Es	1.586471	0.391440	-0.223105	99
Es	2.063798	0.685344	0.265608	99
Es	1.593607	-0.374582	-0.181441	99
Es	-0.662317	-0.378354	0.007079	99
Es	1.777131	0.609787	-0.905024	99
Es	-2.149819	-0.358014	0.082000	99
43
Properties=species:S:1:pos:R:3:Z:I:1 energy=-270.96301385513567 field_type=dipole dipole="0.000000 0.000000 0.000000" charge=0
C	-2.149864	-0.358015	0.082000	6
C	-0.662234	-0.378455	0.007100	6
C	0.107296	-1.469955	-0.112930	6
C	1.563816	-1.136525	-0.141720	6
C	1.586506	0.391465	-0.223110	6
C	0.165486	0.809915	0.053560	6
C	-0.230674	2.060925	0.312630	6
H	-2.568604	-1.366465	-0.004520	1
H	-2.569314	0.244315	-0.730700	1
H	-2.485774	0.059985	1.036400	1
H	-0.265554	-2.483865	-0.159940	1
H	2.053816	-1.493875	0.770550	1
H	2.062716	-1.587425	-1.004980	1
H	1.881126	0.708895	-1.230740	1
H	2.294316	0.815915	0.496060	1
H	0.483736	2.877475	0.331010	1
H	-1.266794	2.305695	0.519330	1
Es	-0.230705	2.061019	0.312635	99
Es	1.900949	-1.451267	-0.729165	99
Es	-0.662327	-0.378349	0.007117	99
Es	-0.138997	-2.167426	-0.146641	99
Es	-0.282226	0.239761	0.032973	99
Es	1.885463	-1.380549	0.477697	99
Es	-0.266336	-0.924684	0.265465	99
Es	-2.428077	-1.048262	0.023019	99
Es	-2.149818	-0.358014	0.082000	99
Es	-2.422768	0.051386	-0.465350	99
Es	-0.002770	1.396473	0.509118	99
Es	0.251768	2.618773	0.326070	99
Es	1.586471	0.391438	-0.223105	99
Es	-1.406449	-0.362033	0.046750	99
Es	1.776734	0.610196	-0.898262	99
Es	-0.099117	1.501202	-0.131339	99
Es	-2.366245	-0.071706	0.725496	99
Es	0.107385	-1.470058	-0.112938	99
Es	1.595639	-0.375456	-0.182063	99
Es	0.841295	-1.338460	-0.133368	99
Es	2.062177	0.685568	0.261197	99
Es	1.563780	-1.136511	-0.141722	99
Es	0.165540	0.809795	0.053529	99
Es	-0.298044	-0.883561	-0.375859	99
Es	-0.934907	2.231475	0.450204	99
Es	0.881219	0.623948	-0.078604	99
43
Properties=species:S:1:pos:R:3:Z:I:1 energy=-270.96301385513567 field_type=dipole dipole="0.000000 0.000000 0.000000" charge=0
C	-2.149864	-0.358015	0.082000	6
C	-0.662234	-0.378455	0.007100	6
C	0.107296	-1.469955	-0.112930	6
C	1.563816	-1.136525	-0.141720	6
C	1.586506	0.391465	-0.223110	6
C	0.165486	0.809915	0.053560	6
C	-0.230674	2.060925	0.312630	6
H	-2.568604	-1.366465	-0.004520	1
H	-2.569314	0.244315	-0.730700	1
H	-2.485774	0.059985	1.036400	1
H	-0.265554	-2.483865	-0.159940	1
H	2.053816	-1.493875	0.770550	1
H	2.062716	-1.587425	-1.004980	1
H	1.881126	0.708895	-1.230740	1
H	2.294316	0.815915	0.496060	1
H	0.483736	2.877475	0.331010	1
H	-1.266794	2.305695	0.519330	1
Es	1.881142	-1.379418	0.475008	99
Es	-0.266082	-0.924253	0.266496	99
Es	0.842525	-1.337428	-0.132446	99
Es	0.107384	-1.470058	-0.112936	99
Es	-0.297957	-0.883737	-0.375893	99
Es	1.902480	-1.455062	-0.728695	99
Es	-2.421925	0.051525	-0.464729	99
Es	0.880040	0.627089	-0.079157	99
Es	-1.407383	-0.360316	0.046744	99
Es	-2.427050	-1.050649	0.022576	99
Es	-0.281845	0.241537	0.033824	99
Es	-0.230705	2.061020	0.312643	99
Es	1.586471	0.391440	-0.223104	99
Es	0.165541	0.809793	0.053532	99
Es	-0.662328	-0.378353	0.007117	99
Es	2.061711	0.685380	0.256429	99
Es	-0.098900	1.501609	-0.131588	99
Es	-0.002266	1.396553	0.509584	99
Es	1.775024	0.608351	-0.890142	99
Es	-2.149818	-0.358014	0.082000	99
Es	1.596724	-0.375765	-0.183437	99
Es	0.251413	2.617420	0.325358	99
Es	1.563780	-1.136511	-0.141722	99
Es	-2.365742	-0.071066	0.725038	99
Es	-0.137006	-2.169121	-0.147410	99
Es	-0.935597	2.232732	0.449766	99
43
Properties=species:S:1:pos:R:3:Z:I:1 energy=-270.96301385513567 field_type=dipole dipole="0.000000 0.000000 0.000000" charge=0
C	-2.149864	-0.358015	0.082000	6
C	-0.662234	-0.378455	0.007100	6
C	0.107296	-1.469955	-0.112930	6
C	1.563816	-1.136525	-0.141720	6
C	1.586506	0.391465	-0.223110	6
C	0.165486	0.809915	0.053560	6
C	-0.230674	2.060925	0.312630	6
H	-2.568604	-1.366465	-0.004520	1
H	-2.569314	0.244315	-0.730700	1
H	-2.485774	0.059985	1.036400	1
H	-0.265554	-2.483865	-0.159940	1
H	2.053816	-1.493875	0.770550	1
H	2.062716	-1.587425	-1.004980	1
H	1.881126	0.708895	-1.230740	1
H	2.294316	0.815915	0.496060	1
H	0.483736	2.877475	0.331010	1
H	-1.266794	2.305695	0.519330	1
Es	-0.001922	1.396414	0.509996	99
Es	-0.265794	-0.924038	0.266712	99
Es	0.843259	-1.336154	-0.131590	99
Es	-0.281950	0.243367	0.034284	99
Es	-2.425517	-1.052490	0.022296	99
Es	-2.421333	0.051400	-0.464330	99
Es	-0.297675	-0.883570	-0.375802	99
Es	-0.098630	1.502004	-0.131282	99
Es	-2.365486	-0.070485	0.724691	99
Es	1.597220	-0.375660	-0.184943	99
Es	0.107385	-1.470058	-0.112942	99
Es	0.879640	0.630138	-0.080666	99
Es	-0.134593	-2.170472	-0.147695	99
Es	-2.149816	-0.358015	0.081999	99
Es	0.165542	0.809793	0.053532	99
Es	2.061090	0.684737	0.252122	99
Es	-0.662325	-0.378353	0.007114	99
Es	1.876701	-1.377407	0.471837	99
Es	1.586472	0.391439	-0.223105	99
Es	0.251184	2.615803	0.324719	99
Es	-1.408726	-0.359244	0.046825	99
Es	-0.230704	2.061020	0.312642	99
Es	-0.936173	2.234312	0.449037	99
Es	1.563780	-1.136513	-0.141723	99
Es	1.773252	0.605573	-0.881781	99
Es	1.904753	-1.458847	-0.727093	99
43
Properties=species:S:1:pos:R:3:Z:I:1 energy=-270.96301385513567 field_type=dipole dipole="0.000000 0.000000 0.000000" charge=0
C	-2.149864	-0.358015	0.082000	6
C	-0.662234	-0.378455	0.007100	6
C	0.107296	-1.469955	-0.112930	6
C	1.563816	-1.136525	-0.141720	6
C	1.586506	0.391465	-0.223110	6
C	0.165486	0.809915	0.053560	6
C	-0.230674	2.060925	0.312630	6
H	-2.568604	-1.366465	-0.004520	1
H	-2.569314	0.244315	-0.730700	1
H	-2.485774	0.059985	1.036400	1
H	-0.265554	-2.483865	-0.159940	1
H	2.053816	-1.493875	0.770550	1
H	2.062716	-1.587425	-1.004980	1
H	1.881126	0.708895	-1.230740	1
H	2.294316	0.815915	0.496060	1
H	0.483736	2.877475	0.331010	1
H	-1.266794	2.305695	0.519330	1
Es	1.871570	-1.374302	0.467167	99
Es	-0.282164	0.245057	0.034704	99
Es	-0.230706	2.061020	0.312641	99
Es	1.586473	0.391442	-0.223110	99
Es	1.597329	-0.375446	-0.186458	99
Es	-0.132256	-2.171351	-0.147926	99
Es	2.060608	0.684078	0.247994	99
Es	-0.297739	-0.884091	-0.375441	99
Es	0.880133	0.633000	-0.082355	99
Es	1.908308	-1.463112	-0.723476	99
Es	1.563778	-1.136512	-0.141722	99
Es	0.107386	-1.470059	-0.112935	99
Es	-2.423475	-1.054092	0.022079	99
Es	0.165541	0.809794	0.053535	99
Es	-0.265247	-0.923277	0.266702	99
Es	-2.365001	-0.070631	0.724245	99
Es	1.770907	0.602518	-0.873763	99
Es	-1.410427	-0.358435	0.047109	99
Es	-0.662323	-0.378351	0.007111	99
Es	0.843622	-1.335138	-0.130905	99
Es	0.250997	2.614125	0.323997	99
Es	-0.936434	2.236008	0.448655	99
Es	-2.421189	0.051901	-0.464114	99
Es	-2.149819	-0.358013	0.081999	99
Es	-0.098633	1.502174	-0.131015	99
Es	-0.001608	1.396390	0.510136	99
43
Properties=species:S:1:pos:R:3:Z:I:1 energy=-270.96301385513567 field_type=dipole dipole="0.000000 0.000000 0.000000" charge=0
C	-2.149864	-0.358015	0.082000	6
C	-0.662234	-0.378455	0.007100	6
C	0.107296	-1.469955	-0.112930	6
C	1.563816	-1.136525	-0.141720	6
C	1.586506	0.391465	-0.223110	6
C	0.165486	0.809915	0.053560	6
C	-0.230674	2.060925	0.312630	6
H	-2.568604	-1.366465	-0.004520	1
H	-2.569314	0.244315	-0.730700	1
H	-2.485774	0.059985	1.036400	1
H	-0.265554	-2.483865	-0.159940	1
H	2.053816	-1.493875	0.770550	1
H	2.062716	-1.587425	-1.004980	1
H	1.881126	0.708895	-1.230740	1
H	2.294316	0.815915	0.496060	1
H	0.483736	2.877475	0.331010	1
H	-1.266794	2.305695	0.519330	1
Es	-0.297667	-0.884384	-0.375271	99
Es	-2.421660	0.052710	-0.463981	99
Es	1.563779	-1.136512	-0.141722	99
Es	0.843634	-1.334050	-0.130476	99
Es	1.768770	0.599987	-0.867382	99
Es	-0.936462	2.237418	0.448423	99
Es	-2.149821	-0.358015	0.081999	99
Es	1.912900	-1.467913	-0.717014	99
Es	-0.129753	-2.171926	-0.148142	99
Es	1.586473	0.391440	-0.223102	99
Es	-0.282453	0.246428	0.035084	99
Es	1.597218	-0.375243	-0.187522	99
Es	0.107386	-1.470059	-0.112940	99
Es	-0.230705	2.061024	0.312643	99
Es	-2.421202	-1.055204	0.021967	99
Es	-0.001277	1.396093	0.509865	99
Es	0.165540	0.809793	0.053535	99
Es	1.865519	-1.370554	0.460234	99
Es	-0.098792	1.502582	-0.130679	99
Es	0.880931	0.634958	-0.084001	99
Es	-0.662322	-0.378351	0.007110	99
Es	0.250814	2.612719	0.323678	99
Es	-2.364333	-0.071319	0.723943	99
Es	-1.412047	-0.357734	0.047018	99
Es	-0.265019	-0.922839	0.266779	99
Es	2.060184	0.683649	0.244809	99
43
Properties=species:S:1:pos:R:3:Z:I:1 energy=-270.96301385513567 field_type=dipole dipole="0.000000 0.000000 0.000000" charge=0
C	-2.149864	-0.358015	0.082000	6
C	-0.662234	-0.378455	0.007100	6
C	0.107296	-1.469955	-0.112930	6
C	1.563816	-1.136525	-0.141720	6
C	1.586506	0.391465	-0.223110	6
C	0.165486	0.809915	0.053560	6
C	-0.230674	2.060925	0.312630	6
H	-2.568604	-1.366465	-0.004520	1
H	-2.569314	0.244315	-0.730700	1
H	-2.485774	0.059985	1.036400	1
H	-0.265554	-2.483865	-0.159940	1
H	2.053816	-1.493875	0.770550	1
H	2.062716	-1.587425	-1.004980	1
H	1.881126	0.708895	-1.230740	1
H	2.294316	0.815915	0.496060	1
H	0.483736	2.877475	0.331010	1
H	-1.266794	2.305695	0.519330	1
Es	1.766347	0.597469	-0.861734	99
Es	-0.936338	2.238989	0.448361	99
Es	1.563780	-1.136511	-0.141722	99
Es	1.916321	-1.471576	-0.710585	99
Es	1.596846	-0.375148	-0.188132	99
Es	-0.662322	-0.378351	0.007106	99
Es	1.586484	0.391454	-0.223140	99
Es	-0.230705	2.061020	0.312646	99
Es	0.250428	2.611134	0.323258	99
Es	2.060352	0.683666	0.241577	99
Es	-0.282729	0.247781	0.035222	99
Es	-2.419164	-1.056042	0.021732	99
Es	-2.363501	-0.072323	0.723638	99
Es	-0.264534	-0.922408	0.266895	99
Es	-0.098867	1.502717	-0.130584	99
Es	-0.297651	-0.884595	-0.375232	99
Es	0.881908	0.636453	-0.085556	99
Es	0.843428	-1.333408	-0.130157	99
Es	-0.001030	1.396023	0.509990	99
Es	0.165541	0.809794	0.053536	99
Es	-2.149817	-0.358013	0.081999	99
Es	-0.127770	-2.172244	-0.148186	99
Es	-2.422173	0.053886	-0.463727	99
Es	1.861067	-1.367582	0.453285	99
Es	0.107387	-1.470057	-0.112939	99
Es	-1.413654	-0.357428	0.047302	99
43
Properties=species:S:1:pos:R:3:Z:I:1 energy=-270.96301385513567 field_type=dipole dipole="0.000000 0.000000 0.000000" charge=0
C	-2.149864	-0.358015	0.082000	6
C	-0.662234	-0.378455	0.007100	6
C	0.107296	-1.469955	-0.112930	6
C	1.563816	-1.136525	-0.141720	6
C	1.586506	0.391465	-0.223110	6
C	0.165486	0.809915	0.053560	6
C	-0.230674	2.060925	0.312630	6
H	-2.568604	-1.366465	-0.004520	1
H	-2.569314	0.244315	-0.730700	1
H	-2.485774	0.059985	1.036400	1
H	-0.265554	-2.483865	-0.159940	1
H	2.053816	-1.493875	0.770550	1
H	2.062716	-1.587425	-1.004980	1
H	1.881126	0.708895	-1.230740	1
H	2.294316	0.815915	0.496060	1
H	0.483736	2.877475	0.331010	1
H	-1.266794	2.305695	0.519330	1
Es	1.586473	0.391442	-0.223109	99
Es	0.107391	-1.470053	-0.112942	99
Es	-0.264526	-0.922573	0.267163	99
Es	1.764773	0.595806	-0.857611	99
Es	-2.362752	-0.073129	0.723456	99
Es	0.250070	2.609964	0.323092	99
Es	0.843444	-1.332651	-0.130230	99
Es	-0.098907	1.502855	-0.130578	99
Es	1.856786	-1.365086	0.446031	99
Es	1.919556	-1.474798	-0.703528	99
Es	-0.297407	-0.884302	-0.375462	99
Es	0.882745	0.637238	-0.086973	99
Es	-1.415008	-0.357407	0.047287	99
Es	-0.283270	0.249220	0.035554	99
Es	0.165541	0.809794	0.053535	99
Es	-0.000848	1.395950	0.510015	99
Es	-0.936132	2.240139	0.448342	99
Es	-2.417211	-1.056660	0.021532	99
Es	1.596471	-0.375122	-0.188448	99
Es	-2.422647	0.054831	-0.463491	99
Es	-0.230705	2.061020	0.312641	99
Es	-0.126055	-2.172405	-0.148286	99
Es	-0.662323	-0.378352	0.007113	99
Es	1.563781	-1.136511	-0.141719	99
Es	-2.149818	-0.358013	0.081999	99
Es	2.060212	0.683501	0.239471	99
43
Properties=species:S:1:pos:R:3:Z:I:1 energy=-270.96301385513567 field_type=dipole dipole="0.000000 0.000000 0.000000" charge=0
C	-2.149864	-0.358015	0.082000	6
C	-0.662234	-0.378455	0.007100	6
C	0.107296	-1.469955	-0.112930	6
C	1.563816	-1.136525	-0.141720	6
C	1.586506	0.391465	-0.223110	6
C	0.165486	0.809915	0.053560	6
C	-0.230674	2.060925	0.312630	6
H	-2.568604	-1.366465	-0.004520	1
H	-2.569314	0.244315	-0.730700	1
H	-2.485774	0.059985	1.036400	1
H	-0.265554	-2.483865	-0.159940	1
H	2.053816	-1.493875	0.770550	1
H	2.062716	-1.587425	-1.004980	1
H	1.881126	0.708895	-1.230740	1
H	2.294316	0.815915	0.496060	1
H	0.483736	2.877475	0.331010	1
H	-1.266794	2.305695	0.519330	1
Es	-1.416615	-0.357214	0.047275	99
Es	1.563776	-1.136512	-0.141722	99
Es	-0.662323	-0.378351	0.007106	99
Es	1.921689	-1.476964	-0.698057	99
Es	-0.263911	-0.921516	0.266899	99
Es	-0.283570	0.250092	0.035751	99
Es	1.586472	0.391441	-0.223105	99
Es	2.060181	0.683468	0.237288	99
Es	-0.124705	-2.172471	-0.148462	99
Es	-2.149818	-0.358013	0.082000	99
Es	0.165537	0.809793	0.053534	99
Es	0.883410	0.637806	-0.087280	99
Es	-0.000328	1.395469	0.508835	99
Es	-0.230706	2.061020	0.312645	99
Es	-2.423633	0.056232	-0.463022	99
Es	-2.415103	-1.057124	0.021311	99
Es	-2.361653	-0.074490	0.723212	99
Es	1.596221	-0.375117	-0.188558	99
Es	1.763358	0.594584	-0.854755	99
Es	1.853866	-1.363426	0.440274	99
Es	0.249709	2.608708	0.323020	99
Es	-0.099324	1.503404	-0.129512	99
Es	-0.935849	2.241359	0.448509	99
Es	0.843371	-1.332170	-0.130253	99
Es	-0.297805	-0.885250	-0.375135	99
Es	0.107387	-1.470059	-0.112940	99
43
Properties=species:S:1:pos:R:3:Z:I:1 energy=-270.96301385513567 field_type=dipole dipole="0.000000 0.000000 0.000000" charge=0
C	-2.149864	-0.358015	0.082000	6
C	-0.662234	-0.378455	0.007100	6
C	0.107296	-1.469955	-0.112930	6
C	1.563816	-1.136525	-0.141720	6
C	1.586506	0.391465	-0.223110	6
C	0.165486	0.809915	0.053560	6
C	-0.230674	2.060925	0.312630	6
H	-2.568604	-1.366465	-0.004520	1
H	-2.569314	0.244315	-0.730700	1
H	-2.485774	0.059985	1.036400	1
H	-0.265554	-2.483865	-0.159940	1
H	2.053816	-1.493875	0.770550	1
H	2.062716	-1.587425	-1.004980	1
H	1.881126	0.708895	-1.230740	1
H	2.294316	0.815915	0.496060	1
H	0.483736	2.877475	0.331010	1
H	-1.266794	2.305695	0.519330	1
Es	-0.230708	2.061020	0.312642	99
Es	-0.099180	1.503298	-0.130052	99
Es	0.883958	0.638174	-0.087827	99
Es	0.843475	-1.331731	-0.130309	99
Es	-2.149820	-0.358013	0.081998	99
Es	-0.662323	-0.378352	0.007114	99
Es	-0.283737	0.251046	0.035733	99
Es	1.762448	0.593743	-0.852381	99
Es	-2.423553	0.056498	-0.463086	99
Es	-0.000428	1.395596	0.509445	99
Es	1.851093	-1.361791	0.434352	99
Es	1.586469	0.391439	-0.223107	99
Es	-2.361505	-0.074611	0.723075	99
Es	1.595779	-0.375110	-0.189059	99
Es	0.107387	-1.470057	-0.112939	99
Es	1.563781	-1.136512	-0.141718	99
Es	0.249406	2.607849	0.322916	99
Es	-1.417623	-0.357267	0.047445	99
Es	-0.935611	2.242219	0.448480	99
Es	-0.298115	-0.885940	-0.374777	99
Es	-2.413757	-1.057430	0.021246	99
Es	2.059890	0.683182	0.236022	99
Es	0.165540	0.809793	0.053537	99
Es	1.923787	-1.479061	-0.692072	99
Es	-0.123563	-2.172493	-0.148531	99
Es	-0.263461	-0.920791	0.266709	99
43
Properties=species:S:1:pos:R:3:Z:I:1 energy=-270.96301385513567 field_type=dipole dipole="0.000000 0.000000 0.000000" charge=0
C	-2.149864	-0.358015	0.082000	6
C	-0.662234	-0.378455	0.007100	6
C	0.107296	-1.469955	-0.112930	6
C	1.563816	-1.136525	-0.141720	6
C	1.586506	0.391465	-0.223110	6
C	0.165486	0.809915	0.053560	6
C	-0.230674	2.060925	0.312630	6
H	-2.568604	-1.366465	-0.004520	1
H	-2.569314	0.244315	-0.730700	1
H	-2.485774	0.059985	1.036400	1
H	-0.265554	-2.483865	-0.159940	1
H	2.053816	-1.493875	0.770550	1
H	2.062716	-1.587425	-1.004980	1
H	1.881126	0.708895	-1.230740	1
H	2.294316	0.815915	0.496060	1
H	0.483736	2.877475	0.331010	1
H	-1.266794	2.305695	0.519330	1
Es	0.249118	2.607132	0.322861	99
Es	0.107388	-1.470056	-0.112936	99
Es	1.586470	0.391439	-0.223103	99
Es	-2.361314	-0.074800	0.723079	99
Es	1.849365	-1.360522	0.429690	99
Es	-0.284150	0.251682	0.035913	99
Es	-0.230706	2.061021	0.312638	99
Es	1.595449	-0.375144	-0.189316	99
Es	0.884631	0.638878	-0.088480	99
Es	0.165542	0.809795	0.053536	99
Es	-0.122354	-2.172512	-0.148521	99
Es	2.059608	0.682943	0.234614	99
Es	-0.000255	1.395511	0.509206	99
Es	-2.149817	-0.358012	0.081999	99
Es	-0.935419	2.242902	0.448545	99
Es	-0.662322	-0.378352	0.007114	99
Es	0.843119	-1.331519	-0.130050	99
Es	1.761534	0.592856	-0.850058	99
Es	-0.099262	1.503431	-0.129818	99
Es	-1.418336	-0.357411	0.047450	99
Es	1.563768	-1.136526	-0.141707	99
Es	-0.298080	-0.886016	-0.374804	99
Es	1.925182	-1.480511	-0.687650	99
Es	-2.412522	-1.057626	0.021117	99
Es	-0.263332	-0.920608	0.266552	99
Es	-2.423671	0.056723	-0.463017	99
43
Properties=species:S:1:pos:R:3:Z:I:1 energy=-270.96301385513567 field_type=dipole dipole="0.000000 0.000000 0.000000" charge=0
C	-2.149864	-0.358015	0.082000	6
C	-0.662234	-0.378455	0.007100	6
C	0.107296	-1.469955	-0.112930	6
C	1.563816	-1.136525	-0.141720	6
C	1.586506	0.391465	-0.223110	6
C	0.165486	0.809915	0.053560	6
C	-0.230674	2.060925	0.312630	6
H	-2.568604	-1.366465	-0.004520	1
H	-2.569314	0.244315	-0.730700	1
H	-2.485774	0.059985	1.036400	1
H	-0.265554	-2.483865	-0.159940	1
H	2.053816	-1.493875	0.770550	1
H	2.062716	-1.587425	-1.004980	1
H	1.881126	0.708895	-1.230740	1
H	2.294316	0.815915	0.496060	1
H	0.483736	2.877475	0.331010	1
H	-1.266794	2.305695	0.519330	1
Es	1.761253	0.592492	-0.848753	99
Es	0.107387	-1.470062	-0.112941	99
Es	0.843050	-1.331297	-0.130064	99
Es	-0.230705	2.061020	0.312644	99
Es	-2.149818	-0.358013	0.081999	99
Es	0.885124	0.639155	-0.089195	99
Es	-2.361309	-0.074605	0.723157	99
Es	1.563780	-1.136511	-0.141724	99
Es	1.586477	0.391446	-0.223132	99
Es	-1.419400	-0.357328	0.047400	99
Es	-2.411106	-1.057861	0.021070	99
Es	1.926539	-1.481838	-0.683185	99
Es	-0.121635	-2.172493	-0.148639	99
Es	2.059117	0.682536	0.234338	99
Es	-0.662320	-0.378352	0.007114	99
Es	1.595178	-0.375146	-0.189487	99
Es	0.165539	0.809794	0.053532	99
Es	0.248813	2.606366	0.322727	99
Es	-0.298394	-0.886710	-0.374323	99
Es	-0.262928	-0.919918	0.266298	99
Es	-0.935130	2.243691	0.448508	99
Es	-0.099357	1.503502	-0.129633	99
Es	-2.423617	0.056551	-0.463041	99
Es	1.847589	-1.359468	0.425172	99
Es	-0.000176	1.395423	0.509086	99
Es	-0.284315	0.252323	0.035925	99
43
Properties=species:S:1:pos:R:3:Z:I:1 energy=-270.96301385513567 field_type=dipole dipole="0.000000 0.000000 0.000000" charge=0
C	-2.149864	-0.358015	0.082000	6
C	-0.662234	-0.378455	0.007100	6
C	0.107296	-1.469955	-0.112930	6
C	1.563816	-1.136525	-0.141720	6
C	1.586506	0.391465	-0.223110	6
C	0.165486	0.809915	0.053560	6
C	-0.230674	2.060925	0.312630	6
H	-2.568604	-1.366465	-0.004520	1
H	-2.569314	0.244315	-0.730700	1
H	-2.485774	0.059985	1.036400	1
H	-0.265554	-2.483865	-0.159940	1
H	2.053816	-1.493875	0.770550	1
H	2.062716	-1.587425	-1.004980	1
H	1.881126	0.708895	-1.230740	1
H	2.294316	0.815915	0.496060	1
H	0.483736	2.877475	0.331010	1
H	-1.266794	2.305695	0.519330	1
Es	1.595071	-0.375117	-0.189676	99
Es	0.165543	0.809793	0.053535	99
Es	-0.298263	-0.886534	-0.374557	99
Es	-0.662323	-0.378350	0.007114	99
Es	-0.934920	2.244249	0.448695	99
Es	-1.419960	-0.357448	0.047569	99
Es	1.586477	0.391445	-0.223096	99
Es	1.563779	-1.136511	-0.141724	99
Es	1.927526	-1.482876	-0.679650	99
Es	-0.284613	0.252897	0.036103	99
Es	-2.149818	-0.358013	0.082000	99
Es	-0.000077	1.395395	0.508901	99
Es	-0.262932	-0.920016	0.266399	99
Es	-2.360705	-0.075622	0.722825	99
Es	1.760694	0.592032	-0.847455	99
Es	0.842790	-1.331132	-0.130016	99
Es	-2.424150	0.057592	-0.462619	99
Es	-0.230705	2.061022	0.312643	99
Es	0.107387	-1.470059	-0.112942	99
Es	0.248590	2.605776	0.322755	99
Es	0.885351	0.639202	-0.089434	99
Es	-0.120766	-2.172467	-0.148739	99
Es	-0.099366	1.503584	-0.129543	99
Es	2.058948	0.682450	0.233544	99
Es	1.846245	-1.358629	0.421385	99
Es	-2.410172	-1.057966	0.020837	99
43
Properties=species:S:1:pos:R:3:Z:I:1 energy=-270.96301385513567 field_type=dipole dipole="0.000000 0.000000 0.000000" charge=0
C	-2.149864	-0.358015	0.082000	6
C	-0.662234	-0.378455	0.007100	6
C	0.107296	-1.469955	-0.112930	6
C	1.563816	-1.136525	-0.141720	6
C	1.586506	0.391465	-0.223110	6
C	0.165486	0.809915	0.053560	6
C	-0.230674	2.060925	0.312630	6
H	-2.568604	-1.366465	-0.004520	1
H	-2.569314	0.244315	-0.730700	1
H	-2.485774	0.059985	1.036400	1
H	-0.265554	-2.483865	-0.159940	1
H	2.053816	-1.493875	0.770550	1
H	2.062716	-1.587425	-1.004980	1
H	1.881126	0.708895	-1.230740	1
H	2.294316	0.815915	0.496060	1
H	0.483736	2.877475	0.331010	1
H	-1.266794	2.305695	0.519330	1
Es	-0.263087	-0.920427	0.266763	99
Es	1.844905	-1.357782	0.417512	99
Es	-0.934644	2.244933	0.448721	99
Es	0.885527	0.639125	-0.090000	99
Es	-2.149818	-0.358013	0.081999	99
Es	-0.099332	1.503575	-0.129630	99
Es	-0.662322	-0.378352	0.007115	99
Es	2.058866	0.682411	0.233173	99
Es	-2.409116	-1.058085	0.020790	99
Es	1.586472	0.391440	-0.223105	99
Es	0.107387	-1.470059	-0.112940	99
Es	-0.297949	-0.886033	-0.374858	99
Es	-0.000078	1.395415	0.509036	99
Es	-1.420807	-0.357487	0.047565	99
Es	-2.360662	-0.075497	0.722906	99
Es	1.760276	0.591640	-0.846298	99
Es	-0.230709	2.061020	0.312643	99
Es	0.842942	-1.330980	-0.129960	99
Es	0.248329	2.605106	0.322697	99
Es	1.594859	-0.375157	-0.189887	99
Es	-0.284727	0.253485	0.036150	99
Es	1.563779	-1.136511	-0.141723	99
Es	-2.424089	0.057519	-0.462669	99
Es	1.928527	-1.483930	-0.675844	99
Es	0.165541	0.809794	0.053540	99
Es	-0.120437	-2.172452	-0.148844	99
43
Properties=species:S:1:pos:R:3:Z:I:1 energy=-270.96301385513567 field_type=dipole dipole="0.000000 0.000000 0.000000" charge=0
C	-2.149864	-0.358015	0.082000	6
C	-0.662234	-0.378455	0.007100	6
C	0.107296	-1.469955	-0.112930	6
C	1.563816	-1.136525	-0.141720	6
C	1.586506	0.391465	-0.223110	6
C	0.165486	0.809915	0.053560	6
C	-0.230674	2.060925	0.312630	6
H	-2.568604	-1.366465	-0.004520	1
H	-2.569314	0.244315	-0.730700	1
H	-2.485774	0.059985	1.036400	1
H	-0.265554	-2.483865	-0.159940	1
H	2.053816	-1.493875	0.770550	1
H	2.062716	-1.587425	-1.004980	1
H	1.881126	0.708895	-1.230740	1
H	2.294316	0.815915	0.496060	1
H	0.483736	2.877475	0.331010	1
H	-1.266794	2.305695	0.519330	1
Es	-0.934390	2.245606	0.448641	99
Es	0.165540	0.809795	0.053533	99
Es	-0.230701	2.061023	0.312639	99
Es	-0.000083	1.395352	0.508965	99
Es	-2.408156	-1.058193	0.020805	99
Es	1.929119	-1.484377	-0.673904	99
Es	0.885796	0.639226	-0.089470	99
Es	1.586473	0.391443	-0.223128	99
Es	2.059034	0.682538	0.231656	99
Es	0.842219	-1.330947	-0.129942	99
Es	1.563782	-1.136512	-0.141715	99
Es	0.107390	-1.470055	-0.112939	99
Es	-2.360445	-0.075609	0.722843	99
Es	-2.149818	-0.358012	0.082002	99
Es	-0.119529	-2.172407	-0.148862	99
Es	-0.262237	-0.918731	0.265424	99
Es	1.844265	-1.357357	0.415545	99
Es	0.248073	2.604442	0.322695	99
Es	1.759612	0.591165	-0.845481	99
Es	-0.099355	1.503626	-0.129489	99
Es	-0.662325	-0.378351	0.007114	99
Es	1.594879	-0.375168	-0.189719	99
Es	-1.421366	-0.357753	0.047497	99
Es	-0.285186	0.254024	0.036211	99
Es	-2.424189	0.057700	-0.462656	99
Es	-0.298770	-0.887770	-0.373409	99
43
Properties=species:S:1:pos:R:3:Z:I:1 energy=-270.96301385513567 field_type=dipole dipole="0.000000 0.000000 0.000000" charge=0
C	-2.149864	-0.358015	0.082000	6
C	-0.662234	-0.378455	0.007100	6
C	0.107296	-1.469955	-0.112930	6
C	1.563816	-1.136525	-0.141720	6
C	1.586506	0.391465	-0.223110	6
C	0.165486	0.809915	0.053560	6
C	-0.230674	2.060925	0.312630	6
H	-2.568604	-1.366465	-0.004520	1
H	-2.569314	0.244315	-0.730700	1
H	-2.485774	0.059985	1.036400	1
H	-0.265554	-2.483865	-0.159940	1
H	2.053816	-1.493875	0.770550	1
H	2.062716	-1.587425	-1.004980	1
H	1.881126	0.708895	-1.230740	1
H	2.294316	0.815915	0.496060	1
H	0.483736	2.877475	0.331010	1
H	-1.266794	2.305695	0.519330	1
Es	0.842367	-1.330706	-0.129978	99
Es	0.165537	0.809797	0.053525	99
Es	-0.262197	-0.918621	0.265397	99
Es	1.586474	0.391443	-0.223112	99
Es	-2.423923	0.057453	-0.462837	99
Es	-2.149818	-0.358012	0.082000	99
Es	0.107388	-1.470057	-0.112939	99
Es	-2.360705	-0.075342	0.722920	99
Es	1.759264	0.590816	-0.844519	99
Es	2.058931	0.682437	0.231183	99
Es	-0.662323	-0.378352	0.007112	99
Es	-0.285177	0.254340	0.036256	99
Es	-2.407544	-1.058251	0.020774	99
Es	1.563769	-1.136514	-0.141722	99
Es	-0.298784	-0.887849	-0.373336	99
Es	-0.119153	-2.172385	-0.148903	99
Es	1.594756	-0.375192	-0.189819	99
Es	-0.934221	2.246015	0.448678	99
Es	1.929594	-1.485129	-0.671411	99
Es	-1.421761	-0.357716	0.047623	99
Es	0.886085	0.639390	-0.089787	99
Es	-0.230706	2.061021	0.312639	99
Es	1.843324	-1.356904	0.413039	99
Es	-0.099450	1.503767	-0.129120	99
Es	0.247810	2.604007	0.322618	99
Es	0.000094	1.395242	0.508575	99
43
Properties=species:S:1:pos:R:3:Z:I:1 energy=-270.96301385513567 field_type=dipole dipole="0.000000 0.000000 0.000000" charge=0
C	-2.149864	-0.358015	0.082000	6
C	-0.662234	-0.378455	0.007100	6
C	0.107296	-1.469955	-0.112930	6
C	1.563816	-1.136525	-0.141720	6
C	1.586506	0.391465	-0.223110	6
C	0.165486	0.809915	0.053560	6
C	-0.230674	2.060925	0.312630	6
H	-2.568604	-1.366465	-0.004520	1
H	-2.569314	0.244315	-0.730700	1
H	-2.485774	0.059985	1.036400	1
H	-0.265554	-2.483865	-0.159940	1
H	2.053816	-1.493875	0.770550	1
H	2.062716	-1.587425	-1.004980	1
H	1.881126	0.708895	-1.230740	1
H	2.294316	0.815915	0.496060	1
H	0.483736	2.877475	0.331010	1
H	-1.266794	2.305695	0.519330	1
Es	2.058946	0.682447	0.230598	99
Es	-0.298207	-0.886707	-0.374425	99
Es	-2.149818	-0.358013	0.081999	99
Es	-1.422262	-0.357852	0.047684	99
Es	1.758675	0.590327	-0.843077	99
Es	0.842394	-1.330693	-0.130015	99
Es	-0.262605	-0.919684	0.266356	99
Es	-2.360575	-0.075465	0.722937	99
Es	1.930387	-1.485621	-0.668914	99
Es	0.000103	1.395319	0.508737	99
Es	-2.423936	0.057615	-0.462697	99
Es	-0.118763	-2.172361	-0.148960	99
Es	0.165539	0.809794	0.053536	99
Es	1.563779	-1.136511	-0.141722	99
Es	1.586480	0.391450	-0.223129	99
Es	-0.662322	-0.378352	0.007114	99
Es	0.886396	0.639632	-0.090289	99
Es	0.107389	-1.470057	-0.112939	99
Es	1.842522	-1.356401	0.410482	99
Es	-2.406873	-1.058304	0.020605	99
Es	0.247733	2.603904	0.322642	99
Es	-0.230706	2.061021	0.312639	99
Es	-0.285443	0.254620	0.036317	99
Es	-0.099382	1.503730	-0.129318	99
Es	-0.934200	2.246083	0.448763	99
Es	1.594381	-0.375223	-0.190070	99
43
Properties=species:S:1:pos:R:3:Z:I:1 energy=-270.96301385513567 field_type=dipole dipole="0.000000 0.000000 0.000000" charge=0
C	-2.149864	-0.358015	0.082000	6
C	-0.662234	-0.378455	0.007100	6
C	0.107296	-1.469955	-0.112930	6
C	1.563816	-1.136525	-0.141720	6
C	1.586506	0.391465	-0.223110	6
C	0.165486	0.809915	0.053560	6
C	-0.230674	2.060925	0.312630	6
H	-2.568604	-1.366465	-0.004520	1
H	-2.569314	0.244315	-0.730700	1
H	-2.485774	0.059985	1.036400	1
H	-0.265554	-2.483865	-0.159940	1
H	2.053816	-1.493875	0.770550	1
H	2.062716	-1.587425	-1.004980	1
H	1.881126	0.708895	-1.230740	1
H	2.294316	0.815915	0.496060	1
H	0.483736	2.877475	0.331010	1
H	-1.266794	2.305695	0.519330	1
Es	0.886487	0.639466	-0.090117	99
Es	0.247485	2.603242	0.322597	99
Es	1.563774	-1.136513	-0.141723	99
Es	1.841928	-1.356086	0.408705	99
Es	-0.285488	0.255109	0.036410	99
Es	0.842026	-1.330657	-0.130078	99
Es	1.758549	0.590218	-0.842841	99
Es	-0.261807	-0.918069	0.264944	99
Es	1.930754	-1.486074	-0.667202	99
Es	-0.099151	1.503428	-0.130273	99
Es	-2.149819	-0.358009	0.081996	99
Es	-1.422529	-0.357851	0.047591	99
Es	1.594624	-0.375177	-0.190016	99
Es	-2.359979	-0.076261	0.722638	99
Es	-0.298972	-0.888309	-0.372905	99
Es	-0.230707	2.061020	0.312639	99
Es	1.586482	0.391450	-0.223109	99
Es	0.107388	-1.470057	-0.112940	99
Es	-0.000172	1.395608	0.509693	99
Es	-2.406302	-1.058342	0.020554	99
Es	-0.933882	2.246773	0.448802	99
Es	2.058726	0.682321	0.230060	99
Es	0.165542	0.809795	0.053536	99
Es	-2.424578	0.058360	-0.462240	99
Es	-0.662316	-0.378348	0.007114	99
Es	-0.118427	-2.172340	-0.148980	99
43
Properties=species:S:1:pos:R:3:Z:I:1 energy=-270.96301385513567 field_type=dipole dipole="0.000000 0.000000 0.000000" charge=0
C	-2.149864	-0.358015	0.082000	6
C	-0.662234	-0.378455	0.007100	6
C	0.107296	-1.469955	-0.112930	6
C	1.563816	-1.136525	-0.141720	6
C	1.586506	0.391465	-0.223110	6
C	0.165486	0.809915	0.053560	6
C	-0.230674	2.060925	0.312630	6
H	-2.568604	-1.366465	-0.004520	1
H	-2.569314	0.244315	-0.730700	1
H	-2.485774	0.059985	1.036400	1
H	-0.265554	-2.483865	-0.159940	1
H	2.053816	-1.493875	0.770550	1
H	2.062716	-1.587425	-1.004980	1
H	1.881126	0.708895	-1.230740	1
H	2.294316	0.815915	0.496060	1
H	0.483736	2.877475	0.331010	1
H	-1.266794	2.305695	0.519330	1
Es	0.000081	1.395337	0.508942	99
Es	1.758501	0.590153	-0.842621	99
Es	-2.360226	-0.075847	0.722888	99
Es	-0.118485	-2.172342	-0.148993	99
Es	1.563781	-1.136513	-0.141720	99
Es	1.841325	-1.355698	0.406792	99
Es	0.107389	-1.470058	-0.112938	99
Es	2.058581	0.682222	0.229958	99
Es	1.594042	-0.375318	-0.190031	99
Es	-0.099421	1.503692	-0.129549	99
Es	-0.662321	-0.378351	0.007113	99
Es	-0.261651	-0.917679	0.264539	99
Es	0.247367	2.603120	0.322582	99
Es	-0.230706	2.061020	0.312641	99
Es	1.586469	0.391438	-0.223105	99
Es	-0.299061	-0.888646	-0.372564	99
Es	-2.424223	0.058014	-0.462525	99
Es	0.842863	-1.330416	-0.130031	99
Es	-1.423146	-0.357954	0.047653	99
Es	0.165542	0.809794	0.053538	99
Es	-2.405588	-1.058372	0.020495	99
Es	0.886646	0.639664	-0.090249	99
Es	-2.149819	-0.358013	0.082000	99
Es	-0.933811	2.246880	0.448832	99
Es	1.931132	-1.486610	-0.665228	99
Es	-0.285627	0.255177	0.036436	99