27
Properties=species:S:1:pos:R:3:Z:I:1 energy=-172.11277363916975 field_type=dipole dipole="0.000000 0.000000 0.000000" charge=0
C	-1.239611	-0.008605	0.579296	6
N	0.213849	-0.079675	0.698436	7
C	0.850879	-0.748455	-0.430544	6
C	0.920349	0.749585	-0.271084	6
H	-1.624341	0.749155	1.269866	1
H	-1.681221	-0.969605	0.862736	1
H	-1.599181	0.242405	-0.426174	1
H	0.223419	-1.160965	-1.210554	1
H	1.735969	-1.326505	-0.194884	1
H	1.853749	1.181394	0.069916	1
H	0.346139	1.371275	-0.947014	1
Es	0.357857	-0.121686	1.026219	99
Es	0.471031	0.407944	0.335459	99
Es	1.552366	1.047425	-0.040421	99
Es	0.850787	-0.748268	-0.430387	99
Es	0.521156	1.171114	-0.727148	99
Es	0.920248	0.749389	-0.270974	99
Es	1.008944	0.013828	-0.536563	99
Es	-1.538040	-0.664964	0.768509	99
Es	0.431623	-0.500566	0.237424	99
Es	-1.500558	0.510718	1.045057	99
Es	0.213644	-0.079597	0.697782	99
Es	1.449652	-1.145120	-0.272746	99
Es	-1.239477	-0.008611	0.579298	99
Es	-1.475890	0.163767	-0.120759	99
Es	0.416081	-1.027473	-0.958174	99
Es	-0.415993	-0.043384	0.608374	99
27
Properties=species:S:1:pos:R:3:Z:I:1 energy=-172.11277363916975 field_type=dipole dipole="0.000000 0.000000 0.000000" charge=0
C	-1.239611	-0.008605	0.579296	6
N	0.213849	-0.079675	0.698436	7
C	0.850879	-0.748455	-0.430544	6
C	0.920349	0.749585	-0.271084	6
H	-1.624341	0.749155	1.269866	1
H	-1.681221	-0.969605	0.862736	1
H	-1.599181	0.242405	-0.426174	1
H	0.223419	-1.160965	-1.210554	1
H	1.735969	-1.326505	-0.194884	1
H	1.853749	1.181394	0.069916	1
H	0.346139	1.371275	-0.947014	1
Es	0.355842	-0.121386	1.023175	99
Es	1.010479	0.014024	-0.538783	99
Es	0.431633	-0.503880	0.238100	99
Es	-1.538243	-0.666088	0.768036	99
Es	1.448585	-1.145204	-0.272830	99
Es	-1.474866	0.163602	-0.119828	99
Es	0.521518	1.171164	-0.726266	99
Es	-1.500571	0.511906	1.045135	99
Es	0.416481	-1.027792	-0.957247	99
Es	0.850789	-0.748277	-0.430393	99
Es	0.920248	0.749387	-0.270976	99
Es	1.551387	1.047655	-0.040466	99
Es	-0.415564	-0.043599	0.609634	99
Es	-1.239482	-0.008611	0.579298	99
Es	0.213657	-0.079595	0.697764	99
Es	0.471539	0.411210	0.336596	99
27
Properties=species:S:1:pos:R:3:Z:I:1 energy=-172.11277363916975 field_type=dipole dipole="0.000000 0.000000 0.000000" charge=0
C	-1.239611	-0.008605	0.579296	6
N	0.213849	-0.079675	0.698436	7
C	0.850879	-0.748455	-0.430544	6
C	0.920349	0.749585	-0.271084	6
H	-1.624341	0.749155	1.269866	1
H	-1.681221	-0.969605	0.862736	1
H	-1.599181	0.242405	-0.426174	1
H	0.223419	-1.160965	-1.210554	1
H	1.735969	-1.326505	-0.194884	1
H	1.853749	1.181394	0.069916	1
H	0.346139	1.371275	-0.947014	1
Es	-1.538241	-0.666911	0.767843	99
Es	-1.239481	-0.008610	0.579298	99
Es	-1.474194	0.163398	-0.119198	99
Es	1.447738	-1.145255	-0.272913	99
Es	0.213653	-0.079598	0.697786	99
Es	0.471866	0.413470	0.337872	99
Es	-1.500498	0.512759	1.045124	99
Es	1.011702	0.014221	-0.540307	99
Es	0.431538	-0.506222	0.238588	99
Es	0.354270	-0.121273	1.021078	99
Es	0.920240	0.749382	-0.270969	99
Es	0.850794	-0.748280	-0.430398	99
Es	1.550594	1.047585	-0.040642	99
Es	0.521852	1.171275	-0.725735	99
Es	0.416816	-1.027905	-0.956632	99
Es	-0.415219	-0.043519	0.610154	99
27
Properties=species:S:1:pos:R:3:Z:I:1 energy=-172.11277363916975 field_type=dipole dipole="0.000000 0.000000 0.000000" charge=0
C	-1.239611	-0.008605	0.579296	6
N	0.213849	-0.079675	0.698436	7
C	0.850879	-0.748455	-0.430544	6
C	0.920349	0.749585	-0.271084	6
H	-1.624341	0.749155	1.269866	1
H	-1.681221	-0.969605	0.862736	1
H	-1.599181	0.242405	-0.426174	1
H	0.223419	-1.160965	-1.210554	1
H	1.735969	-1.326505	-0.194884	1
H	1.853749	1.181394	0.069916	1
H	0.346139	1.371275	-0.947014	1
Es	1.447105	-1.145237	-0.273026	99
Es	1.549983	1.047639	-0.040724	99
Es	0.522152	1.171226	-0.725207	99
Es	0.920250	0.749385	-0.270980	99
Es	0.213657	-0.079596	0.697779	99
Es	0.431180	-0.507894	0.238845	99
Es	0.353779	-0.120976	1.019498	99
Es	0.471534	0.415060	0.338352	99
Es	-1.473672	0.163253	-0.118709	99
Es	-1.500309	0.513457	1.045123	99
Es	1.012591	0.014268	-0.541675	99
Es	-1.538239	-0.667528	0.767726	99
Es	-1.239483	-0.008610	0.579297	99
Es	0.850791	-0.748280	-0.430396	99
Es	-0.414966	-0.043655	0.611131	99
Es	0.417079	-1.027995	-0.956084	99
27
Properties=species:S:1:pos:R:3:Z:I:1 energy=-172.11277363916975 field_type=dipole dipole="0.000000 0.000000 0.000000" charge=0
C	-1.239611	-0.008605	0.579296	6
N	0.213849	-0.079675	0.698436	7
C	0.850879	-0.748455	-0.430544	6
C	0.920349	0.749585	-0.271084	6
H	-1.624341	0.749155	1.269866	1
H	-1.681221	-0.969605	0.862736	1
H	-1.599181	0.242405	-0.426174	1
H	0.223419	-1.160965	-1.210554	1
H	1.735969	-1.326505	-0.194884	1
H	1.853749	1.181394	0.069916	1
H	0.346139	1.371275	-0.947014	1
Es	0.417310	-1.028104	-0.955643	99
Es	0.920242	0.749383	-0.270972	99
Es	0.471483	0.416232	0.338989	99
Es	-0.414695	-0.043682	0.611509	99
Es	0.213655	-0.079595	0.697772	99
Es	0.850790	-0.748276	-0.430395	99
Es	0.431002	-0.509255	0.239369	99
Es	0.522416	1.171274	-0.724824	99
Es	-1.500272	0.513937	1.045170	99
Es	-1.538164	-0.668035	0.767486	99
Es	-1.473218	0.163169	-0.118286	99
Es	1.013430	0.014446	-0.542855	99
Es	1.549390	1.047566	-0.040804	99
Es	1.446597	-1.145138	-0.273133	99
Es	0.352947	-0.120794	1.018268	99
Es	-1.239481	-0.008610	0.579297	99
27
Properties=species:S:1:pos:R:3:Z:I:1 energy=-172.11277363916975 field_type=dipole dipole="0.000000 0.000000 0.000000" charge=0
C	-1.239611	-0.008605	0.579296	6
N	0.213849	-0.079675	0.698436	7
C	0.850879	-0.748455	-0.430544	6
C	0.920349	0.749585	-0.271084	6
H	-1.624341	0.749155	1.269866	1
H	-1.681221	-0.969605	0.862736	1
H	-1.599181	0.242405	-0.426174	1
H	0.223419	-1.160965	-1.210554	1
H	1.735969	-1.326505	-0.194884	1
H	1.853749	1.181394	0.069916	1
H	0.346139	1.371275	-0.947014	1
Es	0.522585	1.171342	-0.724526	99
Es	-0.414469	-0.043760	0.612031	99
Es	0.430738	-0.510332	0.239770	99
Es	0.920244	0.749388	-0.270975	99
Es	1.014201	0.014499	-0.543861	99
Es	0.417576	-1.028223	-0.955315	99
Es	0.471420	0.417237	0.339626	99
Es	-1.500199	0.514327	1.045202	99
Es	0.352282	-0.120684	1.017007	99
Es	-1.538126	-0.668409	0.767298	99
Es	1.548898	1.047481	-0.040870	99
Es	-1.472787	0.163122	-0.117996	99
Es	0.213668	-0.079604	0.697831	99
Es	1.446096	-1.144980	-0.273179	99
Es	0.850786	-0.748279	-0.430394	99
Es	-1.239481	-0.008610	0.579298	99
27
Properties=species:S:1:pos:R:3:Z:I:1 energy=-172.11277363916975 field_type=dipole dipole="0.000000 0.000000 0.000000" charge=0
C	-1.239611	-0.008605	0.579296	6
N	0.213849	-0.079675	0.698436	7
C	0.850879	-0.748455	-0.430544	6
C	0.920349	0.749585	-0.271084	6
H	-1.624341	0.749155	1.269866	1
H	-1.681221	-0.969605	0.862736	1
H	-1.599181	0.242405	-0.426174	1
H	0.223419	-1.160965	-1.210554	1
H	1.735969	-1.326505	-0.194884	1
H	1.853749	1.181394	0.069916	1
H	0.346139	1.371275	-0.947014	1
Es	0.213652	-0.079593	0.697750	99
Es	-1.472435	0.162974	-0.117847	99
Es	-1.500126	0.514704	1.045169	99
Es	0.352321	-0.120475	1.015720	99
Es	0.850795	-0.748274	-0.430394	99
Es	-0.414510	-0.043882	0.613207	99
Es	1.548417	1.047486	-0.040958	99
Es	0.471107	0.418063	0.339865	99
Es	0.417719	-1.028181	-0.954986	99
Es	-1.538003	-0.668703	0.767284	99
Es	1.445662	-1.145029	-0.273240	99
Es	0.430387	-0.511237	0.239964	99
Es	-1.239484	-0.008610	0.579297	99
Es	0.522761	1.171271	-0.724272	99
Es	1.014925	0.014617	-0.544640	99
Es	0.920244	0.749384	-0.270973	99
27
Properties=species:S:1:pos:R:3:Z:I:1 energy=-172.11277363916975 field_type=dipole dipole="0.000000 0.000000 0.000000" charge=0
C	-1.239611	-0.008605	0.579296	6
N	0.213849	-0.079675	0.698436	7
C	0.850879	-0.748455	-0.430544	6
C	0.920349	0.749585	-0.271084	6
H	-1.624341	0.749155	1.269866	1
H	-1.681221	-0.969605	0.862736	1
H	-1.599181	0.242405	-0.426174	1
H	0.223419	-1.160965	-1.210554	1
H	1.735969	-1.326505	-0.194884	1
H	1.853749	1.181394	0.069916	1
H	0.346139	1.371275	-0.947014	1
Es	1.548022	1.047359	-0.041042	99
Es	0.430324	-0.512217	0.240439	99
Es	0.417885	-1.028234	-0.954831	99
Es	-1.239485	-0.008609	0.579297	99
Es	0.522909	1.171330	-0.724147	99
Es	0.850794	-0.748267	-0.430397	99
Es	-1.472145	0.162955	-0.117619	99
Es	1.445291	-1.144824	-0.273367	99
Es	-0.414722	-0.043996	0.613921	99
Es	0.470777	0.418544	0.339955	99
Es	0.352311	-0.119982	1.014703	99
Es	-1.500001	0.514982	1.045210	99
Es	0.920245	0.749387	-0.270974	99
Es	1.015463	0.014721	-0.545134	99
Es	0.213651	-0.079594	0.697756	99
Es	-1.537890	-0.669039	0.767179	99
27
Properties=species:S:1:pos:R:3:Z:I:1 energy=-172.11277363916975 field_type=dipole dipole="0.000000 0.000000 0.000000" charge=0
C	-1.239611	-0.008605	0.579296	6
N	0.213849	-0.079675	0.698436	7
C	0.850879	-0.748455	-0.430544	6
C	0.920349	0.749585	-0.271084	6
H	-1.624341	0.749155	1.269866	1
H	-1.681221	-0.969605	0.862736	1
H	-1.599181	0.242405	-0.426174	1
H	0.223419	-1.160965	-1.210554	1
H	1.735969	-1.326505	-0.194884	1
H	1.853749	1.181394	0.069916	1
H	0.346139	1.371275	-0.947014	1
Es	0.213635	-0.079591	0.697730	99
Es	-1.239481	-0.008612	0.579298	99
Es	-1.499961	0.515242	1.045172	99
Es	0.418051	-1.028333	-0.954542	99
Es	0.429934	-0.512572	0.240339	99
Es	0.351966	-0.120339	1.013890	99
Es	1.547765	1.047212	-0.041144	99
Es	0.920242	0.749387	-0.270972	99
Es	1.015829	0.014730	-0.545930	99
Es	-1.537810	-0.669279	0.767114	99
Es	0.523082	1.171375	-0.723915	99
Es	-0.414497	-0.043933	0.614402	99
Es	-1.471841	0.162876	-0.117469	99
Es	0.850790	-0.748276	-0.430393	99
Es	1.445002	-1.144708	-0.273393	99
Es	0.470724	0.419337	0.340763	99
27
Properties=species:S:1:pos:R:3:Z:I:1 energy=-172.11277363916975 field_type=dipole dipole="0.000000 0.000000 0.000000" charge=0
C	-1.239611	-0.008605	0.579296	6
N	0.213849	-0.079675	0.698436	7
C	0.850879	-0.748455	-0.430544	6
C	0.920349	0.749585	-0.271084	6
H	-1.624341	0.749155	1.269866	1
H	-1.681221	-0.969605	0.862736	1
H	-1.599181	0.242405	-0.426174	1
H	0.223419	-1.160965	-1.210554	1
H	1.735969	-1.326505	-0.194884	1
H	1.853749	1.181394	0.069916	1
H	0.346139	1.371275	-0.947014	1
Es	-1.239482	-0.008610	0.579298	99
Es	0.352037	-0.120411	1.012990	99
Es	1.444753	-1.144713	-0.273433	99
Es	1.016262	0.014820	-0.546539	99
Es	0.418201	-1.028281	-0.954308	99
Es	-1.471619	0.162912	-0.117382	99
Es	0.213657	-0.079593	0.697755	99
Es	0.523290	1.171374	-0.723676	99
Es	0.920241	0.749390	-0.270968	99
Es	-1.537737	-0.669494	0.767039	99
Es	0.470688	0.419823	0.340896	99
Es	1.547407	1.047138	-0.041143	99
Es	-0.414793	-0.043986	0.615096	99
Es	0.429486	-0.513032	0.240454	99
Es	-1.499750	0.515454	1.045264	99
Es	0.850791	-0.748275	-0.430394	99
27
Properties=species:S:1:pos:R:3:Z:I:1 energy=-172.11277363916975 field_type=dipole dipole="0.000000 0.000000 0.000000" charge=0
C	-1.239611	-0.008605	0.579296	6
N	0.213849	-0.079675	0.698436	7
C	0.850879	-0.748455	-0.430544	6
C	0.920349	0.749585	-0.271084	6
H	-1.624341	0.749155	1.269866	1
H	-1.681221	-0.969605	0.862736	1
H	-1.599181	0.242405	-0.426174	1
H	0.223419	-1.160965	-1.210554	1
H	1.735969	-1.326505	-0.194884	1
H	1.853749	1.181394	0.069916	1
H	0.346139	1.371275	-0.947014	1
Es	0.850789	-0.748274	-0.430395	99
Es	0.470453	0.420126	0.341138	99
Es	1.016677	0.014787	-0.547216	99
Es	0.429473	-0.513470	0.240803	99
Es	0.351696	-0.120130	1.012725	99
Es	0.523369	1.171384	-0.723543	99
Es	-1.499775	0.515714	1.045192	99
Es	0.920243	0.749388	-0.270973	99
Es	-1.239481	-0.008611	0.579298	99
Es	0.213649	-0.079594	0.697757	99
Es	-1.537644	-0.669690	0.766978	99
Es	-0.414620	-0.043971	0.615058	99
Es	-1.471368	0.162769	-0.117169	99
Es	1.444404	-1.144570	-0.273427	99
Es	1.547210	1.047067	-0.041227	99
Es	0.418355	-1.028406	-0.954051	99
27
Properties=species:S:1:pos:R:3:Z:I:1 energy=-172.11277363916975 field_type=dipole dipole="0.000000 0.000000 0.000000" charge=0
C	-1.239611	-0.008605	0.579296	6
N	0.213849	-0.079675	0.698436	7
C	0.850879	-0.748455	-0.430544	6
C	0.920349	0.749585	-0.271084	6
H	-1.624341	0.749155	1.269866	1
H	-1.681221	-0.969605	0.862736	1
H	-1.599181	0.242405	-0.426174	1
H	0.223419	-1.160965	-1.210554	1
H	1.735969	-1.326505	-0.194884	1
H	1.853749	1.181394	0.069916	1
H	0.346139	1.371275	-0.947014	1
Es	1.016989	0.014907	-0.547398	99
Es	-1.471205	0.162874	-0.117200	99
Es	0.351823	-0.120029	1.011434	99
Es	-1.239480	-0.008610	0.579298	99
Es	1.546925	1.046956	-0.041237	99
Es	0.418465	-1.028383	-0.954052	99
Es	-1.537530	-0.669861	0.766937	99
Es	-1.499574	0.515785	1.045315	99
Es	0.850792	-0.748273	-0.430391	99
Es	0.213674	-0.079604	0.697836	99
Es	0.523492	1.171443	-0.723440	99
Es	0.470273	0.420632	0.341317	99
Es	0.920246	0.749384	-0.270974	99
Es	0.429304	-0.514085	0.240983	99
Es	-0.414984	-0.044192	0.616042	99
Es	1.444221	-1.144427	-0.273520	99
27
Properties=species:S:1:pos:R:3:Z:I:1 energy=-172.11277363916975 field_type=dipole dipole="0.000000 0.000000 0.000000" charge=0
C	-1.239611	-0.008605	0.579296	6
N	0.213849	-0.079675	0.698436	7
C	0.850879	-0.748455	-0.430544	6
C	0.920349	0.749585	-0.271084	6
H	-1.624341	0.749155	1.269866	1
H	-1.681221	-0.969605	0.862736	1
H	-1.599181	0.242405	-0.426174	1
H	0.223419	-1.160965	-1.210554	1
H	1.735969	-1.326505	-0.194884	1
H	1.853749	1.181394	0.069916	1
H	0.346139	1.371275	-0.947014	1
Es	-1.239485	-0.008610	0.579298	99
Es	0.418539	-1.028441	-0.953883	99
Es	1.546715	1.046911	-0.041344	99
Es	0.429025	-0.514390	0.241004	99
Es	-1.499601	0.515935	1.045280	99
Es	0.351890	-0.120117	1.010839	99
Es	0.920242	0.749387	-0.270973	99
Es	0.470190	0.420993	0.341586	99
Es	1.444054	-1.144323	-0.273577	99
Es	-1.470944	0.162813	-0.117125	99
Es	0.850796	-0.748278	-0.430387	99
Es	1.017218	0.015014	-0.547810	99
Es	-0.414972	-0.044194	0.616724	99
Es	-1.537455	-0.669994	0.766874	99
Es	0.523569	1.171405	-0.723313	99
Es	0.213650	-0.079594	0.697755	99
27
Properties=species:S:1:pos:R:3:Z:I:1 energy=-172.11277363916975 field_type=dipole dipole="0.000000 0.000000 0.000000" charge=0
C	-1.239611	-0.008605	0.579296	6
N	0.213849	-0.079675	0.698436	7
C	0.850879	-0.748455	-0.430544	6
C	0.920349	0.749585	-0.271084	6
H	-1.624341	0.749155	1.269866	1
H	-1.681221	-0.969605	0.862736	1
H	-1.599181	0.242405	-0.426174	1
H	0.223419	-1.160965	-1.210554	1
H	1.735969	-1.326505	-0.194884	1
H	1.853749	1.181394	0.069916	1
H	0.346139	1.371275	-0.947014	1
Es	1.017566	0.014872	-0.548204	99
Es	0.428778	-0.514544	0.241037	99
Es	1.443775	-1.144170	-0.273552	99
Es	0.523702	1.171603	-0.723240	99
Es	0.213647	-0.079591	0.697738	99
Es	-0.415230	-0.044348	0.617938	99
Es	0.418627	-1.028562	-0.953794	99
Es	-1.499460	0.516044	1.045274	99
Es	1.546488	1.046688	-0.041309	99
Es	0.850792	-0.748269	-0.430395	99
Es	-1.239482	-0.008611	0.579298	99
Es	-1.537410	-0.670111	0.766913	99
Es	0.352292	-0.119991	1.009740	99
Es	0.469894	0.421298	0.341612	99
Es	-1.470790	0.162821	-0.117137	99
Es	0.920241	0.749388	-0.270970	99
27
Properties=species:S:1:pos:R:3:Z:I:1 energy=-172.11277363916975 field_type=dipole dipole="0.000000 0.000000 0.000000" charge=0
C	-1.239611	-0.008605	0.579296	6
N	0.213849	-0.079675	0.698436	7
C	0.850879	-0.748455	-0.430544	6
C	0.920349	0.749585	-0.271084	6
H	-1.624341	0.749155	1.269866	1
H	-1.681221	-0.969605	0.862736	1
H	-1.599181	0.242405	-0.426174	1
H	0.223419	-1.160965	-1.210554	1
H	1.735969	-1.326505	-0.194884	1
H	1.853749	1.181394	0.069916	1
H	0.346139	1.371275	-0.947014	1
Es	1.443635	-1.144214	-0.273602	99
Es	0.850788	-0.748273	-0.430392	99
Es	0.213654	-0.079596	0.697782	99
Es	0.469968	0.421457	0.341905	99
Es	0.352007	-0.120071	1.009637	99
Es	0.523825	1.171585	-0.723123	99
Es	0.920243	0.749390	-0.270969	99
Es	-1.537368	-0.670221	0.766752	99
Es	-1.470503	0.162784	-0.117016	99
Es	0.428569	-0.514875	0.241097	99
Es	-1.239483	-0.008610	0.579298	99
Es	0.418711	-1.028485	-0.953580	99
Es	-1.499477	0.516202	1.045306	99
Es	1.546294	1.046625	-0.041344	99
Es	1.017819	0.015024	-0.548617	99
Es	-0.415251	-0.044207	0.617813	99
27
Properties=species:S:1:pos:R:3:Z:I:1 energy=-172.11277363916975 field_type=dipole dipole="0.000000 0.000000 0.000000" charge=0
C	-1.239611	-0.008605	0.579296	6
N	0.213849	-0.079675	0.698436	7
C	0.850879	-0.748455	-0.430544	6
C	0.920349	0.749585	-0.271084	6
H	-1.624341	0.749155	1.269866	1
H	-1.681221	-0.969605	0.862736	1
H	-1.599181	0.242405	-0.426174	1
H	0.223419	-1.160965	-1.210554	1
H	1.735969	-1.326505	-0.194884	1
H	1.853749	1.181394	0.069916	1
H	0.346139	1.371275	-0.947014	1
Es	0.850788	-0.748275	-0.430387	99
Es	1.018011	0.015034	-0.548608	99
Es	0.523779	1.171590	-0.723157	99
Es	-1.499428	0.516247	1.045391	99
Es	0.352552	-0.119720	1.008289	99
Es	0.418831	-1.028653	-0.953649	99
Es	-1.239481	-0.008610	0.579297	99
Es	0.469761	0.421620	0.341647	99
Es	0.428311	-0.515318	0.241269	99
Es	-0.415629	-0.044356	0.619403	99
Es	-1.470360	0.162796	-0.117095	99
Es	-1.537214	-0.670308	0.766725	99
Es	1.443449	-1.143953	-0.273562	99
Es	0.213646	-0.079591	0.697741	99
Es	0.920248	0.749388	-0.270974	99
Es	1.546166	1.046627	-0.041382	99
27
Properties=species:S:1:pos:R:3:Z:I:1 energy=-172.11277363916975 field_type=dipole dipole="0.000000 0.000000 0.000000" charge=0
C	-1.239611	-0.008605	0.579296	6
N	0.213849	-0.079675	0.698436	7
C	0.850879	-0.748455	-0.430544	6
C	0.920349	0.749585	-0.271084	6
H	-1.624341	0.749155	1.269866	1
H	-1.681221	-0.969605	0.862736	1
H	-1.599181	0.242405	-0.426174	1
H	0.223419	-1.160965	-1.210554	1
H	1.735969	-1.326505	-0.194884	1
H	1.853749	1.181394	0.069916	1
H	0.346139	1.371275	-0.947014	1
Es	0.428257	-0.515575	0.241447	99
Es	-1.499349	0.516396	1.045316	99
Es	0.523883	1.171678	-0.722956	99
Es	-1.470143	0.162765	-0.117068	99
Es	1.443253	-1.143821	-0.273550	99
Es	-0.415804	-0.044491	0.619778	99
Es	-1.239481	-0.008610	0.579298	99
Es	-1.537215	-0.670406	0.766751	99
Es	0.469669	0.421821	0.341768	99
Es	0.418944	-1.028714	-0.953621	99
Es	0.213643	-0.079589	0.697714	99
Es	0.920243	0.749388	-0.270973	99
Es	1.018232	0.015101	-0.548961	99
Es	0.352531	-0.119614	1.007858	99
Es	0.850789	-0.748277	-0.430392	99
Es	1.545978	1.046465	-0.041461	99
27
Properties=species:S:1:pos:R:3:Z:I:1 energy=-172.11277363916975 field_type=dipole dipole="0.000000 0.000000 0.000000" charge=0
C	-1.239611	-0.008605	0.579296	6
N	0.213849	-0.079675	0.698436	7
C	0.850879	-0.748455	-0.430544	6
C	0.920349	0.749585	-0.271084	6
H	-1.624341	0.749155	1.269866	1
H	-1.681221	-0.969605	0.862736	1
H	-1.599181	0.242405	-0.426174	1
H	0.223419	-1.160965	-1.210554	1
H	1.735969	-1.326505	-0.194884	1
H	1.853749	1.181394	0.069916	1
H	0.346139	1.371275	-0.947014	1
Es	-0.416001	-0.044595	0.620200	99
Es	-1.499258	0.516451	1.045312	99
Es	1.443165	-1.143794	-0.273518	99
Es	-1.239484	-0.008611	0.579298	99
Es	0.428203	-0.515573	0.241455	99
Es	0.213633	-0.079586	0.697700	99
Es	-1.469986	0.162772	-0.117134	99
Es	0.469550	0.422190	0.342042	99
Es	0.850792	-0.748269	-0.430388	99
Es	1.545869	1.046308	-0.041458	99
Es	0.352456	-0.119694	1.007288	99
Es	0.524035	1.171757	-0.722875	99
Es	0.920248	0.749389	-0.270974	99
Es	0.419003	-1.028751	-0.953519	99
Es	1.018337	0.015010	-0.549279	99
Es	-1.537132	-0.670490	0.766800	99
27
Properties=species:S:1:pos:R:3:Z:I:1 energy=-172.11277363916975 field_type=dipole dipole="0.000000 0.000000 0.000000" charge=0
C	-1.239611	-0.008605	0.579296	6
N	0.213849	-0.079675	0.698436	7
C	0.850879	-0.748455	-0.430544	6
C	0.920349	0.749585	-0.271084	6
H	-1.624341	0.749155	1.269866	1
H	-1.681221	-0.969605	0.862736	1
H	-1.599181	0.242405	-0.426174	1
H	0.223419	-1.160965	-1.210554	1
H	1.735969	-1.326505	-0.194884	1
H	1.853749	1.181394	0.069916	1
H	0.346139	1.371275	-0.947014	1
Es	1.545704	1.046384	-0.041482	99
Es	1.018618	0.015076	-0.549463	99
Es	-0.416120	-0.044683	0.620771	99
Es	0.850788	-0.748273	-0.430391	99
Es	0.469346	0.422205	0.342047	99
Es	0.523981	1.171705	-0.722880	99
Es	-1.499254	0.516535	1.045307	99
Es	-1.537091	-0.670572	0.766743	99
Es	0.352585	-0.119471	1.006766	99
Es	-1.239491	-0.008608	0.579293	99
Es	0.213625	-0.079586	0.697697	99
Es	0.920244	0.749390	-0.270971	99
Es	0.419036	-1.028797	-0.953406	99
Es	1.443000	-1.143666	-0.273606	99
Es	0.428245	-0.515877	0.241611	99
Es	-1.469786	0.162756	-0.117087	99
27
Properties=species:S:1:pos:R:3:Z:I:1 energy=-172.11277363916975 field_type=dipole dipole="0.000000 0.000000 0.000000" charge=0
C	-1.239611	-0.008605	0.579296	6
N	0.213849	-0.079675	0.698436	7
C	0.850879	-0.748455	-0.430544	6
C	0.920349	0.749585	-0.271084	6
H	-1.624341	0.749155	1.269866	1
H	-1.681221	-0.969605	0.862736	1
H	-1.599181	0.242405	-0.426174	1
H	0.223419	-1.160965	-1.210554	1
H	1.735969	-1.326505	-0.194884	1
H	1.853749	1.181394	0.069916	1
H	0.346139	1.371275	-0.947014	1
Es	1.442899	-1.143613	-0.273583	99
Es	0.850792	-0.748275	-0.430394	99
Es	-0.416185	-0.044510	0.621142	99
Es	0.920244	0.749383	-0.270973	99
Es	-1.239483	-0.008610	0.579298	99
Es	0.352629	-0.119575	1.006257	99
Es	0.524174	1.171872	-0.722790	99
Es	0.419090	-1.028851	-0.953324	99
Es	0.469460	0.422394	0.342163	99
Es	0.213651	-0.079595	0.697771	99
Es	-1.537027	-0.670632	0.766695	99
Es	1.545567	1.046133	-0.041465	99
Es	0.427874	-0.516026	0.241616	99
Es	-1.469712	0.162769	-0.117066	99
Es	1.018692	0.015090	-0.549750	99
Es	-1.499234	0.516562	1.045352	99
27
Properties=species:S:1:pos:R:3:Z:I:1 energy=-172.11277363916975 field_type=dipole dipole="0.000000 0.000000 0.000000" charge=0
C	-1.239611	-0.008605	0.579296	6
N	0.213849	-0.079675	0.698436	7
C	0.850879	-0.748455	-0.430544	6
C	0.920349	0.749585	-0.271084	6
H	-1.624341	0.749155	1.269866	1
H	-1.681221	-0.969605	0.862736	1
H	-1.599181	0.242405	-0.426174	1
H	0.223419	-1.160965	-1.210554	1
H	1.735969	-1.326505	-0.194884	1
H	1.853749	1.181394	0.069916	1
H	0.346139	1.371275	-0.947014	1
Es	0.352604	-0.119610	1.005660	99
Es	1.018859	0.015094	-0.549795	99
Es	1.442787	-1.143447	-0.273613	99
Es	0.213645	-0.079591	0.697734	99
Es	0.419179	-1.028904	-0.953356	99
Es	0.469423	0.422672	0.342399	99
Es	-1.499141	0.516658	1.045372	99
Es	-1.537013	-0.670680	0.766667	99
Es	-1.239473	-0.008611	0.579298	99
Es	-1.469524	0.162769	-0.117080	99
Es	1.545413	1.046023	-0.041514	99
Es	-0.416432	-0.044710	0.621631	99
Es	0.524227	1.171933	-0.722804	99
Es	0.920243	0.749387	-0.270973	99
Es	0.427851	-0.516199	0.241716	99
Es	0.850782	-0.748270	-0.430394	99
27
Properties=species:S:1:pos:R:3:Z:I:1 energy=-172.11277363916975 field_type=dipole dipole="0.000000 0.000000 0.000000" charge=0
C	-1.239611	-0.008605	0.579296	6
N	0.213849	-0.079675	0.698436	7
C	0.850879	-0.748455	-0.430544	6
C	0.920349	0.749585	-0.271084	6
H	-1.624341	0.749155	1.269866	1
H	-1.681221	-0.969605	0.862736	1
H	-1.599181	0.242405	-0.426174	1
H	0.223419	-1.160965	-1.210554	1
H	1.735969	-1.326505	-0.194884	1
H	1.853749	1.181394	0.069916	1
H	0.346139	1.371275	-0.947014	1
Es	-0.416537	-0.044780	0.621875	99
Es	1.442660	-1.143410	-0.273631	99
Es	0.850788	-0.748274	-0.430391	99
Es	-1.499091	0.516702	1.045395	99
Es	0.427877	-0.516472	0.241830	99
Es	0.920242	0.749383	-0.270968	99
Es	1.018988	0.015178	-0.549984	99
Es	-1.239483	-0.008610	0.579298	99
Es	0.213668	-0.079599	0.697790	99
Es	0.419234	-1.028897	-0.953280	99
Es	1.545369	1.046072	-0.041574	99
Es	0.352643	-0.119381	1.005331	99
Es	0.469223	0.422746	0.342362	99
Es	-1.469479	0.162742	-0.117118	99
Es	-1.536897	-0.670736	0.766707	99
Es	0.524226	1.171851	-0.722694	99
27
Properties=species:S:1:pos:R:3:Z:I:1 energy=-172.11277363916975 field_type=dipole dipole="0.000000 0.000000 0.000000" charge=0
C	-1.239611	-0.008605	0.579296	6
N	0.213849	-0.079675	0.698436	7
C	0.850879	-0.748455	-0.430544	6
C	0.920349	0.749585	-0.271084	6
H	-1.624341	0.749155	1.269866	1
H	-1.681221	-0.969605	0.862736	1
H	-1.599181	0.242405	-0.426174	1
H	0.223419	-1.160965	-1.210554	1
H	1.735969	-1.326505	-0.194884	1
H	1.853749	1.181394	0.069916	1
H	0.346139	1.371275	-0.947014	1
Es	-0.416558	-0.044757	0.621796	99
Es	-1.239480	-0.008610	0.579299	99
Es	0.352381	-0.119493	1.005199	99
Es	0.850790	-0.748268	-0.430393	99
Es	1.442564	-1.143439	-0.273648	99
Es	1.545244	1.045990	-0.041545	99
Es	0.419266	-1.028853	-0.953179	99
Es	0.524331	1.171893	-0.722621	99
Es	0.469336	0.422925	0.342573	99
Es	1.019151	0.015130	-0.550256	99
Es	0.213621	-0.079586	0.697694	99
Es	0.427826	-0.516531	0.241970	99
Es	0.920245	0.749382	-0.270975	99
Es	-1.469411	0.162797	-0.117079	99
Es	-1.498989	0.516727	1.045434	99
Es	-1.536885	-0.670791	0.766682	99
27
Properties=species:S:1:pos:R:3:Z:I:1 energy=-172.11277363916975 field_type=dipole dipole="0.000000 0.000000 0.000000" charge=0
C	-1.239611	-0.008605	0.579296	6
N	0.213849	-0.079675	0.698436	7
C	0.850879	-0.748455	-0.430544	6
C	0.920349	0.749585	-0.271084	6
H	-1.624341	0.749155	1.269866	1
H	-1.681221	-0.969605	0.862736	1
H	-1.599181	0.242405	-0.426174	1
H	0.223419	-1.160965	-1.210554	1
H	1.735969	-1.326505	-0.194884	1
H	1.853749	1.181394	0.069916	1
H	0.346139	1.371275	-0.947014	1
Es	1.442504	-1.143234	-0.273609	99
Es	0.352942	-0.119331	1.004411	99
Es	-1.469046	0.162789	-0.117114	99
Es	0.213621	-0.079586	0.697698	99
Es	0.524366	1.172017	-0.722705	99
Es	0.427753	-0.516582	0.241807	99
Es	-0.416966	-0.044928	0.623084	99
Es	1.019135	0.015133	-0.550160	99
Es	-1.536878	-0.670877	0.766633	99
Es	0.920248	0.749386	-0.270976	99
Es	1.545167	1.045831	-0.041566	99
Es	0.419290	-1.029048	-0.953237	99
Es	0.850792	-0.748274	-0.430394	99
Es	-1.499038	0.516804	1.045362	99
Es	0.469024	0.423027	0.342416	99
Es	-1.239484	-0.008610	0.579297	99
27
Properties=species:S:1:pos:R:3:Z:I:1 energy=-172.11277363916975 field_type=dipole dipole="0.000000 0.000000 0.000000" charge=0
C	-1.239611	-0.008605	0.579296	6
N	0.213849	-0.079675	0.698436	7
C	0.850879	-0.748455	-0.430544	6
C	0.920349	0.749585	-0.271084	6
H	-1.624341	0.749155	1.269866	1
H	-1.681221	-0.969605	0.862736	1
H	-1.599181	0.242405	-0.426174	1
H	0.223419	-1.160965	-1.210554	1
H	1.735969	-1.326505	-0.194884	1
H	1.853749	1.181394	0.069916	1
H	0.346139	1.371275	-0.947014	1
Es	1.442430	-1.143018	-0.273576	99
Es	1.545080	1.045928	-0.041605	99
Es	0.920245	0.749387	-0.270974	99
Es	-1.239479	-0.008610	0.579297	99
Es	-1.469063	0.162757	-0.117150	99
Es	0.850789	-0.748274	-0.430389	99
Es	0.469022	0.422822	0.342016	99
Es	-1.536786	-0.670893	0.766697	99
Es	0.419380	-1.029223	-0.953242	99
Es	1.019246	0.015215	-0.550288	99
Es	-1.498993	0.516833	1.045377	99
Es	-0.417006	-0.044771	0.623734	99
Es	0.353125	-0.118897	1.003804	99
Es	0.213642	-0.079590	0.697726	99
Es	0.524312	1.171928	-0.722653	99
Es	0.427488	-0.517078	0.242176	99
27
Properties=species:S:1:pos:R:3:Z:I:1 energy=-172.11277363916975 field_type=dipole dipole="0.000000 0.000000 0.000000" charge=0
C	-1.239611	-0.008605	0.579296	6
N	0.213849	-0.079675	0.698436	7
C	0.850879	-0.748455	-0.430544	6
C	0.920349	0.749585	-0.271084	6
H	-1.624341	0.749155	1.269866	1
H	-1.681221	-0.969605	0.862736	1
H	-1.599181	0.242405	-0.426174	1
H	0.223419	-1.160965	-1.210554	1
H	1.735969	-1.326505	-0.194884	1
H	1.853749	1.181394	0.069916	1
H	0.346139	1.371275	-0.947014	1
Es	1.544955	1.045758	-0.041613	99
Es	0.352842	-0.119325	1.003706	99
Es	0.427552	-0.516892	0.241967	99
Es	-1.468901	0.162745	-0.117120	99
Es	-1.239483	-0.008610	0.579298	99
Es	1.019404	0.015221	-0.550432	99
Es	0.920248	0.749386	-0.270972	99
Es	-1.536818	-0.670915	0.766642	99
Es	0.213601	-0.079581	0.697663	99
Es	1.442353	-1.143143	-0.273646	99
Es	-1.498970	0.516907	1.045373	99
Es	0.419345	-1.029080	-0.953152	99
Es	0.850787	-0.748273	-0.430392	99
Es	0.469030	0.423236	0.342648	99
Es	-0.416974	-0.044935	0.623615	99
Es	0.524461	1.172015	-0.722636	99
27
Properties=species:S:1:pos:R:3:Z:I:1 energy=-172.11277363916975 field_type=dipole dipole="0.000000 0.000000 0.000000" charge=0
C	-1.239611	-0.008605	0.579296	6
N	0.213849	-0.079675	0.698436	7
C	0.850879	-0.748455	-0.430544	6
C	0.920349	0.749585	-0.271084	6
H	-1.624341	0.749155	1.269866	1
H	-1.681221	-0.969605	0.862736	1
H	-1.599181	0.242405	-0.426174	1
H	0.223419	-1.160965	-1.210554	1
H	1.735969	-1.326505	-0.194884	1
H	1.853749	1.181394	0.069916	1
H	0.346139	1.371275	-0.947014	1
Es	-1.498953	0.516936	1.045336	99
Es	1.544936	1.045658	-0.041653	99
Es	0.524503	1.172098	-0.722554	99
Es	0.427501	-0.517091	0.241961	99
Es	-1.468768	0.162728	-0.117191	99
Es	0.352987	-0.119227	1.003297	99
Es	-0.417236	-0.044969	0.624134	99
Es	0.468980	0.423338	0.342614	99
Es	0.850788	-0.748274	-0.430392	99
Es	1.019348	0.015224	-0.550449	99
Es	0.920233	0.749387	-0.270973	99
Es	1.442303	-1.143036	-0.273657	99
Es	-1.239483	-0.008610	0.579298	99
Es	0.419435	-1.029096	-0.953181	99
Es	0.213593	-0.079580	0.697655	99
Es	-1.536736	-0.670970	0.766704	99
27
Properties=species:S:1:pos:R:3:Z:I:1 energy=-172.11277363916975 field_type=dipole dipole="0.000000 0.000000 0.000000" charge=0
C	-1.239611	-0.008605	0.579296	6
N	0.213849	-0.079675	0.698436	7
C	0.850879	-0.748455	-0.430544	6
C	0.920349	0.749585	-0.271084	6
H	-1.624341	0.749155	1.269866	1
H	-1.681221	-0.969605	0.862736	1
H	-1.599181	0.242405	-0.426174	1
H	0.223419	-1.160965	-1.210554	1
H	1.735969	-1.326505	-0.194884	1
H	1.853749	1.181394	0.069916	1
H	0.346139	1.371275	-0.947014	1
Es	0.213637	-0.079589	0.697721	99
Es	0.427407	-0.516906	0.241861	99
Es	-0.417416	-0.045193	0.625145	99
Es	0.524475	1.172118	-0.722613	99
Es	0.468627	0.423367	0.342453	99
Es	-1.239484	-0.008610	0.579298	99
Es	0.850785	-0.748272	-0.430394	99
Es	-1.536638	-0.670989	0.766669	99
Es	1.544833	1.045675	-0.041593	99
Es	-1.468764	0.162775	-0.117243	99
Es	0.419400	-1.029193	-0.953166	99
Es	-1.498886	0.516914	1.045455	99
Es	0.353419	-0.119129	1.002446	99
Es	0.920248	0.749385	-0.270972	99
Es	1.019611	0.015182	-0.550530	99
Es	1.442178	-1.143019	-0.273588	99
27
Properties=species:S:1:pos:R:3:Z:I:1 energy=-172.11277363916975 field_type=dipole dipole="0.000000 0.000000 0.000000" charge=0
C	-1.239611	-0.008605	0.579296	6
N	0.213849	-0.079675	0.698436	7
C	0.850879	-0.748455	-0.430544	6
C	0.920349	0.749585	-0.271084	6
H	-1.624341	0.749155	1.269866	1
H	-1.681221	-0.969605	0.862736	1
H	-1.599181	0.242405	-0.426174	1
H	0.223419	-1.160965	-1.210554	1
H	1.735969	-1.326505	-0.194884	1
H	1.853749	1.181394	0.069916	1
H	0.346139	1.371275	-0.947014	1
Es	-1.536680	-0.671064	0.766544	99
Es	0.213633	-0.079587	0.697725	99
Es	1.442167	-1.142916	-0.273612	99
Es	-1.239481	-0.008610	0.579299	99
Es	0.920248	0.749381	-0.270969	99
Es	0.524549	1.172112	-0.722551	99
Es	1.544740	1.045659	-0.041569	99
Es	0.468661	0.423318	0.342234	99
Es	0.419436	-1.029266	-0.953101	99
Es	0.850788	-0.748276	-0.430393	99
Es	0.427323	-0.517121	0.242072	99
Es	-0.417526	-0.045115	0.625260	99
Es	1.019612	0.015238	-0.550693	99